<event>
 4    1  0.2195261E-006  0.1300000E+05  0.7957747E-01  0.1322471E+00
    9000001   -1    0    0    0    0  0.00000000000E+00  0.00000000000E+00  0.64999999231E+04  0.65000000000E+04  0.10000000000E+01 0.  0.
    9000001   -1    0    0    0    0 -0.00000000000E+00 -0.00000000000E+00 -0.64999999231E+04  0.65000000000E+04  0.10000000000E+01 0.  0.
    9000001    1    1    2    0    0 -0.57729365168E+04 -0.76572890097E+03  0.28873625028E+04  0.65000000000E+04  0.10000000000E+01 0.  0.
    9000001    1    1    2    0    0  0.57729365168E+04  0.76572890097E+03 -0.28873625028E+04  0.65000000000E+04  0.10000000000E+01 0.  0.
</event>
<event>
 4    1  0.2195261E-006  0.1300000E+05  0.7957747E-01  0.1322471E+00
    9000001   -1    0    0    0    0  0.00000000000E+00  0.00000000000E+00  0.64999999231E+04  0.65000000000E+04  0.10000000000E+01 0.  0.
    9000001   -1    0    0    0    0 -0.00000000000E+00 -0.00000000000E+00 -0.64999999231E+04  0.65000000000E+04  0.10000000000E+01 0.  0.
    9000001    1    1    2    0    0  0.38945976495E+04  0.37880987260E+04 -0.35682511390E+04  0.65000000000E+04  0.10000000000E+01 0.  0.
    9000001    1    1    2    0    0 -0.38945976495E+04 -0.37880987260E+04  0.35682511390E+04  0.65000000000E+04  0.10000000000E+01 0.  0.
</event>
<event>
 4    1  0.2195261E-006  0.1300000E+05  0.7957747E-01  0.1322471E+00
    9000001   -1    0    0    0    0  0.00000000000E+00  0.00000000000E+00  0.64999999231E+04  0.65000000000E+04  0.10000000000E+01 0.  0.
    9000001   -1    0    0    0    0 -0.00000000000E+00 -0.00000000000E+00 -0.64999999231E+04  0.65000000000E+04  0.10000000000E+01 0.  0.
    9000001    1    1    2    0    0  0.29967015979E+04 -0.44178012952E+04 -0.37084781580E+04  0.65000000000E+04  0.10000000000E+01 0.  0.
    9000001    1    1    2    0    0 -0.29967015979E+04  0.44178012952E+04  0.37084781580E+04  0.65000000000E+04  0.10000000000E+01 0.  0.
</event>
<event>
 4    1  0.2195261E-006  0.1300000E+05  0.7957747E-01  0.1322471E+00
    9000001   -1    0    0    0    0  0.00000000000E+00  0.00000000000E+00  0.64999999231E+04  0.65000000000E+04  0.10000000000E+01 0.  0.
    9000001   -1    0    0    0    0 -0.00000000000E+00 -0.00000000000E+00 -0.64999999231E+04  0.65000000000E+04  0.10000000000E+01 0.  0.
    9000001    1    1    2    0    0  0.59531572642E+04 -0.22447273025E+04 -0.13308331694E+04  0.65000000000E+04  0.10000000000E+01 0.  0.
    9000001    1    1    2    0    0 -0.59531572642E+04  0.22447273025E+04  0.13308331694E+04  0.65000000000E+04  0.10000000000E+01 0.  0.
</event>
<event>
 4    1  0.2195261E-006  0.1300000E+05  0.7957747E-01  0.1322471E+00
    9000001   -1    0    0    0    0  0.00000000000E+00  0.00000000000E+00  0.64999999231E+04  0.65000000000E+04  0.10000000000E+01 0.  0.
    9000001   -1    0    0    0    0 -0.00000000000E+00 -0.00000000000E+00 -0.64999999231E+04  0.65000000000E+04  0.10000000000E+01 0.  0.
    9000001    1    1    2    0    0  0.16664881452E+04  0.39219440305E+03 -0.62704864095E+04  0.65000000000E+04  0.10000000000E+01 0.  0.
    9000001    1    1    2    0    0 -0.16664881452E+04 -0.39219440305E+03  0.62704864095E+04  0.65000000000E+04  0.10000000000E+01 0.  0.
</event>
<event>
 4    1  0.2195261E-006  0.1300000E+05  0.7957747E-01  0.1322471E+00
    9000001   -1    0    0    0    0  0.00000000000E+00  0.00000000000E+00  0.64999999231E+04  0.65000000000E+04  0.10000000000E+01 0.  0.
    9000001   -1    0    0    0    0 -0.00000000000E+00 -0.00000000000E+00 -0.64999999231E+04  0.65000000000E+04  0.10000000000E+01 0.  0.
    9000001    1    1    2    0    0  0.89402180757E+03  0.55368557180E+03 -0.64143710756E+04  0.65000000000E+04  0.10000000000E+01 0.  0.
    9000001    1    1    2    0    0 -0.89402180757E+03 -0.55368557180E+03  0.64143710756E+04  0.65000000000E+04  0.10000000000E+01 0.  0.
</event>
<event>
 4    1  0.2195261E-006  0.1300000E+05  0.7957747E-01  0.1322471E+00
    9000001   -1    0    0    0    0  0.00000000000E+00  0.00000000000E+00  0.64999999231E+04  0.65000000000E+04  0.10000000000E+01 0.  0.
    9000001   -1    0    0    0    0 -0.00000000000E+00 -0.00000000000E+00 -0.64999999231E+04  0.65000000000E+04  0.10000000000E+01 0.  0.
    9000001    1    1    2    0    0  0.38267566458E+04  0.51726715909E+04 -0.92162963604E+03  0.65000000000E+04  0.10000000000E+01 0.  0.
    9000001    1    1    2    0    0 -0.38267566458E+04 -0.51726715909E+04  0.92162963604E+03  0.65000000000E+04  0.10000000000E+01 0.  0.
</event>
<event>
 4    1  0.2195261E-006  0.1300000E+05  0.7957747E-01  0.1322471E+00
    9000001   -1    0    0    0    0  0.00000000000E+00  0.00000000000E+00  0.64999999231E+04  0.65000000000E+04  0.10000000000E+01 0.  0.
    9000001   -1    0    0    0    0 -0.00000000000E+00 -0.00000000000E+00 -0.64999999231E+04  0.65000000000E+04  0.10000000000E+01 0.  0.
    9000001    1    1    2    0    0 -0.14021545940E+04 -0.17237360596E+04 -0.61084118633E+04  0.65000000000E+04  0.10000000000E+01 0.  0.
    9000001    1    1    2    0    0  0.14021545940E+04  0.17237360596E+04  0.61084118633E+04  0.65000000000E+04  0.10000000000E+01 0.  0.
</event>
<event>
 4    1  0.2195261E-006  0.1300000E+05  0.7957747E-01  0.1322471E+00
    9000001   -1    0    0    0    0  0.00000000000E+00  0.00000000000E+00  0.64999999231E+04  0.65000000000E+04  0.10000000000E+01 0.  0.
    9000001   -1    0    0    0    0 -0.00000000000E+00 -0.00000000000E+00 -0.64999999231E+04  0.65000000000E+04  0.10000000000E+01 0.  0.
    9000001    1    1    2    0    0  0.47817288051E+03 -0.63697652266E+04 -0.12030962781E+04  0.65000000000E+04  0.10000000000E+01 0.  0.
    9000001    1    1    2    0    0 -0.47817288051E+03  0.63697652266E+04  0.12030962781E+04  0.65000000000E+04  0.10000000000E+01 0.  0.
</event>
<event>
 4    1  0.2195261E-006  0.1300000E+05  0.7957747E-01  0.1322471E+00
    9000001   -1    0    0    0    0  0.00000000000E+00  0.00000000000E+00  0.64999999231E+04  0.65000000000E+04  0.10000000000E+01 0.  0.
    9000001   -1    0    0    0    0 -0.00000000000E+00 -0.00000000000E+00 -0.64999999231E+04  0.65000000000E+04  0.10000000000E+01 0.  0.
    9000001    1    1    2    0    0 -0.61766290175E+04  0.55389210277E+03  0.19474230457E+04  0.65000000000E+04  0.10000000000E+01 0.  0.
    9000001    1    1    2    0    0  0.61766290175E+04 -0.55389210277E+03 -0.19474230457E+04  0.65000000000E+04  0.10000000000E+01 0.  0.
</event>
<event>
 4    1  0.2195261E-006  0.1300000E+05  0.7957747E-01  0.1322471E+00
    9000001   -1    0    0    0    0  0.00000000000E+00  0.00000000000E+00  0.64999999231E+04  0.65000000000E+04  0.10000000000E+01 0.  0.
    9000001   -1    0    0    0    0 -0.00000000000E+00 -0.00000000000E+00 -0.64999999231E+04  0.65000000000E+04  0.10000000000E+01 0.  0.
    9000001    1    1    2    0    0  0.58918408302E+04 -0.22176176727E+04 -0.16181416776E+04  0.65000000000E+04  0.10000000000E+01 0.  0.
    9000001    1    1    2    0    0 -0.58918408302E+04  0.22176176727E+04  0.16181416776E+04  0.65000000000E+04  0.10000000000E+01 0.  0.
</event>
<event>
 4    1  0.2195261E-006  0.1300000E+05  0.7957747E-01  0.1322471E+00
    9000001   -1    0    0    0    0  0.00000000000E+00  0.00000000000E+00  0.64999999231E+04  0.65000000000E+04  0.10000000000E+01 0.  0.
    9000001   -1    0    0    0    0 -0.00000000000E+00 -0.00000000000E+00 -0.64999999231E+04  0.65000000000E+04  0.10000000000E+01 0.  0.
    9000001    1    1    2    0    0  0.24852716392E+04 -0.41067166925E+04 -0.43827276765E+04  0.65000000000E+04  0.10000000000E+01 0.  0.
    9000001    1    1    2    0    0 -0.24852716392E+04  0.41067166925E+04  0.43827276765E+04  0.65000000000E+04  0.10000000000E+01 0.  0.
</event>
<event>
 4    1  0.2195261E-006  0.1300000E+05  0.7957747E-01  0.1322471E+00
    9000001   -1    0    0    0    0  0.00000000000E+00  0.00000000000E+00  0.64999999231E+04  0.65000000000E+04  0.10000000000E+01 0.  0.
    9000001   -1    0    0    0    0 -0.00000000000E+00 -0.00000000000E+00 -0.64999999231E+04  0.65000000000E+04  0.10000000000E+01 0.  0.
    9000001    1    1    2    0    0 -0.56737673605E+04 -0.31325914882E+04 -0.49521056780E+03  0.65000000000E+04  0.10000000000E+01 0.  0.
    9000001    1    1    2    0    0  0.56737673605E+04  0.31325914882E+04  0.49521056780E+03  0.65000000000E+04  0.10000000000E+01 0.  0.
</event>
<event>
 4    1  0.2195261E-006  0.1300000E+05  0.7957747E-01  0.1322471E+00
    9000001   -1    0    0    0    0  0.00000000000E+00  0.00000000000E+00  0.64999999231E+04  0.65000000000E+04  0.10000000000E+01 0.  0.
    9000001   -1    0    0    0    0 -0.00000000000E+00 -0.00000000000E+00 -0.64999999231E+04  0.65000000000E+04  0.10000000000E+01 0.  0.
    9000001    1    1    2    0    0  0.46895093061E+04 -0.45007513664E+04 -0.41696592774E+02  0.65000000000E+04  0.10000000000E+01 0.  0.
    9000001    1    1    2    0    0 -0.46895093061E+04  0.45007513664E+04  0.41696592774E+02  0.65000000000E+04  0.10000000000E+01 0.  0.
</event>
<event>
 4    1  0.2195261E-006  0.1300000E+05  0.7957747E-01  0.1322471E+00
    9000001   -1    0    0    0    0  0.00000000000E+00  0.00000000000E+00  0.64999999231E+04  0.65000000000E+04  0.10000000000E+01 0.  0.
    9000001   -1    0    0    0    0 -0.00000000000E+00 -0.00000000000E+00 -0.64999999231E+04  0.65000000000E+04  0.10000000000E+01 0.  0.
    9000001    1    1    2    0    0 -0.61303687034E+04 -0.16154427170E+04  0.14348949049E+04  0.65000000000E+04  0.10000000000E+01 0.  0.
    9000001    1    1    2    0    0  0.61303687034E+04  0.16154427170E+04 -0.14348949049E+04  0.65000000000E+04  0.10000000000E+01 0.  0.
</event>
<event>
 4    1  0.2195261E-006  0.1300000E+05  0.7957747E-01  0.1322471E+00
    9000001   -1    0    0    0    0  0.00000000000E+00  0.00000000000E+00  0.64999999231E+04  0.65000000000E+04  0.10000000000E+01 0.  0.
    9000001   -1    0    0    0    0 -0.00000000000E+00 -0.00000000000E+00 -0.64999999231E+04  0.65000000000E+04  0.10000000000E+01 0.  0.
    9000001    1    1    2    0    0  0.32371406183E+04 -0.43534889270E+04  0.35802309674E+04  0.65000000000E+04  0.10000000000E+01 0.  0.
    9000001    1    1    2    0    0 -0.32371406183E+04  0.43534889270E+04 -0.35802309674E+04  0.65000000000E+04  0.10000000000E+01 0.  0.
</event>
<event>
 4    1  0.2195261E-006  0.1300000E+05  0.7957747E-01  0.1322471E+00
    9000001   -1    0    0    0    0  0.00000000000E+00  0.00000000000E+00  0.64999999231E+04  0.65000000000E+04  0.10000000000E+01 0.  0.
    9000001   -1    0    0    0    0 -0.00000000000E+00 -0.00000000000E+00 -0.64999999231E+04  0.65000000000E+04  0.10000000000E+01 0.  0.
    9000001    1    1    2    0    0 -0.18241292226E+04 -0.54578533189E+04 -0.30223151273E+04  0.65000000000E+04  0.10000000000E+01 0.  0.
    9000001    1    1    2    0    0  0.18241292226E+04  0.54578533189E+04  0.30223151273E+04  0.65000000000E+04  0.10000000000E+01 0.  0.
</event>
<event>
 4    1  0.2195261E-006  0.1300000E+05  0.7957747E-01  0.1322471E+00
    9000001   -1    0    0    0    0  0.00000000000E+00  0.00000000000E+00  0.64999999231E+04  0.65000000000E+04  0.10000000000E+01 0.  0.
    9000001   -1    0    0    0    0 -0.00000000000E+00 -0.00000000000E+00 -0.64999999231E+04  0.65000000000E+04  0.10000000000E+01 0.  0.
    9000001    1    1    2    0    0 -0.22390237457E+04 -0.34088216011E+03  0.60926653461E+04  0.65000000000E+04  0.10000000000E+01 0.  0.
    9000001    1    1    2    0    0  0.22390237457E+04  0.34088216011E+03 -0.60926653461E+04  0.65000000000E+04  0.10000000000E+01 0.  0.
</event>
<event>
 4    1  0.2195261E-006  0.1300000E+05  0.7957747E-01  0.1322471E+00
    9000001   -1    0    0    0    0  0.00000000000E+00  0.00000000000E+00  0.64999999231E+04  0.65000000000E+04  0.10000000000E+01 0.  0.
    9000001   -1    0    0    0    0 -0.00000000000E+00 -0.00000000000E+00 -0.64999999231E+04  0.65000000000E+04  0.10000000000E+01 0.  0.
    9000001    1    1    2    0    0  0.21241301642E+04  0.61192635750E+04 -0.54100216762E+03  0.65000000000E+04  0.10000000000E+01 0.  0.
    9000001    1    1    2    0    0 -0.21241301642E+04 -0.61192635750E+04  0.54100216762E+03  0.65000000000E+04  0.10000000000E+01 0.  0.
</event>
<event>
 4    1  0.2195261E-006  0.1300000E+05  0.7957747E-01  0.1322471E+00
    9000001   -1    0    0    0    0  0.00000000000E+00  0.00000000000E+00  0.64999999231E+04  0.65000000000E+04  0.10000000000E+01 0.  0.
    9000001   -1    0    0    0    0 -0.00000000000E+00 -0.00000000000E+00 -0.64999999231E+04  0.65000000000E+04  0.10000000000E+01 0.  0.
    9000001    1    1    2    0    0  0.47501331269E+03  0.66221509802E+03  0.64487078176E+04  0.65000000000E+04  0.10000000000E+01 0.  0.
    9000001    1    1    2    0    0 -0.47501331269E+03 -0.66221509802E+03 -0.64487078176E+04  0.65000000000E+04  0.10000000000E+01 0.  0.
</event>
<event>
 4    1  0.2195261E-006  0.1300000E+05  0.7957747E-01  0.1322471E+00
    9000001   -1    0    0    0    0  0.00000000000E+00  0.00000000000E+00  0.64999999231E+04  0.65000000000E+04  0.10000000000E+01 0.  0.
    9000001   -1    0    0    0    0 -0.00000000000E+00 -0.00000000000E+00 -0.64999999231E+04  0.65000000000E+04  0.10000000000E+01 0.  0.
    9000001    1    1    2    0    0  0.25031706363E+04 -0.17180330106E+04  0.57473905679E+04  0.65000000000E+04  0.10000000000E+01 0.  0.
    9000001    1    1    2    0    0 -0.25031706363E+04  0.17180330106E+04 -0.57473905679E+04  0.65000000000E+04  0.10000000000E+01 0.  0.
</event>
<event>
 4    1  0.2195261E-006  0.1300000E+05  0.7957747E-01  0.1322471E+00
    9000001   -1    0    0    0    0  0.00000000000E+00  0.00000000000E+00  0.64999999231E+04  0.65000000000E+04  0.10000000000E+01 0.  0.
    9000001   -1    0    0    0    0 -0.00000000000E+00 -0.00000000000E+00 -0.64999999231E+04  0.65000000000E+04  0.10000000000E+01 0.  0.
    9000001    1    1    2    0    0  0.48787418169E+04 -0.17909555605E+04  0.39038897864E+04  0.65000000000E+04  0.10000000000E+01 0.  0.
    9000001    1    1    2    0    0 -0.48787418169E+04  0.17909555605E+04 -0.39038897864E+04  0.65000000000E+04  0.10000000000E+01 0.  0.
</event>
<event>
 4    1  0.2195261E-006  0.1300000E+05  0.7957747E-01  0.1322471E+00
    9000001   -1    0    0    0    0  0.00000000000E+00  0.00000000000E+00  0.64999999231E+04  0.65000000000E+04  0.10000000000E+01 0.  0.
    9000001   -1    0    0    0    0 -0.00000000000E+00 -0.00000000000E+00 -0.64999999231E+04  0.65000000000E+04  0.10000000000E+01 0.  0.
    9000001    1    1    2    0    0  0.32502736533E+04  0.56207879426E+04 -0.30407742931E+03  0.65000000000E+04  0.10000000000E+01 0.  0.
    9000001    1    1    2    0    0 -0.32502736533E+04 -0.56207879426E+04  0.30407742931E+03  0.65000000000E+04  0.10000000000E+01 0.  0.
</event>
<event>
 4    1  0.2195261E-006  0.1300000E+05  0.7957747E-01  0.1322471E+00
    9000001   -1    0    0    0    0  0.00000000000E+00  0.00000000000E+00  0.64999999231E+04  0.65000000000E+04  0.10000000000E+01 0.  0.
    9000001   -1    0    0    0    0 -0.00000000000E+00 -0.00000000000E+00 -0.64999999231E+04  0.65000000000E+04  0.10000000000E+01 0.  0.
    9000001    1    1    2    0    0 -0.21504209687E+04 -0.37008063386E+04 -0.48918014168E+04  0.65000000000E+04  0.10000000000E+01 0.  0.
    9000001    1    1    2    0    0  0.21504209687E+04  0.37008063386E+04  0.48918014168E+04  0.65000000000E+04  0.10000000000E+01 0.  0.
</event>
<event>
 4    1  0.2195261E-006  0.1300000E+05  0.7957747E-01  0.1322471E+00
    9000001   -1    0    0    0    0  0.00000000000E+00  0.00000000000E+00  0.64999999231E+04  0.65000000000E+04  0.10000000000E+01 0.  0.
    9000001   -1    0    0    0    0 -0.00000000000E+00 -0.00000000000E+00 -0.64999999231E+04  0.65000000000E+04  0.10000000000E+01 0.  0.
    9000001    1    1    2    0    0  0.14749846657E+04  0.88503513908E+03 -0.62682638775E+04  0.65000000000E+04  0.10000000000E+01 0.  0.
    9000001    1    1    2    0    0 -0.14749846657E+04 -0.88503513908E+03  0.62682638775E+04  0.65000000000E+04  0.10000000000E+01 0.  0.
</event>
<event>
 4    1  0.2195261E-006  0.1300000E+05  0.7957747E-01  0.1322471E+00
    9000001   -1    0    0    0    0  0.00000000000E+00  0.00000000000E+00  0.64999999231E+04  0.65000000000E+04  0.10000000000E+01 0.  0.
    9000001   -1    0    0    0    0 -0.00000000000E+00 -0.00000000000E+00 -0.64999999231E+04  0.65000000000E+04  0.10000000000E+01 0.  0.
    9000001    1    1    2    0    0 -0.64070848946E+04 -0.51475961818E+03 -0.96658403128E+03  0.65000000000E+04  0.10000000000E+01 0.  0.
    9000001    1    1    2    0    0  0.64070848946E+04  0.51475961818E+03  0.96658403128E+03  0.65000000000E+04  0.10000000000E+01 0.  0.
</event>
<event>
 4    1  0.2195261E-006  0.1300000E+05  0.7957747E-01  0.1322471E+00
    9000001   -1    0    0    0    0  0.00000000000E+00  0.00000000000E+00  0.64999999231E+04  0.65000000000E+04  0.10000000000E+01 0.  0.
    9000001   -1    0    0    0    0 -0.00000000000E+00 -0.00000000000E+00 -0.64999999231E+04  0.65000000000E+04  0.10000000000E+01 0.  0.
    9000001    1    1    2    0    0 -0.18377417193E+04  0.36912753634E+04  0.50246582535E+04  0.65000000000E+04  0.10000000000E+01 0.  0.
    9000001    1    1    2    0    0  0.18377417193E+04 -0.36912753634E+04 -0.50246582535E+04  0.65000000000E+04  0.10000000000E+01 0.  0.
</event>
<event>
 4    1  0.2195261E-006  0.1300000E+05  0.7957747E-01  0.1322471E+00
    9000001   -1    0    0    0    0  0.00000000000E+00  0.00000000000E+00  0.64999999231E+04  0.65000000000E+04  0.10000000000E+01 0.  0.
    9000001   -1    0    0    0    0 -0.00000000000E+00 -0.00000000000E+00 -0.64999999231E+04  0.65000000000E+04  0.10000000000E+01 0.  0.
    9000001    1    1    2    0    0 -0.11617870555E+04  0.58771736096E+04  0.25217216739E+04  0.65000000000E+04  0.10000000000E+01 0.  0.
    9000001    1    1    2    0    0  0.11617870555E+04 -0.58771736096E+04 -0.25217216739E+04  0.65000000000E+04  0.10000000000E+01 0.  0.
</event>
<event>
 4    1  0.2195261E-006  0.1300000E+05  0.7957747E-01  0.1322471E+00
    9000001   -1    0    0    0    0  0.00000000000E+00  0.00000000000E+00  0.64999999231E+04  0.65000000000E+04  0.10000000000E+01 0.  0.
    9000001   -1    0    0    0    0 -0.00000000000E+00 -0.00000000000E+00 -0.64999999231E+04  0.65000000000E+04  0.10000000000E+01 0.  0.
    9000001    1    1    2    0    0 -0.13641798073E+04 -0.19359309912E+04 -0.60531961517E+04  0.65000000000E+04  0.10000000000E+01 0.  0.
    9000001    1    1    2    0    0  0.13641798073E+04  0.19359309912E+04  0.60531961517E+04  0.65000000000E+04  0.10000000000E+01 0.  0.
</event>
<event>
 4    1  0.2195261E-006  0.1300000E+05  0.7957747E-01  0.1322471E+00
    9000001   -1    0    0    0    0  0.00000000000E+00  0.00000000000E+00  0.64999999231E+04  0.65000000000E+04  0.10000000000E+01 0.  0.
    9000001   -1    0    0    0    0 -0.00000000000E+00 -0.00000000000E+00 -0.64999999231E+04  0.65000000000E+04  0.10000000000E+01 0.  0.
    9000001    1    1    2    0    0  0.40049984047E+04 -0.47496807613E+04  0.19106332575E+04  0.65000000000E+04  0.10000000000E+01 0.  0.
    9000001    1    1    2    0    0 -0.40049984047E+04  0.47496807613E+04 -0.19106332575E+04  0.65000000000E+04  0.10000000000E+01 0.  0.
</event>
<event>
 4    1  0.2195261E-006  0.1300000E+05  0.7957747E-01  0.1322471E+00
    9000001   -1    0    0    0    0  0.00000000000E+00  0.00000000000E+00  0.64999999231E+04  0.65000000000E+04  0.10000000000E+01 0.  0.
    9000001   -1    0    0    0    0 -0.00000000000E+00 -0.00000000000E+00 -0.64999999231E+04  0.65000000000E+04  0.10000000000E+01 0.  0.
    9000001    1    1    2    0    0 -0.42045489229E+03  0.64849147096E+04 -0.13819512336E+03  0.65000000000E+04  0.10000000000E+01 0.  0.
    9000001    1    1    2    0    0  0.42045489229E+03 -0.64849147096E+04  0.13819512336E+03  0.65000000000E+04  0.10000000000E+01 0.  0.
</event>
<event>
 4    1  0.2195261E-006  0.1300000E+05  0.7957747E-01  0.1322471E+00
    9000001   -1    0    0    0    0  0.00000000000E+00  0.00000000000E+00  0.64999999231E+04  0.65000000000E+04  0.10000000000E+01 0.  0.
    9000001   -1    0    0    0    0 -0.00000000000E+00 -0.00000000000E+00 -0.64999999231E+04  0.65000000000E+04  0.10000000000E+01 0.  0.
    9000001    1    1    2    0    0 -0.28762136484E+04  0.57243615161E+04 -0.10995814119E+04  0.65000000000E+04  0.10000000000E+01 0.  0.
    9000001    1    1    2    0    0  0.28762136484E+04 -0.57243615161E+04  0.10995814119E+04  0.65000000000E+04  0.10000000000E+01 0.  0.
</event>
<event>
 4    1  0.2195261E-006  0.1300000E+05  0.7957747E-01  0.1322471E+00
    9000001   -1    0    0    0    0  0.00000000000E+00  0.00000000000E+00  0.64999999231E+04  0.65000000000E+04  0.10000000000E+01 0.  0.
    9000001   -1    0    0    0    0 -0.00000000000E+00 -0.00000000000E+00 -0.64999999231E+04  0.65000000000E+04  0.10000000000E+01 0.  0.
    9000001    1    1    2    0    0 -0.11673332382E+04  0.35720214592E+04 -0.53035832044E+04  0.65000000000E+04  0.10000000000E+01 0.  0.
    9000001    1    1    2    0    0  0.11673332382E+04 -0.35720214592E+04  0.53035832044E+04  0.65000000000E+04  0.10000000000E+01 0.  0.
</event>
<event>
 4    1  0.2195261E-006  0.1300000E+05  0.7957747E-01  0.1322471E+00
    9000001   -1    0    0    0    0  0.00000000000E+00  0.00000000000E+00  0.64999999231E+04  0.65000000000E+04  0.10000000000E+01 0.  0.
    9000001   -1    0    0    0    0 -0.00000000000E+00 -0.00000000000E+00 -0.64999999231E+04  0.65000000000E+04  0.10000000000E+01 0.  0.
    9000001    1    1    2    0    0 -0.45871577238E+04 -0.45541618868E+04  0.68380737502E+03  0.65000000000E+04  0.10000000000E+01 0.  0.
    9000001    1    1    2    0    0  0.45871577238E+04  0.45541618868E+04 -0.68380737502E+03  0.65000000000E+04  0.10000000000E+01 0.  0.
</event>
<event>
 4    1  0.2195261E-006  0.1300000E+05  0.7957747E-01  0.1322471E+00
    9000001   -1    0    0    0    0  0.00000000000E+00  0.00000000000E+00  0.64999999231E+04  0.65000000000E+04  0.10000000000E+01 0.  0.
    9000001   -1    0    0    0    0 -0.00000000000E+00 -0.00000000000E+00 -0.64999999231E+04  0.65000000000E+04  0.10000000000E+01 0.  0.
    9000001    1    1    2    0    0  0.61714185191E+04 -0.73222305149E+03  0.19045844338E+04  0.65000000000E+04  0.10000000000E+01 0.  0.
    9000001    1    1    2    0    0 -0.61714185191E+04  0.73222305149E+03 -0.19045844338E+04  0.65000000000E+04  0.10000000000E+01 0.  0.
</event>
<event>
 4    1  0.2195261E-006  0.1300000E+05  0.7957747E-01  0.1322471E+00
    9000001   -1    0    0    0    0  0.00000000000E+00  0.00000000000E+00  0.64999999231E+04  0.65000000000E+04  0.10000000000E+01 0.  0.
    9000001   -1    0    0    0    0 -0.00000000000E+00 -0.00000000000E+00 -0.64999999231E+04  0.65000000000E+04  0.10000000000E+01 0.  0.
    9000001    1    1    2    0    0 -0.18638947760E+04 -0.60098178929E+04 -0.16303325298E+04  0.65000000000E+04  0.10000000000E+01 0.  0.
    9000001    1    1    2    0    0  0.18638947760E+04  0.60098178929E+04  0.16303325298E+04  0.65000000000E+04  0.10000000000E+01 0.  0.
</event>
<event>
 4    1  0.2195261E-006  0.1300000E+05  0.7957747E-01  0.1322471E+00
    9000001   -1    0    0    0    0  0.00000000000E+00  0.00000000000E+00  0.64999999231E+04  0.65000000000E+04  0.10000000000E+01 0.  0.
    9000001   -1    0    0    0    0 -0.00000000000E+00 -0.00000000000E+00 -0.64999999231E+04  0.65000000000E+04  0.10000000000E+01 0.  0.
    9000001    1    1    2    0    0 -0.40226641726E+04  0.43456351532E+04  0.26802289212E+04  0.65000000000E+04  0.10000000000E+01 0.  0.
    9000001    1    1    2    0    0  0.40226641726E+04 -0.43456351532E+04 -0.26802289212E+04  0.65000000000E+04  0.10000000000E+01 0.  0.
</event>
<event>
 4    1  0.2195261E-006  0.1300000E+05  0.7957747E-01  0.1322471E+00
    9000001   -1    0    0    0    0  0.00000000000E+00  0.00000000000E+00  0.64999999231E+04  0.65000000000E+04  0.10000000000E+01 0.  0.
    9000001   -1    0    0    0    0 -0.00000000000E+00 -0.00000000000E+00 -0.64999999231E+04  0.65000000000E+04  0.10000000000E+01 0.  0.
    9000001    1    1    2    0    0 -0.30603206362E+03  0.35770740642E+04 -0.54185684932E+04  0.65000000000E+04  0.10000000000E+01 0.  0.
    9000001    1    1    2    0    0  0.30603206362E+03 -0.35770740642E+04  0.54185684932E+04  0.65000000000E+04  0.10000000000E+01 0.  0.
</event>
<event>
 4    1  0.2195261E-006  0.1300000E+05  0.7957747E-01  0.1322471E+00
    9000001   -1    0    0    0    0  0.00000000000E+00  0.00000000000E+00  0.64999999231E+04  0.65000000000E+04  0.10000000000E+01 0.  0.
    9000001   -1    0    0    0    0 -0.00000000000E+00 -0.00000000000E+00 -0.64999999231E+04  0.65000000000E+04  0.10000000000E+01 0.  0.
    9000001    1    1    2    0    0 -0.55862055547E+04 -0.33177411835E+04 -0.19209357204E+03  0.65000000000E+04  0.10000000000E+01 0.  0.
    9000001    1    1    2    0    0  0.55862055547E+04  0.33177411835E+04  0.19209357204E+03  0.65000000000E+04  0.10000000000E+01 0.  0.
</event>
<event>
 4    1  0.2195261E-006  0.1300000E+05  0.7957747E-01  0.1322471E+00
    9000001   -1    0    0    0    0  0.00000000000E+00  0.00000000000E+00  0.64999999231E+04  0.65000000000E+04  0.10000000000E+01 0.  0.
    9000001   -1    0    0    0    0 -0.00000000000E+00 -0.00000000000E+00 -0.64999999231E+04  0.65000000000E+04  0.10000000000E+01 0.  0.
    9000001    1    1    2    0    0 -0.47490320621E+03 -0.51890653600E+04 -0.38856230690E+04  0.65000000000E+04  0.10000000000E+01 0.  0.
    9000001    1    1    2    0    0  0.47490320621E+03  0.51890653600E+04  0.38856230690E+04  0.65000000000E+04  0.10000000000E+01 0.  0.
</event>
<event>
 4    1  0.2195261E-006  0.1300000E+05  0.7957747E-01  0.1322471E+00
    9000001   -1    0    0    0    0  0.00000000000E+00  0.00000000000E+00  0.64999999231E+04  0.65000000000E+04  0.10000000000E+01 0.  0.
    9000001   -1    0    0    0    0 -0.00000000000E+00 -0.00000000000E+00 -0.64999999231E+04  0.65000000000E+04  0.10000000000E+01 0.  0.
    9000001    1    1    2    0    0  0.21207303340E+04 -0.49515681035E+04  0.36379218199E+04  0.65000000000E+04  0.10000000000E+01 0.  0.
    9000001    1    1    2    0    0 -0.21207303340E+04  0.49515681035E+04 -0.36379218199E+04  0.65000000000E+04  0.10000000000E+01 0.  0.
</event>
<event>
 4    1  0.2195261E-006  0.1300000E+05  0.7957747E-01  0.1322471E+00
    9000001   -1    0    0    0    0  0.00000000000E+00  0.00000000000E+00  0.64999999231E+04  0.65000000000E+04  0.10000000000E+01 0.  0.
    9000001   -1    0    0    0    0 -0.00000000000E+00 -0.00000000000E+00 -0.64999999231E+04  0.65000000000E+04  0.10000000000E+01 0.  0.
    9000001    1    1    2    0    0  0.50093863752E+04  0.34070273416E+03 -0.41279497079E+04  0.65000000000E+04  0.10000000000E+01 0.  0.
    9000001    1    1    2    0    0 -0.50093863752E+04 -0.34070273416E+03  0.41279497079E+04  0.65000000000E+04  0.10000000000E+01 0.  0.
</event>
<event>
 4    1  0.2195261E-006  0.1300000E+05  0.7957747E-01  0.1322471E+00
    9000001   -1    0    0    0    0  0.00000000000E+00  0.00000000000E+00  0.64999999231E+04  0.65000000000E+04  0.10000000000E+01 0.  0.
    9000001   -1    0    0    0    0 -0.00000000000E+00 -0.00000000000E+00 -0.64999999231E+04  0.65000000000E+04  0.10000000000E+01 0.  0.
    9000001    1    1    2    0    0  0.59981670830E+04 -0.24638592134E+04 -0.44876321285E+03  0.65000000000E+04  0.10000000000E+01 0.  0.
    9000001    1    1    2    0    0 -0.59981670830E+04  0.24638592134E+04  0.44876321285E+03  0.65000000000E+04  0.10000000000E+01 0.  0.
</event>
<event>
 4    1  0.2195261E-006  0.1300000E+05  0.7957747E-01  0.1322471E+00
    9000001   -1    0    0    0    0  0.00000000000E+00  0.00000000000E+00  0.64999999231E+04  0.65000000000E+04  0.10000000000E+01 0.  0.
    9000001   -1    0    0    0    0 -0.00000000000E+00 -0.00000000000E+00 -0.64999999231E+04  0.65000000000E+04  0.10000000000E+01 0.  0.
    9000001    1    1    2    0    0  0.39817053771E+04  0.20283352299E+04 -0.47203683633E+04  0.65000000000E+04  0.10000000000E+01 0.  0.
    9000001    1    1    2    0    0 -0.39817053771E+04 -0.20283352299E+04  0.47203683633E+04  0.65000000000E+04  0.10000000000E+01 0.  0.
</event>
<event>
 4    1  0.2195261E-006  0.1300000E+05  0.7957747E-01  0.1322471E+00
    9000001   -1    0    0    0    0  0.00000000000E+00  0.00000000000E+00  0.64999999231E+04  0.65000000000E+04  0.10000000000E+01 0.  0.
    9000001   -1    0    0    0    0 -0.00000000000E+00 -0.00000000000E+00 -0.64999999231E+04  0.65000000000E+04  0.10000000000E+01 0.  0.
    9000001    1    1    2    0    0  0.41539055231E+04 -0.24087429585E+04 -0.43809845087E+04  0.65000000000E+04  0.10000000000E+01 0.  0.
    9000001    1    1    2    0    0 -0.41539055231E+04  0.24087429585E+04  0.43809845087E+04  0.65000000000E+04  0.10000000000E+01 0.  0.
</event>
<event>
 4    1  0.2195261E-006  0.1300000E+05  0.7957747E-01  0.1322471E+00
    9000001   -1    0    0    0    0  0.00000000000E+00  0.00000000000E+00  0.64999999231E+04  0.65000000000E+04  0.10000000000E+01 0.  0.
    9000001   -1    0    0    0    0 -0.00000000000E+00 -0.00000000000E+00 -0.64999999231E+04  0.65000000000E+04  0.10000000000E+01 0.  0.
    9000001    1    1    2    0    0  0.84406746674E+03  0.46313800080E+04  0.44819491667E+04  0.65000000000E+04  0.10000000000E+01 0.  0.
    9000001    1    1    2    0    0 -0.84406746674E+03 -0.46313800080E+04 -0.44819491667E+04  0.65000000000E+04  0.10000000000E+01 0.  0.
</event>
<event>
 4    1  0.2195261E-006  0.1300000E+05  0.7957747E-01  0.1322471E+00
    9000001   -1    0    0    0    0  0.00000000000E+00  0.00000000000E+00  0.64999999231E+04  0.65000000000E+04  0.10000000000E+01 0.  0.
    9000001   -1    0    0    0    0 -0.00000000000E+00 -0.00000000000E+00 -0.64999999231E+04  0.65000000000E+04  0.10000000000E+01 0.  0.
    9000001    1    1    2    0    0  0.57116255921E+04  0.48749652833E+03  0.30642583492E+04  0.65000000000E+04  0.10000000000E+01 0.  0.
    9000001    1    1    2    0    0 -0.57116255921E+04 -0.48749652833E+03 -0.30642583492E+04  0.65000000000E+04  0.10000000000E+01 0.  0.
</event>
<event>
 4    1  0.2195261E-006  0.1300000E+05  0.7957747E-01  0.1322471E+00
    9000001   -1    0    0    0    0  0.00000000000E+00  0.00000000000E+00  0.64999999231E+04  0.65000000000E+04  0.10000000000E+01 0.  0.
    9000001   -1    0    0    0    0 -0.00000000000E+00 -0.00000000000E+00 -0.64999999231E+04  0.65000000000E+04  0.10000000000E+01 0.  0.
    9000001    1    1    2    0    0 -0.61090193463E+04 -0.32704130351E+03 -0.21961160290E+04  0.65000000000E+04  0.10000000000E+01 0.  0.
    9000001    1    1    2    0    0  0.61090193463E+04  0.32704130351E+03  0.21961160290E+04  0.65000000000E+04  0.10000000000E+01 0.  0.
</event>
<event>
 4    1  0.2195261E-006  0.1300000E+05  0.7957747E-01  0.1322471E+00
    9000001   -1    0    0    0    0  0.00000000000E+00  0.00000000000E+00  0.64999999231E+04  0.65000000000E+04  0.10000000000E+01 0.  0.
    9000001   -1    0    0    0    0 -0.00000000000E+00 -0.00000000000E+00 -0.64999999231E+04  0.65000000000E+04  0.10000000000E+01 0.  0.
    9000001    1    1    2    0    0  0.44891386057E+04 -0.46969879073E+04 -0.18957367271E+03  0.65000000000E+04  0.10000000000E+01 0.  0.
    9000001    1    1    2    0    0 -0.44891386057E+04  0.46969879073E+04  0.18957367271E+03  0.65000000000E+04  0.10000000000E+01 0.  0.
</event>
<event>
 4    1  0.2195261E-006  0.1300000E+05  0.7957747E-01  0.1322471E+00
    9000001   -1    0    0    0    0  0.00000000000E+00  0.00000000000E+00  0.64999999231E+04  0.65000000000E+04  0.10000000000E+01 0.  0.
    9000001   -1    0    0    0    0 -0.00000000000E+00 -0.00000000000E+00 -0.64999999231E+04  0.65000000000E+04  0.10000000000E+01 0.  0.
    9000001    1    1    2    0    0 -0.21137026621E+04 -0.15321216197E+04 -0.59527189921E+04  0.65000000000E+04  0.10000000000E+01 0.  0.
    9000001    1    1    2    0    0  0.21137026621E+04  0.15321216197E+04  0.59527189921E+04  0.65000000000E+04  0.10000000000E+01 0.  0.
</event>
<event>
 4    1  0.2195261E-006  0.1300000E+05  0.7957747E-01  0.1322471E+00
    9000001   -1    0    0    0    0  0.00000000000E+00  0.00000000000E+00  0.64999999231E+04  0.65000000000E+04  0.10000000000E+01 0.  0.
    9000001   -1    0    0    0    0 -0.00000000000E+00 -0.00000000000E+00 -0.64999999231E+04  0.65000000000E+04  0.10000000000E+01 0.  0.
    9000001    1    1    2    0    0 -0.15815894753E+04  0.45744609247E+04 -0.43385344276E+04  0.65000000000E+04  0.10000000000E+01 0.  0.
    9000001    1    1    2    0    0  0.15815894753E+04 -0.45744609247E+04  0.43385344276E+04  0.65000000000E+04  0.10000000000E+01 0.  0.
</event>
<event>
 4    1  0.2195261E-006  0.1300000E+05  0.7957747E-01  0.1322471E+00
    9000001   -1    0    0    0    0  0.00000000000E+00  0.00000000000E+00  0.64999999231E+04  0.65000000000E+04  0.10000000000E+01 0.  0.
    9000001   -1    0    0    0    0 -0.00000000000E+00 -0.00000000000E+00 -0.64999999231E+04  0.65000000000E+04  0.10000000000E+01 0.  0.
    9000001    1    1    2    0    0  0.13792918613E+04  0.60369158057E+04  0.19756519219E+04  0.65000000000E+04  0.10000000000E+01 0.  0.
    9000001    1    1    2    0    0 -0.13792918613E+04 -0.60369158057E+04 -0.19756519219E+04  0.65000000000E+04  0.10000000000E+01 0.  0.
</event>
<event>
 4    1  0.2195261E-006  0.1300000E+05  0.7957747E-01  0.1322471E+00
    9000001   -1    0    0    0    0  0.00000000000E+00  0.00000000000E+00  0.64999999231E+04  0.65000000000E+04  0.10000000000E+01 0.  0.
    9000001   -1    0    0    0    0 -0.00000000000E+00 -0.00000000000E+00 -0.64999999231E+04  0.65000000000E+04  0.10000000000E+01 0.  0.
    9000001    1    1    2    0    0  0.65257274735E+03 -0.12766852994E+04 -0.63398913599E+04  0.65000000000E+04  0.10000000000E+01 0.  0.
    9000001    1    1    2    0    0 -0.65257274735E+03  0.12766852994E+04  0.63398913599E+04  0.65000000000E+04  0.10000000000E+01 0.  0.
</event>
<event>
 4    1  0.2195261E-006  0.1300000E+05  0.7957747E-01  0.1322471E+00
    9000001   -1    0    0    0    0  0.00000000000E+00  0.00000000000E+00  0.64999999231E+04  0.65000000000E+04  0.10000000000E+01 0.  0.
    9000001   -1    0    0    0    0 -0.00000000000E+00 -0.00000000000E+00 -0.64999999231E+04  0.65000000000E+04  0.10000000000E+01 0.  0.
    9000001    1    1    2    0    0 -0.42361231701E+04  0.38042579792E+04 -0.31357424505E+04  0.65000000000E+04  0.10000000000E+01 0.  0.
    9000001    1    1    2    0    0  0.42361231701E+04 -0.38042579792E+04  0.31357424505E+04  0.65000000000E+04  0.10000000000E+01 0.  0.
</event>
<event>
 4    1  0.2195261E-006  0.1300000E+05  0.7957747E-01  0.1322471E+00
    9000001   -1    0    0    0    0  0.00000000000E+00  0.00000000000E+00  0.64999999231E+04  0.65000000000E+04  0.10000000000E+01 0.  0.
    9000001   -1    0    0    0    0 -0.00000000000E+00 -0.00000000000E+00 -0.64999999231E+04  0.65000000000E+04  0.10000000000E+01 0.  0.
    9000001    1    1    2    0    0 -0.33408331827E+04 -0.38082038914E+04  0.40726423569E+04  0.65000000000E+04  0.10000000000E+01 0.  0.
    9000001    1    1    2    0    0  0.33408331827E+04  0.38082038914E+04 -0.40726423569E+04  0.65000000000E+04  0.10000000000E+01 0.  0.
</event>
<event>
 4    1  0.2195261E-006  0.1300000E+05  0.7957747E-01  0.1322471E+00
    9000001   -1    0    0    0    0  0.00000000000E+00  0.00000000000E+00  0.64999999231E+04  0.65000000000E+04  0.10000000000E+01 0.  0.
    9000001   -1    0    0    0    0 -0.00000000000E+00 -0.00000000000E+00 -0.64999999231E+04  0.65000000000E+04  0.10000000000E+01 0.  0.
    9000001    1    1    2    0    0 -0.40416318024E+04  0.48175478743E+04 -0.16451273060E+04  0.65000000000E+04  0.10000000000E+01 0.  0.
    9000001    1    1    2    0    0  0.40416318024E+04 -0.48175478743E+04  0.16451273060E+04  0.65000000000E+04  0.10000000000E+01 0.  0.
</event>
<event>
 4    1  0.2195261E-006  0.1300000E+05  0.7957747E-01  0.1322471E+00
    9000001   -1    0    0    0    0  0.00000000000E+00  0.00000000000E+00  0.64999999231E+04  0.65000000000E+04  0.10000000000E+01 0.  0.
    9000001   -1    0    0    0    0 -0.00000000000E+00 -0.00000000000E+00 -0.64999999231E+04  0.65000000000E+04  0.10000000000E+01 0.  0.
    9000001    1    1    2    0    0 -0.57199669955E+04 -0.54059637131E+03  0.30396927697E+04  0.65000000000E+04  0.10000000000E+01 0.  0.
    9000001    1    1    2    0    0  0.57199669955E+04  0.54059637131E+03 -0.30396927697E+04  0.65000000000E+04  0.10000000000E+01 0.  0.
</event>
<event>
 4    1  0.2195261E-006  0.1300000E+05  0.7957747E-01  0.1322471E+00
    9000001   -1    0    0    0    0  0.00000000000E+00  0.00000000000E+00  0.64999999231E+04  0.65000000000E+04  0.10000000000E+01 0.  0.
    9000001   -1    0    0    0    0 -0.00000000000E+00 -0.00000000000E+00 -0.64999999231E+04  0.65000000000E+04  0.10000000000E+01 0.  0.
    9000001    1    1    2    0    0 -0.36310084296E+04 -0.17755497532E+04 -0.50905009437E+04  0.65000000000E+04  0.10000000000E+01 0.  0.
    9000001    1    1    2    0    0  0.36310084296E+04  0.17755497532E+04  0.50905009437E+04  0.65000000000E+04  0.10000000000E+01 0.  0.
</event>
<event>
 4    1  0.2195261E-006  0.1300000E+05  0.7957747E-01  0.1322471E+00
    9000001   -1    0    0    0    0  0.00000000000E+00  0.00000000000E+00  0.64999999231E+04  0.65000000000E+04  0.10000000000E+01 0.  0.
    9000001   -1    0    0    0    0 -0.00000000000E+00 -0.00000000000E+00 -0.64999999231E+04  0.65000000000E+04  0.10000000000E+01 0.  0.
    9000001    1    1    2    0    0 -0.11345056944E+04 -0.16724219726E+04  0.61778556616E+04  0.65000000000E+04  0.10000000000E+01 0.  0.
    9000001    1    1    2    0    0  0.11345056944E+04  0.16724219726E+04 -0.61778556616E+04  0.65000000000E+04  0.10000000000E+01 0.  0.
</event>
<event>
 4    1  0.2195261E-006  0.1300000E+05  0.7957747E-01  0.1322471E+00
    9000001   -1    0    0    0    0  0.00000000000E+00  0.00000000000E+00  0.64999999231E+04  0.65000000000E+04  0.10000000000E+01 0.  0.
    9000001   -1    0    0    0    0 -0.00000000000E+00 -0.00000000000E+00 -0.64999999231E+04  0.65000000000E+04  0.10000000000E+01 0.  0.
    9000001    1    1    2    0    0 -0.54350936112E+04 -0.28282298218E+04  0.21704544486E+04  0.65000000000E+04  0.10000000000E+01 0.  0.
    9000001    1    1    2    0    0  0.54350936112E+04  0.28282298218E+04 -0.21704544486E+04  0.65000000000E+04  0.10000000000E+01 0.  0.
</event>
<event>
 4    1  0.2195261E-006  0.1300000E+05  0.7957747E-01  0.1322471E+00
    9000001   -1    0    0    0    0  0.00000000000E+00  0.00000000000E+00  0.64999999231E+04  0.65000000000E+04  0.10000000000E+01 0.  0.
    9000001   -1    0    0    0    0 -0.00000000000E+00 -0.00000000000E+00 -0.64999999231E+04  0.65000000000E+04  0.10000000000E+01 0.  0.
    9000001    1    1    2    0    0  0.19761372127E+04 -0.25056114044E+04  0.56627548249E+04  0.65000000000E+04  0.10000000000E+01 0.  0.
    9000001    1    1    2    0    0 -0.19761372127E+04  0.25056114044E+04 -0.56627548249E+04  0.65000000000E+04  0.10000000000E+01 0.  0.
</event>
<event>
 4    1  0.2195261E-006  0.1300000E+05  0.7957747E-01  0.1322471E+00
    9000001   -1    0    0    0    0  0.00000000000E+00  0.00000000000E+00  0.64999999231E+04  0.65000000000E+04  0.10000000000E+01 0.  0.
    9000001   -1    0    0    0    0 -0.00000000000E+00 -0.00000000000E+00 -0.64999999231E+04  0.65000000000E+04  0.10000000000E+01 0.  0.
    9000001    1    1    2    0    0  0.62668235641E+04  0.21796189664E+03  0.17115531040E+04  0.65000000000E+04  0.10000000000E+01 0.  0.
    9000001    1    1    2    0    0 -0.62668235641E+04 -0.21796189664E+03 -0.17115531040E+04  0.65000000000E+04  0.10000000000E+01 0.  0.
</event>
<event>
 4    1  0.2195261E-006  0.1300000E+05  0.7957747E-01  0.1322471E+00
    9000001   -1    0    0    0    0  0.00000000000E+00  0.00000000000E+00  0.64999999231E+04  0.65000000000E+04  0.10000000000E+01 0.  0.
    9000001   -1    0    0    0    0 -0.00000000000E+00 -0.00000000000E+00 -0.64999999231E+04  0.65000000000E+04  0.10000000000E+01 0.  0.
    9000001    1    1    2    0    0 -0.13418203930E+04  0.51732706792E+04  0.36995658546E+04  0.65000000000E+04  0.10000000000E+01 0.  0.
    9000001    1    1    2    0    0  0.13418203930E+04 -0.51732706792E+04 -0.36995658546E+04  0.65000000000E+04  0.10000000000E+01 0.  0.
</event>
<event>
 4    1  0.2195261E-006  0.1300000E+05  0.7957747E-01  0.1322471E+00
    9000001   -1    0    0    0    0  0.00000000000E+00  0.00000000000E+00  0.64999999231E+04  0.65000000000E+04  0.10000000000E+01 0.  0.
    9000001   -1    0    0    0    0 -0.00000000000E+00 -0.00000000000E+00 -0.64999999231E+04  0.65000000000E+04  0.10000000000E+01 0.  0.
    9000001    1    1    2    0    0 -0.29530682141E+04  0.57728573769E+04  0.45111509448E+03  0.65000000000E+04  0.10000000000E+01 0.  0.
    9000001    1    1    2    0    0  0.29530682141E+04 -0.57728573769E+04 -0.45111509448E+03  0.65000000000E+04  0.10000000000E+01 0.  0.
</event>
<event>
 4    1  0.2195261E-006  0.1300000E+05  0.7957747E-01  0.1322471E+00
    9000001   -1    0    0    0    0  0.00000000000E+00  0.00000000000E+00  0.64999999231E+04  0.65000000000E+04  0.10000000000E+01 0.  0.
    9000001   -1    0    0    0    0 -0.00000000000E+00 -0.00000000000E+00 -0.64999999231E+04  0.65000000000E+04  0.10000000000E+01 0.  0.
    9000001    1    1    2    0    0 -0.33668110880E+04  0.53096420403E+04  0.16499343932E+04  0.65000000000E+04  0.10000000000E+01 0.  0.
    9000001    1    1    2    0    0  0.33668110880E+04 -0.53096420403E+04 -0.16499343932E+04  0.65000000000E+04  0.10000000000E+01 0.  0.
</event>
<event>
 4    1  0.2195261E-006  0.1300000E+05  0.7957747E-01  0.1322471E+00
    9000001   -1    0    0    0    0  0.00000000000E+00  0.00000000000E+00  0.64999999231E+04  0.65000000000E+04  0.10000000000E+01 0.  0.
    9000001   -1    0    0    0    0 -0.00000000000E+00 -0.00000000000E+00 -0.64999999231E+04  0.65000000000E+04  0.10000000000E+01 0.  0.
    9000001    1    1    2    0    0  0.12304232056E+04 -0.63359216889E+04  0.76951548840E+03  0.65000000000E+04  0.10000000000E+01 0.  0.
    9000001    1    1    2    0    0 -0.12304232056E+04  0.63359216889E+04 -0.76951548840E+03  0.65000000000E+04  0.10000000000E+01 0.  0.
</event>
<event>
 4    1  0.2195261E-006  0.1300000E+05  0.7957747E-01  0.1322471E+00
    9000001   -1    0    0    0    0  0.00000000000E+00  0.00000000000E+00  0.64999999231E+04  0.65000000000E+04  0.10000000000E+01 0.  0.
    9000001   -1    0    0    0    0 -0.00000000000E+00 -0.00000000000E+00 -0.64999999231E+04  0.65000000000E+04  0.10000000000E+01 0.  0.
    9000001    1    1    2    0    0  0.25821879245E+04  0.31925366027E+04 -0.50388505200E+04  0.65000000000E+04  0.10000000000E+01 0.  0.
    9000001    1    1    2    0    0 -0.25821879245E+04 -0.31925366027E+04  0.50388505200E+04  0.65000000000E+04  0.10000000000E+01 0.  0.
</event>
<event>
 4    1  0.2195261E-006  0.1300000E+05  0.7957747E-01  0.1322471E+00
    9000001   -1    0    0    0    0  0.00000000000E+00  0.00000000000E+00  0.64999999231E+04  0.65000000000E+04  0.10000000000E+01 0.  0.
    9000001   -1    0    0    0    0 -0.00000000000E+00 -0.00000000000E+00 -0.64999999231E+04  0.65000000000E+04  0.10000000000E+01 0.  0.
    9000001    1    1    2    0    0  0.76333141585E+03  0.64159416681E+04 -0.70923667510E+03  0.65000000000E+04  0.10000000000E+01 0.  0.
    9000001    1    1    2    0    0 -0.76333141585E+03 -0.64159416681E+04  0.70923667510E+03  0.65000000000E+04  0.10000000000E+01 0.  0.
</event>
<event>
 4    1  0.2195261E-006  0.1300000E+05  0.7957747E-01  0.1322471E+00
    9000001   -1    0    0    0    0  0.00000000000E+00  0.00000000000E+00  0.64999999231E+04  0.65000000000E+04  0.10000000000E+01 0.  0.
    9000001   -1    0    0    0    0 -0.00000000000E+00 -0.00000000000E+00 -0.64999999231E+04  0.65000000000E+04  0.10000000000E+01 0.  0.
    9000001    1    1    2    0    0  0.40187016965E+04  0.38146562701E+04  0.33982985765E+04  0.65000000000E+04  0.10000000000E+01 0.  0.
    9000001    1    1    2    0    0 -0.40187016965E+04 -0.38146562701E+04 -0.33982985765E+04  0.65000000000E+04  0.10000000000E+01 0.  0.
</event>
<event>
 4    1  0.2195261E-006  0.1300000E+05  0.7957747E-01  0.1322471E+00
    9000001   -1    0    0    0    0  0.00000000000E+00  0.00000000000E+00  0.64999999231E+04  0.65000000000E+04  0.10000000000E+01 0.  0.
    9000001   -1    0    0    0    0 -0.00000000000E+00 -0.00000000000E+00 -0.64999999231E+04  0.65000000000E+04  0.10000000000E+01 0.  0.
    9000001    1    1    2    0    0  0.39503860687E+04 -0.16067253283E+04 -0.49053932184E+04  0.65000000000E+04  0.10000000000E+01 0.  0.
    9000001    1    1    2    0    0 -0.39503860687E+04  0.16067253283E+04  0.49053932184E+04  0.65000000000E+04  0.10000000000E+01 0.  0.
</event>
<event>
 4    1  0.2195261E-006  0.1300000E+05  0.7957747E-01  0.1322471E+00
    9000001   -1    0    0    0    0  0.00000000000E+00  0.00000000000E+00  0.64999999231E+04  0.65000000000E+04  0.10000000000E+01 0.  0.
    9000001   -1    0    0    0    0 -0.00000000000E+00 -0.00000000000E+00 -0.64999999231E+04  0.65000000000E+04  0.10000000000E+01 0.  0.
    9000001    1    1    2    0    0 -0.59173689817E+04 -0.20502137495E+04  0.17410821105E+04  0.65000000000E+04  0.10000000000E+01 0.  0.
    9000001    1    1    2    0    0  0.59173689817E+04  0.20502137495E+04 -0.17410821105E+04  0.65000000000E+04  0.10000000000E+01 0.  0.
</event>
<event>
 4    1  0.2195261E-006  0.1300000E+05  0.7957747E-01  0.1322471E+00
    9000001   -1    0    0    0    0  0.00000000000E+00  0.00000000000E+00  0.64999999231E+04  0.65000000000E+04  0.10000000000E+01 0.  0.
    9000001   -1    0    0    0    0 -0.00000000000E+00 -0.00000000000E+00 -0.64999999231E+04  0.65000000000E+04  0.10000000000E+01 0.  0.
    9000001    1    1    2    0    0  0.45096616671E+04 -0.52989726078E+03 -0.46510385444E+04  0.65000000000E+04  0.10000000000E+01 0.  0.
    9000001    1    1    2    0    0 -0.45096616671E+04  0.52989726078E+03  0.46510385444E+04  0.65000000000E+04  0.10000000000E+01 0.  0.
</event>
<event>
 4    1  0.2195261E-006  0.1300000E+05  0.7957747E-01  0.1322471E+00
    9000001   -1    0    0    0    0  0.00000000000E+00  0.00000000000E+00  0.64999999231E+04  0.65000000000E+04  0.10000000000E+01 0.  0.
    9000001   -1    0    0    0    0 -0.00000000000E+00 -0.00000000000E+00 -0.64999999231E+04  0.65000000000E+04  0.10000000000E+01 0.  0.
    9000001    1    1    2    0    0  0.23401883899E+04 -0.89712505512E+03  0.59973897602E+04  0.65000000000E+04  0.10000000000E+01 0.  0.
    9000001    1    1    2    0    0 -0.23401883899E+04  0.89712505512E+03 -0.59973897602E+04  0.65000000000E+04  0.10000000000E+01 0.  0.
</event>
<event>
 4    1  0.2195261E-006  0.1300000E+05  0.7957747E-01  0.1322471E+00
    9000001   -1    0    0    0    0  0.00000000000E+00  0.00000000000E+00  0.64999999231E+04  0.65000000000E+04  0.10000000000E+01 0.  0.
    9000001   -1    0    0    0    0 -0.00000000000E+00 -0.00000000000E+00 -0.64999999231E+04  0.65000000000E+04  0.10000000000E+01 0.  0.
    9000001    1    1    2    0    0 -0.28434986057E+04 -0.51723091154E+04  0.27224498331E+04  0.65000000000E+04  0.10000000000E+01 0.  0.
    9000001    1    1    2    0    0  0.28434986057E+04  0.51723091154E+04 -0.27224498331E+04  0.65000000000E+04  0.10000000000E+01 0.  0.
</event>
<event>
 4    1  0.2195261E-006  0.1300000E+05  0.7957747E-01  0.1322471E+00
    9000001   -1    0    0    0    0  0.00000000000E+00  0.00000000000E+00  0.64999999231E+04  0.65000000000E+04  0.10000000000E+01 0.  0.
    9000001   -1    0    0    0    0 -0.00000000000E+00 -0.00000000000E+00 -0.64999999231E+04  0.65000000000E+04  0.10000000000E+01 0.  0.
    9000001    1    1    2    0    0 -0.54797613079E+04  0.43198595998E+03  0.34692366795E+04  0.65000000000E+04  0.10000000000E+01 0.  0.
    9000001    1    1    2    0    0  0.54797613079E+04 -0.43198595998E+03 -0.34692366795E+04  0.65000000000E+04  0.10000000000E+01 0.  0.
</event>
<event>
 4    1  0.2195261E-006  0.1300000E+05  0.7957747E-01  0.1322471E+00
    9000001   -1    0    0    0    0  0.00000000000E+00  0.00000000000E+00  0.64999999231E+04  0.65000000000E+04  0.10000000000E+01 0.  0.
    9000001   -1    0    0    0    0 -0.00000000000E+00 -0.00000000000E+00 -0.64999999231E+04  0.65000000000E+04  0.10000000000E+01 0.  0.
    9000001    1    1    2    0    0  0.40057156974E+04  0.40475805160E+04  0.31339005596E+04  0.65000000000E+04  0.10000000000E+01 0.  0.
    9000001    1    1    2    0    0 -0.40057156974E+04 -0.40475805160E+04 -0.31339005596E+04  0.65000000000E+04  0.10000000000E+01 0.  0.
</event>
<event>
 4    1  0.2195261E-006  0.1300000E+05  0.7957747E-01  0.1322471E+00
    9000001   -1    0    0    0    0  0.00000000000E+00  0.00000000000E+00  0.64999999231E+04  0.65000000000E+04  0.10000000000E+01 0.  0.
    9000001   -1    0    0    0    0 -0.00000000000E+00 -0.00000000000E+00 -0.64999999231E+04  0.65000000000E+04  0.10000000000E+01 0.  0.
    9000001    1    1    2    0    0  0.27746037556E+04  0.49389172720E+04 -0.31872667256E+04  0.65000000000E+04  0.10000000000E+01 0.  0.
    9000001    1    1    2    0    0 -0.27746037556E+04 -0.49389172720E+04  0.31872667256E+04  0.65000000000E+04  0.10000000000E+01 0.  0.
</event>
<event>
 4    1  0.2195261E-006  0.1300000E+05  0.7957747E-01  0.1322471E+00
    9000001   -1    0    0    0    0  0.00000000000E+00  0.00000000000E+00  0.64999999231E+04  0.65000000000E+04  0.10000000000E+01 0.  0.
    9000001   -1    0    0    0    0 -0.00000000000E+00 -0.00000000000E+00 -0.64999999231E+04  0.65000000000E+04  0.10000000000E+01 0.  0.
    9000001    1    1    2    0    0 -0.26014083832E+04  0.59193065214E+04 -0.66669612982E+03  0.65000000000E+04  0.10000000000E+01 0.  0.
    9000001    1    1    2    0    0  0.26014083832E+04 -0.59193065214E+04  0.66669612982E+03  0.65000000000E+04  0.10000000000E+01 0.  0.
</event>
<event>
 4    1  0.2195261E-006  0.1300000E+05  0.7957747E-01  0.1322471E+00
    9000001   -1    0    0    0    0  0.00000000000E+00  0.00000000000E+00  0.64999999231E+04  0.65000000000E+04  0.10000000000E+01 0.  0.
    9000001   -1    0    0    0    0 -0.00000000000E+00 -0.00000000000E+00 -0.64999999231E+04  0.65000000000E+04  0.10000000000E+01 0.  0.
    9000001    1    1    2    0    0 -0.13046316980E+04  0.57557687166E+04  0.27237954426E+04  0.65000000000E+04  0.10000000000E+01 0.  0.
    9000001    1    1    2    0    0  0.13046316980E+04 -0.57557687166E+04 -0.27237954426E+04  0.65000000000E+04  0.10000000000E+01 0.  0.
</event>
<event>
 4    1  0.2195261E-006  0.1300000E+05  0.7957747E-01  0.1322471E+00
    9000001   -1    0    0    0    0  0.00000000000E+00  0.00000000000E+00  0.64999999231E+04  0.65000000000E+04  0.10000000000E+01 0.  0.
    9000001   -1    0    0    0    0 -0.00000000000E+00 -0.00000000000E+00 -0.64999999231E+04  0.65000000000E+04  0.10000000000E+01 0.  0.
    9000001    1    1    2    0    0 -0.37032087601E+04  0.42154928354E+04  0.32811376127E+04  0.65000000000E+04  0.10000000000E+01 0.  0.
    9000001    1    1    2    0    0  0.37032087601E+04 -0.42154928354E+04 -0.32811376127E+04  0.65000000000E+04  0.10000000000E+01 0.  0.
</event>
<event>
 4    1  0.2195261E-006  0.1300000E+05  0.7957747E-01  0.1322471E+00
    9000001   -1    0    0    0    0  0.00000000000E+00  0.00000000000E+00  0.64999999231E+04  0.65000000000E+04  0.10000000000E+01 0.  0.
    9000001   -1    0    0    0    0 -0.00000000000E+00 -0.00000000000E+00 -0.64999999231E+04  0.65000000000E+04  0.10000000000E+01 0.  0.
    9000001    1    1    2    0    0 -0.45336583369E+04 -0.46257072243E+04 -0.54660201169E+03  0.65000000000E+04  0.10000000000E+01 0.  0.
    9000001    1    1    2    0    0  0.45336583369E+04  0.46257072243E+04  0.54660201169E+03  0.65000000000E+04  0.10000000000E+01 0.  0.
</event>
<event>
 4    1  0.2195261E-006  0.1300000E+05  0.7957747E-01  0.1322471E+00
    9000001   -1    0    0    0    0  0.00000000000E+00  0.00000000000E+00  0.64999999231E+04  0.65000000000E+04  0.10000000000E+01 0.  0.
    9000001   -1    0    0    0    0 -0.00000000000E+00 -0.00000000000E+00 -0.64999999231E+04  0.65000000000E+04  0.10000000000E+01 0.  0.
    9000001    1    1    2    0    0 -0.25362230440E+04 -0.46422331210E+04 -0.37772004609E+04  0.65000000000E+04  0.10000000000E+01 0.  0.
    9000001    1    1    2    0    0  0.25362230440E+04  0.46422331210E+04  0.37772004609E+04  0.65000000000E+04  0.10000000000E+01 0.  0.
</event>
<event>
 4    1  0.2195261E-006  0.1300000E+05  0.7957747E-01  0.1322471E+00
    9000001   -1    0    0    0    0  0.00000000000E+00  0.00000000000E+00  0.64999999231E+04  0.65000000000E+04  0.10000000000E+01 0.  0.
    9000001   -1    0    0    0    0 -0.00000000000E+00 -0.00000000000E+00 -0.64999999231E+04  0.65000000000E+04  0.10000000000E+01 0.  0.
    9000001    1    1    2    0    0  0.20535098983E+04  0.34517762926E+04  0.51106101909E+04  0.65000000000E+04  0.10000000000E+01 0.  0.
    9000001    1    1    2    0    0 -0.20535098983E+04 -0.34517762926E+04 -0.51106101909E+04  0.65000000000E+04  0.10000000000E+01 0.  0.
</event>
<event>
 4    1  0.2195261E-006  0.1300000E+05  0.7957747E-01  0.1322471E+00
    9000001   -1    0    0    0    0  0.00000000000E+00  0.00000000000E+00  0.64999999231E+04  0.65000000000E+04  0.10000000000E+01 0.  0.
    9000001   -1    0    0    0    0 -0.00000000000E+00 -0.00000000000E+00 -0.64999999231E+04  0.65000000000E+04  0.10000000000E+01 0.  0.
    9000001    1    1    2    0    0 -0.27300277464E+04  0.38043866922E+04  0.45081691850E+04  0.65000000000E+04  0.10000000000E+01 0.  0.
    9000001    1    1    2    0    0  0.27300277464E+04 -0.38043866922E+04 -0.45081691850E+04  0.65000000000E+04  0.10000000000E+01 0.  0.
</event>
<event>
 4    1  0.2195261E-006  0.1300000E+05  0.7957747E-01  0.1322471E+00
    9000001   -1    0    0    0    0  0.00000000000E+00  0.00000000000E+00  0.64999999231E+04  0.65000000000E+04  0.10000000000E+01 0.  0.
    9000001   -1    0    0    0    0 -0.00000000000E+00 -0.00000000000E+00 -0.64999999231E+04  0.65000000000E+04  0.10000000000E+01 0.  0.
    9000001    1    1    2    0    0 -0.49527036753E+04 -0.77530985313E+03  0.41375862452E+04  0.65000000000E+04  0.10000000000E+01 0.  0.
    9000001    1    1    2    0    0  0.49527036753E+04  0.77530985313E+03 -0.41375862452E+04  0.65000000000E+04  0.10000000000E+01 0.  0.
</event>
<event>
 4    1  0.2195261E-006  0.1300000E+05  0.7957747E-01  0.1322471E+00
    9000001   -1    0    0    0    0  0.00000000000E+00  0.00000000000E+00  0.64999999231E+04  0.65000000000E+04  0.10000000000E+01 0.  0.
    9000001   -1    0    0    0    0 -0.00000000000E+00 -0.00000000000E+00 -0.64999999231E+04  0.65000000000E+04  0.10000000000E+01 0.  0.
    9000001    1    1    2    0    0 -0.58568985966E+04 -0.27571715180E+04  0.58714823464E+03  0.65000000000E+04  0.10000000000E+01 0.  0.
    9000001    1    1    2    0    0  0.58568985966E+04  0.27571715180E+04 -0.58714823464E+03  0.65000000000E+04  0.10000000000E+01 0.  0.
</event>
<event>
 4    1  0.2195261E-006  0.1300000E+05  0.7957747E-01  0.1322471E+00
    9000001   -1    0    0    0    0  0.00000000000E+00  0.00000000000E+00  0.64999999231E+04  0.65000000000E+04  0.10000000000E+01 0.  0.
    9000001   -1    0    0    0    0 -0.00000000000E+00 -0.00000000000E+00 -0.64999999231E+04  0.65000000000E+04  0.10000000000E+01 0.  0.
    9000001    1    1    2    0    0 -0.37767244336E+04  0.51793578144E+04 -0.10773134099E+04  0.65000000000E+04  0.10000000000E+01 0.  0.
    9000001    1    1    2    0    0  0.37767244336E+04 -0.51793578144E+04  0.10773134099E+04  0.65000000000E+04  0.10000000000E+01 0.  0.
</event>
<event>
 4    1  0.2195261E-006  0.1300000E+05  0.7957747E-01  0.1322471E+00
    9000001   -1    0    0    0    0  0.00000000000E+00  0.00000000000E+00  0.64999999231E+04  0.65000000000E+04  0.10000000000E+01 0.  0.
    9000001   -1    0    0    0    0 -0.00000000000E+00 -0.00000000000E+00 -0.64999999231E+04  0.65000000000E+04  0.10000000000E+01 0.  0.
    9000001    1    1    2    0    0  0.39092406844E+04 -0.40764440883E+04 -0.32172099506E+04  0.65000000000E+04  0.10000000000E+01 0.  0.
    9000001    1    1    2    0    0 -0.39092406844E+04  0.40764440883E+04  0.32172099506E+04  0.65000000000E+04  0.10000000000E+01 0.  0.
</event>
<event>
 4    1  0.2195261E-006  0.1300000E+05  0.7957747E-01  0.1322471E+00
    9000001   -1    0    0    0    0  0.00000000000E+00  0.00000000000E+00  0.64999999231E+04  0.65000000000E+04  0.10000000000E+01 0.  0.
    9000001   -1    0    0    0    0 -0.00000000000E+00 -0.00000000000E+00 -0.64999999231E+04  0.65000000000E+04  0.10000000000E+01 0.  0.
    9000001    1    1    2    0    0 -0.51351111112E+04  0.39555982677E+04 -0.48360647226E+03  0.65000000000E+04  0.10000000000E+01 0.  0.
    9000001    1    1    2    0    0  0.51351111112E+04 -0.39555982677E+04  0.48360647226E+03  0.65000000000E+04  0.10000000000E+01 0.  0.
</event>
<event>
 4    1  0.2195261E-006  0.1300000E+05  0.7957747E-01  0.1322471E+00
    9000001   -1    0    0    0    0  0.00000000000E+00  0.00000000000E+00  0.64999999231E+04  0.65000000000E+04  0.10000000000E+01 0.  0.
    9000001   -1    0    0    0    0 -0.00000000000E+00 -0.00000000000E+00 -0.64999999231E+04  0.65000000000E+04  0.10000000000E+01 0.  0.
    9000001    1    1    2    0    0  0.29274008322E+04  0.44200674467E+04  0.37607615099E+04  0.65000000000E+04  0.10000000000E+01 0.  0.
    9000001    1    1    2    0    0 -0.29274008322E+04 -0.44200674467E+04 -0.37607615099E+04  0.65000000000E+04  0.10000000000E+01 0.  0.
</event>
<event>
 4    1  0.2195261E-006  0.1300000E+05  0.7957747E-01  0.1322471E+00
    9000001   -1    0    0    0    0  0.00000000000E+00  0.00000000000E+00  0.64999999231E+04  0.65000000000E+04  0.10000000000E+01 0.  0.
    9000001   -1    0    0    0    0 -0.00000000000E+00 -0.00000000000E+00 -0.64999999231E+04  0.65000000000E+04  0.10000000000E+01 0.  0.
    9000001    1    1    2    0    0 -0.28599043130E+04 -0.12340420764E+04 -0.57050930294E+04  0.65000000000E+04  0.10000000000E+01 0.  0.
    9000001    1    1    2    0    0  0.28599043130E+04  0.12340420764E+04  0.57050930294E+04  0.65000000000E+04  0.10000000000E+01 0.  0.
</event>
<event>
 4    1  0.2195261E-006  0.1300000E+05  0.7957747E-01  0.1322471E+00
    9000001   -1    0    0    0    0  0.00000000000E+00  0.00000000000E+00  0.64999999231E+04  0.65000000000E+04  0.10000000000E+01 0.  0.
    9000001   -1    0    0    0    0 -0.00000000000E+00 -0.00000000000E+00 -0.64999999231E+04  0.65000000000E+04  0.10000000000E+01 0.  0.
    9000001    1    1    2    0    0 -0.32054713412E+04  0.50524384451E+04 -0.25392554499E+04  0.65000000000E+04  0.10000000000E+01 0.  0.
    9000001    1    1    2    0    0  0.32054713412E+04 -0.50524384451E+04  0.25392554499E+04  0.65000000000E+04  0.10000000000E+01 0.  0.
</event>
<event>
 4    1  0.2195261E-006  0.1300000E+05  0.7957747E-01  0.1322471E+00
    9000001   -1    0    0    0    0  0.00000000000E+00  0.00000000000E+00  0.64999999231E+04  0.65000000000E+04  0.10000000000E+01 0.  0.
    9000001   -1    0    0    0    0 -0.00000000000E+00 -0.00000000000E+00 -0.64999999231E+04  0.65000000000E+04  0.10000000000E+01 0.  0.
    9000001    1    1    2    0    0  0.10333591654E+04 -0.43646863053E+04  0.47044320902E+04  0.65000000000E+04  0.10000000000E+01 0.  0.
    9000001    1    1    2    0    0 -0.10333591654E+04  0.43646863053E+04 -0.47044320902E+04  0.65000000000E+04  0.10000000000E+01 0.  0.
</event>
<event>
 4    1  0.2195261E-006  0.1300000E+05  0.7957747E-01  0.1322471E+00
    9000001   -1    0    0    0    0  0.00000000000E+00  0.00000000000E+00  0.64999999231E+04  0.65000000000E+04  0.10000000000E+01 0.  0.
    9000001   -1    0    0    0    0 -0.00000000000E+00 -0.00000000000E+00 -0.64999999231E+04  0.65000000000E+04  0.10000000000E+01 0.  0.
    9000001    1    1    2    0    0 -0.49926213621E+04 -0.28295493967E+04  0.30524385574E+04  0.65000000000E+04  0.10000000000E+01 0.  0.
    9000001    1    1    2    0    0  0.49926213621E+04  0.28295493967E+04 -0.30524385574E+04  0.65000000000E+04  0.10000000000E+01 0.  0.
</event>
<event>
 4    1  0.2195261E-006  0.1300000E+05  0.7957747E-01  0.1322471E+00
    9000001   -1    0    0    0    0  0.00000000000E+00  0.00000000000E+00  0.64999999231E+04  0.65000000000E+04  0.10000000000E+01 0.  0.
    9000001   -1    0    0    0    0 -0.00000000000E+00 -0.00000000000E+00 -0.64999999231E+04  0.65000000000E+04  0.10000000000E+01 0.  0.
    9000001    1    1    2    0    0  0.19611208313E+04 -0.47097313899E+04  0.40277083212E+04  0.65000000000E+04  0.10000000000E+01 0.  0.
    9000001    1    1    2    0    0 -0.19611208313E+04  0.47097313899E+04 -0.40277083212E+04  0.65000000000E+04  0.10000000000E+01 0.  0.
</event>
<event>
 4    1  0.2195261E-006  0.1300000E+05  0.7957747E-01  0.1322471E+00
    9000001   -1    0    0    0    0  0.00000000000E+00  0.00000000000E+00  0.64999999231E+04  0.65000000000E+04  0.10000000000E+01 0.  0.
    9000001   -1    0    0    0    0 -0.00000000000E+00 -0.00000000000E+00 -0.64999999231E+04  0.65000000000E+04  0.10000000000E+01 0.  0.
    9000001    1    1    2    0    0 -0.40278371303E+04 -0.47464700223E+04  0.18701736226E+04  0.65000000000E+04  0.10000000000E+01 0.  0.
    9000001    1    1    2    0    0  0.40278371303E+04  0.47464700223E+04 -0.18701736226E+04  0.65000000000E+04  0.10000000000E+01 0.  0.
</event>
<event>
 4    1  0.2195261E-006  0.1300000E+05  0.7957747E-01  0.1322471E+00
    9000001   -1    0    0    0    0  0.00000000000E+00  0.00000000000E+00  0.64999999231E+04  0.65000000000E+04  0.10000000000E+01 0.  0.
    9000001   -1    0    0    0    0 -0.00000000000E+00 -0.00000000000E+00 -0.64999999231E+04  0.65000000000E+04  0.10000000000E+01 0.  0.
    9000001    1    1    2    0    0  0.44138772351E+04 -0.47176844434E+04 -0.71494072930E+03  0.65000000000E+04  0.10000000000E+01 0.  0.
    9000001    1    1    2    0    0 -0.44138772351E+04  0.47176844434E+04  0.71494072930E+03  0.65000000000E+04  0.10000000000E+01 0.  0.
</event>
<event>
 4    1  0.2195261E-006  0.1300000E+05  0.7957747E-01  0.1322471E+00
    9000001   -1    0    0    0    0  0.00000000000E+00  0.00000000000E+00  0.64999999231E+04  0.65000000000E+04  0.10000000000E+01 0.  0.
    9000001   -1    0    0    0    0 -0.00000000000E+00 -0.00000000000E+00 -0.64999999231E+04  0.65000000000E+04  0.10000000000E+01 0.  0.
    9000001    1    1    2    0    0  0.56600544592E+04 -0.18943250883E+04  0.25739687213E+04  0.65000000000E+04  0.10000000000E+01 0.  0.
    9000001    1    1    2    0    0 -0.56600544592E+04  0.18943250883E+04 -0.25739687213E+04  0.65000000000E+04  0.10000000000E+01 0.  0.
</event>
<event>
 4    1  0.2195261E-006  0.1300000E+05  0.7957747E-01  0.1322471E+00
    9000001   -1    0    0    0    0  0.00000000000E+00  0.00000000000E+00  0.64999999231E+04  0.65000000000E+04  0.10000000000E+01 0.  0.
    9000001   -1    0    0    0    0 -0.00000000000E+00 -0.00000000000E+00 -0.64999999231E+04  0.65000000000E+04  0.10000000000E+01 0.  0.
    9000001    1    1    2    0    0 -0.57511896511E+04  0.27901618826E+04  0.11784792175E+04  0.65000000000E+04  0.10000000000E+01 0.  0.
    9000001    1    1    2    0    0  0.57511896511E+04 -0.27901618826E+04 -0.11784792175E+04  0.65000000000E+04  0.10000000000E+01 0.  0.
</event>
<event>
 4    1  0.2195261E-006  0.1300000E+05  0.7957747E-01  0.1322471E+00
    9000001   -1    0    0    0    0  0.00000000000E+00  0.00000000000E+00  0.64999999231E+04  0.65000000000E+04  0.10000000000E+01 0.  0.
    9000001   -1    0    0    0    0 -0.00000000000E+00 -0.00000000000E+00 -0.64999999231E+04  0.65000000000E+04  0.10000000000E+01 0.  0.
    9000001    1    1    2    0    0  0.83347969839E+03  0.86127057570E+03 -0.63885462813E+04  0.65000000000E+04  0.10000000000E+01 0.  0.
    9000001    1    1    2    0    0 -0.83347969839E+03 -0.86127057570E+03  0.63885462813E+04  0.65000000000E+04  0.10000000000E+01 0.  0.
</event>
<event>
 4    1  0.2195261E-006  0.1300000E+05  0.7957747E-01  0.1322471E+00
    9000001   -1    0    0    0    0  0.00000000000E+00  0.00000000000E+00  0.64999999231E+04  0.65000000000E+04  0.10000000000E+01 0.  0.
    9000001   -1    0    0    0    0 -0.00000000000E+00 -0.00000000000E+00 -0.64999999231E+04  0.65000000000E+04  0.10000000000E+01 0.  0.
    9000001    1    1    2    0    0 -0.54216759234E+03  0.59972470465E+04 -0.24472599300E+04  0.65000000000E+04  0.10000000000E+01 0.  0.
    9000001    1    1    2    0    0  0.54216759234E+03 -0.59972470465E+04  0.24472599300E+04  0.65000000000E+04  0.10000000000E+01 0.  0.
</event>
<event>
 4    1  0.2195261E-006  0.1300000E+05  0.7957747E-01  0.1322471E+00
    9000001   -1    0    0    0    0  0.00000000000E+00  0.00000000000E+00  0.64999999231E+04  0.65000000000E+04  0.10000000000E+01 0.  0.
    9000001   -1    0    0    0    0 -0.00000000000E+00 -0.00000000000E+00 -0.64999999231E+04  0.65000000000E+04  0.10000000000E+01 0.  0.
    9000001    1    1    2    0    0 -0.31787002372E+03  0.55272557827E+04  0.34056425473E+04  0.65000000000E+04  0.10000000000E+01 0.  0.
    9000001    1    1    2    0    0  0.31787002372E+03 -0.55272557827E+04 -0.34056425473E+04  0.65000000000E+04  0.10000000000E+01 0.  0.
</event>
<event>
 4    1  0.2195261E-006  0.1300000E+05  0.7957747E-01  0.1322471E+00
    9000001   -1    0    0    0    0  0.00000000000E+00  0.00000000000E+00  0.64999999231E+04  0.65000000000E+04  0.10000000000E+01 0.  0.
    9000001   -1    0    0    0    0 -0.00000000000E+00 -0.00000000000E+00 -0.64999999231E+04  0.65000000000E+04  0.10000000000E+01 0.  0.
    9000001    1    1    2    0    0  0.42308781569E+04  0.30172001081E+04 -0.39046347497E+04  0.65000000000E+04  0.10000000000E+01 0.  0.
    9000001    1    1    2    0    0 -0.42308781569E+04 -0.30172001081E+04  0.39046347497E+04  0.65000000000E+04  0.10000000000E+01 0.  0.
</event>
<event>
 4    1  0.2195261E-006  0.1300000E+05  0.7957747E-01  0.1322471E+00
    9000001   -1    0    0    0    0  0.00000000000E+00  0.00000000000E+00  0.64999999231E+04  0.65000000000E+04  0.10000000000E+01 0.  0.
    9000001   -1    0    0    0    0 -0.00000000000E+00 -0.00000000000E+00 -0.64999999231E+04  0.65000000000E+04  0.10000000000E+01 0.  0.
    9000001    1    1    2    0    0 -0.10339520154E+04 -0.20851340111E+04 -0.60690327389E+04  0.65000000000E+04  0.10000000000E+01 0.  0.
    9000001    1    1    2    0    0  0.10339520154E+04  0.20851340111E+04  0.60690327389E+04  0.65000000000E+04  0.10000000000E+01 0.  0.
</event>
<event>
 4    1  0.2195261E-006  0.1300000E+05  0.7957747E-01  0.1322471E+00
    9000001   -1    0    0    0    0  0.00000000000E+00  0.00000000000E+00  0.64999999231E+04  0.65000000000E+04  0.10000000000E+01 0.  0.
    9000001   -1    0    0    0    0 -0.00000000000E+00 -0.00000000000E+00 -0.64999999231E+04  0.65000000000E+04  0.10000000000E+01 0.  0.
    9000001    1    1    2    0    0 -0.55678541921E+04  0.92661757927E+03 -0.32234110127E+04  0.65000000000E+04  0.10000000000E+01 0.  0.
    9000001    1    1    2    0    0  0.55678541921E+04 -0.92661757927E+03  0.32234110127E+04  0.65000000000E+04  0.10000000000E+01 0.  0.
</event>
<event>
 4    1  0.2195261E-006  0.1300000E+05  0.7957747E-01  0.1322471E+00
    9000001   -1    0    0    0    0  0.00000000000E+00  0.00000000000E+00  0.64999999231E+04  0.65000000000E+04  0.10000000000E+01 0.  0.
    9000001   -1    0    0    0    0 -0.00000000000E+00 -0.00000000000E+00 -0.64999999231E+04  0.65000000000E+04  0.10000000000E+01 0.  0.
    9000001    1    1    2    0    0  0.30039556570E+04 -0.48541222528E+04  0.31086567140E+04  0.65000000000E+04  0.10000000000E+01 0.  0.
    9000001    1    1    2    0    0 -0.30039556570E+04  0.48541222528E+04 -0.31086567140E+04  0.65000000000E+04  0.10000000000E+01 0.  0.
</event>
<event>
 4    1  0.2195261E-006  0.1300000E+05  0.7957747E-01  0.1322471E+00
    9000001   -1    0    0    0    0  0.00000000000E+00  0.00000000000E+00  0.64999999231E+04  0.65000000000E+04  0.10000000000E+01 0.  0.
    9000001   -1    0    0    0    0 -0.00000000000E+00 -0.00000000000E+00 -0.64999999231E+04  0.65000000000E+04  0.10000000000E+01 0.  0.
    9000001    1    1    2    0    0 -0.32580192616E+04 -0.42534690891E+03 -0.56084213018E+04  0.65000000000E+04  0.10000000000E+01 0.  0.
    9000001    1    1    2    0    0  0.32580192616E+04  0.42534690891E+03  0.56084213018E+04  0.65000000000E+04  0.10000000000E+01 0.  0.
</event>
<event>
 4    1  0.2195261E-006  0.1300000E+05  0.7957747E-01  0.1322471E+00
    9000001   -1    0    0    0    0  0.00000000000E+00  0.00000000000E+00  0.64999999231E+04  0.65000000000E+04  0.10000000000E+01 0.  0.
    9000001   -1    0    0    0    0 -0.00000000000E+00 -0.00000000000E+00 -0.64999999231E+04  0.65000000000E+04  0.10000000000E+01 0.  0.
    9000001    1    1    2    0    0  0.10127785049E+04 -0.14098263739E+04  0.62639179669E+04  0.65000000000E+04  0.10000000000E+01 0.  0.
    9000001    1    1    2    0    0 -0.10127785049E+04  0.14098263739E+04 -0.62639179669E+04  0.65000000000E+04  0.10000000000E+01 0.  0.
</event>
<event>
 4    1  0.2195261E-006  0.1300000E+05  0.7957747E-01  0.1322471E+00
    9000001   -1    0    0    0    0  0.00000000000E+00  0.00000000000E+00  0.64999999231E+04  0.65000000000E+04  0.10000000000E+01 0.  0.
    9000001   -1    0    0    0    0 -0.00000000000E+00 -0.00000000000E+00 -0.64999999231E+04  0.65000000000E+04  0.10000000000E+01 0.  0.
    9000001    1    1    2    0    0 -0.45732803359E+04  0.46171516263E+04  0.13044856716E+03  0.65000000000E+04  0.10000000000E+01 0.  0.
    9000001    1    1    2    0    0  0.45732803359E+04 -0.46171516263E+04 -0.13044856716E+03  0.65000000000E+04  0.10000000000E+01 0.  0.
</event>
<event>
 4    1  0.2195261E-006  0.1300000E+05  0.7957747E-01  0.1322471E+00
    9000001   -1    0    0    0    0  0.00000000000E+00  0.00000000000E+00  0.64999999231E+04  0.65000000000E+04  0.10000000000E+01 0.  0.
    9000001   -1    0    0    0    0 -0.00000000000E+00 -0.00000000000E+00 -0.64999999231E+04  0.65000000000E+04  0.10000000000E+01 0.  0.
    9000001    1    1    2    0    0  0.52228451282E+03  0.56351658054E+04  0.31972056914E+04  0.65000000000E+04  0.10000000000E+01 0.  0.
    9000001    1    1    2    0    0 -0.52228451282E+03 -0.56351658054E+04 -0.31972056914E+04  0.65000000000E+04  0.10000000000E+01 0.  0.
</event>
<event>
 4    1  0.2195261E-006  0.1300000E+05  0.7957747E-01  0.1322471E+00
    9000001   -1    0    0    0    0  0.00000000000E+00  0.00000000000E+00  0.64999999231E+04  0.65000000000E+04  0.10000000000E+01 0.  0.
    9000001   -1    0    0    0    0 -0.00000000000E+00 -0.00000000000E+00 -0.64999999231E+04  0.65000000000E+04  0.10000000000E+01 0.  0.
    9000001    1    1    2    0    0  0.25067474550E+03 -0.33718658868E+04 -0.55513675444E+04  0.65000000000E+04  0.10000000000E+01 0.  0.
    9000001    1    1    2    0    0 -0.25067474550E+03  0.33718658868E+04  0.55513675444E+04  0.65000000000E+04  0.10000000000E+01 0.  0.
</event>
<event>
 4    1  0.2195261E-006  0.1300000E+05  0.7957747E-01  0.1322471E+00
    9000001   -1    0    0    0    0  0.00000000000E+00  0.00000000000E+00  0.64999999231E+04  0.65000000000E+04  0.10000000000E+01 0.  0.
    9000001   -1    0    0    0    0 -0.00000000000E+00 -0.00000000000E+00 -0.64999999231E+04  0.65000000000E+04  0.10000000000E+01 0.  0.
    9000001    1    1    2    0    0 -0.52230518038E+04  0.38359156210E+04  0.50545049527E+03  0.65000000000E+04  0.10000000000E+01 0.  0.
    9000001    1    1    2    0    0  0.52230518038E+04 -0.38359156210E+04 -0.50545049527E+03  0.65000000000E+04  0.10000000000E+01 0.  0.
</event>
<event>
 4    1  0.2195261E-006  0.1300000E+05  0.7957747E-01  0.1322471E+00
    9000001   -1    0    0    0    0  0.00000000000E+00  0.00000000000E+00  0.64999999231E+04  0.65000000000E+04  0.10000000000E+01 0.  0.
    9000001   -1    0    0    0    0 -0.00000000000E+00 -0.00000000000E+00 -0.64999999231E+04  0.65000000000E+04  0.10000000000E+01 0.  0.
    9000001    1    1    2    0    0  0.38968090355E+04 -0.43929878930E+04  0.27868505006E+04  0.65000000000E+04  0.10000000000E+01 0.  0.
    9000001    1    1    2    0    0 -0.38968090355E+04  0.43929878930E+04 -0.27868505006E+04  0.65000000000E+04  0.10000000000E+01 0.  0.
</event>
<event>
 4    1  0.2195261E-006  0.1300000E+05  0.7957747E-01  0.1322471E+00
    9000001   -1    0    0    0    0  0.00000000000E+00  0.00000000000E+00  0.64999999231E+04  0.65000000000E+04  0.10000000000E+01 0.  0.
    9000001   -1    0    0    0    0 -0.00000000000E+00 -0.00000000000E+00 -0.64999999231E+04  0.65000000000E+04  0.10000000000E+01 0.  0.
    9000001    1    1    2    0    0 -0.12260619871E+04 -0.57213700758E+04 -0.28306704964E+04  0.65000000000E+04  0.10000000000E+01 0.  0.
    9000001    1    1    2    0    0  0.12260619871E+04  0.57213700758E+04  0.28306704964E+04  0.65000000000E+04  0.10000000000E+01 0.  0.
</event>
<event>
 4    1  0.2195261E-006  0.1300000E+05  0.7957747E-01  0.1322471E+00
    9000001   -1    0    0    0    0  0.00000000000E+00  0.00000000000E+00  0.64999999231E+04  0.65000000000E+04  0.10000000000E+01 0.  0.
    9000001   -1    0    0    0    0 -0.00000000000E+00 -0.00000000000E+00 -0.64999999231E+04  0.65000000000E+04  0.10000000000E+01 0.  0.
    9000001    1    1    2    0    0  0.44068856875E+04  0.90842224238E+03 -0.46908556327E+04  0.65000000000E+04  0.10000000000E+01 0.  0.
    9000001    1    1    2    0    0 -0.44068856875E+04 -0.90842224238E+03  0.46908556327E+04  0.65000000000E+04  0.10000000000E+01 0.  0.
</event>
<event>
 4    1  0.2195261E-006  0.1300000E+05  0.7957747E-01  0.1322471E+00
    9000001   -1    0    0    0    0  0.00000000000E+00  0.00000000000E+00  0.64999999231E+04  0.65000000000E+04  0.10000000000E+01 0.  0.
    9000001   -1    0    0    0    0 -0.00000000000E+00 -0.00000000000E+00 -0.64999999231E+04  0.65000000000E+04  0.10000000000E+01 0.  0.
    9000001    1    1    2    0    0 -0.38901189643E+04 -0.50447678416E+04  0.12912361783E+04  0.65000000000E+04  0.10000000000E+01 0.  0.
    9000001    1    1    2    0    0  0.38901189643E+04  0.50447678416E+04 -0.12912361783E+04  0.65000000000E+04  0.10000000000E+01 0.  0.
</event>
<event>
 4    1  0.2195261E-006  0.1300000E+05  0.7957747E-01  0.1322471E+00
    9000001   -1    0    0    0    0  0.00000000000E+00  0.00000000000E+00  0.64999999231E+04  0.65000000000E+04  0.10000000000E+01 0.  0.
    9000001   -1    0    0    0    0 -0.00000000000E+00 -0.00000000000E+00 -0.64999999231E+04  0.65000000000E+04  0.10000000000E+01 0.  0.
    9000001    1    1    2    0    0 -0.30045530864E+04 -0.43359075652E+03  0.57475785168E+04  0.65000000000E+04  0.10000000000E+01 0.  0.
    9000001    1    1    2    0    0  0.30045530864E+04  0.43359075652E+03 -0.57475785168E+04  0.65000000000E+04  0.10000000000E+01 0.  0.
</event>
<event>
 4    1  0.2195261E-006  0.1300000E+05  0.7957747E-01  0.1322471E+00
    9000001   -1    0    0    0    0  0.00000000000E+00  0.00000000000E+00  0.64999999231E+04  0.65000000000E+04  0.10000000000E+01 0.  0.
    9000001   -1    0    0    0    0 -0.00000000000E+00 -0.00000000000E+00 -0.64999999231E+04  0.65000000000E+04  0.10000000000E+01 0.  0.
    9000001    1    1    2    0    0 -0.64955617508E+04  0.23597224143E+02  0.23899730623E+03  0.65000000000E+04  0.10000000000E+01 0.  0.
    9000001    1    1    2    0    0  0.64955617508E+04 -0.23597224143E+02 -0.23899730623E+03  0.65000000000E+04  0.10000000000E+01 0.  0.
</event>
<event>
 4    1  0.2195261E-006  0.1300000E+05  0.7957747E-01  0.1322471E+00
    9000001   -1    0    0    0    0  0.00000000000E+00  0.00000000000E+00  0.64999999231E+04  0.65000000000E+04  0.10000000000E+01 0.  0.
    9000001   -1    0    0    0    0 -0.00000000000E+00 -0.00000000000E+00 -0.64999999231E+04  0.65000000000E+04  0.10000000000E+01 0.  0.
    9000001    1    1    2    0    0 -0.19184724058E+04 -0.35900550260E+04  0.50676392471E+04  0.65000000000E+04  0.10000000000E+01 0.  0.
    9000001    1    1    2    0    0  0.19184724058E+04  0.35900550260E+04 -0.50676392471E+04  0.65000000000E+04  0.10000000000E+01 0.  0.
</event>
<event>
 4    1  0.2195261E-006  0.1300000E+05  0.7957747E-01  0.1322471E+00
    9000001   -1    0    0    0    0  0.00000000000E+00  0.00000000000E+00  0.64999999231E+04  0.65000000000E+04  0.10000000000E+01 0.  0.
    9000001   -1    0    0    0    0 -0.00000000000E+00 -0.00000000000E+00 -0.64999999231E+04  0.65000000000E+04  0.10000000000E+01 0.  0.
    9000001    1    1    2    0    0  0.13147195144E+04 -0.23519302831E+04  0.59152291200E+04  0.65000000000E+04  0.10000000000E+01 0.  0.
    9000001    1    1    2    0    0 -0.13147195144E+04  0.23519302831E+04 -0.59152291200E+04  0.65000000000E+04  0.10000000000E+01 0.  0.
</event>
<event>
 4    1  0.2195261E-006  0.1300000E+05  0.7957747E-01  0.1322471E+00
    9000001   -1    0    0    0    0  0.00000000000E+00  0.00000000000E+00  0.64999999231E+04  0.65000000000E+04  0.10000000000E+01 0.  0.
    9000001   -1    0    0    0    0 -0.00000000000E+00 -0.00000000000E+00 -0.64999999231E+04  0.65000000000E+04  0.10000000000E+01 0.  0.
    9000001    1    1    2    0    0 -0.22557377899E+04 -0.46519177560E+04  0.39397090267E+04  0.65000000000E+04  0.10000000000E+01 0.  0.
    9000001    1    1    2    0    0  0.22557377899E+04  0.46519177560E+04 -0.39397090267E+04  0.65000000000E+04  0.10000000000E+01 0.  0.
</event>
<event>
 4    1  0.2195261E-006  0.1300000E+05  0.7957747E-01  0.1322471E+00
    9000001   -1    0    0    0    0  0.00000000000E+00  0.00000000000E+00  0.64999999231E+04  0.65000000000E+04  0.10000000000E+01 0.  0.
    9000001   -1    0    0    0    0 -0.00000000000E+00 -0.00000000000E+00 -0.64999999231E+04  0.65000000000E+04  0.10000000000E+01 0.  0.
    9000001    1    1    2    0    0  0.28274062109E+04  0.26802305719E+04 -0.52030891978E+04  0.65000000000E+04  0.10000000000E+01 0.  0.
    9000001    1    1    2    0    0 -0.28274062109E+04 -0.26802305719E+04  0.52030891978E+04  0.65000000000E+04  0.10000000000E+01 0.  0.
</event>
<event>
 4    1  0.2195261E-006  0.1300000E+05  0.7957747E-01  0.1322471E+00
    9000001   -1    0    0    0    0  0.00000000000E+00  0.00000000000E+00  0.64999999231E+04  0.65000000000E+04  0.10000000000E+01 0.  0.
    9000001   -1    0    0    0    0 -0.00000000000E+00 -0.00000000000E+00 -0.64999999231E+04  0.65000000000E+04  0.10000000000E+01 0.  0.
    9000001    1    1    2    0    0  0.58874462587E+04 -0.88534961089E+03 -0.26084730432E+04  0.65000000000E+04  0.10000000000E+01 0.  0.
    9000001    1    1    2    0    0 -0.58874462587E+04  0.88534961089E+03  0.26084730432E+04  0.65000000000E+04  0.10000000000E+01 0.  0.
</event>
<event>
 4    1  0.2195261E-006  0.1300000E+05  0.7957747E-01  0.1322471E+00
    9000001   -1    0    0    0    0  0.00000000000E+00  0.00000000000E+00  0.64999999231E+04  0.65000000000E+04  0.10000000000E+01 0.  0.
    9000001   -1    0    0    0    0 -0.00000000000E+00 -0.00000000000E+00 -0.64999999231E+04  0.65000000000E+04  0.10000000000E+01 0.  0.
    9000001    1    1    2    0    0 -0.32406220444E+04 -0.23088785121E+04  0.51397906360E+04  0.65000000000E+04  0.10000000000E+01 0.  0.
    9000001    1    1    2    0    0  0.32406220444E+04  0.23088785121E+04 -0.51397906360E+04  0.65000000000E+04  0.10000000000E+01 0.  0.
</event>
<event>
 4    1  0.2195261E-006  0.1300000E+05  0.7957747E-01  0.1322471E+00
    9000001   -1    0    0    0    0  0.00000000000E+00  0.00000000000E+00  0.64999999231E+04  0.65000000000E+04  0.10000000000E+01 0.  0.
    9000001   -1    0    0    0    0 -0.00000000000E+00 -0.00000000000E+00 -0.64999999231E+04  0.65000000000E+04  0.10000000000E+01 0.  0.
    9000001    1    1    2    0    0 -0.61042051189E+04  0.86315149365E+03  0.20600117390E+04  0.65000000000E+04  0.10000000000E+01 0.  0.
    9000001    1    1    2    0    0  0.61042051189E+04 -0.86315149365E+03 -0.20600117390E+04  0.65000000000E+04  0.10000000000E+01 0.  0.
</event>
<event>
 4    1  0.2195261E-006  0.1300000E+05  0.7957747E-01  0.1322471E+00
    9000001   -1    0    0    0    0  0.00000000000E+00  0.00000000000E+00  0.64999999231E+04  0.65000000000E+04  0.10000000000E+01 0.  0.
    9000001   -1    0    0    0    0 -0.00000000000E+00 -0.00000000000E+00 -0.64999999231E+04  0.65000000000E+04  0.10000000000E+01 0.  0.
    9000001    1    1    2    0    0 -0.33451919019E+04 -0.42863630462E+04 -0.35618509199E+04  0.65000000000E+04  0.10000000000E+01 0.  0.
    9000001    1    1    2    0    0  0.33451919019E+04  0.42863630462E+04  0.35618509199E+04  0.65000000000E+04  0.10000000000E+01 0.  0.
</event>
<event>
 4    1  0.2195261E-006  0.1300000E+05  0.7957747E-01  0.1322471E+00
    9000001   -1    0    0    0    0  0.00000000000E+00  0.00000000000E+00  0.64999999231E+04  0.65000000000E+04  0.10000000000E+01 0.  0.
    9000001   -1    0    0    0    0 -0.00000000000E+00 -0.00000000000E+00 -0.64999999231E+04  0.65000000000E+04  0.10000000000E+01 0.  0.
    9000001    1    1    2    0    0 -0.50173385582E+04 -0.26525328293E+04  0.31686562423E+04  0.65000000000E+04  0.10000000000E+01 0.  0.
    9000001    1    1    2    0    0  0.50173385582E+04  0.26525328293E+04 -0.31686562423E+04  0.65000000000E+04  0.10000000000E+01 0.  0.
</event>
<event>
 4    1  0.2195261E-006  0.1300000E+05  0.7957747E-01  0.1322471E+00
    9000001   -1    0    0    0    0  0.00000000000E+00  0.00000000000E+00  0.64999999231E+04  0.65000000000E+04  0.10000000000E+01 0.  0.
    9000001   -1    0    0    0    0 -0.00000000000E+00 -0.00000000000E+00 -0.64999999231E+04  0.65000000000E+04  0.10000000000E+01 0.  0.
    9000001    1    1    2    0    0 -0.38334613851E+04  0.39070185870E+04  0.35056780470E+04  0.65000000000E+04  0.10000000000E+01 0.  0.
    9000001    1    1    2    0    0  0.38334613851E+04 -0.39070185870E+04 -0.35056780470E+04  0.65000000000E+04  0.10000000000E+01 0.  0.
</event>
<event>
 4    1  0.2195261E-006  0.1300000E+05  0.7957747E-01  0.1322471E+00
    9000001   -1    0    0    0    0  0.00000000000E+00  0.00000000000E+00  0.64999999231E+04  0.65000000000E+04  0.10000000000E+01 0.  0.
    9000001   -1    0    0    0    0 -0.00000000000E+00 -0.00000000000E+00 -0.64999999231E+04  0.65000000000E+04  0.10000000000E+01 0.  0.
    9000001    1    1    2    0    0  0.39047807055E+04 -0.19217590081E+04  0.48279942995E+04  0.65000000000E+04  0.10000000000E+01 0.  0.
    9000001    1    1    2    0    0 -0.39047807055E+04  0.19217590081E+04 -0.48279942995E+04  0.65000000000E+04  0.10000000000E+01 0.  0.
</event>
<event>
 4    1  0.2195261E-006  0.1300000E+05  0.7957747E-01  0.1322471E+00
    9000001   -1    0    0    0    0  0.00000000000E+00  0.00000000000E+00  0.64999999231E+04  0.65000000000E+04  0.10000000000E+01 0.  0.
    9000001   -1    0    0    0    0 -0.00000000000E+00 -0.00000000000E+00 -0.64999999231E+04  0.65000000000E+04  0.10000000000E+01 0.  0.
    9000001    1    1    2    0    0 -0.22772494391E+04  0.60514198536E+04 -0.66667214370E+03  0.65000000000E+04  0.10000000000E+01 0.  0.
    9000001    1    1    2    0    0  0.22772494391E+04 -0.60514198536E+04  0.66667214370E+03  0.65000000000E+04  0.10000000000E+01 0.  0.
</event>
<event>
 4    1  0.2195261E-006  0.1300000E+05  0.7957747E-01  0.1322471E+00
    9000001   -1    0    0    0    0  0.00000000000E+00  0.00000000000E+00  0.64999999231E+04  0.65000000000E+04  0.10000000000E+01 0.  0.
    9000001   -1    0    0    0    0 -0.00000000000E+00 -0.00000000000E+00 -0.64999999231E+04  0.65000000000E+04  0.10000000000E+01 0.  0.
    9000001    1    1    2    0    0  0.16589009065E+04 -0.37056276343E+04  0.50760585712E+04  0.65000000000E+04  0.10000000000E+01 0.  0.
    9000001    1    1    2    0    0 -0.16589009065E+04  0.37056276343E+04 -0.50760585712E+04  0.65000000000E+04  0.10000000000E+01 0.  0.
</event>
<event>
 4    1  0.2195261E-006  0.1300000E+05  0.7957747E-01  0.1322471E+00
    9000001   -1    0    0    0    0  0.00000000000E+00  0.00000000000E+00  0.64999999231E+04  0.65000000000E+04  0.10000000000E+01 0.  0.
    9000001   -1    0    0    0    0 -0.00000000000E+00 -0.00000000000E+00 -0.64999999231E+04  0.65000000000E+04  0.10000000000E+01 0.  0.
    9000001    1    1    2    0    0 -0.30450807050E+04  0.54721337138E+04 -0.17416185342E+04  0.65000000000E+04  0.10000000000E+01 0.  0.
    9000001    1    1    2    0    0  0.30450807050E+04 -0.54721337138E+04  0.17416185342E+04  0.65000000000E+04  0.10000000000E+01 0.  0.
</event>
<event>
 4    1  0.2195261E-006  0.1300000E+05  0.7957747E-01  0.1322471E+00
    9000001   -1    0    0    0    0  0.00000000000E+00  0.00000000000E+00  0.64999999231E+04  0.65000000000E+04  0.10000000000E+01 0.  0.
    9000001   -1    0    0    0    0 -0.00000000000E+00 -0.00000000000E+00 -0.64999999231E+04  0.65000000000E+04  0.10000000000E+01 0.  0.
    9000001    1    1    2    0    0  0.85795988322E+03  0.30910378480E+04  0.56532635584E+04  0.65000000000E+04  0.10000000000E+01 0.  0.
    9000001    1    1    2    0    0 -0.85795988322E+03 -0.30910378480E+04 -0.56532635584E+04  0.65000000000E+04  0.10000000000E+01 0.  0.
</event>
<event>
 4    1  0.2195261E-006  0.1300000E+05  0.7957747E-01  0.1322471E+00
    9000001   -1    0    0    0    0  0.00000000000E+00  0.00000000000E+00  0.64999999231E+04  0.65000000000E+04  0.10000000000E+01 0.  0.
    9000001   -1    0    0    0    0 -0.00000000000E+00 -0.00000000000E+00 -0.64999999231E+04  0.65000000000E+04  0.10000000000E+01 0.  0.
    9000001    1    1    2    0    0 -0.49274376692E+04  0.17575271175E+04 -0.38576489534E+04  0.65000000000E+04  0.10000000000E+01 0.  0.
    9000001    1    1    2    0    0  0.49274376692E+04 -0.17575271175E+04  0.38576489534E+04  0.65000000000E+04  0.10000000000E+01 0.  0.
</event>
<event>
 4    1  0.2195261E-006  0.1300000E+05  0.7957747E-01  0.1322471E+00
    9000001   -1    0    0    0    0  0.00000000000E+00  0.00000000000E+00  0.64999999231E+04  0.65000000000E+04  0.10000000000E+01 0.  0.
    9000001   -1    0    0    0    0 -0.00000000000E+00 -0.00000000000E+00 -0.64999999231E+04  0.65000000000E+04  0.10000000000E+01 0.  0.
    9000001    1    1    2    0    0 -0.26150277253E+04 -0.52403921265E+04 -0.28195601352E+04  0.65000000000E+04  0.10000000000E+01 0.  0.
    9000001    1    1    2    0    0  0.26150277253E+04  0.52403921265E+04  0.28195601352E+04  0.65000000000E+04  0.10000000000E+01 0.  0.
</event>
<event>
 4    1  0.2195261E-006  0.1300000E+05  0.7957747E-01  0.1322471E+00
    9000001   -1    0    0    0    0  0.00000000000E+00  0.00000000000E+00  0.64999999231E+04  0.65000000000E+04  0.10000000000E+01 0.  0.
    9000001   -1    0    0    0    0 -0.00000000000E+00 -0.00000000000E+00 -0.64999999231E+04  0.65000000000E+04  0.10000000000E+01 0.  0.
    9000001    1    1    2    0    0 -0.25483914306E+04  0.57737215110E+04 -0.15555835013E+04  0.65000000000E+04  0.10000000000E+01 0.  0.
    9000001    1    1    2    0    0  0.25483914306E+04 -0.57737215110E+04  0.15555835013E+04  0.65000000000E+04  0.10000000000E+01 0.  0.
</event>
<event>
 4    1  0.2195261E-006  0.1300000E+05  0.7957747E-01  0.1322471E+00
    9000001   -1    0    0    0    0  0.00000000000E+00  0.00000000000E+00  0.64999999231E+04  0.65000000000E+04  0.10000000000E+01 0.  0.
    9000001   -1    0    0    0    0 -0.00000000000E+00 -0.00000000000E+00 -0.64999999231E+04  0.65000000000E+04  0.10000000000E+01 0.  0.
    9000001    1    1    2    0    0  0.61343857254E+04  0.84260291795E+02 -0.21476058704E+04  0.65000000000E+04  0.10000000000E+01 0.  0.
    9000001    1    1    2    0    0 -0.61343857254E+04 -0.84260291795E+02  0.21476058704E+04  0.65000000000E+04  0.10000000000E+01 0.  0.
</event>
<event>
 4    1  0.2195261E-006  0.1300000E+05  0.7957747E-01  0.1322471E+00
    9000001   -1    0    0    0    0  0.00000000000E+00  0.00000000000E+00  0.64999999231E+04  0.65000000000E+04  0.10000000000E+01 0.  0.
    9000001   -1    0    0    0    0 -0.00000000000E+00 -0.00000000000E+00 -0.64999999231E+04  0.65000000000E+04  0.10000000000E+01 0.  0.
    9000001    1    1    2    0    0 -0.61762169901E+04  0.15479112065E+04  0.13070247084E+04  0.65000000000E+04  0.10000000000E+01 0.  0.
    9000001    1    1    2    0    0  0.61762169901E+04 -0.15479112065E+04 -0.13070247084E+04  0.65000000000E+04  0.10000000000E+01 0.  0.
</event>
<event>
 4    1  0.2195261E-006  0.1300000E+05  0.7957747E-01  0.1322471E+00
    9000001   -1    0    0    0    0  0.00000000000E+00  0.00000000000E+00  0.64999999231E+04  0.65000000000E+04  0.10000000000E+01 0.  0.
    9000001   -1    0    0    0    0 -0.00000000000E+00 -0.00000000000E+00 -0.64999999231E+04  0.65000000000E+04  0.10000000000E+01 0.  0.
    9000001    1    1    2    0    0  0.27180305305E+04 -0.76372028877E+03 -0.58548305147E+04  0.65000000000E+04  0.10000000000E+01 0.  0.
    9000001    1    1    2    0    0 -0.27180305305E+04  0.76372028877E+03  0.58548305147E+04  0.65000000000E+04  0.10000000000E+01 0.  0.
</event>
<event>
 4    1  0.2195261E-006  0.1300000E+05  0.7957747E-01  0.1322471E+00
    9000001   -1    0    0    0    0  0.00000000000E+00  0.00000000000E+00  0.64999999231E+04  0.65000000000E+04  0.10000000000E+01 0.  0.
    9000001   -1    0    0    0    0 -0.00000000000E+00 -0.00000000000E+00 -0.64999999231E+04  0.65000000000E+04  0.10000000000E+01 0.  0.
    9000001    1    1    2    0    0  0.80522118166E+03 -0.33101985828E+04  0.55357206569E+04  0.65000000000E+04  0.10000000000E+01 0.  0.
    9000001    1    1    2    0    0 -0.80522118166E+03  0.33101985828E+04 -0.55357206569E+04  0.65000000000E+04  0.10000000000E+01 0.  0.
</event>
<event>
 4    1  0.2195261E-006  0.1300000E+05  0.7957747E-01  0.1322471E+00
    9000001   -1    0    0    0    0  0.00000000000E+00  0.00000000000E+00  0.64999999231E+04  0.65000000000E+04  0.10000000000E+01 0.  0.
    9000001   -1    0    0    0    0 -0.00000000000E+00 -0.00000000000E+00 -0.64999999231E+04  0.65000000000E+04  0.10000000000E+01 0.  0.
    9000001    1    1    2    0    0  0.23672792353E+04  0.36977840634E+04 -0.47929511830E+04  0.65000000000E+04  0.10000000000E+01 0.  0.
    9000001    1    1    2    0    0 -0.23672792353E+04 -0.36977840634E+04  0.47929511830E+04  0.65000000000E+04  0.10000000000E+01 0.  0.
</event>
<event>
 4    1  0.2195261E-006  0.1300000E+05  0.7957747E-01  0.1322471E+00
    9000001   -1    0    0    0    0  0.00000000000E+00  0.00000000000E+00  0.64999999231E+04  0.65000000000E+04  0.10000000000E+01 0.  0.
    9000001   -1    0    0    0    0 -0.00000000000E+00 -0.00000000000E+00 -0.64999999231E+04  0.65000000000E+04  0.10000000000E+01 0.  0.
    9000001    1    1    2    0    0 -0.35364964657E+04 -0.41340853283E+04 -0.35570395340E+04  0.65000000000E+04  0.10000000000E+01 0.  0.
    9000001    1    1    2    0    0  0.35364964657E+04  0.41340853283E+04  0.35570395340E+04  0.65000000000E+04  0.10000000000E+01 0.  0.
</event>
<event>
 4    1  0.2195261E-006  0.1300000E+05  0.7957747E-01  0.1322471E+00
    9000001   -1    0    0    0    0  0.00000000000E+00  0.00000000000E+00  0.64999999231E+04  0.65000000000E+04  0.10000000000E+01 0.  0.
    9000001   -1    0    0    0    0 -0.00000000000E+00 -0.00000000000E+00 -0.64999999231E+04  0.65000000000E+04  0.10000000000E+01 0.  0.
    9000001    1    1    2    0    0  0.68561574187E+03 -0.18271080048E+04 -0.62001295465E+04  0.65000000000E+04  0.10000000000E+01 0.  0.
    9000001    1    1    2    0    0 -0.68561574187E+03  0.18271080048E+04  0.62001295465E+04  0.65000000000E+04  0.10000000000E+01 0.  0.
</event>
<event>
 4    1  0.2195261E-006  0.1300000E+05  0.7957747E-01  0.1322471E+00
    9000001   -1    0    0    0    0  0.00000000000E+00  0.00000000000E+00  0.64999999231E+04  0.65000000000E+04  0.10000000000E+01 0.  0.
    9000001   -1    0    0    0    0 -0.00000000000E+00 -0.00000000000E+00 -0.64999999231E+04  0.65000000000E+04  0.10000000000E+01 0.  0.
    9000001    1    1    2    0    0 -0.38344505023E+04  0.44564732722E+04  0.27725140792E+04  0.65000000000E+04  0.10000000000E+01 0.  0.
    9000001    1    1    2    0    0  0.38344505023E+04 -0.44564732722E+04 -0.27725140792E+04  0.65000000000E+04  0.10000000000E+01 0.  0.
</event>
<event>
 4    1  0.2195261E-006  0.1300000E+05  0.7957747E-01  0.1322471E+00
    9000001   -1    0    0    0    0  0.00000000000E+00  0.00000000000E+00  0.64999999231E+04  0.65000000000E+04  0.10000000000E+01 0.  0.
    9000001   -1    0    0    0    0 -0.00000000000E+00 -0.00000000000E+00 -0.64999999231E+04  0.65000000000E+04  0.10000000000E+01 0.  0.
    9000001    1    1    2    0    0  0.46726467310E+04 -0.20163945572E+04 -0.40435781824E+04  0.65000000000E+04  0.10000000000E+01 0.  0.
    9000001    1    1    2    0    0 -0.46726467310E+04  0.20163945572E+04  0.40435781824E+04  0.65000000000E+04  0.10000000000E+01 0.  0.
</event>
<event>
 4    1  0.2195261E-006  0.1300000E+05  0.7957747E-01  0.1322471E+00
    9000001   -1    0    0    0    0  0.00000000000E+00  0.00000000000E+00  0.64999999231E+04  0.65000000000E+04  0.10000000000E+01 0.  0.
    9000001   -1    0    0    0    0 -0.00000000000E+00 -0.00000000000E+00 -0.64999999231E+04  0.65000000000E+04  0.10000000000E+01 0.  0.
    9000001    1    1    2    0    0 -0.49812738857E+04 -0.32411704992E+04 -0.26328166041E+04  0.65000000000E+04  0.10000000000E+01 0.  0.
    9000001    1    1    2    0    0  0.49812738857E+04  0.32411704992E+04  0.26328166041E+04  0.65000000000E+04  0.10000000000E+01 0.  0.
</event>
<event>
 4    1  0.2195261E-006  0.1300000E+05  0.7957747E-01  0.1322471E+00
    9000001   -1    0    0    0    0  0.00000000000E+00  0.00000000000E+00  0.64999999231E+04  0.65000000000E+04  0.10000000000E+01 0.  0.
    9000001   -1    0    0    0    0 -0.00000000000E+00 -0.00000000000E+00 -0.64999999231E+04  0.65000000000E+04  0.10000000000E+01 0.  0.
    9000001    1    1    2    0    0 -0.36767694039E+04  0.16420951514E+03  0.53576488300E+04  0.65000000000E+04  0.10000000000E+01 0.  0.
    9000001    1    1    2    0    0  0.36767694039E+04 -0.16420951514E+03 -0.53576488300E+04  0.65000000000E+04  0.10000000000E+01 0.  0.
</event>
<event>
 4    1  0.2195261E-006  0.1300000E+05  0.7957747E-01  0.1322471E+00
    9000001   -1    0    0    0    0  0.00000000000E+00  0.00000000000E+00  0.64999999231E+04  0.65000000000E+04  0.10000000000E+01 0.  0.
    9000001   -1    0    0    0    0 -0.00000000000E+00 -0.00000000000E+00 -0.64999999231E+04  0.65000000000E+04  0.10000000000E+01 0.  0.
    9000001    1    1    2    0    0  0.48445989209E+04 -0.21226635789E+04  0.37781158831E+04  0.65000000000E+04  0.10000000000E+01 0.  0.
    9000001    1    1    2    0    0 -0.48445989209E+04  0.21226635789E+04 -0.37781158831E+04  0.65000000000E+04  0.10000000000E+01 0.  0.
</event>
<event>
 4    1  0.2195261E-006  0.1300000E+05  0.7957747E-01  0.1322471E+00
    9000001   -1    0    0    0    0  0.00000000000E+00  0.00000000000E+00  0.64999999231E+04  0.65000000000E+04  0.10000000000E+01 0.  0.
    9000001   -1    0    0    0    0 -0.00000000000E+00 -0.00000000000E+00 -0.64999999231E+04  0.65000000000E+04  0.10000000000E+01 0.  0.
    9000001    1    1    2    0    0 -0.14275023807E+04  0.57646382514E+04 -0.26421926092E+04  0.65000000000E+04  0.10000000000E+01 0.  0.
    9000001    1    1    2    0    0  0.14275023807E+04 -0.57646382514E+04  0.26421926092E+04  0.65000000000E+04  0.10000000000E+01 0.  0.
</event>
<event>
 4    1  0.2195261E-006  0.1300000E+05  0.7957747E-01  0.1322471E+00
    9000001   -1    0    0    0    0  0.00000000000E+00  0.00000000000E+00  0.64999999231E+04  0.65000000000E+04  0.10000000000E+01 0.  0.
    9000001   -1    0    0    0    0 -0.00000000000E+00 -0.00000000000E+00 -0.64999999231E+04  0.65000000000E+04  0.10000000000E+01 0.  0.
    9000001    1    1    2    0    0 -0.48244229920E+04 -0.43394212400E+04 -0.37995407113E+03  0.65000000000E+04  0.10000000000E+01 0.  0.
    9000001    1    1    2    0    0  0.48244229920E+04  0.43394212400E+04  0.37995407113E+03  0.65000000000E+04  0.10000000000E+01 0.  0.
</event>
<event>
 4    1  0.2195261E-006  0.1300000E+05  0.7957747E-01  0.1322471E+00
    9000001   -1    0    0    0    0  0.00000000000E+00  0.00000000000E+00  0.64999999231E+04  0.65000000000E+04  0.10000000000E+01 0.  0.
    9000001   -1    0    0    0    0 -0.00000000000E+00 -0.00000000000E+00 -0.64999999231E+04  0.65000000000E+04  0.10000000000E+01 0.  0.
    9000001    1    1    2    0    0 -0.37908645842E+04  0.45217801814E+04  0.27263251265E+04  0.65000000000E+04  0.10000000000E+01 0.  0.
    9000001    1    1    2    0    0  0.37908645842E+04 -0.45217801814E+04 -0.27263251265E+04  0.65000000000E+04  0.10000000000E+01 0.  0.
</event>
<event>
 4    1  0.2195261E-006  0.1300000E+05  0.7957747E-01  0.1322471E+00
    9000001   -1    0    0    0    0  0.00000000000E+00  0.00000000000E+00  0.64999999231E+04  0.65000000000E+04  0.10000000000E+01 0.  0.
    9000001   -1    0    0    0    0 -0.00000000000E+00 -0.00000000000E+00 -0.64999999231E+04  0.65000000000E+04  0.10000000000E+01 0.  0.
    9000001    1    1    2    0    0  0.13635813941E+04  0.61336636546E+04  0.16639756471E+04  0.65000000000E+04  0.10000000000E+01 0.  0.
    9000001    1    1    2    0    0 -0.13635813941E+04 -0.61336636546E+04 -0.16639756471E+04  0.65000000000E+04  0.10000000000E+01 0.  0.
</event>
<event>
 4    1  0.2195261E-006  0.1300000E+05  0.7957747E-01  0.1322471E+00
    9000001   -1    0    0    0    0  0.00000000000E+00  0.00000000000E+00  0.64999999231E+04  0.65000000000E+04  0.10000000000E+01 0.  0.
    9000001   -1    0    0    0    0 -0.00000000000E+00 -0.00000000000E+00 -0.64999999231E+04  0.65000000000E+04  0.10000000000E+01 0.  0.
    9000001    1    1    2    0    0 -0.20695568601E+04  0.12539841873E+04 -0.60327818675E+04  0.65000000000E+04  0.10000000000E+01 0.  0.
    9000001    1    1    2    0    0  0.20695568601E+04 -0.12539841873E+04  0.60327818675E+04  0.65000000000E+04  0.10000000000E+01 0.  0.
</event>
<event>
 4    1  0.2195261E-006  0.1300000E+05  0.7957747E-01  0.1322471E+00
    9000001   -1    0    0    0    0  0.00000000000E+00  0.00000000000E+00  0.64999999231E+04  0.65000000000E+04  0.10000000000E+01 0.  0.
    9000001   -1    0    0    0    0 -0.00000000000E+00 -0.00000000000E+00 -0.64999999231E+04  0.65000000000E+04  0.10000000000E+01 0.  0.
    9000001    1    1    2    0    0 -0.92539199409E+03  0.41035214789E+04 -0.49552759893E+04  0.65000000000E+04  0.10000000000E+01 0.  0.
    9000001    1    1    2    0    0  0.92539199409E+03 -0.41035214789E+04  0.49552759893E+04  0.65000000000E+04  0.10000000000E+01 0.  0.
</event>
<event>
 4    1  0.2195261E-006  0.1300000E+05  0.7957747E-01  0.1322471E+00
    9000001   -1    0    0    0    0  0.00000000000E+00  0.00000000000E+00  0.64999999231E+04  0.65000000000E+04  0.10000000000E+01 0.  0.
    9000001   -1    0    0    0    0 -0.00000000000E+00 -0.00000000000E+00 -0.64999999231E+04  0.65000000000E+04  0.10000000000E+01 0.  0.
    9000001    1    1    2    0    0  0.17739578144E+04  0.45184906601E+04 -0.43227670337E+04  0.65000000000E+04  0.10000000000E+01 0.  0.
    9000001    1    1    2    0    0 -0.17739578144E+04 -0.45184906601E+04  0.43227670337E+04  0.65000000000E+04  0.10000000000E+01 0.  0.
</event>
<event>
 4    1  0.2195261E-006  0.1300000E+05  0.7957747E-01  0.1322471E+00
    9000001   -1    0    0    0    0  0.00000000000E+00  0.00000000000E+00  0.64999999231E+04  0.65000000000E+04  0.10000000000E+01 0.  0.
    9000001   -1    0    0    0    0 -0.00000000000E+00 -0.00000000000E+00 -0.64999999231E+04  0.65000000000E+04  0.10000000000E+01 0.  0.
    9000001    1    1    2    0    0  0.29899114179E+04  0.52988722253E+04  0.22874400217E+04  0.65000000000E+04  0.10000000000E+01 0.  0.
    9000001    1    1    2    0    0 -0.29899114179E+04 -0.52988722253E+04 -0.22874400217E+04  0.65000000000E+04  0.10000000000E+01 0.  0.
</event>
<event>
 4    1  0.2195261E-006  0.1300000E+05  0.7957747E-01  0.1322471E+00
    9000001   -1    0    0    0    0  0.00000000000E+00  0.00000000000E+00  0.64999999231E+04  0.65000000000E+04  0.10000000000E+01 0.  0.
    9000001   -1    0    0    0    0 -0.00000000000E+00 -0.00000000000E+00 -0.64999999231E+04  0.65000000000E+04  0.10000000000E+01 0.  0.
    9000001    1    1    2    0    0 -0.45365514363E+04 -0.43560524455E+04  0.16414954031E+04  0.65000000000E+04  0.10000000000E+01 0.  0.
    9000001    1    1    2    0    0  0.45365514363E+04  0.43560524455E+04 -0.16414954031E+04  0.65000000000E+04  0.10000000000E+01 0.  0.
</event>
<event>
 4    1  0.2195261E-006  0.1300000E+05  0.7957747E-01  0.1322471E+00
    9000001   -1    0    0    0    0  0.00000000000E+00  0.00000000000E+00  0.64999999231E+04  0.65000000000E+04  0.10000000000E+01 0.  0.
    9000001   -1    0    0    0    0 -0.00000000000E+00 -0.00000000000E+00 -0.64999999231E+04  0.65000000000E+04  0.10000000000E+01 0.  0.
    9000001    1    1    2    0    0  0.38199883624E+04  0.34779539065E+04 -0.39448098225E+04  0.65000000000E+04  0.10000000000E+01 0.  0.
    9000001    1    1    2    0    0 -0.38199883624E+04 -0.34779539065E+04  0.39448098225E+04  0.65000000000E+04  0.10000000000E+01 0.  0.
</event>
<event>
 4    1  0.2195261E-006  0.1300000E+05  0.7957747E-01  0.1322471E+00
    9000001   -1    0    0    0    0  0.00000000000E+00  0.00000000000E+00  0.64999999231E+04  0.65000000000E+04  0.10000000000E+01 0.  0.
    9000001   -1    0    0    0    0 -0.00000000000E+00 -0.00000000000E+00 -0.64999999231E+04  0.65000000000E+04  0.10000000000E+01 0.  0.
    9000001    1    1    2    0    0  0.36725250301E+04 -0.52578190721E+04 -0.10573067237E+04  0.65000000000E+04  0.10000000000E+01 0.  0.
    9000001    1    1    2    0    0 -0.36725250301E+04  0.52578190721E+04  0.10573067237E+04  0.65000000000E+04  0.10000000000E+01 0.  0.
</event>
<event>
 4    1  0.2195261E-006  0.1300000E+05  0.7957747E-01  0.1322471E+00
    9000001   -1    0    0    0    0  0.00000000000E+00  0.00000000000E+00  0.64999999231E+04  0.65000000000E+04  0.10000000000E+01 0.  0.
    9000001   -1    0    0    0    0 -0.00000000000E+00 -0.00000000000E+00 -0.64999999231E+04  0.65000000000E+04  0.10000000000E+01 0.  0.
    9000001    1    1    2    0    0  0.31256209788E+04  0.23523984894E+04  0.51910224276E+04  0.65000000000E+04  0.10000000000E+01 0.  0.
    9000001    1    1    2    0    0 -0.31256209788E+04 -0.23523984894E+04 -0.51910224276E+04  0.65000000000E+04  0.10000000000E+01 0.  0.
</event>
<event>
 4    1  0.2195261E-006  0.1300000E+05  0.7957747E-01  0.1322471E+00
    9000001   -1    0    0    0    0  0.00000000000E+00  0.00000000000E+00  0.64999999231E+04  0.65000000000E+04  0.10000000000E+01 0.  0.
    9000001   -1    0    0    0    0 -0.00000000000E+00 -0.00000000000E+00 -0.64999999231E+04  0.65000000000E+04  0.10000000000E+01 0.  0.
    9000001    1    1    2    0    0  0.41945424987E+03  0.51157758281E+04 -0.39878433782E+04  0.65000000000E+04  0.10000000000E+01 0.  0.
    9000001    1    1    2    0    0 -0.41945424987E+03 -0.51157758281E+04  0.39878433782E+04  0.65000000000E+04  0.10000000000E+01 0.  0.
</event>
<event>
 4    1  0.2195261E-006  0.1300000E+05  0.7957747E-01  0.1322471E+00
    9000001   -1    0    0    0    0  0.00000000000E+00  0.00000000000E+00  0.64999999231E+04  0.65000000000E+04  0.10000000000E+01 0.  0.
    9000001   -1    0    0    0    0 -0.00000000000E+00 -0.00000000000E+00 -0.64999999231E+04  0.65000000000E+04  0.10000000000E+01 0.  0.
    9000001    1    1    2    0    0 -0.47455752058E+04 -0.39047444925E+04 -0.21171880914E+04  0.65000000000E+04  0.10000000000E+01 0.  0.
    9000001    1    1    2    0    0  0.47455752058E+04  0.39047444925E+04  0.21171880914E+04  0.65000000000E+04  0.10000000000E+01 0.  0.
</event>
<event>
 4    1  0.2195261E-006  0.1300000E+05  0.7957747E-01  0.1322471E+00
    9000001   -1    0    0    0    0  0.00000000000E+00  0.00000000000E+00  0.64999999231E+04  0.65000000000E+04  0.10000000000E+01 0.  0.
    9000001   -1    0    0    0    0 -0.00000000000E+00 -0.00000000000E+00 -0.64999999231E+04  0.65000000000E+04  0.10000000000E+01 0.  0.
    9000001    1    1    2    0    0  0.40755191843E+04  0.19110491586E+04  0.46891399522E+04  0.65000000000E+04  0.10000000000E+01 0.  0.
    9000001    1    1    2    0    0 -0.40755191843E+04 -0.19110491586E+04 -0.46891399522E+04  0.65000000000E+04  0.10000000000E+01 0.  0.
</event>
<event>
 4    1  0.2195261E-006  0.1300000E+05  0.7957747E-01  0.1322471E+00
    9000001   -1    0    0    0    0  0.00000000000E+00  0.00000000000E+00  0.64999999231E+04  0.65000000000E+04  0.10000000000E+01 0.  0.
    9000001   -1    0    0    0    0 -0.00000000000E+00 -0.00000000000E+00 -0.64999999231E+04  0.65000000000E+04  0.10000000000E+01 0.  0.
    9000001    1    1    2    0    0  0.34735090710E+03 -0.65857553741E+03 -0.64572149266E+04  0.65000000000E+04  0.10000000000E+01 0.  0.
    9000001    1    1    2    0    0 -0.34735090710E+03  0.65857553741E+03  0.64572149266E+04  0.65000000000E+04  0.10000000000E+01 0.  0.
</event>
<event>
 4    1  0.2195261E-006  0.1300000E+05  0.7957747E-01  0.1322471E+00
    9000001   -1    0    0    0    0  0.00000000000E+00  0.00000000000E+00  0.64999999231E+04  0.65000000000E+04  0.10000000000E+01 0.  0.
    9000001   -1    0    0    0    0 -0.00000000000E+00 -0.00000000000E+00 -0.64999999231E+04  0.65000000000E+04  0.10000000000E+01 0.  0.
    9000001    1    1    2    0    0  0.30812981203E+04  0.50907392260E+04 -0.26153345918E+04  0.65000000000E+04  0.10000000000E+01 0.  0.
    9000001    1    1    2    0    0 -0.30812981203E+04 -0.50907392260E+04  0.26153345918E+04  0.65000000000E+04  0.10000000000E+01 0.  0.
</event>
<event>
 4    1  0.2195261E-006  0.1300000E+05  0.7957747E-01  0.1322471E+00
    9000001   -1    0    0    0    0  0.00000000000E+00  0.00000000000E+00  0.64999999231E+04  0.65000000000E+04  0.10000000000E+01 0.  0.
    9000001   -1    0    0    0    0 -0.00000000000E+00 -0.00000000000E+00 -0.64999999231E+04  0.65000000000E+04  0.10000000000E+01 0.  0.
    9000001    1    1    2    0    0  0.47672261239E+04  0.10311675440E+04  0.42965390234E+04  0.65000000000E+04  0.10000000000E+01 0.  0.
    9000001    1    1    2    0    0 -0.47672261239E+04 -0.10311675440E+04 -0.42965390234E+04  0.65000000000E+04  0.10000000000E+01 0.  0.
</event>
<event>
 4    1  0.2195261E-006  0.1300000E+05  0.7957747E-01  0.1322471E+00
    9000001   -1    0    0    0    0  0.00000000000E+00  0.00000000000E+00  0.64999999231E+04  0.65000000000E+04  0.10000000000E+01 0.  0.
    9000001   -1    0    0    0    0 -0.00000000000E+00 -0.00000000000E+00 -0.64999999231E+04  0.65000000000E+04  0.10000000000E+01 0.  0.
    9000001    1    1    2    0    0  0.83862476122E+03 -0.16090176812E+04  0.62416159455E+04  0.65000000000E+04  0.10000000000E+01 0.  0.
    9000001    1    1    2    0    0 -0.83862476122E+03  0.16090176812E+04 -0.62416159455E+04  0.65000000000E+04  0.10000000000E+01 0.  0.
</event>
<event>
 4    1  0.2195261E-006  0.1300000E+05  0.7957747E-01  0.1322471E+00
    9000001   -1    0    0    0    0  0.00000000000E+00  0.00000000000E+00  0.64999999231E+04  0.65000000000E+04  0.10000000000E+01 0.  0.
    9000001   -1    0    0    0    0 -0.00000000000E+00 -0.00000000000E+00 -0.64999999231E+04  0.65000000000E+04  0.10000000000E+01 0.  0.
    9000001    1    1    2    0    0 -0.53061318036E+04 -0.33322694177E+04  0.17294348239E+04  0.65000000000E+04  0.10000000000E+01 0.  0.
    9000001    1    1    2    0    0  0.53061318036E+04  0.33322694177E+04 -0.17294348239E+04  0.65000000000E+04  0.10000000000E+01 0.  0.
</event>
<event>
 4    1  0.2195261E-006  0.1300000E+05  0.7957747E-01  0.1322471E+00
    9000001   -1    0    0    0    0  0.00000000000E+00  0.00000000000E+00  0.64999999231E+04  0.65000000000E+04  0.10000000000E+01 0.  0.
    9000001   -1    0    0    0    0 -0.00000000000E+00 -0.00000000000E+00 -0.64999999231E+04  0.65000000000E+04  0.10000000000E+01 0.  0.
    9000001    1    1    2    0    0 -0.70644602227E+03  0.64070563731E+04  0.83699560911E+03  0.65000000000E+04  0.10000000000E+01 0.  0.
    9000001    1    1    2    0    0  0.70644602227E+03 -0.64070563731E+04 -0.83699560911E+03  0.65000000000E+04  0.10000000000E+01 0.  0.
</event>
<event>
 4    1  0.2195261E-006  0.1300000E+05  0.7957747E-01  0.1322471E+00
    9000001   -1    0    0    0    0  0.00000000000E+00  0.00000000000E+00  0.64999999231E+04  0.65000000000E+04  0.10000000000E+01 0.  0.
    9000001   -1    0    0    0    0 -0.00000000000E+00 -0.00000000000E+00 -0.64999999231E+04  0.65000000000E+04  0.10000000000E+01 0.  0.
    9000001    1    1    2    0    0  0.61376540705E+04  0.16760189400E+04 -0.13304743603E+04  0.65000000000E+04  0.10000000000E+01 0.  0.
    9000001    1    1    2    0    0 -0.61376540705E+04 -0.16760189400E+04  0.13304743603E+04  0.65000000000E+04  0.10000000000E+01 0.  0.
</event>
<event>
 4    1  0.2195261E-006  0.1300000E+05  0.7957747E-01  0.1322471E+00
    9000001   -1    0    0    0    0  0.00000000000E+00  0.00000000000E+00  0.64999999231E+04  0.65000000000E+04  0.10000000000E+01 0.  0.
    9000001   -1    0    0    0    0 -0.00000000000E+00 -0.00000000000E+00 -0.64999999231E+04  0.65000000000E+04  0.10000000000E+01 0.  0.
    9000001    1    1    2    0    0 -0.50419653984E+04  0.18921238134E+04 -0.36398422213E+04  0.65000000000E+04  0.10000000000E+01 0.  0.
    9000001    1    1    2    0    0  0.50419653984E+04 -0.18921238134E+04  0.36398422213E+04  0.65000000000E+04  0.10000000000E+01 0.  0.
</event>
<event>
 4    1  0.2195261E-006  0.1300000E+05  0.7957747E-01  0.1322471E+00
    9000001   -1    0    0    0    0  0.00000000000E+00  0.00000000000E+00  0.64999999231E+04  0.65000000000E+04  0.10000000000E+01 0.  0.
    9000001   -1    0    0    0    0 -0.00000000000E+00 -0.00000000000E+00 -0.64999999231E+04  0.65000000000E+04  0.10000000000E+01 0.  0.
    9000001    1    1    2    0    0  0.47451115997E+04 -0.29127649588E+04 -0.33540595106E+04  0.65000000000E+04  0.10000000000E+01 0.  0.
    9000001    1    1    2    0    0 -0.47451115997E+04  0.29127649588E+04  0.33540595106E+04  0.65000000000E+04  0.10000000000E+01 0.  0.
</event>
<event>
 4    1  0.2195261E-006  0.1300000E+05  0.7957747E-01  0.1322471E+00
    9000001   -1    0    0    0    0  0.00000000000E+00  0.00000000000E+00  0.64999999231E+04  0.65000000000E+04  0.10000000000E+01 0.  0.
    9000001   -1    0    0    0    0 -0.00000000000E+00 -0.00000000000E+00 -0.64999999231E+04  0.65000000000E+04  0.10000000000E+01 0.  0.
    9000001    1    1    2    0    0  0.61949307132E+04 -0.19589156805E+04  0.18836617379E+03  0.65000000000E+04  0.10000000000E+01 0.  0.
    9000001    1    1    2    0    0 -0.61949307132E+04  0.19589156805E+04 -0.18836617379E+03  0.65000000000E+04  0.10000000000E+01 0.  0.
</event>
<event>
 4    1  0.2195261E-006  0.1300000E+05  0.7957747E-01  0.1322471E+00
    9000001   -1    0    0    0    0  0.00000000000E+00  0.00000000000E+00  0.64999999231E+04  0.65000000000E+04  0.10000000000E+01 0.  0.
    9000001   -1    0    0    0    0 -0.00000000000E+00 -0.00000000000E+00 -0.64999999231E+04  0.65000000000E+04  0.10000000000E+01 0.  0.
    9000001    1    1    2    0    0  0.42484306098E+04 -0.41531224797E+04  0.26367423124E+04  0.65000000000E+04  0.10000000000E+01 0.  0.
    9000001    1    1    2    0    0 -0.42484306098E+04  0.41531224797E+04 -0.26367423124E+04  0.65000000000E+04  0.10000000000E+01 0.  0.
</event>
<event>
 4    1  0.2195261E-006  0.1300000E+05  0.7957747E-01  0.1322471E+00
    9000001   -1    0    0    0    0  0.00000000000E+00  0.00000000000E+00  0.64999999231E+04  0.65000000000E+04  0.10000000000E+01 0.  0.
    9000001   -1    0    0    0    0 -0.00000000000E+00 -0.00000000000E+00 -0.64999999231E+04  0.65000000000E+04  0.10000000000E+01 0.  0.
    9000001    1    1    2    0    0 -0.31414486307E+03  0.41835337124E+03  0.64789113639E+04  0.65000000000E+04  0.10000000000E+01 0.  0.
    9000001    1    1    2    0    0  0.31414486307E+03 -0.41835337124E+03 -0.64789113639E+04  0.65000000000E+04  0.10000000000E+01 0.  0.
</event>
<event>
 4    1  0.2195261E-006  0.1300000E+05  0.7957747E-01  0.1322471E+00
    9000001   -1    0    0    0    0  0.00000000000E+00  0.00000000000E+00  0.64999999231E+04  0.65000000000E+04  0.10000000000E+01 0.  0.
    9000001   -1    0    0    0    0 -0.00000000000E+00 -0.00000000000E+00 -0.64999999231E+04  0.65000000000E+04  0.10000000000E+01 0.  0.
    9000001    1    1    2    0    0  0.52267629883E+04  0.16910817894E+04 -0.34743618185E+04  0.65000000000E+04  0.10000000000E+01 0.  0.
    9000001    1    1    2    0    0 -0.52267629883E+04 -0.16910817894E+04  0.34743618185E+04  0.65000000000E+04  0.10000000000E+01 0.  0.
</event>
<event>
 4    1  0.2195261E-006  0.1300000E+05  0.7957747E-01  0.1322471E+00
    9000001   -1    0    0    0    0  0.00000000000E+00  0.00000000000E+00  0.64999999231E+04  0.65000000000E+04  0.10000000000E+01 0.  0.
    9000001   -1    0    0    0    0 -0.00000000000E+00 -0.00000000000E+00 -0.64999999231E+04  0.65000000000E+04  0.10000000000E+01 0.  0.
    9000001    1    1    2    0    0 -0.29738883670E+04  0.57538854703E+04 -0.54661593011E+03  0.65000000000E+04  0.10000000000E+01 0.  0.
    9000001    1    1    2    0    0  0.29738883670E+04 -0.57538854703E+04  0.54661593011E+03  0.65000000000E+04  0.10000000000E+01 0.  0.
</event>
<event>
 4    1  0.2195261E-006  0.1300000E+05  0.7957747E-01  0.1322471E+00
    9000001   -1    0    0    0    0  0.00000000000E+00  0.00000000000E+00  0.64999999231E+04  0.65000000000E+04  0.10000000000E+01 0.  0.
    9000001   -1    0    0    0    0 -0.00000000000E+00 -0.00000000000E+00 -0.64999999231E+04  0.65000000000E+04  0.10000000000E+01 0.  0.
    9000001    1    1    2    0    0 -0.97580409735E+03  0.12706321937E+04  0.62994681674E+04  0.65000000000E+04  0.10000000000E+01 0.  0.
    9000001    1    1    2    0    0  0.97580409735E+03 -0.12706321937E+04 -0.62994681674E+04  0.65000000000E+04  0.10000000000E+01 0.  0.
</event>
<event>
 4    1  0.2195261E-006  0.1300000E+05  0.7957747E-01  0.1322471E+00
    9000001   -1    0    0    0    0  0.00000000000E+00  0.00000000000E+00  0.64999999231E+04  0.65000000000E+04  0.10000000000E+01 0.  0.
    9000001   -1    0    0    0    0 -0.00000000000E+00 -0.00000000000E+00 -0.64999999231E+04  0.65000000000E+04  0.10000000000E+01 0.  0.
    9000001    1    1    2    0    0  0.62400799791E+04 -0.57035884946E+03  0.17280311448E+04  0.65000000000E+04  0.10000000000E+01 0.  0.
    9000001    1    1    2    0    0 -0.62400799791E+04  0.57035884946E+03 -0.17280311448E+04  0.65000000000E+04  0.10000000000E+01 0.  0.
</event>
<event>
 4    1  0.2195261E-006  0.1300000E+05  0.7957747E-01  0.1322471E+00
    9000001   -1    0    0    0    0  0.00000000000E+00  0.00000000000E+00  0.64999999231E+04  0.65000000000E+04  0.10000000000E+01 0.  0.
    9000001   -1    0    0    0    0 -0.00000000000E+00 -0.00000000000E+00 -0.64999999231E+04  0.65000000000E+04  0.10000000000E+01 0.  0.
    9000001    1    1    2    0    0 -0.11254529401E+04  0.15737207538E+04 -0.62053813476E+04  0.65000000000E+04  0.10000000000E+01 0.  0.
    9000001    1    1    2    0    0  0.11254529401E+04 -0.15737207538E+04  0.62053813476E+04  0.65000000000E+04  0.10000000000E+01 0.  0.
</event>
<event>
 4    1  0.2195261E-006  0.1300000E+05  0.7957747E-01  0.1322471E+00
    9000001   -1    0    0    0    0  0.00000000000E+00  0.00000000000E+00  0.64999999231E+04  0.65000000000E+04  0.10000000000E+01 0.  0.
    9000001   -1    0    0    0    0 -0.00000000000E+00 -0.00000000000E+00 -0.64999999231E+04  0.65000000000E+04  0.10000000000E+01 0.  0.
    9000001    1    1    2    0    0  0.53163637016E+04 -0.33670269556E+04  0.16276994417E+04  0.65000000000E+04  0.10000000000E+01 0.  0.
    9000001    1    1    2    0    0 -0.53163637016E+04  0.33670269556E+04 -0.16276994417E+04  0.65000000000E+04  0.10000000000E+01 0.  0.
</event>
<event>
 4    1  0.2195261E-006  0.1300000E+05  0.7957747E-01  0.1322471E+00
    9000001   -1    0    0    0    0  0.00000000000E+00  0.00000000000E+00  0.64999999231E+04  0.65000000000E+04  0.10000000000E+01 0.  0.
    9000001   -1    0    0    0    0 -0.00000000000E+00 -0.00000000000E+00 -0.64999999231E+04  0.65000000000E+04  0.10000000000E+01 0.  0.
    9000001    1    1    2    0    0  0.46848458018E+04  0.44191456831E+04 -0.87941471734E+03  0.65000000000E+04  0.10000000000E+01 0.  0.
    9000001    1    1    2    0    0 -0.46848458018E+04 -0.44191456831E+04  0.87941471734E+03  0.65000000000E+04  0.10000000000E+01 0.  0.
</event>
<event>
 4    1  0.2195261E-006  0.1300000E+05  0.7957747E-01  0.1322471E+00
    9000001   -1    0    0    0    0  0.00000000000E+00  0.00000000000E+00  0.64999999231E+04  0.65000000000E+04  0.10000000000E+01 0.  0.
    9000001   -1    0    0    0    0 -0.00000000000E+00 -0.00000000000E+00 -0.64999999231E+04  0.65000000000E+04  0.10000000000E+01 0.  0.
    9000001    1    1    2    0    0 -0.23636842467E+04  0.90063542095E+03  0.59876415741E+04  0.65000000000E+04  0.10000000000E+01 0.  0.
    9000001    1    1    2    0    0  0.23636842467E+04 -0.90063542095E+03 -0.59876415741E+04  0.65000000000E+04  0.10000000000E+01 0.  0.
</event>
<event>
 4    1  0.2195261E-006  0.1300000E+05  0.7957747E-01  0.1322471E+00
    9000001   -1    0    0    0    0  0.00000000000E+00  0.00000000000E+00  0.64999999231E+04  0.65000000000E+04  0.10000000000E+01 0.  0.
    9000001   -1    0    0    0    0 -0.00000000000E+00 -0.00000000000E+00 -0.64999999231E+04  0.65000000000E+04  0.10000000000E+01 0.  0.
    9000001    1    1    2    0    0  0.26712929792E+04  0.17458762356E+04  0.56626944990E+04  0.65000000000E+04  0.10000000000E+01 0.  0.
    9000001    1    1    2    0    0 -0.26712929792E+04 -0.17458762356E+04 -0.56626944990E+04  0.65000000000E+04  0.10000000000E+01 0.  0.
</event>
<event>
 4    1  0.2195261E-006  0.1300000E+05  0.7957747E-01  0.1322471E+00
    9000001   -1    0    0    0    0  0.00000000000E+00  0.00000000000E+00  0.64999999231E+04  0.65000000000E+04  0.10000000000E+01 0.  0.
    9000001   -1    0    0    0    0 -0.00000000000E+00 -0.00000000000E+00 -0.64999999231E+04  0.65000000000E+04  0.10000000000E+01 0.  0.
    9000001    1    1    2    0    0 -0.38147257504E+04  0.50052458255E+04 -0.16264626268E+04  0.65000000000E+04  0.10000000000E+01 0.  0.
    9000001    1    1    2    0    0  0.38147257504E+04 -0.50052458255E+04  0.16264626268E+04  0.65000000000E+04  0.10000000000E+01 0.  0.
</event>
<event>
 4    1  0.2195261E-006  0.1300000E+05  0.7957747E-01  0.1322471E+00
    9000001   -1    0    0    0    0  0.00000000000E+00  0.00000000000E+00  0.64999999231E+04  0.65000000000E+04  0.10000000000E+01 0.  0.
    9000001   -1    0    0    0    0 -0.00000000000E+00 -0.00000000000E+00 -0.64999999231E+04  0.65000000000E+04  0.10000000000E+01 0.  0.
    9000001    1    1    2    0    0  0.50164698422E+04 -0.61177522094E+03 -0.40878796951E+04  0.65000000000E+04  0.10000000000E+01 0.  0.
    9000001    1    1    2    0    0 -0.50164698422E+04  0.61177522094E+03  0.40878796951E+04  0.65000000000E+04  0.10000000000E+01 0.  0.
</event>
<event>
 4    1  0.2195261E-006  0.1300000E+05  0.7957747E-01  0.1322471E+00
    9000001   -1    0    0    0    0  0.00000000000E+00  0.00000000000E+00  0.64999999231E+04  0.65000000000E+04  0.10000000000E+01 0.  0.
    9000001   -1    0    0    0    0 -0.00000000000E+00 -0.00000000000E+00 -0.64999999231E+04  0.65000000000E+04  0.10000000000E+01 0.  0.
    9000001    1    1    2    0    0  0.46385028173E+04 -0.45233277110E+04 -0.52325618289E+03  0.65000000000E+04  0.10000000000E+01 0.  0.
    9000001    1    1    2    0    0 -0.46385028173E+04  0.45233277110E+04  0.52325618289E+03  0.65000000000E+04  0.10000000000E+01 0.  0.
</event>
<event>
 4    1  0.2195261E-006  0.1300000E+05  0.7957747E-01  0.1322471E+00
    9000001   -1    0    0    0    0  0.00000000000E+00  0.00000000000E+00  0.64999999231E+04  0.65000000000E+04  0.10000000000E+01 0.  0.
    9000001   -1    0    0    0    0 -0.00000000000E+00 -0.00000000000E+00 -0.64999999231E+04  0.65000000000E+04  0.10000000000E+01 0.  0.
    9000001    1    1    2    0    0  0.12938667214E+03  0.46847051785E+04 -0.45040865311E+04  0.65000000000E+04  0.10000000000E+01 0.  0.
    9000001    1    1    2    0    0 -0.12938667214E+03 -0.46847051785E+04  0.45040865311E+04  0.65000000000E+04  0.10000000000E+01 0.  0.
</event>
<event>
 4    1  0.2195261E-006  0.1300000E+05  0.7957747E-01  0.1322471E+00
    9000001   -1    0    0    0    0  0.00000000000E+00  0.00000000000E+00  0.64999999231E+04  0.65000000000E+04  0.10000000000E+01 0.  0.
    9000001   -1    0    0    0    0 -0.00000000000E+00 -0.00000000000E+00 -0.64999999231E+04  0.65000000000E+04  0.10000000000E+01 0.  0.
    9000001    1    1    2    0    0 -0.60478888747E+04 -0.17180795535E+04  0.16496186855E+04  0.65000000000E+04  0.10000000000E+01 0.  0.
    9000001    1    1    2    0    0  0.60478888747E+04  0.17180795535E+04 -0.16496186855E+04  0.65000000000E+04  0.10000000000E+01 0.  0.
</event>
<event>
 4    1  0.2195261E-006  0.1300000E+05  0.7957747E-01  0.1322471E+00
    9000001   -1    0    0    0    0  0.00000000000E+00  0.00000000000E+00  0.64999999231E+04  0.65000000000E+04  0.10000000000E+01 0.  0.
    9000001   -1    0    0    0    0 -0.00000000000E+00 -0.00000000000E+00 -0.64999999231E+04  0.65000000000E+04  0.10000000000E+01 0.  0.
    9000001    1    1    2    0    0 -0.53300849377E+04  0.18320629638E+04  0.32378602277E+04  0.65000000000E+04  0.10000000000E+01 0.  0.
    9000001    1    1    2    0    0  0.53300849377E+04 -0.18320629638E+04 -0.32378602277E+04  0.65000000000E+04  0.10000000000E+01 0.  0.
</event>
<event>
 4    1  0.2195261E-006  0.1300000E+05  0.7957747E-01  0.1322471E+00
    9000001   -1    0    0    0    0  0.00000000000E+00  0.00000000000E+00  0.64999999231E+04  0.65000000000E+04  0.10000000000E+01 0.  0.
    9000001   -1    0    0    0    0 -0.00000000000E+00 -0.00000000000E+00 -0.64999999231E+04  0.65000000000E+04  0.10000000000E+01 0.  0.
    9000001    1    1    2    0    0  0.13414538716E+02  0.57087778814E+04  0.31080016331E+04  0.65000000000E+04  0.10000000000E+01 0.  0.
    9000001    1    1    2    0    0 -0.13414538716E+02 -0.57087778814E+04 -0.31080016331E+04  0.65000000000E+04  0.10000000000E+01 0.  0.
</event>
<event>
 4    1  0.2195261E-006  0.1300000E+05  0.7957747E-01  0.1322471E+00
    9000001   -1    0    0    0    0  0.00000000000E+00  0.00000000000E+00  0.64999999231E+04  0.65000000000E+04  0.10000000000E+01 0.  0.
    9000001   -1    0    0    0    0 -0.00000000000E+00 -0.00000000000E+00 -0.64999999231E+04  0.65000000000E+04  0.10000000000E+01 0.  0.
    9000001    1    1    2    0    0  0.39543801873E+04 -0.51555659239E+04  0.18170398406E+03  0.65000000000E+04  0.10000000000E+01 0.  0.
    9000001    1    1    2    0    0 -0.39543801873E+04  0.51555659239E+04 -0.18170398406E+03  0.65000000000E+04  0.10000000000E+01 0.  0.
</event>
<event>
 4    1  0.2195261E-006  0.1300000E+05  0.7957747E-01  0.1322471E+00
    9000001   -1    0    0    0    0  0.00000000000E+00  0.00000000000E+00  0.64999999231E+04  0.65000000000E+04  0.10000000000E+01 0.  0.
    9000001   -1    0    0    0    0 -0.00000000000E+00 -0.00000000000E+00 -0.64999999231E+04  0.65000000000E+04  0.10000000000E+01 0.  0.
    9000001    1    1    2    0    0 -0.50111206905E+04 -0.33153259870E+04 -0.24793712963E+04  0.65000000000E+04  0.10000000000E+01 0.  0.
    9000001    1    1    2    0    0  0.50111206905E+04  0.33153259870E+04  0.24793712963E+04  0.65000000000E+04  0.10000000000E+01 0.  0.
</event>
<event>
 4    1  0.2195261E-006  0.1300000E+05  0.7957747E-01  0.1322471E+00
    9000001   -1    0    0    0    0  0.00000000000E+00  0.00000000000E+00  0.64999999231E+04  0.65000000000E+04  0.10000000000E+01 0.  0.
    9000001   -1    0    0    0    0 -0.00000000000E+00 -0.00000000000E+00 -0.64999999231E+04  0.65000000000E+04  0.10000000000E+01 0.  0.
    9000001    1    1    2    0    0 -0.55760868414E+04  0.11245122164E+04 -0.31452705467E+04  0.65000000000E+04  0.10000000000E+01 0.  0.
    9000001    1    1    2    0    0  0.55760868414E+04 -0.11245122164E+04  0.31452705467E+04  0.65000000000E+04  0.10000000000E+01 0.  0.
</event>
<event>
 4    1  0.2195261E-006  0.1300000E+05  0.7957747E-01  0.1322471E+00
    9000001   -1    0    0    0    0  0.00000000000E+00  0.00000000000E+00  0.64999999231E+04  0.65000000000E+04  0.10000000000E+01 0.  0.
    9000001   -1    0    0    0    0 -0.00000000000E+00 -0.00000000000E+00 -0.64999999231E+04  0.65000000000E+04  0.10000000000E+01 0.  0.
    9000001    1    1    2    0    0 -0.59246823316E+03  0.93000824152E+03 -0.64057837197E+04  0.65000000000E+04  0.10000000000E+01 0.  0.
    9000001    1    1    2    0    0  0.59246823316E+03 -0.93000824152E+03  0.64057837197E+04  0.65000000000E+04  0.10000000000E+01 0.  0.
</event>
<event>
 4    1  0.2195261E-006  0.1300000E+05  0.7957747E-01  0.1322471E+00
    9000001   -1    0    0    0    0  0.00000000000E+00  0.00000000000E+00  0.64999999231E+04  0.65000000000E+04  0.10000000000E+01 0.  0.
    9000001   -1    0    0    0    0 -0.00000000000E+00 -0.00000000000E+00 -0.64999999231E+04  0.65000000000E+04  0.10000000000E+01 0.  0.
    9000001    1    1    2    0    0 -0.38739431396E+04  0.37830967083E+03  0.52057127604E+04  0.65000000000E+04  0.10000000000E+01 0.  0.
    9000001    1    1    2    0    0  0.38739431396E+04 -0.37830967083E+03 -0.52057127604E+04  0.65000000000E+04  0.10000000000E+01 0.  0.
</event>
<event>
 4    1  0.2195261E-006  0.1300000E+05  0.7957747E-01  0.1322471E+00
    9000001   -1    0    0    0    0  0.00000000000E+00  0.00000000000E+00  0.64999999231E+04  0.65000000000E+04  0.10000000000E+01 0.  0.
    9000001   -1    0    0    0    0 -0.00000000000E+00 -0.00000000000E+00 -0.64999999231E+04  0.65000000000E+04  0.10000000000E+01 0.  0.
    9000001    1    1    2    0    0 -0.58087595644E+04  0.98893241922E+03 -0.27441435810E+04  0.65000000000E+04  0.10000000000E+01 0.  0.
    9000001    1    1    2    0    0  0.58087595644E+04 -0.98893241922E+03  0.27441435810E+04  0.65000000000E+04  0.10000000000E+01 0.  0.
</event>
<event>
 4    1  0.2195261E-006  0.1300000E+05  0.7957747E-01  0.1322471E+00
    9000001   -1    0    0    0    0  0.00000000000E+00  0.00000000000E+00  0.64999999231E+04  0.65000000000E+04  0.10000000000E+01 0.  0.
    9000001   -1    0    0    0    0 -0.00000000000E+00 -0.00000000000E+00 -0.64999999231E+04  0.65000000000E+04  0.10000000000E+01 0.  0.
    9000001    1    1    2    0    0 -0.35949365817E+04  0.53866783441E+04  0.55688992731E+03  0.65000000000E+04  0.10000000000E+01 0.  0.
    9000001    1    1    2    0    0  0.35949365817E+04 -0.53866783441E+04 -0.55688992731E+03  0.65000000000E+04  0.10000000000E+01 0.  0.
</event>
<event>
 4    1  0.2195261E-006  0.1300000E+05  0.7957747E-01  0.1322471E+00
    9000001   -1    0    0    0    0  0.00000000000E+00  0.00000000000E+00  0.64999999231E+04  0.65000000000E+04  0.10000000000E+01 0.  0.
    9000001   -1    0    0    0    0 -0.00000000000E+00 -0.00000000000E+00 -0.64999999231E+04  0.65000000000E+04  0.10000000000E+01 0.  0.
    9000001    1    1    2    0    0  0.41906096357E+04 -0.49151485546E+04 -0.72808280209E+03  0.65000000000E+04  0.10000000000E+01 0.  0.
    9000001    1    1    2    0    0 -0.41906096357E+04  0.49151485546E+04  0.72808280209E+03  0.65000000000E+04  0.10000000000E+01 0.  0.
</event>
<event>
 4    1  0.2195261E-006  0.1300000E+05  0.7957747E-01  0.1322471E+00
    9000001   -1    0    0    0    0  0.00000000000E+00  0.00000000000E+00  0.64999999231E+04  0.65000000000E+04  0.10000000000E+01 0.  0.
    9000001   -1    0    0    0    0 -0.00000000000E+00 -0.00000000000E+00 -0.64999999231E+04  0.65000000000E+04  0.10000000000E+01 0.  0.
    9000001    1    1    2    0    0  0.26201517613E+04 -0.37806015590E+03  0.59364866938E+04  0.65000000000E+04  0.10000000000E+01 0.  0.
    9000001    1    1    2    0    0 -0.26201517613E+04  0.37806015590E+03 -0.59364866938E+04  0.65000000000E+04  0.10000000000E+01 0.  0.
</event>
<event>
 4    1  0.2195261E-006  0.1300000E+05  0.7957747E-01  0.1322471E+00
    9000001   -1    0    0    0    0  0.00000000000E+00  0.00000000000E+00  0.64999999231E+04  0.65000000000E+04  0.10000000000E+01 0.  0.
    9000001   -1    0    0    0    0 -0.00000000000E+00 -0.00000000000E+00 -0.64999999231E+04  0.65000000000E+04  0.10000000000E+01 0.  0.
    9000001    1    1    2    0    0 -0.59250364399E+04 -0.23595457854E+04  0.12555818860E+04  0.65000000000E+04  0.10000000000E+01 0.  0.
    9000001    1    1    2    0    0  0.59250364399E+04  0.23595457854E+04 -0.12555818860E+04  0.65000000000E+04  0.10000000000E+01 0.  0.
</event>
<event>
 4    1  0.2195261E-006  0.1300000E+05  0.7957747E-01  0.1322471E+00
    9000001   -1    0    0    0    0  0.00000000000E+00  0.00000000000E+00  0.64999999231E+04  0.65000000000E+04  0.10000000000E+01 0.  0.
    9000001   -1    0    0    0    0 -0.00000000000E+00 -0.00000000000E+00 -0.64999999231E+04  0.65000000000E+04  0.10000000000E+01 0.  0.
    9000001    1    1    2    0    0  0.57634944752E+04 -0.12289616196E+04 -0.27425870582E+04  0.65000000000E+04  0.10000000000E+01 0.  0.
    9000001    1    1    2    0    0 -0.57634944752E+04  0.12289616196E+04  0.27425870582E+04  0.65000000000E+04  0.10000000000E+01 0.  0.
</event>
<event>
 4    1  0.2195261E-006  0.1300000E+05  0.7957747E-01  0.1322471E+00
    9000001   -1    0    0    0    0  0.00000000000E+00  0.00000000000E+00  0.64999999231E+04  0.65000000000E+04  0.10000000000E+01 0.  0.
    9000001   -1    0    0    0    0 -0.00000000000E+00 -0.00000000000E+00 -0.64999999231E+04  0.65000000000E+04  0.10000000000E+01 0.  0.
    9000001    1    1    2    0    0  0.14133807874E+04 -0.27780607037E+04  0.57039225518E+04  0.65000000000E+04  0.10000000000E+01 0.  0.
    9000001    1    1    2    0    0 -0.14133807874E+04  0.27780607037E+04 -0.57039225518E+04  0.65000000000E+04  0.10000000000E+01 0.  0.
</event>
<event>
 4    1  0.2195261E-006  0.1300000E+05  0.7957747E-01  0.1322471E+00
    9000001   -1    0    0    0    0  0.00000000000E+00  0.00000000000E+00  0.64999999231E+04  0.65000000000E+04  0.10000000000E+01 0.  0.
    9000001   -1    0    0    0    0 -0.00000000000E+00 -0.00000000000E+00 -0.64999999231E+04  0.65000000000E+04  0.10000000000E+01 0.  0.
    9000001    1    1    2    0    0 -0.64342394947E+04 -0.77688704780E+03  0.49699863138E+03  0.65000000000E+04  0.10000000000E+01 0.  0.
    9000001    1    1    2    0    0  0.64342394947E+04  0.77688704780E+03 -0.49699863138E+03  0.65000000000E+04  0.10000000000E+01 0.  0.
</event>
<event>
 4    1  0.2195261E-006  0.1300000E+05  0.7957747E-01  0.1322471E+00
    9000001   -1    0    0    0    0  0.00000000000E+00  0.00000000000E+00  0.64999999231E+04  0.65000000000E+04  0.10000000000E+01 0.  0.
    9000001   -1    0    0    0    0 -0.00000000000E+00 -0.00000000000E+00 -0.64999999231E+04  0.65000000000E+04  0.10000000000E+01 0.  0.
    9000001    1    1    2    0    0  0.13486210431E+04  0.38817717380E+04  0.50361759755E+04  0.65000000000E+04  0.10000000000E+01 0.  0.
    9000001    1    1    2    0    0 -0.13486210431E+04 -0.38817717380E+04 -0.50361759755E+04  0.65000000000E+04  0.10000000000E+01 0.  0.
</event>
<event>
 4    1  0.2195261E-006  0.1300000E+05  0.7957747E-01  0.1322471E+00
    9000001   -1    0    0    0    0  0.00000000000E+00  0.00000000000E+00  0.64999999231E+04  0.65000000000E+04  0.10000000000E+01 0.  0.
    9000001   -1    0    0    0    0 -0.00000000000E+00 -0.00000000000E+00 -0.64999999231E+04  0.65000000000E+04  0.10000000000E+01 0.  0.
    9000001    1    1    2    0    0 -0.16464850645E+04  0.62811862021E+04 -0.29289217541E+03  0.65000000000E+04  0.10000000000E+01 0.  0.
    9000001    1    1    2    0    0  0.16464850645E+04 -0.62811862021E+04  0.29289217541E+03  0.65000000000E+04  0.10000000000E+01 0.  0.
</event>
<event>
 4    1  0.2195261E-006  0.1300000E+05  0.7957747E-01  0.1322471E+00
    9000001   -1    0    0    0    0  0.00000000000E+00  0.00000000000E+00  0.64999999231E+04  0.65000000000E+04  0.10000000000E+01 0.  0.
    9000001   -1    0    0    0    0 -0.00000000000E+00 -0.00000000000E+00 -0.64999999231E+04  0.65000000000E+04  0.10000000000E+01 0.  0.
    9000001    1    1    2    0    0  0.36996031963E+04  0.37167676171E+04 -0.38403871771E+04  0.65000000000E+04  0.10000000000E+01 0.  0.
    9000001    1    1    2    0    0 -0.36996031963E+04 -0.37167676171E+04  0.38403871771E+04  0.65000000000E+04  0.10000000000E+01 0.  0.
</event>
<event>
 4    1  0.2195261E-006  0.1300000E+05  0.7957747E-01  0.1322471E+00
    9000001   -1    0    0    0    0  0.00000000000E+00  0.00000000000E+00  0.64999999231E+04  0.65000000000E+04  0.10000000000E+01 0.  0.
    9000001   -1    0    0    0    0 -0.00000000000E+00 -0.00000000000E+00 -0.64999999231E+04  0.65000000000E+04  0.10000000000E+01 0.  0.
    9000001    1    1    2    0    0 -0.16953097781E+04 -0.39738014506E+04  0.48564210884E+04  0.65000000000E+04  0.10000000000E+01 0.  0.
    9000001    1    1    2    0    0  0.16953097781E+04  0.39738014506E+04 -0.48564210884E+04  0.65000000000E+04  0.10000000000E+01 0.  0.
</event>
<event>
 4    1  0.2195261E-006  0.1300000E+05  0.7957747E-01  0.1322471E+00
    9000001   -1    0    0    0    0  0.00000000000E+00  0.00000000000E+00  0.64999999231E+04  0.65000000000E+04  0.10000000000E+01 0.  0.
    9000001   -1    0    0    0    0 -0.00000000000E+00 -0.00000000000E+00 -0.64999999231E+04  0.65000000000E+04  0.10000000000E+01 0.  0.
    9000001    1    1    2    0    0 -0.42379037982E+04 -0.17348349912E+04  0.46130811775E+04  0.65000000000E+04  0.10000000000E+01 0.  0.
    9000001    1    1    2    0    0  0.42379037982E+04  0.17348349912E+04 -0.46130811775E+04  0.65000000000E+04  0.10000000000E+01 0.  0.
</event>
<event>
 4    1  0.2195261E-006  0.1300000E+05  0.7957747E-01  0.1322471E+00
    9000001   -1    0    0    0    0  0.00000000000E+00  0.00000000000E+00  0.64999999231E+04  0.65000000000E+04  0.10000000000E+01 0.  0.
    9000001   -1    0    0    0    0 -0.00000000000E+00 -0.00000000000E+00 -0.64999999231E+04  0.65000000000E+04  0.10000000000E+01 0.  0.
    9000001    1    1    2    0    0 -0.22560099799E+04 -0.55014046007E+04  0.26258266107E+04  0.65000000000E+04  0.10000000000E+01 0.  0.
    9000001    1    1    2    0    0  0.22560099799E+04  0.55014046007E+04 -0.26258266107E+04  0.65000000000E+04  0.10000000000E+01 0.  0.
</event>
<event>
 4    1  0.2195261E-006  0.1300000E+05  0.7957747E-01  0.1322471E+00
    9000001   -1    0    0    0    0  0.00000000000E+00  0.00000000000E+00  0.64999999231E+04  0.65000000000E+04  0.10000000000E+01 0.  0.
    9000001   -1    0    0    0    0 -0.00000000000E+00 -0.00000000000E+00 -0.64999999231E+04  0.65000000000E+04  0.10000000000E+01 0.  0.
    9000001    1    1    2    0    0 -0.35213603397E+04 -0.32461768348E+04 -0.43945826099E+04  0.65000000000E+04  0.10000000000E+01 0.  0.
    9000001    1    1    2    0    0  0.35213603397E+04  0.32461768348E+04  0.43945826099E+04  0.65000000000E+04  0.10000000000E+01 0.  0.
</event>
<event>
 4    1  0.2195261E-006  0.1300000E+05  0.7957747E-01  0.1322471E+00
    9000001   -1    0    0    0    0  0.00000000000E+00  0.00000000000E+00  0.64999999231E+04  0.65000000000E+04  0.10000000000E+01 0.  0.
    9000001   -1    0    0    0    0 -0.00000000000E+00 -0.00000000000E+00 -0.64999999231E+04  0.65000000000E+04  0.10000000000E+01 0.  0.
    9000001    1    1    2    0    0 -0.48329693008E+04  0.74314001057E+03 -0.42825400946E+04  0.65000000000E+04  0.10000000000E+01 0.  0.
    9000001    1    1    2    0    0  0.48329693008E+04 -0.74314001057E+03  0.42825400946E+04  0.65000000000E+04  0.10000000000E+01 0.  0.
</event>
<event>
 4    1  0.2195261E-006  0.1300000E+05  0.7957747E-01  0.1322471E+00
    9000001   -1    0    0    0    0  0.00000000000E+00  0.00000000000E+00  0.64999999231E+04  0.65000000000E+04  0.10000000000E+01 0.  0.
    9000001   -1    0    0    0    0 -0.00000000000E+00 -0.00000000000E+00 -0.64999999231E+04  0.65000000000E+04  0.10000000000E+01 0.  0.
    9000001    1    1    2    0    0 -0.84988573350E+03  0.69304515534E+03  0.64068230546E+04  0.65000000000E+04  0.10000000000E+01 0.  0.
    9000001    1    1    2    0    0  0.84988573350E+03 -0.69304515534E+03 -0.64068230546E+04  0.65000000000E+04  0.10000000000E+01 0.  0.
</event>
<event>
 4    1  0.2195261E-006  0.1300000E+05  0.7957747E-01  0.1322471E+00
    9000001   -1    0    0    0    0  0.00000000000E+00  0.00000000000E+00  0.64999999231E+04  0.65000000000E+04  0.10000000000E+01 0.  0.
    9000001   -1    0    0    0    0 -0.00000000000E+00 -0.00000000000E+00 -0.64999999231E+04  0.65000000000E+04  0.10000000000E+01 0.  0.
    9000001    1    1    2    0    0 -0.47562183803E+04  0.43282101046E+04  0.94603541665E+03  0.65000000000E+04  0.10000000000E+01 0.  0.
    9000001    1    1    2    0    0  0.47562183803E+04 -0.43282101046E+04 -0.94603541665E+03  0.65000000000E+04  0.10000000000E+01 0.  0.
</event>
<event>
 4    1  0.2195261E-006  0.1300000E+05  0.7957747E-01  0.1322471E+00
    9000001   -1    0    0    0    0  0.00000000000E+00  0.00000000000E+00  0.64999999231E+04  0.65000000000E+04  0.10000000000E+01 0.  0.
    9000001   -1    0    0    0    0 -0.00000000000E+00 -0.00000000000E+00 -0.64999999231E+04  0.65000000000E+04  0.10000000000E+01 0.  0.
    9000001    1    1    2    0    0 -0.50601692097E+04 -0.35088796982E+04  0.20814537787E+04  0.65000000000E+04  0.10000000000E+01 0.  0.
    9000001    1    1    2    0    0  0.50601692097E+04  0.35088796982E+04 -0.20814537787E+04  0.65000000000E+04  0.10000000000E+01 0.  0.
</event>
<event>
 4    1  0.2195261E-006  0.1300000E+05  0.7957747E-01  0.1322471E+00
    9000001   -1    0    0    0    0  0.00000000000E+00  0.00000000000E+00  0.64999999231E+04  0.65000000000E+04  0.10000000000E+01 0.  0.
    9000001   -1    0    0    0    0 -0.00000000000E+00 -0.00000000000E+00 -0.64999999231E+04  0.65000000000E+04  0.10000000000E+01 0.  0.
    9000001    1    1    2    0    0 -0.12940709149E+04 -0.35113910126E+04  0.53146507528E+04  0.65000000000E+04  0.10000000000E+01 0.  0.
    9000001    1    1    2    0    0  0.12940709149E+04  0.35113910126E+04 -0.53146507528E+04  0.65000000000E+04  0.10000000000E+01 0.  0.
</event>
<event>
 4    1  0.2195261E-006  0.1300000E+05  0.7957747E-01  0.1322471E+00
    9000001   -1    0    0    0    0  0.00000000000E+00  0.00000000000E+00  0.64999999231E+04  0.65000000000E+04  0.10000000000E+01 0.  0.
    9000001   -1    0    0    0    0 -0.00000000000E+00 -0.00000000000E+00 -0.64999999231E+04  0.65000000000E+04  0.10000000000E+01 0.  0.
    9000001    1    1    2    0    0  0.46531166958E+03  0.31286004596E+04  0.56784983239E+04  0.65000000000E+04  0.10000000000E+01 0.  0.
    9000001    1    1    2    0    0 -0.46531166958E+03 -0.31286004596E+04 -0.56784983239E+04  0.65000000000E+04  0.10000000000E+01 0.  0.
</event>
<event>
 4    1  0.2195261E-006  0.1300000E+05  0.7957747E-01  0.1322471E+00
    9000001   -1    0    0    0    0  0.00000000000E+00  0.00000000000E+00  0.64999999231E+04  0.65000000000E+04  0.10000000000E+01 0.  0.
    9000001   -1    0    0    0    0 -0.00000000000E+00 -0.00000000000E+00 -0.64999999231E+04  0.65000000000E+04  0.10000000000E+01 0.  0.
    9000001    1    1    2    0    0  0.62392764927E+04 -0.17685607798E+04  0.44002342584E+03  0.65000000000E+04  0.10000000000E+01 0.  0.
    9000001    1    1    2    0    0 -0.62392764927E+04  0.17685607798E+04 -0.44002342584E+03  0.65000000000E+04  0.10000000000E+01 0.  0.
</event>
<event>
 4    1  0.2195261E-006  0.1300000E+05  0.7957747E-01  0.1322471E+00
    9000001   -1    0    0    0    0  0.00000000000E+00  0.00000000000E+00  0.64999999231E+04  0.65000000000E+04  0.10000000000E+01 0.  0.
    9000001   -1    0    0    0    0 -0.00000000000E+00 -0.00000000000E+00 -0.64999999231E+04  0.65000000000E+04  0.10000000000E+01 0.  0.
    9000001    1    1    2    0    0  0.49527339538E+04  0.31325930922E+04  0.28119896696E+04  0.65000000000E+04  0.10000000000E+01 0.  0.
    9000001    1    1    2    0    0 -0.49527339538E+04 -0.31325930922E+04 -0.28119896696E+04  0.65000000000E+04  0.10000000000E+01 0.  0.
</event>
<event>
 4    1  0.2195261E-006  0.1300000E+05  0.7957747E-01  0.1322471E+00
    9000001   -1    0    0    0    0  0.00000000000E+00  0.00000000000E+00  0.64999999231E+04  0.65000000000E+04  0.10000000000E+01 0.  0.
    9000001   -1    0    0    0    0 -0.00000000000E+00 -0.00000000000E+00 -0.64999999231E+04  0.65000000000E+04  0.10000000000E+01 0.  0.
    9000001    1    1    2    0    0  0.44616162951E+04  0.82800414253E+03 -0.46538573436E+04  0.65000000000E+04  0.10000000000E+01 0.  0.
    9000001    1    1    2    0    0 -0.44616162951E+04 -0.82800414253E+03  0.46538573436E+04  0.65000000000E+04  0.10000000000E+01 0.  0.
</event>
<event>
 4    1  0.2195261E-006  0.1300000E+05  0.7957747E-01  0.1322471E+00
    9000001   -1    0    0    0    0  0.00000000000E+00  0.00000000000E+00  0.64999999231E+04  0.65000000000E+04  0.10000000000E+01 0.  0.
    9000001   -1    0    0    0    0 -0.00000000000E+00 -0.00000000000E+00 -0.64999999231E+04  0.65000000000E+04  0.10000000000E+01 0.  0.
    9000001    1    1    2    0    0  0.51920962430E+04  0.77724518830E+03 -0.38324959910E+04  0.65000000000E+04  0.10000000000E+01 0.  0.
    9000001    1    1    2    0    0 -0.51920962430E+04 -0.77724518830E+03  0.38324959910E+04  0.65000000000E+04  0.10000000000E+01 0.  0.
</event>
<event>
 4    1  0.2195261E-006  0.1300000E+05  0.7957747E-01  0.1322471E+00
    9000001   -1    0    0    0    0  0.00000000000E+00  0.00000000000E+00  0.64999999231E+04  0.65000000000E+04  0.10000000000E+01 0.  0.
    9000001   -1    0    0    0    0 -0.00000000000E+00 -0.00000000000E+00 -0.64999999231E+04  0.65000000000E+04  0.10000000000E+01 0.  0.
    9000001    1    1    2    0    0  0.30127754327E+04 -0.50211916826E+04  0.28214920307E+04  0.65000000000E+04  0.10000000000E+01 0.  0.
    9000001    1    1    2    0    0 -0.30127754327E+04  0.50211916826E+04 -0.28214920307E+04  0.65000000000E+04  0.10000000000E+01 0.  0.
</event>
<event>
 4    1  0.2195261E-006  0.1300000E+05  0.7957747E-01  0.1322471E+00
    9000001   -1    0    0    0    0  0.00000000000E+00  0.00000000000E+00  0.64999999231E+04  0.65000000000E+04  0.10000000000E+01 0.  0.
    9000001   -1    0    0    0    0 -0.00000000000E+00 -0.00000000000E+00 -0.64999999231E+04  0.65000000000E+04  0.10000000000E+01 0.  0.
    9000001    1    1    2    0    0  0.23814067840E+04  0.35271695866E+04 -0.49130413632E+04  0.65000000000E+04  0.10000000000E+01 0.  0.
    9000001    1    1    2    0    0 -0.23814067840E+04 -0.35271695866E+04  0.49130413632E+04  0.65000000000E+04  0.10000000000E+01 0.  0.
</event>
<event>
 4    1  0.2195261E-006  0.1300000E+05  0.7957747E-01  0.1322471E+00
    9000001   -1    0    0    0    0  0.00000000000E+00  0.00000000000E+00  0.64999999231E+04  0.65000000000E+04  0.10000000000E+01 0.  0.
    9000001   -1    0    0    0    0 -0.00000000000E+00 -0.00000000000E+00 -0.64999999231E+04  0.65000000000E+04  0.10000000000E+01 0.  0.
    9000001    1    1    2    0    0 -0.18931189880E+04 -0.55897449271E+04  0.27241239228E+04  0.65000000000E+04  0.10000000000E+01 0.  0.
    9000001    1    1    2    0    0  0.18931189880E+04  0.55897449271E+04 -0.27241239228E+04  0.65000000000E+04  0.10000000000E+01 0.  0.
</event>
<event>
 4    1  0.2195261E-006  0.1300000E+05  0.7957747E-01  0.1322471E+00
    9000001   -1    0    0    0    0  0.00000000000E+00  0.00000000000E+00  0.64999999231E+04  0.65000000000E+04  0.10000000000E+01 0.  0.
    9000001   -1    0    0    0    0 -0.00000000000E+00 -0.00000000000E+00 -0.64999999231E+04  0.65000000000E+04  0.10000000000E+01 0.  0.
    9000001    1    1    2    0    0  0.24543040984E+04  0.12686962426E+04  0.58836043576E+04  0.65000000000E+04  0.10000000000E+01 0.  0.
    9000001    1    1    2    0    0 -0.24543040984E+04 -0.12686962426E+04 -0.58836043576E+04  0.65000000000E+04  0.10000000000E+01 0.  0.
</event>
<event>
 4    1  0.2195261E-006  0.1300000E+05  0.7957747E-01  0.1322471E+00
    9000001   -1    0    0    0    0  0.00000000000E+00  0.00000000000E+00  0.64999999231E+04  0.65000000000E+04  0.10000000000E+01 0.  0.
    9000001   -1    0    0    0    0 -0.00000000000E+00 -0.00000000000E+00 -0.64999999231E+04  0.65000000000E+04  0.10000000000E+01 0.  0.
    9000001    1    1    2    0    0 -0.46956222322E+04  0.24926110339E+04  0.37400562945E+04  0.65000000000E+04  0.10000000000E+01 0.  0.
    9000001    1    1    2    0    0  0.46956222322E+04 -0.24926110339E+04 -0.37400562945E+04  0.65000000000E+04  0.10000000000E+01 0.  0.
</event>
<event>
 4    1  0.2195261E-006  0.1300000E+05  0.7957747E-01  0.1322471E+00
    9000001   -1    0    0    0    0  0.00000000000E+00  0.00000000000E+00  0.64999999231E+04  0.65000000000E+04  0.10000000000E+01 0.  0.
    9000001   -1    0    0    0    0 -0.00000000000E+00 -0.00000000000E+00 -0.64999999231E+04  0.65000000000E+04  0.10000000000E+01 0.  0.
    9000001    1    1    2    0    0  0.47267796957E+03  0.64677296096E+04 -0.44164265409E+03  0.65000000000E+04  0.10000000000E+01 0.  0.
    9000001    1    1    2    0    0 -0.47267796957E+03 -0.64677296096E+04  0.44164265409E+03  0.65000000000E+04  0.10000000000E+01 0.  0.
</event>
<event>
 4    1  0.2195261E-006  0.1300000E+05  0.7957747E-01  0.1322471E+00
    9000001   -1    0    0    0    0  0.00000000000E+00  0.00000000000E+00  0.64999999231E+04  0.65000000000E+04  0.10000000000E+01 0.  0.
    9000001   -1    0    0    0    0 -0.00000000000E+00 -0.00000000000E+00 -0.64999999231E+04  0.65000000000E+04  0.10000000000E+01 0.  0.
    9000001    1    1    2    0    0 -0.73783151619E+03 -0.63390705684E+04 -0.12336077102E+04  0.65000000000E+04  0.10000000000E+01 0.  0.
    9000001    1    1    2    0    0  0.73783151619E+03  0.63390705684E+04  0.12336077102E+04  0.65000000000E+04  0.10000000000E+01 0.  0.
</event>
<event>
 4    1  0.2195261E-006  0.1300000E+05  0.7957747E-01  0.1322471E+00
    9000001   -1    0    0    0    0  0.00000000000E+00  0.00000000000E+00  0.64999999231E+04  0.65000000000E+04  0.10000000000E+01 0.  0.
    9000001   -1    0    0    0    0 -0.00000000000E+00 -0.00000000000E+00 -0.64999999231E+04  0.65000000000E+04  0.10000000000E+01 0.  0.
    9000001    1    1    2    0    0  0.33621296360E+04 -0.11432642243E+04 -0.54441739708E+04  0.65000000000E+04  0.10000000000E+01 0.  0.
    9000001    1    1    2    0    0 -0.33621296360E+04  0.11432642243E+04  0.54441739708E+04  0.65000000000E+04  0.10000000000E+01 0.  0.
</event>
<event>
 4    1  0.2195261E-006  0.1300000E+05  0.7957747E-01  0.1322471E+00
    9000001   -1    0    0    0    0  0.00000000000E+00  0.00000000000E+00  0.64999999231E+04  0.65000000000E+04  0.10000000000E+01 0.  0.
    9000001   -1    0    0    0    0 -0.00000000000E+00 -0.00000000000E+00 -0.64999999231E+04  0.65000000000E+04  0.10000000000E+01 0.  0.
    9000001    1    1    2    0    0  0.50092381580E+04  0.39091311446E+04 -0.13697539086E+04  0.65000000000E+04  0.10000000000E+01 0.  0.
    9000001    1    1    2    0    0 -0.50092381580E+04 -0.39091311446E+04  0.13697539086E+04  0.65000000000E+04  0.10000000000E+01 0.  0.
</event>
<event>
 4    1  0.2195261E-006  0.1300000E+05  0.7957747E-01  0.1322471E+00
    9000001   -1    0    0    0    0  0.00000000000E+00  0.00000000000E+00  0.64999999231E+04  0.65000000000E+04  0.10000000000E+01 0.  0.
    9000001   -1    0    0    0    0 -0.00000000000E+00 -0.00000000000E+00 -0.64999999231E+04  0.65000000000E+04  0.10000000000E+01 0.  0.
    9000001    1    1    2    0    0  0.51112959263E+04  0.17190560602E+04 -0.36289804651E+04  0.65000000000E+04  0.10000000000E+01 0.  0.
    9000001    1    1    2    0    0 -0.51112959263E+04 -0.17190560602E+04  0.36289804651E+04  0.65000000000E+04  0.10000000000E+01 0.  0.
</event>
<event>
 4    1  0.2195261E-006  0.1300000E+05  0.7957747E-01  0.1322471E+00
    9000001   -1    0    0    0    0  0.00000000000E+00  0.00000000000E+00  0.64999999231E+04  0.65000000000E+04  0.10000000000E+01 0.  0.
    9000001   -1    0    0    0    0 -0.00000000000E+00 -0.00000000000E+00 -0.64999999231E+04  0.65000000000E+04  0.10000000000E+01 0.  0.
    9000001    1    1    2    0    0  0.36482254423E+04 -0.53772998962E+04 -0.15841700590E+03  0.65000000000E+04  0.10000000000E+01 0.  0.
    9000001    1    1    2    0    0 -0.36482254423E+04  0.53772998962E+04  0.15841700590E+03  0.65000000000E+04  0.10000000000E+01 0.  0.
</event>
<event>
 4    1  0.2195261E-006  0.1300000E+05  0.7957747E-01  0.1322471E+00
    9000001   -1    0    0    0    0  0.00000000000E+00  0.00000000000E+00  0.64999999231E+04  0.65000000000E+04  0.10000000000E+01 0.  0.
    9000001   -1    0    0    0    0 -0.00000000000E+00 -0.00000000000E+00 -0.64999999231E+04  0.65000000000E+04  0.10000000000E+01 0.  0.
    9000001    1    1    2    0    0 -0.39206436067E+03 -0.22721129225E+04  0.60773174513E+04  0.65000000000E+04  0.10000000000E+01 0.  0.
    9000001    1    1    2    0    0  0.39206436067E+03  0.22721129225E+04 -0.60773174513E+04  0.65000000000E+04  0.10000000000E+01 0.  0.
</event>
<event>
 4    1  0.2195261E-006  0.1300000E+05  0.7957747E-01  0.1322471E+00
    9000001   -1    0    0    0    0  0.00000000000E+00  0.00000000000E+00  0.64999999231E+04  0.65000000000E+04  0.10000000000E+01 0.  0.
    9000001   -1    0    0    0    0 -0.00000000000E+00 -0.00000000000E+00 -0.64999999231E+04  0.65000000000E+04  0.10000000000E+01 0.  0.
    9000001    1    1    2    0    0 -0.21102933467E+04 -0.32004743133E+04 -0.52491547092E+04  0.65000000000E+04  0.10000000000E+01 0.  0.
    9000001    1    1    2    0    0  0.21102933467E+04  0.32004743133E+04  0.52491547092E+04  0.65000000000E+04  0.10000000000E+01 0.  0.
</event>
<event>
 4    1  0.2195261E-006  0.1300000E+05  0.7957747E-01  0.1322471E+00
    9000001   -1    0    0    0    0  0.00000000000E+00  0.00000000000E+00  0.64999999231E+04  0.65000000000E+04  0.10000000000E+01 0.  0.
    9000001   -1    0    0    0    0 -0.00000000000E+00 -0.00000000000E+00 -0.64999999231E+04  0.65000000000E+04  0.10000000000E+01 0.  0.
    9000001    1    1    2    0    0 -0.43177481689E+03  0.53876122889E+03  0.64632272005E+04  0.65000000000E+04  0.10000000000E+01 0.  0.
    9000001    1    1    2    0    0  0.43177481689E+03 -0.53876122889E+03 -0.64632272005E+04  0.65000000000E+04  0.10000000000E+01 0.  0.
</event>
<event>
 4    1  0.2195261E-006  0.1300000E+05  0.7957747E-01  0.1322471E+00
    9000001   -1    0    0    0    0  0.00000000000E+00  0.00000000000E+00  0.64999999231E+04  0.65000000000E+04  0.10000000000E+01 0.  0.
    9000001   -1    0    0    0    0 -0.00000000000E+00 -0.00000000000E+00 -0.64999999231E+04  0.65000000000E+04  0.10000000000E+01 0.  0.
    9000001    1    1    2    0    0  0.37289656128E+04  0.36977462241E+04  0.38303377554E+04  0.65000000000E+04  0.10000000000E+01 0.  0.
    9000001    1    1    2    0    0 -0.37289656128E+04 -0.36977462241E+04 -0.38303377554E+04  0.65000000000E+04  0.10000000000E+01 0.  0.
</event>
<event>
 4    1  0.2195261E-006  0.1300000E+05  0.7957747E-01  0.1322471E+00
    9000001   -1    0    0    0    0  0.00000000000E+00  0.00000000000E+00  0.64999999231E+04  0.65000000000E+04  0.10000000000E+01 0.  0.
    9000001   -1    0    0    0    0 -0.00000000000E+00 -0.00000000000E+00 -0.64999999231E+04  0.65000000000E+04  0.10000000000E+01 0.  0.
    9000001    1    1    2    0    0  0.49297807836E+04  0.16808443152E+04  0.38887045162E+04  0.65000000000E+04  0.10000000000E+01 0.  0.
    9000001    1    1    2    0    0 -0.49297807836E+04 -0.16808443152E+04 -0.38887045162E+04  0.65000000000E+04  0.10000000000E+01 0.  0.
</event>
<event>
 4    1  0.2195261E-006  0.1300000E+05  0.7957747E-01  0.1322471E+00
    9000001   -1    0    0    0    0  0.00000000000E+00  0.00000000000E+00  0.64999999231E+04  0.65000000000E+04  0.10000000000E+01 0.  0.
    9000001   -1    0    0    0    0 -0.00000000000E+00 -0.00000000000E+00 -0.64999999231E+04  0.65000000000E+04  0.10000000000E+01 0.  0.
    9000001    1    1    2    0    0 -0.31936151450E+04 -0.72334917394E+03 -0.56149432124E+04  0.65000000000E+04  0.10000000000E+01 0.  0.
    9000001    1    1    2    0    0  0.31936151450E+04  0.72334917394E+03  0.56149432124E+04  0.65000000000E+04  0.10000000000E+01 0.  0.
</event>
<event>
 4    1  0.2195261E-006  0.1300000E+05  0.7957747E-01  0.1322471E+00
    9000001   -1    0    0    0    0  0.00000000000E+00  0.00000000000E+00  0.64999999231E+04  0.65000000000E+04  0.10000000000E+01 0.  0.
    9000001   -1    0    0    0    0 -0.00000000000E+00 -0.00000000000E+00 -0.64999999231E+04  0.65000000000E+04  0.10000000000E+01 0.  0.
    9000001    1    1    2    0    0 -0.40168246262E+04 -0.42867812265E+04 -0.27818385356E+04  0.65000000000E+04  0.10000000000E+01 0.  0.
    9000001    1    1    2    0    0  0.40168246262E+04  0.42867812265E+04  0.27818385356E+04  0.65000000000E+04  0.10000000000E+01 0.  0.
</event>
<event>
 4    1  0.2195261E-006  0.1300000E+05  0.7957747E-01  0.1322471E+00
    9000001   -1    0    0    0    0  0.00000000000E+00  0.00000000000E+00  0.64999999231E+04  0.65000000000E+04  0.10000000000E+01 0.  0.
    9000001   -1    0    0    0    0 -0.00000000000E+00 -0.00000000000E+00 -0.64999999231E+04  0.65000000000E+04  0.10000000000E+01 0.  0.
    9000001    1    1    2    0    0 -0.10621305258E+04 -0.20425687776E+04  0.60786339366E+04  0.65000000000E+04  0.10000000000E+01 0.  0.
    9000001    1    1    2    0    0  0.10621305258E+04  0.20425687776E+04 -0.60786339366E+04  0.65000000000E+04  0.10000000000E+01 0.  0.
</event>
<event>
 4    1  0.2195261E-006  0.1300000E+05  0.7957747E-01  0.1322471E+00
    9000001   -1    0    0    0    0  0.00000000000E+00  0.00000000000E+00  0.64999999231E+04  0.65000000000E+04  0.10000000000E+01 0.  0.
    9000001   -1    0    0    0    0 -0.00000000000E+00 -0.00000000000E+00 -0.64999999231E+04  0.65000000000E+04  0.10000000000E+01 0.  0.
    9000001    1    1    2    0    0 -0.53885729817E+04  0.22204411959E+03 -0.36282194848E+04  0.65000000000E+04  0.10000000000E+01 0.  0.
    9000001    1    1    2    0    0  0.53885729817E+04 -0.22204411959E+03  0.36282194848E+04  0.65000000000E+04  0.10000000000E+01 0.  0.
</event>
<event>
 4    1  0.2195261E-006  0.1300000E+05  0.7957747E-01  0.1322471E+00
    9000001   -1    0    0    0    0  0.00000000000E+00  0.00000000000E+00  0.64999999231E+04  0.65000000000E+04  0.10000000000E+01 0.  0.
    9000001   -1    0    0    0    0 -0.00000000000E+00 -0.00000000000E+00 -0.64999999231E+04  0.65000000000E+04  0.10000000000E+01 0.  0.
    9000001    1    1    2    0    0 -0.91604579410E+03  0.51039448466E+04  0.39192609132E+04  0.65000000000E+04  0.10000000000E+01 0.  0.
    9000001    1    1    2    0    0  0.91604579410E+03 -0.51039448466E+04 -0.39192609132E+04  0.65000000000E+04  0.10000000000E+01 0.  0.
</event>
<event>
 4    1  0.2195261E-006  0.1300000E+05  0.7957747E-01  0.1322471E+00
    9000001   -1    0    0    0    0  0.00000000000E+00  0.00000000000E+00  0.64999999231E+04  0.65000000000E+04  0.10000000000E+01 0.  0.
    9000001   -1    0    0    0    0 -0.00000000000E+00 -0.00000000000E+00 -0.64999999231E+04  0.65000000000E+04  0.10000000000E+01 0.  0.
    9000001    1    1    2    0    0  0.23451080226E+04  0.51475771872E+04 -0.32020175614E+04  0.65000000000E+04  0.10000000000E+01 0.  0.
    9000001    1    1    2    0    0 -0.23451080226E+04 -0.51475771872E+04  0.32020175614E+04  0.65000000000E+04  0.10000000000E+01 0.  0.
</event>
<event>
 4    1  0.2195261E-006  0.1300000E+05  0.7957747E-01  0.1322471E+00
    9000001   -1    0    0    0    0  0.00000000000E+00  0.00000000000E+00  0.64999999231E+04  0.65000000000E+04  0.10000000000E+01 0.  0.
    9000001   -1    0    0    0    0 -0.00000000000E+00 -0.00000000000E+00 -0.64999999231E+04  0.65000000000E+04  0.10000000000E+01 0.  0.
    9000001    1    1    2    0    0  0.11670324241E+04 -0.34990832685E+03  0.63847943181E+04  0.65000000000E+04  0.10000000000E+01 0.  0.
    9000001    1    1    2    0    0 -0.11670324241E+04  0.34990832685E+03 -0.63847943181E+04  0.65000000000E+04  0.10000000000E+01 0.  0.
</event>
<event>
 4    1  0.2195261E-006  0.1300000E+05  0.7957747E-01  0.1322471E+00
    9000001   -1    0    0    0    0  0.00000000000E+00  0.00000000000E+00  0.64999999231E+04  0.65000000000E+04  0.10000000000E+01 0.  0.
    9000001   -1    0    0    0    0 -0.00000000000E+00 -0.00000000000E+00 -0.64999999231E+04  0.65000000000E+04  0.10000000000E+01 0.  0.
    9000001    1    1    2    0    0 -0.64230785213E+04 -0.84282747002E+03  0.53263793035E+03  0.65000000000E+04  0.10000000000E+01 0.  0.
    9000001    1    1    2    0    0  0.64230785213E+04  0.84282747002E+03 -0.53263793035E+03  0.65000000000E+04  0.10000000000E+01 0.  0.
</event>
<event>
 4    1  0.2195261E-006  0.1300000E+05  0.7957747E-01  0.1322471E+00
    9000001   -1    0    0    0    0  0.00000000000E+00  0.00000000000E+00  0.64999999231E+04  0.65000000000E+04  0.10000000000E+01 0.  0.
    9000001   -1    0    0    0    0 -0.00000000000E+00 -0.00000000000E+00 -0.64999999231E+04  0.65000000000E+04  0.10000000000E+01 0.  0.
    9000001    1    1    2    0    0 -0.18668395219E+04 -0.55557351105E+04 -0.28104655453E+04  0.65000000000E+04  0.10000000000E+01 0.  0.
    9000001    1    1    2    0    0  0.18668395219E+04  0.55557351105E+04  0.28104655453E+04  0.65000000000E+04  0.10000000000E+01 0.  0.
</event>
<event>
 4    1  0.2195261E-006  0.1300000E+05  0.7957747E-01  0.1322471E+00
    9000001   -1    0    0    0    0  0.00000000000E+00  0.00000000000E+00  0.64999999231E+04  0.65000000000E+04  0.10000000000E+01 0.  0.
    9000001   -1    0    0    0    0 -0.00000000000E+00 -0.00000000000E+00 -0.64999999231E+04  0.65000000000E+04  0.10000000000E+01 0.  0.
    9000001    1    1    2    0    0 -0.45208225475E+04 -0.39338271376E+04 -0.25173729453E+04  0.65000000000E+04  0.10000000000E+01 0.  0.
    9000001    1    1    2    0    0  0.45208225475E+04  0.39338271376E+04  0.25173729453E+04  0.65000000000E+04  0.10000000000E+01 0.  0.
</event>
<event>
 4    1  0.2195261E-006  0.1300000E+05  0.7957747E-01  0.1322471E+00
    9000001   -1    0    0    0    0  0.00000000000E+00  0.00000000000E+00  0.64999999231E+04  0.65000000000E+04  0.10000000000E+01 0.  0.
    9000001   -1    0    0    0    0 -0.00000000000E+00 -0.00000000000E+00 -0.64999999231E+04  0.65000000000E+04  0.10000000000E+01 0.  0.
    9000001    1    1    2    0    0 -0.51102879257E+03  0.35159084027E+02 -0.64797849048E+04  0.65000000000E+04  0.10000000000E+01 0.  0.
    9000001    1    1    2    0    0  0.51102879257E+03 -0.35159084027E+02  0.64797849048E+04  0.65000000000E+04  0.10000000000E+01 0.  0.
</event>
<event>
 4    1  0.2195261E-006  0.1300000E+05  0.7957747E-01  0.1322471E+00
    9000001   -1    0    0    0    0  0.00000000000E+00  0.00000000000E+00  0.64999999231E+04  0.65000000000E+04  0.10000000000E+01 0.  0.
    9000001   -1    0    0    0    0 -0.00000000000E+00 -0.00000000000E+00 -0.64999999231E+04  0.65000000000E+04  0.10000000000E+01 0.  0.
    9000001    1    1    2    0    0  0.43501851861E+04  0.65129956684E+03  0.47855717235E+04  0.65000000000E+04  0.10000000000E+01 0.  0.
    9000001    1    1    2    0    0 -0.43501851861E+04 -0.65129956684E+03 -0.47855717235E+04  0.65000000000E+04  0.10000000000E+01 0.  0.
</event>
<event>
 4    1  0.2195261E-006  0.1300000E+05  0.7957747E-01  0.1322471E+00
    9000001   -1    0    0    0    0  0.00000000000E+00  0.00000000000E+00  0.64999999231E+04  0.65000000000E+04  0.10000000000E+01 0.  0.
    9000001   -1    0    0    0    0 -0.00000000000E+00 -0.00000000000E+00 -0.64999999231E+04  0.65000000000E+04  0.10000000000E+01 0.  0.
    9000001    1    1    2    0    0  0.42096821986E+04 -0.46289592472E+04 -0.17610539671E+04  0.65000000000E+04  0.10000000000E+01 0.  0.
    9000001    1    1    2    0    0 -0.42096821986E+04  0.46289592472E+04  0.17610539671E+04  0.65000000000E+04  0.10000000000E+01 0.  0.
</event>
<event>
 4    1  0.2195261E-006  0.1300000E+05  0.7957747E-01  0.1322471E+00
    9000001   -1    0    0    0    0  0.00000000000E+00  0.00000000000E+00  0.64999999231E+04  0.65000000000E+04  0.10000000000E+01 0.  0.
    9000001   -1    0    0    0    0 -0.00000000000E+00 -0.00000000000E+00 -0.64999999231E+04  0.65000000000E+04  0.10000000000E+01 0.  0.
    9000001    1    1    2    0    0  0.64908562064E+04 -0.29964664823E+03  0.17028386178E+03  0.65000000000E+04  0.10000000000E+01 0.  0.
    9000001    1    1    2    0    0 -0.64908562064E+04  0.29964664823E+03 -0.17028386178E+03  0.65000000000E+04  0.10000000000E+01 0.  0.
</event>
<event>
 4    1  0.2195261E-006  0.1300000E+05  0.7957747E-01  0.1322471E+00
    9000001   -1    0    0    0    0  0.00000000000E+00  0.00000000000E+00  0.64999999231E+04  0.65000000000E+04  0.10000000000E+01 0.  0.
    9000001   -1    0    0    0    0 -0.00000000000E+00 -0.00000000000E+00 -0.64999999231E+04  0.65000000000E+04  0.10000000000E+01 0.  0.
    9000001    1    1    2    0    0  0.61593713775E+04 -0.39055422736E+03  0.20395123510E+04  0.65000000000E+04  0.10000000000E+01 0.  0.
    9000001    1    1    2    0    0 -0.61593713775E+04  0.39055422736E+03 -0.20395123510E+04  0.65000000000E+04  0.10000000000E+01 0.  0.
</event>
<event>
 4    1  0.2195261E-006  0.1300000E+05  0.7957747E-01  0.1322471E+00
    9000001   -1    0    0    0    0  0.00000000000E+00  0.00000000000E+00  0.64999999231E+04  0.65000000000E+04  0.10000000000E+01 0.  0.
    9000001   -1    0    0    0    0 -0.00000000000E+00 -0.00000000000E+00 -0.64999999231E+04  0.65000000000E+04  0.10000000000E+01 0.  0.
    9000001    1    1    2    0    0 -0.39488941786E+04  0.46374685516E+04 -0.22693874060E+04  0.65000000000E+04  0.10000000000E+01 0.  0.
    9000001    1    1    2    0    0  0.39488941786E+04 -0.46374685516E+04  0.22693874060E+04  0.65000000000E+04  0.10000000000E+01 0.  0.
</event>
<event>
 4    1  0.2195261E-006  0.1300000E+05  0.7957747E-01  0.1322471E+00
    9000001   -1    0    0    0    0  0.00000000000E+00  0.00000000000E+00  0.64999999231E+04  0.65000000000E+04  0.10000000000E+01 0.  0.
    9000001   -1    0    0    0    0 -0.00000000000E+00 -0.00000000000E+00 -0.64999999231E+04  0.65000000000E+04  0.10000000000E+01 0.  0.
    9000001    1    1    2    0    0 -0.18852120231E+04  0.60809505820E+04 -0.13107305779E+04  0.65000000000E+04  0.10000000000E+01 0.  0.
    9000001    1    1    2    0    0  0.18852120231E+04 -0.60809505820E+04  0.13107305779E+04  0.65000000000E+04  0.10000000000E+01 0.  0.
</event>
<event>
 4    1  0.2195261E-006  0.1300000E+05  0.7957747E-01  0.1322471E+00
    9000001   -1    0    0    0    0  0.00000000000E+00  0.00000000000E+00  0.64999999231E+04  0.65000000000E+04  0.10000000000E+01 0.  0.
    9000001   -1    0    0    0    0 -0.00000000000E+00 -0.00000000000E+00 -0.64999999231E+04  0.65000000000E+04  0.10000000000E+01 0.  0.
    9000001    1    1    2    0    0 -0.14410509497E+04 -0.58216526688E+04  0.25063382383E+04  0.65000000000E+04  0.10000000000E+01 0.  0.
    9000001    1    1    2    0    0  0.14410509497E+04  0.58216526688E+04 -0.25063382383E+04  0.65000000000E+04  0.10000000000E+01 0.  0.
</event>
<event>
 4    1  0.2195261E-006  0.1300000E+05  0.7957747E-01  0.1322471E+00
    9000001   -1    0    0    0    0  0.00000000000E+00  0.00000000000E+00  0.64999999231E+04  0.65000000000E+04  0.10000000000E+01 0.  0.
    9000001   -1    0    0    0    0 -0.00000000000E+00 -0.00000000000E+00 -0.64999999231E+04  0.65000000000E+04  0.10000000000E+01 0.  0.
    9000001    1    1    2    0    0 -0.21958499887E+04  0.91816540414E+03 -0.60485712460E+04  0.65000000000E+04  0.10000000000E+01 0.  0.
    9000001    1    1    2    0    0  0.21958499887E+04 -0.91816540414E+03  0.60485712460E+04  0.65000000000E+04  0.10000000000E+01 0.  0.
</event>
<event>
 4    1  0.2195261E-006  0.1300000E+05  0.7957747E-01  0.1322471E+00
    9000001   -1    0    0    0    0  0.00000000000E+00  0.00000000000E+00  0.64999999231E+04  0.65000000000E+04  0.10000000000E+01 0.  0.
    9000001   -1    0    0    0    0 -0.00000000000E+00 -0.00000000000E+00 -0.64999999231E+04  0.65000000000E+04  0.10000000000E+01 0.  0.
    9000001    1    1    2    0    0 -0.32865096184E+04  0.34065090092E+02  0.56078242749E+04  0.65000000000E+04  0.10000000000E+01 0.  0.
    9000001    1    1    2    0    0  0.32865096184E+04 -0.34065090092E+02 -0.56078242749E+04  0.65000000000E+04  0.10000000000E+01 0.  0.
</event>
<event>
 4    1  0.2195261E-006  0.1300000E+05  0.7957747E-01  0.1322471E+00
    9000001   -1    0    0    0    0  0.00000000000E+00  0.00000000000E+00  0.64999999231E+04  0.65000000000E+04  0.10000000000E+01 0.  0.
    9000001   -1    0    0    0    0 -0.00000000000E+00 -0.00000000000E+00 -0.64999999231E+04  0.65000000000E+04  0.10000000000E+01 0.  0.
    9000001    1    1    2    0    0  0.34739873742E+04 -0.32307093222E+04  0.44434140027E+04  0.65000000000E+04  0.10000000000E+01 0.  0.
    9000001    1    1    2    0    0 -0.34739873742E+04  0.32307093222E+04 -0.44434140027E+04  0.65000000000E+04  0.10000000000E+01 0.  0.
</event>
<event>
 4    1  0.2195261E-006  0.1300000E+05  0.7957747E-01  0.1322471E+00
    9000001   -1    0    0    0    0  0.00000000000E+00  0.00000000000E+00  0.64999999231E+04  0.65000000000E+04  0.10000000000E+01 0.  0.
    9000001   -1    0    0    0    0 -0.00000000000E+00 -0.00000000000E+00 -0.64999999231E+04  0.65000000000E+04  0.10000000000E+01 0.  0.
    9000001    1    1    2    0    0 -0.46196717362E+04 -0.24427693922E+04 -0.38654249115E+04  0.65000000000E+04  0.10000000000E+01 0.  0.
    9000001    1    1    2    0    0  0.46196717362E+04  0.24427693922E+04  0.38654249115E+04  0.65000000000E+04  0.10000000000E+01 0.  0.
</event>
<event>
 4    1  0.2195261E-006  0.1300000E+05  0.7957747E-01  0.1322471E+00
    9000001   -1    0    0    0    0  0.00000000000E+00  0.00000000000E+00  0.64999999231E+04  0.65000000000E+04  0.10000000000E+01 0.  0.
    9000001   -1    0    0    0    0 -0.00000000000E+00 -0.00000000000E+00 -0.64999999231E+04  0.65000000000E+04  0.10000000000E+01 0.  0.
    9000001    1    1    2    0    0  0.30533173325E+04  0.49771957484E+04  0.28556566232E+04  0.65000000000E+04  0.10000000000E+01 0.  0.
    9000001    1    1    2    0    0 -0.30533173325E+04 -0.49771957484E+04 -0.28556566232E+04  0.65000000000E+04  0.10000000000E+01 0.  0.
</event>
<event>
 4    1  0.2195261E-006  0.1300000E+05  0.7957747E-01  0.1322471E+00
    9000001   -1    0    0    0    0  0.00000000000E+00  0.00000000000E+00  0.64999999231E+04  0.65000000000E+04  0.10000000000E+01 0.  0.
    9000001   -1    0    0    0    0 -0.00000000000E+00 -0.00000000000E+00 -0.64999999231E+04  0.65000000000E+04  0.10000000000E+01 0.  0.
    9000001    1    1    2    0    0 -0.56699862049E+04  0.30619436246E+04  0.85191353828E+03  0.65000000000E+04  0.10000000000E+01 0.  0.
    9000001    1    1    2    0    0  0.56699862049E+04 -0.30619436246E+04 -0.85191353828E+03  0.65000000000E+04  0.10000000000E+01 0.  0.
</event>
<event>
 4    1  0.2195261E-006  0.1300000E+05  0.7957747E-01  0.1322471E+00
    9000001   -1    0    0    0    0  0.00000000000E+00  0.00000000000E+00  0.64999999231E+04  0.65000000000E+04  0.10000000000E+01 0.  0.
    9000001   -1    0    0    0    0 -0.00000000000E+00 -0.00000000000E+00 -0.64999999231E+04  0.65000000000E+04  0.10000000000E+01 0.  0.
    9000001    1    1    2    0    0 -0.61707416648E+04  0.84369134338E+03 -0.18601427966E+04  0.65000000000E+04  0.10000000000E+01 0.  0.
    9000001    1    1    2    0    0  0.61707416648E+04 -0.84369134338E+03  0.18601427966E+04  0.65000000000E+04  0.10000000000E+01 0.  0.
</event>
<event>
 4    1  0.2195261E-006  0.1300000E+05  0.7957747E-01  0.1322471E+00
    9000001   -1    0    0    0    0  0.00000000000E+00  0.00000000000E+00  0.64999999231E+04  0.65000000000E+04  0.10000000000E+01 0.  0.
    9000001   -1    0    0    0    0 -0.00000000000E+00 -0.00000000000E+00 -0.64999999231E+04  0.65000000000E+04  0.10000000000E+01 0.  0.
    9000001    1    1    2    0    0 -0.59080101383E+04 -0.25339193706E+04  0.96159650017E+03  0.65000000000E+04  0.10000000000E+01 0.  0.
    9000001    1    1    2    0    0  0.59080101383E+04  0.25339193706E+04 -0.96159650017E+03  0.65000000000E+04  0.10000000000E+01 0.  0.
</event>
<event>
 4    1  0.2195261E-006  0.1300000E+05  0.7957747E-01  0.1322471E+00
    9000001   -1    0    0    0    0  0.00000000000E+00  0.00000000000E+00  0.64999999231E+04  0.65000000000E+04  0.10000000000E+01 0.  0.
    9000001   -1    0    0    0    0 -0.00000000000E+00 -0.00000000000E+00 -0.64999999231E+04  0.65000000000E+04  0.10000000000E+01 0.  0.
    9000001    1    1    2    0    0  0.32906412857E+04  0.10608367842E+04  0.55042078673E+04  0.65000000000E+04  0.10000000000E+01 0.  0.
    9000001    1    1    2    0    0 -0.32906412857E+04 -0.10608367842E+04 -0.55042078673E+04  0.65000000000E+04  0.10000000000E+01 0.  0.
</event>
<event>
 4    1  0.2195261E-006  0.1300000E+05  0.7957747E-01  0.1322471E+00
    9000001   -1    0    0    0    0  0.00000000000E+00  0.00000000000E+00  0.64999999231E+04  0.65000000000E+04  0.10000000000E+01 0.  0.
    9000001   -1    0    0    0    0 -0.00000000000E+00 -0.00000000000E+00 -0.64999999231E+04  0.65000000000E+04  0.10000000000E+01 0.  0.
    9000001    1    1    2    0    0 -0.22907525796E+04  0.20067624466E+04  0.57424172700E+04  0.65000000000E+04  0.10000000000E+01 0.  0.
    9000001    1    1    2    0    0  0.22907525796E+04 -0.20067624466E+04 -0.57424172700E+04  0.65000000000E+04  0.10000000000E+01 0.  0.
</event>
<event>
 4    1  0.2195261E-006  0.1300000E+05  0.7957747E-01  0.1322471E+00
    9000001   -1    0    0    0    0  0.00000000000E+00  0.00000000000E+00  0.64999999231E+04  0.65000000000E+04  0.10000000000E+01 0.  0.
    9000001   -1    0    0    0    0 -0.00000000000E+00 -0.00000000000E+00 -0.64999999231E+04  0.65000000000E+04  0.10000000000E+01 0.  0.
    9000001    1    1    2    0    0 -0.56476925306E+04 -0.27396992645E+04 -0.16874880800E+04  0.65000000000E+04  0.10000000000E+01 0.  0.
    9000001    1    1    2    0    0  0.56476925306E+04  0.27396992645E+04  0.16874880800E+04  0.65000000000E+04  0.10000000000E+01 0.  0.
</event>
<event>
 4    1  0.2195261E-006  0.1300000E+05  0.7957747E-01  0.1322471E+00
    9000001   -1    0    0    0    0  0.00000000000E+00  0.00000000000E+00  0.64999999231E+04  0.65000000000E+04  0.10000000000E+01 0.  0.
    9000001   -1    0    0    0    0 -0.00000000000E+00 -0.00000000000E+00 -0.64999999231E+04  0.65000000000E+04  0.10000000000E+01 0.  0.
    9000001    1    1    2    0    0 -0.14711330323E+04 -0.14783677475E+04 -0.61563134589E+04  0.65000000000E+04  0.10000000000E+01 0.  0.
    9000001    1    1    2    0    0  0.14711330323E+04  0.14783677475E+04  0.61563134589E+04  0.65000000000E+04  0.10000000000E+01 0.  0.
</event>
<event>
 4    1  0.2195261E-006  0.1300000E+05  0.7957747E-01  0.1322471E+00
    9000001   -1    0    0    0    0  0.00000000000E+00  0.00000000000E+00  0.64999999231E+04  0.65000000000E+04  0.10000000000E+01 0.  0.
    9000001   -1    0    0    0    0 -0.00000000000E+00 -0.00000000000E+00 -0.64999999231E+04  0.65000000000E+04  0.10000000000E+01 0.  0.
    9000001    1    1    2    0    0  0.37841212696E+04 -0.45708339217E+04  0.26529045360E+04  0.65000000000E+04  0.10000000000E+01 0.  0.
    9000001    1    1    2    0    0 -0.37841212696E+04  0.45708339217E+04 -0.26529045360E+04  0.65000000000E+04  0.10000000000E+01 0.  0.
</event>
<event>
 4    1  0.2195261E-006  0.1300000E+05  0.7957747E-01  0.1322471E+00
    9000001   -1    0    0    0    0  0.00000000000E+00  0.00000000000E+00  0.64999999231E+04  0.65000000000E+04  0.10000000000E+01 0.  0.
    9000001   -1    0    0    0    0 -0.00000000000E+00 -0.00000000000E+00 -0.64999999231E+04  0.65000000000E+04  0.10000000000E+01 0.  0.
    9000001    1    1    2    0    0  0.43242618528E+04  0.37039637706E+04  0.31355080632E+04  0.65000000000E+04  0.10000000000E+01 0.  0.
    9000001    1    1    2    0    0 -0.43242618528E+04 -0.37039637706E+04 -0.31355080632E+04  0.65000000000E+04  0.10000000000E+01 0.  0.
</event>
<event>
 4    1  0.2195261E-006  0.1300000E+05  0.7957747E-01  0.1322471E+00
    9000001   -1    0    0    0    0  0.00000000000E+00  0.00000000000E+00  0.64999999231E+04  0.65000000000E+04  0.10000000000E+01 0.  0.
    9000001   -1    0    0    0    0 -0.00000000000E+00 -0.00000000000E+00 -0.64999999231E+04  0.65000000000E+04  0.10000000000E+01 0.  0.
    9000001    1    1    2    0    0 -0.46721380954E+04 -0.55037898684E+03  0.44853324948E+04  0.65000000000E+04  0.10000000000E+01 0.  0.
    9000001    1    1    2    0    0  0.46721380954E+04  0.55037898684E+03 -0.44853324948E+04  0.65000000000E+04  0.10000000000E+01 0.  0.
</event>
<event>
 4    1  0.2195261E-006  0.1300000E+05  0.7957747E-01  0.1322471E+00
    9000001   -1    0    0    0    0  0.00000000000E+00  0.00000000000E+00  0.64999999231E+04  0.65000000000E+04  0.10000000000E+01 0.  0.
    9000001   -1    0    0    0    0 -0.00000000000E+00 -0.00000000000E+00 -0.64999999231E+04  0.65000000000E+04  0.10000000000E+01 0.  0.
    9000001    1    1    2    0    0 -0.48408857842E+04  0.28562290450E+04  0.32646254712E+04  0.65000000000E+04  0.10000000000E+01 0.  0.
    9000001    1    1    2    0    0  0.48408857842E+04 -0.28562290450E+04 -0.32646254712E+04  0.65000000000E+04  0.10000000000E+01 0.  0.
</event>
<event>
 4    1  0.2195261E-006  0.1300000E+05  0.7957747E-01  0.1322471E+00
    9000001   -1    0    0    0    0  0.00000000000E+00  0.00000000000E+00  0.64999999231E+04  0.65000000000E+04  0.10000000000E+01 0.  0.
    9000001   -1    0    0    0    0 -0.00000000000E+00 -0.00000000000E+00 -0.64999999231E+04  0.65000000000E+04  0.10000000000E+01 0.  0.
    9000001    1    1    2    0    0  0.62436729460E+04 -0.98950596590E+03  0.15124235804E+04  0.65000000000E+04  0.10000000000E+01 0.  0.
    9000001    1    1    2    0    0 -0.62436729460E+04  0.98950596590E+03 -0.15124235804E+04  0.65000000000E+04  0.10000000000E+01 0.  0.
</event>
<event>
 4    1  0.2195261E-006  0.1300000E+05  0.7957747E-01  0.1322471E+00
    9000001   -1    0    0    0    0  0.00000000000E+00  0.00000000000E+00  0.64999999231E+04  0.65000000000E+04  0.10000000000E+01 0.  0.
    9000001   -1    0    0    0    0 -0.00000000000E+00 -0.00000000000E+00 -0.64999999231E+04  0.65000000000E+04  0.10000000000E+01 0.  0.
    9000001    1    1    2    0    0 -0.63974912446E+04  0.15536239595E+03 -0.11392836792E+04  0.65000000000E+04  0.10000000000E+01 0.  0.
    9000001    1    1    2    0    0  0.63974912446E+04 -0.15536239595E+03  0.11392836792E+04  0.65000000000E+04  0.10000000000E+01 0.  0.
</event>
<event>
 4    1  0.2195261E-006  0.1300000E+05  0.7957747E-01  0.1322471E+00
    9000001   -1    0    0    0    0  0.00000000000E+00  0.00000000000E+00  0.64999999231E+04  0.65000000000E+04  0.10000000000E+01 0.  0.
    9000001   -1    0    0    0    0 -0.00000000000E+00 -0.00000000000E+00 -0.64999999231E+04  0.65000000000E+04  0.10000000000E+01 0.  0.
    9000001    1    1    2    0    0  0.50852585060E+04  0.81963510044E+03 -0.39646365823E+04  0.65000000000E+04  0.10000000000E+01 0.  0.
    9000001    1    1    2    0    0 -0.50852585060E+04 -0.81963510044E+03  0.39646365823E+04  0.65000000000E+04  0.10000000000E+01 0.  0.
</event>
<event>
 4    1  0.2195261E-006  0.1300000E+05  0.7957747E-01  0.1322471E+00
    9000001   -1    0    0    0    0  0.00000000000E+00  0.00000000000E+00  0.64999999231E+04  0.65000000000E+04  0.10000000000E+01 0.  0.
    9000001   -1    0    0    0    0 -0.00000000000E+00 -0.00000000000E+00 -0.64999999231E+04  0.65000000000E+04  0.10000000000E+01 0.  0.
    9000001    1    1    2    0    0 -0.57983050998E+04 -0.28897156137E+04 -0.52839439938E+03  0.65000000000E+04  0.10000000000E+01 0.  0.
    9000001    1    1    2    0    0  0.57983050998E+04  0.28897156137E+04  0.52839439938E+03  0.65000000000E+04  0.10000000000E+01 0.  0.
</event>
<event>
 4    1  0.2195261E-006  0.1300000E+05  0.7957747E-01  0.1322471E+00
    9000001   -1    0    0    0    0  0.00000000000E+00  0.00000000000E+00  0.64999999231E+04  0.65000000000E+04  0.10000000000E+01 0.  0.
    9000001   -1    0    0    0    0 -0.00000000000E+00 -0.00000000000E+00 -0.64999999231E+04  0.65000000000E+04  0.10000000000E+01 0.  0.
    9000001    1    1    2    0    0 -0.14399349086E+04  0.15562855465E+04  0.61444740830E+04  0.65000000000E+04  0.10000000000E+01 0.  0.
    9000001    1    1    2    0    0  0.14399349086E+04 -0.15562855465E+04 -0.61444740830E+04  0.65000000000E+04  0.10000000000E+01 0.  0.
</event>
<event>
 4    1  0.2195261E-006  0.1300000E+05  0.7957747E-01  0.1322471E+00
    9000001   -1    0    0    0    0  0.00000000000E+00  0.00000000000E+00  0.64999999231E+04  0.65000000000E+04  0.10000000000E+01 0.  0.
    9000001   -1    0    0    0    0 -0.00000000000E+00 -0.00000000000E+00 -0.64999999231E+04  0.65000000000E+04  0.10000000000E+01 0.  0.
    9000001    1    1    2    0    0  0.12445766811E+03 -0.11640330366E+04  0.63937106893E+04  0.65000000000E+04  0.10000000000E+01 0.  0.
    9000001    1    1    2    0    0 -0.12445766811E+03  0.11640330366E+04 -0.63937106893E+04  0.65000000000E+04  0.10000000000E+01 0.  0.
</event>
<event>
 4    1  0.2195261E-006  0.1300000E+05  0.7957747E-01  0.1322471E+00
    9000001   -1    0    0    0    0  0.00000000000E+00  0.00000000000E+00  0.64999999231E+04  0.65000000000E+04  0.10000000000E+01 0.  0.
    9000001   -1    0    0    0    0 -0.00000000000E+00 -0.00000000000E+00 -0.64999999231E+04  0.65000000000E+04  0.10000000000E+01 0.  0.
    9000001    1    1    2    0    0  0.31085366522E+04 -0.12133521582E+04  0.55780619773E+04  0.65000000000E+04  0.10000000000E+01 0.  0.
    9000001    1    1    2    0    0 -0.31085366522E+04  0.12133521582E+04 -0.55780619773E+04  0.65000000000E+04  0.10000000000E+01 0.  0.
</event>
<event>
 4    1  0.2195261E-006  0.1300000E+05  0.7957747E-01  0.1322471E+00
    9000001   -1    0    0    0    0  0.00000000000E+00  0.00000000000E+00  0.64999999231E+04  0.65000000000E+04  0.10000000000E+01 0.  0.
    9000001   -1    0    0    0    0 -0.00000000000E+00 -0.00000000000E+00 -0.64999999231E+04  0.65000000000E+04  0.10000000000E+01 0.  0.
    9000001    1    1    2    0    0  0.51802751801E+04 -0.37292089523E+04 -0.12279041690E+04  0.65000000000E+04  0.10000000000E+01 0.  0.
    9000001    1    1    2    0    0 -0.51802751801E+04  0.37292089523E+04  0.12279041690E+04  0.65000000000E+04  0.10000000000E+01 0.  0.
</event>
<event>
 4    1  0.2195261E-006  0.1300000E+05  0.7957747E-01  0.1322471E+00
    9000001   -1    0    0    0    0  0.00000000000E+00  0.00000000000E+00  0.64999999231E+04  0.65000000000E+04  0.10000000000E+01 0.  0.
    9000001   -1    0    0    0    0 -0.00000000000E+00 -0.00000000000E+00 -0.64999999231E+04  0.65000000000E+04  0.10000000000E+01 0.  0.
    9000001    1    1    2    0    0  0.11334585946E+04  0.31695068902E+04 -0.55605302524E+04  0.65000000000E+04  0.10000000000E+01 0.  0.
    9000001    1    1    2    0    0 -0.11334585946E+04 -0.31695068902E+04  0.55605302524E+04  0.65000000000E+04  0.10000000000E+01 0.  0.
</event>
<event>
 4    1  0.2195261E-006  0.1300000E+05  0.7957747E-01  0.1322471E+00
    9000001   -1    0    0    0    0  0.00000000000E+00  0.00000000000E+00  0.64999999231E+04  0.65000000000E+04  0.10000000000E+01 0.  0.
    9000001   -1    0    0    0    0 -0.00000000000E+00 -0.00000000000E+00 -0.64999999231E+04  0.65000000000E+04  0.10000000000E+01 0.  0.
    9000001    1    1    2    0    0 -0.24776755814E+04 -0.44671515006E+04  0.40194129153E+04  0.65000000000E+04  0.10000000000E+01 0.  0.
    9000001    1    1    2    0    0  0.24776755814E+04  0.44671515006E+04 -0.40194129153E+04  0.65000000000E+04  0.10000000000E+01 0.  0.
</event>
<event>
 4    1  0.2195261E-006  0.1300000E+05  0.7957747E-01  0.1322471E+00
    9000001   -1    0    0    0    0  0.00000000000E+00  0.00000000000E+00  0.64999999231E+04  0.65000000000E+04  0.10000000000E+01 0.  0.
    9000001   -1    0    0    0    0 -0.00000000000E+00 -0.00000000000E+00 -0.64999999231E+04  0.65000000000E+04  0.10000000000E+01 0.  0.
    9000001    1    1    2    0    0  0.44655037467E+04  0.42320936643E+04  0.20972979056E+04  0.65000000000E+04  0.10000000000E+01 0.  0.
    9000001    1    1    2    0    0 -0.44655037467E+04 -0.42320936643E+04 -0.20972979056E+04  0.65000000000E+04  0.10000000000E+01 0.  0.
</event>
<event>
 4    1  0.2195261E-006  0.1300000E+05  0.7957747E-01  0.1322471E+00
    9000001   -1    0    0    0    0  0.00000000000E+00  0.00000000000E+00  0.64999999231E+04  0.65000000000E+04  0.10000000000E+01 0.  0.
    9000001   -1    0    0    0    0 -0.00000000000E+00 -0.00000000000E+00 -0.64999999231E+04  0.65000000000E+04  0.10000000000E+01 0.  0.
    9000001    1    1    2    0    0  0.42132428307E+04  0.13131253821E+04  0.47722411486E+04  0.65000000000E+04  0.10000000000E+01 0.  0.
    9000001    1    1    2    0    0 -0.42132428307E+04 -0.13131253821E+04 -0.47722411486E+04  0.65000000000E+04  0.10000000000E+01 0.  0.
</event>
<event>
 4    1  0.2195261E-006  0.1300000E+05  0.7957747E-01  0.1322471E+00
    9000001   -1    0    0    0    0  0.00000000000E+00  0.00000000000E+00  0.64999999231E+04  0.65000000000E+04  0.10000000000E+01 0.  0.
    9000001   -1    0    0    0    0 -0.00000000000E+00 -0.00000000000E+00 -0.64999999231E+04  0.65000000000E+04  0.10000000000E+01 0.  0.
    9000001    1    1    2    0    0 -0.25652678324E+04  0.31735988305E+04 -0.50594140383E+04  0.65000000000E+04  0.10000000000E+01 0.  0.
    9000001    1    1    2    0    0  0.25652678324E+04 -0.31735988305E+04  0.50594140383E+04  0.65000000000E+04  0.10000000000E+01 0.  0.
</event>
<event>
 4    1  0.2195261E-006  0.1300000E+05  0.7957747E-01  0.1322471E+00
    9000001   -1    0    0    0    0  0.00000000000E+00  0.00000000000E+00  0.64999999231E+04  0.65000000000E+04  0.10000000000E+01 0.  0.
    9000001   -1    0    0    0    0 -0.00000000000E+00 -0.00000000000E+00 -0.64999999231E+04  0.65000000000E+04  0.10000000000E+01 0.  0.
    9000001    1    1    2    0    0  0.33723388595E+04  0.55531832876E+04 -0.19870830777E+03  0.65000000000E+04  0.10000000000E+01 0.  0.
    9000001    1    1    2    0    0 -0.33723388595E+04 -0.55531832876E+04  0.19870830777E+03  0.65000000000E+04  0.10000000000E+01 0.  0.
</event>
<event>
 4    1  0.2195261E-006  0.1300000E+05  0.7957747E-01  0.1322471E+00
    9000001   -1    0    0    0    0  0.00000000000E+00  0.00000000000E+00  0.64999999231E+04  0.65000000000E+04  0.10000000000E+01 0.  0.
    9000001   -1    0    0    0    0 -0.00000000000E+00 -0.00000000000E+00 -0.64999999231E+04  0.65000000000E+04  0.10000000000E+01 0.  0.
    9000001    1    1    2    0    0 -0.62508464403E+04 -0.17080051755E+04 -0.50954499329E+03  0.65000000000E+04  0.10000000000E+01 0.  0.
    9000001    1    1    2    0    0  0.62508464403E+04  0.17080051755E+04  0.50954499329E+03  0.65000000000E+04  0.10000000000E+01 0.  0.
</event>
<event>
 4    1  0.2195261E-006  0.1300000E+05  0.7957747E-01  0.1322471E+00
    9000001   -1    0    0    0    0  0.00000000000E+00  0.00000000000E+00  0.64999999231E+04  0.65000000000E+04  0.10000000000E+01 0.  0.
    9000001   -1    0    0    0    0 -0.00000000000E+00 -0.00000000000E+00 -0.64999999231E+04  0.65000000000E+04  0.10000000000E+01 0.  0.
    9000001    1    1    2    0    0 -0.61869883609E+04 -0.18436011459E+04  0.75651096282E+03  0.65000000000E+04  0.10000000000E+01 0.  0.
    9000001    1    1    2    0    0  0.61869883609E+04  0.18436011459E+04 -0.75651096282E+03  0.65000000000E+04  0.10000000000E+01 0.  0.
</event>
<event>
 4    1  0.2195261E-006  0.1300000E+05  0.7957747E-01  0.1322471E+00
    9000001   -1    0    0    0    0  0.00000000000E+00  0.00000000000E+00  0.64999999231E+04  0.65000000000E+04  0.10000000000E+01 0.  0.
    9000001   -1    0    0    0    0 -0.00000000000E+00 -0.00000000000E+00 -0.64999999231E+04  0.65000000000E+04  0.10000000000E+01 0.  0.
    9000001    1    1    2    0    0  0.15444794356E+04  0.62176893295E+04 -0.10976892431E+04  0.65000000000E+04  0.10000000000E+01 0.  0.
    9000001    1    1    2    0    0 -0.15444794356E+04 -0.62176893295E+04  0.10976892431E+04  0.65000000000E+04  0.10000000000E+01 0.  0.
</event>
<event>
 4    1  0.2195261E-006  0.1300000E+05  0.7957747E-01  0.1322471E+00
    9000001   -1    0    0    0    0  0.00000000000E+00  0.00000000000E+00  0.64999999231E+04  0.65000000000E+04  0.10000000000E+01 0.  0.
    9000001   -1    0    0    0    0 -0.00000000000E+00 -0.00000000000E+00 -0.64999999231E+04  0.65000000000E+04  0.10000000000E+01 0.  0.
    9000001    1    1    2    0    0  0.31007256401E+04  0.56086819393E+03  0.56851496352E+04  0.65000000000E+04  0.10000000000E+01 0.  0.
    9000001    1    1    2    0    0 -0.31007256401E+04 -0.56086819393E+03 -0.56851496352E+04  0.65000000000E+04  0.10000000000E+01 0.  0.
</event>
<event>
 4    1  0.2195261E-006  0.1300000E+05  0.7957747E-01  0.1322471E+00
    9000001   -1    0    0    0    0  0.00000000000E+00  0.00000000000E+00  0.64999999231E+04  0.65000000000E+04  0.10000000000E+01 0.  0.
    9000001   -1    0    0    0    0 -0.00000000000E+00 -0.00000000000E+00 -0.64999999231E+04  0.65000000000E+04  0.10000000000E+01 0.  0.
    9000001    1    1    2    0    0  0.48175262885E+04 -0.27600376769E+04 -0.33798863119E+04  0.65000000000E+04  0.10000000000E+01 0.  0.
    9000001    1    1    2    0    0 -0.48175262885E+04  0.27600376769E+04  0.33798863119E+04  0.65000000000E+04  0.10000000000E+01 0.  0.
</event>
<event>
 4    1  0.2195261E-006  0.1300000E+05  0.7957747E-01  0.1322471E+00
    9000001   -1    0    0    0    0  0.00000000000E+00  0.00000000000E+00  0.64999999231E+04  0.65000000000E+04  0.10000000000E+01 0.  0.
    9000001   -1    0    0    0    0 -0.00000000000E+00 -0.00000000000E+00 -0.64999999231E+04  0.65000000000E+04  0.10000000000E+01 0.  0.
    9000001    1    1    2    0    0 -0.11492785469E+04 -0.42134923030E+04  0.48141084776E+04  0.65000000000E+04  0.10000000000E+01 0.  0.
    9000001    1    1    2    0    0  0.11492785469E+04  0.42134923030E+04 -0.48141084776E+04  0.65000000000E+04  0.10000000000E+01 0.  0.
</event>
<event>
 4    1  0.2195261E-006  0.1300000E+05  0.7957747E-01  0.1322471E+00
    9000001   -1    0    0    0    0  0.00000000000E+00  0.00000000000E+00  0.64999999231E+04  0.65000000000E+04  0.10000000000E+01 0.  0.
    9000001   -1    0    0    0    0 -0.00000000000E+00 -0.00000000000E+00 -0.64999999231E+04  0.65000000000E+04  0.10000000000E+01 0.  0.
    9000001    1    1    2    0    0  0.23949264384E+04  0.23578456828E+04 -0.55637118986E+04  0.65000000000E+04  0.10000000000E+01 0.  0.
    9000001    1    1    2    0    0 -0.23949264384E+04 -0.23578456828E+04  0.55637118986E+04  0.65000000000E+04  0.10000000000E+01 0.  0.
</event>
<event>
 4    1  0.2195261E-006  0.1300000E+05  0.7957747E-01  0.1322471E+00
    9000001   -1    0    0    0    0  0.00000000000E+00  0.00000000000E+00  0.64999999231E+04  0.65000000000E+04  0.10000000000E+01 0.  0.
    9000001   -1    0    0    0    0 -0.00000000000E+00 -0.00000000000E+00 -0.64999999231E+04  0.65000000000E+04  0.10000000000E+01 0.  0.
    9000001    1    1    2    0    0 -0.15834945517E+04 -0.36774193515E+04  0.51204619829E+04  0.65000000000E+04  0.10000000000E+01 0.  0.
    9000001    1    1    2    0    0  0.15834945517E+04  0.36774193515E+04 -0.51204619829E+04  0.65000000000E+04  0.10000000000E+01 0.  0.
</event>
<event>
 4    1  0.2195261E-006  0.1300000E+05  0.7957747E-01  0.1322471E+00
    9000001   -1    0    0    0    0  0.00000000000E+00  0.00000000000E+00  0.64999999231E+04  0.65000000000E+04  0.10000000000E+01 0.  0.
    9000001   -1    0    0    0    0 -0.00000000000E+00 -0.00000000000E+00 -0.64999999231E+04  0.65000000000E+04  0.10000000000E+01 0.  0.
    9000001    1    1    2    0    0  0.15605432078E+04  0.27045408535E+04  0.57008913924E+04  0.65000000000E+04  0.10000000000E+01 0.  0.
    9000001    1    1    2    0    0 -0.15605432078E+04 -0.27045408535E+04 -0.57008913924E+04  0.65000000000E+04  0.10000000000E+01 0.  0.
</event>
<event>
 4    1  0.2195261E-006  0.1300000E+05  0.7957747E-01  0.1322471E+00
    9000001   -1    0    0    0    0  0.00000000000E+00  0.00000000000E+00  0.64999999231E+04  0.65000000000E+04  0.10000000000E+01 0.  0.
    9000001   -1    0    0    0    0 -0.00000000000E+00 -0.00000000000E+00 -0.64999999231E+04  0.65000000000E+04  0.10000000000E+01 0.  0.
    9000001    1    1    2    0    0 -0.50765888019E+04  0.37139296769E+04  0.16385882616E+04  0.65000000000E+04  0.10000000000E+01 0.  0.
    9000001    1    1    2    0    0  0.50765888019E+04 -0.37139296769E+04 -0.16385882616E+04  0.65000000000E+04  0.10000000000E+01 0.  0.
</event>
<event>
 4    1  0.2195261E-006  0.1300000E+05  0.7957747E-01  0.1322471E+00
    9000001   -1    0    0    0    0  0.00000000000E+00  0.00000000000E+00  0.64999999231E+04  0.65000000000E+04  0.10000000000E+01 0.  0.
    9000001   -1    0    0    0    0 -0.00000000000E+00 -0.00000000000E+00 -0.64999999231E+04  0.65000000000E+04  0.10000000000E+01 0.  0.
    9000001    1    1    2    0    0  0.43952392552E+04  0.44303277360E+04 -0.18177092840E+04  0.65000000000E+04  0.10000000000E+01 0.  0.
    9000001    1    1    2    0    0 -0.43952392552E+04 -0.44303277360E+04  0.18177092840E+04  0.65000000000E+04  0.10000000000E+01 0.  0.
</event>
<event>
 4    1  0.2195261E-006  0.1300000E+05  0.7957747E-01  0.1322471E+00
    9000001   -1    0    0    0    0  0.00000000000E+00  0.00000000000E+00  0.64999999231E+04  0.65000000000E+04  0.10000000000E+01 0.  0.
    9000001   -1    0    0    0    0 -0.00000000000E+00 -0.00000000000E+00 -0.64999999231E+04  0.65000000000E+04  0.10000000000E+01 0.  0.
    9000001    1    1    2    0    0  0.17368613881E+03 -0.14078410907E+04  0.63433284314E+04  0.65000000000E+04  0.10000000000E+01 0.  0.
    9000001    1    1    2    0    0 -0.17368613881E+03  0.14078410907E+04 -0.63433284314E+04  0.65000000000E+04  0.10000000000E+01 0.  0.
</event>
<event>
 4    1  0.2195261E-006  0.1300000E+05  0.7957747E-01  0.1322471E+00
    9000001   -1    0    0    0    0  0.00000000000E+00  0.00000000000E+00  0.64999999231E+04  0.65000000000E+04  0.10000000000E+01 0.  0.
    9000001   -1    0    0    0    0 -0.00000000000E+00 -0.00000000000E+00 -0.64999999231E+04  0.65000000000E+04  0.10000000000E+01 0.  0.
    9000001    1    1    2    0    0 -0.37981433098E+04  0.44083759477E+04 -0.28966062732E+04  0.65000000000E+04  0.10000000000E+01 0.  0.
    9000001    1    1    2    0    0  0.37981433098E+04 -0.44083759477E+04  0.28966062732E+04  0.65000000000E+04  0.10000000000E+01 0.  0.
</event>
<event>
 4    1  0.2195261E-006  0.1300000E+05  0.7957747E-01  0.1322471E+00
    9000001   -1    0    0    0    0  0.00000000000E+00  0.00000000000E+00  0.64999999231E+04  0.65000000000E+04  0.10000000000E+01 0.  0.
    9000001   -1    0    0    0    0 -0.00000000000E+00 -0.00000000000E+00 -0.64999999231E+04  0.65000000000E+04  0.10000000000E+01 0.  0.
    9000001    1    1    2    0    0 -0.37333723110E+04 -0.40930241064E+04  0.33998652697E+04  0.65000000000E+04  0.10000000000E+01 0.  0.
    9000001    1    1    2    0    0  0.37333723110E+04  0.40930241064E+04 -0.33998652697E+04  0.65000000000E+04  0.10000000000E+01 0.  0.
</event>
<event>
 4    1  0.2195261E-006  0.1300000E+05  0.7957747E-01  0.1322471E+00
    9000001   -1    0    0    0    0  0.00000000000E+00  0.00000000000E+00  0.64999999231E+04  0.65000000000E+04  0.10000000000E+01 0.  0.
    9000001   -1    0    0    0    0 -0.00000000000E+00 -0.00000000000E+00 -0.64999999231E+04  0.65000000000E+04  0.10000000000E+01 0.  0.
    9000001    1    1    2    0    0  0.40219595784E+04  0.30993087807E+03 -0.50968404920E+04  0.65000000000E+04  0.10000000000E+01 0.  0.
    9000001    1    1    2    0    0 -0.40219595784E+04 -0.30993087807E+03  0.50968404920E+04  0.65000000000E+04  0.10000000000E+01 0.  0.
</event>
<event>
 4    1  0.2195261E-006  0.1300000E+05  0.7957747E-01  0.1322471E+00
    9000001   -1    0    0    0    0  0.00000000000E+00  0.00000000000E+00  0.64999999231E+04  0.65000000000E+04  0.10000000000E+01 0.  0.
    9000001   -1    0    0    0    0 -0.00000000000E+00 -0.00000000000E+00 -0.64999999231E+04  0.65000000000E+04  0.10000000000E+01 0.  0.
    9000001    1    1    2    0    0  0.56620172175E+04 -0.31463132928E+04 -0.54062250406E+03  0.65000000000E+04  0.10000000000E+01 0.  0.
    9000001    1    1    2    0    0 -0.56620172175E+04  0.31463132928E+04  0.54062250406E+03  0.65000000000E+04  0.10000000000E+01 0.  0.
</event>
<event>
 4    1  0.2195261E-006  0.1300000E+05  0.7957747E-01  0.1322471E+00
    9000001   -1    0    0    0    0  0.00000000000E+00  0.00000000000E+00  0.64999999231E+04  0.65000000000E+04  0.10000000000E+01 0.  0.
    9000001   -1    0    0    0    0 -0.00000000000E+00 -0.00000000000E+00 -0.64999999231E+04  0.65000000000E+04  0.10000000000E+01 0.  0.
    9000001    1    1    2    0    0  0.52561785399E+04  0.29574386169E+04 -0.24240756969E+04  0.65000000000E+04  0.10000000000E+01 0.  0.
    9000001    1    1    2    0    0 -0.52561785399E+04 -0.29574386169E+04  0.24240756969E+04  0.65000000000E+04  0.10000000000E+01 0.  0.
</event>
<event>
 4    1  0.2195261E-006  0.1300000E+05  0.7957747E-01  0.1322471E+00
    9000001   -1    0    0    0    0  0.00000000000E+00  0.00000000000E+00  0.64999999231E+04  0.65000000000E+04  0.10000000000E+01 0.  0.
    9000001   -1    0    0    0    0 -0.00000000000E+00 -0.00000000000E+00 -0.64999999231E+04  0.65000000000E+04  0.10000000000E+01 0.  0.
    9000001    1    1    2    0    0 -0.12418579224E+04  0.60708314360E+04 -0.19628534270E+04  0.65000000000E+04  0.10000000000E+01 0.  0.
    9000001    1    1    2    0    0  0.12418579224E+04 -0.60708314360E+04  0.19628534270E+04  0.65000000000E+04  0.10000000000E+01 0.  0.
</event>
<event>
 4    1  0.2195261E-006  0.1300000E+05  0.7957747E-01  0.1322471E+00
    9000001   -1    0    0    0    0  0.00000000000E+00  0.00000000000E+00  0.64999999231E+04  0.65000000000E+04  0.10000000000E+01 0.  0.
    9000001   -1    0    0    0    0 -0.00000000000E+00 -0.00000000000E+00 -0.64999999231E+04  0.65000000000E+04  0.10000000000E+01 0.  0.
    9000001    1    1    2    0    0  0.62874806689E+04 -0.14439461951E+04 -0.79536483720E+03  0.65000000000E+04  0.10000000000E+01 0.  0.
    9000001    1    1    2    0    0 -0.62874806689E+04  0.14439461951E+04  0.79536483720E+03  0.65000000000E+04  0.10000000000E+01 0.  0.
</event>
<event>
 4    1  0.2195261E-006  0.1300000E+05  0.7957747E-01  0.1322471E+00
    9000001   -1    0    0    0    0  0.00000000000E+00  0.00000000000E+00  0.64999999231E+04  0.65000000000E+04  0.10000000000E+01 0.  0.
    9000001   -1    0    0    0    0 -0.00000000000E+00 -0.00000000000E+00 -0.64999999231E+04  0.65000000000E+04  0.10000000000E+01 0.  0.
    9000001    1    1    2    0    0 -0.44495439906E+03  0.58205512748E+04 -0.28588804522E+04  0.65000000000E+04  0.10000000000E+01 0.  0.
    9000001    1    1    2    0    0  0.44495439906E+03 -0.58205512748E+04  0.28588804522E+04  0.65000000000E+04  0.10000000000E+01 0.  0.
</event>
<event>
 4    1  0.2195261E-006  0.1300000E+05  0.7957747E-01  0.1322471E+00
    9000001   -1    0    0    0    0  0.00000000000E+00  0.00000000000E+00  0.64999999231E+04  0.65000000000E+04  0.10000000000E+01 0.  0.
    9000001   -1    0    0    0    0 -0.00000000000E+00 -0.00000000000E+00 -0.64999999231E+04  0.65000000000E+04  0.10000000000E+01 0.  0.
    9000001    1    1    2    0    0  0.21857342049E+04 -0.46494762047E+04  0.39818257128E+04  0.65000000000E+04  0.10000000000E+01 0.  0.
    9000001    1    1    2    0    0 -0.21857342049E+04  0.46494762047E+04 -0.39818257128E+04  0.65000000000E+04  0.10000000000E+01 0.  0.
</event>
<event>
 4    1  0.2195261E-006  0.1300000E+05  0.7957747E-01  0.1322471E+00
    9000001   -1    0    0    0    0  0.00000000000E+00  0.00000000000E+00  0.64999999231E+04  0.65000000000E+04  0.10000000000E+01 0.  0.
    9000001   -1    0    0    0    0 -0.00000000000E+00 -0.00000000000E+00 -0.64999999231E+04  0.65000000000E+04  0.10000000000E+01 0.  0.
    9000001    1    1    2    0    0  0.29948293244E+04  0.52419827633E+04  0.24088613547E+04  0.65000000000E+04  0.10000000000E+01 0.  0.
    9000001    1    1    2    0    0 -0.29948293244E+04 -0.52419827633E+04 -0.24088613547E+04  0.65000000000E+04  0.10000000000E+01 0.  0.
</event>
<event>
 4    1  0.2195261E-006  0.1300000E+05  0.7957747E-01  0.1322471E+00
    9000001   -1    0    0    0    0  0.00000000000E+00  0.00000000000E+00  0.64999999231E+04  0.65000000000E+04  0.10000000000E+01 0.  0.
    9000001   -1    0    0    0    0 -0.00000000000E+00 -0.00000000000E+00 -0.64999999231E+04  0.65000000000E+04  0.10000000000E+01 0.  0.
    9000001    1    1    2    0    0 -0.39998911218E+04  0.42261958576E+04  0.28965735942E+04  0.65000000000E+04  0.10000000000E+01 0.  0.
    9000001    1    1    2    0    0  0.39998911218E+04 -0.42261958576E+04 -0.28965735942E+04  0.65000000000E+04  0.10000000000E+01 0.  0.
</event>
<event>
 4    1  0.2195261E-006  0.1300000E+05  0.7957747E-01  0.1322471E+00
    9000001   -1    0    0    0    0  0.00000000000E+00  0.00000000000E+00  0.64999999231E+04  0.65000000000E+04  0.10000000000E+01 0.  0.
    9000001   -1    0    0    0    0 -0.00000000000E+00 -0.00000000000E+00 -0.64999999231E+04  0.65000000000E+04  0.10000000000E+01 0.  0.
    9000001    1    1    2    0    0 -0.23359847602E+04  0.29575176037E+04  0.52958723383E+04  0.65000000000E+04  0.10000000000E+01 0.  0.
    9000001    1    1    2    0    0  0.23359847602E+04 -0.29575176037E+04 -0.52958723383E+04  0.65000000000E+04  0.10000000000E+01 0.  0.
</event>
<event>
 4    1  0.2195261E-006  0.1300000E+05  0.7957747E-01  0.1322471E+00
    9000001   -1    0    0    0    0  0.00000000000E+00  0.00000000000E+00  0.64999999231E+04  0.65000000000E+04  0.10000000000E+01 0.  0.
    9000001   -1    0    0    0    0 -0.00000000000E+00 -0.00000000000E+00 -0.64999999231E+04  0.65000000000E+04  0.10000000000E+01 0.  0.
    9000001    1    1    2    0    0 -0.58463632918E+04  0.14993355164E+04 -0.24128879521E+04  0.65000000000E+04  0.10000000000E+01 0.  0.
    9000001    1    1    2    0    0  0.58463632918E+04 -0.14993355164E+04  0.24128879521E+04  0.65000000000E+04  0.10000000000E+01 0.  0.
</event>
<event>
 4    1  0.2195261E-006  0.1300000E+05  0.7957747E-01  0.1322471E+00
    9000001   -1    0    0    0    0  0.00000000000E+00  0.00000000000E+00  0.64999999231E+04  0.65000000000E+04  0.10000000000E+01 0.  0.
    9000001   -1    0    0    0    0 -0.00000000000E+00 -0.00000000000E+00 -0.64999999231E+04  0.65000000000E+04  0.10000000000E+01 0.  0.
    9000001    1    1    2    0    0 -0.50853879291E+04 -0.39442815409E+04  0.91185072063E+03  0.65000000000E+04  0.10000000000E+01 0.  0.
    9000001    1    1    2    0    0  0.50853879291E+04  0.39442815409E+04 -0.91185072063E+03  0.65000000000E+04  0.10000000000E+01 0.  0.
</event>
<event>
 4    1  0.2195261E-006  0.1300000E+05  0.7957747E-01  0.1322471E+00
    9000001   -1    0    0    0    0  0.00000000000E+00  0.00000000000E+00  0.64999999231E+04  0.65000000000E+04  0.10000000000E+01 0.  0.
    9000001   -1    0    0    0    0 -0.00000000000E+00 -0.00000000000E+00 -0.64999999231E+04  0.65000000000E+04  0.10000000000E+01 0.  0.
    9000001    1    1    2    0    0  0.49803202151E+04  0.22210572576E+03 -0.41709805324E+04  0.65000000000E+04  0.10000000000E+01 0.  0.
    9000001    1    1    2    0    0 -0.49803202151E+04 -0.22210572576E+03  0.41709805324E+04  0.65000000000E+04  0.10000000000E+01 0.  0.
</event>
<event>
 4    1  0.2195261E-006  0.1300000E+05  0.7957747E-01  0.1322471E+00
    9000001   -1    0    0    0    0  0.00000000000E+00  0.00000000000E+00  0.64999999231E+04  0.65000000000E+04  0.10000000000E+01 0.  0.
    9000001   -1    0    0    0    0 -0.00000000000E+00 -0.00000000000E+00 -0.64999999231E+04  0.65000000000E+04  0.10000000000E+01 0.  0.
    9000001    1    1    2    0    0 -0.22634317769E+04  0.40269081673E+04 -0.45728422456E+04  0.65000000000E+04  0.10000000000E+01 0.  0.
    9000001    1    1    2    0    0  0.22634317769E+04 -0.40269081673E+04  0.45728422456E+04  0.65000000000E+04  0.10000000000E+01 0.  0.
</event>
<event>
 4    1  0.2195261E-006  0.1300000E+05  0.7957747E-01  0.1322471E+00
    9000001   -1    0    0    0    0  0.00000000000E+00  0.00000000000E+00  0.64999999231E+04  0.65000000000E+04  0.10000000000E+01 0.  0.
    9000001   -1    0    0    0    0 -0.00000000000E+00 -0.00000000000E+00 -0.64999999231E+04  0.65000000000E+04  0.10000000000E+01 0.  0.
    9000001    1    1    2    0    0  0.37688028174E+04  0.46042787972E+04 -0.26166278072E+04  0.65000000000E+04  0.10000000000E+01 0.  0.
    9000001    1    1    2    0    0 -0.37688028174E+04 -0.46042787972E+04  0.26166278072E+04  0.65000000000E+04  0.10000000000E+01 0.  0.
</event>
<event>
 4    1  0.2195261E-006  0.1300000E+05  0.7957747E-01  0.1322471E+00
    9000001   -1    0    0    0    0  0.00000000000E+00  0.00000000000E+00  0.64999999231E+04  0.65000000000E+04  0.10000000000E+01 0.  0.
    9000001   -1    0    0    0    0 -0.00000000000E+00 -0.00000000000E+00 -0.64999999231E+04  0.65000000000E+04  0.10000000000E+01 0.  0.
    9000001    1    1    2    0    0  0.31653686088E+04  0.55358153695E+04 -0.12590427972E+04  0.65000000000E+04  0.10000000000E+01 0.  0.
    9000001    1    1    2    0    0 -0.31653686088E+04 -0.55358153695E+04  0.12590427972E+04  0.65000000000E+04  0.10000000000E+01 0.  0.
</event>
<event>
 4    1  0.2195261E-006  0.1300000E+05  0.7957747E-01  0.1322471E+00
    9000001   -1    0    0    0    0  0.00000000000E+00  0.00000000000E+00  0.64999999231E+04  0.65000000000E+04  0.10000000000E+01 0.  0.
    9000001   -1    0    0    0    0 -0.00000000000E+00 -0.00000000000E+00 -0.64999999231E+04  0.65000000000E+04  0.10000000000E+01 0.  0.
    9000001    1    1    2    0    0  0.45067881705E+02 -0.49248166610E+04 -0.42419510537E+04  0.65000000000E+04  0.10000000000E+01 0.  0.
    9000001    1    1    2    0    0 -0.45067881705E+02  0.49248166610E+04  0.42419510537E+04  0.65000000000E+04  0.10000000000E+01 0.  0.
</event>
<event>
 4    1  0.2195261E-006  0.1300000E+05  0.7957747E-01  0.1322471E+00
    9000001   -1    0    0    0    0  0.00000000000E+00  0.00000000000E+00  0.64999999231E+04  0.65000000000E+04  0.10000000000E+01 0.  0.
    9000001   -1    0    0    0    0 -0.00000000000E+00 -0.00000000000E+00 -0.64999999231E+04  0.65000000000E+04  0.10000000000E+01 0.  0.
    9000001    1    1    2    0    0 -0.56334561365E+03 -0.33708083445E+04  0.55290407689E+04  0.65000000000E+04  0.10000000000E+01 0.  0.
    9000001    1    1    2    0    0  0.56334561365E+03  0.33708083445E+04 -0.55290407689E+04  0.65000000000E+04  0.10000000000E+01 0.  0.
</event>
<event>
 4    1  0.2195261E-006  0.1300000E+05  0.7957747E-01  0.1322471E+00
    9000001   -1    0    0    0    0  0.00000000000E+00  0.00000000000E+00  0.64999999231E+04  0.65000000000E+04  0.10000000000E+01 0.  0.
    9000001   -1    0    0    0    0 -0.00000000000E+00 -0.00000000000E+00 -0.64999999231E+04  0.65000000000E+04  0.10000000000E+01 0.  0.
    9000001    1    1    2    0    0 -0.63080667753E+04 -0.12793049630E+04 -0.90646090385E+03  0.65000000000E+04  0.10000000000E+01 0.  0.
    9000001    1    1    2    0    0  0.63080667753E+04  0.12793049630E+04  0.90646090385E+03  0.65000000000E+04  0.10000000000E+01 0.  0.
</event>
<event>
 4    1  0.2195261E-006  0.1300000E+05  0.7957747E-01  0.1322471E+00
    9000001   -1    0    0    0    0  0.00000000000E+00  0.00000000000E+00  0.64999999231E+04  0.65000000000E+04  0.10000000000E+01 0.  0.
    9000001   -1    0    0    0    0 -0.00000000000E+00 -0.00000000000E+00 -0.64999999231E+04  0.65000000000E+04  0.10000000000E+01 0.  0.
    9000001    1    1    2    0    0 -0.42376753623E+04 -0.33499331172E+04  0.36152530525E+04  0.65000000000E+04  0.10000000000E+01 0.  0.
    9000001    1    1    2    0    0  0.42376753623E+04  0.33499331172E+04 -0.36152530525E+04  0.65000000000E+04  0.10000000000E+01 0.  0.
</event>
<event>
 4    1  0.2195261E-006  0.1300000E+05  0.7957747E-01  0.1322471E+00
    9000001   -1    0    0    0    0  0.00000000000E+00  0.00000000000E+00  0.64999999231E+04  0.65000000000E+04  0.10000000000E+01 0.  0.
    9000001   -1    0    0    0    0 -0.00000000000E+00 -0.00000000000E+00 -0.64999999231E+04  0.65000000000E+04  0.10000000000E+01 0.  0.
    9000001    1    1    2    0    0 -0.41258454904E+04 -0.38249642728E+04 -0.32553104769E+04  0.65000000000E+04  0.10000000000E+01 0.  0.
    9000001    1    1    2    0    0  0.41258454904E+04  0.38249642728E+04  0.32553104769E+04  0.65000000000E+04  0.10000000000E+01 0.  0.
</event>
<event>
 4    1  0.2195261E-006  0.1300000E+05  0.7957747E-01  0.1322471E+00
    9000001   -1    0    0    0    0  0.00000000000E+00  0.00000000000E+00  0.64999999231E+04  0.65000000000E+04  0.10000000000E+01 0.  0.
    9000001   -1    0    0    0    0 -0.00000000000E+00 -0.00000000000E+00 -0.64999999231E+04  0.65000000000E+04  0.10000000000E+01 0.  0.
    9000001    1    1    2    0    0  0.36212239540E+04 -0.56864765849E+03  0.53678092286E+04  0.65000000000E+04  0.10000000000E+01 0.  0.
    9000001    1    1    2    0    0 -0.36212239540E+04  0.56864765849E+03 -0.53678092286E+04  0.65000000000E+04  0.10000000000E+01 0.  0.
</event>
<event>
 4    1  0.2195261E-006  0.1300000E+05  0.7957747E-01  0.1322471E+00
    9000001   -1    0    0    0    0  0.00000000000E+00  0.00000000000E+00  0.64999999231E+04  0.65000000000E+04  0.10000000000E+01 0.  0.
    9000001   -1    0    0    0    0 -0.00000000000E+00 -0.00000000000E+00 -0.64999999231E+04  0.65000000000E+04  0.10000000000E+01 0.  0.
    9000001    1    1    2    0    0  0.64989321275E+04 -0.11775735397E+03  0.36617449731E+01  0.65000000000E+04  0.10000000000E+01 0.  0.
    9000001    1    1    2    0    0 -0.64989321275E+04  0.11775735397E+03 -0.36617449731E+01  0.65000000000E+04  0.10000000000E+01 0.  0.
</event>
<event>
 4    1  0.2195261E-006  0.1300000E+05  0.7957747E-01  0.1322471E+00
    9000001   -1    0    0    0    0  0.00000000000E+00  0.00000000000E+00  0.64999999231E+04  0.65000000000E+04  0.10000000000E+01 0.  0.
    9000001   -1    0    0    0    0 -0.00000000000E+00 -0.00000000000E+00 -0.64999999231E+04  0.65000000000E+04  0.10000000000E+01 0.  0.
    9000001    1    1    2    0    0 -0.62646440024E+04 -0.15859043161E+04 -0.69938689079E+03  0.65000000000E+04  0.10000000000E+01 0.  0.
    9000001    1    1    2    0    0  0.62646440024E+04  0.15859043161E+04  0.69938689079E+03  0.65000000000E+04  0.10000000000E+01 0.  0.
</event>
<event>
 4    1  0.2195261E-006  0.1300000E+05  0.7957747E-01  0.1322471E+00
    9000001   -1    0    0    0    0  0.00000000000E+00  0.00000000000E+00  0.64999999231E+04  0.65000000000E+04  0.10000000000E+01 0.  0.
    9000001   -1    0    0    0    0 -0.00000000000E+00 -0.00000000000E+00 -0.64999999231E+04  0.65000000000E+04  0.10000000000E+01 0.  0.
    9000001    1    1    2    0    0  0.24798148145E+04 -0.59658359768E+04 -0.71366559619E+03  0.65000000000E+04  0.10000000000E+01 0.  0.
    9000001    1    1    2    0    0 -0.24798148145E+04  0.59658359768E+04  0.71366559619E+03  0.65000000000E+04  0.10000000000E+01 0.  0.
</event>
<event>
 4    1  0.2195261E-006  0.1300000E+05  0.7957747E-01  0.1322471E+00
    9000001   -1    0    0    0    0  0.00000000000E+00  0.00000000000E+00  0.64999999231E+04  0.65000000000E+04  0.10000000000E+01 0.  0.
    9000001   -1    0    0    0    0 -0.00000000000E+00 -0.00000000000E+00 -0.64999999231E+04  0.65000000000E+04  0.10000000000E+01 0.  0.
    9000001    1    1    2    0    0 -0.30472509776E+04  0.56034774876E+04 -0.12511197084E+04  0.65000000000E+04  0.10000000000E+01 0.  0.
    9000001    1    1    2    0    0  0.30472509776E+04 -0.56034774876E+04  0.12511197084E+04  0.65000000000E+04  0.10000000000E+01 0.  0.
</event>
<event>
 4    1  0.2195261E-006  0.1300000E+05  0.7957747E-01  0.1322471E+00
    9000001   -1    0    0    0    0  0.00000000000E+00  0.00000000000E+00  0.64999999231E+04  0.65000000000E+04  0.10000000000E+01 0.  0.
    9000001   -1    0    0    0    0 -0.00000000000E+00 -0.00000000000E+00 -0.64999999231E+04  0.65000000000E+04  0.10000000000E+01 0.  0.
    9000001    1    1    2    0    0 -0.38035802490E+04 -0.49236110692E+04  0.18817094167E+04  0.65000000000E+04  0.10000000000E+01 0.  0.
    9000001    1    1    2    0    0  0.38035802490E+04  0.49236110692E+04 -0.18817094167E+04  0.65000000000E+04  0.10000000000E+01 0.  0.
</event>
<event>
 4    1  0.2195261E-006  0.1300000E+05  0.7957747E-01  0.1322471E+00
    9000001   -1    0    0    0    0  0.00000000000E+00  0.00000000000E+00  0.64999999231E+04  0.65000000000E+04  0.10000000000E+01 0.  0.
    9000001   -1    0    0    0    0 -0.00000000000E+00 -0.00000000000E+00 -0.64999999231E+04  0.65000000000E+04  0.10000000000E+01 0.  0.
    9000001    1    1    2    0    0  0.44822510060E+04 -0.13765196106E+04 -0.45016240049E+04  0.65000000000E+04  0.10000000000E+01 0.  0.
    9000001    1    1    2    0    0 -0.44822510060E+04  0.13765196106E+04  0.45016240049E+04  0.65000000000E+04  0.10000000000E+01 0.  0.
</event>
<event>
 4    1  0.2195261E-006  0.1300000E+05  0.7957747E-01  0.1322471E+00
    9000001   -1    0    0    0    0  0.00000000000E+00  0.00000000000E+00  0.64999999231E+04  0.65000000000E+04  0.10000000000E+01 0.  0.
    9000001   -1    0    0    0    0 -0.00000000000E+00 -0.00000000000E+00 -0.64999999231E+04  0.65000000000E+04  0.10000000000E+01 0.  0.
    9000001    1    1    2    0    0 -0.26413027026E+04 -0.52387856541E+04 -0.27979713907E+04  0.65000000000E+04  0.10000000000E+01 0.  0.
    9000001    1    1    2    0    0  0.26413027026E+04  0.52387856541E+04  0.27979713907E+04  0.65000000000E+04  0.10000000000E+01 0.  0.
</event>
<event>
 4    1  0.2195261E-006  0.1300000E+05  0.7957747E-01  0.1322471E+00
    9000001   -1    0    0    0    0  0.00000000000E+00  0.00000000000E+00  0.64999999231E+04  0.65000000000E+04  0.10000000000E+01 0.  0.
    9000001   -1    0    0    0    0 -0.00000000000E+00 -0.00000000000E+00 -0.64999999231E+04  0.65000000000E+04  0.10000000000E+01 0.  0.
    9000001    1    1    2    0    0  0.60222177487E+04 -0.50000975116E+03  0.23943438843E+04  0.65000000000E+04  0.10000000000E+01 0.  0.
    9000001    1    1    2    0    0 -0.60222177487E+04  0.50000975116E+03 -0.23943438843E+04  0.65000000000E+04  0.10000000000E+01 0.  0.
</event>
<event>
 4    1  0.2195261E-006  0.1300000E+05  0.7957747E-01  0.1322471E+00
    9000001   -1    0    0    0    0  0.00000000000E+00  0.00000000000E+00  0.64999999231E+04  0.65000000000E+04  0.10000000000E+01 0.  0.
    9000001   -1    0    0    0    0 -0.00000000000E+00 -0.00000000000E+00 -0.64999999231E+04  0.65000000000E+04  0.10000000000E+01 0.  0.
    9000001    1    1    2    0    0  0.35691355732E+04  0.30338309542E+04  0.45063444166E+04  0.65000000000E+04  0.10000000000E+01 0.  0.
    9000001    1    1    2    0    0 -0.35691355732E+04 -0.30338309542E+04 -0.45063444166E+04  0.65000000000E+04  0.10000000000E+01 0.  0.
</event>
<event>
 4    1  0.2195261E-006  0.1300000E+05  0.7957747E-01  0.1322471E+00
    9000001   -1    0    0    0    0  0.00000000000E+00  0.00000000000E+00  0.64999999231E+04  0.65000000000E+04  0.10000000000E+01 0.  0.
    9000001   -1    0    0    0    0 -0.00000000000E+00 -0.00000000000E+00 -0.64999999231E+04  0.65000000000E+04  0.10000000000E+01 0.  0.
    9000001    1    1    2    0    0 -0.32764151287E+04 -0.28255740155E+04  0.48509003687E+04  0.65000000000E+04  0.10000000000E+01 0.  0.
    9000001    1    1    2    0    0  0.32764151287E+04  0.28255740155E+04 -0.48509003687E+04  0.65000000000E+04  0.10000000000E+01 0.  0.
</event>
<event>
 4    1  0.2195261E-006  0.1300000E+05  0.7957747E-01  0.1322471E+00
    9000001   -1    0    0    0    0  0.00000000000E+00  0.00000000000E+00  0.64999999231E+04  0.65000000000E+04  0.10000000000E+01 0.  0.
    9000001   -1    0    0    0    0 -0.00000000000E+00 -0.00000000000E+00 -0.64999999231E+04  0.65000000000E+04  0.10000000000E+01 0.  0.
    9000001    1    1    2    0    0 -0.26744648074E+04 -0.19124540145E+04  0.56071166063E+04  0.65000000000E+04  0.10000000000E+01 0.  0.
    9000001    1    1    2    0    0  0.26744648074E+04  0.19124540145E+04 -0.56071166063E+04  0.65000000000E+04  0.10000000000E+01 0.  0.
</event>
<event>
 4    1  0.2195261E-006  0.1300000E+05  0.7957747E-01  0.1322471E+00
    9000001   -1    0    0    0    0  0.00000000000E+00  0.00000000000E+00  0.64999999231E+04  0.65000000000E+04  0.10000000000E+01 0.  0.
    9000001   -1    0    0    0    0 -0.00000000000E+00 -0.00000000000E+00 -0.64999999231E+04  0.65000000000E+04  0.10000000000E+01 0.  0.
    9000001    1    1    2    0    0  0.13231597629E+04  0.71624104210E+03  0.63234678786E+04  0.65000000000E+04  0.10000000000E+01 0.  0.
    9000001    1    1    2    0    0 -0.13231597629E+04 -0.71624104210E+03 -0.63234678786E+04  0.65000000000E+04  0.10000000000E+01 0.  0.
</event>
<event>
 4    1  0.2195261E-006  0.1300000E+05  0.7957747E-01  0.1322471E+00
    9000001   -1    0    0    0    0  0.00000000000E+00  0.00000000000E+00  0.64999999231E+04  0.65000000000E+04  0.10000000000E+01 0.  0.
    9000001   -1    0    0    0    0 -0.00000000000E+00 -0.00000000000E+00 -0.64999999231E+04  0.65000000000E+04  0.10000000000E+01 0.  0.
    9000001    1    1    2    0    0  0.16022782689E+04  0.44158734582E+04  0.44925232276E+04  0.65000000000E+04  0.10000000000E+01 0.  0.
    9000001    1    1    2    0    0 -0.16022782689E+04 -0.44158734582E+04 -0.44925232276E+04  0.65000000000E+04  0.10000000000E+01 0.  0.
</event>
<event>
 4    1  0.2195261E-006  0.1300000E+05  0.7957747E-01  0.1322471E+00
    9000001   -1    0    0    0    0  0.00000000000E+00  0.00000000000E+00  0.64999999231E+04  0.65000000000E+04  0.10000000000E+01 0.  0.
    9000001   -1    0    0    0    0 -0.00000000000E+00 -0.00000000000E+00 -0.64999999231E+04  0.65000000000E+04  0.10000000000E+01 0.  0.
    9000001    1    1    2    0    0  0.50896942562E+04  0.35120529623E+04 -0.20026221233E+04  0.65000000000E+04  0.10000000000E+01 0.  0.
    9000001    1    1    2    0    0 -0.50896942562E+04 -0.35120529623E+04  0.20026221233E+04  0.65000000000E+04  0.10000000000E+01 0.  0.
</event>
<event>
 4    1  0.2195261E-006  0.1300000E+05  0.7957747E-01  0.1322471E+00
    9000001   -1    0    0    0    0  0.00000000000E+00  0.00000000000E+00  0.64999999231E+04  0.65000000000E+04  0.10000000000E+01 0.  0.
    9000001   -1    0    0    0    0 -0.00000000000E+00 -0.00000000000E+00 -0.64999999231E+04  0.65000000000E+04  0.10000000000E+01 0.  0.
    9000001    1    1    2    0    0  0.57845570981E+04 -0.74535622231E+03  0.28693801213E+04  0.65000000000E+04  0.10000000000E+01 0.  0.
    9000001    1    1    2    0    0 -0.57845570981E+04  0.74535622231E+03 -0.28693801213E+04  0.65000000000E+04  0.10000000000E+01 0.  0.
</event>
<event>
 4    1  0.2195261E-006  0.1300000E+05  0.7957747E-01  0.1322471E+00
    9000001   -1    0    0    0    0  0.00000000000E+00  0.00000000000E+00  0.64999999231E+04  0.65000000000E+04  0.10000000000E+01 0.  0.
    9000001   -1    0    0    0    0 -0.00000000000E+00 -0.00000000000E+00 -0.64999999231E+04  0.65000000000E+04  0.10000000000E+01 0.  0.
    9000001    1    1    2    0    0  0.62946129443E+04  0.63739421325E+03  0.14904950512E+04  0.65000000000E+04  0.10000000000E+01 0.  0.
    9000001    1    1    2    0    0 -0.62946129443E+04 -0.63739421325E+03 -0.14904950512E+04  0.65000000000E+04  0.10000000000E+01 0.  0.
</event>
<event>
 4    1  0.2195261E-006  0.1300000E+05  0.7957747E-01  0.1322471E+00
    9000001   -1    0    0    0    0  0.00000000000E+00  0.00000000000E+00  0.64999999231E+04  0.65000000000E+04  0.10000000000E+01 0.  0.
    9000001   -1    0    0    0    0 -0.00000000000E+00 -0.00000000000E+00 -0.64999999231E+04  0.65000000000E+04  0.10000000000E+01 0.  0.
    9000001    1    1    2    0    0 -0.37813337162E+04 -0.52317715321E+04  0.76163046312E+03  0.65000000000E+04  0.10000000000E+01 0.  0.
    9000001    1    1    2    0    0  0.37813337162E+04  0.52317715321E+04 -0.76163046312E+03  0.65000000000E+04  0.10000000000E+01 0.  0.
</event>
<event>
 4    1  0.2195261E-006  0.1300000E+05  0.7957747E-01  0.1322471E+00
    9000001   -1    0    0    0    0  0.00000000000E+00  0.00000000000E+00  0.64999999231E+04  0.65000000000E+04  0.10000000000E+01 0.  0.
    9000001   -1    0    0    0    0 -0.00000000000E+00 -0.00000000000E+00 -0.64999999231E+04  0.65000000000E+04  0.10000000000E+01 0.  0.
    9000001    1    1    2    0    0  0.42824903245E+04 -0.15809294428E+04  0.46271954484E+04  0.65000000000E+04  0.10000000000E+01 0.  0.
    9000001    1    1    2    0    0 -0.42824903245E+04  0.15809294428E+04 -0.46271954484E+04  0.65000000000E+04  0.10000000000E+01 0.  0.
</event>
<event>
 4    1  0.2195261E-006  0.1300000E+05  0.7957747E-01  0.1322471E+00
    9000001   -1    0    0    0    0  0.00000000000E+00  0.00000000000E+00  0.64999999231E+04  0.65000000000E+04  0.10000000000E+01 0.  0.
    9000001   -1    0    0    0    0 -0.00000000000E+00 -0.00000000000E+00 -0.64999999231E+04  0.65000000000E+04  0.10000000000E+01 0.  0.
    9000001    1    1    2    0    0 -0.46333247204E+04 -0.13821458792E+04 -0.43441885093E+04  0.65000000000E+04  0.10000000000E+01 0.  0.
    9000001    1    1    2    0    0  0.46333247204E+04  0.13821458792E+04  0.43441885093E+04  0.65000000000E+04  0.10000000000E+01 0.  0.
</event>
<event>
 4    1  0.2195261E-006  0.1300000E+05  0.7957747E-01  0.1322471E+00
    9000001   -1    0    0    0    0  0.00000000000E+00  0.00000000000E+00  0.64999999231E+04  0.65000000000E+04  0.10000000000E+01 0.  0.
    9000001   -1    0    0    0    0 -0.00000000000E+00 -0.00000000000E+00 -0.64999999231E+04  0.65000000000E+04  0.10000000000E+01 0.  0.
    9000001    1    1    2    0    0 -0.39618869753E+04 -0.29534313114E+04 -0.42226406529E+04  0.65000000000E+04  0.10000000000E+01 0.  0.
    9000001    1    1    2    0    0  0.39618869753E+04  0.29534313114E+04  0.42226406529E+04  0.65000000000E+04  0.10000000000E+01 0.  0.
</event>
<event>
 4    1  0.2195261E-006  0.1300000E+05  0.7957747E-01  0.1322471E+00
    9000001   -1    0    0    0    0  0.00000000000E+00  0.00000000000E+00  0.64999999231E+04  0.65000000000E+04  0.10000000000E+01 0.  0.
    9000001   -1    0    0    0    0 -0.00000000000E+00 -0.00000000000E+00 -0.64999999231E+04  0.65000000000E+04  0.10000000000E+01 0.  0.
    9000001    1    1    2    0    0  0.34553969739E+04  0.34084811991E+04 -0.43234808509E+04  0.65000000000E+04  0.10000000000E+01 0.  0.
    9000001    1    1    2    0    0 -0.34553969739E+04 -0.34084811991E+04  0.43234808509E+04  0.65000000000E+04  0.10000000000E+01 0.  0.
</event>
<event>
 4    1  0.2195261E-006  0.1300000E+05  0.7957747E-01  0.1322471E+00
    9000001   -1    0    0    0    0  0.00000000000E+00  0.00000000000E+00  0.64999999231E+04  0.65000000000E+04  0.10000000000E+01 0.  0.
    9000001   -1    0    0    0    0 -0.00000000000E+00 -0.00000000000E+00 -0.64999999231E+04  0.65000000000E+04  0.10000000000E+01 0.  0.
    9000001    1    1    2    0    0 -0.45510656390E+04 -0.24753947809E+04  0.39255854632E+04  0.65000000000E+04  0.10000000000E+01 0.  0.
    9000001    1    1    2    0    0  0.45510656390E+04  0.24753947809E+04 -0.39255854632E+04  0.65000000000E+04  0.10000000000E+01 0.  0.
</event>
<event>
 4    1  0.2195261E-006  0.1300000E+05  0.7957747E-01  0.1322471E+00
    9000001   -1    0    0    0    0  0.00000000000E+00  0.00000000000E+00  0.64999999231E+04  0.65000000000E+04  0.10000000000E+01 0.  0.
    9000001   -1    0    0    0    0 -0.00000000000E+00 -0.00000000000E+00 -0.64999999231E+04  0.65000000000E+04  0.10000000000E+01 0.  0.
    9000001    1    1    2    0    0  0.80850571117E+03 -0.36490124208E+04 -0.53179907736E+04  0.65000000000E+04  0.10000000000E+01 0.  0.
    9000001    1    1    2    0    0 -0.80850571117E+03  0.36490124208E+04  0.53179907736E+04  0.65000000000E+04  0.10000000000E+01 0.  0.
</event>
<event>
 4    1  0.2195261E-006  0.1300000E+05  0.7957747E-01  0.1322471E+00
    9000001   -1    0    0    0    0  0.00000000000E+00  0.00000000000E+00  0.64999999231E+04  0.65000000000E+04  0.10000000000E+01 0.  0.
    9000001   -1    0    0    0    0 -0.00000000000E+00 -0.00000000000E+00 -0.64999999231E+04  0.65000000000E+04  0.10000000000E+01 0.  0.
    9000001    1    1    2    0    0 -0.10323529014E+04  0.57172869204E+04 -0.29149402664E+04  0.65000000000E+04  0.10000000000E+01 0.  0.
    9000001    1    1    2    0    0  0.10323529014E+04 -0.57172869204E+04  0.29149402664E+04  0.65000000000E+04  0.10000000000E+01 0.  0.
</event>
<event>
 4    1  0.2195261E-006  0.1300000E+05  0.7957747E-01  0.1322471E+00
    9000001   -1    0    0    0    0  0.00000000000E+00  0.00000000000E+00  0.64999999231E+04  0.65000000000E+04  0.10000000000E+01 0.  0.
    9000001   -1    0    0    0    0 -0.00000000000E+00 -0.00000000000E+00 -0.64999999231E+04  0.65000000000E+04  0.10000000000E+01 0.  0.
    9000001    1    1    2    0    0  0.43814575700E+04 -0.45280885682E+04 -0.15966347360E+04  0.65000000000E+04  0.10000000000E+01 0.  0.
    9000001    1    1    2    0    0 -0.43814575700E+04  0.45280885682E+04  0.15966347360E+04  0.65000000000E+04  0.10000000000E+01 0.  0.
</event>
<event>
 4    1  0.2195261E-006  0.1300000E+05  0.7957747E-01  0.1322471E+00
    9000001   -1    0    0    0    0  0.00000000000E+00  0.00000000000E+00  0.64999999231E+04  0.65000000000E+04  0.10000000000E+01 0.  0.
    9000001   -1    0    0    0    0 -0.00000000000E+00 -0.00000000000E+00 -0.64999999231E+04  0.65000000000E+04  0.10000000000E+01 0.  0.
    9000001    1    1    2    0    0  0.44516682369E+04  0.47059899277E+04  0.53507729259E+03  0.65000000000E+04  0.10000000000E+01 0.  0.
    9000001    1    1    2    0    0 -0.44516682369E+04 -0.47059899277E+04 -0.53507729259E+03  0.65000000000E+04  0.10000000000E+01 0.  0.
</event>
<event>
 4    1  0.2195261E-006  0.1300000E+05  0.7957747E-01  0.1322471E+00
    9000001   -1    0    0    0    0  0.00000000000E+00  0.00000000000E+00  0.64999999231E+04  0.65000000000E+04  0.10000000000E+01 0.  0.
    9000001   -1    0    0    0    0 -0.00000000000E+00 -0.00000000000E+00 -0.64999999231E+04  0.65000000000E+04  0.10000000000E+01 0.  0.
    9000001    1    1    2    0    0  0.25386722149E+04 -0.38431981520E+04  0.45863896858E+04  0.65000000000E+04  0.10000000000E+01 0.  0.
    9000001    1    1    2    0    0 -0.25386722149E+04  0.38431981520E+04 -0.45863896858E+04  0.65000000000E+04  0.10000000000E+01 0.  0.
</event>
<event>
 4    1  0.2195261E-006  0.1300000E+05  0.7957747E-01  0.1322471E+00
    9000001   -1    0    0    0    0  0.00000000000E+00  0.00000000000E+00  0.64999999231E+04  0.65000000000E+04  0.10000000000E+01 0.  0.
    9000001   -1    0    0    0    0 -0.00000000000E+00 -0.00000000000E+00 -0.64999999231E+04  0.65000000000E+04  0.10000000000E+01 0.  0.
    9000001    1    1    2    0    0  0.48036639059E+04  0.43427828159E+04  0.56129269754E+03  0.65000000000E+04  0.10000000000E+01 0.  0.
    9000001    1    1    2    0    0 -0.48036639059E+04 -0.43427828159E+04 -0.56129269754E+03  0.65000000000E+04  0.10000000000E+01 0.  0.
</event>
<event>
 4    1  0.2195261E-006  0.1300000E+05  0.7957747E-01  0.1322471E+00
    9000001   -1    0    0    0    0  0.00000000000E+00  0.00000000000E+00  0.64999999231E+04  0.65000000000E+04  0.10000000000E+01 0.  0.
    9000001   -1    0    0    0    0 -0.00000000000E+00 -0.00000000000E+00 -0.64999999231E+04  0.65000000000E+04  0.10000000000E+01 0.  0.
    9000001    1    1    2    0    0  0.10784118015E+04 -0.32296613839E+04 -0.55368144571E+04  0.65000000000E+04  0.10000000000E+01 0.  0.
    9000001    1    1    2    0    0 -0.10784118015E+04  0.32296613839E+04  0.55368144571E+04  0.65000000000E+04  0.10000000000E+01 0.  0.
</event>
<event>
 4    1  0.2195261E-006  0.1300000E+05  0.7957747E-01  0.1322471E+00
    9000001   -1    0    0    0    0  0.00000000000E+00  0.00000000000E+00  0.64999999231E+04  0.65000000000E+04  0.10000000000E+01 0.  0.
    9000001   -1    0    0    0    0 -0.00000000000E+00 -0.00000000000E+00 -0.64999999231E+04  0.65000000000E+04  0.10000000000E+01 0.  0.
    9000001    1    1    2    0    0  0.10708400298E+03  0.35256587208E+04  0.54596943688E+04  0.65000000000E+04  0.10000000000E+01 0.  0.
    9000001    1    1    2    0    0 -0.10708400298E+03 -0.35256587208E+04 -0.54596943688E+04  0.65000000000E+04  0.10000000000E+01 0.  0.
</event>
<event>
 4    1  0.2195261E-006  0.1300000E+05  0.7957747E-01  0.1322471E+00
    9000001   -1    0    0    0    0  0.00000000000E+00  0.00000000000E+00  0.64999999231E+04  0.65000000000E+04  0.10000000000E+01 0.  0.
    9000001   -1    0    0    0    0 -0.00000000000E+00 -0.00000000000E+00 -0.64999999231E+04  0.65000000000E+04  0.10000000000E+01 0.  0.
    9000001    1    1    2    0    0 -0.59931280535E+03  0.41298019940E+04  0.49835287349E+04  0.65000000000E+04  0.10000000000E+01 0.  0.
    9000001    1    1    2    0    0  0.59931280535E+03 -0.41298019940E+04 -0.49835287349E+04  0.65000000000E+04  0.10000000000E+01 0.  0.
</event>
<event>
 4    1  0.2195261E-006  0.1300000E+05  0.7957747E-01  0.1322471E+00
    9000001   -1    0    0    0    0  0.00000000000E+00  0.00000000000E+00  0.64999999231E+04  0.65000000000E+04  0.10000000000E+01 0.  0.
    9000001   -1    0    0    0    0 -0.00000000000E+00 -0.00000000000E+00 -0.64999999231E+04  0.65000000000E+04  0.10000000000E+01 0.  0.
    9000001    1    1    2    0    0  0.53767818723E+04  0.73223146030E+03  0.35782751133E+04  0.65000000000E+04  0.10000000000E+01 0.  0.
    9000001    1    1    2    0    0 -0.53767818723E+04 -0.73223146030E+03 -0.35782751133E+04  0.65000000000E+04  0.10000000000E+01 0.  0.
</event>
<event>
 4    1  0.2195261E-006  0.1300000E+05  0.7957747E-01  0.1322471E+00
    9000001   -1    0    0    0    0  0.00000000000E+00  0.00000000000E+00  0.64999999231E+04  0.65000000000E+04  0.10000000000E+01 0.  0.
    9000001   -1    0    0    0    0 -0.00000000000E+00 -0.00000000000E+00 -0.64999999231E+04  0.65000000000E+04  0.10000000000E+01 0.  0.
    9000001    1    1    2    0    0  0.78043289168E+03  0.36749147504E+04 -0.53043307852E+04  0.65000000000E+04  0.10000000000E+01 0.  0.
    9000001    1    1    2    0    0 -0.78043289168E+03 -0.36749147504E+04  0.53043307852E+04  0.65000000000E+04  0.10000000000E+01 0.  0.
</event>
<event>
 4    1  0.2195261E-006  0.1300000E+05  0.7957747E-01  0.1322471E+00
    9000001   -1    0    0    0    0  0.00000000000E+00  0.00000000000E+00  0.64999999231E+04  0.65000000000E+04  0.10000000000E+01 0.  0.
    9000001   -1    0    0    0    0 -0.00000000000E+00 -0.00000000000E+00 -0.64999999231E+04  0.65000000000E+04  0.10000000000E+01 0.  0.
    9000001    1    1    2    0    0  0.41841372216E+04  0.49559625405E+04  0.42594601496E+03  0.65000000000E+04  0.10000000000E+01 0.  0.
    9000001    1    1    2    0    0 -0.41841372216E+04 -0.49559625405E+04 -0.42594601496E+03  0.65000000000E+04  0.10000000000E+01 0.  0.
</event>
<event>
 4    1  0.2195261E-006  0.1300000E+05  0.7957747E-01  0.1322471E+00
    9000001   -1    0    0    0    0  0.00000000000E+00  0.00000000000E+00  0.64999999231E+04  0.65000000000E+04  0.10000000000E+01 0.  0.
    9000001   -1    0    0    0    0 -0.00000000000E+00 -0.00000000000E+00 -0.64999999231E+04  0.65000000000E+04  0.10000000000E+01 0.  0.
    9000001    1    1    2    0    0 -0.30319152958E+04  0.56977243640E+04  0.77034129543E+03  0.65000000000E+04  0.10000000000E+01 0.  0.
    9000001    1    1    2    0    0  0.30319152958E+04 -0.56977243640E+04 -0.77034129543E+03  0.65000000000E+04  0.10000000000E+01 0.  0.
</event>
<event>
 4    1  0.2195261E-006  0.1300000E+05  0.7957747E-01  0.1322471E+00
    9000001   -1    0    0    0    0  0.00000000000E+00  0.00000000000E+00  0.64999999231E+04  0.65000000000E+04  0.10000000000E+01 0.  0.
    9000001   -1    0    0    0    0 -0.00000000000E+00 -0.00000000000E+00 -0.64999999231E+04  0.65000000000E+04  0.10000000000E+01 0.  0.
    9000001    1    1    2    0    0  0.10706313077E+04  0.55169771112E+04 -0.32659931350E+04  0.65000000000E+04  0.10000000000E+01 0.  0.
    9000001    1    1    2    0    0 -0.10706313077E+04 -0.55169771112E+04  0.32659931350E+04  0.65000000000E+04  0.10000000000E+01 0.  0.
</event>
<event>
 4    1  0.2195261E-006  0.1300000E+05  0.7957747E-01  0.1322471E+00
    9000001   -1    0    0    0    0  0.00000000000E+00  0.00000000000E+00  0.64999999231E+04  0.65000000000E+04  0.10000000000E+01 0.  0.
    9000001   -1    0    0    0    0 -0.00000000000E+00 -0.00000000000E+00 -0.64999999231E+04  0.65000000000E+04  0.10000000000E+01 0.  0.
    9000001    1    1    2    0    0  0.34578432277E+04  0.13264684270E+04  0.53417039159E+04  0.65000000000E+04  0.10000000000E+01 0.  0.
    9000001    1    1    2    0    0 -0.34578432277E+04 -0.13264684270E+04 -0.53417039159E+04  0.65000000000E+04  0.10000000000E+01 0.  0.
</event>
<event>
 4    1  0.2195261E-006  0.1300000E+05  0.7957747E-01  0.1322471E+00
    9000001   -1    0    0    0    0  0.00000000000E+00  0.00000000000E+00  0.64999999231E+04  0.65000000000E+04  0.10000000000E+01 0.  0.
    9000001   -1    0    0    0    0 -0.00000000000E+00 -0.00000000000E+00 -0.64999999231E+04  0.65000000000E+04  0.10000000000E+01 0.  0.
    9000001    1    1    2    0    0  0.20312176151E+04 -0.58681291096E+04 -0.19207328686E+04  0.65000000000E+04  0.10000000000E+01 0.  0.
    9000001    1    1    2    0    0 -0.20312176151E+04  0.58681291096E+04  0.19207328686E+04  0.65000000000E+04  0.10000000000E+01 0.  0.
</event>
<event>
 4    1  0.2195261E-006  0.1300000E+05  0.7957747E-01  0.1322471E+00
    9000001   -1    0    0    0    0  0.00000000000E+00  0.00000000000E+00  0.64999999231E+04  0.65000000000E+04  0.10000000000E+01 0.  0.
    9000001   -1    0    0    0    0 -0.00000000000E+00 -0.00000000000E+00 -0.64999999231E+04  0.65000000000E+04  0.10000000000E+01 0.  0.
    9000001    1    1    2    0    0  0.32636647520E+04 -0.12334528384E+04  0.54842579700E+04  0.65000000000E+04  0.10000000000E+01 0.  0.
    9000001    1    1    2    0    0 -0.32636647520E+04  0.12334528384E+04 -0.54842579700E+04  0.65000000000E+04  0.10000000000E+01 0.  0.
</event>
<event>
 4    1  0.2195261E-006  0.1300000E+05  0.7957747E-01  0.1322471E+00
    9000001   -1    0    0    0    0  0.00000000000E+00  0.00000000000E+00  0.64999999231E+04  0.65000000000E+04  0.10000000000E+01 0.  0.
    9000001   -1    0    0    0    0 -0.00000000000E+00 -0.00000000000E+00 -0.64999999231E+04  0.65000000000E+04  0.10000000000E+01 0.  0.
    9000001    1    1    2    0    0  0.14446979665E+04 -0.61606793322E+04 -0.14862291047E+04  0.65000000000E+04  0.10000000000E+01 0.  0.
    9000001    1    1    2    0    0 -0.14446979665E+04  0.61606793322E+04  0.14862291047E+04  0.65000000000E+04  0.10000000000E+01 0.  0.
</event>
<event>
 4    1  0.2195261E-006  0.1300000E+05  0.7957747E-01  0.1322471E+00
    9000001   -1    0    0    0    0  0.00000000000E+00  0.00000000000E+00  0.64999999231E+04  0.65000000000E+04  0.10000000000E+01 0.  0.
    9000001   -1    0    0    0    0 -0.00000000000E+00 -0.00000000000E+00 -0.64999999231E+04  0.65000000000E+04  0.10000000000E+01 0.  0.
    9000001    1    1    2    0    0  0.25179297068E+04  0.49978413312E+03  0.59716199487E+04  0.65000000000E+04  0.10000000000E+01 0.  0.
    9000001    1    1    2    0    0 -0.25179297068E+04 -0.49978413312E+03 -0.59716199487E+04  0.65000000000E+04  0.10000000000E+01 0.  0.
</event>
<event>
 4    1  0.2195261E-006  0.1300000E+05  0.7957747E-01  0.1322471E+00
    9000001   -1    0    0    0    0  0.00000000000E+00  0.00000000000E+00  0.64999999231E+04  0.65000000000E+04  0.10000000000E+01 0.  0.
    9000001   -1    0    0    0    0 -0.00000000000E+00 -0.00000000000E+00 -0.64999999231E+04  0.65000000000E+04  0.10000000000E+01 0.  0.
    9000001    1    1    2    0    0 -0.24473193415E+04 -0.39907892239E+04 -0.45093490008E+04  0.65000000000E+04  0.10000000000E+01 0.  0.
    9000001    1    1    2    0    0  0.24473193415E+04  0.39907892239E+04  0.45093490008E+04  0.65000000000E+04  0.10000000000E+01 0.  0.
</event>
<event>
 4    1  0.2195261E-006  0.1300000E+05  0.7957747E-01  0.1322471E+00
    9000001   -1    0    0    0    0  0.00000000000E+00  0.00000000000E+00  0.64999999231E+04  0.65000000000E+04  0.10000000000E+01 0.  0.
    9000001   -1    0    0    0    0 -0.00000000000E+00 -0.00000000000E+00 -0.64999999231E+04  0.65000000000E+04  0.10000000000E+01 0.  0.
    9000001    1    1    2    0    0  0.15025692608E+04  0.63010674120E+04 -0.53743286629E+03  0.65000000000E+04  0.10000000000E+01 0.  0.
    9000001    1    1    2    0    0 -0.15025692608E+04 -0.63010674120E+04  0.53743286629E+03  0.65000000000E+04  0.10000000000E+01 0.  0.
</event>
<event>
 4    1  0.2195261E-006  0.1300000E+05  0.7957747E-01  0.1322471E+00
    9000001   -1    0    0    0    0  0.00000000000E+00  0.00000000000E+00  0.64999999231E+04  0.65000000000E+04  0.10000000000E+01 0.  0.
    9000001   -1    0    0    0    0 -0.00000000000E+00 -0.00000000000E+00 -0.64999999231E+04  0.65000000000E+04  0.10000000000E+01 0.  0.
    9000001    1    1    2    0    0 -0.76490998533E+03 -0.12218825266E+04  0.63381318072E+04  0.65000000000E+04  0.10000000000E+01 0.  0.
    9000001    1    1    2    0    0  0.76490998533E+03  0.12218825266E+04 -0.63381318072E+04  0.65000000000E+04  0.10000000000E+01 0.  0.
</event>
<event>
 4    1  0.2195261E-006  0.1300000E+05  0.7957747E-01  0.1322471E+00
    9000001   -1    0    0    0    0  0.00000000000E+00  0.00000000000E+00  0.64999999231E+04  0.65000000000E+04  0.10000000000E+01 0.  0.
    9000001   -1    0    0    0    0 -0.00000000000E+00 -0.00000000000E+00 -0.64999999231E+04  0.65000000000E+04  0.10000000000E+01 0.  0.
    9000001    1    1    2    0    0  0.56609895779E+04 -0.28978295159E+04  0.13437931745E+04  0.65000000000E+04  0.10000000000E+01 0.  0.
    9000001    1    1    2    0    0 -0.56609895779E+04  0.28978295159E+04 -0.13437931745E+04  0.65000000000E+04  0.10000000000E+01 0.  0.
</event>
<event>
 4    1  0.2195261E-006  0.1300000E+05  0.7957747E-01  0.1322471E+00
    9000001   -1    0    0    0    0  0.00000000000E+00  0.00000000000E+00  0.64999999231E+04  0.65000000000E+04  0.10000000000E+01 0.  0.
    9000001   -1    0    0    0    0 -0.00000000000E+00 -0.00000000000E+00 -0.64999999231E+04  0.65000000000E+04  0.10000000000E+01 0.  0.
    9000001    1    1    2    0    0 -0.29534151554E+03  0.63825881017E+04  0.11938766740E+04  0.65000000000E+04  0.10000000000E+01 0.  0.
    9000001    1    1    2    0    0  0.29534151554E+03 -0.63825881017E+04 -0.11938766740E+04  0.65000000000E+04  0.10000000000E+01 0.  0.
</event>
<event>
 4    1  0.2195261E-006  0.1300000E+05  0.7957747E-01  0.1322471E+00
    9000001   -1    0    0    0    0  0.00000000000E+00  0.00000000000E+00  0.64999999231E+04  0.65000000000E+04  0.10000000000E+01 0.  0.
    9000001   -1    0    0    0    0 -0.00000000000E+00 -0.00000000000E+00 -0.64999999231E+04  0.65000000000E+04  0.10000000000E+01 0.  0.
    9000001    1    1    2    0    0  0.46110729259E+03 -0.30886410008E+04  0.57006732789E+04  0.65000000000E+04  0.10000000000E+01 0.  0.
    9000001    1    1    2    0    0 -0.46110729259E+03  0.30886410008E+04 -0.57006732789E+04  0.65000000000E+04  0.10000000000E+01 0.  0.
</event>
<event>
 4    1  0.2195261E-006  0.1300000E+05  0.7957747E-01  0.1322471E+00
    9000001   -1    0    0    0    0  0.00000000000E+00  0.00000000000E+00  0.64999999231E+04  0.65000000000E+04  0.10000000000E+01 0.  0.
    9000001   -1    0    0    0    0 -0.00000000000E+00 -0.00000000000E+00 -0.64999999231E+04  0.65000000000E+04  0.10000000000E+01 0.  0.
    9000001    1    1    2    0    0 -0.20813269729E+04 -0.80402174015E+03  0.61050492277E+04  0.65000000000E+04  0.10000000000E+01 0.  0.
    9000001    1    1    2    0    0  0.20813269729E+04  0.80402174015E+03 -0.61050492277E+04  0.65000000000E+04  0.10000000000E+01 0.  0.
</event>
<event>
 4    1  0.2195261E-006  0.1300000E+05  0.7957747E-01  0.1322471E+00
    9000001   -1    0    0    0    0  0.00000000000E+00  0.00000000000E+00  0.64999999231E+04  0.65000000000E+04  0.10000000000E+01 0.  0.
    9000001   -1    0    0    0    0 -0.00000000000E+00 -0.00000000000E+00 -0.64999999231E+04  0.65000000000E+04  0.10000000000E+01 0.  0.
    9000001    1    1    2    0    0 -0.72588946878E+03 -0.13143565375E+04 -0.63242035365E+04  0.65000000000E+04  0.10000000000E+01 0.  0.
    9000001    1    1    2    0    0  0.72588946878E+03  0.13143565375E+04  0.63242035365E+04  0.65000000000E+04  0.10000000000E+01 0.  0.
</event>
<event>
 4    1  0.2195261E-006  0.1300000E+05  0.7957747E-01  0.1322471E+00
    9000001   -1    0    0    0    0  0.00000000000E+00  0.00000000000E+00  0.64999999231E+04  0.65000000000E+04  0.10000000000E+01 0.  0.
    9000001   -1    0    0    0    0 -0.00000000000E+00 -0.00000000000E+00 -0.64999999231E+04  0.65000000000E+04  0.10000000000E+01 0.  0.
    9000001    1    1    2    0    0 -0.79880082604E+03 -0.60253773970E+04 -0.23036370078E+04  0.65000000000E+04  0.10000000000E+01 0.  0.
    9000001    1    1    2    0    0  0.79880082604E+03  0.60253773970E+04  0.23036370078E+04  0.65000000000E+04  0.10000000000E+01 0.  0.
</event>
<event>
 4    1  0.2195261E-006  0.1300000E+05  0.7957747E-01  0.1322471E+00
    9000001   -1    0    0    0    0  0.00000000000E+00  0.00000000000E+00  0.64999999231E+04  0.65000000000E+04  0.10000000000E+01 0.  0.
    9000001   -1    0    0    0    0 -0.00000000000E+00 -0.00000000000E+00 -0.64999999231E+04  0.65000000000E+04  0.10000000000E+01 0.  0.
    9000001    1    1    2    0    0  0.29094851959E+03 -0.18770848935E+04  0.62162609551E+04  0.65000000000E+04  0.10000000000E+01 0.  0.
    9000001    1    1    2    0    0 -0.29094851959E+03  0.18770848935E+04 -0.62162609551E+04  0.65000000000E+04  0.10000000000E+01 0.  0.
</event>
<event>
 4    1  0.2195261E-006  0.1300000E+05  0.7957747E-01  0.1322471E+00
    9000001   -1    0    0    0    0  0.00000000000E+00  0.00000000000E+00  0.64999999231E+04  0.65000000000E+04  0.10000000000E+01 0.  0.
    9000001   -1    0    0    0    0 -0.00000000000E+00 -0.00000000000E+00 -0.64999999231E+04  0.65000000000E+04  0.10000000000E+01 0.  0.
    9000001    1    1    2    0    0  0.16716223505E+04  0.10810547507E+03  0.62804451214E+04  0.65000000000E+04  0.10000000000E+01 0.  0.
    9000001    1    1    2    0    0 -0.16716223505E+04 -0.10810547507E+03 -0.62804451214E+04  0.65000000000E+04  0.10000000000E+01 0.  0.
</event>
<event>
 4    1  0.2195261E-006  0.1300000E+05  0.7957747E-01  0.1322471E+00
    9000001   -1    0    0    0    0  0.00000000000E+00  0.00000000000E+00  0.64999999231E+04  0.65000000000E+04  0.10000000000E+01 0.  0.
    9000001   -1    0    0    0    0 -0.00000000000E+00 -0.00000000000E+00 -0.64999999231E+04  0.65000000000E+04  0.10000000000E+01 0.  0.
    9000001    1    1    2    0    0  0.17712159079E+04  0.16338468600E+04 -0.60368317556E+04  0.65000000000E+04  0.10000000000E+01 0.  0.
    9000001    1    1    2    0    0 -0.17712159079E+04 -0.16338468600E+04  0.60368317556E+04  0.65000000000E+04  0.10000000000E+01 0.  0.
</event>
<event>
 4    1  0.2195261E-006  0.1300000E+05  0.7957747E-01  0.1322471E+00
    9000001   -1    0    0    0    0  0.00000000000E+00  0.00000000000E+00  0.64999999231E+04  0.65000000000E+04  0.10000000000E+01 0.  0.
    9000001   -1    0    0    0    0 -0.00000000000E+00 -0.00000000000E+00 -0.64999999231E+04  0.65000000000E+04  0.10000000000E+01 0.  0.
    9000001    1    1    2    0    0 -0.28839587622E+04 -0.13746190174E+04 -0.56606716399E+04  0.65000000000E+04  0.10000000000E+01 0.  0.
    9000001    1    1    2    0    0  0.28839587622E+04  0.13746190174E+04  0.56606716399E+04  0.65000000000E+04  0.10000000000E+01 0.  0.
</event>
<event>
 4    1  0.2195261E-006  0.1300000E+05  0.7957747E-01  0.1322471E+00
    9000001   -1    0    0    0    0  0.00000000000E+00  0.00000000000E+00  0.64999999231E+04  0.65000000000E+04  0.10000000000E+01 0.  0.
    9000001   -1    0    0    0    0 -0.00000000000E+00 -0.00000000000E+00 -0.64999999231E+04  0.65000000000E+04  0.10000000000E+01 0.  0.
    9000001    1    1    2    0    0  0.21314245216E+03 -0.63472134883E+04 -0.13847202711E+04  0.65000000000E+04  0.10000000000E+01 0.  0.
    9000001    1    1    2    0    0 -0.21314245216E+03  0.63472134883E+04  0.13847202711E+04  0.65000000000E+04  0.10000000000E+01 0.  0.
</event>
<event>
 4    1  0.2195261E-006  0.1300000E+05  0.7957747E-01  0.1322471E+00
    9000001   -1    0    0    0    0  0.00000000000E+00  0.00000000000E+00  0.64999999231E+04  0.65000000000E+04  0.10000000000E+01 0.  0.
    9000001   -1    0    0    0    0 -0.00000000000E+00 -0.00000000000E+00 -0.64999999231E+04  0.65000000000E+04  0.10000000000E+01 0.  0.
    9000001    1    1    2    0    0  0.16622972236E+03 -0.52843031710E+04  0.37813366256E+04  0.65000000000E+04  0.10000000000E+01 0.  0.
    9000001    1    1    2    0    0 -0.16622972236E+03  0.52843031710E+04 -0.37813366256E+04  0.65000000000E+04  0.10000000000E+01 0.  0.
</event>
<event>
 4    1  0.2195261E-006  0.1300000E+05  0.7957747E-01  0.1322471E+00
    9000001   -1    0    0    0    0  0.00000000000E+00  0.00000000000E+00  0.64999999231E+04  0.65000000000E+04  0.10000000000E+01 0.  0.
    9000001   -1    0    0    0    0 -0.00000000000E+00 -0.00000000000E+00 -0.64999999231E+04  0.65000000000E+04  0.10000000000E+01 0.  0.
    9000001    1    1    2    0    0  0.64144475794E+04  0.10465242339E+04  0.98225654847E+02  0.65000000000E+04  0.10000000000E+01 0.  0.
    9000001    1    1    2    0    0 -0.64144475794E+04 -0.10465242339E+04 -0.98225654847E+02  0.65000000000E+04  0.10000000000E+01 0.  0.
</event>
<event>
 4    1  0.2195261E-006  0.1300000E+05  0.7957747E-01  0.1322471E+00
    9000001   -1    0    0    0    0  0.00000000000E+00  0.00000000000E+00  0.64999999231E+04  0.65000000000E+04  0.10000000000E+01 0.  0.
    9000001   -1    0    0    0    0 -0.00000000000E+00 -0.00000000000E+00 -0.64999999231E+04  0.65000000000E+04  0.10000000000E+01 0.  0.
    9000001    1    1    2    0    0  0.42798739364E+04  0.34714148257E+04  0.34470214964E+04  0.65000000000E+04  0.10000000000E+01 0.  0.
    9000001    1    1    2    0    0 -0.42798739364E+04 -0.34714148257E+04 -0.34470214964E+04  0.65000000000E+04  0.10000000000E+01 0.  0.
</event>
<event>
 4    1  0.2195261E-006  0.1300000E+05  0.7957747E-01  0.1322471E+00
    9000001   -1    0    0    0    0  0.00000000000E+00  0.00000000000E+00  0.64999999231E+04  0.65000000000E+04  0.10000000000E+01 0.  0.
    9000001   -1    0    0    0    0 -0.00000000000E+00 -0.00000000000E+00 -0.64999999231E+04  0.65000000000E+04  0.10000000000E+01 0.  0.
    9000001    1    1    2    0    0  0.58650033982E+04  0.23286033884E+04 -0.15586341451E+04  0.65000000000E+04  0.10000000000E+01 0.  0.
    9000001    1    1    2    0    0 -0.58650033982E+04 -0.23286033884E+04  0.15586341451E+04  0.65000000000E+04  0.10000000000E+01 0.  0.
</event>
<event>
 4    1  0.2195261E-006  0.1300000E+05  0.7957747E-01  0.1322471E+00
    9000001   -1    0    0    0    0  0.00000000000E+00  0.00000000000E+00  0.64999999231E+04  0.65000000000E+04  0.10000000000E+01 0.  0.
    9000001   -1    0    0    0    0 -0.00000000000E+00 -0.00000000000E+00 -0.64999999231E+04  0.65000000000E+04  0.10000000000E+01 0.  0.
    9000001    1    1    2    0    0 -0.21761319934E+04  0.31195256289E+04 -0.52709589638E+04  0.65000000000E+04  0.10000000000E+01 0.  0.
    9000001    1    1    2    0    0  0.21761319934E+04 -0.31195256289E+04  0.52709589638E+04  0.65000000000E+04  0.10000000000E+01 0.  0.
</event>
<event>
 4    1  0.2195261E-006  0.1300000E+05  0.7957747E-01  0.1322471E+00
    9000001   -1    0    0    0    0  0.00000000000E+00  0.00000000000E+00  0.64999999231E+04  0.65000000000E+04  0.10000000000E+01 0.  0.
    9000001   -1    0    0    0    0 -0.00000000000E+00 -0.00000000000E+00 -0.64999999231E+04  0.65000000000E+04  0.10000000000E+01 0.  0.
    9000001    1    1    2    0    0  0.64321631496E+04 -0.25551251900E+03 -0.90110463877E+03  0.65000000000E+04  0.10000000000E+01 0.  0.
    9000001    1    1    2    0    0 -0.64321631496E+04  0.25551251900E+03  0.90110463877E+03  0.65000000000E+04  0.10000000000E+01 0.  0.
</event>
<event>
 4    1  0.2195261E-006  0.1300000E+05  0.7957747E-01  0.1322471E+00
    9000001   -1    0    0    0    0  0.00000000000E+00  0.00000000000E+00  0.64999999231E+04  0.65000000000E+04  0.10000000000E+01 0.  0.
    9000001   -1    0    0    0    0 -0.00000000000E+00 -0.00000000000E+00 -0.64999999231E+04  0.65000000000E+04  0.10000000000E+01 0.  0.
    9000001    1    1    2    0    0  0.48599617715E+04  0.32225392931E+04 -0.28715868581E+04  0.65000000000E+04  0.10000000000E+01 0.  0.
    9000001    1    1    2    0    0 -0.48599617715E+04 -0.32225392931E+04  0.28715868581E+04  0.65000000000E+04  0.10000000000E+01 0.  0.
</event>
<event>
 4    1  0.2195261E-006  0.1300000E+05  0.7957747E-01  0.1322471E+00
    9000001   -1    0    0    0    0  0.00000000000E+00  0.00000000000E+00  0.64999999231E+04  0.65000000000E+04  0.10000000000E+01 0.  0.
    9000001   -1    0    0    0    0 -0.00000000000E+00 -0.00000000000E+00 -0.64999999231E+04  0.65000000000E+04  0.10000000000E+01 0.  0.
    9000001    1    1    2    0    0  0.56391190674E+02 -0.46372870469E+04  0.45543811740E+04  0.65000000000E+04  0.10000000000E+01 0.  0.
    9000001    1    1    2    0    0 -0.56391190674E+02  0.46372870469E+04 -0.45543811740E+04  0.65000000000E+04  0.10000000000E+01 0.  0.
</event>
<event>
 4    1  0.2195261E-006  0.1300000E+05  0.7957747E-01  0.1322471E+00
    9000001   -1    0    0    0    0  0.00000000000E+00  0.00000000000E+00  0.64999999231E+04  0.65000000000E+04  0.10000000000E+01 0.  0.
    9000001   -1    0    0    0    0 -0.00000000000E+00 -0.00000000000E+00 -0.64999999231E+04  0.65000000000E+04  0.10000000000E+01 0.  0.
    9000001    1    1    2    0    0 -0.33030002388E+03  0.65418865913E+03 -0.64585554184E+04  0.65000000000E+04  0.10000000000E+01 0.  0.
    9000001    1    1    2    0    0  0.33030002388E+03 -0.65418865913E+03  0.64585554184E+04  0.65000000000E+04  0.10000000000E+01 0.  0.
</event>
<event>
 4    1  0.2195261E-006  0.1300000E+05  0.7957747E-01  0.1322471E+00
    9000001   -1    0    0    0    0  0.00000000000E+00  0.00000000000E+00  0.64999999231E+04  0.65000000000E+04  0.10000000000E+01 0.  0.
    9000001   -1    0    0    0    0 -0.00000000000E+00 -0.00000000000E+00 -0.64999999231E+04  0.65000000000E+04  0.10000000000E+01 0.  0.
    9000001    1    1    2    0    0 -0.16835593200E+03 -0.32012337216E+04 -0.56545342814E+04  0.65000000000E+04  0.10000000000E+01 0.  0.
    9000001    1    1    2    0    0  0.16835593200E+03  0.32012337216E+04  0.56545342814E+04  0.65000000000E+04  0.10000000000E+01 0.  0.
</event>
<event>
 4    1  0.2195261E-006  0.1300000E+05  0.7957747E-01  0.1322471E+00
    9000001   -1    0    0    0    0  0.00000000000E+00  0.00000000000E+00  0.64999999231E+04  0.65000000000E+04  0.10000000000E+01 0.  0.
    9000001   -1    0    0    0    0 -0.00000000000E+00 -0.00000000000E+00 -0.64999999231E+04  0.65000000000E+04  0.10000000000E+01 0.  0.
    9000001    1    1    2    0    0 -0.32406050197E+04  0.54677111561E+04  0.13611072036E+04  0.65000000000E+04  0.10000000000E+01 0.  0.
    9000001    1    1    2    0    0  0.32406050197E+04 -0.54677111561E+04 -0.13611072036E+04  0.65000000000E+04  0.10000000000E+01 0.  0.
</event>
<event>
 4    1  0.2195261E-006  0.1300000E+05  0.7957747E-01  0.1322471E+00
    9000001   -1    0    0    0    0  0.00000000000E+00  0.00000000000E+00  0.64999999231E+04  0.65000000000E+04  0.10000000000E+01 0.  0.
    9000001   -1    0    0    0    0 -0.00000000000E+00 -0.00000000000E+00 -0.64999999231E+04  0.65000000000E+04  0.10000000000E+01 0.  0.
    9000001    1    1    2    0    0  0.48509548743E+04 -0.37590432003E+04  0.21419220401E+04  0.65000000000E+04  0.10000000000E+01 0.  0.
    9000001    1    1    2    0    0 -0.48509548743E+04  0.37590432003E+04 -0.21419220401E+04  0.65000000000E+04  0.10000000000E+01 0.  0.
</event>
<event>
 4    1  0.2195261E-006  0.1300000E+05  0.7957747E-01  0.1322471E+00
    9000001   -1    0    0    0    0  0.00000000000E+00  0.00000000000E+00  0.64999999231E+04  0.65000000000E+04  0.10000000000E+01 0.  0.
    9000001   -1    0    0    0    0 -0.00000000000E+00 -0.00000000000E+00 -0.64999999231E+04  0.65000000000E+04  0.10000000000E+01 0.  0.
    9000001    1    1    2    0    0  0.24909856380E+04 -0.38330655354E+04  0.46208871608E+04  0.65000000000E+04  0.10000000000E+01 0.  0.
    9000001    1    1    2    0    0 -0.24909856380E+04  0.38330655354E+04 -0.46208871608E+04  0.65000000000E+04  0.10000000000E+01 0.  0.
</event>
<event>
 4    1  0.2195261E-006  0.1300000E+05  0.7957747E-01  0.1322471E+00
    9000001   -1    0    0    0    0  0.00000000000E+00  0.00000000000E+00  0.64999999231E+04  0.65000000000E+04  0.10000000000E+01 0.  0.
    9000001   -1    0    0    0    0 -0.00000000000E+00 -0.00000000000E+00 -0.64999999231E+04  0.65000000000E+04  0.10000000000E+01 0.  0.
    9000001    1    1    2    0    0 -0.54914963741E+04 -0.23921265441E+04 -0.25241230498E+04  0.65000000000E+04  0.10000000000E+01 0.  0.
    9000001    1    1    2    0    0  0.54914963741E+04  0.23921265441E+04  0.25241230498E+04  0.65000000000E+04  0.10000000000E+01 0.  0.
</event>
<event>
 4    1  0.2195261E-006  0.1300000E+05  0.7957747E-01  0.1322471E+00
    9000001   -1    0    0    0    0  0.00000000000E+00  0.00000000000E+00  0.64999999231E+04  0.65000000000E+04  0.10000000000E+01 0.  0.
    9000001   -1    0    0    0    0 -0.00000000000E+00 -0.00000000000E+00 -0.64999999231E+04  0.65000000000E+04  0.10000000000E+01 0.  0.
    9000001    1    1    2    0    0 -0.24096789164E+04  0.42723179651E+04 -0.42650610459E+04  0.65000000000E+04  0.10000000000E+01 0.  0.
    9000001    1    1    2    0    0  0.24096789164E+04 -0.42723179651E+04  0.42650610459E+04  0.65000000000E+04  0.10000000000E+01 0.  0.
</event>
<event>
 4    1  0.2195261E-006  0.1300000E+05  0.7957747E-01  0.1322471E+00
    9000001   -1    0    0    0    0  0.00000000000E+00  0.00000000000E+00  0.64999999231E+04  0.65000000000E+04  0.10000000000E+01 0.  0.
    9000001   -1    0    0    0    0 -0.00000000000E+00 -0.00000000000E+00 -0.64999999231E+04  0.65000000000E+04  0.10000000000E+01 0.  0.
    9000001    1    1    2    0    0  0.47019746273E+04 -0.24006743428E+04  0.37918592147E+04  0.65000000000E+04  0.10000000000E+01 0.  0.
    9000001    1    1    2    0    0 -0.47019746273E+04  0.24006743428E+04 -0.37918592147E+04  0.65000000000E+04  0.10000000000E+01 0.  0.
</event>
<event>
 4    1  0.2195261E-006  0.1300000E+05  0.7957747E-01  0.1322471E+00
    9000001   -1    0    0    0    0  0.00000000000E+00  0.00000000000E+00  0.64999999231E+04  0.65000000000E+04  0.10000000000E+01 0.  0.
    9000001   -1    0    0    0    0 -0.00000000000E+00 -0.00000000000E+00 -0.64999999231E+04  0.65000000000E+04  0.10000000000E+01 0.  0.
    9000001    1    1    2    0    0  0.61255687930E+04  0.14685680511E+04 -0.16033445799E+04  0.65000000000E+04  0.10000000000E+01 0.  0.
    9000001    1    1    2    0    0 -0.61255687930E+04 -0.14685680511E+04  0.16033445799E+04  0.65000000000E+04  0.10000000000E+01 0.  0.
</event>
<event>
 4    1  0.2195261E-006  0.1300000E+05  0.7957747E-01  0.1322471E+00
    9000001   -1    0    0    0    0  0.00000000000E+00  0.00000000000E+00  0.64999999231E+04  0.65000000000E+04  0.10000000000E+01 0.  0.
    9000001   -1    0    0    0    0 -0.00000000000E+00 -0.00000000000E+00 -0.64999999231E+04  0.65000000000E+04  0.10000000000E+01 0.  0.
    9000001    1    1    2    0    0  0.53218857050E+04 -0.34994599870E+04  0.12966539023E+04  0.65000000000E+04  0.10000000000E+01 0.  0.
    9000001    1    1    2    0    0 -0.53218857050E+04  0.34994599870E+04 -0.12966539023E+04  0.65000000000E+04  0.10000000000E+01 0.  0.
</event>
<event>
 4    1  0.2195261E-006  0.1300000E+05  0.7957747E-01  0.1322471E+00
    9000001   -1    0    0    0    0  0.00000000000E+00  0.00000000000E+00  0.64999999231E+04  0.65000000000E+04  0.10000000000E+01 0.  0.
    9000001   -1    0    0    0    0 -0.00000000000E+00 -0.00000000000E+00 -0.64999999231E+04  0.65000000000E+04  0.10000000000E+01 0.  0.
    9000001    1    1    2    0    0 -0.57748466446E+04  0.25956720447E+04  0.14709289132E+04  0.65000000000E+04  0.10000000000E+01 0.  0.
    9000001    1    1    2    0    0  0.57748466446E+04 -0.25956720447E+04 -0.14709289132E+04  0.65000000000E+04  0.10000000000E+01 0.  0.
</event>
<event>
 4    1  0.2195261E-006  0.1300000E+05  0.7957747E-01  0.1322471E+00
    9000001   -1    0    0    0    0  0.00000000000E+00  0.00000000000E+00  0.64999999231E+04  0.65000000000E+04  0.10000000000E+01 0.  0.
    9000001   -1    0    0    0    0 -0.00000000000E+00 -0.00000000000E+00 -0.64999999231E+04  0.65000000000E+04  0.10000000000E+01 0.  0.
    9000001    1    1    2    0    0  0.25675598392E+04  0.59398818897E+04 -0.61273045374E+03  0.65000000000E+04  0.10000000000E+01 0.  0.
    9000001    1    1    2    0    0 -0.25675598392E+04 -0.59398818897E+04  0.61273045374E+03  0.65000000000E+04  0.10000000000E+01 0.  0.
</event>
<event>
 4    1  0.2195261E-006  0.1300000E+05  0.7957747E-01  0.1322471E+00
    9000001   -1    0    0    0    0  0.00000000000E+00  0.00000000000E+00  0.64999999231E+04  0.65000000000E+04  0.10000000000E+01 0.  0.
    9000001   -1    0    0    0    0 -0.00000000000E+00 -0.00000000000E+00 -0.64999999231E+04  0.65000000000E+04  0.10000000000E+01 0.  0.
    9000001    1    1    2    0    0 -0.13673965226E+04  0.61710979998E+04  0.15158414255E+04  0.65000000000E+04  0.10000000000E+01 0.  0.
    9000001    1    1    2    0    0  0.13673965226E+04 -0.61710979998E+04 -0.15158414255E+04  0.65000000000E+04  0.10000000000E+01 0.  0.
</event>
<event>
 4    1  0.2195261E-006  0.1300000E+05  0.7957747E-01  0.1322471E+00
    9000001   -1    0    0    0    0  0.00000000000E+00  0.00000000000E+00  0.64999999231E+04  0.65000000000E+04  0.10000000000E+01 0.  0.
    9000001   -1    0    0    0    0 -0.00000000000E+00 -0.00000000000E+00 -0.64999999231E+04  0.65000000000E+04  0.10000000000E+01 0.  0.
    9000001    1    1    2    0    0  0.12706832834E+04  0.47381319602E+04 -0.42644423459E+04  0.65000000000E+04  0.10000000000E+01 0.  0.
    9000001    1    1    2    0    0 -0.12706832834E+04 -0.47381319602E+04  0.42644423459E+04  0.65000000000E+04  0.10000000000E+01 0.  0.
</event>
<event>
 4    1  0.2195261E-006  0.1300000E+05  0.7957747E-01  0.1322471E+00
    9000001   -1    0    0    0    0  0.00000000000E+00  0.00000000000E+00  0.64999999231E+04  0.65000000000E+04  0.10000000000E+01 0.  0.
    9000001   -1    0    0    0    0 -0.00000000000E+00 -0.00000000000E+00 -0.64999999231E+04  0.65000000000E+04  0.10000000000E+01 0.  0.
    9000001    1    1    2    0    0 -0.23403522492E+04  0.25250898683E+04  0.55133176497E+04  0.65000000000E+04  0.10000000000E+01 0.  0.
    9000001    1    1    2    0    0  0.23403522492E+04 -0.25250898683E+04 -0.55133176497E+04  0.65000000000E+04  0.10000000000E+01 0.  0.
</event>
<event>
 4    1  0.2195261E-006  0.1300000E+05  0.7957747E-01  0.1322471E+00
    9000001   -1    0    0    0    0  0.00000000000E+00  0.00000000000E+00  0.64999999231E+04  0.65000000000E+04  0.10000000000E+01 0.  0.
    9000001   -1    0    0    0    0 -0.00000000000E+00 -0.00000000000E+00 -0.64999999231E+04  0.65000000000E+04  0.10000000000E+01 0.  0.
    9000001    1    1    2    0    0  0.20462683294E+04  0.54259176613E+04 -0.29363587071E+04  0.65000000000E+04  0.10000000000E+01 0.  0.
    9000001    1    1    2    0    0 -0.20462683294E+04 -0.54259176613E+04  0.29363587071E+04  0.65000000000E+04  0.10000000000E+01 0.  0.
</event>
<event>
 4    1  0.2195261E-006  0.1300000E+05  0.7957747E-01  0.1322471E+00
    9000001   -1    0    0    0    0  0.00000000000E+00  0.00000000000E+00  0.64999999231E+04  0.65000000000E+04  0.10000000000E+01 0.  0.
    9000001   -1    0    0    0    0 -0.00000000000E+00 -0.00000000000E+00 -0.64999999231E+04  0.65000000000E+04  0.10000000000E+01 0.  0.
    9000001    1    1    2    0    0  0.22482032039E+04  0.32689767468E+04 -0.51487253163E+04  0.65000000000E+04  0.10000000000E+01 0.  0.
    9000001    1    1    2    0    0 -0.22482032039E+04 -0.32689767468E+04  0.51487253163E+04  0.65000000000E+04  0.10000000000E+01 0.  0.
</event>
<event>
 4    1  0.2195261E-006  0.1300000E+05  0.7957747E-01  0.1322471E+00
    9000001   -1    0    0    0    0  0.00000000000E+00  0.00000000000E+00  0.64999999231E+04  0.65000000000E+04  0.10000000000E+01 0.  0.
    9000001   -1    0    0    0    0 -0.00000000000E+00 -0.00000000000E+00 -0.64999999231E+04  0.65000000000E+04  0.10000000000E+01 0.  0.
    9000001    1    1    2    0    0  0.55794445143E+04  0.30071380869E+04  0.14411517749E+04  0.65000000000E+04  0.10000000000E+01 0.  0.
    9000001    1    1    2    0    0 -0.55794445143E+04 -0.30071380869E+04 -0.14411517749E+04  0.65000000000E+04  0.10000000000E+01 0.  0.
</event>
<event>
 4    1  0.2195261E-006  0.1300000E+05  0.7957747E-01  0.1322471E+00
    9000001   -1    0    0    0    0  0.00000000000E+00  0.00000000000E+00  0.64999999231E+04  0.65000000000E+04  0.10000000000E+01 0.  0.
    9000001   -1    0    0    0    0 -0.00000000000E+00 -0.00000000000E+00 -0.64999999231E+04  0.65000000000E+04  0.10000000000E+01 0.  0.
    9000001    1    1    2    0    0  0.63420966389E+04  0.58022852077E+03  0.13004399590E+04  0.65000000000E+04  0.10000000000E+01 0.  0.
    9000001    1    1    2    0    0 -0.63420966389E+04 -0.58022852077E+03 -0.13004399590E+04  0.65000000000E+04  0.10000000000E+01 0.  0.
</event>
<event>
 4    1  0.2195261E-006  0.1300000E+05  0.7957747E-01  0.1322471E+00
    9000001   -1    0    0    0    0  0.00000000000E+00  0.00000000000E+00  0.64999999231E+04  0.65000000000E+04  0.10000000000E+01 0.  0.
    9000001   -1    0    0    0    0 -0.00000000000E+00 -0.00000000000E+00 -0.64999999231E+04  0.65000000000E+04  0.10000000000E+01 0.  0.
    9000001    1    1    2    0    0  0.39480479603E+04 -0.43105651295E+04  0.28428761084E+04  0.65000000000E+04  0.10000000000E+01 0.  0.
    9000001    1    1    2    0    0 -0.39480479603E+04  0.43105651295E+04 -0.28428761084E+04  0.65000000000E+04  0.10000000000E+01 0.  0.
</event>
<event>
 4    1  0.2195261E-006  0.1300000E+05  0.7957747E-01  0.1322471E+00
    9000001   -1    0    0    0    0  0.00000000000E+00  0.00000000000E+00  0.64999999231E+04  0.65000000000E+04  0.10000000000E+01 0.  0.
    9000001   -1    0    0    0    0 -0.00000000000E+00 -0.00000000000E+00 -0.64999999231E+04  0.65000000000E+04  0.10000000000E+01 0.  0.
    9000001    1    1    2    0    0  0.56763266566E+04  0.62545706604E+03  0.31045318723E+04  0.65000000000E+04  0.10000000000E+01 0.  0.
    9000001    1    1    2    0    0 -0.56763266566E+04 -0.62545706604E+03 -0.31045318723E+04  0.65000000000E+04  0.10000000000E+01 0.  0.
</event>
<event>
 4    1  0.2195261E-006  0.1300000E+05  0.7957747E-01  0.1322471E+00
    9000001   -1    0    0    0    0  0.00000000000E+00  0.00000000000E+00  0.64999999231E+04  0.65000000000E+04  0.10000000000E+01 0.  0.
    9000001   -1    0    0    0    0 -0.00000000000E+00 -0.00000000000E+00 -0.64999999231E+04  0.65000000000E+04  0.10000000000E+01 0.  0.
    9000001    1    1    2    0    0 -0.42496118847E+04  0.38297000668E+04  0.30861294897E+04  0.65000000000E+04  0.10000000000E+01 0.  0.
    9000001    1    1    2    0    0  0.42496118847E+04 -0.38297000668E+04 -0.30861294897E+04  0.65000000000E+04  0.10000000000E+01 0.  0.
</event>
<event>
 4    1  0.2195261E-006  0.1300000E+05  0.7957747E-01  0.1322471E+00
    9000001   -1    0    0    0    0  0.00000000000E+00  0.00000000000E+00  0.64999999231E+04  0.65000000000E+04  0.10000000000E+01 0.  0.
    9000001   -1    0    0    0    0 -0.00000000000E+00 -0.00000000000E+00 -0.64999999231E+04  0.65000000000E+04  0.10000000000E+01 0.  0.
    9000001    1    1    2    0    0 -0.52601286125E+03 -0.15518561696E+04 -0.62900756672E+04  0.65000000000E+04  0.10000000000E+01 0.  0.
    9000001    1    1    2    0    0  0.52601286125E+03  0.15518561696E+04  0.62900756672E+04  0.65000000000E+04  0.10000000000E+01 0.  0.
</event>
<event>
 4    1  0.2195261E-006  0.1300000E+05  0.7957747E-01  0.1322471E+00
    9000001   -1    0    0    0    0  0.00000000000E+00  0.00000000000E+00  0.64999999231E+04  0.65000000000E+04  0.10000000000E+01 0.  0.
    9000001   -1    0    0    0    0 -0.00000000000E+00 -0.00000000000E+00 -0.64999999231E+04  0.65000000000E+04  0.10000000000E+01 0.  0.
    9000001    1    1    2    0    0  0.29416353254E+04  0.15444601703E+04 -0.55867184818E+04  0.65000000000E+04  0.10000000000E+01 0.  0.
    9000001    1    1    2    0    0 -0.29416353254E+04 -0.15444601703E+04  0.55867184818E+04  0.65000000000E+04  0.10000000000E+01 0.  0.
</event>
<event>
 4    1  0.2195261E-006  0.1300000E+05  0.7957747E-01  0.1322471E+00
    9000001   -1    0    0    0    0  0.00000000000E+00  0.00000000000E+00  0.64999999231E+04  0.65000000000E+04  0.10000000000E+01 0.  0.
    9000001   -1    0    0    0    0 -0.00000000000E+00 -0.00000000000E+00 -0.64999999231E+04  0.65000000000E+04  0.10000000000E+01 0.  0.
    9000001    1    1    2    0    0  0.56524000645E+04  0.18137598895E+03 -0.32042901338E+04  0.65000000000E+04  0.10000000000E+01 0.  0.
    9000001    1    1    2    0    0 -0.56524000645E+04 -0.18137598895E+03  0.32042901338E+04  0.65000000000E+04  0.10000000000E+01 0.  0.
</event>
<event>
 4    1  0.2195261E-006  0.1300000E+05  0.7957747E-01  0.1322471E+00
    9000001   -1    0    0    0    0  0.00000000000E+00  0.00000000000E+00  0.64999999231E+04  0.65000000000E+04  0.10000000000E+01 0.  0.
    9000001   -1    0    0    0    0 -0.00000000000E+00 -0.00000000000E+00 -0.64999999231E+04  0.65000000000E+04  0.10000000000E+01 0.  0.
    9000001    1    1    2    0    0 -0.16095998440E+04 -0.10279243260E+04  0.62130957600E+04  0.65000000000E+04  0.10000000000E+01 0.  0.
    9000001    1    1    2    0    0  0.16095998440E+04  0.10279243260E+04 -0.62130957600E+04  0.65000000000E+04  0.10000000000E+01 0.  0.
</event>
<event>
 4    1  0.2195261E-006  0.1300000E+05  0.7957747E-01  0.1322471E+00
    9000001   -1    0    0    0    0  0.00000000000E+00  0.00000000000E+00  0.64999999231E+04  0.65000000000E+04  0.10000000000E+01 0.  0.
    9000001   -1    0    0    0    0 -0.00000000000E+00 -0.00000000000E+00 -0.64999999231E+04  0.65000000000E+04  0.10000000000E+01 0.  0.
    9000001    1    1    2    0    0  0.52170581027E+04 -0.29601471291E+03  0.38658348442E+04  0.65000000000E+04  0.10000000000E+01 0.  0.
    9000001    1    1    2    0    0 -0.52170581027E+04  0.29601471291E+03 -0.38658348442E+04  0.65000000000E+04  0.10000000000E+01 0.  0.
</event>
<event>
 4    1  0.2195261E-006  0.1300000E+05  0.7957747E-01  0.1322471E+00
    9000001   -1    0    0    0    0  0.00000000000E+00  0.00000000000E+00  0.64999999231E+04  0.65000000000E+04  0.10000000000E+01 0.  0.
    9000001   -1    0    0    0    0 -0.00000000000E+00 -0.00000000000E+00 -0.64999999231E+04  0.65000000000E+04  0.10000000000E+01 0.  0.
    9000001    1    1    2    0    0  0.27670753634E+04 -0.12221710195E+04 -0.57532243944E+04  0.65000000000E+04  0.10000000000E+01 0.  0.
    9000001    1    1    2    0    0 -0.27670753634E+04  0.12221710195E+04  0.57532243944E+04  0.65000000000E+04  0.10000000000E+01 0.  0.
</event>
<event>
 4    1  0.2195261E-006  0.1300000E+05  0.7957747E-01  0.1322471E+00
    9000001   -1    0    0    0    0  0.00000000000E+00  0.00000000000E+00  0.64999999231E+04  0.65000000000E+04  0.10000000000E+01 0.  0.
    9000001   -1    0    0    0    0 -0.00000000000E+00 -0.00000000000E+00 -0.64999999231E+04  0.65000000000E+04  0.10000000000E+01 0.  0.
    9000001    1    1    2    0    0  0.12216634131E+04 -0.62593305922E+04 -0.12563112843E+04  0.65000000000E+04  0.10000000000E+01 0.  0.
    9000001    1    1    2    0    0 -0.12216634131E+04  0.62593305922E+04  0.12563112843E+04  0.65000000000E+04  0.10000000000E+01 0.  0.
</event>
<event>
 4    1  0.2195261E-006  0.1300000E+05  0.7957747E-01  0.1322471E+00
    9000001   -1    0    0    0    0  0.00000000000E+00  0.00000000000E+00  0.64999999231E+04  0.65000000000E+04  0.10000000000E+01 0.  0.
    9000001   -1    0    0    0    0 -0.00000000000E+00 -0.00000000000E+00 -0.64999999231E+04  0.65000000000E+04  0.10000000000E+01 0.  0.
    9000001    1    1    2    0    0 -0.53923909896E+04 -0.35084719941E+04 -0.92883942732E+03  0.65000000000E+04  0.10000000000E+01 0.  0.
    9000001    1    1    2    0    0  0.53923909896E+04  0.35084719941E+04  0.92883942732E+03  0.65000000000E+04  0.10000000000E+01 0.  0.
</event>
<event>
 4    1  0.2195261E-006  0.1300000E+05  0.7957747E-01  0.1322471E+00
    9000001   -1    0    0    0    0  0.00000000000E+00  0.00000000000E+00  0.64999999231E+04  0.65000000000E+04  0.10000000000E+01 0.  0.
    9000001   -1    0    0    0    0 -0.00000000000E+00 -0.00000000000E+00 -0.64999999231E+04  0.65000000000E+04  0.10000000000E+01 0.  0.
    9000001    1    1    2    0    0 -0.38714325789E+03  0.15413070314E+03  0.64866295427E+04  0.65000000000E+04  0.10000000000E+01 0.  0.
    9000001    1    1    2    0    0  0.38714325789E+03 -0.15413070314E+03 -0.64866295427E+04  0.65000000000E+04  0.10000000000E+01 0.  0.
</event>
<event>
 4    1  0.2195261E-006  0.1300000E+05  0.7957747E-01  0.1322471E+00
    9000001   -1    0    0    0    0  0.00000000000E+00  0.00000000000E+00  0.64999999231E+04  0.65000000000E+04  0.10000000000E+01 0.  0.
    9000001   -1    0    0    0    0 -0.00000000000E+00 -0.00000000000E+00 -0.64999999231E+04  0.65000000000E+04  0.10000000000E+01 0.  0.
    9000001    1    1    2    0    0 -0.22577494430E+04  0.60949620584E+04  0.63276843595E+02  0.65000000000E+04  0.10000000000E+01 0.  0.
    9000001    1    1    2    0    0  0.22577494430E+04 -0.60949620584E+04 -0.63276843595E+02  0.65000000000E+04  0.10000000000E+01 0.  0.
</event>
<event>
 4    1  0.2195261E-006  0.1300000E+05  0.7957747E-01  0.1322471E+00
    9000001   -1    0    0    0    0  0.00000000000E+00  0.00000000000E+00  0.64999999231E+04  0.65000000000E+04  0.10000000000E+01 0.  0.
    9000001   -1    0    0    0    0 -0.00000000000E+00 -0.00000000000E+00 -0.64999999231E+04  0.65000000000E+04  0.10000000000E+01 0.  0.
    9000001    1    1    2    0    0 -0.47398435385E+04 -0.66412397243E+03  0.43980474735E+04  0.65000000000E+04  0.10000000000E+01 0.  0.
    9000001    1    1    2    0    0  0.47398435385E+04  0.66412397243E+03 -0.43980474735E+04  0.65000000000E+04  0.10000000000E+01 0.  0.
</event>
<event>
 4    1  0.2195261E-006  0.1300000E+05  0.7957747E-01  0.1322471E+00
    9000001   -1    0    0    0    0  0.00000000000E+00  0.00000000000E+00  0.64999999231E+04  0.65000000000E+04  0.10000000000E+01 0.  0.
    9000001   -1    0    0    0    0 -0.00000000000E+00 -0.00000000000E+00 -0.64999999231E+04  0.65000000000E+04  0.10000000000E+01 0.  0.
    9000001    1    1    2    0    0  0.10236559855E+04 -0.36648902417E+04  0.52697919256E+04  0.65000000000E+04  0.10000000000E+01 0.  0.
    9000001    1    1    2    0    0 -0.10236559855E+04  0.36648902417E+04 -0.52697919256E+04  0.65000000000E+04  0.10000000000E+01 0.  0.
</event>
<event>
 4    1  0.2195261E-006  0.1300000E+05  0.7957747E-01  0.1322471E+00
    9000001   -1    0    0    0    0  0.00000000000E+00  0.00000000000E+00  0.64999999231E+04  0.65000000000E+04  0.10000000000E+01 0.  0.
    9000001   -1    0    0    0    0 -0.00000000000E+00 -0.00000000000E+00 -0.64999999231E+04  0.65000000000E+04  0.10000000000E+01 0.  0.
    9000001    1    1    2    0    0  0.44753936042E+04 -0.38311247303E+04  0.27465131328E+04  0.65000000000E+04  0.10000000000E+01 0.  0.
    9000001    1    1    2    0    0 -0.44753936042E+04  0.38311247303E+04 -0.27465131328E+04  0.65000000000E+04  0.10000000000E+01 0.  0.
</event>
<event>
 4    1  0.2195261E-006  0.1300000E+05  0.7957747E-01  0.1322471E+00
    9000001   -1    0    0    0    0  0.00000000000E+00  0.00000000000E+00  0.64999999231E+04  0.65000000000E+04  0.10000000000E+01 0.  0.
    9000001   -1    0    0    0    0 -0.00000000000E+00 -0.00000000000E+00 -0.64999999231E+04  0.65000000000E+04  0.10000000000E+01 0.  0.
    9000001    1    1    2    0    0 -0.84624692991E+03 -0.59097877879E+04  0.25706562265E+04  0.65000000000E+04  0.10000000000E+01 0.  0.
    9000001    1    1    2    0    0  0.84624692991E+03  0.59097877879E+04 -0.25706562265E+04  0.65000000000E+04  0.10000000000E+01 0.  0.
</event>
<event>
 4    1  0.2195261E-006  0.1300000E+05  0.7957747E-01  0.1322471E+00
    9000001   -1    0    0    0    0  0.00000000000E+00  0.00000000000E+00  0.64999999231E+04  0.65000000000E+04  0.10000000000E+01 0.  0.
    9000001   -1    0    0    0    0 -0.00000000000E+00 -0.00000000000E+00 -0.64999999231E+04  0.65000000000E+04  0.10000000000E+01 0.  0.
    9000001    1    1    2    0    0 -0.10298859228E+04 -0.63168045847E+04 -0.11345985300E+04  0.65000000000E+04  0.10000000000E+01 0.  0.
    9000001    1    1    2    0    0  0.10298859228E+04  0.63168045847E+04  0.11345985300E+04  0.65000000000E+04  0.10000000000E+01 0.  0.
</event>
<event>
 4    1  0.2195261E-006  0.1300000E+05  0.7957747E-01  0.1322471E+00
    9000001   -1    0    0    0    0  0.00000000000E+00  0.00000000000E+00  0.64999999231E+04  0.65000000000E+04  0.10000000000E+01 0.  0.
    9000001   -1    0    0    0    0 -0.00000000000E+00 -0.00000000000E+00 -0.64999999231E+04  0.65000000000E+04  0.10000000000E+01 0.  0.
    9000001    1    1    2    0    0 -0.21999555705E+04  0.31969324083E+04  0.52143856459E+04  0.65000000000E+04  0.10000000000E+01 0.  0.
    9000001    1    1    2    0    0  0.21999555705E+04 -0.31969324083E+04 -0.52143856459E+04  0.65000000000E+04  0.10000000000E+01 0.  0.
</event>
<event>
 4    1  0.2195261E-006  0.1300000E+05  0.7957747E-01  0.1322471E+00
    9000001   -1    0    0    0    0  0.00000000000E+00  0.00000000000E+00  0.64999999231E+04  0.65000000000E+04  0.10000000000E+01 0.  0.
    9000001   -1    0    0    0    0 -0.00000000000E+00 -0.00000000000E+00 -0.64999999231E+04  0.65000000000E+04  0.10000000000E+01 0.  0.
    9000001    1    1    2    0    0  0.58369508886E+04 -0.13206592051E+04  0.25369001928E+04  0.65000000000E+04  0.10000000000E+01 0.  0.
    9000001    1    1    2    0    0 -0.58369508886E+04  0.13206592051E+04 -0.25369001928E+04  0.65000000000E+04  0.10000000000E+01 0.  0.
</event>
<event>
 4    1  0.2195261E-006  0.1300000E+05  0.7957747E-01  0.1322471E+00
    9000001   -1    0    0    0    0  0.00000000000E+00  0.00000000000E+00  0.64999999231E+04  0.65000000000E+04  0.10000000000E+01 0.  0.
    9000001   -1    0    0    0    0 -0.00000000000E+00 -0.00000000000E+00 -0.64999999231E+04  0.65000000000E+04  0.10000000000E+01 0.  0.
    9000001    1    1    2    0    0  0.29721025973E+04 -0.44168715861E+04  0.37293230677E+04  0.65000000000E+04  0.10000000000E+01 0.  0.
    9000001    1    1    2    0    0 -0.29721025973E+04  0.44168715861E+04 -0.37293230677E+04  0.65000000000E+04  0.10000000000E+01 0.  0.
</event>
<event>
 4    1  0.2195261E-006  0.1300000E+05  0.7957747E-01  0.1322471E+00
    9000001   -1    0    0    0    0  0.00000000000E+00  0.00000000000E+00  0.64999999231E+04  0.65000000000E+04  0.10000000000E+01 0.  0.
    9000001   -1    0    0    0    0 -0.00000000000E+00 -0.00000000000E+00 -0.64999999231E+04  0.65000000000E+04  0.10000000000E+01 0.  0.
    9000001    1    1    2    0    0 -0.17782627529E+04  0.48839734061E+04 -0.39031505672E+04  0.65000000000E+04  0.10000000000E+01 0.  0.
    9000001    1    1    2    0    0  0.17782627529E+04 -0.48839734061E+04  0.39031505672E+04  0.65000000000E+04  0.10000000000E+01 0.  0.
</event>
<event>
 4    1  0.2195261E-006  0.1300000E+05  0.7957747E-01  0.1322471E+00
    9000001   -1    0    0    0    0  0.00000000000E+00  0.00000000000E+00  0.64999999231E+04  0.65000000000E+04  0.10000000000E+01 0.  0.
    9000001   -1    0    0    0    0 -0.00000000000E+00 -0.00000000000E+00 -0.64999999231E+04  0.65000000000E+04  0.10000000000E+01 0.  0.
    9000001    1    1    2    0    0  0.64404500791E+04  0.46396484866E+03  0.74521030403E+03  0.65000000000E+04  0.10000000000E+01 0.  0.
    9000001    1    1    2    0    0 -0.64404500791E+04 -0.46396484866E+03 -0.74521030403E+03  0.65000000000E+04  0.10000000000E+01 0.  0.
</event>
<event>
 4    1  0.2195261E-006  0.1300000E+05  0.7957747E-01  0.1322471E+00
    9000001   -1    0    0    0    0  0.00000000000E+00  0.00000000000E+00  0.64999999231E+04  0.65000000000E+04  0.10000000000E+01 0.  0.
    9000001   -1    0    0    0    0 -0.00000000000E+00 -0.00000000000E+00 -0.64999999231E+04  0.65000000000E+04  0.10000000000E+01 0.  0.
    9000001    1    1    2    0    0  0.17298375098E+04  0.59732845887E+04  0.18914366002E+04  0.65000000000E+04  0.10000000000E+01 0.  0.
    9000001    1    1    2    0    0 -0.17298375098E+04 -0.59732845887E+04 -0.18914366002E+04  0.65000000000E+04  0.10000000000E+01 0.  0.
</event>
<event>
 4    1  0.2195261E-006  0.1300000E+05  0.7957747E-01  0.1322471E+00
    9000001   -1    0    0    0    0  0.00000000000E+00  0.00000000000E+00  0.64999999231E+04  0.65000000000E+04  0.10000000000E+01 0.  0.
    9000001   -1    0    0    0    0 -0.00000000000E+00 -0.00000000000E+00 -0.64999999231E+04  0.65000000000E+04  0.10000000000E+01 0.  0.
    9000001    1    1    2    0    0 -0.28632022020E+04 -0.76576542887E+03  0.57849525027E+04  0.65000000000E+04  0.10000000000E+01 0.  0.
    9000001    1    1    2    0    0  0.28632022020E+04  0.76576542887E+03 -0.57849525027E+04  0.65000000000E+04  0.10000000000E+01 0.  0.
</event>
<event>
 4    1  0.2195261E-006  0.1300000E+05  0.7957747E-01  0.1322471E+00
    9000001   -1    0    0    0    0  0.00000000000E+00  0.00000000000E+00  0.64999999231E+04  0.65000000000E+04  0.10000000000E+01 0.  0.
    9000001   -1    0    0    0    0 -0.00000000000E+00 -0.00000000000E+00 -0.64999999231E+04  0.65000000000E+04  0.10000000000E+01 0.  0.
    9000001    1    1    2    0    0  0.43229555074E+04  0.46562842493E+04 -0.13715216623E+04  0.65000000000E+04  0.10000000000E+01 0.  0.
    9000001    1    1    2    0    0 -0.43229555074E+04 -0.46562842493E+04  0.13715216623E+04  0.65000000000E+04  0.10000000000E+01 0.  0.
</event>
<event>
 4    1  0.2195261E-006  0.1300000E+05  0.7957747E-01  0.1322471E+00
    9000001   -1    0    0    0    0  0.00000000000E+00  0.00000000000E+00  0.64999999231E+04  0.65000000000E+04  0.10000000000E+01 0.  0.
    9000001   -1    0    0    0    0 -0.00000000000E+00 -0.00000000000E+00 -0.64999999231E+04  0.65000000000E+04  0.10000000000E+01 0.  0.
    9000001    1    1    2    0    0 -0.86645646021E+03 -0.16603620083E+04  0.62243433553E+04  0.65000000000E+04  0.10000000000E+01 0.  0.
    9000001    1    1    2    0    0  0.86645646021E+03  0.16603620083E+04 -0.62243433553E+04  0.65000000000E+04  0.10000000000E+01 0.  0.
</event>
<event>
 4    1  0.2195261E-006  0.1300000E+05  0.7957747E-01  0.1322471E+00
    9000001   -1    0    0    0    0  0.00000000000E+00  0.00000000000E+00  0.64999999231E+04  0.65000000000E+04  0.10000000000E+01 0.  0.
    9000001   -1    0    0    0    0 -0.00000000000E+00 -0.00000000000E+00 -0.64999999231E+04  0.65000000000E+04  0.10000000000E+01 0.  0.
    9000001    1    1    2    0    0  0.59755859413E+04  0.15249010687E+04 -0.20535453219E+04  0.65000000000E+04  0.10000000000E+01 0.  0.
    9000001    1    1    2    0    0 -0.59755859413E+04 -0.15249010687E+04  0.20535453219E+04  0.65000000000E+04  0.10000000000E+01 0.  0.
</event>
<event>
 4    1  0.2195261E-006  0.1300000E+05  0.7957747E-01  0.1322471E+00
    9000001   -1    0    0    0    0  0.00000000000E+00  0.00000000000E+00  0.64999999231E+04  0.65000000000E+04  0.10000000000E+01 0.  0.
    9000001   -1    0    0    0    0 -0.00000000000E+00 -0.00000000000E+00 -0.64999999231E+04  0.65000000000E+04  0.10000000000E+01 0.  0.
    9000001    1    1    2    0    0 -0.62645626247E+04  0.17090850180E+04  0.29031452293E+03  0.65000000000E+04  0.10000000000E+01 0.  0.
    9000001    1    1    2    0    0  0.62645626247E+04 -0.17090850180E+04 -0.29031452293E+03  0.65000000000E+04  0.10000000000E+01 0.  0.
</event>
<event>
 4    1  0.2195261E-006  0.1300000E+05  0.7957747E-01  0.1322471E+00
    9000001   -1    0    0    0    0  0.00000000000E+00  0.00000000000E+00  0.64999999231E+04  0.65000000000E+04  0.10000000000E+01 0.  0.
    9000001   -1    0    0    0    0 -0.00000000000E+00 -0.00000000000E+00 -0.64999999231E+04  0.65000000000E+04  0.10000000000E+01 0.  0.
    9000001    1    1    2    0    0  0.15115782924E+04 -0.23551523925E+04 -0.58667186122E+04  0.65000000000E+04  0.10000000000E+01 0.  0.
    9000001    1    1    2    0    0 -0.15115782924E+04  0.23551523925E+04  0.58667186122E+04  0.65000000000E+04  0.10000000000E+01 0.  0.
</event>
<event>
 4    1  0.2195261E-006  0.1300000E+05  0.7957747E-01  0.1322471E+00
    9000001   -1    0    0    0    0  0.00000000000E+00  0.00000000000E+00  0.64999999231E+04  0.65000000000E+04  0.10000000000E+01 0.  0.
    9000001   -1    0    0    0    0 -0.00000000000E+00 -0.00000000000E+00 -0.64999999231E+04  0.65000000000E+04  0.10000000000E+01 0.  0.
    9000001    1    1    2    0    0 -0.43056686651E+04  0.48609079208E+04 -0.28773343917E+03  0.65000000000E+04  0.10000000000E+01 0.  0.
    9000001    1    1    2    0    0  0.43056686651E+04 -0.48609079208E+04  0.28773343917E+03  0.65000000000E+04  0.10000000000E+01 0.  0.
</event>
<event>
 4    1  0.2195261E-006  0.1300000E+05  0.7957747E-01  0.1322471E+00
    9000001   -1    0    0    0    0  0.00000000000E+00  0.00000000000E+00  0.64999999231E+04  0.65000000000E+04  0.10000000000E+01 0.  0.
    9000001   -1    0    0    0    0 -0.00000000000E+00 -0.00000000000E+00 -0.64999999231E+04  0.65000000000E+04  0.10000000000E+01 0.  0.
    9000001    1    1    2    0    0  0.26457028866E+03  0.62279006282E+04 -0.18420790773E+04  0.65000000000E+04  0.10000000000E+01 0.  0.
    9000001    1    1    2    0    0 -0.26457028866E+03 -0.62279006282E+04  0.18420790773E+04  0.65000000000E+04  0.10000000000E+01 0.  0.
</event>
<event>
 4    1  0.2195261E-006  0.1300000E+05  0.7957747E-01  0.1322471E+00
    9000001   -1    0    0    0    0  0.00000000000E+00  0.00000000000E+00  0.64999999231E+04  0.65000000000E+04  0.10000000000E+01 0.  0.
    9000001   -1    0    0    0    0 -0.00000000000E+00 -0.00000000000E+00 -0.64999999231E+04  0.65000000000E+04  0.10000000000E+01 0.  0.
    9000001    1    1    2    0    0  0.31412287966E+04  0.88591641797E+03  0.56211949573E+04  0.65000000000E+04  0.10000000000E+01 0.  0.
    9000001    1    1    2    0    0 -0.31412287966E+04 -0.88591641797E+03 -0.56211949573E+04  0.65000000000E+04  0.10000000000E+01 0.  0.
</event>
<event>
 4    1  0.2195261E-006  0.1300000E+05  0.7957747E-01  0.1322471E+00
    9000001   -1    0    0    0    0  0.00000000000E+00  0.00000000000E+00  0.64999999231E+04  0.65000000000E+04  0.10000000000E+01 0.  0.
    9000001   -1    0    0    0    0 -0.00000000000E+00 -0.00000000000E+00 -0.64999999231E+04  0.65000000000E+04  0.10000000000E+01 0.  0.
    9000001    1    1    2    0    0 -0.26996185156E+04 -0.26257640964E+04 -0.52978695511E+04  0.65000000000E+04  0.10000000000E+01 0.  0.
    9000001    1    1    2    0    0  0.26996185156E+04  0.26257640964E+04  0.52978695511E+04  0.65000000000E+04  0.10000000000E+01 0.  0.
</event>
<event>
 4    1  0.2195261E-006  0.1300000E+05  0.7957747E-01  0.1322471E+00
    9000001   -1    0    0    0    0  0.00000000000E+00  0.00000000000E+00  0.64999999231E+04  0.65000000000E+04  0.10000000000E+01 0.  0.
    9000001   -1    0    0    0    0 -0.00000000000E+00 -0.00000000000E+00 -0.64999999231E+04  0.65000000000E+04  0.10000000000E+01 0.  0.
    9000001    1    1    2    0    0 -0.12704811369E+04  0.63323572497E+04  0.73289040351E+03  0.65000000000E+04  0.10000000000E+01 0.  0.
    9000001    1    1    2    0    0  0.12704811369E+04 -0.63323572497E+04 -0.73289040351E+03  0.65000000000E+04  0.10000000000E+01 0.  0.
</event>
<event>
 4    1  0.2195261E-006  0.1300000E+05  0.7957747E-01  0.1322471E+00
    9000001   -1    0    0    0    0  0.00000000000E+00  0.00000000000E+00  0.64999999231E+04  0.65000000000E+04  0.10000000000E+01 0.  0.
    9000001   -1    0    0    0    0 -0.00000000000E+00 -0.00000000000E+00 -0.64999999231E+04  0.65000000000E+04  0.10000000000E+01 0.  0.
    9000001    1    1    2    0    0  0.36822644373E+04  0.14189818568E+04 -0.51650186935E+04  0.65000000000E+04  0.10000000000E+01 0.  0.
    9000001    1    1    2    0    0 -0.36822644373E+04 -0.14189818568E+04  0.51650186935E+04  0.65000000000E+04  0.10000000000E+01 0.  0.
</event>
<event>
 4    1  0.2195261E-006  0.1300000E+05  0.7957747E-01  0.1322471E+00
    9000001   -1    0    0    0    0  0.00000000000E+00  0.00000000000E+00  0.64999999231E+04  0.65000000000E+04  0.10000000000E+01 0.  0.
    9000001   -1    0    0    0    0 -0.00000000000E+00 -0.00000000000E+00 -0.64999999231E+04  0.65000000000E+04  0.10000000000E+01 0.  0.
    9000001    1    1    2    0    0  0.23830625808E+04 -0.19217465138E+04  0.57339255378E+04  0.65000000000E+04  0.10000000000E+01 0.  0.
    9000001    1    1    2    0    0 -0.23830625808E+04  0.19217465138E+04 -0.57339255378E+04  0.65000000000E+04  0.10000000000E+01 0.  0.
</event>
<event>
 4    1  0.2195261E-006  0.1300000E+05  0.7957747E-01  0.1322471E+00
    9000001   -1    0    0    0    0  0.00000000000E+00  0.00000000000E+00  0.64999999231E+04  0.65000000000E+04  0.10000000000E+01 0.  0.
    9000001   -1    0    0    0    0 -0.00000000000E+00 -0.00000000000E+00 -0.64999999231E+04  0.65000000000E+04  0.10000000000E+01 0.  0.
    9000001    1    1    2    0    0 -0.14656396230E+04 -0.49383995071E+04 -0.39641026480E+04  0.65000000000E+04  0.10000000000E+01 0.  0.
    9000001    1    1    2    0    0  0.14656396230E+04  0.49383995071E+04  0.39641026480E+04  0.65000000000E+04  0.10000000000E+01 0.  0.
</event>
<event>
 4    1  0.2195261E-006  0.1300000E+05  0.7957747E-01  0.1322471E+00
    9000001   -1    0    0    0    0  0.00000000000E+00  0.00000000000E+00  0.64999999231E+04  0.65000000000E+04  0.10000000000E+01 0.  0.
    9000001   -1    0    0    0    0 -0.00000000000E+00 -0.00000000000E+00 -0.64999999231E+04  0.65000000000E+04  0.10000000000E+01 0.  0.
    9000001    1    1    2    0    0 -0.37337591563E+04 -0.27810150310E+04 -0.45359670369E+04  0.65000000000E+04  0.10000000000E+01 0.  0.
    9000001    1    1    2    0    0  0.37337591563E+04  0.27810150310E+04  0.45359670369E+04  0.65000000000E+04  0.10000000000E+01 0.  0.
</event>
<event>
 4    1  0.2195261E-006  0.1300000E+05  0.7957747E-01  0.1322471E+00
    9000001   -1    0    0    0    0  0.00000000000E+00  0.00000000000E+00  0.64999999231E+04  0.65000000000E+04  0.10000000000E+01 0.  0.
    9000001   -1    0    0    0    0 -0.00000000000E+00 -0.00000000000E+00 -0.64999999231E+04  0.65000000000E+04  0.10000000000E+01 0.  0.
    9000001    1    1    2    0    0  0.90439861218E+03 -0.81998622183E+03  0.63843311902E+04  0.65000000000E+04  0.10000000000E+01 0.  0.
    9000001    1    1    2    0    0 -0.90439861218E+03  0.81998622183E+03 -0.63843311902E+04  0.65000000000E+04  0.10000000000E+01 0.  0.
</event>
<event>
 4    1  0.2195261E-006  0.1300000E+05  0.7957747E-01  0.1322471E+00
    9000001   -1    0    0    0    0  0.00000000000E+00  0.00000000000E+00  0.64999999231E+04  0.65000000000E+04  0.10000000000E+01 0.  0.
    9000001   -1    0    0    0    0 -0.00000000000E+00 -0.00000000000E+00 -0.64999999231E+04  0.65000000000E+04  0.10000000000E+01 0.  0.
    9000001    1    1    2    0    0  0.62982774928E+04  0.15018464215E+04 -0.57110152280E+03  0.65000000000E+04  0.10000000000E+01 0.  0.
    9000001    1    1    2    0    0 -0.62982774928E+04 -0.15018464215E+04  0.57110152280E+03  0.65000000000E+04  0.10000000000E+01 0.  0.
</event>
<event>
 4    1  0.2195261E-006  0.1300000E+05  0.7957747E-01  0.1322471E+00
    9000001   -1    0    0    0    0  0.00000000000E+00  0.00000000000E+00  0.64999999231E+04  0.65000000000E+04  0.10000000000E+01 0.  0.
    9000001   -1    0    0    0    0 -0.00000000000E+00 -0.00000000000E+00 -0.64999999231E+04  0.65000000000E+04  0.10000000000E+01 0.  0.
    9000001    1    1    2    0    0 -0.45546823365E+04 -0.10396388916E+03 -0.46361686039E+04  0.65000000000E+04  0.10000000000E+01 0.  0.
    9000001    1    1    2    0    0  0.45546823365E+04  0.10396388916E+03  0.46361686039E+04  0.65000000000E+04  0.10000000000E+01 0.  0.
</event>
<event>
 4    1  0.2195261E-006  0.1300000E+05  0.7957747E-01  0.1322471E+00
    9000001   -1    0    0    0    0  0.00000000000E+00  0.00000000000E+00  0.64999999231E+04  0.65000000000E+04  0.10000000000E+01 0.  0.
    9000001   -1    0    0    0    0 -0.00000000000E+00 -0.00000000000E+00 -0.64999999231E+04  0.65000000000E+04  0.10000000000E+01 0.  0.
    9000001    1    1    2    0    0 -0.95368984330E+03 -0.26688551962E+04 -0.58495885859E+04  0.65000000000E+04  0.10000000000E+01 0.  0.
    9000001    1    1    2    0    0  0.95368984330E+03  0.26688551962E+04  0.58495885859E+04  0.65000000000E+04  0.10000000000E+01 0.  0.
</event>
<event>
 4    1  0.2195261E-006  0.1300000E+05  0.7957747E-01  0.1322471E+00
    9000001   -1    0    0    0    0  0.00000000000E+00  0.00000000000E+00  0.64999999231E+04  0.65000000000E+04  0.10000000000E+01 0.  0.
    9000001   -1    0    0    0    0 -0.00000000000E+00 -0.00000000000E+00 -0.64999999231E+04  0.65000000000E+04  0.10000000000E+01 0.  0.
    9000001    1    1    2    0    0 -0.16211252353E+04 -0.45398704099E+04 -0.43602211679E+04  0.65000000000E+04  0.10000000000E+01 0.  0.
    9000001    1    1    2    0    0  0.16211252353E+04  0.45398704099E+04  0.43602211679E+04  0.65000000000E+04  0.10000000000E+01 0.  0.
</event>
<event>
 4    1  0.2195261E-006  0.1300000E+05  0.7957747E-01  0.1322471E+00
    9000001   -1    0    0    0    0  0.00000000000E+00  0.00000000000E+00  0.64999999231E+04  0.65000000000E+04  0.10000000000E+01 0.  0.
    9000001   -1    0    0    0    0 -0.00000000000E+00 -0.00000000000E+00 -0.64999999231E+04  0.65000000000E+04  0.10000000000E+01 0.  0.
    9000001    1    1    2    0    0 -0.52584917672E+04 -0.16147856548E+04  0.34627634375E+04  0.65000000000E+04  0.10000000000E+01 0.  0.
    9000001    1    1    2    0    0  0.52584917672E+04  0.16147856548E+04 -0.34627634375E+04  0.65000000000E+04  0.10000000000E+01 0.  0.
</event>
<event>
 4    1  0.2195261E-006  0.1300000E+05  0.7957747E-01  0.1322471E+00
    9000001   -1    0    0    0    0  0.00000000000E+00  0.00000000000E+00  0.64999999231E+04  0.65000000000E+04  0.10000000000E+01 0.  0.
    9000001   -1    0    0    0    0 -0.00000000000E+00 -0.00000000000E+00 -0.64999999231E+04  0.65000000000E+04  0.10000000000E+01 0.  0.
    9000001    1    1    2    0    0 -0.64368062328E+04 -0.71422402456E+03  0.55444437380E+03  0.65000000000E+04  0.10000000000E+01 0.  0.
    9000001    1    1    2    0    0  0.64368062328E+04  0.71422402456E+03 -0.55444437380E+03  0.65000000000E+04  0.10000000000E+01 0.  0.
</event>
<event>
 4    1  0.2195261E-006  0.1300000E+05  0.7957747E-01  0.1322471E+00
    9000001   -1    0    0    0    0  0.00000000000E+00  0.00000000000E+00  0.64999999231E+04  0.65000000000E+04  0.10000000000E+01 0.  0.
    9000001   -1    0    0    0    0 -0.00000000000E+00 -0.00000000000E+00 -0.64999999231E+04  0.65000000000E+04  0.10000000000E+01 0.  0.
    9000001    1    1    2    0    0 -0.45643251286E+04 -0.15964396935E+03  0.46250890720E+04  0.65000000000E+04  0.10000000000E+01 0.  0.
    9000001    1    1    2    0    0  0.45643251286E+04  0.15964396935E+03 -0.46250890720E+04  0.65000000000E+04  0.10000000000E+01 0.  0.
</event>
<event>
 4    1  0.2195261E-006  0.1300000E+05  0.7957747E-01  0.1322471E+00
    9000001   -1    0    0    0    0  0.00000000000E+00  0.00000000000E+00  0.64999999231E+04  0.65000000000E+04  0.10000000000E+01 0.  0.
    9000001   -1    0    0    0    0 -0.00000000000E+00 -0.00000000000E+00 -0.64999999231E+04  0.65000000000E+04  0.10000000000E+01 0.  0.
    9000001    1    1    2    0    0 -0.59197327079E+04 -0.26897044534E+03  0.26710332394E+04  0.65000000000E+04  0.10000000000E+01 0.  0.
    9000001    1    1    2    0    0  0.59197327079E+04  0.26897044534E+03 -0.26710332394E+04  0.65000000000E+04  0.10000000000E+01 0.  0.
</event>
<event>
 4    1  0.2195261E-006  0.1300000E+05  0.7957747E-01  0.1322471E+00
    9000001   -1    0    0    0    0  0.00000000000E+00  0.00000000000E+00  0.64999999231E+04  0.65000000000E+04  0.10000000000E+01 0.  0.
    9000001   -1    0    0    0    0 -0.00000000000E+00 -0.00000000000E+00 -0.64999999231E+04  0.65000000000E+04  0.10000000000E+01 0.  0.
    9000001    1    1    2    0    0  0.26960316630E+04  0.26293750763E+04 -0.52979051502E+04  0.65000000000E+04  0.10000000000E+01 0.  0.
    9000001    1    1    2    0    0 -0.26960316630E+04 -0.26293750763E+04  0.52979051502E+04  0.65000000000E+04  0.10000000000E+01 0.  0.
</event>
<event>
 4    1  0.2195261E-006  0.1300000E+05  0.7957747E-01  0.1322471E+00
    9000001   -1    0    0    0    0  0.00000000000E+00  0.00000000000E+00  0.64999999231E+04  0.65000000000E+04  0.10000000000E+01 0.  0.
    9000001   -1    0    0    0    0 -0.00000000000E+00 -0.00000000000E+00 -0.64999999231E+04  0.65000000000E+04  0.10000000000E+01 0.  0.
    9000001    1    1    2    0    0 -0.26065821055E+04  0.57003666048E+04  0.17209152500E+04  0.65000000000E+04  0.10000000000E+01 0.  0.
    9000001    1    1    2    0    0  0.26065821055E+04 -0.57003666048E+04 -0.17209152500E+04  0.65000000000E+04  0.10000000000E+01 0.  0.
</event>
<event>
 4    1  0.2195261E-006  0.1300000E+05  0.7957747E-01  0.1322471E+00
    9000001   -1    0    0    0    0  0.00000000000E+00  0.00000000000E+00  0.64999999231E+04  0.65000000000E+04  0.10000000000E+01 0.  0.
    9000001   -1    0    0    0    0 -0.00000000000E+00 -0.00000000000E+00 -0.64999999231E+04  0.65000000000E+04  0.10000000000E+01 0.  0.
    9000001    1    1    2    0    0 -0.36799655463E+04 -0.60186473442E+03  0.53240596747E+04  0.65000000000E+04  0.10000000000E+01 0.  0.
    9000001    1    1    2    0    0  0.36799655463E+04  0.60186473442E+03 -0.53240596747E+04  0.65000000000E+04  0.10000000000E+01 0.  0.
</event>
<event>
 4    1  0.2195261E-006  0.1300000E+05  0.7957747E-01  0.1322471E+00
    9000001   -1    0    0    0    0  0.00000000000E+00  0.00000000000E+00  0.64999999231E+04  0.65000000000E+04  0.10000000000E+01 0.  0.
    9000001   -1    0    0    0    0 -0.00000000000E+00 -0.00000000000E+00 -0.64999999231E+04  0.65000000000E+04  0.10000000000E+01 0.  0.
    9000001    1    1    2    0    0  0.16609936154E+04 -0.58071451957E+04 -0.24017002072E+04  0.65000000000E+04  0.10000000000E+01 0.  0.
    9000001    1    1    2    0    0 -0.16609936154E+04  0.58071451957E+04  0.24017002072E+04  0.65000000000E+04  0.10000000000E+01 0.  0.
</event>
<event>
 4    1  0.2195261E-006  0.1300000E+05  0.7957747E-01  0.1322471E+00
    9000001   -1    0    0    0    0  0.00000000000E+00  0.00000000000E+00  0.64999999231E+04  0.65000000000E+04  0.10000000000E+01 0.  0.
    9000001   -1    0    0    0    0 -0.00000000000E+00 -0.00000000000E+00 -0.64999999231E+04  0.65000000000E+04  0.10000000000E+01 0.  0.
    9000001    1    1    2    0    0  0.17707028125E+04 -0.36183064926E+04 -0.51012222727E+04  0.65000000000E+04  0.10000000000E+01 0.  0.
    9000001    1    1    2    0    0 -0.17707028125E+04  0.36183064926E+04  0.51012222727E+04  0.65000000000E+04  0.10000000000E+01 0.  0.
</event>
<event>
 4    1  0.2195261E-006  0.1300000E+05  0.7957747E-01  0.1322471E+00
    9000001   -1    0    0    0    0  0.00000000000E+00  0.00000000000E+00  0.64999999231E+04  0.65000000000E+04  0.10000000000E+01 0.  0.
    9000001   -1    0    0    0    0 -0.00000000000E+00 -0.00000000000E+00 -0.64999999231E+04  0.65000000000E+04  0.10000000000E+01 0.  0.
    9000001    1    1    2    0    0 -0.32983540790E+04 -0.21854844563E+04  0.51569872078E+04  0.65000000000E+04  0.10000000000E+01 0.  0.
    9000001    1    1    2    0    0  0.32983540790E+04  0.21854844563E+04 -0.51569872078E+04  0.65000000000E+04  0.10000000000E+01 0.  0.
</event>
<event>
 4    1  0.2195261E-006  0.1300000E+05  0.7957747E-01  0.1322471E+00
    9000001   -1    0    0    0    0  0.00000000000E+00  0.00000000000E+00  0.64999999231E+04  0.65000000000E+04  0.10000000000E+01 0.  0.
    9000001   -1    0    0    0    0 -0.00000000000E+00 -0.00000000000E+00 -0.64999999231E+04  0.65000000000E+04  0.10000000000E+01 0.  0.
    9000001    1    1    2    0    0  0.11221698617E+04  0.29052557179E+04 -0.57052802749E+04  0.65000000000E+04  0.10000000000E+01 0.  0.
    9000001    1    1    2    0    0 -0.11221698617E+04 -0.29052557179E+04  0.57052802749E+04  0.65000000000E+04  0.10000000000E+01 0.  0.
</event>
<event>
 4    1  0.2195261E-006  0.1300000E+05  0.7957747E-01  0.1322471E+00
    9000001   -1    0    0    0    0  0.00000000000E+00  0.00000000000E+00  0.64999999231E+04  0.65000000000E+04  0.10000000000E+01 0.  0.
    9000001   -1    0    0    0    0 -0.00000000000E+00 -0.00000000000E+00 -0.64999999231E+04  0.65000000000E+04  0.10000000000E+01 0.  0.
    9000001    1    1    2    0    0  0.40283854470E+04 -0.51011530890E+04  0.18623987062E+02  0.65000000000E+04  0.10000000000E+01 0.  0.
    9000001    1    1    2    0    0 -0.40283854470E+04  0.51011530890E+04 -0.18623987062E+02  0.65000000000E+04  0.10000000000E+01 0.  0.
</event>
<event>
 4    1  0.2195261E-006  0.1300000E+05  0.7957747E-01  0.1322471E+00
    9000001   -1    0    0    0    0  0.00000000000E+00  0.00000000000E+00  0.64999999231E+04  0.65000000000E+04  0.10000000000E+01 0.  0.
    9000001   -1    0    0    0    0 -0.00000000000E+00 -0.00000000000E+00 -0.64999999231E+04  0.65000000000E+04  0.10000000000E+01 0.  0.
    9000001    1    1    2    0    0 -0.57614639241E+04  0.28016904616E+04  0.10982090002E+04  0.65000000000E+04  0.10000000000E+01 0.  0.
    9000001    1    1    2    0    0  0.57614639241E+04 -0.28016904616E+04 -0.10982090002E+04  0.65000000000E+04  0.10000000000E+01 0.  0.
</event>
<event>
 4    1  0.2195261E-006  0.1300000E+05  0.7957747E-01  0.1322471E+00
    9000001   -1    0    0    0    0  0.00000000000E+00  0.00000000000E+00  0.64999999231E+04  0.65000000000E+04  0.10000000000E+01 0.  0.
    9000001   -1    0    0    0    0 -0.00000000000E+00 -0.00000000000E+00 -0.64999999231E+04  0.65000000000E+04  0.10000000000E+01 0.  0.
    9000001    1    1    2    0    0  0.42186578415E+04 -0.36281541268E+04 -0.33599736084E+04  0.65000000000E+04  0.10000000000E+01 0.  0.
    9000001    1    1    2    0    0 -0.42186578415E+04  0.36281541268E+04  0.33599736084E+04  0.65000000000E+04  0.10000000000E+01 0.  0.
</event>
<event>
 4    1  0.2195261E-006  0.1300000E+05  0.7957747E-01  0.1322471E+00
    9000001   -1    0    0    0    0  0.00000000000E+00  0.00000000000E+00  0.64999999231E+04  0.65000000000E+04  0.10000000000E+01 0.  0.
    9000001   -1    0    0    0    0 -0.00000000000E+00 -0.00000000000E+00 -0.64999999231E+04  0.65000000000E+04  0.10000000000E+01 0.  0.
    9000001    1    1    2    0    0 -0.77714282604E+03 -0.58147730845E+03 -0.64271247201E+04  0.65000000000E+04  0.10000000000E+01 0.  0.
    9000001    1    1    2    0    0  0.77714282604E+03  0.58147730845E+03  0.64271247201E+04  0.65000000000E+04  0.10000000000E+01 0.  0.
</event>
<event>
 4    1  0.2195261E-006  0.1300000E+05  0.7957747E-01  0.1322471E+00
    9000001   -1    0    0    0    0  0.00000000000E+00  0.00000000000E+00  0.64999999231E+04  0.65000000000E+04  0.10000000000E+01 0.  0.
    9000001   -1    0    0    0    0 -0.00000000000E+00 -0.00000000000E+00 -0.64999999231E+04  0.65000000000E+04  0.10000000000E+01 0.  0.
    9000001    1    1    2    0    0 -0.21901452940E+04 -0.43191499773E+03 -0.61046467568E+04  0.65000000000E+04  0.10000000000E+01 0.  0.
    9000001    1    1    2    0    0  0.21901452940E+04  0.43191499773E+03  0.61046467568E+04  0.65000000000E+04  0.10000000000E+01 0.  0.
</event>
<event>
 4    1  0.2195261E-006  0.1300000E+05  0.7957747E-01  0.1322471E+00
    9000001   -1    0    0    0    0  0.00000000000E+00  0.00000000000E+00  0.64999999231E+04  0.65000000000E+04  0.10000000000E+01 0.  0.
    9000001   -1    0    0    0    0 -0.00000000000E+00 -0.00000000000E+00 -0.64999999231E+04  0.65000000000E+04  0.10000000000E+01 0.  0.
    9000001    1    1    2    0    0 -0.32827045839E+04  0.61135705291E+03 -0.55767456611E+04  0.65000000000E+04  0.10000000000E+01 0.  0.
    9000001    1    1    2    0    0  0.32827045839E+04 -0.61135705291E+03  0.55767456611E+04  0.65000000000E+04  0.10000000000E+01 0.  0.
</event>
<event>
 4    1  0.2195261E-006  0.1300000E+05  0.7957747E-01  0.1322471E+00
    9000001   -1    0    0    0    0  0.00000000000E+00  0.00000000000E+00  0.64999999231E+04  0.65000000000E+04  0.10000000000E+01 0.  0.
    9000001   -1    0    0    0    0 -0.00000000000E+00 -0.00000000000E+00 -0.64999999231E+04  0.65000000000E+04  0.10000000000E+01 0.  0.
    9000001    1    1    2    0    0 -0.76807071838E+03 -0.44039305892E+04  0.47186292222E+04  0.65000000000E+04  0.10000000000E+01 0.  0.
    9000001    1    1    2    0    0  0.76807071838E+03  0.44039305892E+04 -0.47186292222E+04  0.65000000000E+04  0.10000000000E+01 0.  0.
</event>
<event>
 4    1  0.2195261E-006  0.1300000E+05  0.7957747E-01  0.1322471E+00
    9000001   -1    0    0    0    0  0.00000000000E+00  0.00000000000E+00  0.64999999231E+04  0.65000000000E+04  0.10000000000E+01 0.  0.
    9000001   -1    0    0    0    0 -0.00000000000E+00 -0.00000000000E+00 -0.64999999231E+04  0.65000000000E+04  0.10000000000E+01 0.  0.
    9000001    1    1    2    0    0  0.38279438074E+04 -0.51786942501E+04 -0.88202668397E+03  0.65000000000E+04  0.10000000000E+01 0.  0.
    9000001    1    1    2    0    0 -0.38279438074E+04  0.51786942501E+04  0.88202668397E+03  0.65000000000E+04  0.10000000000E+01 0.  0.
</event>
<event>
 4    1  0.2195261E-006  0.1300000E+05  0.7957747E-01  0.1322471E+00
    9000001   -1    0    0    0    0  0.00000000000E+00  0.00000000000E+00  0.64999999231E+04  0.65000000000E+04  0.10000000000E+01 0.  0.
    9000001   -1    0    0    0    0 -0.00000000000E+00 -0.00000000000E+00 -0.64999999231E+04  0.65000000000E+04  0.10000000000E+01 0.  0.
    9000001    1    1    2    0    0  0.33550171571E+04  0.47648957117E+04 -0.28791713620E+04  0.65000000000E+04  0.10000000000E+01 0.  0.
    9000001    1    1    2    0    0 -0.33550171571E+04 -0.47648957117E+04  0.28791713620E+04  0.65000000000E+04  0.10000000000E+01 0.  0.
</event>
<event>
 4    1  0.2195261E-006  0.1300000E+05  0.7957747E-01  0.1322471E+00
    9000001   -1    0    0    0    0  0.00000000000E+00  0.00000000000E+00  0.64999999231E+04  0.65000000000E+04  0.10000000000E+01 0.  0.
    9000001   -1    0    0    0    0 -0.00000000000E+00 -0.00000000000E+00 -0.64999999231E+04  0.65000000000E+04  0.10000000000E+01 0.  0.
    9000001    1    1    2    0    0  0.46025772600E+04 -0.15472844600E+04  0.43211332270E+04  0.65000000000E+04  0.10000000000E+01 0.  0.
    9000001    1    1    2    0    0 -0.46025772600E+04  0.15472844600E+04 -0.43211332270E+04  0.65000000000E+04  0.10000000000E+01 0.  0.
</event>
<event>
 4    1  0.2195261E-006  0.1300000E+05  0.7957747E-01  0.1322471E+00
    9000001   -1    0    0    0    0  0.00000000000E+00  0.00000000000E+00  0.64999999231E+04  0.65000000000E+04  0.10000000000E+01 0.  0.
    9000001   -1    0    0    0    0 -0.00000000000E+00 -0.00000000000E+00 -0.64999999231E+04  0.65000000000E+04  0.10000000000E+01 0.  0.
    9000001    1    1    2    0    0 -0.57860354682E+04 -0.16869072912E+04 -0.24343656981E+04  0.65000000000E+04  0.10000000000E+01 0.  0.
    9000001    1    1    2    0    0  0.57860354682E+04  0.16869072912E+04  0.24343656981E+04  0.65000000000E+04  0.10000000000E+01 0.  0.
</event>
<event>
 4    1  0.2195261E-006  0.1300000E+05  0.7957747E-01  0.1322471E+00
    9000001   -1    0    0    0    0  0.00000000000E+00  0.00000000000E+00  0.64999999231E+04  0.65000000000E+04  0.10000000000E+01 0.  0.
    9000001   -1    0    0    0    0 -0.00000000000E+00 -0.00000000000E+00 -0.64999999231E+04  0.65000000000E+04  0.10000000000E+01 0.  0.
    9000001    1    1    2    0    0  0.15545737596E+04 -0.40615200057E+04 -0.48308751453E+04  0.65000000000E+04  0.10000000000E+01 0.  0.
    9000001    1    1    2    0    0 -0.15545737596E+04  0.40615200057E+04  0.48308751453E+04  0.65000000000E+04  0.10000000000E+01 0.  0.
</event>
<event>
 4    1  0.2195261E-006  0.1300000E+05  0.7957747E-01  0.1322471E+00
    9000001   -1    0    0    0    0  0.00000000000E+00  0.00000000000E+00  0.64999999231E+04  0.65000000000E+04  0.10000000000E+01 0.  0.
    9000001   -1    0    0    0    0 -0.00000000000E+00 -0.00000000000E+00 -0.64999999231E+04  0.65000000000E+04  0.10000000000E+01 0.  0.
    9000001    1    1    2    0    0 -0.50879814015E+04 -0.30098070810E+04  0.27024998784E+04  0.65000000000E+04  0.10000000000E+01 0.  0.
    9000001    1    1    2    0    0  0.50879814015E+04  0.30098070810E+04 -0.27024998784E+04  0.65000000000E+04  0.10000000000E+01 0.  0.
</event>
<event>
 4    1  0.2195261E-006  0.1300000E+05  0.7957747E-01  0.1322471E+00
    9000001   -1    0    0    0    0  0.00000000000E+00  0.00000000000E+00  0.64999999231E+04  0.65000000000E+04  0.10000000000E+01 0.  0.
    9000001   -1    0    0    0    0 -0.00000000000E+00 -0.00000000000E+00 -0.64999999231E+04  0.65000000000E+04  0.10000000000E+01 0.  0.
    9000001    1    1    2    0    0 -0.53457264112E+04 -0.28289146980E+03 -0.36868930758E+04  0.65000000000E+04  0.10000000000E+01 0.  0.
    9000001    1    1    2    0    0  0.53457264112E+04  0.28289146980E+03  0.36868930758E+04  0.65000000000E+04  0.10000000000E+01 0.  0.
</event>
<event>
 4    1  0.2195261E-006  0.1300000E+05  0.7957747E-01  0.1322471E+00
    9000001   -1    0    0    0    0  0.00000000000E+00  0.00000000000E+00  0.64999999231E+04  0.65000000000E+04  0.10000000000E+01 0.  0.
    9000001   -1    0    0    0    0 -0.00000000000E+00 -0.00000000000E+00 -0.64999999231E+04  0.65000000000E+04  0.10000000000E+01 0.  0.
    9000001    1    1    2    0    0  0.36226790991E+04  0.35689490135E+04 -0.40483080520E+04  0.65000000000E+04  0.10000000000E+01 0.  0.
    9000001    1    1    2    0    0 -0.36226790991E+04 -0.35689490135E+04  0.40483080520E+04  0.65000000000E+04  0.10000000000E+01 0.  0.
</event>
<event>
 4    1  0.2195261E-006  0.1300000E+05  0.7957747E-01  0.1322471E+00
    9000001   -1    0    0    0    0  0.00000000000E+00  0.00000000000E+00  0.64999999231E+04  0.65000000000E+04  0.10000000000E+01 0.  0.
    9000001   -1    0    0    0    0 -0.00000000000E+00 -0.00000000000E+00 -0.64999999231E+04  0.65000000000E+04  0.10000000000E+01 0.  0.
    9000001    1    1    2    0    0  0.37855920095E+03 -0.64315907355E+04  0.86100670299E+03  0.65000000000E+04  0.10000000000E+01 0.  0.
    9000001    1    1    2    0    0 -0.37855920095E+03  0.64315907355E+04 -0.86100670299E+03  0.65000000000E+04  0.10000000000E+01 0.  0.
</event>
<event>
 4    1  0.2195261E-006  0.1300000E+05  0.7957747E-01  0.1322471E+00
    9000001   -1    0    0    0    0  0.00000000000E+00  0.00000000000E+00  0.64999999231E+04  0.65000000000E+04  0.10000000000E+01 0.  0.
    9000001   -1    0    0    0    0 -0.00000000000E+00 -0.00000000000E+00 -0.64999999231E+04  0.65000000000E+04  0.10000000000E+01 0.  0.
    9000001    1    1    2    0    0 -0.16971465009E+04 -0.61469577191E+04  0.12588103725E+04  0.65000000000E+04  0.10000000000E+01 0.  0.
    9000001    1    1    2    0    0  0.16971465009E+04  0.61469577191E+04 -0.12588103725E+04  0.65000000000E+04  0.10000000000E+01 0.  0.
</event>
<event>
 4    1  0.2195261E-006  0.1300000E+05  0.7957747E-01  0.1322471E+00
    9000001   -1    0    0    0    0  0.00000000000E+00  0.00000000000E+00  0.64999999231E+04  0.65000000000E+04  0.10000000000E+01 0.  0.
    9000001   -1    0    0    0    0 -0.00000000000E+00 -0.00000000000E+00 -0.64999999231E+04  0.65000000000E+04  0.10000000000E+01 0.  0.
    9000001    1    1    2    0    0  0.22965486515E+04  0.34718477283E+04 -0.49922075921E+04  0.65000000000E+04  0.10000000000E+01 0.  0.
    9000001    1    1    2    0    0 -0.22965486515E+04 -0.34718477283E+04  0.49922075921E+04  0.65000000000E+04  0.10000000000E+01 0.  0.
</event>
<event>
 4    1  0.2195261E-006  0.1300000E+05  0.7957747E-01  0.1322471E+00
    9000001   -1    0    0    0    0  0.00000000000E+00  0.00000000000E+00  0.64999999231E+04  0.65000000000E+04  0.10000000000E+01 0.  0.
    9000001   -1    0    0    0    0 -0.00000000000E+00 -0.00000000000E+00 -0.64999999231E+04  0.65000000000E+04  0.10000000000E+01 0.  0.
    9000001    1    1    2    0    0 -0.37218601717E+04  0.48548924075E+04  0.21972199649E+04  0.65000000000E+04  0.10000000000E+01 0.  0.
    9000001    1    1    2    0    0  0.37218601717E+04 -0.48548924075E+04 -0.21972199649E+04  0.65000000000E+04  0.10000000000E+01 0.  0.
</event>
<event>
 4    1  0.2195261E-006  0.1300000E+05  0.7957747E-01  0.1322471E+00
    9000001   -1    0    0    0    0  0.00000000000E+00  0.00000000000E+00  0.64999999231E+04  0.65000000000E+04  0.10000000000E+01 0.  0.
    9000001   -1    0    0    0    0 -0.00000000000E+00 -0.00000000000E+00 -0.64999999231E+04  0.65000000000E+04  0.10000000000E+01 0.  0.
    9000001    1    1    2    0    0 -0.58779967842E+04  0.42231026822E+03 -0.27424089487E+04  0.65000000000E+04  0.10000000000E+01 0.  0.
    9000001    1    1    2    0    0  0.58779967842E+04 -0.42231026822E+03  0.27424089487E+04  0.65000000000E+04  0.10000000000E+01 0.  0.
</event>
<event>
 4    1  0.2195261E-006  0.1300000E+05  0.7957747E-01  0.1322471E+00
    9000001   -1    0    0    0    0  0.00000000000E+00  0.00000000000E+00  0.64999999231E+04  0.65000000000E+04  0.10000000000E+01 0.  0.
    9000001   -1    0    0    0    0 -0.00000000000E+00 -0.00000000000E+00 -0.64999999231E+04  0.65000000000E+04  0.10000000000E+01 0.  0.
    9000001    1    1    2    0    0 -0.18625757166E+04  0.53830347595E+04 -0.31310936553E+04  0.65000000000E+04  0.10000000000E+01 0.  0.
    9000001    1    1    2    0    0  0.18625757166E+04 -0.53830347595E+04  0.31310936553E+04  0.65000000000E+04  0.10000000000E+01 0.  0.
</event>
<event>
 4    1  0.2195261E-006  0.1300000E+05  0.7957747E-01  0.1322471E+00
    9000001   -1    0    0    0    0  0.00000000000E+00  0.00000000000E+00  0.64999999231E+04  0.65000000000E+04  0.10000000000E+01 0.  0.
    9000001   -1    0    0    0    0 -0.00000000000E+00 -0.00000000000E+00 -0.64999999231E+04  0.65000000000E+04  0.10000000000E+01 0.  0.
    9000001    1    1    2    0    0 -0.61538670126E+04  0.17748166028E+04  0.11090292230E+04  0.65000000000E+04  0.10000000000E+01 0.  0.
    9000001    1    1    2    0    0  0.61538670126E+04 -0.17748166028E+04 -0.11090292230E+04  0.65000000000E+04  0.10000000000E+01 0.  0.
</event>
<event>
 4    1  0.2195261E-006  0.1300000E+05  0.7957747E-01  0.1322471E+00
    9000001   -1    0    0    0    0  0.00000000000E+00  0.00000000000E+00  0.64999999231E+04  0.65000000000E+04  0.10000000000E+01 0.  0.
    9000001   -1    0    0    0    0 -0.00000000000E+00 -0.00000000000E+00 -0.64999999231E+04  0.65000000000E+04  0.10000000000E+01 0.  0.
    9000001    1    1    2    0    0 -0.30799815558E+04 -0.46920366848E+04 -0.32784911720E+04  0.65000000000E+04  0.10000000000E+01 0.  0.
    9000001    1    1    2    0    0  0.30799815558E+04  0.46920366848E+04  0.32784911720E+04  0.65000000000E+04  0.10000000000E+01 0.  0.
</event>
<event>
 4    1  0.2195261E-006  0.1300000E+05  0.7957747E-01  0.1322471E+00
    9000001   -1    0    0    0    0  0.00000000000E+00  0.00000000000E+00  0.64999999231E+04  0.65000000000E+04  0.10000000000E+01 0.  0.
    9000001   -1    0    0    0    0 -0.00000000000E+00 -0.00000000000E+00 -0.64999999231E+04  0.65000000000E+04  0.10000000000E+01 0.  0.
    9000001    1    1    2    0    0 -0.20755622402E+04 -0.25463540229E+04 -0.56087540129E+04  0.65000000000E+04  0.10000000000E+01 0.  0.
    9000001    1    1    2    0    0  0.20755622402E+04  0.25463540229E+04  0.56087540129E+04  0.65000000000E+04  0.10000000000E+01 0.  0.
</event>
<event>
 4    1  0.2195261E-006  0.1300000E+05  0.7957747E-01  0.1322471E+00
    9000001   -1    0    0    0    0  0.00000000000E+00  0.00000000000E+00  0.64999999231E+04  0.65000000000E+04  0.10000000000E+01 0.  0.
    9000001   -1    0    0    0    0 -0.00000000000E+00 -0.00000000000E+00 -0.64999999231E+04  0.65000000000E+04  0.10000000000E+01 0.  0.
    9000001    1    1    2    0    0  0.63156792514E+04 -0.91818885825E+02  0.15341981246E+04  0.65000000000E+04  0.10000000000E+01 0.  0.
    9000001    1    1    2    0    0 -0.63156792514E+04  0.91818885825E+02 -0.15341981246E+04  0.65000000000E+04  0.10000000000E+01 0.  0.
</event>
<event>
 4    1  0.2195261E-006  0.1300000E+05  0.7957747E-01  0.1322471E+00
    9000001   -1    0    0    0    0  0.00000000000E+00  0.00000000000E+00  0.64999999231E+04  0.65000000000E+04  0.10000000000E+01 0.  0.
    9000001   -1    0    0    0    0 -0.00000000000E+00 -0.00000000000E+00 -0.64999999231E+04  0.65000000000E+04  0.10000000000E+01 0.  0.
    9000001    1    1    2    0    0 -0.41702247142E+04  0.27632447651E+04 -0.41501449615E+04  0.65000000000E+04  0.10000000000E+01 0.  0.
    9000001    1    1    2    0    0  0.41702247142E+04 -0.27632447651E+04  0.41501449615E+04  0.65000000000E+04  0.10000000000E+01 0.  0.
</event>
<event>
 4    1  0.2195261E-006  0.1300000E+05  0.7957747E-01  0.1322471E+00
    9000001   -1    0    0    0    0  0.00000000000E+00  0.00000000000E+00  0.64999999231E+04  0.65000000000E+04  0.10000000000E+01 0.  0.
    9000001   -1    0    0    0    0 -0.00000000000E+00 -0.00000000000E+00 -0.64999999231E+04  0.65000000000E+04  0.10000000000E+01 0.  0.
    9000001    1    1    2    0    0  0.34739916475E+04 -0.20659391090E+04  0.50905084845E+04  0.65000000000E+04  0.10000000000E+01 0.  0.
    9000001    1    1    2    0    0 -0.34739916475E+04  0.20659391090E+04 -0.50905084845E+04  0.65000000000E+04  0.10000000000E+01 0.  0.
</event>
<event>
 4    1  0.2195261E-006  0.1300000E+05  0.7957747E-01  0.1322471E+00
    9000001   -1    0    0    0    0  0.00000000000E+00  0.00000000000E+00  0.64999999231E+04  0.65000000000E+04  0.10000000000E+01 0.  0.
    9000001   -1    0    0    0    0 -0.00000000000E+00 -0.00000000000E+00 -0.64999999231E+04  0.65000000000E+04  0.10000000000E+01 0.  0.
    9000001    1    1    2    0    0  0.93996169871E+02  0.33736826076E+04 -0.55551264057E+04  0.65000000000E+04  0.10000000000E+01 0.  0.
    9000001    1    1    2    0    0 -0.93996169871E+02 -0.33736826076E+04  0.55551264057E+04  0.65000000000E+04  0.10000000000E+01 0.  0.
</event>
<event>
 4    1  0.2195261E-006  0.1300000E+05  0.7957747E-01  0.1322471E+00
    9000001   -1    0    0    0    0  0.00000000000E+00  0.00000000000E+00  0.64999999231E+04  0.65000000000E+04  0.10000000000E+01 0.  0.
    9000001   -1    0    0    0    0 -0.00000000000E+00 -0.00000000000E+00 -0.64999999231E+04  0.65000000000E+04  0.10000000000E+01 0.  0.
    9000001    1    1    2    0    0 -0.45360384324E+04 -0.19982312110E+04 -0.42049288183E+04  0.65000000000E+04  0.10000000000E+01 0.  0.
    9000001    1    1    2    0    0  0.45360384324E+04  0.19982312110E+04  0.42049288183E+04  0.65000000000E+04  0.10000000000E+01 0.  0.
</event>
<event>
 4    1  0.2195261E-006  0.1300000E+05  0.7957747E-01  0.1322471E+00
    9000001   -1    0    0    0    0  0.00000000000E+00  0.00000000000E+00  0.64999999231E+04  0.65000000000E+04  0.10000000000E+01 0.  0.
    9000001   -1    0    0    0    0 -0.00000000000E+00 -0.00000000000E+00 -0.64999999231E+04  0.65000000000E+04  0.10000000000E+01 0.  0.
    9000001    1    1    2    0    0 -0.23029545309E+04 -0.39437554960E+04 -0.46252775070E+04  0.65000000000E+04  0.10000000000E+01 0.  0.
    9000001    1    1    2    0    0  0.23029545309E+04  0.39437554960E+04  0.46252775070E+04  0.65000000000E+04  0.10000000000E+01 0.  0.
</event>
<event>
 4    1  0.2195261E-006  0.1300000E+05  0.7957747E-01  0.1322471E+00
    9000001   -1    0    0    0    0  0.00000000000E+00  0.00000000000E+00  0.64999999231E+04  0.65000000000E+04  0.10000000000E+01 0.  0.
    9000001   -1    0    0    0    0 -0.00000000000E+00 -0.00000000000E+00 -0.64999999231E+04  0.65000000000E+04  0.10000000000E+01 0.  0.
    9000001    1    1    2    0    0  0.63953707420E+04 -0.11455296221E+04 -0.19233813229E+03  0.65000000000E+04  0.10000000000E+01 0.  0.
    9000001    1    1    2    0    0 -0.63953707420E+04  0.11455296221E+04  0.19233813229E+03  0.65000000000E+04  0.10000000000E+01 0.  0.
</event>
<event>
 4    1  0.2195261E-006  0.1300000E+05  0.7957747E-01  0.1322471E+00
    9000001   -1    0    0    0    0  0.00000000000E+00  0.00000000000E+00  0.64999999231E+04  0.65000000000E+04  0.10000000000E+01 0.  0.
    9000001   -1    0    0    0    0 -0.00000000000E+00 -0.00000000000E+00 -0.64999999231E+04  0.65000000000E+04  0.10000000000E+01 0.  0.
    9000001    1    1    2    0    0 -0.23703451226E+04 -0.51912645529E+04 -0.31116290495E+04  0.65000000000E+04  0.10000000000E+01 0.  0.
    9000001    1    1    2    0    0  0.23703451226E+04  0.51912645529E+04  0.31116290495E+04  0.65000000000E+04  0.10000000000E+01 0.  0.
</event>
<event>
 4    1  0.2195261E-006  0.1300000E+05  0.7957747E-01  0.1322471E+00
    9000001   -1    0    0    0    0  0.00000000000E+00  0.00000000000E+00  0.64999999231E+04  0.65000000000E+04  0.10000000000E+01 0.  0.
    9000001   -1    0    0    0    0 -0.00000000000E+00 -0.00000000000E+00 -0.64999999231E+04  0.65000000000E+04  0.10000000000E+01 0.  0.
    9000001    1    1    2    0    0  0.23010033813E+04 -0.60652887775E+04  0.40945632867E+03  0.65000000000E+04  0.10000000000E+01 0.  0.
    9000001    1    1    2    0    0 -0.23010033813E+04  0.60652887775E+04 -0.40945632867E+03  0.65000000000E+04  0.10000000000E+01 0.  0.
</event>
<event>
 4    1  0.2195261E-006  0.1300000E+05  0.7957747E-01  0.1322471E+00
    9000001   -1    0    0    0    0  0.00000000000E+00  0.00000000000E+00  0.64999999231E+04  0.65000000000E+04  0.10000000000E+01 0.  0.
    9000001   -1    0    0    0    0 -0.00000000000E+00 -0.00000000000E+00 -0.64999999231E+04  0.65000000000E+04  0.10000000000E+01 0.  0.
    9000001    1    1    2    0    0  0.44586645859E+03  0.24628494065E+04 -0.59987977881E+04  0.65000000000E+04  0.10000000000E+01 0.  0.
    9000001    1    1    2    0    0 -0.44586645859E+03 -0.24628494065E+04  0.59987977881E+04  0.65000000000E+04  0.10000000000E+01 0.  0.
</event>
<event>
 4    1  0.2195261E-006  0.1300000E+05  0.7957747E-01  0.1322471E+00
    9000001   -1    0    0    0    0  0.00000000000E+00  0.00000000000E+00  0.64999999231E+04  0.65000000000E+04  0.10000000000E+01 0.  0.
    9000001   -1    0    0    0    0 -0.00000000000E+00 -0.00000000000E+00 -0.64999999231E+04  0.65000000000E+04  0.10000000000E+01 0.  0.
    9000001    1    1    2    0    0  0.20957719963E+04 -0.22035414771E+04  0.57447492285E+04  0.65000000000E+04  0.10000000000E+01 0.  0.
    9000001    1    1    2    0    0 -0.20957719963E+04  0.22035414771E+04 -0.57447492285E+04  0.65000000000E+04  0.10000000000E+01 0.  0.
</event>
<event>
 4    1  0.2195261E-006  0.1300000E+05  0.7957747E-01  0.1322471E+00
    9000001   -1    0    0    0    0  0.00000000000E+00  0.00000000000E+00  0.64999999231E+04  0.65000000000E+04  0.10000000000E+01 0.  0.
    9000001   -1    0    0    0    0 -0.00000000000E+00 -0.00000000000E+00 -0.64999999231E+04  0.65000000000E+04  0.10000000000E+01 0.  0.
    9000001    1    1    2    0    0 -0.14595163344E+04 -0.52017748426E+04  0.36140489146E+04  0.65000000000E+04  0.10000000000E+01 0.  0.
    9000001    1    1    2    0    0  0.14595163344E+04  0.52017748426E+04 -0.36140489146E+04  0.65000000000E+04  0.10000000000E+01 0.  0.
</event>
<event>
 4    1  0.2195261E-006  0.1300000E+05  0.7957747E-01  0.1322471E+00
    9000001   -1    0    0    0    0  0.00000000000E+00  0.00000000000E+00  0.64999999231E+04  0.65000000000E+04  0.10000000000E+01 0.  0.
    9000001   -1    0    0    0    0 -0.00000000000E+00 -0.00000000000E+00 -0.64999999231E+04  0.65000000000E+04  0.10000000000E+01 0.  0.
    9000001    1    1    2    0    0 -0.32473536035E+04  0.46539780212E+04  0.31694135345E+04  0.65000000000E+04  0.10000000000E+01 0.  0.
    9000001    1    1    2    0    0  0.32473536035E+04 -0.46539780212E+04 -0.31694135345E+04  0.65000000000E+04  0.10000000000E+01 0.  0.
</event>
<event>
 4    1  0.2195261E-006  0.1300000E+05  0.7957747E-01  0.1322471E+00
    9000001   -1    0    0    0    0  0.00000000000E+00  0.00000000000E+00  0.64999999231E+04  0.65000000000E+04  0.10000000000E+01 0.  0.
    9000001   -1    0    0    0    0 -0.00000000000E+00 -0.00000000000E+00 -0.64999999231E+04  0.65000000000E+04  0.10000000000E+01 0.  0.
    9000001    1    1    2    0    0 -0.40717233244E+04 -0.96235602916E+03  0.49744285142E+04  0.65000000000E+04  0.10000000000E+01 0.  0.
    9000001    1    1    2    0    0  0.40717233244E+04  0.96235602916E+03 -0.49744285142E+04  0.65000000000E+04  0.10000000000E+01 0.  0.
</event>
<event>
 4    1  0.2195261E-006  0.1300000E+05  0.7957747E-01  0.1322471E+00
    9000001   -1    0    0    0    0  0.00000000000E+00  0.00000000000E+00  0.64999999231E+04  0.65000000000E+04  0.10000000000E+01 0.  0.
    9000001   -1    0    0    0    0 -0.00000000000E+00 -0.00000000000E+00 -0.64999999231E+04  0.65000000000E+04  0.10000000000E+01 0.  0.
    9000001    1    1    2    0    0  0.49999403555E+04 -0.21349490669E+04 -0.35626658451E+04  0.65000000000E+04  0.10000000000E+01 0.  0.
    9000001    1    1    2    0    0 -0.49999403555E+04  0.21349490669E+04  0.35626658451E+04  0.65000000000E+04  0.10000000000E+01 0.  0.
</event>
<event>
 4    1  0.2195261E-006  0.1300000E+05  0.7957747E-01  0.1322471E+00
    9000001   -1    0    0    0    0  0.00000000000E+00  0.00000000000E+00  0.64999999231E+04  0.65000000000E+04  0.10000000000E+01 0.  0.
    9000001   -1    0    0    0    0 -0.00000000000E+00 -0.00000000000E+00 -0.64999999231E+04  0.65000000000E+04  0.10000000000E+01 0.  0.
    9000001    1    1    2    0    0  0.10642849326E+04  0.44620582437E+04  0.46051419970E+04  0.65000000000E+04  0.10000000000E+01 0.  0.
    9000001    1    1    2    0    0 -0.10642849326E+04 -0.44620582437E+04 -0.46051419970E+04  0.65000000000E+04  0.10000000000E+01 0.  0.
</event>
<event>
 4    1  0.2195261E-006  0.1300000E+05  0.7957747E-01  0.1322471E+00
    9000001   -1    0    0    0    0  0.00000000000E+00  0.00000000000E+00  0.64999999231E+04  0.65000000000E+04  0.10000000000E+01 0.  0.
    9000001   -1    0    0    0    0 -0.00000000000E+00 -0.00000000000E+00 -0.64999999231E+04  0.65000000000E+04  0.10000000000E+01 0.  0.
    9000001    1    1    2    0    0  0.55611111265E+02  0.61351562472E+04 -0.21463373982E+04  0.65000000000E+04  0.10000000000E+01 0.  0.
    9000001    1    1    2    0    0 -0.55611111265E+02 -0.61351562472E+04  0.21463373982E+04  0.65000000000E+04  0.10000000000E+01 0.  0.
</event>
<event>
 4    1  0.2195261E-006  0.1300000E+05  0.7957747E-01  0.1322471E+00
    9000001   -1    0    0    0    0  0.00000000000E+00  0.00000000000E+00  0.64999999231E+04  0.65000000000E+04  0.10000000000E+01 0.  0.
    9000001   -1    0    0    0    0 -0.00000000000E+00 -0.00000000000E+00 -0.64999999231E+04  0.65000000000E+04  0.10000000000E+01 0.  0.
    9000001    1    1    2    0    0 -0.40793398058E+04  0.39053400511E+04  0.32182766870E+04  0.65000000000E+04  0.10000000000E+01 0.  0.
    9000001    1    1    2    0    0  0.40793398058E+04 -0.39053400511E+04 -0.32182766870E+04  0.65000000000E+04  0.10000000000E+01 0.  0.
</event>
<event>
 4    1  0.2195261E-006  0.1300000E+05  0.7957747E-01  0.1322471E+00
    9000001   -1    0    0    0    0  0.00000000000E+00  0.00000000000E+00  0.64999999231E+04  0.65000000000E+04  0.10000000000E+01 0.  0.
    9000001   -1    0    0    0    0 -0.00000000000E+00 -0.00000000000E+00 -0.64999999231E+04  0.65000000000E+04  0.10000000000E+01 0.  0.
    9000001    1    1    2    0    0  0.40481921952E+04  0.25620524224E+04  0.43929518931E+04  0.65000000000E+04  0.10000000000E+01 0.  0.
    9000001    1    1    2    0    0 -0.40481921952E+04 -0.25620524224E+04 -0.43929518931E+04  0.65000000000E+04  0.10000000000E+01 0.  0.
</event>
<event>
 4    1  0.2195261E-006  0.1300000E+05  0.7957747E-01  0.1322471E+00
    9000001   -1    0    0    0    0  0.00000000000E+00  0.00000000000E+00  0.64999999231E+04  0.65000000000E+04  0.10000000000E+01 0.  0.
    9000001   -1    0    0    0    0 -0.00000000000E+00 -0.00000000000E+00 -0.64999999231E+04  0.65000000000E+04  0.10000000000E+01 0.  0.
    9000001    1    1    2    0    0  0.37739397856E+04  0.47399315476E+04 -0.23538110415E+04  0.65000000000E+04  0.10000000000E+01 0.  0.
    9000001    1    1    2    0    0 -0.37739397856E+04 -0.47399315476E+04  0.23538110415E+04  0.65000000000E+04  0.10000000000E+01 0.  0.
</event>
<event>
 4    1  0.2195261E-006  0.1300000E+05  0.7957747E-01  0.1322471E+00
    9000001   -1    0    0    0    0  0.00000000000E+00  0.00000000000E+00  0.64999999231E+04  0.65000000000E+04  0.10000000000E+01 0.  0.
    9000001   -1    0    0    0    0 -0.00000000000E+00 -0.00000000000E+00 -0.64999999231E+04  0.65000000000E+04  0.10000000000E+01 0.  0.
    9000001    1    1    2    0    0  0.34303631473E+04  0.39458662522E+04  0.38617026293E+04  0.65000000000E+04  0.10000000000E+01 0.  0.
    9000001    1    1    2    0    0 -0.34303631473E+04 -0.39458662522E+04 -0.38617026293E+04  0.65000000000E+04  0.10000000000E+01 0.  0.
</event>
<event>
 4    1  0.2195261E-006  0.1300000E+05  0.7957747E-01  0.1322471E+00
    9000001   -1    0    0    0    0  0.00000000000E+00  0.00000000000E+00  0.64999999231E+04  0.65000000000E+04  0.10000000000E+01 0.  0.
    9000001   -1    0    0    0    0 -0.00000000000E+00 -0.00000000000E+00 -0.64999999231E+04  0.65000000000E+04  0.10000000000E+01 0.  0.
    9000001    1    1    2    0    0 -0.41806383861E+04  0.48791292663E+04  0.98303575088E+03  0.65000000000E+04  0.10000000000E+01 0.  0.
    9000001    1    1    2    0    0  0.41806383861E+04 -0.48791292663E+04 -0.98303575088E+03  0.65000000000E+04  0.10000000000E+01 0.  0.
</event>
<event>
 4    1  0.2195261E-006  0.1300000E+05  0.7957747E-01  0.1322471E+00
    9000001   -1    0    0    0    0  0.00000000000E+00  0.00000000000E+00  0.64999999231E+04  0.65000000000E+04  0.10000000000E+01 0.  0.
    9000001   -1    0    0    0    0 -0.00000000000E+00 -0.00000000000E+00 -0.64999999231E+04  0.65000000000E+04  0.10000000000E+01 0.  0.
    9000001    1    1    2    0    0  0.15190371392E+03  0.90145492448E+03 -0.64353945707E+04  0.65000000000E+04  0.10000000000E+01 0.  0.
    9000001    1    1    2    0    0 -0.15190371392E+03 -0.90145492448E+03  0.64353945707E+04  0.65000000000E+04  0.10000000000E+01 0.  0.
</event>
<event>
 4    1  0.2195261E-006  0.1300000E+05  0.7957747E-01  0.1322471E+00
    9000001   -1    0    0    0    0  0.00000000000E+00  0.00000000000E+00  0.64999999231E+04  0.65000000000E+04  0.10000000000E+01 0.  0.
    9000001   -1    0    0    0    0 -0.00000000000E+00 -0.00000000000E+00 -0.64999999231E+04  0.65000000000E+04  0.10000000000E+01 0.  0.
    9000001    1    1    2    0    0  0.13251603209E+04 -0.61302172970E+04 -0.17071569980E+04  0.65000000000E+04  0.10000000000E+01 0.  0.
    9000001    1    1    2    0    0 -0.13251603209E+04  0.61302172970E+04  0.17071569980E+04  0.65000000000E+04  0.10000000000E+01 0.  0.
</event>
<event>
 4    1  0.2195261E-006  0.1300000E+05  0.7957747E-01  0.1322471E+00
    9000001   -1    0    0    0    0  0.00000000000E+00  0.00000000000E+00  0.64999999231E+04  0.65000000000E+04  0.10000000000E+01 0.  0.
    9000001   -1    0    0    0    0 -0.00000000000E+00 -0.00000000000E+00 -0.64999999231E+04  0.65000000000E+04  0.10000000000E+01 0.  0.
    9000001    1    1    2    0    0 -0.57512833582E+04 -0.30222035606E+04 -0.19754587264E+03  0.65000000000E+04  0.10000000000E+01 0.  0.
    9000001    1    1    2    0    0  0.57512833582E+04  0.30222035606E+04  0.19754587264E+03  0.65000000000E+04  0.10000000000E+01 0.  0.
</event>
<event>
 4    1  0.2195261E-006  0.1300000E+05  0.7957747E-01  0.1322471E+00
    9000001   -1    0    0    0    0  0.00000000000E+00  0.00000000000E+00  0.64999999231E+04  0.65000000000E+04  0.10000000000E+01 0.  0.
    9000001   -1    0    0    0    0 -0.00000000000E+00 -0.00000000000E+00 -0.64999999231E+04  0.65000000000E+04  0.10000000000E+01 0.  0.
    9000001    1    1    2    0    0  0.47387268833E+04  0.44258327570E+04 -0.45439072630E+03  0.65000000000E+04  0.10000000000E+01 0.  0.
    9000001    1    1    2    0    0 -0.47387268833E+04 -0.44258327570E+04  0.45439072630E+03  0.65000000000E+04  0.10000000000E+01 0.  0.
</event>
<event>
 4    1  0.2195261E-006  0.1300000E+05  0.7957747E-01  0.1322471E+00
    9000001   -1    0    0    0    0  0.00000000000E+00  0.00000000000E+00  0.64999999231E+04  0.65000000000E+04  0.10000000000E+01 0.  0.
    9000001   -1    0    0    0    0 -0.00000000000E+00 -0.00000000000E+00 -0.64999999231E+04  0.65000000000E+04  0.10000000000E+01 0.  0.
    9000001    1    1    2    0    0  0.51447109041E+04 -0.19163698338E+04  0.34798671488E+04  0.65000000000E+04  0.10000000000E+01 0.  0.
    9000001    1    1    2    0    0 -0.51447109041E+04  0.19163698338E+04 -0.34798671488E+04  0.65000000000E+04  0.10000000000E+01 0.  0.
</event>
<event>
 4    1  0.2195261E-006  0.1300000E+05  0.7957747E-01  0.1322471E+00
    9000001   -1    0    0    0    0  0.00000000000E+00  0.00000000000E+00  0.64999999231E+04  0.65000000000E+04  0.10000000000E+01 0.  0.
    9000001   -1    0    0    0    0 -0.00000000000E+00 -0.00000000000E+00 -0.64999999231E+04  0.65000000000E+04  0.10000000000E+01 0.  0.
    9000001    1    1    2    0    0  0.12333013165E+04 -0.50860564000E+04 -0.38549963889E+04  0.65000000000E+04  0.10000000000E+01 0.  0.
    9000001    1    1    2    0    0 -0.12333013165E+04  0.50860564000E+04  0.38549963889E+04  0.65000000000E+04  0.10000000000E+01 0.  0.
</event>
<event>
 4    1  0.2195261E-006  0.1300000E+05  0.7957747E-01  0.1322471E+00
    9000001   -1    0    0    0    0  0.00000000000E+00  0.00000000000E+00  0.64999999231E+04  0.65000000000E+04  0.10000000000E+01 0.  0.
    9000001   -1    0    0    0    0 -0.00000000000E+00 -0.00000000000E+00 -0.64999999231E+04  0.65000000000E+04  0.10000000000E+01 0.  0.
    9000001    1    1    2    0    0  0.57950990334E+04 -0.11263292472E+04 -0.27199648197E+04  0.65000000000E+04  0.10000000000E+01 0.  0.
    9000001    1    1    2    0    0 -0.57950990334E+04  0.11263292472E+04  0.27199648197E+04  0.65000000000E+04  0.10000000000E+01 0.  0.
</event>
<event>
 4    1  0.2195261E-006  0.1300000E+05  0.7957747E-01  0.1322471E+00
    9000001   -1    0    0    0    0  0.00000000000E+00  0.00000000000E+00  0.64999999231E+04  0.65000000000E+04  0.10000000000E+01 0.  0.
    9000001   -1    0    0    0    0 -0.00000000000E+00 -0.00000000000E+00 -0.64999999231E+04  0.65000000000E+04  0.10000000000E+01 0.  0.
    9000001    1    1    2    0    0 -0.24187926146E+04  0.60288464277E+04  0.22902409955E+03  0.65000000000E+04  0.10000000000E+01 0.  0.
    9000001    1    1    2    0    0  0.24187926146E+04 -0.60288464277E+04 -0.22902409955E+03  0.65000000000E+04  0.10000000000E+01 0.  0.
</event>
<event>
 4    1  0.2195261E-006  0.1300000E+05  0.7957747E-01  0.1322471E+00
    9000001   -1    0    0    0    0  0.00000000000E+00  0.00000000000E+00  0.64999999231E+04  0.65000000000E+04  0.10000000000E+01 0.  0.
    9000001   -1    0    0    0    0 -0.00000000000E+00 -0.00000000000E+00 -0.64999999231E+04  0.65000000000E+04  0.10000000000E+01 0.  0.
    9000001    1    1    2    0    0  0.34997787045E+04  0.51585383225E+04 -0.18414750596E+04  0.65000000000E+04  0.10000000000E+01 0.  0.
    9000001    1    1    2    0    0 -0.34997787045E+04 -0.51585383225E+04  0.18414750596E+04  0.65000000000E+04  0.10000000000E+01 0.  0.
</event>
<event>
 4    1  0.2195261E-006  0.1300000E+05  0.7957747E-01  0.1322471E+00
    9000001   -1    0    0    0    0  0.00000000000E+00  0.00000000000E+00  0.64999999231E+04  0.65000000000E+04  0.10000000000E+01 0.  0.
    9000001   -1    0    0    0    0 -0.00000000000E+00 -0.00000000000E+00 -0.64999999231E+04  0.65000000000E+04  0.10000000000E+01 0.  0.
    9000001    1    1    2    0    0  0.47758754905E+04  0.44075452486E+04  0.12065314255E+03  0.65000000000E+04  0.10000000000E+01 0.  0.
    9000001    1    1    2    0    0 -0.47758754905E+04 -0.44075452486E+04 -0.12065314255E+03  0.65000000000E+04  0.10000000000E+01 0.  0.
</event>
<event>
 4    1  0.2195261E-006  0.1300000E+05  0.7957747E-01  0.1322471E+00
    9000001   -1    0    0    0    0  0.00000000000E+00  0.00000000000E+00  0.64999999231E+04  0.65000000000E+04  0.10000000000E+01 0.  0.
    9000001   -1    0    0    0    0 -0.00000000000E+00 -0.00000000000E+00 -0.64999999231E+04  0.65000000000E+04  0.10000000000E+01 0.  0.
    9000001    1    1    2    0    0  0.24949169577E+04  0.47147473949E+04  0.37143701184E+04  0.65000000000E+04  0.10000000000E+01 0.  0.
    9000001    1    1    2    0    0 -0.24949169577E+04 -0.47147473949E+04 -0.37143701184E+04  0.65000000000E+04  0.10000000000E+01 0.  0.
</event>
<event>
 4    1  0.2195261E-006  0.1300000E+05  0.7957747E-01  0.1322471E+00
    9000001   -1    0    0    0    0  0.00000000000E+00  0.00000000000E+00  0.64999999231E+04  0.65000000000E+04  0.10000000000E+01 0.  0.
    9000001   -1    0    0    0    0 -0.00000000000E+00 -0.00000000000E+00 -0.64999999231E+04  0.65000000000E+04  0.10000000000E+01 0.  0.
    9000001    1    1    2    0    0 -0.29061645988E+03 -0.53023705595E+04  0.37483873229E+04  0.65000000000E+04  0.10000000000E+01 0.  0.
    9000001    1    1    2    0    0  0.29061645988E+03  0.53023705595E+04 -0.37483873229E+04  0.65000000000E+04  0.10000000000E+01 0.  0.
</event>
<event>
 4    1  0.2195261E-006  0.1300000E+05  0.7957747E-01  0.1322471E+00
    9000001   -1    0    0    0    0  0.00000000000E+00  0.00000000000E+00  0.64999999231E+04  0.65000000000E+04  0.10000000000E+01 0.  0.
    9000001   -1    0    0    0    0 -0.00000000000E+00 -0.00000000000E+00 -0.64999999231E+04  0.65000000000E+04  0.10000000000E+01 0.  0.
    9000001    1    1    2    0    0 -0.11684909536E+04 -0.60254202175E+04 -0.21398455770E+04  0.65000000000E+04  0.10000000000E+01 0.  0.
    9000001    1    1    2    0    0  0.11684909536E+04  0.60254202175E+04  0.21398455770E+04  0.65000000000E+04  0.10000000000E+01 0.  0.
</event>
<event>
 4    1  0.2195261E-006  0.1300000E+05  0.7957747E-01  0.1322471E+00
    9000001   -1    0    0    0    0  0.00000000000E+00  0.00000000000E+00  0.64999999231E+04  0.65000000000E+04  0.10000000000E+01 0.  0.
    9000001   -1    0    0    0    0 -0.00000000000E+00 -0.00000000000E+00 -0.64999999231E+04  0.65000000000E+04  0.10000000000E+01 0.  0.
    9000001    1    1    2    0    0  0.20458772721E+03 -0.47718581994E+04 -0.44087994042E+04  0.65000000000E+04  0.10000000000E+01 0.  0.
    9000001    1    1    2    0    0 -0.20458772721E+03  0.47718581994E+04  0.44087994042E+04  0.65000000000E+04  0.10000000000E+01 0.  0.
</event>
<event>
 4    1  0.2195261E-006  0.1300000E+05  0.7957747E-01  0.1322471E+00
    9000001   -1    0    0    0    0  0.00000000000E+00  0.00000000000E+00  0.64999999231E+04  0.65000000000E+04  0.10000000000E+01 0.  0.
    9000001   -1    0    0    0    0 -0.00000000000E+00 -0.00000000000E+00 -0.64999999231E+04  0.65000000000E+04  0.10000000000E+01 0.  0.
    9000001    1    1    2    0    0 -0.12033269972E+04 -0.19265326358E+04  0.60901950002E+04  0.65000000000E+04  0.10000000000E+01 0.  0.
    9000001    1    1    2    0    0  0.12033269972E+04  0.19265326358E+04 -0.60901950002E+04  0.65000000000E+04  0.10000000000E+01 0.  0.
</event>
<event>
 4    1  0.2195261E-006  0.1300000E+05  0.7957747E-01  0.1322471E+00
    9000001   -1    0    0    0    0  0.00000000000E+00  0.00000000000E+00  0.64999999231E+04  0.65000000000E+04  0.10000000000E+01 0.  0.
    9000001   -1    0    0    0    0 -0.00000000000E+00 -0.00000000000E+00 -0.64999999231E+04  0.65000000000E+04  0.10000000000E+01 0.  0.
    9000001    1    1    2    0    0  0.14313080791E+04  0.63359230321E+04  0.23965707579E+03  0.65000000000E+04  0.10000000000E+01 0.  0.
    9000001    1    1    2    0    0 -0.14313080791E+04 -0.63359230321E+04 -0.23965707579E+03  0.65000000000E+04  0.10000000000E+01 0.  0.
</event>
<event>
 4    1  0.2195261E-006  0.1300000E+05  0.7957747E-01  0.1322471E+00
    9000001   -1    0    0    0    0  0.00000000000E+00  0.00000000000E+00  0.64999999231E+04  0.65000000000E+04  0.10000000000E+01 0.  0.
    9000001   -1    0    0    0    0 -0.00000000000E+00 -0.00000000000E+00 -0.64999999231E+04  0.65000000000E+04  0.10000000000E+01 0.  0.
    9000001    1    1    2    0    0  0.31627384592E+03  0.13179761012E+04 -0.63571148213E+04  0.65000000000E+04  0.10000000000E+01 0.  0.
    9000001    1    1    2    0    0 -0.31627384592E+03 -0.13179761012E+04  0.63571148213E+04  0.65000000000E+04  0.10000000000E+01 0.  0.
</event>
<event>
 4    1  0.2195261E-006  0.1300000E+05  0.7957747E-01  0.1322471E+00
    9000001   -1    0    0    0    0  0.00000000000E+00  0.00000000000E+00  0.64999999231E+04  0.65000000000E+04  0.10000000000E+01 0.  0.
    9000001   -1    0    0    0    0 -0.00000000000E+00 -0.00000000000E+00 -0.64999999231E+04  0.65000000000E+04  0.10000000000E+01 0.  0.
    9000001    1    1    2    0    0 -0.58892260830E+03  0.52324505874E+04 -0.38111192597E+04  0.65000000000E+04  0.10000000000E+01 0.  0.
    9000001    1    1    2    0    0  0.58892260830E+03 -0.52324505874E+04  0.38111192597E+04  0.65000000000E+04  0.10000000000E+01 0.  0.
</event>
<event>
 4    1  0.2195261E-006  0.1300000E+05  0.7957747E-01  0.1322471E+00
    9000001   -1    0    0    0    0  0.00000000000E+00  0.00000000000E+00  0.64999999231E+04  0.65000000000E+04  0.10000000000E+01 0.  0.
    9000001   -1    0    0    0    0 -0.00000000000E+00 -0.00000000000E+00 -0.64999999231E+04  0.65000000000E+04  0.10000000000E+01 0.  0.
    9000001    1    1    2    0    0  0.41952212610E+04  0.49610672533E+03 -0.49400400493E+04  0.65000000000E+04  0.10000000000E+01 0.  0.
    9000001    1    1    2    0    0 -0.41952212610E+04 -0.49610672533E+03  0.49400400493E+04  0.65000000000E+04  0.10000000000E+01 0.  0.
</event>
<event>
 4    1  0.2195261E-006  0.1300000E+05  0.7957747E-01  0.1322471E+00
    9000001   -1    0    0    0    0  0.00000000000E+00  0.00000000000E+00  0.64999999231E+04  0.65000000000E+04  0.10000000000E+01 0.  0.
    9000001   -1    0    0    0    0 -0.00000000000E+00 -0.00000000000E+00 -0.64999999231E+04  0.65000000000E+04  0.10000000000E+01 0.  0.
    9000001    1    1    2    0    0 -0.15148144775E+04 -0.49053736737E+04 -0.39865580668E+04  0.65000000000E+04  0.10000000000E+01 0.  0.
    9000001    1    1    2    0    0  0.15148144775E+04  0.49053736737E+04  0.39865580668E+04  0.65000000000E+04  0.10000000000E+01 0.  0.
</event>
<event>
 4    1  0.2195261E-006  0.1300000E+05  0.7957747E-01  0.1322471E+00
    9000001   -1    0    0    0    0  0.00000000000E+00  0.00000000000E+00  0.64999999231E+04  0.65000000000E+04  0.10000000000E+01 0.  0.
    9000001   -1    0    0    0    0 -0.00000000000E+00 -0.00000000000E+00 -0.64999999231E+04  0.65000000000E+04  0.10000000000E+01 0.  0.
    9000001    1    1    2    0    0 -0.49594490956E+04 -0.18777906939E+04 -0.37586920302E+04  0.65000000000E+04  0.10000000000E+01 0.  0.
    9000001    1    1    2    0    0  0.49594490956E+04  0.18777906939E+04  0.37586920302E+04  0.65000000000E+04  0.10000000000E+01 0.  0.
</event>
<event>
 4    1  0.2195261E-006  0.1300000E+05  0.7957747E-01  0.1322471E+00
    9000001   -1    0    0    0    0  0.00000000000E+00  0.00000000000E+00  0.64999999231E+04  0.65000000000E+04  0.10000000000E+01 0.  0.
    9000001   -1    0    0    0    0 -0.00000000000E+00 -0.00000000000E+00 -0.64999999231E+04  0.65000000000E+04  0.10000000000E+01 0.  0.
    9000001    1    1    2    0    0  0.57988939252E+04  0.29348311013E+04  0.97952290559E+02  0.65000000000E+04  0.10000000000E+01 0.  0.
    9000001    1    1    2    0    0 -0.57988939252E+04 -0.29348311013E+04 -0.97952290559E+02  0.65000000000E+04  0.10000000000E+01 0.  0.
</event>
<event>
 4    1  0.2195261E-006  0.1300000E+05  0.7957747E-01  0.1322471E+00
    9000001   -1    0    0    0    0  0.00000000000E+00  0.00000000000E+00  0.64999999231E+04  0.65000000000E+04  0.10000000000E+01 0.  0.
    9000001   -1    0    0    0    0 -0.00000000000E+00 -0.00000000000E+00 -0.64999999231E+04  0.65000000000E+04  0.10000000000E+01 0.  0.
    9000001    1    1    2    0    0  0.37891095083E+04 -0.31103422606E+04  0.42683040140E+04  0.65000000000E+04  0.10000000000E+01 0.  0.
    9000001    1    1    2    0    0 -0.37891095083E+04  0.31103422606E+04 -0.42683040140E+04  0.65000000000E+04  0.10000000000E+01 0.  0.
</event>
<event>
 4    1  0.2195261E-006  0.1300000E+05  0.7957747E-01  0.1322471E+00
    9000001   -1    0    0    0    0  0.00000000000E+00  0.00000000000E+00  0.64999999231E+04  0.65000000000E+04  0.10000000000E+01 0.  0.
    9000001   -1    0    0    0    0 -0.00000000000E+00 -0.00000000000E+00 -0.64999999231E+04  0.65000000000E+04  0.10000000000E+01 0.  0.
    9000001    1    1    2    0    0  0.72276556815E+03 -0.64584038900E+04  0.12895009719E+03  0.65000000000E+04  0.10000000000E+01 0.  0.
    9000001    1    1    2    0    0 -0.72276556815E+03  0.64584038900E+04 -0.12895009719E+03  0.65000000000E+04  0.10000000000E+01 0.  0.
</event>
<event>
 4    1  0.2195261E-006  0.1300000E+05  0.7957747E-01  0.1322471E+00
    9000001   -1    0    0    0    0  0.00000000000E+00  0.00000000000E+00  0.64999999231E+04  0.65000000000E+04  0.10000000000E+01 0.  0.
    9000001   -1    0    0    0    0 -0.00000000000E+00 -0.00000000000E+00 -0.64999999231E+04  0.65000000000E+04  0.10000000000E+01 0.  0.
    9000001    1    1    2    0    0 -0.29147868106E+04  0.52837912258E+04 -0.24156918535E+04  0.65000000000E+04  0.10000000000E+01 0.  0.
    9000001    1    1    2    0    0  0.29147868106E+04 -0.52837912258E+04  0.24156918535E+04  0.65000000000E+04  0.10000000000E+01 0.  0.
</event>
<event>
 4    1  0.2195261E-006  0.1300000E+05  0.7957747E-01  0.1322471E+00
    9000001   -1    0    0    0    0  0.00000000000E+00  0.00000000000E+00  0.64999999231E+04  0.65000000000E+04  0.10000000000E+01 0.  0.
    9000001   -1    0    0    0    0 -0.00000000000E+00 -0.00000000000E+00 -0.64999999231E+04  0.65000000000E+04  0.10000000000E+01 0.  0.
    9000001    1    1    2    0    0  0.37710098918E+04 -0.77453804212E+03 -0.52373251013E+04  0.65000000000E+04  0.10000000000E+01 0.  0.
    9000001    1    1    2    0    0 -0.37710098918E+04  0.77453804212E+03  0.52373251013E+04  0.65000000000E+04  0.10000000000E+01 0.  0.
</event>
<event>
 4    1  0.2195261E-006  0.1300000E+05  0.7957747E-01  0.1322471E+00
    9000001   -1    0    0    0    0  0.00000000000E+00  0.00000000000E+00  0.64999999231E+04  0.65000000000E+04  0.10000000000E+01 0.  0.
    9000001   -1    0    0    0    0 -0.00000000000E+00 -0.00000000000E+00 -0.64999999231E+04  0.65000000000E+04  0.10000000000E+01 0.  0.
    9000001    1    1    2    0    0 -0.11873278242E+04 -0.53213219917E+04  0.35388958586E+04  0.65000000000E+04  0.10000000000E+01 0.  0.
    9000001    1    1    2    0    0  0.11873278242E+04  0.53213219917E+04 -0.35388958586E+04  0.65000000000E+04  0.10000000000E+01 0.  0.
</event>
<event>
 4    1  0.2195261E-006  0.1300000E+05  0.7957747E-01  0.1322471E+00
    9000001   -1    0    0    0    0  0.00000000000E+00  0.00000000000E+00  0.64999999231E+04  0.65000000000E+04  0.10000000000E+01 0.  0.
    9000001   -1    0    0    0    0 -0.00000000000E+00 -0.00000000000E+00 -0.64999999231E+04  0.65000000000E+04  0.10000000000E+01 0.  0.
    9000001    1    1    2    0    0 -0.46146084351E+04 -0.45772312965E+04 -0.65891193785E+02  0.65000000000E+04  0.10000000000E+01 0.  0.
    9000001    1    1    2    0    0  0.46146084351E+04  0.45772312965E+04  0.65891193785E+02  0.65000000000E+04  0.10000000000E+01 0.  0.
</event>
<event>
 4    1  0.2195261E-006  0.1300000E+05  0.7957747E-01  0.1322471E+00
    9000001   -1    0    0    0    0  0.00000000000E+00  0.00000000000E+00  0.64999999231E+04  0.65000000000E+04  0.10000000000E+01 0.  0.
    9000001   -1    0    0    0    0 -0.00000000000E+00 -0.00000000000E+00 -0.64999999231E+04  0.65000000000E+04  0.10000000000E+01 0.  0.
    9000001    1    1    2    0    0  0.45787694107E+04  0.25197714722E+04 -0.38646631692E+04  0.65000000000E+04  0.10000000000E+01 0.  0.
    9000001    1    1    2    0    0 -0.45787694107E+04 -0.25197714722E+04  0.38646631692E+04  0.65000000000E+04  0.10000000000E+01 0.  0.
</event>
<event>
 4    1  0.2195261E-006  0.1300000E+05  0.7957747E-01  0.1322471E+00
    9000001   -1    0    0    0    0  0.00000000000E+00  0.00000000000E+00  0.64999999231E+04  0.65000000000E+04  0.10000000000E+01 0.  0.
    9000001   -1    0    0    0    0 -0.00000000000E+00 -0.00000000000E+00 -0.64999999231E+04  0.65000000000E+04  0.10000000000E+01 0.  0.
    9000001    1    1    2    0    0 -0.66018347335E+03 -0.17084104340E+04 -0.62366249343E+04  0.65000000000E+04  0.10000000000E+01 0.  0.
    9000001    1    1    2    0    0  0.66018347335E+03  0.17084104340E+04  0.62366249343E+04  0.65000000000E+04  0.10000000000E+01 0.  0.
</event>
<event>
 4    1  0.2195261E-006  0.1300000E+05  0.7957747E-01  0.1322471E+00
    9000001   -1    0    0    0    0  0.00000000000E+00  0.00000000000E+00  0.64999999231E+04  0.65000000000E+04  0.10000000000E+01 0.  0.
    9000001   -1    0    0    0    0 -0.00000000000E+00 -0.00000000000E+00 -0.64999999231E+04  0.65000000000E+04  0.10000000000E+01 0.  0.
    9000001    1    1    2    0    0  0.17592179882E+04  0.62530418664E+04  0.23370598538E+03  0.65000000000E+04  0.10000000000E+01 0.  0.
    9000001    1    1    2    0    0 -0.17592179882E+04 -0.62530418664E+04 -0.23370598538E+03  0.65000000000E+04  0.10000000000E+01 0.  0.
</event>
<event>
 4    1  0.2195261E-006  0.1300000E+05  0.7957747E-01  0.1322471E+00
    9000001   -1    0    0    0    0  0.00000000000E+00  0.00000000000E+00  0.64999999231E+04  0.65000000000E+04  0.10000000000E+01 0.  0.
    9000001   -1    0    0    0    0 -0.00000000000E+00 -0.00000000000E+00 -0.64999999231E+04  0.65000000000E+04  0.10000000000E+01 0.  0.
    9000001    1    1    2    0    0 -0.14171795346E+04  0.49654339968E+04  0.39479192482E+04  0.65000000000E+04  0.10000000000E+01 0.  0.
    9000001    1    1    2    0    0  0.14171795346E+04 -0.49654339968E+04 -0.39479192482E+04  0.65000000000E+04  0.10000000000E+01 0.  0.
</event>
<event>
 4    1  0.2195261E-006  0.1300000E+05  0.7957747E-01  0.1322471E+00
    9000001   -1    0    0    0    0  0.00000000000E+00  0.00000000000E+00  0.64999999231E+04  0.65000000000E+04  0.10000000000E+01 0.  0.
    9000001   -1    0    0    0    0 -0.00000000000E+00 -0.00000000000E+00 -0.64999999231E+04  0.65000000000E+04  0.10000000000E+01 0.  0.
    9000001    1    1    2    0    0 -0.43241299687E+04 -0.42361856503E+04 -0.23678323737E+04  0.65000000000E+04  0.10000000000E+01 0.  0.
    9000001    1    1    2    0    0  0.43241299687E+04  0.42361856503E+04  0.23678323737E+04  0.65000000000E+04  0.10000000000E+01 0.  0.
</event>
<event>
 4    1  0.2195261E-006  0.1300000E+05  0.7957747E-01  0.1322471E+00
    9000001   -1    0    0    0    0  0.00000000000E+00  0.00000000000E+00  0.64999999231E+04  0.65000000000E+04  0.10000000000E+01 0.  0.
    9000001   -1    0    0    0    0 -0.00000000000E+00 -0.00000000000E+00 -0.64999999231E+04  0.65000000000E+04  0.10000000000E+01 0.  0.
    9000001    1    1    2    0    0 -0.62464277722E+04  0.14926300613E+04  0.10020950985E+04  0.65000000000E+04  0.10000000000E+01 0.  0.
    9000001    1    1    2    0    0  0.62464277722E+04 -0.14926300613E+04 -0.10020950985E+04  0.65000000000E+04  0.10000000000E+01 0.  0.
</event>
<event>
 4    1  0.2195261E-006  0.1300000E+05  0.7957747E-01  0.1322471E+00
    9000001   -1    0    0    0    0  0.00000000000E+00  0.00000000000E+00  0.64999999231E+04  0.65000000000E+04  0.10000000000E+01 0.  0.
    9000001   -1    0    0    0    0 -0.00000000000E+00 -0.00000000000E+00 -0.64999999231E+04  0.65000000000E+04  0.10000000000E+01 0.  0.
    9000001    1    1    2    0    0  0.26875145281E+04  0.17628647675E+04 -0.56497409209E+04  0.65000000000E+04  0.10000000000E+01 0.  0.
    9000001    1    1    2    0    0 -0.26875145281E+04 -0.17628647675E+04  0.56497409209E+04  0.65000000000E+04  0.10000000000E+01 0.  0.
</event>
<event>
 4    1  0.2195261E-006  0.1300000E+05  0.7957747E-01  0.1322471E+00
    9000001   -1    0    0    0    0  0.00000000000E+00  0.00000000000E+00  0.64999999231E+04  0.65000000000E+04  0.10000000000E+01 0.  0.
    9000001   -1    0    0    0    0 -0.00000000000E+00 -0.00000000000E+00 -0.64999999231E+04  0.65000000000E+04  0.10000000000E+01 0.  0.
    9000001    1    1    2    0    0 -0.47077026769E+04 -0.20805379376E+04 -0.39697476489E+04  0.65000000000E+04  0.10000000000E+01 0.  0.
    9000001    1    1    2    0    0  0.47077026769E+04  0.20805379376E+04  0.39697476489E+04  0.65000000000E+04  0.10000000000E+01 0.  0.
</event>
<event>
 4    1  0.2195261E-006  0.1300000E+05  0.7957747E-01  0.1322471E+00
    9000001   -1    0    0    0    0  0.00000000000E+00  0.00000000000E+00  0.64999999231E+04  0.65000000000E+04  0.10000000000E+01 0.  0.
    9000001   -1    0    0    0    0 -0.00000000000E+00 -0.00000000000E+00 -0.64999999231E+04  0.65000000000E+04  0.10000000000E+01 0.  0.
    9000001    1    1    2    0    0 -0.30667273759E+04  0.41026470269E+03  0.57163681718E+04  0.65000000000E+04  0.10000000000E+01 0.  0.
    9000001    1    1    2    0    0  0.30667273759E+04 -0.41026470269E+03 -0.57163681718E+04  0.65000000000E+04  0.10000000000E+01 0.  0.
</event>
<event>
 4    1  0.2195261E-006  0.1300000E+05  0.7957747E-01  0.1322471E+00
    9000001   -1    0    0    0    0  0.00000000000E+00  0.00000000000E+00  0.64999999231E+04  0.65000000000E+04  0.10000000000E+01 0.  0.
    9000001   -1    0    0    0    0 -0.00000000000E+00 -0.00000000000E+00 -0.64999999231E+04  0.65000000000E+04  0.10000000000E+01 0.  0.
    9000001    1    1    2    0    0 -0.52273948826E+03 -0.10627872114E+04  0.63911834405E+04  0.65000000000E+04  0.10000000000E+01 0.  0.
    9000001    1    1    2    0    0  0.52273948826E+03  0.10627872114E+04 -0.63911834405E+04  0.65000000000E+04  0.10000000000E+01 0.  0.
</event>
<event>
 4    1  0.2195261E-006  0.1300000E+05  0.7957747E-01  0.1322471E+00
    9000001   -1    0    0    0    0  0.00000000000E+00  0.00000000000E+00  0.64999999231E+04  0.65000000000E+04  0.10000000000E+01 0.  0.
    9000001   -1    0    0    0    0 -0.00000000000E+00 -0.00000000000E+00 -0.64999999231E+04  0.65000000000E+04  0.10000000000E+01 0.  0.
    9000001    1    1    2    0    0 -0.48805748879E+04  0.39697576409E+04  0.16343231127E+04  0.65000000000E+04  0.10000000000E+01 0.  0.
    9000001    1    1    2    0    0  0.48805748879E+04 -0.39697576409E+04 -0.16343231127E+04  0.65000000000E+04  0.10000000000E+01 0.  0.
</event>
<event>
 4    1  0.2195261E-006  0.1300000E+05  0.7957747E-01  0.1322471E+00
    9000001   -1    0    0    0    0  0.00000000000E+00  0.00000000000E+00  0.64999999231E+04  0.65000000000E+04  0.10000000000E+01 0.  0.
    9000001   -1    0    0    0    0 -0.00000000000E+00 -0.00000000000E+00 -0.64999999231E+04  0.65000000000E+04  0.10000000000E+01 0.  0.
    9000001    1    1    2    0    0 -0.25343239075E+04 -0.52551130431E+04  0.28654821996E+04  0.65000000000E+04  0.10000000000E+01 0.  0.
    9000001    1    1    2    0    0  0.25343239075E+04  0.52551130431E+04 -0.28654821996E+04  0.65000000000E+04  0.10000000000E+01 0.  0.
</event>
<event>
 4    1  0.2195261E-006  0.1300000E+05  0.7957747E-01  0.1322471E+00
    9000001   -1    0    0    0    0  0.00000000000E+00  0.00000000000E+00  0.64999999231E+04  0.65000000000E+04  0.10000000000E+01 0.  0.
    9000001   -1    0    0    0    0 -0.00000000000E+00 -0.00000000000E+00 -0.64999999231E+04  0.65000000000E+04  0.10000000000E+01 0.  0.
    9000001    1    1    2    0    0  0.54781817191E+03  0.15007624211E+04 -0.63006036541E+04  0.65000000000E+04  0.10000000000E+01 0.  0.
    9000001    1    1    2    0    0 -0.54781817191E+03 -0.15007624211E+04  0.63006036541E+04  0.65000000000E+04  0.10000000000E+01 0.  0.
</event>
<event>
 4    1  0.2195261E-006  0.1300000E+05  0.7957747E-01  0.1322471E+00
    9000001   -1    0    0    0    0  0.00000000000E+00  0.00000000000E+00  0.64999999231E+04  0.65000000000E+04  0.10000000000E+01 0.  0.
    9000001   -1    0    0    0    0 -0.00000000000E+00 -0.00000000000E+00 -0.64999999231E+04  0.65000000000E+04  0.10000000000E+01 0.  0.
    9000001    1    1    2    0    0 -0.28270042754E+04  0.69855033021E+03 -0.58112023939E+04  0.65000000000E+04  0.10000000000E+01 0.  0.
    9000001    1    1    2    0    0  0.28270042754E+04 -0.69855033021E+03  0.58112023939E+04  0.65000000000E+04  0.10000000000E+01 0.  0.
</event>
<event>
 4    1  0.2195261E-006  0.1300000E+05  0.7957747E-01  0.1322471E+00
    9000001   -1    0    0    0    0  0.00000000000E+00  0.00000000000E+00  0.64999999231E+04  0.65000000000E+04  0.10000000000E+01 0.  0.
    9000001   -1    0    0    0    0 -0.00000000000E+00 -0.00000000000E+00 -0.64999999231E+04  0.65000000000E+04  0.10000000000E+01 0.  0.
    9000001    1    1    2    0    0  0.51745699061E+04 -0.38829717357E+04 -0.62956793656E+03  0.65000000000E+04  0.10000000000E+01 0.  0.
    9000001    1    1    2    0    0 -0.51745699061E+04  0.38829717357E+04  0.62956793656E+03  0.65000000000E+04  0.10000000000E+01 0.  0.
</event>
<event>
 4    1  0.2195261E-006  0.1300000E+05  0.7957747E-01  0.1322471E+00
    9000001   -1    0    0    0    0  0.00000000000E+00  0.00000000000E+00  0.64999999231E+04  0.65000000000E+04  0.10000000000E+01 0.  0.
    9000001   -1    0    0    0    0 -0.00000000000E+00 -0.00000000000E+00 -0.64999999231E+04  0.65000000000E+04  0.10000000000E+01 0.  0.
    9000001    1    1    2    0    0 -0.16356613002E+04  0.59821317569E+04  0.19464610846E+04  0.65000000000E+04  0.10000000000E+01 0.  0.
    9000001    1    1    2    0    0  0.16356613002E+04 -0.59821317569E+04 -0.19464610846E+04  0.65000000000E+04  0.10000000000E+01 0.  0.
</event>
<event>
 4    1  0.2195261E-006  0.1300000E+05  0.7957747E-01  0.1322471E+00
    9000001   -1    0    0    0    0  0.00000000000E+00  0.00000000000E+00  0.64999999231E+04  0.65000000000E+04  0.10000000000E+01 0.  0.
    9000001   -1    0    0    0    0 -0.00000000000E+00 -0.00000000000E+00 -0.64999999231E+04  0.65000000000E+04  0.10000000000E+01 0.  0.
    9000001    1    1    2    0    0  0.29139139748E+04 -0.57202675983E+04 -0.10186476089E+04  0.65000000000E+04  0.10000000000E+01 0.  0.
    9000001    1    1    2    0    0 -0.29139139748E+04  0.57202675983E+04  0.10186476089E+04  0.65000000000E+04  0.10000000000E+01 0.  0.
</event>
<event>
 4    1  0.2195261E-006  0.1300000E+05  0.7957747E-01  0.1322471E+00
    9000001   -1    0    0    0    0  0.00000000000E+00  0.00000000000E+00  0.64999999231E+04  0.65000000000E+04  0.10000000000E+01 0.  0.
    9000001   -1    0    0    0    0 -0.00000000000E+00 -0.00000000000E+00 -0.64999999231E+04  0.65000000000E+04  0.10000000000E+01 0.  0.
    9000001    1    1    2    0    0 -0.54804311164E+04 -0.34317518286E+04  0.66178029992E+03  0.65000000000E+04  0.10000000000E+01 0.  0.
    9000001    1    1    2    0    0  0.54804311164E+04  0.34317518286E+04 -0.66178029992E+03  0.65000000000E+04  0.10000000000E+01 0.  0.
</event>
<event>
 4    1  0.2195261E-006  0.1300000E+05  0.7957747E-01  0.1322471E+00
    9000001   -1    0    0    0    0  0.00000000000E+00  0.00000000000E+00  0.64999999231E+04  0.65000000000E+04  0.10000000000E+01 0.  0.
    9000001   -1    0    0    0    0 -0.00000000000E+00 -0.00000000000E+00 -0.64999999231E+04  0.65000000000E+04  0.10000000000E+01 0.  0.
    9000001    1    1    2    0    0 -0.12974462977E+04 -0.60804308128E+04  0.18960467388E+04  0.65000000000E+04  0.10000000000E+01 0.  0.
    9000001    1    1    2    0    0  0.12974462977E+04  0.60804308128E+04 -0.18960467388E+04  0.65000000000E+04  0.10000000000E+01 0.  0.
</event>
<event>
 4    1  0.2195261E-006  0.1300000E+05  0.7957747E-01  0.1322471E+00
    9000001   -1    0    0    0    0  0.00000000000E+00  0.00000000000E+00  0.64999999231E+04  0.65000000000E+04  0.10000000000E+01 0.  0.
    9000001   -1    0    0    0    0 -0.00000000000E+00 -0.00000000000E+00 -0.64999999231E+04  0.65000000000E+04  0.10000000000E+01 0.  0.
    9000001    1    1    2    0    0  0.30911992000E+04  0.34325620167E+04 -0.45729645206E+04  0.65000000000E+04  0.10000000000E+01 0.  0.
    9000001    1    1    2    0    0 -0.30911992000E+04 -0.34325620167E+04  0.45729645206E+04  0.65000000000E+04  0.10000000000E+01 0.  0.
</event>
<event>
 4    1  0.2195261E-006  0.1300000E+05  0.7957747E-01  0.1322471E+00
    9000001   -1    0    0    0    0  0.00000000000E+00  0.00000000000E+00  0.64999999231E+04  0.65000000000E+04  0.10000000000E+01 0.  0.
    9000001   -1    0    0    0    0 -0.00000000000E+00 -0.00000000000E+00 -0.64999999231E+04  0.65000000000E+04  0.10000000000E+01 0.  0.
    9000001    1    1    2    0    0 -0.50789714208E+04 -0.13649093658E+04  0.38198260079E+04  0.65000000000E+04  0.10000000000E+01 0.  0.
    9000001    1    1    2    0    0  0.50789714208E+04  0.13649093658E+04 -0.38198260079E+04  0.65000000000E+04  0.10000000000E+01 0.  0.
</event>
<event>
 4    1  0.2195261E-006  0.1300000E+05  0.7957747E-01  0.1322471E+00
    9000001   -1    0    0    0    0  0.00000000000E+00  0.00000000000E+00  0.64999999231E+04  0.65000000000E+04  0.10000000000E+01 0.  0.
    9000001   -1    0    0    0    0 -0.00000000000E+00 -0.00000000000E+00 -0.64999999231E+04  0.65000000000E+04  0.10000000000E+01 0.  0.
    9000001    1    1    2    0    0  0.51813738620E+04  0.34620841193E+04 -0.18486041906E+04  0.65000000000E+04  0.10000000000E+01 0.  0.
    9000001    1    1    2    0    0 -0.51813738620E+04 -0.34620841193E+04  0.18486041906E+04  0.65000000000E+04  0.10000000000E+01 0.  0.
</event>
<event>
 4    1  0.2195261E-006  0.1300000E+05  0.7957747E-01  0.1322471E+00
    9000001   -1    0    0    0    0  0.00000000000E+00  0.00000000000E+00  0.64999999231E+04  0.65000000000E+04  0.10000000000E+01 0.  0.
    9000001   -1    0    0    0    0 -0.00000000000E+00 -0.00000000000E+00 -0.64999999231E+04  0.65000000000E+04  0.10000000000E+01 0.  0.
    9000001    1    1    2    0    0 -0.38331862034E+04 -0.52462466106E+04  0.18324582060E+03  0.65000000000E+04  0.10000000000E+01 0.  0.
    9000001    1    1    2    0    0  0.38331862034E+04  0.52462466106E+04 -0.18324582060E+03  0.65000000000E+04  0.10000000000E+01 0.  0.
</event>
<event>
 4    1  0.2195261E-006  0.1300000E+05  0.7957747E-01  0.1322471E+00
    9000001   -1    0    0    0    0  0.00000000000E+00  0.00000000000E+00  0.64999999231E+04  0.65000000000E+04  0.10000000000E+01 0.  0.
    9000001   -1    0    0    0    0 -0.00000000000E+00 -0.00000000000E+00 -0.64999999231E+04  0.65000000000E+04  0.10000000000E+01 0.  0.
    9000001    1    1    2    0    0  0.34005325619E+04  0.17662943326E+03  0.55367119610E+04  0.65000000000E+04  0.10000000000E+01 0.  0.
    9000001    1    1    2    0    0 -0.34005325619E+04 -0.17662943326E+03 -0.55367119610E+04  0.65000000000E+04  0.10000000000E+01 0.  0.
</event>
<event>
 4    1  0.2195261E-006  0.1300000E+05  0.7957747E-01  0.1322471E+00
    9000001   -1    0    0    0    0  0.00000000000E+00  0.00000000000E+00  0.64999999231E+04  0.65000000000E+04  0.10000000000E+01 0.  0.
    9000001   -1    0    0    0    0 -0.00000000000E+00 -0.00000000000E+00 -0.64999999231E+04  0.65000000000E+04  0.10000000000E+01 0.  0.
    9000001    1    1    2    0    0  0.33882714352E+04 -0.54937037953E+04  0.76735538774E+03  0.65000000000E+04  0.10000000000E+01 0.  0.
    9000001    1    1    2    0    0 -0.33882714352E+04  0.54937037953E+04 -0.76735538774E+03  0.65000000000E+04  0.10000000000E+01 0.  0.
</event>
<event>
 4    1  0.2195261E-006  0.1300000E+05  0.7957747E-01  0.1322471E+00
    9000001   -1    0    0    0    0  0.00000000000E+00  0.00000000000E+00  0.64999999231E+04  0.65000000000E+04  0.10000000000E+01 0.  0.
    9000001   -1    0    0    0    0 -0.00000000000E+00 -0.00000000000E+00 -0.64999999231E+04  0.65000000000E+04  0.10000000000E+01 0.  0.
    9000001    1    1    2    0    0 -0.29740255750E+04 -0.47408852654E+04 -0.33059306980E+04  0.65000000000E+04  0.10000000000E+01 0.  0.
    9000001    1    1    2    0    0  0.29740255750E+04  0.47408852654E+04  0.33059306980E+04  0.65000000000E+04  0.10000000000E+01 0.  0.
</event>
<event>
 4    1  0.2195261E-006  0.1300000E+05  0.7957747E-01  0.1322471E+00
    9000001   -1    0    0    0    0  0.00000000000E+00  0.00000000000E+00  0.64999999231E+04  0.65000000000E+04  0.10000000000E+01 0.  0.
    9000001   -1    0    0    0    0 -0.00000000000E+00 -0.00000000000E+00 -0.64999999231E+04  0.65000000000E+04  0.10000000000E+01 0.  0.
    9000001    1    1    2    0    0 -0.25627558622E+04 -0.59443931913E+04 -0.58861785361E+03  0.65000000000E+04  0.10000000000E+01 0.  0.
    9000001    1    1    2    0    0  0.25627558622E+04  0.59443931913E+04  0.58861785361E+03  0.65000000000E+04  0.10000000000E+01 0.  0.
</event>
<event>
 4    1  0.2195261E-006  0.1300000E+05  0.7957747E-01  0.1322471E+00
    9000001   -1    0    0    0    0  0.00000000000E+00  0.00000000000E+00  0.64999999231E+04  0.65000000000E+04  0.10000000000E+01 0.  0.
    9000001   -1    0    0    0    0 -0.00000000000E+00 -0.00000000000E+00 -0.64999999231E+04  0.65000000000E+04  0.10000000000E+01 0.  0.
    9000001    1    1    2    0    0 -0.26965217224E+04 -0.43660005431E+04  0.39895875549E+04  0.65000000000E+04  0.10000000000E+01 0.  0.
    9000001    1    1    2    0    0  0.26965217224E+04  0.43660005431E+04 -0.39895875549E+04  0.65000000000E+04  0.10000000000E+01 0.  0.
</event>
<event>
 4    1  0.2195261E-006  0.1300000E+05  0.7957747E-01  0.1322471E+00
    9000001   -1    0    0    0    0  0.00000000000E+00  0.00000000000E+00  0.64999999231E+04  0.65000000000E+04  0.10000000000E+01 0.  0.
    9000001   -1    0    0    0    0 -0.00000000000E+00 -0.00000000000E+00 -0.64999999231E+04  0.65000000000E+04  0.10000000000E+01 0.  0.
    9000001    1    1    2    0    0 -0.36809847345E+04  0.60255928401E+03  0.53232764998E+04  0.65000000000E+04  0.10000000000E+01 0.  0.
    9000001    1    1    2    0    0  0.36809847345E+04 -0.60255928401E+03 -0.53232764998E+04  0.65000000000E+04  0.10000000000E+01 0.  0.
</event>
<event>
 4    1  0.2195261E-006  0.1300000E+05  0.7957747E-01  0.1322471E+00
    9000001   -1    0    0    0    0  0.00000000000E+00  0.00000000000E+00  0.64999999231E+04  0.65000000000E+04  0.10000000000E+01 0.  0.
    9000001   -1    0    0    0    0 -0.00000000000E+00 -0.00000000000E+00 -0.64999999231E+04  0.65000000000E+04  0.10000000000E+01 0.  0.
    9000001    1    1    2    0    0  0.27742668635E+04  0.53860309305E+04  0.23545940596E+04  0.65000000000E+04  0.10000000000E+01 0.  0.
    9000001    1    1    2    0    0 -0.27742668635E+04 -0.53860309305E+04 -0.23545940596E+04  0.65000000000E+04  0.10000000000E+01 0.  0.
</event>
<event>
 4    1  0.2195261E-006  0.1300000E+05  0.7957747E-01  0.1322471E+00
    9000001   -1    0    0    0    0  0.00000000000E+00  0.00000000000E+00  0.64999999231E+04  0.65000000000E+04  0.10000000000E+01 0.  0.
    9000001   -1    0    0    0    0 -0.00000000000E+00 -0.00000000000E+00 -0.64999999231E+04  0.65000000000E+04  0.10000000000E+01 0.  0.
    9000001    1    1    2    0    0 -0.56766025725E+02 -0.59084563453E+04 -0.27086749961E+04  0.65000000000E+04  0.10000000000E+01 0.  0.
    9000001    1    1    2    0    0  0.56766025725E+02  0.59084563453E+04  0.27086749961E+04  0.65000000000E+04  0.10000000000E+01 0.  0.
</event>
<event>
 4    1  0.2195261E-006  0.1300000E+05  0.7957747E-01  0.1322471E+00
    9000001   -1    0    0    0    0  0.00000000000E+00  0.00000000000E+00  0.64999999231E+04  0.65000000000E+04  0.10000000000E+01 0.  0.
    9000001   -1    0    0    0    0 -0.00000000000E+00 -0.00000000000E+00 -0.64999999231E+04  0.65000000000E+04  0.10000000000E+01 0.  0.
    9000001    1    1    2    0    0  0.19455975416E+04 -0.34640351746E+04  0.51444250908E+04  0.65000000000E+04  0.10000000000E+01 0.  0.
    9000001    1    1    2    0    0 -0.19455975416E+04  0.34640351746E+04 -0.51444250908E+04  0.65000000000E+04  0.10000000000E+01 0.  0.
</event>
<event>
 4    1  0.2195261E-006  0.1300000E+05  0.7957747E-01  0.1322471E+00
    9000001   -1    0    0    0    0  0.00000000000E+00  0.00000000000E+00  0.64999999231E+04  0.65000000000E+04  0.10000000000E+01 0.  0.
    9000001   -1    0    0    0    0 -0.00000000000E+00 -0.00000000000E+00 -0.64999999231E+04  0.65000000000E+04  0.10000000000E+01 0.  0.
    9000001    1    1    2    0    0  0.95742053828E+03 -0.64256697915E+04  0.21003010005E+03  0.65000000000E+04  0.10000000000E+01 0.  0.
    9000001    1    1    2    0    0 -0.95742053828E+03  0.64256697915E+04 -0.21003010005E+03  0.65000000000E+04  0.10000000000E+01 0.  0.
</event>
<event>
 4    1  0.2195261E-006  0.1300000E+05  0.7957747E-01  0.1322471E+00
    9000001   -1    0    0    0    0  0.00000000000E+00  0.00000000000E+00  0.64999999231E+04  0.65000000000E+04  0.10000000000E+01 0.  0.
    9000001   -1    0    0    0    0 -0.00000000000E+00 -0.00000000000E+00 -0.64999999231E+04  0.65000000000E+04  0.10000000000E+01 0.  0.
    9000001    1    1    2    0    0  0.93597494182E+03 -0.59463851786E+04  0.24524382185E+04  0.65000000000E+04  0.10000000000E+01 0.  0.
    9000001    1    1    2    0    0 -0.93597494182E+03  0.59463851786E+04 -0.24524382185E+04  0.65000000000E+04  0.10000000000E+01 0.  0.
</event>
<event>
 4    1  0.2195261E-006  0.1300000E+05  0.7957747E-01  0.1322471E+00
    9000001   -1    0    0    0    0  0.00000000000E+00  0.00000000000E+00  0.64999999231E+04  0.65000000000E+04  0.10000000000E+01 0.  0.
    9000001   -1    0    0    0    0 -0.00000000000E+00 -0.00000000000E+00 -0.64999999231E+04  0.65000000000E+04  0.10000000000E+01 0.  0.
    9000001    1    1    2    0    0  0.62928866393E+04  0.15668849415E+04  0.44096295177E+03  0.65000000000E+04  0.10000000000E+01 0.  0.
    9000001    1    1    2    0    0 -0.62928866393E+04 -0.15668849415E+04 -0.44096295177E+03  0.65000000000E+04  0.10000000000E+01 0.  0.
</event>
<event>
 4    1  0.2195261E-006  0.1300000E+05  0.7957747E-01  0.1322471E+00
    9000001   -1    0    0    0    0  0.00000000000E+00  0.00000000000E+00  0.64999999231E+04  0.65000000000E+04  0.10000000000E+01 0.  0.
    9000001   -1    0    0    0    0 -0.00000000000E+00 -0.00000000000E+00 -0.64999999231E+04  0.65000000000E+04  0.10000000000E+01 0.  0.
    9000001    1    1    2    0    0  0.24755771983E+04 -0.27761573424E+03  0.60037026941E+04  0.65000000000E+04  0.10000000000E+01 0.  0.
    9000001    1    1    2    0    0 -0.24755771983E+04  0.27761573424E+03 -0.60037026941E+04  0.65000000000E+04  0.10000000000E+01 0.  0.
</event>
<event>
 4    1  0.2195261E-006  0.1300000E+05  0.7957747E-01  0.1322471E+00
    9000001   -1    0    0    0    0  0.00000000000E+00  0.00000000000E+00  0.64999999231E+04  0.65000000000E+04  0.10000000000E+01 0.  0.
    9000001   -1    0    0    0    0 -0.00000000000E+00 -0.00000000000E+00 -0.64999999231E+04  0.65000000000E+04  0.10000000000E+01 0.  0.
    9000001    1    1    2    0    0  0.45585300554E+04  0.17166820569E+04  0.43038128967E+04  0.65000000000E+04  0.10000000000E+01 0.  0.
    9000001    1    1    2    0    0 -0.45585300554E+04 -0.17166820569E+04 -0.43038128967E+04  0.65000000000E+04  0.10000000000E+01 0.  0.
</event>
<event>
 4    1  0.2195261E-006  0.1300000E+05  0.7957747E-01  0.1322471E+00
    9000001   -1    0    0    0    0  0.00000000000E+00  0.00000000000E+00  0.64999999231E+04  0.65000000000E+04  0.10000000000E+01 0.  0.
    9000001   -1    0    0    0    0 -0.00000000000E+00 -0.00000000000E+00 -0.64999999231E+04  0.65000000000E+04  0.10000000000E+01 0.  0.
    9000001    1    1    2    0    0  0.69478500781E+03 -0.64182890685E+04  0.75686077092E+03  0.65000000000E+04  0.10000000000E+01 0.  0.
    9000001    1    1    2    0    0 -0.69478500781E+03  0.64182890685E+04 -0.75686077092E+03  0.65000000000E+04  0.10000000000E+01 0.  0.
</event>
<event>
 4    1  0.2195261E-006  0.1300000E+05  0.7957747E-01  0.1322471E+00
    9000001   -1    0    0    0    0  0.00000000000E+00  0.00000000000E+00  0.64999999231E+04  0.65000000000E+04  0.10000000000E+01 0.  0.
    9000001   -1    0    0    0    0 -0.00000000000E+00 -0.00000000000E+00 -0.64999999231E+04  0.65000000000E+04  0.10000000000E+01 0.  0.
    9000001    1    1    2    0    0  0.14881014638E+04 -0.11098815514E+04  0.62292628758E+04  0.65000000000E+04  0.10000000000E+01 0.  0.
    9000001    1    1    2    0    0 -0.14881014638E+04  0.11098815514E+04 -0.62292628758E+04  0.65000000000E+04  0.10000000000E+01 0.  0.
</event>
<event>
 4    1  0.2195261E-006  0.1300000E+05  0.7957747E-01  0.1322471E+00
    9000001   -1    0    0    0    0  0.00000000000E+00  0.00000000000E+00  0.64999999231E+04  0.65000000000E+04  0.10000000000E+01 0.  0.
    9000001   -1    0    0    0    0 -0.00000000000E+00 -0.00000000000E+00 -0.64999999231E+04  0.65000000000E+04  0.10000000000E+01 0.  0.
    9000001    1    1    2    0    0 -0.19063560047E+04 -0.59649917360E+04  0.17420331147E+04  0.65000000000E+04  0.10000000000E+01 0.  0.
    9000001    1    1    2    0    0  0.19063560047E+04  0.59649917360E+04 -0.17420331147E+04  0.65000000000E+04  0.10000000000E+01 0.  0.
</event>
<event>
 4    1  0.2195261E-006  0.1300000E+05  0.7957747E-01  0.1322471E+00
    9000001   -1    0    0    0    0  0.00000000000E+00  0.00000000000E+00  0.64999999231E+04  0.65000000000E+04  0.10000000000E+01 0.  0.
    9000001   -1    0    0    0    0 -0.00000000000E+00 -0.00000000000E+00 -0.64999999231E+04  0.65000000000E+04  0.10000000000E+01 0.  0.
    9000001    1    1    2    0    0 -0.20655255531E+04  0.38345977038E+04  0.48248796503E+04  0.65000000000E+04  0.10000000000E+01 0.  0.
    9000001    1    1    2    0    0  0.20655255531E+04 -0.38345977038E+04 -0.48248796503E+04  0.65000000000E+04  0.10000000000E+01 0.  0.
</event>
<event>
 4    1  0.2195261E-006  0.1300000E+05  0.7957747E-01  0.1322471E+00
    9000001   -1    0    0    0    0  0.00000000000E+00  0.00000000000E+00  0.64999999231E+04  0.65000000000E+04  0.10000000000E+01 0.  0.
    9000001   -1    0    0    0    0 -0.00000000000E+00 -0.00000000000E+00 -0.64999999231E+04  0.65000000000E+04  0.10000000000E+01 0.  0.
    9000001    1    1    2    0    0 -0.54717761395E+04  0.21207722640E+04  0.27949937179E+04  0.65000000000E+04  0.10000000000E+01 0.  0.
    9000001    1    1    2    0    0  0.54717761395E+04 -0.21207722640E+04 -0.27949937179E+04  0.65000000000E+04  0.10000000000E+01 0.  0.
</event>
<event>
 4    1  0.2195261E-006  0.1300000E+05  0.7957747E-01  0.1322471E+00
    9000001   -1    0    0    0    0  0.00000000000E+00  0.00000000000E+00  0.64999999231E+04  0.65000000000E+04  0.10000000000E+01 0.  0.
    9000001   -1    0    0    0    0 -0.00000000000E+00 -0.00000000000E+00 -0.64999999231E+04  0.65000000000E+04  0.10000000000E+01 0.  0.
    9000001    1    1    2    0    0 -0.57239569029E+04 -0.14333215285E+04 -0.27261521913E+04  0.65000000000E+04  0.10000000000E+01 0.  0.
    9000001    1    1    2    0    0  0.57239569029E+04  0.14333215285E+04  0.27261521913E+04  0.65000000000E+04  0.10000000000E+01 0.  0.
</event>
<event>
 4    1  0.2195261E-006  0.1300000E+05  0.7957747E-01  0.1322471E+00
    9000001   -1    0    0    0    0  0.00000000000E+00  0.00000000000E+00  0.64999999231E+04  0.65000000000E+04  0.10000000000E+01 0.  0.
    9000001   -1    0    0    0    0 -0.00000000000E+00 -0.00000000000E+00 -0.64999999231E+04  0.65000000000E+04  0.10000000000E+01 0.  0.
    9000001    1    1    2    0    0  0.34928124653E+04 -0.37876824545E+03  0.54687105152E+04  0.65000000000E+04  0.10000000000E+01 0.  0.
    9000001    1    1    2    0    0 -0.34928124653E+04  0.37876824545E+03 -0.54687105152E+04  0.65000000000E+04  0.10000000000E+01 0.  0.
</event>
<event>
 4    1  0.2195261E-006  0.1300000E+05  0.7957747E-01  0.1322471E+00
    9000001   -1    0    0    0    0  0.00000000000E+00  0.00000000000E+00  0.64999999231E+04  0.65000000000E+04  0.10000000000E+01 0.  0.
    9000001   -1    0    0    0    0 -0.00000000000E+00 -0.00000000000E+00 -0.64999999231E+04  0.65000000000E+04  0.10000000000E+01 0.  0.
    9000001    1    1    2    0    0 -0.47835775136E+03  0.62708025330E+04 -0.16426224318E+04  0.65000000000E+04  0.10000000000E+01 0.  0.
    9000001    1    1    2    0    0  0.47835775136E+03 -0.62708025330E+04  0.16426224318E+04  0.65000000000E+04  0.10000000000E+01 0.  0.
</event>
<event>
 4    1  0.2195261E-006  0.1300000E+05  0.7957747E-01  0.1322471E+00
    9000001   -1    0    0    0    0  0.00000000000E+00  0.00000000000E+00  0.64999999231E+04  0.65000000000E+04  0.10000000000E+01 0.  0.
    9000001   -1    0    0    0    0 -0.00000000000E+00 -0.00000000000E+00 -0.64999999231E+04  0.65000000000E+04  0.10000000000E+01 0.  0.
    9000001    1    1    2    0    0  0.64022673271E+04  0.34825371095E+03  0.10675633120E+04  0.65000000000E+04  0.10000000000E+01 0.  0.
    9000001    1    1    2    0    0 -0.64022673271E+04 -0.34825371095E+03 -0.10675633120E+04  0.65000000000E+04  0.10000000000E+01 0.  0.
</event>
<event>
 4    1  0.2195261E-006  0.1300000E+05  0.7957747E-01  0.1322471E+00
    9000001   -1    0    0    0    0  0.00000000000E+00  0.00000000000E+00  0.64999999231E+04  0.65000000000E+04  0.10000000000E+01 0.  0.
    9000001   -1    0    0    0    0 -0.00000000000E+00 -0.00000000000E+00 -0.64999999231E+04  0.65000000000E+04  0.10000000000E+01 0.  0.
    9000001    1    1    2    0    0  0.25797571350E+04  0.36766248299E+04 -0.46986468248E+04  0.65000000000E+04  0.10000000000E+01 0.  0.
    9000001    1    1    2    0    0 -0.25797571350E+04 -0.36766248299E+04  0.46986468248E+04  0.65000000000E+04  0.10000000000E+01 0.  0.
</event>
<event>
 4    1  0.2195261E-006  0.1300000E+05  0.7957747E-01  0.1322471E+00
    9000001   -1    0    0    0    0  0.00000000000E+00  0.00000000000E+00  0.64999999231E+04  0.65000000000E+04  0.10000000000E+01 0.  0.
    9000001   -1    0    0    0    0 -0.00000000000E+00 -0.00000000000E+00 -0.64999999231E+04  0.65000000000E+04  0.10000000000E+01 0.  0.
    9000001    1    1    2    0    0 -0.61954935582E+03  0.44223719282E+04  0.47232175606E+04  0.65000000000E+04  0.10000000000E+01 0.  0.
    9000001    1    1    2    0    0  0.61954935582E+03 -0.44223719282E+04 -0.47232175606E+04  0.65000000000E+04  0.10000000000E+01 0.  0.
</event>
<event>
 4    1  0.2195261E-006  0.1300000E+05  0.7957747E-01  0.1322471E+00
    9000001   -1    0    0    0    0  0.00000000000E+00  0.00000000000E+00  0.64999999231E+04  0.65000000000E+04  0.10000000000E+01 0.  0.
    9000001   -1    0    0    0    0 -0.00000000000E+00 -0.00000000000E+00 -0.64999999231E+04  0.65000000000E+04  0.10000000000E+01 0.  0.
    9000001    1    1    2    0    0 -0.64401598622E+04 -0.85914220258E+03  0.19030140709E+03  0.65000000000E+04  0.10000000000E+01 0.  0.
    9000001    1    1    2    0    0  0.64401598622E+04  0.85914220258E+03 -0.19030140709E+03  0.65000000000E+04  0.10000000000E+01 0.  0.
</event>
<event>
 4    1  0.2195261E-006  0.1300000E+05  0.7957747E-01  0.1322471E+00
    9000001   -1    0    0    0    0  0.00000000000E+00  0.00000000000E+00  0.64999999231E+04  0.65000000000E+04  0.10000000000E+01 0.  0.
    9000001   -1    0    0    0    0 -0.00000000000E+00 -0.00000000000E+00 -0.64999999231E+04  0.65000000000E+04  0.10000000000E+01 0.  0.
    9000001    1    1    2    0    0 -0.42923349700E+03 -0.62597463136E+04  0.16974491729E+04  0.65000000000E+04  0.10000000000E+01 0.  0.
    9000001    1    1    2    0    0  0.42923349700E+03  0.62597463136E+04 -0.16974491729E+04  0.65000000000E+04  0.10000000000E+01 0.  0.
</event>
<event>
 4    1  0.2195261E-006  0.1300000E+05  0.7957747E-01  0.1322471E+00
    9000001   -1    0    0    0    0  0.00000000000E+00  0.00000000000E+00  0.64999999231E+04  0.65000000000E+04  0.10000000000E+01 0.  0.
    9000001   -1    0    0    0    0 -0.00000000000E+00 -0.00000000000E+00 -0.64999999231E+04  0.65000000000E+04  0.10000000000E+01 0.  0.
    9000001    1    1    2    0    0  0.19225957180E+04  0.62053332741E+04 -0.21786156646E+03  0.65000000000E+04  0.10000000000E+01 0.  0.
    9000001    1    1    2    0    0 -0.19225957180E+04 -0.62053332741E+04  0.21786156646E+03  0.65000000000E+04  0.10000000000E+01 0.  0.
</event>
<event>
 4    1  0.2195261E-006  0.1300000E+05  0.7957747E-01  0.1322471E+00
    9000001   -1    0    0    0    0  0.00000000000E+00  0.00000000000E+00  0.64999999231E+04  0.65000000000E+04  0.10000000000E+01 0.  0.
    9000001   -1    0    0    0    0 -0.00000000000E+00 -0.00000000000E+00 -0.64999999231E+04  0.65000000000E+04  0.10000000000E+01 0.  0.
    9000001    1    1    2    0    0 -0.40186440712E+04 -0.40470871608E+04 -0.31179455322E+04  0.65000000000E+04  0.10000000000E+01 0.  0.
    9000001    1    1    2    0    0  0.40186440712E+04  0.40470871608E+04  0.31179455322E+04  0.65000000000E+04  0.10000000000E+01 0.  0.
</event>
<event>
 4    1  0.2195261E-006  0.1300000E+05  0.7957747E-01  0.1322471E+00
    9000001   -1    0    0    0    0  0.00000000000E+00  0.00000000000E+00  0.64999999231E+04  0.65000000000E+04  0.10000000000E+01 0.  0.
    9000001   -1    0    0    0    0 -0.00000000000E+00 -0.00000000000E+00 -0.64999999231E+04  0.65000000000E+04  0.10000000000E+01 0.  0.
    9000001    1    1    2    0    0  0.44265296747E+04  0.74169058267E+02  0.47592365974E+04  0.65000000000E+04  0.10000000000E+01 0.  0.
    9000001    1    1    2    0    0 -0.44265296747E+04 -0.74169058267E+02 -0.47592365974E+04  0.65000000000E+04  0.10000000000E+01 0.  0.
</event>
<event>
 4    1  0.2195261E-006  0.1300000E+05  0.7957747E-01  0.1322471E+00
    9000001   -1    0    0    0    0  0.00000000000E+00  0.00000000000E+00  0.64999999231E+04  0.65000000000E+04  0.10000000000E+01 0.  0.
    9000001   -1    0    0    0    0 -0.00000000000E+00 -0.00000000000E+00 -0.64999999231E+04  0.65000000000E+04  0.10000000000E+01 0.  0.
    9000001    1    1    2    0    0 -0.42184320366E+04  0.48817999985E+04  0.78921412048E+03  0.65000000000E+04  0.10000000000E+01 0.  0.
    9000001    1    1    2    0    0  0.42184320366E+04 -0.48817999985E+04 -0.78921412048E+03  0.65000000000E+04  0.10000000000E+01 0.  0.
</event>
<event>
 4    1  0.2195261E-006  0.1300000E+05  0.7957747E-01  0.1322471E+00
    9000001   -1    0    0    0    0  0.00000000000E+00  0.00000000000E+00  0.64999999231E+04  0.65000000000E+04  0.10000000000E+01 0.  0.
    9000001   -1    0    0    0    0 -0.00000000000E+00 -0.00000000000E+00 -0.64999999231E+04  0.65000000000E+04  0.10000000000E+01 0.  0.
    9000001    1    1    2    0    0  0.46611623064E+04  0.41486436192E+04  0.18199783168E+04  0.65000000000E+04  0.10000000000E+01 0.  0.
    9000001    1    1    2    0    0 -0.46611623064E+04 -0.41486436192E+04 -0.18199783168E+04  0.65000000000E+04  0.10000000000E+01 0.  0.
</event>
<event>
 4    1  0.2195261E-006  0.1300000E+05  0.7957747E-01  0.1322471E+00
    9000001   -1    0    0    0    0  0.00000000000E+00  0.00000000000E+00  0.64999999231E+04  0.65000000000E+04  0.10000000000E+01 0.  0.
    9000001   -1    0    0    0    0 -0.00000000000E+00 -0.00000000000E+00 -0.64999999231E+04  0.65000000000E+04  0.10000000000E+01 0.  0.
    9000001    1    1    2    0    0 -0.37691389221E+04  0.95284557900E+03  0.52091915005E+04  0.65000000000E+04  0.10000000000E+01 0.  0.
    9000001    1    1    2    0    0  0.37691389221E+04 -0.95284557900E+03 -0.52091915005E+04  0.65000000000E+04  0.10000000000E+01 0.  0.
</event>
<event>
 4    1  0.2195261E-006  0.1300000E+05  0.7957747E-01  0.1322471E+00
    9000001   -1    0    0    0    0  0.00000000000E+00  0.00000000000E+00  0.64999999231E+04  0.65000000000E+04  0.10000000000E+01 0.  0.
    9000001   -1    0    0    0    0 -0.00000000000E+00 -0.00000000000E+00 -0.64999999231E+04  0.65000000000E+04  0.10000000000E+01 0.  0.
    9000001    1    1    2    0    0  0.61578270708E+04  0.51299061579E+03  0.20169296950E+04  0.65000000000E+04  0.10000000000E+01 0.  0.
    9000001    1    1    2    0    0 -0.61578270708E+04 -0.51299061579E+03 -0.20169296950E+04  0.65000000000E+04  0.10000000000E+01 0.  0.
</event>
<event>
 4    1  0.2195261E-006  0.1300000E+05  0.7957747E-01  0.1322471E+00
    9000001   -1    0    0    0    0  0.00000000000E+00  0.00000000000E+00  0.64999999231E+04  0.65000000000E+04  0.10000000000E+01 0.  0.
    9000001   -1    0    0    0    0 -0.00000000000E+00 -0.00000000000E+00 -0.64999999231E+04  0.65000000000E+04  0.10000000000E+01 0.  0.
    9000001    1    1    2    0    0 -0.47990811335E+04  0.31474660938E+04 -0.30516022779E+04  0.65000000000E+04  0.10000000000E+01 0.  0.
    9000001    1    1    2    0    0  0.47990811335E+04 -0.31474660938E+04  0.30516022779E+04  0.65000000000E+04  0.10000000000E+01 0.  0.
</event>
<event>
 4    1  0.2195261E-006  0.1300000E+05  0.7957747E-01  0.1322471E+00
    9000001   -1    0    0    0    0  0.00000000000E+00  0.00000000000E+00  0.64999999231E+04  0.65000000000E+04  0.10000000000E+01 0.  0.
    9000001   -1    0    0    0    0 -0.00000000000E+00 -0.00000000000E+00 -0.64999999231E+04  0.65000000000E+04  0.10000000000E+01 0.  0.
    9000001    1    1    2    0    0 -0.47197107308E+04 -0.10812337520E+04 -0.43365035675E+04  0.65000000000E+04  0.10000000000E+01 0.  0.
    9000001    1    1    2    0    0  0.47197107308E+04  0.10812337520E+04  0.43365035675E+04  0.65000000000E+04  0.10000000000E+01 0.  0.
</event>
<event>
 4    1  0.2195261E-006  0.1300000E+05  0.7957747E-01  0.1322471E+00
    9000001   -1    0    0    0    0  0.00000000000E+00  0.00000000000E+00  0.64999999231E+04  0.65000000000E+04  0.10000000000E+01 0.  0.
    9000001   -1    0    0    0    0 -0.00000000000E+00 -0.00000000000E+00 -0.64999999231E+04  0.65000000000E+04  0.10000000000E+01 0.  0.
    9000001    1    1    2    0    0 -0.17366921997E+04 -0.20907705563E+04  0.59044540547E+04  0.65000000000E+04  0.10000000000E+01 0.  0.
    9000001    1    1    2    0    0  0.17366921997E+04  0.20907705563E+04 -0.59044540547E+04  0.65000000000E+04  0.10000000000E+01 0.  0.
</event>
<event>
 4    1  0.2195261E-006  0.1300000E+05  0.7957747E-01  0.1322471E+00
    9000001   -1    0    0    0    0  0.00000000000E+00  0.00000000000E+00  0.64999999231E+04  0.65000000000E+04  0.10000000000E+01 0.  0.
    9000001   -1    0    0    0    0 -0.00000000000E+00 -0.00000000000E+00 -0.64999999231E+04  0.65000000000E+04  0.10000000000E+01 0.  0.
    9000001    1    1    2    0    0  0.55175360127E+04  0.27888062700E+04  0.20073253192E+04  0.65000000000E+04  0.10000000000E+01 0.  0.
    9000001    1    1    2    0    0 -0.55175360127E+04 -0.27888062700E+04 -0.20073253192E+04  0.65000000000E+04  0.10000000000E+01 0.  0.
</event>
<event>
 4    1  0.2195261E-006  0.1300000E+05  0.7957747E-01  0.1322471E+00
    9000001   -1    0    0    0    0  0.00000000000E+00  0.00000000000E+00  0.64999999231E+04  0.65000000000E+04  0.10000000000E+01 0.  0.
    9000001   -1    0    0    0    0 -0.00000000000E+00 -0.00000000000E+00 -0.64999999231E+04  0.65000000000E+04  0.10000000000E+01 0.  0.
    9000001    1    1    2    0    0 -0.71159126674E+03  0.15589950372E+04  0.62700216382E+04  0.65000000000E+04  0.10000000000E+01 0.  0.
    9000001    1    1    2    0    0  0.71159126674E+03 -0.15589950372E+04 -0.62700216382E+04  0.65000000000E+04  0.10000000000E+01 0.  0.
</event>
<event>
 4    1  0.2195261E-006  0.1300000E+05  0.7957747E-01  0.1322471E+00
    9000001   -1    0    0    0    0  0.00000000000E+00  0.00000000000E+00  0.64999999231E+04  0.65000000000E+04  0.10000000000E+01 0.  0.
    9000001   -1    0    0    0    0 -0.00000000000E+00 -0.00000000000E+00 -0.64999999231E+04  0.65000000000E+04  0.10000000000E+01 0.  0.
    9000001    1    1    2    0    0 -0.27228010289E+03  0.22372590561E+04  0.60967642616E+04  0.65000000000E+04  0.10000000000E+01 0.  0.
    9000001    1    1    2    0    0  0.27228010289E+03 -0.22372590561E+04 -0.60967642616E+04  0.65000000000E+04  0.10000000000E+01 0.  0.
</event>
<event>
 4    1  0.2195261E-006  0.1300000E+05  0.7957747E-01  0.1322471E+00
    9000001   -1    0    0    0    0  0.00000000000E+00  0.00000000000E+00  0.64999999231E+04  0.65000000000E+04  0.10000000000E+01 0.  0.
    9000001   -1    0    0    0    0 -0.00000000000E+00 -0.00000000000E+00 -0.64999999231E+04  0.65000000000E+04  0.10000000000E+01 0.  0.
    9000001    1    1    2    0    0 -0.35599606379E+04  0.52725923190E+04  0.13328351340E+04  0.65000000000E+04  0.10000000000E+01 0.  0.
    9000001    1    1    2    0    0  0.35599606379E+04 -0.52725923190E+04 -0.13328351340E+04  0.65000000000E+04  0.10000000000E+01 0.  0.
</event>
<event>
 4    1  0.2195261E-006  0.1300000E+05  0.7957747E-01  0.1322471E+00
    9000001   -1    0    0    0    0  0.00000000000E+00  0.00000000000E+00  0.64999999231E+04  0.65000000000E+04  0.10000000000E+01 0.  0.
    9000001   -1    0    0    0    0 -0.00000000000E+00 -0.00000000000E+00 -0.64999999231E+04  0.65000000000E+04  0.10000000000E+01 0.  0.
    9000001    1    1    2    0    0 -0.54977823419E+04 -0.34139728118E+02  0.34674519175E+04  0.65000000000E+04  0.10000000000E+01 0.  0.
    9000001    1    1    2    0    0  0.54977823419E+04  0.34139728118E+02 -0.34674519175E+04  0.65000000000E+04  0.10000000000E+01 0.  0.
</event>
<event>
 4    1  0.2195261E-006  0.1300000E+05  0.7957747E-01  0.1322471E+00
    9000001   -1    0    0    0    0  0.00000000000E+00  0.00000000000E+00  0.64999999231E+04  0.65000000000E+04  0.10000000000E+01 0.  0.
    9000001   -1    0    0    0    0 -0.00000000000E+00 -0.00000000000E+00 -0.64999999231E+04  0.65000000000E+04  0.10000000000E+01 0.  0.
    9000001    1    1    2    0    0  0.75213467647E+03  0.62479310505E+04  0.16271601078E+04  0.65000000000E+04  0.10000000000E+01 0.  0.
    9000001    1    1    2    0    0 -0.75213467647E+03 -0.62479310505E+04 -0.16271601078E+04  0.65000000000E+04  0.10000000000E+01 0.  0.
</event>
<event>
 4    1  0.2195261E-006  0.1300000E+05  0.7957747E-01  0.1322471E+00
    9000001   -1    0    0    0    0  0.00000000000E+00  0.00000000000E+00  0.64999999231E+04  0.65000000000E+04  0.10000000000E+01 0.  0.
    9000001   -1    0    0    0    0 -0.00000000000E+00 -0.00000000000E+00 -0.64999999231E+04  0.65000000000E+04  0.10000000000E+01 0.  0.
    9000001    1    1    2    0    0  0.22265306056E+04 -0.51994164984E+04  0.32029093866E+04  0.65000000000E+04  0.10000000000E+01 0.  0.
    9000001    1    1    2    0    0 -0.22265306056E+04  0.51994164984E+04 -0.32029093866E+04  0.65000000000E+04  0.10000000000E+01 0.  0.
</event>
<event>
 4    1  0.2195261E-006  0.1300000E+05  0.7957747E-01  0.1322471E+00
    9000001   -1    0    0    0    0  0.00000000000E+00  0.00000000000E+00  0.64999999231E+04  0.65000000000E+04  0.10000000000E+01 0.  0.
    9000001   -1    0    0    0    0 -0.00000000000E+00 -0.00000000000E+00 -0.64999999231E+04  0.65000000000E+04  0.10000000000E+01 0.  0.
    9000001    1    1    2    0    0 -0.47624066057E+04 -0.79372289233E+03  0.43519520094E+04  0.65000000000E+04  0.10000000000E+01 0.  0.
    9000001    1    1    2    0    0  0.47624066057E+04  0.79372289233E+03 -0.43519520094E+04  0.65000000000E+04  0.10000000000E+01 0.  0.
</event>
<event>
 4    1  0.2195261E-006  0.1300000E+05  0.7957747E-01  0.1322471E+00
    9000001   -1    0    0    0    0  0.00000000000E+00  0.00000000000E+00  0.64999999231E+04  0.65000000000E+04  0.10000000000E+01 0.  0.
    9000001   -1    0    0    0    0 -0.00000000000E+00 -0.00000000000E+00 -0.64999999231E+04  0.65000000000E+04  0.10000000000E+01 0.  0.
    9000001    1    1    2    0    0  0.40599541864E+04 -0.49879144578E+04 -0.94206176352E+03  0.65000000000E+04  0.10000000000E+01 0.  0.
    9000001    1    1    2    0    0 -0.40599541864E+04  0.49879144578E+04  0.94206176352E+03  0.65000000000E+04  0.10000000000E+01 0.  0.
</event>
<event>
 4    1  0.2195261E-006  0.1300000E+05  0.7957747E-01  0.1322471E+00
    9000001   -1    0    0    0    0  0.00000000000E+00  0.00000000000E+00  0.64999999231E+04  0.65000000000E+04  0.10000000000E+01 0.  0.
    9000001   -1    0    0    0    0 -0.00000000000E+00 -0.00000000000E+00 -0.64999999231E+04  0.65000000000E+04  0.10000000000E+01 0.  0.
    9000001    1    1    2    0    0 -0.38378808717E+03 -0.64856635221E+04 -0.19716587554E+03  0.65000000000E+04  0.10000000000E+01 0.  0.
    9000001    1    1    2    0    0  0.38378808717E+03  0.64856635221E+04  0.19716587554E+03  0.65000000000E+04  0.10000000000E+01 0.  0.
</event>
<event>
 4    1  0.2195261E-006  0.1300000E+05  0.7957747E-01  0.1322471E+00
    9000001   -1    0    0    0    0  0.00000000000E+00  0.00000000000E+00  0.64999999231E+04  0.65000000000E+04  0.10000000000E+01 0.  0.
    9000001   -1    0    0    0    0 -0.00000000000E+00 -0.00000000000E+00 -0.64999999231E+04  0.65000000000E+04  0.10000000000E+01 0.  0.
    9000001    1    1    2    0    0  0.33659474179E+04  0.50208649017E+04 -0.23898352701E+04  0.65000000000E+04  0.10000000000E+01 0.  0.
    9000001    1    1    2    0    0 -0.33659474179E+04 -0.50208649017E+04  0.23898352701E+04  0.65000000000E+04  0.10000000000E+01 0.  0.
</event>
<event>
 4    1  0.2195261E-006  0.1300000E+05  0.7957747E-01  0.1322471E+00
    9000001   -1    0    0    0    0  0.00000000000E+00  0.00000000000E+00  0.64999999231E+04  0.65000000000E+04  0.10000000000E+01 0.  0.
    9000001   -1    0    0    0    0 -0.00000000000E+00 -0.00000000000E+00 -0.64999999231E+04  0.65000000000E+04  0.10000000000E+01 0.  0.
    9000001    1    1    2    0    0  0.53200328412E+03  0.52336356119E+04  0.38178567008E+04  0.65000000000E+04  0.10000000000E+01 0.  0.
    9000001    1    1    2    0    0 -0.53200328412E+03 -0.52336356119E+04 -0.38178567008E+04  0.65000000000E+04  0.10000000000E+01 0.  0.
</event>
<event>
 4    1  0.2195261E-006  0.1300000E+05  0.7957747E-01  0.1322471E+00
    9000001   -1    0    0    0    0  0.00000000000E+00  0.00000000000E+00  0.64999999231E+04  0.65000000000E+04  0.10000000000E+01 0.  0.
    9000001   -1    0    0    0    0 -0.00000000000E+00 -0.00000000000E+00 -0.64999999231E+04  0.65000000000E+04  0.10000000000E+01 0.  0.
    9000001    1    1    2    0    0  0.30724229182E+04  0.31364569062E+04  0.47930005724E+04  0.65000000000E+04  0.10000000000E+01 0.  0.
    9000001    1    1    2    0    0 -0.30724229182E+04 -0.31364569062E+04 -0.47930005724E+04  0.65000000000E+04  0.10000000000E+01 0.  0.
</event>
<event>
 4    1  0.2195261E-006  0.1300000E+05  0.7957747E-01  0.1322471E+00
    9000001   -1    0    0    0    0  0.00000000000E+00  0.00000000000E+00  0.64999999231E+04  0.65000000000E+04  0.10000000000E+01 0.  0.
    9000001   -1    0    0    0    0 -0.00000000000E+00 -0.00000000000E+00 -0.64999999231E+04  0.65000000000E+04  0.10000000000E+01 0.  0.
    9000001    1    1    2    0    0 -0.19305752779E+04  0.29737505104E+04 -0.54479065703E+04  0.65000000000E+04  0.10000000000E+01 0.  0.
    9000001    1    1    2    0    0  0.19305752779E+04 -0.29737505104E+04  0.54479065703E+04  0.65000000000E+04  0.10000000000E+01 0.  0.
</event>
<event>
 4    1  0.2195261E-006  0.1300000E+05  0.7957747E-01  0.1322471E+00
    9000001   -1    0    0    0    0  0.00000000000E+00  0.00000000000E+00  0.64999999231E+04  0.65000000000E+04  0.10000000000E+01 0.  0.
    9000001   -1    0    0    0    0 -0.00000000000E+00 -0.00000000000E+00 -0.64999999231E+04  0.65000000000E+04  0.10000000000E+01 0.  0.
    9000001    1    1    2    0    0 -0.48569215603E+04  0.15783894104E+04  0.40210693635E+04  0.65000000000E+04  0.10000000000E+01 0.  0.
    9000001    1    1    2    0    0  0.48569215603E+04 -0.15783894104E+04 -0.40210693635E+04  0.65000000000E+04  0.10000000000E+01 0.  0.
</event>
<event>
 4    1  0.2195261E-006  0.1300000E+05  0.7957747E-01  0.1322471E+00
    9000001   -1    0    0    0    0  0.00000000000E+00  0.00000000000E+00  0.64999999231E+04  0.65000000000E+04  0.10000000000E+01 0.  0.
    9000001   -1    0    0    0    0 -0.00000000000E+00 -0.00000000000E+00 -0.64999999231E+04  0.65000000000E+04  0.10000000000E+01 0.  0.
    9000001    1    1    2    0    0 -0.12727764576E+03 -0.60954324477E+04  0.22537752055E+04  0.65000000000E+04  0.10000000000E+01 0.  0.
    9000001    1    1    2    0    0  0.12727764576E+03  0.60954324477E+04 -0.22537752055E+04  0.65000000000E+04  0.10000000000E+01 0.  0.
</event>
<event>
 4    1  0.2195261E-006  0.1300000E+05  0.7957747E-01  0.1322471E+00
    9000001   -1    0    0    0    0  0.00000000000E+00  0.00000000000E+00  0.64999999231E+04  0.65000000000E+04  0.10000000000E+01 0.  0.
    9000001   -1    0    0    0    0 -0.00000000000E+00 -0.00000000000E+00 -0.64999999231E+04  0.65000000000E+04  0.10000000000E+01 0.  0.
    9000001    1    1    2    0    0 -0.21689745707E+04  0.42064571544E+04 -0.44554760150E+04  0.65000000000E+04  0.10000000000E+01 0.  0.
    9000001    1    1    2    0    0  0.21689745707E+04 -0.42064571544E+04  0.44554760150E+04  0.65000000000E+04  0.10000000000E+01 0.  0.
</event>
<event>
 4    1  0.2195261E-006  0.1300000E+05  0.7957747E-01  0.1322471E+00
    9000001   -1    0    0    0    0  0.00000000000E+00  0.00000000000E+00  0.64999999231E+04  0.65000000000E+04  0.10000000000E+01 0.  0.
    9000001   -1    0    0    0    0 -0.00000000000E+00 -0.00000000000E+00 -0.64999999231E+04  0.65000000000E+04  0.10000000000E+01 0.  0.
    9000001    1    1    2    0    0  0.10676392717E+04 -0.58977952991E+04 -0.25151850818E+04  0.65000000000E+04  0.10000000000E+01 0.  0.
    9000001    1    1    2    0    0 -0.10676392717E+04  0.58977952991E+04  0.25151850818E+04  0.65000000000E+04  0.10000000000E+01 0.  0.
</event>
<event>
 4    1  0.2195261E-006  0.1300000E+05  0.7957747E-01  0.1322471E+00
    9000001   -1    0    0    0    0  0.00000000000E+00  0.00000000000E+00  0.64999999231E+04  0.65000000000E+04  0.10000000000E+01 0.  0.
    9000001   -1    0    0    0    0 -0.00000000000E+00 -0.00000000000E+00 -0.64999999231E+04  0.65000000000E+04  0.10000000000E+01 0.  0.
    9000001    1    1    2    0    0  0.54229429445E+04  0.27532139659E+04  0.22937963465E+04  0.65000000000E+04  0.10000000000E+01 0.  0.
    9000001    1    1    2    0    0 -0.54229429445E+04 -0.27532139659E+04 -0.22937963465E+04  0.65000000000E+04  0.10000000000E+01 0.  0.
</event>
<event>
 4    1  0.2195261E-006  0.1300000E+05  0.7957747E-01  0.1322471E+00
    9000001   -1    0    0    0    0  0.00000000000E+00  0.00000000000E+00  0.64999999231E+04  0.65000000000E+04  0.10000000000E+01 0.  0.
    9000001   -1    0    0    0    0 -0.00000000000E+00 -0.00000000000E+00 -0.64999999231E+04  0.65000000000E+04  0.10000000000E+01 0.  0.
    9000001    1    1    2    0    0  0.54061375652E+04  0.32368678623E+04 -0.15957324551E+04  0.65000000000E+04  0.10000000000E+01 0.  0.
    9000001    1    1    2    0    0 -0.54061375652E+04 -0.32368678623E+04  0.15957324551E+04  0.65000000000E+04  0.10000000000E+01 0.  0.
</event>
<event>
 4    1  0.2195261E-006  0.1300000E+05  0.7957747E-01  0.1322471E+00
    9000001   -1    0    0    0    0  0.00000000000E+00  0.00000000000E+00  0.64999999231E+04  0.65000000000E+04  0.10000000000E+01 0.  0.
    9000001   -1    0    0    0    0 -0.00000000000E+00 -0.00000000000E+00 -0.64999999231E+04  0.65000000000E+04  0.10000000000E+01 0.  0.
    9000001    1    1    2    0    0  0.59398289999E+04 -0.45847575939E+03 -0.25996596758E+04  0.65000000000E+04  0.10000000000E+01 0.  0.
    9000001    1    1    2    0    0 -0.59398289999E+04  0.45847575939E+03  0.25996596758E+04  0.65000000000E+04  0.10000000000E+01 0.  0.
</event>
<event>
 4    1  0.2195261E-006  0.1300000E+05  0.7957747E-01  0.1322471E+00
    9000001   -1    0    0    0    0  0.00000000000E+00  0.00000000000E+00  0.64999999231E+04  0.65000000000E+04  0.10000000000E+01 0.  0.
    9000001   -1    0    0    0    0 -0.00000000000E+00 -0.00000000000E+00 -0.64999999231E+04  0.65000000000E+04  0.10000000000E+01 0.  0.
    9000001    1    1    2    0    0 -0.21850816984E+04 -0.32681846831E+02 -0.61216295925E+04  0.65000000000E+04  0.10000000000E+01 0.  0.
    9000001    1    1    2    0    0  0.21850816984E+04  0.32681846831E+02  0.61216295925E+04  0.65000000000E+04  0.10000000000E+01 0.  0.
</event>
<event>
 4    1  0.2195261E-006  0.1300000E+05  0.7957747E-01  0.1322471E+00
    9000001   -1    0    0    0    0  0.00000000000E+00  0.00000000000E+00  0.64999999231E+04  0.65000000000E+04  0.10000000000E+01 0.  0.
    9000001   -1    0    0    0    0 -0.00000000000E+00 -0.00000000000E+00 -0.64999999231E+04  0.65000000000E+04  0.10000000000E+01 0.  0.
    9000001    1    1    2    0    0  0.38402552618E+04 -0.81837546586E+03 -0.51800289692E+04  0.65000000000E+04  0.10000000000E+01 0.  0.
    9000001    1    1    2    0    0 -0.38402552618E+04  0.81837546586E+03  0.51800289692E+04  0.65000000000E+04  0.10000000000E+01 0.  0.
</event>
<event>
 4    1  0.2195261E-006  0.1300000E+05  0.7957747E-01  0.1322471E+00
    9000001   -1    0    0    0    0  0.00000000000E+00  0.00000000000E+00  0.64999999231E+04  0.65000000000E+04  0.10000000000E+01 0.  0.
    9000001   -1    0    0    0    0 -0.00000000000E+00 -0.00000000000E+00 -0.64999999231E+04  0.65000000000E+04  0.10000000000E+01 0.  0.
    9000001    1    1    2    0    0 -0.55966928017E+04 -0.29105463752E+04  0.15670827934E+04  0.65000000000E+04  0.10000000000E+01 0.  0.
    9000001    1    1    2    0    0  0.55966928017E+04  0.29105463752E+04 -0.15670827934E+04  0.65000000000E+04  0.10000000000E+01 0.  0.
</event>
<event>
 4    1  0.2195261E-006  0.1300000E+05  0.7957747E-01  0.1322471E+00
    9000001   -1    0    0    0    0  0.00000000000E+00  0.00000000000E+00  0.64999999231E+04  0.65000000000E+04  0.10000000000E+01 0.  0.
    9000001   -1    0    0    0    0 -0.00000000000E+00 -0.00000000000E+00 -0.64999999231E+04  0.65000000000E+04  0.10000000000E+01 0.  0.
    9000001    1    1    2    0    0  0.45382479354E+04  0.21203771508E+04 -0.41422584921E+04  0.65000000000E+04  0.10000000000E+01 0.  0.
    9000001    1    1    2    0    0 -0.45382479354E+04 -0.21203771508E+04  0.41422584921E+04  0.65000000000E+04  0.10000000000E+01 0.  0.
</event>
<event>
 4    1  0.2195261E-006  0.1300000E+05  0.7957747E-01  0.1322471E+00
    9000001   -1    0    0    0    0  0.00000000000E+00  0.00000000000E+00  0.64999999231E+04  0.65000000000E+04  0.10000000000E+01 0.  0.
    9000001   -1    0    0    0    0 -0.00000000000E+00 -0.00000000000E+00 -0.64999999231E+04  0.65000000000E+04  0.10000000000E+01 0.  0.
    9000001    1    1    2    0    0 -0.57596019862E+04  0.28846503282E+04 -0.86935403830E+03  0.65000000000E+04  0.10000000000E+01 0.  0.
    9000001    1    1    2    0    0  0.57596019862E+04 -0.28846503282E+04  0.86935403830E+03  0.65000000000E+04  0.10000000000E+01 0.  0.
</event>
<event>
 4    1  0.2195261E-006  0.1300000E+05  0.7957747E-01  0.1322471E+00
    9000001   -1    0    0    0    0  0.00000000000E+00  0.00000000000E+00  0.64999999231E+04  0.65000000000E+04  0.10000000000E+01 0.  0.
    9000001   -1    0    0    0    0 -0.00000000000E+00 -0.00000000000E+00 -0.64999999231E+04  0.65000000000E+04  0.10000000000E+01 0.  0.
    9000001    1    1    2    0    0  0.15628285993E+04  0.50627068767E+04  0.37651779307E+04  0.65000000000E+04  0.10000000000E+01 0.  0.
    9000001    1    1    2    0    0 -0.15628285993E+04 -0.50627068767E+04 -0.37651779307E+04  0.65000000000E+04  0.10000000000E+01 0.  0.
</event>
<event>
 4    1  0.2195261E-006  0.1300000E+05  0.7957747E-01  0.1322471E+00
    9000001   -1    0    0    0    0  0.00000000000E+00  0.00000000000E+00  0.64999999231E+04  0.65000000000E+04  0.10000000000E+01 0.  0.
    9000001   -1    0    0    0    0 -0.00000000000E+00 -0.00000000000E+00 -0.64999999231E+04  0.65000000000E+04  0.10000000000E+01 0.  0.
    9000001    1    1    2    0    0 -0.42606389639E+04  0.12587639881E+04 -0.47447305341E+04  0.65000000000E+04  0.10000000000E+01 0.  0.
    9000001    1    1    2    0    0  0.42606389639E+04 -0.12587639881E+04  0.47447305341E+04  0.65000000000E+04  0.10000000000E+01 0.  0.
</event>
<event>
 4    1  0.2195261E-006  0.1300000E+05  0.7957747E-01  0.1322471E+00
    9000001   -1    0    0    0    0  0.00000000000E+00  0.00000000000E+00  0.64999999231E+04  0.65000000000E+04  0.10000000000E+01 0.  0.
    9000001   -1    0    0    0    0 -0.00000000000E+00 -0.00000000000E+00 -0.64999999231E+04  0.65000000000E+04  0.10000000000E+01 0.  0.
    9000001    1    1    2    0    0 -0.60987138460E+04 -0.21956761878E+04  0.48445278709E+03  0.65000000000E+04  0.10000000000E+01 0.  0.
    9000001    1    1    2    0    0  0.60987138460E+04  0.21956761878E+04 -0.48445278709E+03  0.65000000000E+04  0.10000000000E+01 0.  0.
</event>
<event>
 4    1  0.2195261E-006  0.1300000E+05  0.7957747E-01  0.1322471E+00
    9000001   -1    0    0    0    0  0.00000000000E+00  0.00000000000E+00  0.64999999231E+04  0.65000000000E+04  0.10000000000E+01 0.  0.
    9000001   -1    0    0    0    0 -0.00000000000E+00 -0.00000000000E+00 -0.64999999231E+04  0.65000000000E+04  0.10000000000E+01 0.  0.
    9000001    1    1    2    0    0 -0.50519801314E+04  0.40115546038E+04  0.79682207087E+03  0.65000000000E+04  0.10000000000E+01 0.  0.
    9000001    1    1    2    0    0  0.50519801314E+04 -0.40115546038E+04 -0.79682207087E+03  0.65000000000E+04  0.10000000000E+01 0.  0.
</event>
<event>
 4    1  0.2195261E-006  0.1300000E+05  0.7957747E-01  0.1322471E+00
    9000001   -1    0    0    0    0  0.00000000000E+00  0.00000000000E+00  0.64999999231E+04  0.65000000000E+04  0.10000000000E+01 0.  0.
    9000001   -1    0    0    0    0 -0.00000000000E+00 -0.00000000000E+00 -0.64999999231E+04  0.65000000000E+04  0.10000000000E+01 0.  0.
    9000001    1    1    2    0    0 -0.63450458823E+04  0.94551551733E+03 -0.10470874644E+04  0.65000000000E+04  0.10000000000E+01 0.  0.
    9000001    1    1    2    0    0  0.63450458823E+04 -0.94551551733E+03  0.10470874644E+04  0.65000000000E+04  0.10000000000E+01 0.  0.
</event>
<event>
 4    1  0.2195261E-006  0.1300000E+05  0.7957747E-01  0.1322471E+00
    9000001   -1    0    0    0    0  0.00000000000E+00  0.00000000000E+00  0.64999999231E+04  0.65000000000E+04  0.10000000000E+01 0.  0.
    9000001   -1    0    0    0    0 -0.00000000000E+00 -0.00000000000E+00 -0.64999999231E+04  0.65000000000E+04  0.10000000000E+01 0.  0.
    9000001    1    1    2    0    0 -0.16084464272E+04  0.47455293563E+04  0.41403925200E+04  0.65000000000E+04  0.10000000000E+01 0.  0.
    9000001    1    1    2    0    0  0.16084464272E+04 -0.47455293563E+04 -0.41403925200E+04  0.65000000000E+04  0.10000000000E+01 0.  0.
</event>
<event>
 4    1  0.2195261E-006  0.1300000E+05  0.7957747E-01  0.1322471E+00
    9000001   -1    0    0    0    0  0.00000000000E+00  0.00000000000E+00  0.64999999231E+04  0.65000000000E+04  0.10000000000E+01 0.  0.
    9000001   -1    0    0    0    0 -0.00000000000E+00 -0.00000000000E+00 -0.64999999231E+04  0.65000000000E+04  0.10000000000E+01 0.  0.
    9000001    1    1    2    0    0  0.60885050886E+04 -0.16213852224E+04 -0.15972522491E+04  0.65000000000E+04  0.10000000000E+01 0.  0.
    9000001    1    1    2    0    0 -0.60885050886E+04  0.16213852224E+04  0.15972522491E+04  0.65000000000E+04  0.10000000000E+01 0.  0.
</event>
<event>
 4    1  0.2195261E-006  0.1300000E+05  0.7957747E-01  0.1322471E+00
    9000001   -1    0    0    0    0  0.00000000000E+00  0.00000000000E+00  0.64999999231E+04  0.65000000000E+04  0.10000000000E+01 0.  0.
    9000001   -1    0    0    0    0 -0.00000000000E+00 -0.00000000000E+00 -0.64999999231E+04  0.65000000000E+04  0.10000000000E+01 0.  0.
    9000001    1    1    2    0    0  0.38943809690E+04 -0.44623459532E+04 -0.26779216684E+04  0.65000000000E+04  0.10000000000E+01 0.  0.
    9000001    1    1    2    0    0 -0.38943809690E+04  0.44623459532E+04  0.26779216684E+04  0.65000000000E+04  0.10000000000E+01 0.  0.
</event>
<event>
 4    1  0.2195261E-006  0.1300000E+05  0.7957747E-01  0.1322471E+00
    9000001   -1    0    0    0    0  0.00000000000E+00  0.00000000000E+00  0.64999999231E+04  0.65000000000E+04  0.10000000000E+01 0.  0.
    9000001   -1    0    0    0    0 -0.00000000000E+00 -0.00000000000E+00 -0.64999999231E+04  0.65000000000E+04  0.10000000000E+01 0.  0.
    9000001    1    1    2    0    0  0.49055698193E+04 -0.10630931732E+04  0.41297962000E+04  0.65000000000E+04  0.10000000000E+01 0.  0.
    9000001    1    1    2    0    0 -0.49055698193E+04  0.10630931732E+04 -0.41297962000E+04  0.65000000000E+04  0.10000000000E+01 0.  0.
</event>
<event>
 4    1  0.2195261E-006  0.1300000E+05  0.7957747E-01  0.1322471E+00
    9000001   -1    0    0    0    0  0.00000000000E+00  0.00000000000E+00  0.64999999231E+04  0.65000000000E+04  0.10000000000E+01 0.  0.
    9000001   -1    0    0    0    0 -0.00000000000E+00 -0.00000000000E+00 -0.64999999231E+04  0.65000000000E+04  0.10000000000E+01 0.  0.
    9000001    1    1    2    0    0 -0.42000093286E+04 -0.53810807317E+03  0.49315677367E+04  0.65000000000E+04  0.10000000000E+01 0.  0.
    9000001    1    1    2    0    0  0.42000093286E+04  0.53810807317E+03 -0.49315677367E+04  0.65000000000E+04  0.10000000000E+01 0.  0.
</event>
<event>
 4    1  0.2195261E-006  0.1300000E+05  0.7957747E-01  0.1322471E+00
    9000001   -1    0    0    0    0  0.00000000000E+00  0.00000000000E+00  0.64999999231E+04  0.65000000000E+04  0.10000000000E+01 0.  0.
    9000001   -1    0    0    0    0 -0.00000000000E+00 -0.00000000000E+00 -0.64999999231E+04  0.65000000000E+04  0.10000000000E+01 0.  0.
    9000001    1    1    2    0    0 -0.50296048211E+04  0.38510440629E+04 -0.14568918864E+04  0.65000000000E+04  0.10000000000E+01 0.  0.
    9000001    1    1    2    0    0  0.50296048211E+04 -0.38510440629E+04  0.14568918864E+04  0.65000000000E+04  0.10000000000E+01 0.  0.
</event>
<event>
 4    1  0.2195261E-006  0.1300000E+05  0.7957747E-01  0.1322471E+00
    9000001   -1    0    0    0    0  0.00000000000E+00  0.00000000000E+00  0.64999999231E+04  0.65000000000E+04  0.10000000000E+01 0.  0.
    9000001   -1    0    0    0    0 -0.00000000000E+00 -0.00000000000E+00 -0.64999999231E+04  0.65000000000E+04  0.10000000000E+01 0.  0.
    9000001    1    1    2    0    0 -0.57987145674E+04 -0.11882836621E+04  0.26856824653E+04  0.65000000000E+04  0.10000000000E+01 0.  0.
    9000001    1    1    2    0    0  0.57987145674E+04  0.11882836621E+04 -0.26856824653E+04  0.65000000000E+04  0.10000000000E+01 0.  0.
</event>
<event>
 4    1  0.2195261E-006  0.1300000E+05  0.7957747E-01  0.1322471E+00
    9000001   -1    0    0    0    0  0.00000000000E+00  0.00000000000E+00  0.64999999231E+04  0.65000000000E+04  0.10000000000E+01 0.  0.
    9000001   -1    0    0    0    0 -0.00000000000E+00 -0.00000000000E+00 -0.64999999231E+04  0.65000000000E+04  0.10000000000E+01 0.  0.
    9000001    1    1    2    0    0  0.57182920860E+04  0.30892866113E+04  0.86271968848E+02  0.65000000000E+04  0.10000000000E+01 0.  0.
    9000001    1    1    2    0    0 -0.57182920860E+04 -0.30892866113E+04 -0.86271968848E+02  0.65000000000E+04  0.10000000000E+01 0.  0.
</event>
<event>
 4    1  0.2195261E-006  0.1300000E+05  0.7957747E-01  0.1322471E+00
    9000001   -1    0    0    0    0  0.00000000000E+00  0.00000000000E+00  0.64999999231E+04  0.65000000000E+04  0.10000000000E+01 0.  0.
    9000001   -1    0    0    0    0 -0.00000000000E+00 -0.00000000000E+00 -0.64999999231E+04  0.65000000000E+04  0.10000000000E+01 0.  0.
    9000001    1    1    2    0    0  0.20377272151E+04 -0.80806470247E+03  0.61192073207E+04  0.65000000000E+04  0.10000000000E+01 0.  0.
    9000001    1    1    2    0    0 -0.20377272151E+04  0.80806470247E+03 -0.61192073207E+04  0.65000000000E+04  0.10000000000E+01 0.  0.
</event>
<event>
 4    1  0.2195261E-006  0.1300000E+05  0.7957747E-01  0.1322471E+00
    9000001   -1    0    0    0    0  0.00000000000E+00  0.00000000000E+00  0.64999999231E+04  0.65000000000E+04  0.10000000000E+01 0.  0.
    9000001   -1    0    0    0    0 -0.00000000000E+00 -0.00000000000E+00 -0.64999999231E+04  0.65000000000E+04  0.10000000000E+01 0.  0.
    9000001    1    1    2    0    0  0.40790768783E+04  0.47511263844E+04  0.17429655476E+04  0.65000000000E+04  0.10000000000E+01 0.  0.
    9000001    1    1    2    0    0 -0.40790768783E+04 -0.47511263844E+04 -0.17429655476E+04  0.65000000000E+04  0.10000000000E+01 0.  0.
</event>
<event>
 4    1  0.2195261E-006  0.1300000E+05  0.7957747E-01  0.1322471E+00
    9000001   -1    0    0    0    0  0.00000000000E+00  0.00000000000E+00  0.64999999231E+04  0.65000000000E+04  0.10000000000E+01 0.  0.
    9000001   -1    0    0    0    0 -0.00000000000E+00 -0.00000000000E+00 -0.64999999231E+04  0.65000000000E+04  0.10000000000E+01 0.  0.
    9000001    1    1    2    0    0 -0.30659344083E+04  0.39901602154E+04  0.41144460938E+04  0.65000000000E+04  0.10000000000E+01 0.  0.
    9000001    1    1    2    0    0  0.30659344083E+04 -0.39901602154E+04 -0.41144460938E+04  0.65000000000E+04  0.10000000000E+01 0.  0.
</event>
<event>
 4    1  0.2195261E-006  0.1300000E+05  0.7957747E-01  0.1322471E+00
    9000001   -1    0    0    0    0  0.00000000000E+00  0.00000000000E+00  0.64999999231E+04  0.65000000000E+04  0.10000000000E+01 0.  0.
    9000001   -1    0    0    0    0 -0.00000000000E+00 -0.00000000000E+00 -0.64999999231E+04  0.65000000000E+04  0.10000000000E+01 0.  0.
    9000001    1    1    2    0    0 -0.44666998460E+04  0.47137648381E+04  0.28109168796E+03  0.65000000000E+04  0.10000000000E+01 0.  0.
    9000001    1    1    2    0    0  0.44666998460E+04 -0.47137648381E+04 -0.28109168796E+03  0.65000000000E+04  0.10000000000E+01 0.  0.
</event>
<event>
 4    1  0.2195261E-006  0.1300000E+05  0.7957747E-01  0.1322471E+00
    9000001   -1    0    0    0    0  0.00000000000E+00  0.00000000000E+00  0.64999999231E+04  0.65000000000E+04  0.10000000000E+01 0.  0.
    9000001   -1    0    0    0    0 -0.00000000000E+00 -0.00000000000E+00 -0.64999999231E+04  0.65000000000E+04  0.10000000000E+01 0.  0.
    9000001    1    1    2    0    0  0.54636681416E+04 -0.33614328370E+04 -0.10483790921E+04  0.65000000000E+04  0.10000000000E+01 0.  0.
    9000001    1    1    2    0    0 -0.54636681416E+04  0.33614328370E+04  0.10483790921E+04  0.65000000000E+04  0.10000000000E+01 0.  0.
</event>
<event>
 4    1  0.2195261E-006  0.1300000E+05  0.7957747E-01  0.1322471E+00
    9000001   -1    0    0    0    0  0.00000000000E+00  0.00000000000E+00  0.64999999231E+04  0.65000000000E+04  0.10000000000E+01 0.  0.
    9000001   -1    0    0    0    0 -0.00000000000E+00 -0.00000000000E+00 -0.64999999231E+04  0.65000000000E+04  0.10000000000E+01 0.  0.
    9000001    1    1    2    0    0 -0.37596155512E+04 -0.90729591737E+03 -0.52241845321E+04  0.65000000000E+04  0.10000000000E+01 0.  0.
    9000001    1    1    2    0    0  0.37596155512E+04  0.90729591737E+03  0.52241845321E+04  0.65000000000E+04  0.10000000000E+01 0.  0.
</event>
<event>
 4    1  0.2195261E-006  0.1300000E+05  0.7957747E-01  0.1322471E+00
    9000001   -1    0    0    0    0  0.00000000000E+00  0.00000000000E+00  0.64999999231E+04  0.65000000000E+04  0.10000000000E+01 0.  0.
    9000001   -1    0    0    0    0 -0.00000000000E+00 -0.00000000000E+00 -0.64999999231E+04  0.65000000000E+04  0.10000000000E+01 0.  0.
    9000001    1    1    2    0    0 -0.23227906293E+04  0.57219653721E+04 -0.20282393776E+04  0.65000000000E+04  0.10000000000E+01 0.  0.
    9000001    1    1    2    0    0  0.23227906293E+04 -0.57219653721E+04  0.20282393776E+04  0.65000000000E+04  0.10000000000E+01 0.  0.
</event>
<event>
 4    1  0.2195261E-006  0.1300000E+05  0.7957747E-01  0.1322471E+00
    9000001   -1    0    0    0    0  0.00000000000E+00  0.00000000000E+00  0.64999999231E+04  0.65000000000E+04  0.10000000000E+01 0.  0.
    9000001   -1    0    0    0    0 -0.00000000000E+00 -0.00000000000E+00 -0.64999999231E+04  0.65000000000E+04  0.10000000000E+01 0.  0.
    9000001    1    1    2    0    0 -0.57356212964E+04  0.48802732402E+03  0.30190191578E+04  0.65000000000E+04  0.10000000000E+01 0.  0.
    9000001    1    1    2    0    0  0.57356212964E+04 -0.48802732402E+03 -0.30190191578E+04  0.65000000000E+04  0.10000000000E+01 0.  0.
</event>
<event>
 4    1  0.2195261E-006  0.1300000E+05  0.7957747E-01  0.1322471E+00
    9000001   -1    0    0    0    0  0.00000000000E+00  0.00000000000E+00  0.64999999231E+04  0.65000000000E+04  0.10000000000E+01 0.  0.
    9000001   -1    0    0    0    0 -0.00000000000E+00 -0.00000000000E+00 -0.64999999231E+04  0.65000000000E+04  0.10000000000E+01 0.  0.
    9000001    1    1    2    0    0 -0.47685815560E+04  0.39645395244E+04 -0.19475767773E+04  0.65000000000E+04  0.10000000000E+01 0.  0.
    9000001    1    1    2    0    0  0.47685815560E+04 -0.39645395244E+04  0.19475767773E+04  0.65000000000E+04  0.10000000000E+01 0.  0.
</event>
<event>
 4    1  0.2195261E-006  0.1300000E+05  0.7957747E-01  0.1322471E+00
    9000001   -1    0    0    0    0  0.00000000000E+00  0.00000000000E+00  0.64999999231E+04  0.65000000000E+04  0.10000000000E+01 0.  0.
    9000001   -1    0    0    0    0 -0.00000000000E+00 -0.00000000000E+00 -0.64999999231E+04  0.65000000000E+04  0.10000000000E+01 0.  0.
    9000001    1    1    2    0    0  0.10107277802E+04  0.28713086315E+04 -0.57431711708E+04  0.65000000000E+04  0.10000000000E+01 0.  0.
    9000001    1    1    2    0    0 -0.10107277802E+04 -0.28713086315E+04  0.57431711708E+04  0.65000000000E+04  0.10000000000E+01 0.  0.
</event>
<event>
 4    1  0.2195261E-006  0.1300000E+05  0.7957747E-01  0.1322471E+00
    9000001   -1    0    0    0    0  0.00000000000E+00  0.00000000000E+00  0.64999999231E+04  0.65000000000E+04  0.10000000000E+01 0.  0.
    9000001   -1    0    0    0    0 -0.00000000000E+00 -0.00000000000E+00 -0.64999999231E+04  0.65000000000E+04  0.10000000000E+01 0.  0.
    9000001    1    1    2    0    0 -0.17095664227E+04  0.52446107855E+03 -0.62491857248E+04  0.65000000000E+04  0.10000000000E+01 0.  0.
    9000001    1    1    2    0    0  0.17095664227E+04 -0.52446107855E+03  0.62491857248E+04  0.65000000000E+04  0.10000000000E+01 0.  0.
</event>
<event>
 4    1  0.2195261E-006  0.1300000E+05  0.7957747E-01  0.1322471E+00
    9000001   -1    0    0    0    0  0.00000000000E+00  0.00000000000E+00  0.64999999231E+04  0.65000000000E+04  0.10000000000E+01 0.  0.
    9000001   -1    0    0    0    0 -0.00000000000E+00 -0.00000000000E+00 -0.64999999231E+04  0.65000000000E+04  0.10000000000E+01 0.  0.
    9000001    1    1    2    0    0 -0.21090752643E+04  0.59047698564E+04  0.17133281859E+04  0.65000000000E+04  0.10000000000E+01 0.  0.
    9000001    1    1    2    0    0  0.21090752643E+04 -0.59047698564E+04 -0.17133281859E+04  0.65000000000E+04  0.10000000000E+01 0.  0.
</event>
<event>
 4    1  0.2195261E-006  0.1300000E+05  0.7957747E-01  0.1322471E+00
    9000001   -1    0    0    0    0  0.00000000000E+00  0.00000000000E+00  0.64999999231E+04  0.65000000000E+04  0.10000000000E+01 0.  0.
    9000001   -1    0    0    0    0 -0.00000000000E+00 -0.00000000000E+00 -0.64999999231E+04  0.65000000000E+04  0.10000000000E+01 0.  0.
    9000001    1    1    2    0    0  0.49320496743E+04  0.15486402452E+04 -0.39403804894E+04  0.65000000000E+04  0.10000000000E+01 0.  0.
    9000001    1    1    2    0    0 -0.49320496743E+04 -0.15486402452E+04  0.39403804894E+04  0.65000000000E+04  0.10000000000E+01 0.  0.
</event>
<event>
 4    1  0.2195261E-006  0.1300000E+05  0.7957747E-01  0.1322471E+00
    9000001   -1    0    0    0    0  0.00000000000E+00  0.00000000000E+00  0.64999999231E+04  0.65000000000E+04  0.10000000000E+01 0.  0.
    9000001   -1    0    0    0    0 -0.00000000000E+00 -0.00000000000E+00 -0.64999999231E+04  0.65000000000E+04  0.10000000000E+01 0.  0.
    9000001    1    1    2    0    0 -0.44682171576E+03  0.44673403769E+04  0.47003424675E+04  0.65000000000E+04  0.10000000000E+01 0.  0.
    9000001    1    1    2    0    0  0.44682171576E+03 -0.44673403769E+04 -0.47003424675E+04  0.65000000000E+04  0.10000000000E+01 0.  0.
</event>
<event>
 4    1  0.2195261E-006  0.1300000E+05  0.7957747E-01  0.1322471E+00
    9000001   -1    0    0    0    0  0.00000000000E+00  0.00000000000E+00  0.64999999231E+04  0.65000000000E+04  0.10000000000E+01 0.  0.
    9000001   -1    0    0    0    0 -0.00000000000E+00 -0.00000000000E+00 -0.64999999231E+04  0.65000000000E+04  0.10000000000E+01 0.  0.
    9000001    1    1    2    0    0 -0.52612221937E+03  0.63594764028E+04 -0.12370344751E+04  0.65000000000E+04  0.10000000000E+01 0.  0.
    9000001    1    1    2    0    0  0.52612221937E+03 -0.63594764028E+04  0.12370344751E+04  0.65000000000E+04  0.10000000000E+01 0.  0.
</event>
<event>
 4    1  0.2195261E-006  0.1300000E+05  0.7957747E-01  0.1322471E+00
    9000001   -1    0    0    0    0  0.00000000000E+00  0.00000000000E+00  0.64999999231E+04  0.65000000000E+04  0.10000000000E+01 0.  0.
    9000001   -1    0    0    0    0 -0.00000000000E+00 -0.00000000000E+00 -0.64999999231E+04  0.65000000000E+04  0.10000000000E+01 0.  0.
    9000001    1    1    2    0    0  0.26096421876E+02  0.64113858785E+04  0.10693217917E+04  0.65000000000E+04  0.10000000000E+01 0.  0.
    9000001    1    1    2    0    0 -0.26096421876E+02 -0.64113858785E+04 -0.10693217917E+04  0.65000000000E+04  0.10000000000E+01 0.  0.
</event>
<event>
 4    1  0.2195261E-006  0.1300000E+05  0.7957747E-01  0.1322471E+00
    9000001   -1    0    0    0    0  0.00000000000E+00  0.00000000000E+00  0.64999999231E+04  0.65000000000E+04  0.10000000000E+01 0.  0.
    9000001   -1    0    0    0    0 -0.00000000000E+00 -0.00000000000E+00 -0.64999999231E+04  0.65000000000E+04  0.10000000000E+01 0.  0.
    9000001    1    1    2    0    0 -0.29185121604E+04 -0.96939517987E+03  0.57264787396E+04  0.65000000000E+04  0.10000000000E+01 0.  0.
    9000001    1    1    2    0    0  0.29185121604E+04  0.96939517987E+03 -0.57264787396E+04  0.65000000000E+04  0.10000000000E+01 0.  0.
</event>
<event>
 4    1  0.2195261E-006  0.1300000E+05  0.7957747E-01  0.1322471E+00
    9000001   -1    0    0    0    0  0.00000000000E+00  0.00000000000E+00  0.64999999231E+04  0.65000000000E+04  0.10000000000E+01 0.  0.
    9000001   -1    0    0    0    0 -0.00000000000E+00 -0.00000000000E+00 -0.64999999231E+04  0.65000000000E+04  0.10000000000E+01 0.  0.
    9000001    1    1    2    0    0  0.20087822678E+04 -0.49094575574E+04  0.37565967701E+04  0.65000000000E+04  0.10000000000E+01 0.  0.
    9000001    1    1    2    0    0 -0.20087822678E+04  0.49094575574E+04 -0.37565967701E+04  0.65000000000E+04  0.10000000000E+01 0.  0.
</event>
<event>
 4    1  0.2195261E-006  0.1300000E+05  0.7957747E-01  0.1322471E+00
    9000001   -1    0    0    0    0  0.00000000000E+00  0.00000000000E+00  0.64999999231E+04  0.65000000000E+04  0.10000000000E+01 0.  0.
    9000001   -1    0    0    0    0 -0.00000000000E+00 -0.00000000000E+00 -0.64999999231E+04  0.65000000000E+04  0.10000000000E+01 0.  0.
    9000001    1    1    2    0    0 -0.25099605211E+04  0.47407887326E+04 -0.36708336077E+04  0.65000000000E+04  0.10000000000E+01 0.  0.
    9000001    1    1    2    0    0  0.25099605211E+04 -0.47407887326E+04  0.36708336077E+04  0.65000000000E+04  0.10000000000E+01 0.  0.
</event>
<event>
 4    1  0.2195261E-006  0.1300000E+05  0.7957747E-01  0.1322471E+00
    9000001   -1    0    0    0    0  0.00000000000E+00  0.00000000000E+00  0.64999999231E+04  0.65000000000E+04  0.10000000000E+01 0.  0.
    9000001   -1    0    0    0    0 -0.00000000000E+00 -0.00000000000E+00 -0.64999999231E+04  0.65000000000E+04  0.10000000000E+01 0.  0.
    9000001    1    1    2    0    0 -0.58862661729E+04 -0.25797159463E+04  0.97310594377E+03  0.65000000000E+04  0.10000000000E+01 0.  0.
    9000001    1    1    2    0    0  0.58862661729E+04  0.25797159463E+04 -0.97310594377E+03  0.65000000000E+04  0.10000000000E+01 0.  0.
</event>
<event>
 4    1  0.2195261E-006  0.1300000E+05  0.7957747E-01  0.1322471E+00
    9000001   -1    0    0    0    0  0.00000000000E+00  0.00000000000E+00  0.64999999231E+04  0.65000000000E+04  0.10000000000E+01 0.  0.
    9000001   -1    0    0    0    0 -0.00000000000E+00 -0.00000000000E+00 -0.64999999231E+04  0.65000000000E+04  0.10000000000E+01 0.  0.
    9000001    1    1    2    0    0  0.47027961175E+04  0.31304735971E+03 -0.44761265652E+04  0.65000000000E+04  0.10000000000E+01 0.  0.
    9000001    1    1    2    0    0 -0.47027961175E+04 -0.31304735971E+03  0.44761265652E+04  0.65000000000E+04  0.10000000000E+01 0.  0.
</event>
<event>
 4    1  0.2195261E-006  0.1300000E+05  0.7957747E-01  0.1322471E+00
    9000001   -1    0    0    0    0  0.00000000000E+00  0.00000000000E+00  0.64999999231E+04  0.65000000000E+04  0.10000000000E+01 0.  0.
    9000001   -1    0    0    0    0 -0.00000000000E+00 -0.00000000000E+00 -0.64999999231E+04  0.65000000000E+04  0.10000000000E+01 0.  0.
    9000001    1    1    2    0    0 -0.57949312072E+04  0.29102232105E+04  0.44651110783E+03  0.65000000000E+04  0.10000000000E+01 0.  0.
    9000001    1    1    2    0    0  0.57949312072E+04 -0.29102232105E+04 -0.44651110783E+03  0.65000000000E+04  0.10000000000E+01 0.  0.
</event>
<event>
 4    1  0.2195261E-006  0.1300000E+05  0.7957747E-01  0.1322471E+00
    9000001   -1    0    0    0    0  0.00000000000E+00  0.00000000000E+00  0.64999999231E+04  0.65000000000E+04  0.10000000000E+01 0.  0.
    9000001   -1    0    0    0    0 -0.00000000000E+00 -0.00000000000E+00 -0.64999999231E+04  0.65000000000E+04  0.10000000000E+01 0.  0.
    9000001    1    1    2    0    0  0.63566618867E+04  0.44387340942E+03 -0.12828971332E+04  0.65000000000E+04  0.10000000000E+01 0.  0.
    9000001    1    1    2    0    0 -0.63566618867E+04 -0.44387340942E+03  0.12828971332E+04  0.65000000000E+04  0.10000000000E+01 0.  0.
</event>
<event>
 4    1  0.2195261E-006  0.1300000E+05  0.7957747E-01  0.1322471E+00
    9000001   -1    0    0    0    0  0.00000000000E+00  0.00000000000E+00  0.64999999231E+04  0.65000000000E+04  0.10000000000E+01 0.  0.
    9000001   -1    0    0    0    0 -0.00000000000E+00 -0.00000000000E+00 -0.64999999231E+04  0.65000000000E+04  0.10000000000E+01 0.  0.
    9000001    1    1    2    0    0  0.16081315221E+04  0.51363585387E+04 -0.36444111965E+04  0.65000000000E+04  0.10000000000E+01 0.  0.
    9000001    1    1    2    0    0 -0.16081315221E+04 -0.51363585387E+04  0.36444111965E+04  0.65000000000E+04  0.10000000000E+01 0.  0.
</event>
<event>
 4    1  0.2195261E-006  0.1300000E+05  0.7957747E-01  0.1322471E+00
    9000001   -1    0    0    0    0  0.00000000000E+00  0.00000000000E+00  0.64999999231E+04  0.65000000000E+04  0.10000000000E+01 0.  0.
    9000001   -1    0    0    0    0 -0.00000000000E+00 -0.00000000000E+00 -0.64999999231E+04  0.65000000000E+04  0.10000000000E+01 0.  0.
    9000001    1    1    2    0    0 -0.34079895961E+04  0.16956846421E+04 -0.52688005758E+04  0.65000000000E+04  0.10000000000E+01 0.  0.
    9000001    1    1    2    0    0  0.34079895961E+04 -0.16956846421E+04  0.52688005758E+04  0.65000000000E+04  0.10000000000E+01 0.  0.
</event>
<event>
 4    1  0.2195261E-006  0.1300000E+05  0.7957747E-01  0.1322471E+00
    9000001   -1    0    0    0    0  0.00000000000E+00  0.00000000000E+00  0.64999999231E+04  0.65000000000E+04  0.10000000000E+01 0.  0.
    9000001   -1    0    0    0    0 -0.00000000000E+00 -0.00000000000E+00 -0.64999999231E+04  0.65000000000E+04  0.10000000000E+01 0.  0.
    9000001    1    1    2    0    0  0.29344888786E+04  0.49146459539E+04 -0.30797774544E+04  0.65000000000E+04  0.10000000000E+01 0.  0.
    9000001    1    1    2    0    0 -0.29344888786E+04 -0.49146459539E+04  0.30797774544E+04  0.65000000000E+04  0.10000000000E+01 0.  0.
</event>
<event>
 4    1  0.2195261E-006  0.1300000E+05  0.7957747E-01  0.1322471E+00
    9000001   -1    0    0    0    0  0.00000000000E+00  0.00000000000E+00  0.64999999231E+04  0.65000000000E+04  0.10000000000E+01 0.  0.
    9000001   -1    0    0    0    0 -0.00000000000E+00 -0.00000000000E+00 -0.64999999231E+04  0.65000000000E+04  0.10000000000E+01 0.  0.
    9000001    1    1    2    0    0 -0.55813277042E+04  0.11285287170E+04 -0.31345179841E+04  0.65000000000E+04  0.10000000000E+01 0.  0.
    9000001    1    1    2    0    0  0.55813277042E+04 -0.11285287170E+04  0.31345179841E+04  0.65000000000E+04  0.10000000000E+01 0.  0.
</event>
<event>
 4    1  0.2195261E-006  0.1300000E+05  0.7957747E-01  0.1322471E+00
    9000001   -1    0    0    0    0  0.00000000000E+00  0.00000000000E+00  0.64999999231E+04  0.65000000000E+04  0.10000000000E+01 0.  0.
    9000001   -1    0    0    0    0 -0.00000000000E+00 -0.00000000000E+00 -0.64999999231E+04  0.65000000000E+04  0.10000000000E+01 0.  0.
    9000001    1    1    2    0    0  0.17262846869E+04  0.55506291750E+04  0.29086862914E+04  0.65000000000E+04  0.10000000000E+01 0.  0.
    9000001    1    1    2    0    0 -0.17262846869E+04 -0.55506291750E+04 -0.29086862914E+04  0.65000000000E+04  0.10000000000E+01 0.  0.
</event>
<event>
 4    1  0.2195261E-006  0.1300000E+05  0.7957747E-01  0.1322471E+00
    9000001   -1    0    0    0    0  0.00000000000E+00  0.00000000000E+00  0.64999999231E+04  0.65000000000E+04  0.10000000000E+01 0.  0.
    9000001   -1    0    0    0    0 -0.00000000000E+00 -0.00000000000E+00 -0.64999999231E+04  0.65000000000E+04  0.10000000000E+01 0.  0.
    9000001    1    1    2    0    0  0.38153304020E+04  0.29433769528E+04  0.43623141837E+04  0.65000000000E+04  0.10000000000E+01 0.  0.
    9000001    1    1    2    0    0 -0.38153304020E+04 -0.29433769528E+04 -0.43623141837E+04  0.65000000000E+04  0.10000000000E+01 0.  0.
</event>
<event>
 4    1  0.2195261E-006  0.1300000E+05  0.7957747E-01  0.1322471E+00
    9000001   -1    0    0    0    0  0.00000000000E+00  0.00000000000E+00  0.64999999231E+04  0.65000000000E+04  0.10000000000E+01 0.  0.
    9000001   -1    0    0    0    0 -0.00000000000E+00 -0.00000000000E+00 -0.64999999231E+04  0.65000000000E+04  0.10000000000E+01 0.  0.
    9000001    1    1    2    0    0  0.57034019886E+04  0.53314988096E+03 -0.30719628840E+04  0.65000000000E+04  0.10000000000E+01 0.  0.
    9000001    1    1    2    0    0 -0.57034019886E+04 -0.53314988096E+03  0.30719628840E+04  0.65000000000E+04  0.10000000000E+01 0.  0.
</event>
<event>
 4    1  0.2195261E-006  0.1300000E+05  0.7957747E-01  0.1322471E+00
    9000001   -1    0    0    0    0  0.00000000000E+00  0.00000000000E+00  0.64999999231E+04  0.65000000000E+04  0.10000000000E+01 0.  0.
    9000001   -1    0    0    0    0 -0.00000000000E+00 -0.00000000000E+00 -0.64999999231E+04  0.65000000000E+04  0.10000000000E+01 0.  0.
    9000001    1    1    2    0    0  0.17238660442E+03  0.63461362661E+04  0.13952907764E+04  0.65000000000E+04  0.10000000000E+01 0.  0.
    9000001    1    1    2    0    0 -0.17238660442E+03 -0.63461362661E+04 -0.13952907764E+04  0.65000000000E+04  0.10000000000E+01 0.  0.
</event>
<event>
 4    1  0.2195261E-006  0.1300000E+05  0.7957747E-01  0.1322471E+00
    9000001   -1    0    0    0    0  0.00000000000E+00  0.00000000000E+00  0.64999999231E+04  0.65000000000E+04  0.10000000000E+01 0.  0.
    9000001   -1    0    0    0    0 -0.00000000000E+00 -0.00000000000E+00 -0.64999999231E+04  0.65000000000E+04  0.10000000000E+01 0.  0.
    9000001    1    1    2    0    0 -0.58829938167E+04  0.16385763118E+04  0.22260841006E+04  0.65000000000E+04  0.10000000000E+01 0.  0.
    9000001    1    1    2    0    0  0.58829938167E+04 -0.16385763118E+04 -0.22260841006E+04  0.65000000000E+04  0.10000000000E+01 0.  0.
</event>
<event>
 4    1  0.2195261E-006  0.1300000E+05  0.7957747E-01  0.1322471E+00
    9000001   -1    0    0    0    0  0.00000000000E+00  0.00000000000E+00  0.64999999231E+04  0.65000000000E+04  0.10000000000E+01 0.  0.
    9000001   -1    0    0    0    0 -0.00000000000E+00 -0.00000000000E+00 -0.64999999231E+04  0.65000000000E+04  0.10000000000E+01 0.  0.
    9000001    1    1    2    0    0  0.49209504909E+04  0.41738528626E+04 -0.78306931212E+03  0.65000000000E+04  0.10000000000E+01 0.  0.
    9000001    1    1    2    0    0 -0.49209504909E+04 -0.41738528626E+04  0.78306931212E+03  0.65000000000E+04  0.10000000000E+01 0.  0.
</event>
<event>
 4    1  0.2195261E-006  0.1300000E+05  0.7957747E-01  0.1322471E+00
    9000001   -1    0    0    0    0  0.00000000000E+00  0.00000000000E+00  0.64999999231E+04  0.65000000000E+04  0.10000000000E+01 0.  0.
    9000001   -1    0    0    0    0 -0.00000000000E+00 -0.00000000000E+00 -0.64999999231E+04  0.65000000000E+04  0.10000000000E+01 0.  0.
    9000001    1    1    2    0    0  0.32624135706E+04  0.52408985092E+04  0.20346104075E+04  0.65000000000E+04  0.10000000000E+01 0.  0.
    9000001    1    1    2    0    0 -0.32624135706E+04 -0.52408985092E+04 -0.20346104075E+04  0.65000000000E+04  0.10000000000E+01 0.  0.
</event>
<event>
 4    1  0.2195261E-006  0.1300000E+05  0.7957747E-01  0.1322471E+00
    9000001   -1    0    0    0    0  0.00000000000E+00  0.00000000000E+00  0.64999999231E+04  0.65000000000E+04  0.10000000000E+01 0.  0.
    9000001   -1    0    0    0    0 -0.00000000000E+00 -0.00000000000E+00 -0.64999999231E+04  0.65000000000E+04  0.10000000000E+01 0.  0.
    9000001    1    1    2    0    0 -0.43750554446E+04 -0.34539040041E+04 -0.33435663574E+04  0.65000000000E+04  0.10000000000E+01 0.  0.
    9000001    1    1    2    0    0  0.43750554446E+04  0.34539040041E+04  0.33435663574E+04  0.65000000000E+04  0.10000000000E+01 0.  0.
</event>
<event>
 4    1  0.2195261E-006  0.1300000E+05  0.7957747E-01  0.1322471E+00
    9000001   -1    0    0    0    0  0.00000000000E+00  0.00000000000E+00  0.64999999231E+04  0.65000000000E+04  0.10000000000E+01 0.  0.
    9000001   -1    0    0    0    0 -0.00000000000E+00 -0.00000000000E+00 -0.64999999231E+04  0.65000000000E+04  0.10000000000E+01 0.  0.
    9000001    1    1    2    0    0  0.53443658323E+04  0.47104448777E+03  0.36695871622E+04  0.65000000000E+04  0.10000000000E+01 0.  0.
    9000001    1    1    2    0    0 -0.53443658323E+04 -0.47104448777E+03 -0.36695871622E+04  0.65000000000E+04  0.10000000000E+01 0.  0.
</event>
<event>
 4    1  0.2195261E-006  0.1300000E+05  0.7957747E-01  0.1322471E+00
    9000001   -1    0    0    0    0  0.00000000000E+00  0.00000000000E+00  0.64999999231E+04  0.65000000000E+04  0.10000000000E+01 0.  0.
    9000001   -1    0    0    0    0 -0.00000000000E+00 -0.00000000000E+00 -0.64999999231E+04  0.65000000000E+04  0.10000000000E+01 0.  0.
    9000001    1    1    2    0    0  0.64001104410E+04  0.30521740500E+03  0.10933561535E+04  0.65000000000E+04  0.10000000000E+01 0.  0.
    9000001    1    1    2    0    0 -0.64001104410E+04 -0.30521740500E+03 -0.10933561535E+04  0.65000000000E+04  0.10000000000E+01 0.  0.
</event>
<event>
 4    1  0.2195261E-006  0.1300000E+05  0.7957747E-01  0.1322471E+00
    9000001   -1    0    0    0    0  0.00000000000E+00  0.00000000000E+00  0.64999999231E+04  0.65000000000E+04  0.10000000000E+01 0.  0.
    9000001   -1    0    0    0    0 -0.00000000000E+00 -0.00000000000E+00 -0.64999999231E+04  0.65000000000E+04  0.10000000000E+01 0.  0.
    9000001    1    1    2    0    0 -0.32337790967E+04  0.25409651186E+04 -0.50335045466E+04  0.65000000000E+04  0.10000000000E+01 0.  0.
    9000001    1    1    2    0    0  0.32337790967E+04 -0.25409651186E+04  0.50335045466E+04  0.65000000000E+04  0.10000000000E+01 0.  0.
</event>
<event>
 4    1  0.2195261E-006  0.1300000E+05  0.7957747E-01  0.1322471E+00
    9000001   -1    0    0    0    0  0.00000000000E+00  0.00000000000E+00  0.64999999231E+04  0.65000000000E+04  0.10000000000E+01 0.  0.
    9000001   -1    0    0    0    0 -0.00000000000E+00 -0.00000000000E+00 -0.64999999231E+04  0.65000000000E+04  0.10000000000E+01 0.  0.
    9000001    1    1    2    0    0 -0.41711894672E+04  0.26633627232E+04 -0.42139858131E+04  0.65000000000E+04  0.10000000000E+01 0.  0.
    9000001    1    1    2    0    0  0.41711894672E+04 -0.26633627232E+04  0.42139858131E+04  0.65000000000E+04  0.10000000000E+01 0.  0.
</event>
<event>
 4    1  0.2195261E-006  0.1300000E+05  0.7957747E-01  0.1322471E+00
    9000001   -1    0    0    0    0  0.00000000000E+00  0.00000000000E+00  0.64999999231E+04  0.65000000000E+04  0.10000000000E+01 0.  0.
    9000001   -1    0    0    0    0 -0.00000000000E+00 -0.00000000000E+00 -0.64999999231E+04  0.65000000000E+04  0.10000000000E+01 0.  0.
    9000001    1    1    2    0    0 -0.49587529350E+04  0.33987560689E+04 -0.24716847522E+04  0.65000000000E+04  0.10000000000E+01 0.  0.
    9000001    1    1    2    0    0  0.49587529350E+04 -0.33987560689E+04  0.24716847522E+04  0.65000000000E+04  0.10000000000E+01 0.  0.
</event>
<event>
 4    1  0.2195261E-006  0.1300000E+05  0.7957747E-01  0.1322471E+00
    9000001   -1    0    0    0    0  0.00000000000E+00  0.00000000000E+00  0.64999999231E+04  0.65000000000E+04  0.10000000000E+01 0.  0.
    9000001   -1    0    0    0    0 -0.00000000000E+00 -0.00000000000E+00 -0.64999999231E+04  0.65000000000E+04  0.10000000000E+01 0.  0.
    9000001    1    1    2    0    0  0.60201786199E+03 -0.48231787018E+04  0.43156135953E+04  0.65000000000E+04  0.10000000000E+01 0.  0.
    9000001    1    1    2    0    0 -0.60201786199E+03  0.48231787018E+04 -0.43156135953E+04  0.65000000000E+04  0.10000000000E+01 0.  0.
</event>
<event>
 4    1  0.2195261E-006  0.1300000E+05  0.7957747E-01  0.1322471E+00
    9000001   -1    0    0    0    0  0.00000000000E+00  0.00000000000E+00  0.64999999231E+04  0.65000000000E+04  0.10000000000E+01 0.  0.
    9000001   -1    0    0    0    0 -0.00000000000E+00 -0.00000000000E+00 -0.64999999231E+04  0.65000000000E+04  0.10000000000E+01 0.  0.
    9000001    1    1    2    0    0 -0.56225373283E+04 -0.21861954629E+04 -0.24202525467E+04  0.65000000000E+04  0.10000000000E+01 0.  0.
    9000001    1    1    2    0    0  0.56225373283E+04  0.21861954629E+04  0.24202525467E+04  0.65000000000E+04  0.10000000000E+01 0.  0.
</event>
<event>
 4    1  0.2195261E-006  0.1300000E+05  0.7957747E-01  0.1322471E+00
    9000001   -1    0    0    0    0  0.00000000000E+00  0.00000000000E+00  0.64999999231E+04  0.65000000000E+04  0.10000000000E+01 0.  0.
    9000001   -1    0    0    0    0 -0.00000000000E+00 -0.00000000000E+00 -0.64999999231E+04  0.65000000000E+04  0.10000000000E+01 0.  0.
    9000001    1    1    2    0    0 -0.16152983744E+04 -0.37210599285E+04 -0.50788308862E+04  0.65000000000E+04  0.10000000000E+01 0.  0.
    9000001    1    1    2    0    0  0.16152983744E+04  0.37210599285E+04  0.50788308862E+04  0.65000000000E+04  0.10000000000E+01 0.  0.
</event>
<event>
 4    1  0.2195261E-006  0.1300000E+05  0.7957747E-01  0.1322471E+00
    9000001   -1    0    0    0    0  0.00000000000E+00  0.00000000000E+00  0.64999999231E+04  0.65000000000E+04  0.10000000000E+01 0.  0.
    9000001   -1    0    0    0    0 -0.00000000000E+00 -0.00000000000E+00 -0.64999999231E+04  0.65000000000E+04  0.10000000000E+01 0.  0.
    9000001    1    1    2    0    0 -0.38913469157E+04 -0.31426645108E+04 -0.41510333598E+04  0.65000000000E+04  0.10000000000E+01 0.  0.
    9000001    1    1    2    0    0  0.38913469157E+04  0.31426645108E+04  0.41510333598E+04  0.65000000000E+04  0.10000000000E+01 0.  0.
</event>
<event>
 4    1  0.2195261E-006  0.1300000E+05  0.7957747E-01  0.1322471E+00
    9000001   -1    0    0    0    0  0.00000000000E+00  0.00000000000E+00  0.64999999231E+04  0.65000000000E+04  0.10000000000E+01 0.  0.
    9000001   -1    0    0    0    0 -0.00000000000E+00 -0.00000000000E+00 -0.64999999231E+04  0.65000000000E+04  0.10000000000E+01 0.  0.
    9000001    1    1    2    0    0  0.20952012634E+04  0.59935581841E+03 -0.61237981081E+04  0.65000000000E+04  0.10000000000E+01 0.  0.
    9000001    1    1    2    0    0 -0.20952012634E+04 -0.59935581841E+03  0.61237981081E+04  0.65000000000E+04  0.10000000000E+01 0.  0.
</event>
<event>
 4    1  0.2195261E-006  0.1300000E+05  0.7957747E-01  0.1322471E+00
    9000001   -1    0    0    0    0  0.00000000000E+00  0.00000000000E+00  0.64999999231E+04  0.65000000000E+04  0.10000000000E+01 0.  0.
    9000001   -1    0    0    0    0 -0.00000000000E+00 -0.00000000000E+00 -0.64999999231E+04  0.65000000000E+04  0.10000000000E+01 0.  0.
    9000001    1    1    2    0    0  0.87611523752E+03  0.16451114959E+04 -0.62270401682E+04  0.65000000000E+04  0.10000000000E+01 0.  0.
    9000001    1    1    2    0    0 -0.87611523752E+03 -0.16451114959E+04  0.62270401682E+04  0.65000000000E+04  0.10000000000E+01 0.  0.
</event>
<event>
 4    1  0.2195261E-006  0.1300000E+05  0.7957747E-01  0.1322471E+00
    9000001   -1    0    0    0    0  0.00000000000E+00  0.00000000000E+00  0.64999999231E+04  0.65000000000E+04  0.10000000000E+01 0.  0.
    9000001   -1    0    0    0    0 -0.00000000000E+00 -0.00000000000E+00 -0.64999999231E+04  0.65000000000E+04  0.10000000000E+01 0.  0.
    9000001    1    1    2    0    0 -0.57493405028E+04  0.17478679273E+04  0.24779105092E+04  0.65000000000E+04  0.10000000000E+01 0.  0.
    9000001    1    1    2    0    0  0.57493405028E+04 -0.17478679273E+04 -0.24779105092E+04  0.65000000000E+04  0.10000000000E+01 0.  0.
</event>
<event>
 4    1  0.2195261E-006  0.1300000E+05  0.7957747E-01  0.1322471E+00
    9000001   -1    0    0    0    0  0.00000000000E+00  0.00000000000E+00  0.64999999231E+04  0.65000000000E+04  0.10000000000E+01 0.  0.
    9000001   -1    0    0    0    0 -0.00000000000E+00 -0.00000000000E+00 -0.64999999231E+04  0.65000000000E+04  0.10000000000E+01 0.  0.
    9000001    1    1    2    0    0 -0.33464427968E+04 -0.35976633347E+04  0.42553658054E+04  0.65000000000E+04  0.10000000000E+01 0.  0.
    9000001    1    1    2    0    0  0.33464427968E+04  0.35976633347E+04 -0.42553658054E+04  0.65000000000E+04  0.10000000000E+01 0.  0.
</event>
<event>
 4    1  0.2195261E-006  0.1300000E+05  0.7957747E-01  0.1322471E+00
    9000001   -1    0    0    0    0  0.00000000000E+00  0.00000000000E+00  0.64999999231E+04  0.65000000000E+04  0.10000000000E+01 0.  0.
    9000001   -1    0    0    0    0 -0.00000000000E+00 -0.00000000000E+00 -0.64999999231E+04  0.65000000000E+04  0.10000000000E+01 0.  0.
    9000001    1    1    2    0    0  0.38498349112E+04  0.50527882767E+04  0.13777157862E+04  0.65000000000E+04  0.10000000000E+01 0.  0.
    9000001    1    1    2    0    0 -0.38498349112E+04 -0.50527882767E+04 -0.13777157862E+04  0.65000000000E+04  0.10000000000E+01 0.  0.
</event>
<event>
 4    1  0.2195261E-006  0.1300000E+05  0.7957747E-01  0.1322471E+00
    9000001   -1    0    0    0    0  0.00000000000E+00  0.00000000000E+00  0.64999999231E+04  0.65000000000E+04  0.10000000000E+01 0.  0.
    9000001   -1    0    0    0    0 -0.00000000000E+00 -0.00000000000E+00 -0.64999999231E+04  0.65000000000E+04  0.10000000000E+01 0.  0.
    9000001    1    1    2    0    0 -0.15824231303E+04 -0.59105848743E+04  0.21933815174E+04  0.65000000000E+04  0.10000000000E+01 0.  0.
    9000001    1    1    2    0    0  0.15824231303E+04  0.59105848743E+04 -0.21933815174E+04  0.65000000000E+04  0.10000000000E+01 0.  0.
</event>
<event>
 4    1  0.2195261E-006  0.1300000E+05  0.7957747E-01  0.1322471E+00
    9000001   -1    0    0    0    0  0.00000000000E+00  0.00000000000E+00  0.64999999231E+04  0.65000000000E+04  0.10000000000E+01 0.  0.
    9000001   -1    0    0    0    0 -0.00000000000E+00 -0.00000000000E+00 -0.64999999231E+04  0.65000000000E+04  0.10000000000E+01 0.  0.
    9000001    1    1    2    0    0 -0.99405342893E+03  0.10860368911E+04 -0.63310647329E+04  0.65000000000E+04  0.10000000000E+01 0.  0.
    9000001    1    1    2    0    0  0.99405342893E+03 -0.10860368911E+04  0.63310647329E+04  0.65000000000E+04  0.10000000000E+01 0.  0.
</event>
<event>
 4    1  0.2195261E-006  0.1300000E+05  0.7957747E-01  0.1322471E+00
    9000001   -1    0    0    0    0  0.00000000000E+00  0.00000000000E+00  0.64999999231E+04  0.65000000000E+04  0.10000000000E+01 0.  0.
    9000001   -1    0    0    0    0 -0.00000000000E+00 -0.00000000000E+00 -0.64999999231E+04  0.65000000000E+04  0.10000000000E+01 0.  0.
    9000001    1    1    2    0    0  0.13984971023E+04 -0.50601886823E+04 -0.38325833787E+04  0.65000000000E+04  0.10000000000E+01 0.  0.
    9000001    1    1    2    0    0 -0.13984971023E+04  0.50601886823E+04  0.38325833787E+04  0.65000000000E+04  0.10000000000E+01 0.  0.
</event>
<event>
 4    1  0.2195261E-006  0.1300000E+05  0.7957747E-01  0.1322471E+00
    9000001   -1    0    0    0    0  0.00000000000E+00  0.00000000000E+00  0.64999999231E+04  0.65000000000E+04  0.10000000000E+01 0.  0.
    9000001   -1    0    0    0    0 -0.00000000000E+00 -0.00000000000E+00 -0.64999999231E+04  0.65000000000E+04  0.10000000000E+01 0.  0.
    9000001    1    1    2    0    0 -0.26636676812E+03 -0.36163018545E+04 -0.53945721463E+04  0.65000000000E+04  0.10000000000E+01 0.  0.
    9000001    1    1    2    0    0  0.26636676812E+03  0.36163018545E+04  0.53945721463E+04  0.65000000000E+04  0.10000000000E+01 0.  0.
</event>
<event>
 4    1  0.2195261E-006  0.1300000E+05  0.7957747E-01  0.1322471E+00
    9000001   -1    0    0    0    0  0.00000000000E+00  0.00000000000E+00  0.64999999231E+04  0.65000000000E+04  0.10000000000E+01 0.  0.
    9000001   -1    0    0    0    0 -0.00000000000E+00 -0.00000000000E+00 -0.64999999231E+04  0.65000000000E+04  0.10000000000E+01 0.  0.
    9000001    1    1    2    0    0 -0.29887049093E+04  0.57115185323E+04 -0.83438481537E+03  0.65000000000E+04  0.10000000000E+01 0.  0.
    9000001    1    1    2    0    0  0.29887049093E+04 -0.57115185323E+04  0.83438481537E+03  0.65000000000E+04  0.10000000000E+01 0.  0.
</event>
<event>
 4    1  0.2195261E-006  0.1300000E+05  0.7957747E-01  0.1322471E+00
    9000001   -1    0    0    0    0  0.00000000000E+00  0.00000000000E+00  0.64999999231E+04  0.65000000000E+04  0.10000000000E+01 0.  0.
    9000001   -1    0    0    0    0 -0.00000000000E+00 -0.00000000000E+00 -0.64999999231E+04  0.65000000000E+04  0.10000000000E+01 0.  0.
    9000001    1    1    2    0    0 -0.55029853235E+04  0.26987273646E+04 -0.21642601833E+04  0.65000000000E+04  0.10000000000E+01 0.  0.
    9000001    1    1    2    0    0  0.55029853235E+04 -0.26987273646E+04  0.21642601833E+04  0.65000000000E+04  0.10000000000E+01 0.  0.
</event>
<event>
 4    1  0.2195261E-006  0.1300000E+05  0.7957747E-01  0.1322471E+00
    9000001   -1    0    0    0    0  0.00000000000E+00  0.00000000000E+00  0.64999999231E+04  0.65000000000E+04  0.10000000000E+01 0.  0.
    9000001   -1    0    0    0    0 -0.00000000000E+00 -0.00000000000E+00 -0.64999999231E+04  0.65000000000E+04  0.10000000000E+01 0.  0.
    9000001    1    1    2    0    0  0.64032162472E+04  0.86204144296E+03  0.71112955404E+03  0.65000000000E+04  0.10000000000E+01 0.  0.
    9000001    1    1    2    0    0 -0.64032162472E+04 -0.86204144296E+03 -0.71112955404E+03  0.65000000000E+04  0.10000000000E+01 0.  0.
</event>
<event>
 4    1  0.2195261E-006  0.1300000E+05  0.7957747E-01  0.1322471E+00
    9000001   -1    0    0    0    0  0.00000000000E+00  0.00000000000E+00  0.64999999231E+04  0.65000000000E+04  0.10000000000E+01 0.  0.
    9000001   -1    0    0    0    0 -0.00000000000E+00 -0.00000000000E+00 -0.64999999231E+04  0.65000000000E+04  0.10000000000E+01 0.  0.
    9000001    1    1    2    0    0 -0.98756871941E+02 -0.20333178050E+04  0.61729947986E+04  0.65000000000E+04  0.10000000000E+01 0.  0.
    9000001    1    1    2    0    0  0.98756871941E+02  0.20333178050E+04 -0.61729947986E+04  0.65000000000E+04  0.10000000000E+01 0.  0.
</event>
<event>
 4    1  0.2195261E-006  0.1300000E+05  0.7957747E-01  0.1322471E+00
    9000001   -1    0    0    0    0  0.00000000000E+00  0.00000000000E+00  0.64999999231E+04  0.65000000000E+04  0.10000000000E+01 0.  0.
    9000001   -1    0    0    0    0 -0.00000000000E+00 -0.00000000000E+00 -0.64999999231E+04  0.65000000000E+04  0.10000000000E+01 0.  0.
    9000001    1    1    2    0    0 -0.50696379331E+03  0.63716380407E+04 -0.11811923598E+04  0.65000000000E+04  0.10000000000E+01 0.  0.
    9000001    1    1    2    0    0  0.50696379331E+03 -0.63716380407E+04  0.11811923598E+04  0.65000000000E+04  0.10000000000E+01 0.  0.
</event>
<event>
 4    1  0.2195261E-006  0.1300000E+05  0.7957747E-01  0.1322471E+00
    9000001   -1    0    0    0    0  0.00000000000E+00  0.00000000000E+00  0.64999999231E+04  0.65000000000E+04  0.10000000000E+01 0.  0.
    9000001   -1    0    0    0    0 -0.00000000000E+00 -0.00000000000E+00 -0.64999999231E+04  0.65000000000E+04  0.10000000000E+01 0.  0.
    9000001    1    1    2    0    0 -0.40887515574E+04  0.50396640112E+04  0.36591851098E+03  0.65000000000E+04  0.10000000000E+01 0.  0.
    9000001    1    1    2    0    0  0.40887515574E+04 -0.50396640112E+04 -0.36591851098E+03  0.65000000000E+04  0.10000000000E+01 0.  0.
</event>
<event>
 4    1  0.2195261E-006  0.1300000E+05  0.7957747E-01  0.1322471E+00
    9000001   -1    0    0    0    0  0.00000000000E+00  0.00000000000E+00  0.64999999231E+04  0.65000000000E+04  0.10000000000E+01 0.  0.
    9000001   -1    0    0    0    0 -0.00000000000E+00 -0.00000000000E+00 -0.64999999231E+04  0.65000000000E+04  0.10000000000E+01 0.  0.
    9000001    1    1    2    0    0 -0.15635483673E+04  0.57058332542E+04 -0.26923562875E+04  0.65000000000E+04  0.10000000000E+01 0.  0.
    9000001    1    1    2    0    0  0.15635483673E+04 -0.57058332542E+04  0.26923562875E+04  0.65000000000E+04  0.10000000000E+01 0.  0.
</event>
<event>
 4    1  0.2195261E-006  0.1300000E+05  0.7957747E-01  0.1322471E+00
    9000001   -1    0    0    0    0  0.00000000000E+00  0.00000000000E+00  0.64999999231E+04  0.65000000000E+04  0.10000000000E+01 0.  0.
    9000001   -1    0    0    0    0 -0.00000000000E+00 -0.00000000000E+00 -0.64999999231E+04  0.65000000000E+04  0.10000000000E+01 0.  0.
    9000001    1    1    2    0    0  0.31885581307E+04  0.56038414717E+04 -0.82465556879E+03  0.65000000000E+04  0.10000000000E+01 0.  0.
    9000001    1    1    2    0    0 -0.31885581307E+04 -0.56038414717E+04  0.82465556879E+03  0.65000000000E+04  0.10000000000E+01 0.  0.
</event>
<event>
 4    1  0.2195261E-006  0.1300000E+05  0.7957747E-01  0.1322471E+00
    9000001   -1    0    0    0    0  0.00000000000E+00  0.00000000000E+00  0.64999999231E+04  0.65000000000E+04  0.10000000000E+01 0.  0.
    9000001   -1    0    0    0    0 -0.00000000000E+00 -0.00000000000E+00 -0.64999999231E+04  0.65000000000E+04  0.10000000000E+01 0.  0.
    9000001    1    1    2    0    0 -0.18978770038E+04  0.52989185440E+04  0.32510804578E+04  0.65000000000E+04  0.10000000000E+01 0.  0.
    9000001    1    1    2    0    0  0.18978770038E+04 -0.52989185440E+04 -0.32510804578E+04  0.65000000000E+04  0.10000000000E+01 0.  0.
</event>
<event>
 4    1  0.2195261E-006  0.1300000E+05  0.7957747E-01  0.1322471E+00
    9000001   -1    0    0    0    0  0.00000000000E+00  0.00000000000E+00  0.64999999231E+04  0.65000000000E+04  0.10000000000E+01 0.  0.
    9000001   -1    0    0    0    0 -0.00000000000E+00 -0.00000000000E+00 -0.64999999231E+04  0.65000000000E+04  0.10000000000E+01 0.  0.
    9000001    1    1    2    0    0  0.20707202126E+04 -0.25777461552E+04 -0.55961899146E+04  0.65000000000E+04  0.10000000000E+01 0.  0.
    9000001    1    1    2    0    0 -0.20707202126E+04  0.25777461552E+04  0.55961899146E+04  0.65000000000E+04  0.10000000000E+01 0.  0.
</event>
<event>
 4    1  0.2195261E-006  0.1300000E+05  0.7957747E-01  0.1322471E+00
    9000001   -1    0    0    0    0  0.00000000000E+00  0.00000000000E+00  0.64999999231E+04  0.65000000000E+04  0.10000000000E+01 0.  0.
    9000001   -1    0    0    0    0 -0.00000000000E+00 -0.00000000000E+00 -0.64999999231E+04  0.65000000000E+04  0.10000000000E+01 0.  0.
    9000001    1    1    2    0    0 -0.38779252652E+04 -0.26211300830E+04  0.45101409873E+04  0.65000000000E+04  0.10000000000E+01 0.  0.
    9000001    1    1    2    0    0  0.38779252652E+04  0.26211300830E+04 -0.45101409873E+04  0.65000000000E+04  0.10000000000E+01 0.  0.
</event>
<event>
 4    1  0.2195261E-006  0.1300000E+05  0.7957747E-01  0.1322471E+00
    9000001   -1    0    0    0    0  0.00000000000E+00  0.00000000000E+00  0.64999999231E+04  0.65000000000E+04  0.10000000000E+01 0.  0.
    9000001   -1    0    0    0    0 -0.00000000000E+00 -0.00000000000E+00 -0.64999999231E+04  0.65000000000E+04  0.10000000000E+01 0.  0.
    9000001    1    1    2    0    0 -0.27084555028E+04 -0.56758317937E+04  0.16429245994E+04  0.65000000000E+04  0.10000000000E+01 0.  0.
    9000001    1    1    2    0    0  0.27084555028E+04  0.56758317937E+04 -0.16429245994E+04  0.65000000000E+04  0.10000000000E+01 0.  0.
</event>
<event>
 4    1  0.2195261E-006  0.1300000E+05  0.7957747E-01  0.1322471E+00
    9000001   -1    0    0    0    0  0.00000000000E+00  0.00000000000E+00  0.64999999231E+04  0.65000000000E+04  0.10000000000E+01 0.  0.
    9000001   -1    0    0    0    0 -0.00000000000E+00 -0.00000000000E+00 -0.64999999231E+04  0.65000000000E+04  0.10000000000E+01 0.  0.
    9000001    1    1    2    0    0  0.49007588109E+04 -0.14235339338E+04  0.40256817083E+04  0.65000000000E+04  0.10000000000E+01 0.  0.
    9000001    1    1    2    0    0 -0.49007588109E+04  0.14235339338E+04 -0.40256817083E+04  0.65000000000E+04  0.10000000000E+01 0.  0.
</event>
<event>
 4    1  0.2195261E-006  0.1300000E+05  0.7957747E-01  0.1322471E+00
    9000001   -1    0    0    0    0  0.00000000000E+00  0.00000000000E+00  0.64999999231E+04  0.65000000000E+04  0.10000000000E+01 0.  0.
    9000001   -1    0    0    0    0 -0.00000000000E+00 -0.00000000000E+00 -0.64999999231E+04  0.65000000000E+04  0.10000000000E+01 0.  0.
    9000001    1    1    2    0    0 -0.59051686994E+03 -0.60007140299E+04  0.24274925248E+04  0.65000000000E+04  0.10000000000E+01 0.  0.
    9000001    1    1    2    0    0  0.59051686994E+03  0.60007140299E+04 -0.24274925248E+04  0.65000000000E+04  0.10000000000E+01 0.  0.
</event>
<event>
 4    1  0.2195261E-006  0.1300000E+05  0.7957747E-01  0.1322471E+00
    9000001   -1    0    0    0    0  0.00000000000E+00  0.00000000000E+00  0.64999999231E+04  0.65000000000E+04  0.10000000000E+01 0.  0.
    9000001   -1    0    0    0    0 -0.00000000000E+00 -0.00000000000E+00 -0.64999999231E+04  0.65000000000E+04  0.10000000000E+01 0.  0.
    9000001    1    1    2    0    0  0.68884388995E+03 -0.50632614812E+04  0.40173220270E+04  0.65000000000E+04  0.10000000000E+01 0.  0.
    9000001    1    1    2    0    0 -0.68884388995E+03  0.50632614812E+04 -0.40173220270E+04  0.65000000000E+04  0.10000000000E+01 0.  0.
</event>
<event>
 4    1  0.2195261E-006  0.1300000E+05  0.7957747E-01  0.1322471E+00
    9000001   -1    0    0    0    0  0.00000000000E+00  0.00000000000E+00  0.64999999231E+04  0.65000000000E+04  0.10000000000E+01 0.  0.
    9000001   -1    0    0    0    0 -0.00000000000E+00 -0.00000000000E+00 -0.64999999231E+04  0.65000000000E+04  0.10000000000E+01 0.  0.
    9000001    1    1    2    0    0 -0.24680277928E+04  0.37432932294E+04 -0.47060167459E+04  0.65000000000E+04  0.10000000000E+01 0.  0.
    9000001    1    1    2    0    0  0.24680277928E+04 -0.37432932294E+04  0.47060167459E+04  0.65000000000E+04  0.10000000000E+01 0.  0.
</event>
<event>
 4    1  0.2195261E-006  0.1300000E+05  0.7957747E-01  0.1322471E+00
    9000001   -1    0    0    0    0  0.00000000000E+00  0.00000000000E+00  0.64999999231E+04  0.65000000000E+04  0.10000000000E+01 0.  0.
    9000001   -1    0    0    0    0 -0.00000000000E+00 -0.00000000000E+00 -0.64999999231E+04  0.65000000000E+04  0.10000000000E+01 0.  0.
    9000001    1    1    2    0    0 -0.11182813203E+04  0.45176632695E+04 -0.45376386450E+04  0.65000000000E+04  0.10000000000E+01 0.  0.
    9000001    1    1    2    0    0  0.11182813203E+04 -0.45176632695E+04  0.45376386450E+04  0.65000000000E+04  0.10000000000E+01 0.  0.
</event>
<event>
 4    1  0.2195261E-006  0.1300000E+05  0.7957747E-01  0.1322471E+00
    9000001   -1    0    0    0    0  0.00000000000E+00  0.00000000000E+00  0.64999999231E+04  0.65000000000E+04  0.10000000000E+01 0.  0.
    9000001   -1    0    0    0    0 -0.00000000000E+00 -0.00000000000E+00 -0.64999999231E+04  0.65000000000E+04  0.10000000000E+01 0.  0.
    9000001    1    1    2    0    0  0.63810182707E+04  0.12379728459E+04  0.52972842978E+01  0.65000000000E+04  0.10000000000E+01 0.  0.
    9000001    1    1    2    0    0 -0.63810182707E+04 -0.12379728459E+04 -0.52972842978E+01  0.65000000000E+04  0.10000000000E+01 0.  0.
</event>
<event>
 4    1  0.2195261E-006  0.1300000E+05  0.7957747E-01  0.1322471E+00
    9000001   -1    0    0    0    0  0.00000000000E+00  0.00000000000E+00  0.64999999231E+04  0.65000000000E+04  0.10000000000E+01 0.  0.
    9000001   -1    0    0    0    0 -0.00000000000E+00 -0.00000000000E+00 -0.64999999231E+04  0.65000000000E+04  0.10000000000E+01 0.  0.
    9000001    1    1    2    0    0  0.33563164287E+04  0.22415684372E+03 -0.55619144851E+04  0.65000000000E+04  0.10000000000E+01 0.  0.
    9000001    1    1    2    0    0 -0.33563164287E+04 -0.22415684372E+03  0.55619144851E+04  0.65000000000E+04  0.10000000000E+01 0.  0.
</event>
<event>
 4    1  0.2195261E-006  0.1300000E+05  0.7957747E-01  0.1322471E+00
    9000001   -1    0    0    0    0  0.00000000000E+00  0.00000000000E+00  0.64999999231E+04  0.65000000000E+04  0.10000000000E+01 0.  0.
    9000001   -1    0    0    0    0 -0.00000000000E+00 -0.00000000000E+00 -0.64999999231E+04  0.65000000000E+04  0.10000000000E+01 0.  0.
    9000001    1    1    2    0    0  0.48151276819E+04  0.24861144684E+04 -0.35893981748E+04  0.65000000000E+04  0.10000000000E+01 0.  0.
    9000001    1    1    2    0    0 -0.48151276819E+04 -0.24861144684E+04  0.35893981748E+04  0.65000000000E+04  0.10000000000E+01 0.  0.
</event>
<event>
 4    1  0.2195261E-006  0.1300000E+05  0.7957747E-01  0.1322471E+00
    9000001   -1    0    0    0    0  0.00000000000E+00  0.00000000000E+00  0.64999999231E+04  0.65000000000E+04  0.10000000000E+01 0.  0.
    9000001   -1    0    0    0    0 -0.00000000000E+00 -0.00000000000E+00 -0.64999999231E+04  0.65000000000E+04  0.10000000000E+01 0.  0.
    9000001    1    1    2    0    0 -0.41796424621E+04 -0.26895324173E+04  0.41889143301E+04  0.65000000000E+04  0.10000000000E+01 0.  0.
    9000001    1    1    2    0    0  0.41796424621E+04  0.26895324173E+04 -0.41889143301E+04  0.65000000000E+04  0.10000000000E+01 0.  0.
</event>
<event>
 4    1  0.2195261E-006  0.1300000E+05  0.7957747E-01  0.1322471E+00
    9000001   -1    0    0    0    0  0.00000000000E+00  0.00000000000E+00  0.64999999231E+04  0.65000000000E+04  0.10000000000E+01 0.  0.
    9000001   -1    0    0    0    0 -0.00000000000E+00 -0.00000000000E+00 -0.64999999231E+04  0.65000000000E+04  0.10000000000E+01 0.  0.
    9000001    1    1    2    0    0  0.52844170796E+04 -0.37060496827E+04 -0.76819976478E+03  0.65000000000E+04  0.10000000000E+01 0.  0.
    9000001    1    1    2    0    0 -0.52844170796E+04  0.37060496827E+04  0.76819976478E+03  0.65000000000E+04  0.10000000000E+01 0.  0.
</event>
<event>
 4    1  0.2195261E-006  0.1300000E+05  0.7957747E-01  0.1322471E+00
    9000001   -1    0    0    0    0  0.00000000000E+00  0.00000000000E+00  0.64999999231E+04  0.65000000000E+04  0.10000000000E+01 0.  0.
    9000001   -1    0    0    0    0 -0.00000000000E+00 -0.00000000000E+00 -0.64999999231E+04  0.65000000000E+04  0.10000000000E+01 0.  0.
    9000001    1    1    2    0    0 -0.28962691803E+04 -0.56601890652E+04  0.13505123404E+04  0.65000000000E+04  0.10000000000E+01 0.  0.
    9000001    1    1    2    0    0  0.28962691803E+04  0.56601890652E+04 -0.13505123404E+04  0.65000000000E+04  0.10000000000E+01 0.  0.
</event>
<event>
 4    1  0.2195261E-006  0.1300000E+05  0.7957747E-01  0.1322471E+00
    9000001   -1    0    0    0    0  0.00000000000E+00  0.00000000000E+00  0.64999999231E+04  0.65000000000E+04  0.10000000000E+01 0.  0.
    9000001   -1    0    0    0    0 -0.00000000000E+00 -0.00000000000E+00 -0.64999999231E+04  0.65000000000E+04  0.10000000000E+01 0.  0.
    9000001    1    1    2    0    0 -0.72066066931E+03  0.14074159676E+04  0.63047464258E+04  0.65000000000E+04  0.10000000000E+01 0.  0.
    9000001    1    1    2    0    0  0.72066066931E+03 -0.14074159676E+04 -0.63047464258E+04  0.65000000000E+04  0.10000000000E+01 0.  0.
</event>
<event>
 4    1  0.2195261E-006  0.1300000E+05  0.7957747E-01  0.1322471E+00
    9000001   -1    0    0    0    0  0.00000000000E+00  0.00000000000E+00  0.64999999231E+04  0.65000000000E+04  0.10000000000E+01 0.  0.
    9000001   -1    0    0    0    0 -0.00000000000E+00 -0.00000000000E+00 -0.64999999231E+04  0.65000000000E+04  0.10000000000E+01 0.  0.
    9000001    1    1    2    0    0 -0.61029299866E+04  0.19485672263E+04 -0.10987858497E+04  0.65000000000E+04  0.10000000000E+01 0.  0.
    9000001    1    1    2    0    0  0.61029299866E+04 -0.19485672263E+04  0.10987858497E+04  0.65000000000E+04  0.10000000000E+01 0.  0.
</event>
<event>
 4    1  0.2195261E-006  0.1300000E+05  0.7957747E-01  0.1322471E+00
    9000001   -1    0    0    0    0  0.00000000000E+00  0.00000000000E+00  0.64999999231E+04  0.65000000000E+04  0.10000000000E+01 0.  0.
    9000001   -1    0    0    0    0 -0.00000000000E+00 -0.00000000000E+00 -0.64999999231E+04  0.65000000000E+04  0.10000000000E+01 0.  0.
    9000001    1    1    2    0    0 -0.26486069067E+04 -0.35165786307E+04  0.47821078185E+04  0.65000000000E+04  0.10000000000E+01 0.  0.
    9000001    1    1    2    0    0  0.26486069067E+04  0.35165786307E+04 -0.47821078185E+04  0.65000000000E+04  0.10000000000E+01 0.  0.
</event>
<event>
 4    1  0.2195261E-006  0.1300000E+05  0.7957747E-01  0.1322471E+00
    9000001   -1    0    0    0    0  0.00000000000E+00  0.00000000000E+00  0.64999999231E+04  0.65000000000E+04  0.10000000000E+01 0.  0.
    9000001   -1    0    0    0    0 -0.00000000000E+00 -0.00000000000E+00 -0.64999999231E+04  0.65000000000E+04  0.10000000000E+01 0.  0.
    9000001    1    1    2    0    0 -0.23714393759E+04 -0.39206242662E+04 -0.46103123158E+04  0.65000000000E+04  0.10000000000E+01 0.  0.
    9000001    1    1    2    0    0  0.23714393759E+04  0.39206242662E+04  0.46103123158E+04  0.65000000000E+04  0.10000000000E+01 0.  0.
</event>
<event>
 4    1  0.2195261E-006  0.1300000E+05  0.7957747E-01  0.1322471E+00
    9000001   -1    0    0    0    0  0.00000000000E+00  0.00000000000E+00  0.64999999231E+04  0.65000000000E+04  0.10000000000E+01 0.  0.
    9000001   -1    0    0    0    0 -0.00000000000E+00 -0.00000000000E+00 -0.64999999231E+04  0.65000000000E+04  0.10000000000E+01 0.  0.
    9000001    1    1    2    0    0  0.27412018922E+04  0.19020470112E+04  0.55783535522E+04  0.65000000000E+04  0.10000000000E+01 0.  0.
    9000001    1    1    2    0    0 -0.27412018922E+04 -0.19020470112E+04 -0.55783535522E+04  0.65000000000E+04  0.10000000000E+01 0.  0.
</event>
<event>
 4    1  0.2195261E-006  0.1300000E+05  0.7957747E-01  0.1322471E+00
    9000001   -1    0    0    0    0  0.00000000000E+00  0.00000000000E+00  0.64999999231E+04  0.65000000000E+04  0.10000000000E+01 0.  0.
    9000001   -1    0    0    0    0 -0.00000000000E+00 -0.00000000000E+00 -0.64999999231E+04  0.65000000000E+04  0.10000000000E+01 0.  0.
    9000001    1    1    2    0    0  0.64411569616E+03 -0.38694232239E+04 -0.51829217517E+04  0.65000000000E+04  0.10000000000E+01 0.  0.
    9000001    1    1    2    0    0 -0.64411569616E+03  0.38694232239E+04  0.51829217517E+04  0.65000000000E+04  0.10000000000E+01 0.  0.
</event>
<event>
 4    1  0.2195261E-006  0.1300000E+05  0.7957747E-01  0.1322471E+00
    9000001   -1    0    0    0    0  0.00000000000E+00  0.00000000000E+00  0.64999999231E+04  0.65000000000E+04  0.10000000000E+01 0.  0.
    9000001   -1    0    0    0    0 -0.00000000000E+00 -0.00000000000E+00 -0.64999999231E+04  0.65000000000E+04  0.10000000000E+01 0.  0.
    9000001    1    1    2    0    0 -0.17876117875E+04  0.28471952163E+04  0.55630856993E+04  0.65000000000E+04  0.10000000000E+01 0.  0.
    9000001    1    1    2    0    0  0.17876117875E+04 -0.28471952163E+04 -0.55630856993E+04  0.65000000000E+04  0.10000000000E+01 0.  0.
</event>
<event>
 4    1  0.2195261E-006  0.1300000E+05  0.7957747E-01  0.1322471E+00
    9000001   -1    0    0    0    0  0.00000000000E+00  0.00000000000E+00  0.64999999231E+04  0.65000000000E+04  0.10000000000E+01 0.  0.
    9000001   -1    0    0    0    0 -0.00000000000E+00 -0.00000000000E+00 -0.64999999231E+04  0.65000000000E+04  0.10000000000E+01 0.  0.
    9000001    1    1    2    0    0 -0.19222334437E+04  0.47416376222E+02 -0.62090876363E+04  0.65000000000E+04  0.10000000000E+01 0.  0.
    9000001    1    1    2    0    0  0.19222334437E+04 -0.47416376222E+02  0.62090876363E+04  0.65000000000E+04  0.10000000000E+01 0.  0.
</event>
<event>
 4    1  0.2195261E-006  0.1300000E+05  0.7957747E-01  0.1322471E+00
    9000001   -1    0    0    0    0  0.00000000000E+00  0.00000000000E+00  0.64999999231E+04  0.65000000000E+04  0.10000000000E+01 0.  0.
    9000001   -1    0    0    0    0 -0.00000000000E+00 -0.00000000000E+00 -0.64999999231E+04  0.65000000000E+04  0.10000000000E+01 0.  0.
    9000001    1    1    2    0    0  0.42216651711E+04 -0.48066553164E+04 -0.11504811395E+04  0.65000000000E+04  0.10000000000E+01 0.  0.
    9000001    1    1    2    0    0 -0.42216651711E+04  0.48066553164E+04  0.11504811395E+04  0.65000000000E+04  0.10000000000E+01 0.  0.
</event>
<event>
 4    1  0.2195261E-006  0.1300000E+05  0.7957747E-01  0.1322471E+00
    9000001   -1    0    0    0    0  0.00000000000E+00  0.00000000000E+00  0.64999999231E+04  0.65000000000E+04  0.10000000000E+01 0.  0.
    9000001   -1    0    0    0    0 -0.00000000000E+00 -0.00000000000E+00 -0.64999999231E+04  0.65000000000E+04  0.10000000000E+01 0.  0.
    9000001    1    1    2    0    0  0.50780430034E+04  0.70055166875E+03 -0.39965867456E+04  0.65000000000E+04  0.10000000000E+01 0.  0.
    9000001    1    1    2    0    0 -0.50780430034E+04 -0.70055166875E+03  0.39965867456E+04  0.65000000000E+04  0.10000000000E+01 0.  0.
</event>
<event>
 4    1  0.2195261E-006  0.1300000E+05  0.7957747E-01  0.1322471E+00
    9000001   -1    0    0    0    0  0.00000000000E+00  0.00000000000E+00  0.64999999231E+04  0.65000000000E+04  0.10000000000E+01 0.  0.
    9000001   -1    0    0    0    0 -0.00000000000E+00 -0.00000000000E+00 -0.64999999231E+04  0.65000000000E+04  0.10000000000E+01 0.  0.
    9000001    1    1    2    0    0  0.45586424652E+04 -0.38094387749E+04  0.26376038547E+04  0.65000000000E+04  0.10000000000E+01 0.  0.
    9000001    1    1    2    0    0 -0.45586424652E+04  0.38094387749E+04 -0.26376038547E+04  0.65000000000E+04  0.10000000000E+01 0.  0.
</event>
<event>
 4    1  0.2195261E-006  0.1300000E+05  0.7957747E-01  0.1322471E+00
    9000001   -1    0    0    0    0  0.00000000000E+00  0.00000000000E+00  0.64999999231E+04  0.65000000000E+04  0.10000000000E+01 0.  0.
    9000001   -1    0    0    0    0 -0.00000000000E+00 -0.00000000000E+00 -0.64999999231E+04  0.65000000000E+04  0.10000000000E+01 0.  0.
    9000001    1    1    2    0    0 -0.35929935935E+03  0.22724228046E+04 -0.60792267245E+04  0.65000000000E+04  0.10000000000E+01 0.  0.
    9000001    1    1    2    0    0  0.35929935935E+03 -0.22724228046E+04  0.60792267245E+04  0.65000000000E+04  0.10000000000E+01 0.  0.
</event>
<event>
 4    1  0.2195261E-006  0.1300000E+05  0.7957747E-01  0.1322471E+00
    9000001   -1    0    0    0    0  0.00000000000E+00  0.00000000000E+00  0.64999999231E+04  0.65000000000E+04  0.10000000000E+01 0.  0.
    9000001   -1    0    0    0    0 -0.00000000000E+00 -0.00000000000E+00 -0.64999999231E+04  0.65000000000E+04  0.10000000000E+01 0.  0.
    9000001    1    1    2    0    0 -0.33233538673E+04  0.37261028101E+04 -0.41619077262E+04  0.65000000000E+04  0.10000000000E+01 0.  0.
    9000001    1    1    2    0    0  0.33233538673E+04 -0.37261028101E+04  0.41619077262E+04  0.65000000000E+04  0.10000000000E+01 0.  0.
</event>
<event>
 4    1  0.2195261E-006  0.1300000E+05  0.7957747E-01  0.1322471E+00
    9000001   -1    0    0    0    0  0.00000000000E+00  0.00000000000E+00  0.64999999231E+04  0.65000000000E+04  0.10000000000E+01 0.  0.
    9000001   -1    0    0    0    0 -0.00000000000E+00 -0.00000000000E+00 -0.64999999231E+04  0.65000000000E+04  0.10000000000E+01 0.  0.
    9000001    1    1    2    0    0  0.17201821816E+04  0.17817225189E+04 -0.60096952608E+04  0.65000000000E+04  0.10000000000E+01 0.  0.
    9000001    1    1    2    0    0 -0.17201821816E+04 -0.17817225189E+04  0.60096952608E+04  0.65000000000E+04  0.10000000000E+01 0.  0.
</event>
<event>
 4    1  0.2195261E-006  0.1300000E+05  0.7957747E-01  0.1322471E+00
    9000001   -1    0    0    0    0  0.00000000000E+00  0.00000000000E+00  0.64999999231E+04  0.65000000000E+04  0.10000000000E+01 0.  0.
    9000001   -1    0    0    0    0 -0.00000000000E+00 -0.00000000000E+00 -0.64999999231E+04  0.65000000000E+04  0.10000000000E+01 0.  0.
    9000001    1    1    2    0    0 -0.52466862230E+04  0.36043202599E+04  0.13157348296E+04  0.65000000000E+04  0.10000000000E+01 0.  0.
    9000001    1    1    2    0    0  0.52466862230E+04 -0.36043202599E+04 -0.13157348296E+04  0.65000000000E+04  0.10000000000E+01 0.  0.
</event>
<event>
 4    1  0.2195261E-006  0.1300000E+05  0.7957747E-01  0.1322471E+00
    9000001   -1    0    0    0    0  0.00000000000E+00  0.00000000000E+00  0.64999999231E+04  0.65000000000E+04  0.10000000000E+01 0.  0.
    9000001   -1    0    0    0    0 -0.00000000000E+00 -0.00000000000E+00 -0.64999999231E+04  0.65000000000E+04  0.10000000000E+01 0.  0.
    9000001    1    1    2    0    0 -0.50147309597E+04  0.41290958336E+04  0.23030414541E+03  0.65000000000E+04  0.10000000000E+01 0.  0.
    9000001    1    1    2    0    0  0.50147309597E+04 -0.41290958336E+04 -0.23030414541E+03  0.65000000000E+04  0.10000000000E+01 0.  0.
</event>
<event>
 4    1  0.2195261E-006  0.1300000E+05  0.7957747E-01  0.1322471E+00
    9000001   -1    0    0    0    0  0.00000000000E+00  0.00000000000E+00  0.64999999231E+04  0.65000000000E+04  0.10000000000E+01 0.  0.
    9000001   -1    0    0    0    0 -0.00000000000E+00 -0.00000000000E+00 -0.64999999231E+04  0.65000000000E+04  0.10000000000E+01 0.  0.
    9000001    1    1    2    0    0 -0.55075011866E+04 -0.24017200884E+04 -0.24797520635E+04  0.65000000000E+04  0.10000000000E+01 0.  0.
    9000001    1    1    2    0    0  0.55075011866E+04  0.24017200884E+04  0.24797520635E+04  0.65000000000E+04  0.10000000000E+01 0.  0.
</event>
<event>
 4    1  0.2195261E-006  0.1300000E+05  0.7957747E-01  0.1322471E+00
    9000001   -1    0    0    0    0  0.00000000000E+00  0.00000000000E+00  0.64999999231E+04  0.65000000000E+04  0.10000000000E+01 0.  0.
    9000001   -1    0    0    0    0 -0.00000000000E+00 -0.00000000000E+00 -0.64999999231E+04  0.65000000000E+04  0.10000000000E+01 0.  0.
    9000001    1    1    2    0    0 -0.33560955791E+04 -0.52728715702E+04  0.17842216421E+04  0.65000000000E+04  0.10000000000E+01 0.  0.
    9000001    1    1    2    0    0  0.33560955791E+04  0.52728715702E+04 -0.17842216421E+04  0.65000000000E+04  0.10000000000E+01 0.  0.
</event>
<event>
 4    1  0.2195261E-006  0.1300000E+05  0.7957747E-01  0.1322471E+00
    9000001   -1    0    0    0    0  0.00000000000E+00  0.00000000000E+00  0.64999999231E+04  0.65000000000E+04  0.10000000000E+01 0.  0.
    9000001   -1    0    0    0    0 -0.00000000000E+00 -0.00000000000E+00 -0.64999999231E+04  0.65000000000E+04  0.10000000000E+01 0.  0.
    9000001    1    1    2    0    0  0.13331770457E+03 -0.63271025668E+04  0.14832391912E+04  0.65000000000E+04  0.10000000000E+01 0.  0.
    9000001    1    1    2    0    0 -0.13331770457E+03  0.63271025668E+04 -0.14832391912E+04  0.65000000000E+04  0.10000000000E+01 0.  0.
</event>
<event>
 4    1  0.2195261E-006  0.1300000E+05  0.7957747E-01  0.1322471E+00
    9000001   -1    0    0    0    0  0.00000000000E+00  0.00000000000E+00  0.64999999231E+04  0.65000000000E+04  0.10000000000E+01 0.  0.
    9000001   -1    0    0    0    0 -0.00000000000E+00 -0.00000000000E+00 -0.64999999231E+04  0.65000000000E+04  0.10000000000E+01 0.  0.
    9000001    1    1    2    0    0 -0.16137497476E+03  0.64789953538E+04 -0.49656452071E+03  0.65000000000E+04  0.10000000000E+01 0.  0.
    9000001    1    1    2    0    0  0.16137497476E+03 -0.64789953538E+04  0.49656452071E+03  0.65000000000E+04  0.10000000000E+01 0.  0.
</event>
<event>
 4    1  0.2195261E-006  0.1300000E+05  0.7957747E-01  0.1322471E+00
    9000001   -1    0    0    0    0  0.00000000000E+00  0.00000000000E+00  0.64999999231E+04  0.65000000000E+04  0.10000000000E+01 0.  0.
    9000001   -1    0    0    0    0 -0.00000000000E+00 -0.00000000000E+00 -0.64999999231E+04  0.65000000000E+04  0.10000000000E+01 0.  0.
    9000001    1    1    2    0    0 -0.50832434761E+04  0.43893808584E+03  0.40271538485E+04  0.65000000000E+04  0.10000000000E+01 0.  0.
    9000001    1    1    2    0    0  0.50832434761E+04 -0.43893808584E+03 -0.40271538485E+04  0.65000000000E+04  0.10000000000E+01 0.  0.
</event>
<event>
 4    1  0.2195261E-006  0.1300000E+05  0.7957747E-01  0.1322471E+00
    9000001   -1    0    0    0    0  0.00000000000E+00  0.00000000000E+00  0.64999999231E+04  0.65000000000E+04  0.10000000000E+01 0.  0.
    9000001   -1    0    0    0    0 -0.00000000000E+00 -0.00000000000E+00 -0.64999999231E+04  0.65000000000E+04  0.10000000000E+01 0.  0.
    9000001    1    1    2    0    0 -0.17959580532E+03  0.42250354076E+04 -0.49362759396E+04  0.65000000000E+04  0.10000000000E+01 0.  0.
    9000001    1    1    2    0    0  0.17959580532E+03 -0.42250354076E+04  0.49362759396E+04  0.65000000000E+04  0.10000000000E+01 0.  0.
</event>
<event>
 4    1  0.2195261E-006  0.1300000E+05  0.7957747E-01  0.1322471E+00
    9000001   -1    0    0    0    0  0.00000000000E+00  0.00000000000E+00  0.64999999231E+04  0.65000000000E+04  0.10000000000E+01 0.  0.
    9000001   -1    0    0    0    0 -0.00000000000E+00 -0.00000000000E+00 -0.64999999231E+04  0.65000000000E+04  0.10000000000E+01 0.  0.
    9000001    1    1    2    0    0  0.47167883180E+04 -0.44723438401E+04  0.68948778710E+01  0.65000000000E+04  0.10000000000E+01 0.  0.
    9000001    1    1    2    0    0 -0.47167883180E+04  0.44723438401E+04 -0.68948778710E+01  0.65000000000E+04  0.10000000000E+01 0.  0.
</event>
<event>
 4    1  0.2195261E-006  0.1300000E+05  0.7957747E-01  0.1322471E+00
    9000001   -1    0    0    0    0  0.00000000000E+00  0.00000000000E+00  0.64999999231E+04  0.65000000000E+04  0.10000000000E+01 0.  0.
    9000001   -1    0    0    0    0 -0.00000000000E+00 -0.00000000000E+00 -0.64999999231E+04  0.65000000000E+04  0.10000000000E+01 0.  0.
    9000001    1    1    2    0    0  0.58171324858E+04 -0.28211175217E+04 -0.67250618720E+03  0.65000000000E+04  0.10000000000E+01 0.  0.
    9000001    1    1    2    0    0 -0.58171324858E+04  0.28211175217E+04  0.67250618720E+03  0.65000000000E+04  0.10000000000E+01 0.  0.
</event>
<event>
 4    1  0.2195261E-006  0.1300000E+05  0.7957747E-01  0.1322471E+00
    9000001   -1    0    0    0    0  0.00000000000E+00  0.00000000000E+00  0.64999999231E+04  0.65000000000E+04  0.10000000000E+01 0.  0.
    9000001   -1    0    0    0    0 -0.00000000000E+00 -0.00000000000E+00 -0.64999999231E+04  0.65000000000E+04  0.10000000000E+01 0.  0.
    9000001    1    1    2    0    0  0.41434057293E+04  0.25205665445E+04  0.43276936418E+04  0.65000000000E+04  0.10000000000E+01 0.  0.
    9000001    1    1    2    0    0 -0.41434057293E+04 -0.25205665445E+04 -0.43276936418E+04  0.65000000000E+04  0.10000000000E+01 0.  0.
</event>
<event>
 4    1  0.2195261E-006  0.1300000E+05  0.7957747E-01  0.1322471E+00
    9000001   -1    0    0    0    0  0.00000000000E+00  0.00000000000E+00  0.64999999231E+04  0.65000000000E+04  0.10000000000E+01 0.  0.
    9000001   -1    0    0    0    0 -0.00000000000E+00 -0.00000000000E+00 -0.64999999231E+04  0.65000000000E+04  0.10000000000E+01 0.  0.
    9000001    1    1    2    0    0  0.35570193633E+04  0.66784684418E+02  0.54399588285E+04  0.65000000000E+04  0.10000000000E+01 0.  0.
    9000001    1    1    2    0    0 -0.35570193633E+04 -0.66784684418E+02 -0.54399588285E+04  0.65000000000E+04  0.10000000000E+01 0.  0.
</event>
<event>
 4    1  0.2195261E-006  0.1300000E+05  0.7957747E-01  0.1322471E+00
    9000001   -1    0    0    0    0  0.00000000000E+00  0.00000000000E+00  0.64999999231E+04  0.65000000000E+04  0.10000000000E+01 0.  0.
    9000001   -1    0    0    0    0 -0.00000000000E+00 -0.00000000000E+00 -0.64999999231E+04  0.65000000000E+04  0.10000000000E+01 0.  0.
    9000001    1    1    2    0    0  0.34686195769E+04 -0.32403893657E+04  0.44405578467E+04  0.65000000000E+04  0.10000000000E+01 0.  0.
    9000001    1    1    2    0    0 -0.34686195769E+04  0.32403893657E+04 -0.44405578467E+04  0.65000000000E+04  0.10000000000E+01 0.  0.
</event>
<event>
 4    1  0.2195261E-006  0.1300000E+05  0.7957747E-01  0.1322471E+00
    9000001   -1    0    0    0    0  0.00000000000E+00  0.00000000000E+00  0.64999999231E+04  0.65000000000E+04  0.10000000000E+01 0.  0.
    9000001   -1    0    0    0    0 -0.00000000000E+00 -0.00000000000E+00 -0.64999999231E+04  0.65000000000E+04  0.10000000000E+01 0.  0.
    9000001    1    1    2    0    0  0.49564167359E+04 -0.39630091476E+04 -0.14065882964E+04  0.65000000000E+04  0.10000000000E+01 0.  0.
    9000001    1    1    2    0    0 -0.49564167359E+04  0.39630091476E+04  0.14065882964E+04  0.65000000000E+04  0.10000000000E+01 0.  0.
</event>
<event>
 4    1  0.2195261E-006  0.1300000E+05  0.7957747E-01  0.1322471E+00
    9000001   -1    0    0    0    0  0.00000000000E+00  0.00000000000E+00  0.64999999231E+04  0.65000000000E+04  0.10000000000E+01 0.  0.
    9000001   -1    0    0    0    0 -0.00000000000E+00 -0.00000000000E+00 -0.64999999231E+04  0.65000000000E+04  0.10000000000E+01 0.  0.
    9000001    1    1    2    0    0 -0.16569386198E+04  0.13032179554E+04  0.61486727324E+04  0.65000000000E+04  0.10000000000E+01 0.  0.
    9000001    1    1    2    0    0  0.16569386198E+04 -0.13032179554E+04 -0.61486727324E+04  0.65000000000E+04  0.10000000000E+01 0.  0.
</event>
<event>
 4    1  0.2195261E-006  0.1300000E+05  0.7957747E-01  0.1322471E+00
    9000001   -1    0    0    0    0  0.00000000000E+00  0.00000000000E+00  0.64999999231E+04  0.65000000000E+04  0.10000000000E+01 0.  0.
    9000001   -1    0    0    0    0 -0.00000000000E+00 -0.00000000000E+00 -0.64999999231E+04  0.65000000000E+04  0.10000000000E+01 0.  0.
    9000001    1    1    2    0    0  0.41360738534E+04 -0.48524998621E+04  0.12633832227E+04  0.65000000000E+04  0.10000000000E+01 0.  0.
    9000001    1    1    2    0    0 -0.41360738534E+04  0.48524998621E+04 -0.12633832227E+04  0.65000000000E+04  0.10000000000E+01 0.  0.
</event>
<event>
 4    1  0.2195261E-006  0.1300000E+05  0.7957747E-01  0.1322471E+00
    9000001   -1    0    0    0    0  0.00000000000E+00  0.00000000000E+00  0.64999999231E+04  0.65000000000E+04  0.10000000000E+01 0.  0.
    9000001   -1    0    0    0    0 -0.00000000000E+00 -0.00000000000E+00 -0.64999999231E+04  0.65000000000E+04  0.10000000000E+01 0.  0.
    9000001    1    1    2    0    0  0.23272744295E+04 -0.57687552026E+04  0.18855386875E+04  0.65000000000E+04  0.10000000000E+01 0.  0.
    9000001    1    1    2    0    0 -0.23272744295E+04  0.57687552026E+04 -0.18855386875E+04  0.65000000000E+04  0.10000000000E+01 0.  0.
</event>
<event>
 4    1  0.2195261E-006  0.1300000E+05  0.7957747E-01  0.1322471E+00
    9000001   -1    0    0    0    0  0.00000000000E+00  0.00000000000E+00  0.64999999231E+04  0.65000000000E+04  0.10000000000E+01 0.  0.
    9000001   -1    0    0    0    0 -0.00000000000E+00 -0.00000000000E+00 -0.64999999231E+04  0.65000000000E+04  0.10000000000E+01 0.  0.
    9000001    1    1    2    0    0  0.17850326620E+04 -0.61685984188E+04  0.10060074270E+04  0.65000000000E+04  0.10000000000E+01 0.  0.
    9000001    1    1    2    0    0 -0.17850326620E+04  0.61685984188E+04 -0.10060074270E+04  0.65000000000E+04  0.10000000000E+01 0.  0.
</event>
<event>
 4    1  0.2195261E-006  0.1300000E+05  0.7957747E-01  0.1322471E+00
    9000001   -1    0    0    0    0  0.00000000000E+00  0.00000000000E+00  0.64999999231E+04  0.65000000000E+04  0.10000000000E+01 0.  0.
    9000001   -1    0    0    0    0 -0.00000000000E+00 -0.00000000000E+00 -0.64999999231E+04  0.65000000000E+04  0.10000000000E+01 0.  0.
    9000001    1    1    2    0    0  0.18903272485E+04 -0.56910491754E+04  0.25077123393E+04  0.65000000000E+04  0.10000000000E+01 0.  0.
    9000001    1    1    2    0    0 -0.18903272485E+04  0.56910491754E+04 -0.25077123393E+04  0.65000000000E+04  0.10000000000E+01 0.  0.
</event>
<event>
 4    1  0.2195261E-006  0.1300000E+05  0.7957747E-01  0.1322471E+00
    9000001   -1    0    0    0    0  0.00000000000E+00  0.00000000000E+00  0.64999999231E+04  0.65000000000E+04  0.10000000000E+01 0.  0.
    9000001   -1    0    0    0    0 -0.00000000000E+00 -0.00000000000E+00 -0.64999999231E+04  0.65000000000E+04  0.10000000000E+01 0.  0.
    9000001    1    1    2    0    0 -0.15923943578E+03 -0.25039482601E+04 -0.59962392308E+04  0.65000000000E+04  0.10000000000E+01 0.  0.
    9000001    1    1    2    0    0  0.15923943578E+03  0.25039482601E+04  0.59962392308E+04  0.65000000000E+04  0.10000000000E+01 0.  0.
</event>
<event>
 4    1  0.2195261E-006  0.1300000E+05  0.7957747E-01  0.1322471E+00
    9000001   -1    0    0    0    0  0.00000000000E+00  0.00000000000E+00  0.64999999231E+04  0.65000000000E+04  0.10000000000E+01 0.  0.
    9000001   -1    0    0    0    0 -0.00000000000E+00 -0.00000000000E+00 -0.64999999231E+04  0.65000000000E+04  0.10000000000E+01 0.  0.
    9000001    1    1    2    0    0  0.29711002353E+04  0.57806276903E+04 -0.83101734710E+02  0.65000000000E+04  0.10000000000E+01 0.  0.
    9000001    1    1    2    0    0 -0.29711002353E+04 -0.57806276903E+04  0.83101734710E+02  0.65000000000E+04  0.10000000000E+01 0.  0.
</event>
<event>
 4    1  0.2195261E-006  0.1300000E+05  0.7957747E-01  0.1322471E+00
    9000001   -1    0    0    0    0  0.00000000000E+00  0.00000000000E+00  0.64999999231E+04  0.65000000000E+04  0.10000000000E+01 0.  0.
    9000001   -1    0    0    0    0 -0.00000000000E+00 -0.00000000000E+00 -0.64999999231E+04  0.65000000000E+04  0.10000000000E+01 0.  0.
    9000001    1    1    2    0    0  0.17273422397E+04  0.54529011759E+04  0.30874190762E+04  0.65000000000E+04  0.10000000000E+01 0.  0.
    9000001    1    1    2    0    0 -0.17273422397E+04 -0.54529011759E+04 -0.30874190762E+04  0.65000000000E+04  0.10000000000E+01 0.  0.
</event>
<event>
 4    1  0.2195261E-006  0.1300000E+05  0.7957747E-01  0.1322471E+00
    9000001   -1    0    0    0    0  0.00000000000E+00  0.00000000000E+00  0.64999999231E+04  0.65000000000E+04  0.10000000000E+01 0.  0.
    9000001   -1    0    0    0    0 -0.00000000000E+00 -0.00000000000E+00 -0.64999999231E+04  0.65000000000E+04  0.10000000000E+01 0.  0.
    9000001    1    1    2    0    0 -0.50904633345E+04 -0.25406522636E+04 -0.31436075002E+04  0.65000000000E+04  0.10000000000E+01 0.  0.
    9000001    1    1    2    0    0  0.50904633345E+04  0.25406522636E+04  0.31436075002E+04  0.65000000000E+04  0.10000000000E+01 0.  0.
</event>
<event>
 4    1  0.2195261E-006  0.1300000E+05  0.7957747E-01  0.1322471E+00
    9000001   -1    0    0    0    0  0.00000000000E+00  0.00000000000E+00  0.64999999231E+04  0.65000000000E+04  0.10000000000E+01 0.  0.
    9000001   -1    0    0    0    0 -0.00000000000E+00 -0.00000000000E+00 -0.64999999231E+04  0.65000000000E+04  0.10000000000E+01 0.  0.
    9000001    1    1    2    0    0  0.20057777563E+04 -0.18384266443E+04  0.59031383234E+04  0.65000000000E+04  0.10000000000E+01 0.  0.
    9000001    1    1    2    0    0 -0.20057777563E+04  0.18384266443E+04 -0.59031383234E+04  0.65000000000E+04  0.10000000000E+01 0.  0.
</event>
<event>
 4    1  0.2195261E-006  0.1300000E+05  0.7957747E-01  0.1322471E+00
    9000001   -1    0    0    0    0  0.00000000000E+00  0.00000000000E+00  0.64999999231E+04  0.65000000000E+04  0.10000000000E+01 0.  0.
    9000001   -1    0    0    0    0 -0.00000000000E+00 -0.00000000000E+00 -0.64999999231E+04  0.65000000000E+04  0.10000000000E+01 0.  0.
    9000001    1    1    2    0    0  0.44188020871E+04  0.27620528694E+04  0.38852607457E+04  0.65000000000E+04  0.10000000000E+01 0.  0.
    9000001    1    1    2    0    0 -0.44188020871E+04 -0.27620528694E+04 -0.38852607457E+04  0.65000000000E+04  0.10000000000E+01 0.  0.
</event>
<event>
 4    1  0.2195261E-006  0.1300000E+05  0.7957747E-01  0.1322471E+00
    9000001   -1    0    0    0    0  0.00000000000E+00  0.00000000000E+00  0.64999999231E+04  0.65000000000E+04  0.10000000000E+01 0.  0.
    9000001   -1    0    0    0    0 -0.00000000000E+00 -0.00000000000E+00 -0.64999999231E+04  0.65000000000E+04  0.10000000000E+01 0.  0.
    9000001    1    1    2    0    0  0.17219644304E+04  0.43027140830E+04  0.45575749056E+04  0.65000000000E+04  0.10000000000E+01 0.  0.
    9000001    1    1    2    0    0 -0.17219644304E+04 -0.43027140830E+04 -0.45575749056E+04  0.65000000000E+04  0.10000000000E+01 0.  0.
</event>
<event>
 4    1  0.2195261E-006  0.1300000E+05  0.7957747E-01  0.1322471E+00
    9000001   -1    0    0    0    0  0.00000000000E+00  0.00000000000E+00  0.64999999231E+04  0.65000000000E+04  0.10000000000E+01 0.  0.
    9000001   -1    0    0    0    0 -0.00000000000E+00 -0.00000000000E+00 -0.64999999231E+04  0.65000000000E+04  0.10000000000E+01 0.  0.
    9000001    1    1    2    0    0  0.61763976919E+04 -0.14883102033E+04 -0.13736969427E+04  0.65000000000E+04  0.10000000000E+01 0.  0.
    9000001    1    1    2    0    0 -0.61763976919E+04  0.14883102033E+04  0.13736969427E+04  0.65000000000E+04  0.10000000000E+01 0.  0.
</event>
<event>
 4    1  0.2195261E-006  0.1300000E+05  0.7957747E-01  0.1322471E+00
    9000001   -1    0    0    0    0  0.00000000000E+00  0.00000000000E+00  0.64999999231E+04  0.65000000000E+04  0.10000000000E+01 0.  0.
    9000001   -1    0    0    0    0 -0.00000000000E+00 -0.00000000000E+00 -0.64999999231E+04  0.65000000000E+04  0.10000000000E+01 0.  0.
    9000001    1    1    2    0    0 -0.12575744857E+04  0.31879837343E+04 -0.55231571698E+04  0.65000000000E+04  0.10000000000E+01 0.  0.
    9000001    1    1    2    0    0  0.12575744857E+04 -0.31879837343E+04  0.55231571698E+04  0.65000000000E+04  0.10000000000E+01 0.  0.
</event>
<event>
 4    1  0.2195261E-006  0.1300000E+05  0.7957747E-01  0.1322471E+00
    9000001   -1    0    0    0    0  0.00000000000E+00  0.00000000000E+00  0.64999999231E+04  0.65000000000E+04  0.10000000000E+01 0.  0.
    9000001   -1    0    0    0    0 -0.00000000000E+00 -0.00000000000E+00 -0.64999999231E+04  0.65000000000E+04  0.10000000000E+01 0.  0.
    9000001    1    1    2    0    0  0.40944737918E+04  0.50145153799E+04  0.58302561960E+03  0.65000000000E+04  0.10000000000E+01 0.  0.
    9000001    1    1    2    0    0 -0.40944737918E+04 -0.50145153799E+04 -0.58302561960E+03  0.65000000000E+04  0.10000000000E+01 0.  0.
</event>
<event>
 4    1  0.2195261E-006  0.1300000E+05  0.7957747E-01  0.1322471E+00
    9000001   -1    0    0    0    0  0.00000000000E+00  0.00000000000E+00  0.64999999231E+04  0.65000000000E+04  0.10000000000E+01 0.  0.
    9000001   -1    0    0    0    0 -0.00000000000E+00 -0.00000000000E+00 -0.64999999231E+04  0.65000000000E+04  0.10000000000E+01 0.  0.
    9000001    1    1    2    0    0 -0.32522543718E+03  0.81078834311E+03  0.64410286195E+04  0.65000000000E+04  0.10000000000E+01 0.  0.
    9000001    1    1    2    0    0  0.32522543718E+03 -0.81078834311E+03 -0.64410286195E+04  0.65000000000E+04  0.10000000000E+01 0.  0.
</event>
<event>
 4    1  0.2195261E-006  0.1300000E+05  0.7957747E-01  0.1322471E+00
    9000001   -1    0    0    0    0  0.00000000000E+00  0.00000000000E+00  0.64999999231E+04  0.65000000000E+04  0.10000000000E+01 0.  0.
    9000001   -1    0    0    0    0 -0.00000000000E+00 -0.00000000000E+00 -0.64999999231E+04  0.65000000000E+04  0.10000000000E+01 0.  0.
    9000001    1    1    2    0    0  0.58609312769E+04  0.26204116928E+04 -0.10163297337E+04  0.65000000000E+04  0.10000000000E+01 0.  0.
    9000001    1    1    2    0    0 -0.58609312769E+04 -0.26204116928E+04  0.10163297337E+04  0.65000000000E+04  0.10000000000E+01 0.  0.
</event>
<event>
 4    1  0.2195261E-006  0.1300000E+05  0.7957747E-01  0.1322471E+00
    9000001   -1    0    0    0    0  0.00000000000E+00  0.00000000000E+00  0.64999999231E+04  0.65000000000E+04  0.10000000000E+01 0.  0.
    9000001   -1    0    0    0    0 -0.00000000000E+00 -0.00000000000E+00 -0.64999999231E+04  0.65000000000E+04  0.10000000000E+01 0.  0.
    9000001    1    1    2    0    0 -0.18738318393E+04  0.27602715888E+03  0.62179226632E+04  0.65000000000E+04  0.10000000000E+01 0.  0.
    9000001    1    1    2    0    0  0.18738318393E+04 -0.27602715888E+03 -0.62179226632E+04  0.65000000000E+04  0.10000000000E+01 0.  0.
</event>
<event>
 4    1  0.2195261E-006  0.1300000E+05  0.7957747E-01  0.1322471E+00
    9000001   -1    0    0    0    0  0.00000000000E+00  0.00000000000E+00  0.64999999231E+04  0.65000000000E+04  0.10000000000E+01 0.  0.
    9000001   -1    0    0    0    0 -0.00000000000E+00 -0.00000000000E+00 -0.64999999231E+04  0.65000000000E+04  0.10000000000E+01 0.  0.
    9000001    1    1    2    0    0 -0.14427369516E+04  0.61381790607E+04 -0.15783747678E+04  0.65000000000E+04  0.10000000000E+01 0.  0.
    9000001    1    1    2    0    0  0.14427369516E+04 -0.61381790607E+04  0.15783747678E+04  0.65000000000E+04  0.10000000000E+01 0.  0.
</event>
<event>
 4    1  0.2195261E-006  0.1300000E+05  0.7957747E-01  0.1322471E+00
    9000001   -1    0    0    0    0  0.00000000000E+00  0.00000000000E+00  0.64999999231E+04  0.65000000000E+04  0.10000000000E+01 0.  0.
    9000001   -1    0    0    0    0 -0.00000000000E+00 -0.00000000000E+00 -0.64999999231E+04  0.65000000000E+04  0.10000000000E+01 0.  0.
    9000001    1    1    2    0    0 -0.57821411443E+03  0.29297254136E+04 -0.57734198218E+04  0.65000000000E+04  0.10000000000E+01 0.  0.
    9000001    1    1    2    0    0  0.57821411443E+03 -0.29297254136E+04  0.57734198218E+04  0.65000000000E+04  0.10000000000E+01 0.  0.
</event>
<event>
 4    1  0.2195261E-006  0.1300000E+05  0.7957747E-01  0.1322471E+00
    9000001   -1    0    0    0    0  0.00000000000E+00  0.00000000000E+00  0.64999999231E+04  0.65000000000E+04  0.10000000000E+01 0.  0.
    9000001   -1    0    0    0    0 -0.00000000000E+00 -0.00000000000E+00 -0.64999999231E+04  0.65000000000E+04  0.10000000000E+01 0.  0.
    9000001    1    1    2    0    0 -0.33616534740E+04 -0.55446187890E+04  0.45440885263E+03  0.65000000000E+04  0.10000000000E+01 0.  0.
    9000001    1    1    2    0    0  0.33616534740E+04  0.55446187890E+04 -0.45440885263E+03  0.65000000000E+04  0.10000000000E+01 0.  0.
</event>
<event>
 4    1  0.2195261E-006  0.1300000E+05  0.7957747E-01  0.1322471E+00
    9000001   -1    0    0    0    0  0.00000000000E+00  0.00000000000E+00  0.64999999231E+04  0.65000000000E+04  0.10000000000E+01 0.  0.
    9000001   -1    0    0    0    0 -0.00000000000E+00 -0.00000000000E+00 -0.64999999231E+04  0.65000000000E+04  0.10000000000E+01 0.  0.
    9000001    1    1    2    0    0 -0.33973980864E+04  0.35346396873E+04 -0.42677871928E+04  0.65000000000E+04  0.10000000000E+01 0.  0.
    9000001    1    1    2    0    0  0.33973980864E+04 -0.35346396873E+04  0.42677871928E+04  0.65000000000E+04  0.10000000000E+01 0.  0.
</event>
<event>
 4    1  0.2195261E-006  0.1300000E+05  0.7957747E-01  0.1322471E+00
    9000001   -1    0    0    0    0  0.00000000000E+00  0.00000000000E+00  0.64999999231E+04  0.65000000000E+04  0.10000000000E+01 0.  0.
    9000001   -1    0    0    0    0 -0.00000000000E+00 -0.00000000000E+00 -0.64999999231E+04  0.65000000000E+04  0.10000000000E+01 0.  0.
    9000001    1    1    2    0    0  0.61140820060E+04  0.59794732020E+03  0.21237841759E+04  0.65000000000E+04  0.10000000000E+01 0.  0.
    9000001    1    1    2    0    0 -0.61140820060E+04 -0.59794732020E+03 -0.21237841759E+04  0.65000000000E+04  0.10000000000E+01 0.  0.
</event>
<event>
 4    1  0.2195261E-006  0.1300000E+05  0.7957747E-01  0.1322471E+00
    9000001   -1    0    0    0    0  0.00000000000E+00  0.00000000000E+00  0.64999999231E+04  0.65000000000E+04  0.10000000000E+01 0.  0.
    9000001   -1    0    0    0    0 -0.00000000000E+00 -0.00000000000E+00 -0.64999999231E+04  0.65000000000E+04  0.10000000000E+01 0.  0.
    9000001    1    1    2    0    0  0.16381128005E+04  0.11191857421E+04  0.61898310742E+04  0.65000000000E+04  0.10000000000E+01 0.  0.
    9000001    1    1    2    0    0 -0.16381128005E+04 -0.11191857421E+04 -0.61898310742E+04  0.65000000000E+04  0.10000000000E+01 0.  0.
</event>
<event>
 4    1  0.2195261E-006  0.1300000E+05  0.7957747E-01  0.1322471E+00
    9000001   -1    0    0    0    0  0.00000000000E+00  0.00000000000E+00  0.64999999231E+04  0.65000000000E+04  0.10000000000E+01 0.  0.
    9000001   -1    0    0    0    0 -0.00000000000E+00 -0.00000000000E+00 -0.64999999231E+04  0.65000000000E+04  0.10000000000E+01 0.  0.
    9000001    1    1    2    0    0  0.18219668302E+04  0.30558318814E+04 -0.54398830302E+04  0.65000000000E+04  0.10000000000E+01 0.  0.
    9000001    1    1    2    0    0 -0.18219668302E+04 -0.30558318814E+04  0.54398830302E+04  0.65000000000E+04  0.10000000000E+01 0.  0.
</event>
<event>
 4    1  0.2195261E-006  0.1300000E+05  0.7957747E-01  0.1322471E+00
    9000001   -1    0    0    0    0  0.00000000000E+00  0.00000000000E+00  0.64999999231E+04  0.65000000000E+04  0.10000000000E+01 0.  0.
    9000001   -1    0    0    0    0 -0.00000000000E+00 -0.00000000000E+00 -0.64999999231E+04  0.65000000000E+04  0.10000000000E+01 0.  0.
    9000001    1    1    2    0    0 -0.47316449966E+04  0.40747294016E+04 -0.18050249111E+04  0.65000000000E+04  0.10000000000E+01 0.  0.
    9000001    1    1    2    0    0  0.47316449966E+04 -0.40747294016E+04  0.18050249111E+04  0.65000000000E+04  0.10000000000E+01 0.  0.
</event>
<event>
 4    1  0.2195261E-006  0.1300000E+05  0.7957747E-01  0.1322471E+00
    9000001   -1    0    0    0    0  0.00000000000E+00  0.00000000000E+00  0.64999999231E+04  0.65000000000E+04  0.10000000000E+01 0.  0.
    9000001   -1    0    0    0    0 -0.00000000000E+00 -0.00000000000E+00 -0.64999999231E+04  0.65000000000E+04  0.10000000000E+01 0.  0.
    9000001    1    1    2    0    0  0.64028142664E+04 -0.58968783910E+03  0.95196466468E+03  0.65000000000E+04  0.10000000000E+01 0.  0.
    9000001    1    1    2    0    0 -0.64028142664E+04  0.58968783910E+03 -0.95196466468E+03  0.65000000000E+04  0.10000000000E+01 0.  0.
</event>
<event>
 4    1  0.2195261E-006  0.1300000E+05  0.7957747E-01  0.1322471E+00
    9000001   -1    0    0    0    0  0.00000000000E+00  0.00000000000E+00  0.64999999231E+04  0.65000000000E+04  0.10000000000E+01 0.  0.
    9000001   -1    0    0    0    0 -0.00000000000E+00 -0.00000000000E+00 -0.64999999231E+04  0.65000000000E+04  0.10000000000E+01 0.  0.
    9000001    1    1    2    0    0  0.61517054883E+04  0.20163817055E+04  0.58371517282E+03  0.65000000000E+04  0.10000000000E+01 0.  0.
    9000001    1    1    2    0    0 -0.61517054883E+04 -0.20163817055E+04 -0.58371517282E+03  0.65000000000E+04  0.10000000000E+01 0.  0.
</event>
<event>
 4    1  0.2195261E-006  0.1300000E+05  0.7957747E-01  0.1322471E+00
    9000001   -1    0    0    0    0  0.00000000000E+00  0.00000000000E+00  0.64999999231E+04  0.65000000000E+04  0.10000000000E+01 0.  0.
    9000001   -1    0    0    0    0 -0.00000000000E+00 -0.00000000000E+00 -0.64999999231E+04  0.65000000000E+04  0.10000000000E+01 0.  0.
    9000001    1    1    2    0    0 -0.41053790462E+04 -0.49462712103E+04 -0.96450142626E+03  0.65000000000E+04  0.10000000000E+01 0.  0.
    9000001    1    1    2    0    0  0.41053790462E+04  0.49462712103E+04  0.96450142626E+03  0.65000000000E+04  0.10000000000E+01 0.  0.
</event>
<event>
 4    1  0.2195261E-006  0.1300000E+05  0.7957747E-01  0.1322471E+00
    9000001   -1    0    0    0    0  0.00000000000E+00  0.00000000000E+00  0.64999999231E+04  0.65000000000E+04  0.10000000000E+01 0.  0.
    9000001   -1    0    0    0    0 -0.00000000000E+00 -0.00000000000E+00 -0.64999999231E+04  0.65000000000E+04  0.10000000000E+01 0.  0.
    9000001    1    1    2    0    0 -0.43088513004E+04  0.45060498376E+04  0.18382911447E+04  0.65000000000E+04  0.10000000000E+01 0.  0.
    9000001    1    1    2    0    0  0.43088513004E+04 -0.45060498376E+04 -0.18382911447E+04  0.65000000000E+04  0.10000000000E+01 0.  0.
</event>
<event>
 4    1  0.2195261E-006  0.1300000E+05  0.7957747E-01  0.1322471E+00
    9000001   -1    0    0    0    0  0.00000000000E+00  0.00000000000E+00  0.64999999231E+04  0.65000000000E+04  0.10000000000E+01 0.  0.
    9000001   -1    0    0    0    0 -0.00000000000E+00 -0.00000000000E+00 -0.64999999231E+04  0.65000000000E+04  0.10000000000E+01 0.  0.
    9000001    1    1    2    0    0 -0.32118258129E+04 -0.30386318707E+04  0.47645451306E+04  0.65000000000E+04  0.10000000000E+01 0.  0.
    9000001    1    1    2    0    0  0.32118258129E+04  0.30386318707E+04 -0.47645451306E+04  0.65000000000E+04  0.10000000000E+01 0.  0.
</event>
<event>
 4    1  0.2195261E-006  0.1300000E+05  0.7957747E-01  0.1322471E+00
    9000001   -1    0    0    0    0  0.00000000000E+00  0.00000000000E+00  0.64999999231E+04  0.65000000000E+04  0.10000000000E+01 0.  0.
    9000001   -1    0    0    0    0 -0.00000000000E+00 -0.00000000000E+00 -0.64999999231E+04  0.65000000000E+04  0.10000000000E+01 0.  0.
    9000001    1    1    2    0    0  0.55144355245E+04  0.17882794820E+04  0.29399075395E+04  0.65000000000E+04  0.10000000000E+01 0.  0.
    9000001    1    1    2    0    0 -0.55144355245E+04 -0.17882794820E+04 -0.29399075395E+04  0.65000000000E+04  0.10000000000E+01 0.  0.
</event>
<event>
 4    1  0.2195261E-006  0.1300000E+05  0.7957747E-01  0.1322471E+00
    9000001   -1    0    0    0    0  0.00000000000E+00  0.00000000000E+00  0.64999999231E+04  0.65000000000E+04  0.10000000000E+01 0.  0.
    9000001   -1    0    0    0    0 -0.00000000000E+00 -0.00000000000E+00 -0.64999999231E+04  0.65000000000E+04  0.10000000000E+01 0.  0.
    9000001    1    1    2    0    0 -0.77103664544E+02 -0.35670738364E+03 -0.64897468261E+04  0.65000000000E+04  0.10000000000E+01 0.  0.
    9000001    1    1    2    0    0  0.77103664544E+02  0.35670738364E+03  0.64897468261E+04  0.65000000000E+04  0.10000000000E+01 0.  0.
</event>
<event>
 4    1  0.2195261E-006  0.1300000E+05  0.7957747E-01  0.1322471E+00
    9000001   -1    0    0    0    0  0.00000000000E+00  0.00000000000E+00  0.64999999231E+04  0.65000000000E+04  0.10000000000E+01 0.  0.
    9000001   -1    0    0    0    0 -0.00000000000E+00 -0.00000000000E+00 -0.64999999231E+04  0.65000000000E+04  0.10000000000E+01 0.  0.
    9000001    1    1    2    0    0  0.52143745879E+04 -0.22250240946E+04  0.31795541253E+04  0.65000000000E+04  0.10000000000E+01 0.  0.
    9000001    1    1    2    0    0 -0.52143745879E+04  0.22250240946E+04 -0.31795541253E+04  0.65000000000E+04  0.10000000000E+01 0.  0.
</event>
<event>
 4    1  0.2195261E-006  0.1300000E+05  0.7957747E-01  0.1322471E+00
    9000001   -1    0    0    0    0  0.00000000000E+00  0.00000000000E+00  0.64999999231E+04  0.65000000000E+04  0.10000000000E+01 0.  0.
    9000001   -1    0    0    0    0 -0.00000000000E+00 -0.00000000000E+00 -0.64999999231E+04  0.65000000000E+04  0.10000000000E+01 0.  0.
    9000001    1    1    2    0    0 -0.28692989825E+04  0.47364667366E+04  0.34033814364E+04  0.65000000000E+04  0.10000000000E+01 0.  0.
    9000001    1    1    2    0    0  0.28692989825E+04 -0.47364667366E+04 -0.34033814364E+04  0.65000000000E+04  0.10000000000E+01 0.  0.
</event>
<event>
 4    1  0.2195261E-006  0.1300000E+05  0.7957747E-01  0.1322471E+00
    9000001   -1    0    0    0    0  0.00000000000E+00  0.00000000000E+00  0.64999999231E+04  0.65000000000E+04  0.10000000000E+01 0.  0.
    9000001   -1    0    0    0    0 -0.00000000000E+00 -0.00000000000E+00 -0.64999999231E+04  0.65000000000E+04  0.10000000000E+01 0.  0.
    9000001    1    1    2    0    0  0.37935590948E+04  0.45124352243E+04 -0.27380351971E+04  0.65000000000E+04  0.10000000000E+01 0.  0.
    9000001    1    1    2    0    0 -0.37935590948E+04 -0.45124352243E+04  0.27380351971E+04  0.65000000000E+04  0.10000000000E+01 0.  0.
</event>
<event>
 4    1  0.2195261E-006  0.1300000E+05  0.7957747E-01  0.1322471E+00
    9000001   -1    0    0    0    0  0.00000000000E+00  0.00000000000E+00  0.64999999231E+04  0.65000000000E+04  0.10000000000E+01 0.  0.
    9000001   -1    0    0    0    0 -0.00000000000E+00 -0.00000000000E+00 -0.64999999231E+04  0.65000000000E+04  0.10000000000E+01 0.  0.
    9000001    1    1    2    0    0  0.16666406984E+04  0.62826464162E+04 -0.25725303460E+02  0.65000000000E+04  0.10000000000E+01 0.  0.
    9000001    1    1    2    0    0 -0.16666406984E+04 -0.62826464162E+04  0.25725303460E+02  0.65000000000E+04  0.10000000000E+01 0.  0.
</event>
<event>
 4    1  0.2195261E-006  0.1300000E+05  0.7957747E-01  0.1322471E+00
    9000001   -1    0    0    0    0  0.00000000000E+00  0.00000000000E+00  0.64999999231E+04  0.65000000000E+04  0.10000000000E+01 0.  0.
    9000001   -1    0    0    0    0 -0.00000000000E+00 -0.00000000000E+00 -0.64999999231E+04  0.65000000000E+04  0.10000000000E+01 0.  0.
    9000001    1    1    2    0    0 -0.45558356547E+04 -0.44773522861E+04 -0.12031944951E+04  0.65000000000E+04  0.10000000000E+01 0.  0.
    9000001    1    1    2    0    0  0.45558356547E+04  0.44773522861E+04  0.12031944951E+04  0.65000000000E+04  0.10000000000E+01 0.  0.
</event>
<event>
 4    1  0.2195261E-006  0.1300000E+05  0.7957747E-01  0.1322471E+00
    9000001   -1    0    0    0    0  0.00000000000E+00  0.00000000000E+00  0.64999999231E+04  0.65000000000E+04  0.10000000000E+01 0.  0.
    9000001   -1    0    0    0    0 -0.00000000000E+00 -0.00000000000E+00 -0.64999999231E+04  0.65000000000E+04  0.10000000000E+01 0.  0.
    9000001    1    1    2    0    0 -0.39383934788E+04  0.28831982672E+04 -0.42925777289E+04  0.65000000000E+04  0.10000000000E+01 0.  0.
    9000001    1    1    2    0    0  0.39383934788E+04 -0.28831982672E+04  0.42925777289E+04  0.65000000000E+04  0.10000000000E+01 0.  0.
</event>
<event>
 4    1  0.2195261E-006  0.1300000E+05  0.7957747E-01  0.1322471E+00
    9000001   -1    0    0    0    0  0.00000000000E+00  0.00000000000E+00  0.64999999231E+04  0.65000000000E+04  0.10000000000E+01 0.  0.
    9000001   -1    0    0    0    0 -0.00000000000E+00 -0.00000000000E+00 -0.64999999231E+04  0.65000000000E+04  0.10000000000E+01 0.  0.
    9000001    1    1    2    0    0 -0.22985342208E+04 -0.59688536182E+04  0.11573789010E+04  0.65000000000E+04  0.10000000000E+01 0.  0.
    9000001    1    1    2    0    0  0.22985342208E+04  0.59688536182E+04 -0.11573789010E+04  0.65000000000E+04  0.10000000000E+01 0.  0.
</event>
<event>
 4    1  0.2195261E-006  0.1300000E+05  0.7957747E-01  0.1322471E+00
    9000001   -1    0    0    0    0  0.00000000000E+00  0.00000000000E+00  0.64999999231E+04  0.65000000000E+04  0.10000000000E+01 0.  0.
    9000001   -1    0    0    0    0 -0.00000000000E+00 -0.00000000000E+00 -0.64999999231E+04  0.65000000000E+04  0.10000000000E+01 0.  0.
    9000001    1    1    2    0    0  0.16636493247E+04  0.53513373942E+04  0.32932442998E+04  0.65000000000E+04  0.10000000000E+01 0.  0.
    9000001    1    1    2    0    0 -0.16636493247E+04 -0.53513373942E+04 -0.32932442998E+04  0.65000000000E+04  0.10000000000E+01 0.  0.
</event>
<event>
 4    1  0.2195261E-006  0.1300000E+05  0.7957747E-01  0.1322471E+00
    9000001   -1    0    0    0    0  0.00000000000E+00  0.00000000000E+00  0.64999999231E+04  0.65000000000E+04  0.10000000000E+01 0.  0.
    9000001   -1    0    0    0    0 -0.00000000000E+00 -0.00000000000E+00 -0.64999999231E+04  0.65000000000E+04  0.10000000000E+01 0.  0.
    9000001    1    1    2    0    0  0.38626846236E+04  0.23217498311E+04 -0.46839240195E+04  0.65000000000E+04  0.10000000000E+01 0.  0.
    9000001    1    1    2    0    0 -0.38626846236E+04 -0.23217498311E+04  0.46839240195E+04  0.65000000000E+04  0.10000000000E+01 0.  0.
</event>
<event>
 4    1  0.2195261E-006  0.1300000E+05  0.7957747E-01  0.1322471E+00
    9000001   -1    0    0    0    0  0.00000000000E+00  0.00000000000E+00  0.64999999231E+04  0.65000000000E+04  0.10000000000E+01 0.  0.
    9000001   -1    0    0    0    0 -0.00000000000E+00 -0.00000000000E+00 -0.64999999231E+04  0.65000000000E+04  0.10000000000E+01 0.  0.
    9000001    1    1    2    0    0  0.65729708278E+03 -0.63854967861E+04  0.10214648009E+04  0.65000000000E+04  0.10000000000E+01 0.  0.
    9000001    1    1    2    0    0 -0.65729708278E+03  0.63854967861E+04 -0.10214648009E+04  0.65000000000E+04  0.10000000000E+01 0.  0.
</event>
<event>
 4    1  0.2195261E-006  0.1300000E+05  0.7957747E-01  0.1322471E+00
    9000001   -1    0    0    0    0  0.00000000000E+00  0.00000000000E+00  0.64999999231E+04  0.65000000000E+04  0.10000000000E+01 0.  0.
    9000001   -1    0    0    0    0 -0.00000000000E+00 -0.00000000000E+00 -0.64999999231E+04  0.65000000000E+04  0.10000000000E+01 0.  0.
    9000001    1    1    2    0    0 -0.64775714098E+04  0.13284716522E+03 -0.52289507723E+03  0.65000000000E+04  0.10000000000E+01 0.  0.
    9000001    1    1    2    0    0  0.64775714098E+04 -0.13284716522E+03  0.52289507723E+03  0.65000000000E+04  0.10000000000E+01 0.  0.
</event>
<event>
 4    1  0.2195261E-006  0.1300000E+05  0.7957747E-01  0.1322471E+00
    9000001   -1    0    0    0    0  0.00000000000E+00  0.00000000000E+00  0.64999999231E+04  0.65000000000E+04  0.10000000000E+01 0.  0.
    9000001   -1    0    0    0    0 -0.00000000000E+00 -0.00000000000E+00 -0.64999999231E+04  0.65000000000E+04  0.10000000000E+01 0.  0.
    9000001    1    1    2    0    0 -0.42842957916E+04  0.16052648906E+04 -0.46171347393E+04  0.65000000000E+04  0.10000000000E+01 0.  0.
    9000001    1    1    2    0    0  0.42842957916E+04 -0.16052648906E+04  0.46171347393E+04  0.65000000000E+04  0.10000000000E+01 0.  0.
</event>
<event>
 4    1  0.2195261E-006  0.1300000E+05  0.7957747E-01  0.1322471E+00
    9000001   -1    0    0    0    0  0.00000000000E+00  0.00000000000E+00  0.64999999231E+04  0.65000000000E+04  0.10000000000E+01 0.  0.
    9000001   -1    0    0    0    0 -0.00000000000E+00 -0.00000000000E+00 -0.64999999231E+04  0.65000000000E+04  0.10000000000E+01 0.  0.
    9000001    1    1    2    0    0 -0.45435902803E+04  0.44581405771E+04  0.13155869259E+04  0.65000000000E+04  0.10000000000E+01 0.  0.
    9000001    1    1    2    0    0  0.45435902803E+04 -0.44581405771E+04 -0.13155869259E+04  0.65000000000E+04  0.10000000000E+01 0.  0.
</event>
<event>
 4    1  0.2195261E-006  0.1300000E+05  0.7957747E-01  0.1322471E+00
    9000001   -1    0    0    0    0  0.00000000000E+00  0.00000000000E+00  0.64999999231E+04  0.65000000000E+04  0.10000000000E+01 0.  0.
    9000001   -1    0    0    0    0 -0.00000000000E+00 -0.00000000000E+00 -0.64999999231E+04  0.65000000000E+04  0.10000000000E+01 0.  0.
    9000001    1    1    2    0    0 -0.18790474750E+04  0.61329648966E+04  0.10516278637E+04  0.65000000000E+04  0.10000000000E+01 0.  0.
    9000001    1    1    2    0    0  0.18790474750E+04 -0.61329648966E+04 -0.10516278637E+04  0.65000000000E+04  0.10000000000E+01 0.  0.
</event>
<event>
 4    1  0.2195261E-006  0.1300000E+05  0.7957747E-01  0.1322471E+00
    9000001   -1    0    0    0    0  0.00000000000E+00  0.00000000000E+00  0.64999999231E+04  0.65000000000E+04  0.10000000000E+01 0.  0.
    9000001   -1    0    0    0    0 -0.00000000000E+00 -0.00000000000E+00 -0.64999999231E+04  0.65000000000E+04  0.10000000000E+01 0.  0.
    9000001    1    1    2    0    0 -0.21028809299E+04  0.21365223869E+04 -0.57674225513E+04  0.65000000000E+04  0.10000000000E+01 0.  0.
    9000001    1    1    2    0    0  0.21028809299E+04 -0.21365223869E+04  0.57674225513E+04  0.65000000000E+04  0.10000000000E+01 0.  0.
</event>
<event>
 4    1  0.2195261E-006  0.1300000E+05  0.7957747E-01  0.1322471E+00
    9000001   -1    0    0    0    0  0.00000000000E+00  0.00000000000E+00  0.64999999231E+04  0.65000000000E+04  0.10000000000E+01 0.  0.
    9000001   -1    0    0    0    0 -0.00000000000E+00 -0.00000000000E+00 -0.64999999231E+04  0.65000000000E+04  0.10000000000E+01 0.  0.
    9000001    1    1    2    0    0  0.12865869595E+04  0.39359762339E+04  0.50102678653E+04  0.65000000000E+04  0.10000000000E+01 0.  0.
    9000001    1    1    2    0    0 -0.12865869595E+04 -0.39359762339E+04 -0.50102678653E+04  0.65000000000E+04  0.10000000000E+01 0.  0.
</event>
<event>
 4    1  0.2195261E-006  0.1300000E+05  0.7957747E-01  0.1322471E+00
    9000001   -1    0    0    0    0  0.00000000000E+00  0.00000000000E+00  0.64999999231E+04  0.65000000000E+04  0.10000000000E+01 0.  0.
    9000001   -1    0    0    0    0 -0.00000000000E+00 -0.00000000000E+00 -0.64999999231E+04  0.65000000000E+04  0.10000000000E+01 0.  0.
    9000001    1    1    2    0    0 -0.59404448073E+04  0.91204891521E+03 -0.24757385297E+04  0.65000000000E+04  0.10000000000E+01 0.  0.
    9000001    1    1    2    0    0  0.59404448073E+04 -0.91204891521E+03  0.24757385297E+04  0.65000000000E+04  0.10000000000E+01 0.  0.
</event>
<event>
 4    1  0.2195261E-006  0.1300000E+05  0.7957747E-01  0.1322471E+00
    9000001   -1    0    0    0    0  0.00000000000E+00  0.00000000000E+00  0.64999999231E+04  0.65000000000E+04  0.10000000000E+01 0.  0.
    9000001   -1    0    0    0    0 -0.00000000000E+00 -0.00000000000E+00 -0.64999999231E+04  0.65000000000E+04  0.10000000000E+01 0.  0.
    9000001    1    1    2    0    0 -0.40934905710E+04 -0.33922950161E+04 -0.37397417649E+04  0.65000000000E+04  0.10000000000E+01 0.  0.
    9000001    1    1    2    0    0  0.40934905710E+04  0.33922950161E+04  0.37397417649E+04  0.65000000000E+04  0.10000000000E+01 0.  0.
</event>
<event>
 4    1  0.2195261E-006  0.1300000E+05  0.7957747E-01  0.1322471E+00
    9000001   -1    0    0    0    0  0.00000000000E+00  0.00000000000E+00  0.64999999231E+04  0.65000000000E+04  0.10000000000E+01 0.  0.
    9000001   -1    0    0    0    0 -0.00000000000E+00 -0.00000000000E+00 -0.64999999231E+04  0.65000000000E+04  0.10000000000E+01 0.  0.
    9000001    1    1    2    0    0  0.62806851671E+04 -0.16555083320E+04 -0.24956961890E+03  0.65000000000E+04  0.10000000000E+01 0.  0.
    9000001    1    1    2    0    0 -0.62806851671E+04  0.16555083320E+04  0.24956961890E+03  0.65000000000E+04  0.10000000000E+01 0.  0.
</event>
<event>
 4    1  0.2195261E-006  0.1300000E+05  0.7957747E-01  0.1322471E+00
    9000001   -1    0    0    0    0  0.00000000000E+00  0.00000000000E+00  0.64999999231E+04  0.65000000000E+04  0.10000000000E+01 0.  0.
    9000001   -1    0    0    0    0 -0.00000000000E+00 -0.00000000000E+00 -0.64999999231E+04  0.65000000000E+04  0.10000000000E+01 0.  0.
    9000001    1    1    2    0    0  0.53662151949E+04 -0.36621486217E+04  0.20591492207E+03  0.65000000000E+04  0.10000000000E+01 0.  0.
    9000001    1    1    2    0    0 -0.53662151949E+04  0.36621486217E+04 -0.20591492207E+03  0.65000000000E+04  0.10000000000E+01 0.  0.
</event>
<event>
 4    1  0.2195261E-006  0.1300000E+05  0.7957747E-01  0.1322471E+00
    9000001   -1    0    0    0    0  0.00000000000E+00  0.00000000000E+00  0.64999999231E+04  0.65000000000E+04  0.10000000000E+01 0.  0.
    9000001   -1    0    0    0    0 -0.00000000000E+00 -0.00000000000E+00 -0.64999999231E+04  0.65000000000E+04  0.10000000000E+01 0.  0.
    9000001    1    1    2    0    0 -0.48471921665E+04 -0.38029775407E+04  0.20717357279E+04  0.65000000000E+04  0.10000000000E+01 0.  0.
    9000001    1    1    2    0    0  0.48471921665E+04  0.38029775407E+04 -0.20717357279E+04  0.65000000000E+04  0.10000000000E+01 0.  0.
</event>
<event>
 4    1  0.2195261E-006  0.1300000E+05  0.7957747E-01  0.1322471E+00
    9000001   -1    0    0    0    0  0.00000000000E+00  0.00000000000E+00  0.64999999231E+04  0.65000000000E+04  0.10000000000E+01 0.  0.
    9000001   -1    0    0    0    0 -0.00000000000E+00 -0.00000000000E+00 -0.64999999231E+04  0.65000000000E+04  0.10000000000E+01 0.  0.
    9000001    1    1    2    0    0 -0.27416638625E+04 -0.20822244699E+04 -0.55134036241E+04  0.65000000000E+04  0.10000000000E+01 0.  0.
    9000001    1    1    2    0    0  0.27416638625E+04  0.20822244699E+04  0.55134036241E+04  0.65000000000E+04  0.10000000000E+01 0.  0.
</event>
<event>
 4    1  0.2195261E-006  0.1300000E+05  0.7957747E-01  0.1322471E+00
    9000001   -1    0    0    0    0  0.00000000000E+00  0.00000000000E+00  0.64999999231E+04  0.65000000000E+04  0.10000000000E+01 0.  0.
    9000001   -1    0    0    0    0 -0.00000000000E+00 -0.00000000000E+00 -0.64999999231E+04  0.65000000000E+04  0.10000000000E+01 0.  0.
    9000001    1    1    2    0    0 -0.17514482207E+04 -0.62259164382E+04 -0.64837692375E+03  0.65000000000E+04  0.10000000000E+01 0.  0.
    9000001    1    1    2    0    0  0.17514482207E+04  0.62259164382E+04  0.64837692375E+03  0.65000000000E+04  0.10000000000E+01 0.  0.
</event>
<event>
 4    1  0.2195261E-006  0.1300000E+05  0.7957747E-01  0.1322471E+00
    9000001   -1    0    0    0    0  0.00000000000E+00  0.00000000000E+00  0.64999999231E+04  0.65000000000E+04  0.10000000000E+01 0.  0.
    9000001   -1    0    0    0    0 -0.00000000000E+00 -0.00000000000E+00 -0.64999999231E+04  0.65000000000E+04  0.10000000000E+01 0.  0.
    9000001    1    1    2    0    0 -0.30604031627E+04  0.23746405181E+04  0.52196756500E+04  0.65000000000E+04  0.10000000000E+01 0.  0.
    9000001    1    1    2    0    0  0.30604031627E+04 -0.23746405181E+04 -0.52196756500E+04  0.65000000000E+04  0.10000000000E+01 0.  0.
</event>
<event>
 4    1  0.2195261E-006  0.1300000E+05  0.7957747E-01  0.1322471E+00
    9000001   -1    0    0    0    0  0.00000000000E+00  0.00000000000E+00  0.64999999231E+04  0.65000000000E+04  0.10000000000E+01 0.  0.
    9000001   -1    0    0    0    0 -0.00000000000E+00 -0.00000000000E+00 -0.64999999231E+04  0.65000000000E+04  0.10000000000E+01 0.  0.
    9000001    1    1    2    0    0  0.29482971738E+04 -0.54593857435E+04  0.19371757996E+04  0.65000000000E+04  0.10000000000E+01 0.  0.
    9000001    1    1    2    0    0 -0.29482971738E+04  0.54593857435E+04 -0.19371757996E+04  0.65000000000E+04  0.10000000000E+01 0.  0.
</event>
<event>
 4    1  0.2195261E-006  0.1300000E+05  0.7957747E-01  0.1322471E+00
    9000001   -1    0    0    0    0  0.00000000000E+00  0.00000000000E+00  0.64999999231E+04  0.65000000000E+04  0.10000000000E+01 0.  0.
    9000001   -1    0    0    0    0 -0.00000000000E+00 -0.00000000000E+00 -0.64999999231E+04  0.65000000000E+04  0.10000000000E+01 0.  0.
    9000001    1    1    2    0    0  0.20732064847E+04 -0.49532953582E+04  0.36628785082E+04  0.65000000000E+04  0.10000000000E+01 0.  0.
    9000001    1    1    2    0    0 -0.20732064847E+04  0.49532953582E+04 -0.36628785082E+04  0.65000000000E+04  0.10000000000E+01 0.  0.
</event>
<event>
 4    1  0.2195261E-006  0.1300000E+05  0.7957747E-01  0.1322471E+00
    9000001   -1    0    0    0    0  0.00000000000E+00  0.00000000000E+00  0.64999999231E+04  0.65000000000E+04  0.10000000000E+01 0.  0.
    9000001   -1    0    0    0    0 -0.00000000000E+00 -0.00000000000E+00 -0.64999999231E+04  0.65000000000E+04  0.10000000000E+01 0.  0.
    9000001    1    1    2    0    0 -0.59593023416E+04  0.18711463629E+04  0.17987567625E+04  0.65000000000E+04  0.10000000000E+01 0.  0.
    9000001    1    1    2    0    0  0.59593023416E+04 -0.18711463629E+04 -0.17987567625E+04  0.65000000000E+04  0.10000000000E+01 0.  0.
</event>
<event>
 4    1  0.2195261E-006  0.1300000E+05  0.7957747E-01  0.1322471E+00
    9000001   -1    0    0    0    0  0.00000000000E+00  0.00000000000E+00  0.64999999231E+04  0.65000000000E+04  0.10000000000E+01 0.  0.
    9000001   -1    0    0    0    0 -0.00000000000E+00 -0.00000000000E+00 -0.64999999231E+04  0.65000000000E+04  0.10000000000E+01 0.  0.
    9000001    1    1    2    0    0 -0.17762360812E+04  0.58076520344E+04  0.23164978375E+04  0.65000000000E+04  0.10000000000E+01 0.  0.
    9000001    1    1    2    0    0  0.17762360812E+04 -0.58076520344E+04 -0.23164978375E+04  0.65000000000E+04  0.10000000000E+01 0.  0.
</event>
<event>
 4    1  0.2195261E-006  0.1300000E+05  0.7957747E-01  0.1322471E+00
    9000001   -1    0    0    0    0  0.00000000000E+00  0.00000000000E+00  0.64999999231E+04  0.65000000000E+04  0.10000000000E+01 0.  0.
    9000001   -1    0    0    0    0 -0.00000000000E+00 -0.00000000000E+00 -0.64999999231E+04  0.65000000000E+04  0.10000000000E+01 0.  0.
    9000001    1    1    2    0    0  0.18926672012E+04 -0.52685760797E+04 -0.33030161910E+04  0.65000000000E+04  0.10000000000E+01 0.  0.
    9000001    1    1    2    0    0 -0.18926672012E+04  0.52685760797E+04  0.33030161910E+04  0.65000000000E+04  0.10000000000E+01 0.  0.
</event>
<event>
 4    1  0.2195261E-006  0.1300000E+05  0.7957747E-01  0.1322471E+00
    9000001   -1    0    0    0    0  0.00000000000E+00  0.00000000000E+00  0.64999999231E+04  0.65000000000E+04  0.10000000000E+01 0.  0.
    9000001   -1    0    0    0    0 -0.00000000000E+00 -0.00000000000E+00 -0.64999999231E+04  0.65000000000E+04  0.10000000000E+01 0.  0.
    9000001    1    1    2    0    0  0.63977143553E+04 -0.27595910333E+03  0.11149424206E+04  0.65000000000E+04  0.10000000000E+01 0.  0.
    9000001    1    1    2    0    0 -0.63977143553E+04  0.27595910333E+03 -0.11149424206E+04  0.65000000000E+04  0.10000000000E+01 0.  0.
</event>
<event>
 4    1  0.2195261E-006  0.1300000E+05  0.7957747E-01  0.1322471E+00
    9000001   -1    0    0    0    0  0.00000000000E+00  0.00000000000E+00  0.64999999231E+04  0.65000000000E+04  0.10000000000E+01 0.  0.
    9000001   -1    0    0    0    0 -0.00000000000E+00 -0.00000000000E+00 -0.64999999231E+04  0.65000000000E+04  0.10000000000E+01 0.  0.
    9000001    1    1    2    0    0  0.39813496304E+04  0.28169376846E+04 -0.42969426575E+04  0.65000000000E+04  0.10000000000E+01 0.  0.
    9000001    1    1    2    0    0 -0.39813496304E+04 -0.28169376846E+04  0.42969426575E+04  0.65000000000E+04  0.10000000000E+01 0.  0.
</event>
<event>
 4    1  0.2195261E-006  0.1300000E+05  0.7957747E-01  0.1322471E+00
    9000001   -1    0    0    0    0  0.00000000000E+00  0.00000000000E+00  0.64999999231E+04  0.65000000000E+04  0.10000000000E+01 0.  0.
    9000001   -1    0    0    0    0 -0.00000000000E+00 -0.00000000000E+00 -0.64999999231E+04  0.65000000000E+04  0.10000000000E+01 0.  0.
    9000001    1    1    2    0    0  0.54300231743E+04 -0.89604749174E+03  0.34586046636E+04  0.65000000000E+04  0.10000000000E+01 0.  0.
    9000001    1    1    2    0    0 -0.54300231743E+04  0.89604749174E+03 -0.34586046636E+04  0.65000000000E+04  0.10000000000E+01 0.  0.
</event>
<event>
 4    1  0.2195261E-006  0.1300000E+05  0.7957747E-01  0.1322471E+00
    9000001   -1    0    0    0    0  0.00000000000E+00  0.00000000000E+00  0.64999999231E+04  0.65000000000E+04  0.10000000000E+01 0.  0.
    9000001   -1    0    0    0    0 -0.00000000000E+00 -0.00000000000E+00 -0.64999999231E+04  0.65000000000E+04  0.10000000000E+01 0.  0.
    9000001    1    1    2    0    0  0.18574660871E+04  0.44938297419E+04 -0.43133876462E+04  0.65000000000E+04  0.10000000000E+01 0.  0.
    9000001    1    1    2    0    0 -0.18574660871E+04 -0.44938297419E+04  0.43133876462E+04  0.65000000000E+04  0.10000000000E+01 0.  0.
</event>
<event>
 4    1  0.2195261E-006  0.1300000E+05  0.7957747E-01  0.1322471E+00
    9000001   -1    0    0    0    0  0.00000000000E+00  0.00000000000E+00  0.64999999231E+04  0.65000000000E+04  0.10000000000E+01 0.  0.
    9000001   -1    0    0    0    0 -0.00000000000E+00 -0.00000000000E+00 -0.64999999231E+04  0.65000000000E+04  0.10000000000E+01 0.  0.
    9000001    1    1    2    0    0 -0.10121319952E+04 -0.18910309244E+04 -0.61359261621E+04  0.65000000000E+04  0.10000000000E+01 0.  0.
    9000001    1    1    2    0    0  0.10121319952E+04  0.18910309244E+04  0.61359261621E+04  0.65000000000E+04  0.10000000000E+01 0.  0.
</event>
<event>
 4    1  0.2195261E-006  0.1300000E+05  0.7957747E-01  0.1322471E+00
    9000001   -1    0    0    0    0  0.00000000000E+00  0.00000000000E+00  0.64999999231E+04  0.65000000000E+04  0.10000000000E+01 0.  0.
    9000001   -1    0    0    0    0 -0.00000000000E+00 -0.00000000000E+00 -0.64999999231E+04  0.65000000000E+04  0.10000000000E+01 0.  0.
    9000001    1    1    2    0    0 -0.76446315471E+03  0.36674154156E+04 -0.53118414184E+04  0.65000000000E+04  0.10000000000E+01 0.  0.
    9000001    1    1    2    0    0  0.76446315471E+03 -0.36674154156E+04  0.53118414184E+04  0.65000000000E+04  0.10000000000E+01 0.  0.
</event>
<event>
 4    1  0.2195261E-006  0.1300000E+05  0.7957747E-01  0.1322471E+00
    9000001   -1    0    0    0    0  0.00000000000E+00  0.00000000000E+00  0.64999999231E+04  0.65000000000E+04  0.10000000000E+01 0.  0.
    9000001   -1    0    0    0    0 -0.00000000000E+00 -0.00000000000E+00 -0.64999999231E+04  0.65000000000E+04  0.10000000000E+01 0.  0.
    9000001    1    1    2    0    0  0.23963613062E+04 -0.60372805728E+04 -0.24227004579E+03  0.65000000000E+04  0.10000000000E+01 0.  0.
    9000001    1    1    2    0    0 -0.23963613062E+04  0.60372805728E+04  0.24227004579E+03  0.65000000000E+04  0.10000000000E+01 0.  0.
</event>
<event>
 4    1  0.2195261E-006  0.1300000E+05  0.7957747E-01  0.1322471E+00
    9000001   -1    0    0    0    0  0.00000000000E+00  0.00000000000E+00  0.64999999231E+04  0.65000000000E+04  0.10000000000E+01 0.  0.
    9000001   -1    0    0    0    0 -0.00000000000E+00 -0.00000000000E+00 -0.64999999231E+04  0.65000000000E+04  0.10000000000E+01 0.  0.
    9000001    1    1    2    0    0  0.30514884953E+04  0.99856673496E+03  0.56516618299E+04  0.65000000000E+04  0.10000000000E+01 0.  0.
    9000001    1    1    2    0    0 -0.30514884953E+04 -0.99856673496E+03 -0.56516618299E+04  0.65000000000E+04  0.10000000000E+01 0.  0.
</event>
<event>
 4    1  0.2195261E-006  0.1300000E+05  0.7957747E-01  0.1322471E+00
    9000001   -1    0    0    0    0  0.00000000000E+00  0.00000000000E+00  0.64999999231E+04  0.65000000000E+04  0.10000000000E+01 0.  0.
    9000001   -1    0    0    0    0 -0.00000000000E+00 -0.00000000000E+00 -0.64999999231E+04  0.65000000000E+04  0.10000000000E+01 0.  0.
    9000001    1    1    2    0    0 -0.47711302971E+04 -0.43260127279E+04 -0.87859465429E+03  0.65000000000E+04  0.10000000000E+01 0.  0.
    9000001    1    1    2    0    0  0.47711302971E+04  0.43260127279E+04  0.87859465429E+03  0.65000000000E+04  0.10000000000E+01 0.  0.
</event>
<event>
 4    1  0.2195261E-006  0.1300000E+05  0.7957747E-01  0.1322471E+00
    9000001   -1    0    0    0    0  0.00000000000E+00  0.00000000000E+00  0.64999999231E+04  0.65000000000E+04  0.10000000000E+01 0.  0.
    9000001   -1    0    0    0    0 -0.00000000000E+00 -0.00000000000E+00 -0.64999999231E+04  0.65000000000E+04  0.10000000000E+01 0.  0.
    9000001    1    1    2    0    0 -0.74210154345E+03 -0.64023468584E+04  0.84216328813E+03  0.65000000000E+04  0.10000000000E+01 0.  0.
    9000001    1    1    2    0    0  0.74210154345E+03  0.64023468584E+04 -0.84216328813E+03  0.65000000000E+04  0.10000000000E+01 0.  0.
</event>
<event>
 4    1  0.2195261E-006  0.1300000E+05  0.7957747E-01  0.1322471E+00
    9000001   -1    0    0    0    0  0.00000000000E+00  0.00000000000E+00  0.64999999231E+04  0.65000000000E+04  0.10000000000E+01 0.  0.
    9000001   -1    0    0    0    0 -0.00000000000E+00 -0.00000000000E+00 -0.64999999231E+04  0.65000000000E+04  0.10000000000E+01 0.  0.
    9000001    1    1    2    0    0  0.33565920653E+04  0.23554449516E+04  0.50433290382E+04  0.65000000000E+04  0.10000000000E+01 0.  0.
    9000001    1    1    2    0    0 -0.33565920653E+04 -0.23554449516E+04 -0.50433290382E+04  0.65000000000E+04  0.10000000000E+01 0.  0.
</event>
<event>
 4    1  0.2195261E-006  0.1300000E+05  0.7957747E-01  0.1322471E+00
    9000001   -1    0    0    0    0  0.00000000000E+00  0.00000000000E+00  0.64999999231E+04  0.65000000000E+04  0.10000000000E+01 0.  0.
    9000001   -1    0    0    0    0 -0.00000000000E+00 -0.00000000000E+00 -0.64999999231E+04  0.65000000000E+04  0.10000000000E+01 0.  0.
    9000001    1    1    2    0    0 -0.23870559448E+04 -0.45155778015E+04  0.40201393054E+04  0.65000000000E+04  0.10000000000E+01 0.  0.
    9000001    1    1    2    0    0  0.23870559448E+04  0.45155778015E+04 -0.40201393054E+04  0.65000000000E+04  0.10000000000E+01 0.  0.
</event>
<event>
 4    1  0.2195261E-006  0.1300000E+05  0.7957747E-01  0.1322471E+00
    9000001   -1    0    0    0    0  0.00000000000E+00  0.00000000000E+00  0.64999999231E+04  0.65000000000E+04  0.10000000000E+01 0.  0.
    9000001   -1    0    0    0    0 -0.00000000000E+00 -0.00000000000E+00 -0.64999999231E+04  0.65000000000E+04  0.10000000000E+01 0.  0.
    9000001    1    1    2    0    0  0.19754124198E+04  0.28454569263E+04 -0.55001017856E+04  0.65000000000E+04  0.10000000000E+01 0.  0.
    9000001    1    1    2    0    0 -0.19754124198E+04 -0.28454569263E+04  0.55001017856E+04  0.65000000000E+04  0.10000000000E+01 0.  0.
</event>
<event>
 4    1  0.2195261E-006  0.1300000E+05  0.7957747E-01  0.1322471E+00
    9000001   -1    0    0    0    0  0.00000000000E+00  0.00000000000E+00  0.64999999231E+04  0.65000000000E+04  0.10000000000E+01 0.  0.
    9000001   -1    0    0    0    0 -0.00000000000E+00 -0.00000000000E+00 -0.64999999231E+04  0.65000000000E+04  0.10000000000E+01 0.  0.
    9000001    1    1    2    0    0 -0.57441448828E+04  0.14172218912E+04 -0.26918916538E+04  0.65000000000E+04  0.10000000000E+01 0.  0.
    9000001    1    1    2    0    0  0.57441448828E+04 -0.14172218912E+04  0.26918916538E+04  0.65000000000E+04  0.10000000000E+01 0.  0.
</event>
<event>
 4    1  0.2195261E-006  0.1300000E+05  0.7957747E-01  0.1322471E+00
    9000001   -1    0    0    0    0  0.00000000000E+00  0.00000000000E+00  0.64999999231E+04  0.65000000000E+04  0.10000000000E+01 0.  0.
    9000001   -1    0    0    0    0 -0.00000000000E+00 -0.00000000000E+00 -0.64999999231E+04  0.65000000000E+04  0.10000000000E+01 0.  0.
    9000001    1    1    2    0    0 -0.28450280731E+03  0.54789699466E+04 -0.34856771906E+04  0.65000000000E+04  0.10000000000E+01 0.  0.
    9000001    1    1    2    0    0  0.28450280731E+03 -0.54789699466E+04  0.34856771906E+04  0.65000000000E+04  0.10000000000E+01 0.  0.
</event>
<event>
 4    1  0.2195261E-006  0.1300000E+05  0.7957747E-01  0.1322471E+00
    9000001   -1    0    0    0    0  0.00000000000E+00  0.00000000000E+00  0.64999999231E+04  0.65000000000E+04  0.10000000000E+01 0.  0.
    9000001   -1    0    0    0    0 -0.00000000000E+00 -0.00000000000E+00 -0.64999999231E+04  0.65000000000E+04  0.10000000000E+01 0.  0.
    9000001    1    1    2    0    0 -0.31883153454E+04  0.54312621716E+04  0.16081155062E+04  0.65000000000E+04  0.10000000000E+01 0.  0.
    9000001    1    1    2    0    0  0.31883153454E+04 -0.54312621716E+04 -0.16081155062E+04  0.65000000000E+04  0.10000000000E+01 0.  0.
</event>
<event>
 4    1  0.2195261E-006  0.1300000E+05  0.7957747E-01  0.1322471E+00
    9000001   -1    0    0    0    0  0.00000000000E+00  0.00000000000E+00  0.64999999231E+04  0.65000000000E+04  0.10000000000E+01 0.  0.
    9000001   -1    0    0    0    0 -0.00000000000E+00 -0.00000000000E+00 -0.64999999231E+04  0.65000000000E+04  0.10000000000E+01 0.  0.
    9000001    1    1    2    0    0  0.20683340198E+04 -0.19010300082E+04 -0.58615764339E+04  0.65000000000E+04  0.10000000000E+01 0.  0.
    9000001    1    1    2    0    0 -0.20683340198E+04  0.19010300082E+04  0.58615764339E+04  0.65000000000E+04  0.10000000000E+01 0.  0.
</event>
<event>
 4    1  0.2195261E-006  0.1300000E+05  0.7957747E-01  0.1322471E+00
    9000001   -1    0    0    0    0  0.00000000000E+00  0.00000000000E+00  0.64999999231E+04  0.65000000000E+04  0.10000000000E+01 0.  0.
    9000001   -1    0    0    0    0 -0.00000000000E+00 -0.00000000000E+00 -0.64999999231E+04  0.65000000000E+04  0.10000000000E+01 0.  0.
    9000001    1    1    2    0    0  0.44739778757E+04  0.44810538558E+04  0.14675412460E+04  0.65000000000E+04  0.10000000000E+01 0.  0.
    9000001    1    1    2    0    0 -0.44739778757E+04 -0.44810538558E+04 -0.14675412460E+04  0.65000000000E+04  0.10000000000E+01 0.  0.
</event>
<event>
 4    1  0.2195261E-006  0.1300000E+05  0.7957747E-01  0.1322471E+00
    9000001   -1    0    0    0    0  0.00000000000E+00  0.00000000000E+00  0.64999999231E+04  0.65000000000E+04  0.10000000000E+01 0.  0.
    9000001   -1    0    0    0    0 -0.00000000000E+00 -0.00000000000E+00 -0.64999999231E+04  0.65000000000E+04  0.10000000000E+01 0.  0.
    9000001    1    1    2    0    0  0.10650125694E+04  0.42122037030E+04  0.48345720794E+04  0.65000000000E+04  0.10000000000E+01 0.  0.
    9000001    1    1    2    0    0 -0.10650125694E+04 -0.42122037030E+04 -0.48345720794E+04  0.65000000000E+04  0.10000000000E+01 0.  0.
</event>
<event>
 4    1  0.2195261E-006  0.1300000E+05  0.7957747E-01  0.1322471E+00
    9000001   -1    0    0    0    0  0.00000000000E+00  0.00000000000E+00  0.64999999231E+04  0.65000000000E+04  0.10000000000E+01 0.  0.
    9000001   -1    0    0    0    0 -0.00000000000E+00 -0.00000000000E+00 -0.64999999231E+04  0.65000000000E+04  0.10000000000E+01 0.  0.
    9000001    1    1    2    0    0  0.10196917118E+04 -0.16415366991E+04 -0.62060925773E+04  0.65000000000E+04  0.10000000000E+01 0.  0.
    9000001    1    1    2    0    0 -0.10196917118E+04  0.16415366991E+04  0.62060925773E+04  0.65000000000E+04  0.10000000000E+01 0.  0.
</event>
<event>
 4    1  0.2195261E-006  0.1300000E+05  0.7957747E-01  0.1322471E+00
    9000001   -1    0    0    0    0  0.00000000000E+00  0.00000000000E+00  0.64999999231E+04  0.65000000000E+04  0.10000000000E+01 0.  0.
    9000001   -1    0    0    0    0 -0.00000000000E+00 -0.00000000000E+00 -0.64999999231E+04  0.65000000000E+04  0.10000000000E+01 0.  0.
    9000001    1    1    2    0    0  0.16488601437E+04 -0.54035549776E+04  0.32144755141E+04  0.65000000000E+04  0.10000000000E+01 0.  0.
    9000001    1    1    2    0    0 -0.16488601437E+04  0.54035549776E+04 -0.32144755141E+04  0.65000000000E+04  0.10000000000E+01 0.  0.
</event>
<event>
 4    1  0.2195261E-006  0.1300000E+05  0.7957747E-01  0.1322471E+00
    9000001   -1    0    0    0    0  0.00000000000E+00  0.00000000000E+00  0.64999999231E+04  0.65000000000E+04  0.10000000000E+01 0.  0.
    9000001   -1    0    0    0    0 -0.00000000000E+00 -0.00000000000E+00 -0.64999999231E+04  0.65000000000E+04  0.10000000000E+01 0.  0.
    9000001    1    1    2    0    0 -0.42643233411E+04 -0.48846652148E+04 -0.45342163788E+03  0.65000000000E+04  0.10000000000E+01 0.  0.
    9000001    1    1    2    0    0  0.42643233411E+04  0.48846652148E+04  0.45342163788E+03  0.65000000000E+04  0.10000000000E+01 0.  0.
</event>
<event>
 4    1  0.2195261E-006  0.1300000E+05  0.7957747E-01  0.1322471E+00
    9000001   -1    0    0    0    0  0.00000000000E+00  0.00000000000E+00  0.64999999231E+04  0.65000000000E+04  0.10000000000E+01 0.  0.
    9000001   -1    0    0    0    0 -0.00000000000E+00 -0.00000000000E+00 -0.64999999231E+04  0.65000000000E+04  0.10000000000E+01 0.  0.
    9000001    1    1    2    0    0  0.43951150989E+04  0.11950448383E+04  0.46373300617E+04  0.65000000000E+04  0.10000000000E+01 0.  0.
    9000001    1    1    2    0    0 -0.43951150989E+04 -0.11950448383E+04 -0.46373300617E+04  0.65000000000E+04  0.10000000000E+01 0.  0.
</event>
<event>
 4    1  0.2195261E-006  0.1300000E+05  0.7957747E-01  0.1322471E+00
    9000001   -1    0    0    0    0  0.00000000000E+00  0.00000000000E+00  0.64999999231E+04  0.65000000000E+04  0.10000000000E+01 0.  0.
    9000001   -1    0    0    0    0 -0.00000000000E+00 -0.00000000000E+00 -0.64999999231E+04  0.65000000000E+04  0.10000000000E+01 0.  0.
    9000001    1    1    2    0    0  0.33000224317E+04 -0.45369104198E+04  0.32827267314E+04  0.65000000000E+04  0.10000000000E+01 0.  0.
    9000001    1    1    2    0    0 -0.33000224317E+04  0.45369104198E+04 -0.32827267314E+04  0.65000000000E+04  0.10000000000E+01 0.  0.
</event>
<event>
 4    1  0.2195261E-006  0.1300000E+05  0.7957747E-01  0.1322471E+00
    9000001   -1    0    0    0    0  0.00000000000E+00  0.00000000000E+00  0.64999999231E+04  0.65000000000E+04  0.10000000000E+01 0.  0.
    9000001   -1    0    0    0    0 -0.00000000000E+00 -0.00000000000E+00 -0.64999999231E+04  0.65000000000E+04  0.10000000000E+01 0.  0.
    9000001    1    1    2    0    0 -0.52585135936E+04 -0.31736094788E+04 -0.21274953965E+04  0.65000000000E+04  0.10000000000E+01 0.  0.
    9000001    1    1    2    0    0  0.52585135936E+04  0.31736094788E+04  0.21274953965E+04  0.65000000000E+04  0.10000000000E+01 0.  0.
</event>
<event>
 4    1  0.2195261E-006  0.1300000E+05  0.7957747E-01  0.1322471E+00
    9000001   -1    0    0    0    0  0.00000000000E+00  0.00000000000E+00  0.64999999231E+04  0.65000000000E+04  0.10000000000E+01 0.  0.
    9000001   -1    0    0    0    0 -0.00000000000E+00 -0.00000000000E+00 -0.64999999231E+04  0.65000000000E+04  0.10000000000E+01 0.  0.
    9000001    1    1    2    0    0 -0.42792923499E+04 -0.43944874491E+04  0.21508454254E+04  0.65000000000E+04  0.10000000000E+01 0.  0.
    9000001    1    1    2    0    0  0.42792923499E+04  0.43944874491E+04 -0.21508454254E+04  0.65000000000E+04  0.10000000000E+01 0.  0.
</event>
<event>
 4    1  0.2195261E-006  0.1300000E+05  0.7957747E-01  0.1322471E+00
    9000001   -1    0    0    0    0  0.00000000000E+00  0.00000000000E+00  0.64999999231E+04  0.65000000000E+04  0.10000000000E+01 0.  0.
    9000001   -1    0    0    0    0 -0.00000000000E+00 -0.00000000000E+00 -0.64999999231E+04  0.65000000000E+04  0.10000000000E+01 0.  0.
    9000001    1    1    2    0    0 -0.15152338514E+04  0.49059967871E+04 -0.39856318069E+04  0.65000000000E+04  0.10000000000E+01 0.  0.
    9000001    1    1    2    0    0  0.15152338514E+04 -0.49059967871E+04  0.39856318069E+04  0.65000000000E+04  0.10000000000E+01 0.  0.
</event>
<event>
 4    1  0.2195261E-006  0.1300000E+05  0.7957747E-01  0.1322471E+00
    9000001   -1    0    0    0    0  0.00000000000E+00  0.00000000000E+00  0.64999999231E+04  0.65000000000E+04  0.10000000000E+01 0.  0.
    9000001   -1    0    0    0    0 -0.00000000000E+00 -0.00000000000E+00 -0.64999999231E+04  0.65000000000E+04  0.10000000000E+01 0.  0.
    9000001    1    1    2    0    0 -0.34945714513E+04  0.82442787008E+03  0.54183288991E+04  0.65000000000E+04  0.10000000000E+01 0.  0.
    9000001    1    1    2    0    0  0.34945714513E+04 -0.82442787008E+03 -0.54183288991E+04  0.65000000000E+04  0.10000000000E+01 0.  0.
</event>
<event>
 4    1  0.2195261E-006  0.1300000E+05  0.7957747E-01  0.1322471E+00
    9000001   -1    0    0    0    0  0.00000000000E+00  0.00000000000E+00  0.64999999231E+04  0.65000000000E+04  0.10000000000E+01 0.  0.
    9000001   -1    0    0    0    0 -0.00000000000E+00 -0.00000000000E+00 -0.64999999231E+04  0.65000000000E+04  0.10000000000E+01 0.  0.
    9000001    1    1    2    0    0  0.19637416147E+03  0.23295774413E+04 -0.60650230942E+04  0.65000000000E+04  0.10000000000E+01 0.  0.
    9000001    1    1    2    0    0 -0.19637416147E+03 -0.23295774413E+04  0.60650230942E+04  0.65000000000E+04  0.10000000000E+01 0.  0.
</event>
<event>
 4    1  0.2195261E-006  0.1300000E+05  0.7957747E-01  0.1322471E+00
    9000001   -1    0    0    0    0  0.00000000000E+00  0.00000000000E+00  0.64999999231E+04  0.65000000000E+04  0.10000000000E+01 0.  0.
    9000001   -1    0    0    0    0 -0.00000000000E+00 -0.00000000000E+00 -0.64999999231E+04  0.65000000000E+04  0.10000000000E+01 0.  0.
    9000001    1    1    2    0    0 -0.54882953675E+04 -0.58807371594E+03  0.34326057541E+04  0.65000000000E+04  0.10000000000E+01 0.  0.
    9000001    1    1    2    0    0  0.54882953675E+04  0.58807371594E+03 -0.34326057541E+04  0.65000000000E+04  0.10000000000E+01 0.  0.
</event>
<event>
 4    1  0.2195261E-006  0.1300000E+05  0.7957747E-01  0.1322471E+00
    9000001   -1    0    0    0    0  0.00000000000E+00  0.00000000000E+00  0.64999999231E+04  0.65000000000E+04  0.10000000000E+01 0.  0.
    9000001   -1    0    0    0    0 -0.00000000000E+00 -0.00000000000E+00 -0.64999999231E+04  0.65000000000E+04  0.10000000000E+01 0.  0.
    9000001    1    1    2    0    0  0.26685939093E+04 -0.22382439898E+04 -0.54880660883E+04  0.65000000000E+04  0.10000000000E+01 0.  0.
    9000001    1    1    2    0    0 -0.26685939093E+04  0.22382439898E+04  0.54880660883E+04  0.65000000000E+04  0.10000000000E+01 0.  0.
</event>
<event>
 4    1  0.2195261E-006  0.1300000E+05  0.7957747E-01  0.1322471E+00
    9000001   -1    0    0    0    0  0.00000000000E+00  0.00000000000E+00  0.64999999231E+04  0.65000000000E+04  0.10000000000E+01 0.  0.
    9000001   -1    0    0    0    0 -0.00000000000E+00 -0.00000000000E+00 -0.64999999231E+04  0.65000000000E+04  0.10000000000E+01 0.  0.
    9000001    1    1    2    0    0  0.24193641220E+04  0.60318594496E+04  0.11553278936E+03  0.65000000000E+04  0.10000000000E+01 0.  0.
    9000001    1    1    2    0    0 -0.24193641220E+04 -0.60318594496E+04 -0.11553278936E+03  0.65000000000E+04  0.10000000000E+01 0.  0.
</event>
<event>
 4    1  0.2195261E-006  0.1300000E+05  0.7957747E-01  0.1322471E+00
    9000001   -1    0    0    0    0  0.00000000000E+00  0.00000000000E+00  0.64999999231E+04  0.65000000000E+04  0.10000000000E+01 0.  0.
    9000001   -1    0    0    0    0 -0.00000000000E+00 -0.00000000000E+00 -0.64999999231E+04  0.65000000000E+04  0.10000000000E+01 0.  0.
    9000001    1    1    2    0    0 -0.52594413718E+04 -0.21503146464E+04 -0.31566473319E+04  0.65000000000E+04  0.10000000000E+01 0.  0.
    9000001    1    1    2    0    0  0.52594413718E+04  0.21503146464E+04  0.31566473319E+04  0.65000000000E+04  0.10000000000E+01 0.  0.
</event>
<event>
 4    1  0.2195261E-006  0.1300000E+05  0.7957747E-01  0.1322471E+00
    9000001   -1    0    0    0    0  0.00000000000E+00  0.00000000000E+00  0.64999999231E+04  0.65000000000E+04  0.10000000000E+01 0.  0.
    9000001   -1    0    0    0    0 -0.00000000000E+00 -0.00000000000E+00 -0.64999999231E+04  0.65000000000E+04  0.10000000000E+01 0.  0.
    9000001    1    1    2    0    0  0.81440400462E+03 -0.63043216428E+04 -0.13573038500E+04  0.65000000000E+04  0.10000000000E+01 0.  0.
    9000001    1    1    2    0    0 -0.81440400462E+03  0.63043216428E+04  0.13573038500E+04  0.65000000000E+04  0.10000000000E+01 0.  0.
</event>
<event>
 4    1  0.2195261E-006  0.1300000E+05  0.7957747E-01  0.1322471E+00
    9000001   -1    0    0    0    0  0.00000000000E+00  0.00000000000E+00  0.64999999231E+04  0.65000000000E+04  0.10000000000E+01 0.  0.
    9000001   -1    0    0    0    0 -0.00000000000E+00 -0.00000000000E+00 -0.64999999231E+04  0.65000000000E+04  0.10000000000E+01 0.  0.
    9000001    1    1    2    0    0 -0.25498344024E+04  0.59470041442E+04  0.61764490606E+03  0.65000000000E+04  0.10000000000E+01 0.  0.
    9000001    1    1    2    0    0  0.25498344024E+04 -0.59470041442E+04 -0.61764490606E+03  0.65000000000E+04  0.10000000000E+01 0.  0.
</event>
<event>
 4    1  0.2195261E-006  0.1300000E+05  0.7957747E-01  0.1322471E+00
    9000001   -1    0    0    0    0  0.00000000000E+00  0.00000000000E+00  0.64999999231E+04  0.65000000000E+04  0.10000000000E+01 0.  0.
    9000001   -1    0    0    0    0 -0.00000000000E+00 -0.00000000000E+00 -0.64999999231E+04  0.65000000000E+04  0.10000000000E+01 0.  0.
    9000001    1    1    2    0    0 -0.60363151620E+04  0.84294717577E+03 -0.22588356125E+04  0.65000000000E+04  0.10000000000E+01 0.  0.
    9000001    1    1    2    0    0  0.60363151620E+04 -0.84294717577E+03  0.22588356125E+04  0.65000000000E+04  0.10000000000E+01 0.  0.
</event>
<event>
 4    1  0.2195261E-006  0.1300000E+05  0.7957747E-01  0.1322471E+00
    9000001   -1    0    0    0    0  0.00000000000E+00  0.00000000000E+00  0.64999999231E+04  0.65000000000E+04  0.10000000000E+01 0.  0.
    9000001   -1    0    0    0    0 -0.00000000000E+00 -0.00000000000E+00 -0.64999999231E+04  0.65000000000E+04  0.10000000000E+01 0.  0.
    9000001    1    1    2    0    0  0.55196648768E+04 -0.26105638394E+04  0.22289582967E+04  0.65000000000E+04  0.10000000000E+01 0.  0.
    9000001    1    1    2    0    0 -0.55196648768E+04  0.26105638394E+04 -0.22289582967E+04  0.65000000000E+04  0.10000000000E+01 0.  0.
</event>
<event>
 4    1  0.2195261E-006  0.1300000E+05  0.7957747E-01  0.1322471E+00
    9000001   -1    0    0    0    0  0.00000000000E+00  0.00000000000E+00  0.64999999231E+04  0.65000000000E+04  0.10000000000E+01 0.  0.
    9000001   -1    0    0    0    0 -0.00000000000E+00 -0.00000000000E+00 -0.64999999231E+04  0.65000000000E+04  0.10000000000E+01 0.  0.
    9000001    1    1    2    0    0  0.22241806479E+04 -0.40399526715E+04 -0.45805896845E+04  0.65000000000E+04  0.10000000000E+01 0.  0.
    9000001    1    1    2    0    0 -0.22241806479E+04  0.40399526715E+04  0.45805896845E+04  0.65000000000E+04  0.10000000000E+01 0.  0.
</event>
<event>
 4    1  0.2195261E-006  0.1300000E+05  0.7957747E-01  0.1322471E+00
    9000001   -1    0    0    0    0  0.00000000000E+00  0.00000000000E+00  0.64999999231E+04  0.65000000000E+04  0.10000000000E+01 0.  0.
    9000001   -1    0    0    0    0 -0.00000000000E+00 -0.00000000000E+00 -0.64999999231E+04  0.65000000000E+04  0.10000000000E+01 0.  0.
    9000001    1    1    2    0    0  0.56468968384E+04  0.10764533436E+04 -0.30337770675E+04  0.65000000000E+04  0.10000000000E+01 0.  0.
    9000001    1    1    2    0    0 -0.56468968384E+04 -0.10764533436E+04  0.30337770675E+04  0.65000000000E+04  0.10000000000E+01 0.  0.
</event>
<event>
 4    1  0.2195261E-006  0.1300000E+05  0.7957747E-01  0.1322471E+00
    9000001   -1    0    0    0    0  0.00000000000E+00  0.00000000000E+00  0.64999999231E+04  0.65000000000E+04  0.10000000000E+01 0.  0.
    9000001   -1    0    0    0    0 -0.00000000000E+00 -0.00000000000E+00 -0.64999999231E+04  0.65000000000E+04  0.10000000000E+01 0.  0.
    9000001    1    1    2    0    0 -0.37351840967E+04 -0.27183647794E+03  0.53126738741E+04  0.65000000000E+04  0.10000000000E+01 0.  0.
    9000001    1    1    2    0    0  0.37351840967E+04  0.27183647794E+03 -0.53126738741E+04  0.65000000000E+04  0.10000000000E+01 0.  0.
</event>
<event>
 4    1  0.2195261E-006  0.1300000E+05  0.7957747E-01  0.1322471E+00
    9000001   -1    0    0    0    0  0.00000000000E+00  0.00000000000E+00  0.64999999231E+04  0.65000000000E+04  0.10000000000E+01 0.  0.
    9000001   -1    0    0    0    0 -0.00000000000E+00 -0.00000000000E+00 -0.64999999231E+04  0.65000000000E+04  0.10000000000E+01 0.  0.
    9000001    1    1    2    0    0 -0.41855110055E+04  0.38180037728E+04  0.31865881149E+04  0.65000000000E+04  0.10000000000E+01 0.  0.
    9000001    1    1    2    0    0  0.41855110055E+04 -0.38180037728E+04 -0.31865881149E+04  0.65000000000E+04  0.10000000000E+01 0.  0.
</event>
<event>
 4    1  0.2195261E-006  0.1300000E+05  0.7957747E-01  0.1322471E+00
    9000001   -1    0    0    0    0  0.00000000000E+00  0.00000000000E+00  0.64999999231E+04  0.65000000000E+04  0.10000000000E+01 0.  0.
    9000001   -1    0    0    0    0 -0.00000000000E+00 -0.00000000000E+00 -0.64999999231E+04  0.65000000000E+04  0.10000000000E+01 0.  0.
    9000001    1    1    2    0    0 -0.32254221333E+04 -0.16472069846E+03 -0.56408792004E+04  0.65000000000E+04  0.10000000000E+01 0.  0.
    9000001    1    1    2    0    0  0.32254221333E+04  0.16472069846E+03  0.56408792004E+04  0.65000000000E+04  0.10000000000E+01 0.  0.
</event>
<event>
 4    1  0.2195261E-006  0.1300000E+05  0.7957747E-01  0.1322471E+00
    9000001   -1    0    0    0    0  0.00000000000E+00  0.00000000000E+00  0.64999999231E+04  0.65000000000E+04  0.10000000000E+01 0.  0.
    9000001   -1    0    0    0    0 -0.00000000000E+00 -0.00000000000E+00 -0.64999999231E+04  0.65000000000E+04  0.10000000000E+01 0.  0.
    9000001    1    1    2    0    0  0.67131363031E+03 -0.56265522844E+04 -0.31845323677E+04  0.65000000000E+04  0.10000000000E+01 0.  0.
    9000001    1    1    2    0    0 -0.67131363031E+03  0.56265522844E+04  0.31845323677E+04  0.65000000000E+04  0.10000000000E+01 0.  0.
</event>
<event>
 4    1  0.2195261E-006  0.1300000E+05  0.7957747E-01  0.1322471E+00
    9000001   -1    0    0    0    0  0.00000000000E+00  0.00000000000E+00  0.64999999231E+04  0.65000000000E+04  0.10000000000E+01 0.  0.
    9000001   -1    0    0    0    0 -0.00000000000E+00 -0.00000000000E+00 -0.64999999231E+04  0.65000000000E+04  0.10000000000E+01 0.  0.
    9000001    1    1    2    0    0  0.21940272869E+04 -0.61070709350E+04  0.37406932414E+03  0.65000000000E+04  0.10000000000E+01 0.  0.
    9000001    1    1    2    0    0 -0.21940272869E+04  0.61070709350E+04 -0.37406932414E+03  0.65000000000E+04  0.10000000000E+01 0.  0.
</event>
<event>
 4    1  0.2195261E-006  0.1300000E+05  0.7957747E-01  0.1322471E+00
    9000001   -1    0    0    0    0  0.00000000000E+00  0.00000000000E+00  0.64999999231E+04  0.65000000000E+04  0.10000000000E+01 0.  0.
    9000001   -1    0    0    0    0 -0.00000000000E+00 -0.00000000000E+00 -0.64999999231E+04  0.65000000000E+04  0.10000000000E+01 0.  0.
    9000001    1    1    2    0    0 -0.18088634642E+04 -0.61090048079E+04  0.12876615337E+04  0.65000000000E+04  0.10000000000E+01 0.  0.
    9000001    1    1    2    0    0  0.18088634642E+04  0.61090048079E+04 -0.12876615337E+04  0.65000000000E+04  0.10000000000E+01 0.  0.
</event>
<event>
 4    1  0.2195261E-006  0.1300000E+05  0.7957747E-01  0.1322471E+00
    9000001   -1    0    0    0    0  0.00000000000E+00  0.00000000000E+00  0.64999999231E+04  0.65000000000E+04  0.10000000000E+01 0.  0.
    9000001   -1    0    0    0    0 -0.00000000000E+00 -0.00000000000E+00 -0.64999999231E+04  0.65000000000E+04  0.10000000000E+01 0.  0.
    9000001    1    1    2    0    0  0.29599377665E+04  0.47266622626E+04 -0.33387769129E+04  0.65000000000E+04  0.10000000000E+01 0.  0.
    9000001    1    1    2    0    0 -0.29599377665E+04 -0.47266622626E+04  0.33387769129E+04  0.65000000000E+04  0.10000000000E+01 0.  0.
</event>
<event>
 4    1  0.2195261E-006  0.1300000E+05  0.7957747E-01  0.1322471E+00
    9000001   -1    0    0    0    0  0.00000000000E+00  0.00000000000E+00  0.64999999231E+04  0.65000000000E+04  0.10000000000E+01 0.  0.
    9000001   -1    0    0    0    0 -0.00000000000E+00 -0.00000000000E+00 -0.64999999231E+04  0.65000000000E+04  0.10000000000E+01 0.  0.
    9000001    1    1    2    0    0  0.56452501595E+03  0.30180046104E+04  0.57291324542E+04  0.65000000000E+04  0.10000000000E+01 0.  0.
    9000001    1    1    2    0    0 -0.56452501595E+03 -0.30180046104E+04 -0.57291324542E+04  0.65000000000E+04  0.10000000000E+01 0.  0.
</event>
<event>
 4    1  0.2195261E-006  0.1300000E+05  0.7957747E-01  0.1322471E+00
    9000001   -1    0    0    0    0  0.00000000000E+00  0.00000000000E+00  0.64999999231E+04  0.65000000000E+04  0.10000000000E+01 0.  0.
    9000001   -1    0    0    0    0 -0.00000000000E+00 -0.00000000000E+00 -0.64999999231E+04  0.65000000000E+04  0.10000000000E+01 0.  0.
    9000001    1    1    2    0    0 -0.41677688696E+04  0.40201591461E+04 -0.29526296905E+04  0.65000000000E+04  0.10000000000E+01 0.  0.
    9000001    1    1    2    0    0  0.41677688696E+04 -0.40201591461E+04  0.29526296905E+04  0.65000000000E+04  0.10000000000E+01 0.  0.
</event>
<event>
 4    1  0.2195261E-006  0.1300000E+05  0.7957747E-01  0.1322471E+00
    9000001   -1    0    0    0    0  0.00000000000E+00  0.00000000000E+00  0.64999999231E+04  0.65000000000E+04  0.10000000000E+01 0.  0.
    9000001   -1    0    0    0    0 -0.00000000000E+00 -0.00000000000E+00 -0.64999999231E+04  0.65000000000E+04  0.10000000000E+01 0.  0.
    9000001    1    1    2    0    0 -0.39348434589E+04  0.17628885544E+04 -0.48640754413E+04  0.65000000000E+04  0.10000000000E+01 0.  0.
    9000001    1    1    2    0    0  0.39348434589E+04 -0.17628885544E+04  0.48640754413E+04  0.65000000000E+04  0.10000000000E+01 0.  0.
</event>
<event>
 4    1  0.2195261E-006  0.1300000E+05  0.7957747E-01  0.1322471E+00
    9000001   -1    0    0    0    0  0.00000000000E+00  0.00000000000E+00  0.64999999231E+04  0.65000000000E+04  0.10000000000E+01 0.  0.
    9000001   -1    0    0    0    0 -0.00000000000E+00 -0.00000000000E+00 -0.64999999231E+04  0.65000000000E+04  0.10000000000E+01 0.  0.
    9000001    1    1    2    0    0  0.72113068889E+03 -0.55768519651E+04  0.32601674327E+04  0.65000000000E+04  0.10000000000E+01 0.  0.
    9000001    1    1    2    0    0 -0.72113068889E+03  0.55768519651E+04 -0.32601674327E+04  0.65000000000E+04  0.10000000000E+01 0.  0.
</event>
<event>
 4    1  0.2195261E-006  0.1300000E+05  0.7957747E-01  0.1322471E+00
    9000001   -1    0    0    0    0  0.00000000000E+00  0.00000000000E+00  0.64999999231E+04  0.65000000000E+04  0.10000000000E+01 0.  0.
    9000001   -1    0    0    0    0 -0.00000000000E+00 -0.00000000000E+00 -0.64999999231E+04  0.65000000000E+04  0.10000000000E+01 0.  0.
    9000001    1    1    2    0    0  0.93763428655E+03  0.49683988123E+04 -0.40848322103E+04  0.65000000000E+04  0.10000000000E+01 0.  0.
    9000001    1    1    2    0    0 -0.93763428655E+03 -0.49683988123E+04  0.40848322103E+04  0.65000000000E+04  0.10000000000E+01 0.  0.
</event>
<event>
 4    1  0.2195261E-006  0.1300000E+05  0.7957747E-01  0.1322471E+00
    9000001   -1    0    0    0    0  0.00000000000E+00  0.00000000000E+00  0.64999999231E+04  0.65000000000E+04  0.10000000000E+01 0.  0.
    9000001   -1    0    0    0    0 -0.00000000000E+00 -0.00000000000E+00 -0.64999999231E+04  0.65000000000E+04  0.10000000000E+01 0.  0.
    9000001    1    1    2    0    0 -0.37566816860E+04 -0.37819890146E+04  0.37193952201E+04  0.65000000000E+04  0.10000000000E+01 0.  0.
    9000001    1    1    2    0    0  0.37566816860E+04  0.37819890146E+04 -0.37193952201E+04  0.65000000000E+04  0.10000000000E+01 0.  0.
</event>
<event>
 4    1  0.2195261E-006  0.1300000E+05  0.7957747E-01  0.1322471E+00
    9000001   -1    0    0    0    0  0.00000000000E+00  0.00000000000E+00  0.64999999231E+04  0.65000000000E+04  0.10000000000E+01 0.  0.
    9000001   -1    0    0    0    0 -0.00000000000E+00 -0.00000000000E+00 -0.64999999231E+04  0.65000000000E+04  0.10000000000E+01 0.  0.
    9000001    1    1    2    0    0  0.24053666756E+02 -0.64755421901E+04  0.56282658585E+03  0.65000000000E+04  0.10000000000E+01 0.  0.
    9000001    1    1    2    0    0 -0.24053666756E+02  0.64755421901E+04 -0.56282658585E+03  0.65000000000E+04  0.10000000000E+01 0.  0.
</event>
<event>
 4    1  0.2195261E-006  0.1300000E+05  0.7957747E-01  0.1322471E+00
    9000001   -1    0    0    0    0  0.00000000000E+00  0.00000000000E+00  0.64999999231E+04  0.65000000000E+04  0.10000000000E+01 0.  0.
    9000001   -1    0    0    0    0 -0.00000000000E+00 -0.00000000000E+00 -0.64999999231E+04  0.65000000000E+04  0.10000000000E+01 0.  0.
    9000001    1    1    2    0    0  0.45189061867E+04 -0.27247168566E+04 -0.37954451554E+04  0.65000000000E+04  0.10000000000E+01 0.  0.
    9000001    1    1    2    0    0 -0.45189061867E+04  0.27247168566E+04  0.37954451554E+04  0.65000000000E+04  0.10000000000E+01 0.  0.
</event>
<event>
 4    1  0.2195261E-006  0.1300000E+05  0.7957747E-01  0.1322471E+00
    9000001   -1    0    0    0    0  0.00000000000E+00  0.00000000000E+00  0.64999999231E+04  0.65000000000E+04  0.10000000000E+01 0.  0.
    9000001   -1    0    0    0    0 -0.00000000000E+00 -0.00000000000E+00 -0.64999999231E+04  0.65000000000E+04  0.10000000000E+01 0.  0.
    9000001    1    1    2    0    0  0.54557181481E+04  0.34298962483E+04 -0.84908787210E+03  0.65000000000E+04  0.10000000000E+01 0.  0.
    9000001    1    1    2    0    0 -0.54557181481E+04 -0.34298962483E+04  0.84908787210E+03  0.65000000000E+04  0.10000000000E+01 0.  0.
</event>
<event>
 4    1  0.2195261E-006  0.1300000E+05  0.7957747E-01  0.1322471E+00
    9000001   -1    0    0    0    0  0.00000000000E+00  0.00000000000E+00  0.64999999231E+04  0.65000000000E+04  0.10000000000E+01 0.  0.
    9000001   -1    0    0    0    0 -0.00000000000E+00 -0.00000000000E+00 -0.64999999231E+04  0.65000000000E+04  0.10000000000E+01 0.  0.
    9000001    1    1    2    0    0  0.57487732988E+04 -0.14595276660E+04  0.26592073164E+04  0.65000000000E+04  0.10000000000E+01 0.  0.
    9000001    1    1    2    0    0 -0.57487732988E+04  0.14595276660E+04 -0.26592073164E+04  0.65000000000E+04  0.10000000000E+01 0.  0.
</event>
<event>
 4    1  0.2195261E-006  0.1300000E+05  0.7957747E-01  0.1322471E+00
    9000001   -1    0    0    0    0  0.00000000000E+00  0.00000000000E+00  0.64999999231E+04  0.65000000000E+04  0.10000000000E+01 0.  0.
    9000001   -1    0    0    0    0 -0.00000000000E+00 -0.00000000000E+00 -0.64999999231E+04  0.65000000000E+04  0.10000000000E+01 0.  0.
    9000001    1    1    2    0    0 -0.52149904894E+04 -0.84032536644E+03  0.37878392883E+04  0.65000000000E+04  0.10000000000E+01 0.  0.
    9000001    1    1    2    0    0  0.52149904894E+04  0.84032536644E+03 -0.37878392883E+04  0.65000000000E+04  0.10000000000E+01 0.  0.
</event>
<event>
 4    1  0.2195261E-006  0.1300000E+05  0.7957747E-01  0.1322471E+00
    9000001   -1    0    0    0    0  0.00000000000E+00  0.00000000000E+00  0.64999999231E+04  0.65000000000E+04  0.10000000000E+01 0.  0.
    9000001   -1    0    0    0    0 -0.00000000000E+00 -0.00000000000E+00 -0.64999999231E+04  0.65000000000E+04  0.10000000000E+01 0.  0.
    9000001    1    1    2    0    0 -0.54099154131E+04 -0.30157308025E+04 -0.19718473444E+04  0.65000000000E+04  0.10000000000E+01 0.  0.
    9000001    1    1    2    0    0  0.54099154131E+04  0.30157308025E+04  0.19718473444E+04  0.65000000000E+04  0.10000000000E+01 0.  0.
</event>
<event>
 4    1  0.2195261E-006  0.1300000E+05  0.7957747E-01  0.1322471E+00
    9000001   -1    0    0    0    0  0.00000000000E+00  0.00000000000E+00  0.64999999231E+04  0.65000000000E+04  0.10000000000E+01 0.  0.
    9000001   -1    0    0    0    0 -0.00000000000E+00 -0.00000000000E+00 -0.64999999231E+04  0.65000000000E+04  0.10000000000E+01 0.  0.
    9000001    1    1    2    0    0  0.37490247785E+04 -0.52553839074E+04 -0.75878336567E+03  0.65000000000E+04  0.10000000000E+01 0.  0.
    9000001    1    1    2    0    0 -0.37490247785E+04  0.52553839074E+04  0.75878336567E+03  0.65000000000E+04  0.10000000000E+01 0.  0.
</event>
<event>
 4    1  0.2195261E-006  0.1300000E+05  0.7957747E-01  0.1322471E+00
    9000001   -1    0    0    0    0  0.00000000000E+00  0.00000000000E+00  0.64999999231E+04  0.65000000000E+04  0.10000000000E+01 0.  0.
    9000001   -1    0    0    0    0 -0.00000000000E+00 -0.00000000000E+00 -0.64999999231E+04  0.65000000000E+04  0.10000000000E+01 0.  0.
    9000001    1    1    2    0    0 -0.56388728814E+04  0.30715130970E+04  0.10094151387E+04  0.65000000000E+04  0.10000000000E+01 0.  0.
    9000001    1    1    2    0    0  0.56388728814E+04 -0.30715130970E+04 -0.10094151387E+04  0.65000000000E+04  0.10000000000E+01 0.  0.
</event>
<event>
 4    1  0.2195261E-006  0.1300000E+05  0.7957747E-01  0.1322471E+00
    9000001   -1    0    0    0    0  0.00000000000E+00  0.00000000000E+00  0.64999999231E+04  0.65000000000E+04  0.10000000000E+01 0.  0.
    9000001   -1    0    0    0    0 -0.00000000000E+00 -0.00000000000E+00 -0.64999999231E+04  0.65000000000E+04  0.10000000000E+01 0.  0.
    9000001    1    1    2    0    0  0.98442522204E+03  0.52331944639E+04 -0.37275436530E+04  0.65000000000E+04  0.10000000000E+01 0.  0.
    9000001    1    1    2    0    0 -0.98442522204E+03 -0.52331944639E+04  0.37275436530E+04  0.65000000000E+04  0.10000000000E+01 0.  0.
</event>
<event>
 4    1  0.2195261E-006  0.1300000E+05  0.7957747E-01  0.1322471E+00
    9000001   -1    0    0    0    0  0.00000000000E+00  0.00000000000E+00  0.64999999231E+04  0.65000000000E+04  0.10000000000E+01 0.  0.
    9000001   -1    0    0    0    0 -0.00000000000E+00 -0.00000000000E+00 -0.64999999231E+04  0.65000000000E+04  0.10000000000E+01 0.  0.
    9000001    1    1    2    0    0  0.42863170120E+04  0.48839624068E+04  0.15619437208E+03  0.65000000000E+04  0.10000000000E+01 0.  0.
    9000001    1    1    2    0    0 -0.42863170120E+04 -0.48839624068E+04 -0.15619437208E+03  0.65000000000E+04  0.10000000000E+01 0.  0.
</event>
<event>
 4    1  0.2195261E-006  0.1300000E+05  0.7957747E-01  0.1322471E+00
    9000001   -1    0    0    0    0  0.00000000000E+00  0.00000000000E+00  0.64999999231E+04  0.65000000000E+04  0.10000000000E+01 0.  0.
    9000001   -1    0    0    0    0 -0.00000000000E+00 -0.00000000000E+00 -0.64999999231E+04  0.65000000000E+04  0.10000000000E+01 0.  0.
    9000001    1    1    2    0    0 -0.29467190062E+03 -0.31317610892E+04 -0.56881666599E+04  0.65000000000E+04  0.10000000000E+01 0.  0.
    9000001    1    1    2    0    0  0.29467190062E+03  0.31317610892E+04  0.56881666599E+04  0.65000000000E+04  0.10000000000E+01 0.  0.
</event>
<event>
 4    1  0.2195261E-006  0.1300000E+05  0.7957747E-01  0.1322471E+00
    9000001   -1    0    0    0    0  0.00000000000E+00  0.00000000000E+00  0.64999999231E+04  0.65000000000E+04  0.10000000000E+01 0.  0.
    9000001   -1    0    0    0    0 -0.00000000000E+00 -0.00000000000E+00 -0.64999999231E+04  0.65000000000E+04  0.10000000000E+01 0.  0.
    9000001    1    1    2    0    0 -0.46411442695E+04 -0.37123435674E+04  0.26321633892E+04  0.65000000000E+04  0.10000000000E+01 0.  0.
    9000001    1    1    2    0    0  0.46411442695E+04  0.37123435674E+04 -0.26321633892E+04  0.65000000000E+04  0.10000000000E+01 0.  0.
</event>
<event>
 4    1  0.2195261E-006  0.1300000E+05  0.7957747E-01  0.1322471E+00
    9000001   -1    0    0    0    0  0.00000000000E+00  0.00000000000E+00  0.64999999231E+04  0.65000000000E+04  0.10000000000E+01 0.  0.
    9000001   -1    0    0    0    0 -0.00000000000E+00 -0.00000000000E+00 -0.64999999231E+04  0.65000000000E+04  0.10000000000E+01 0.  0.
    9000001    1    1    2    0    0  0.64964894019E+04 -0.84185143662E+02  0.19630922622E+03  0.65000000000E+04  0.10000000000E+01 0.  0.
    9000001    1    1    2    0    0 -0.64964894019E+04  0.84185143662E+02 -0.19630922622E+03  0.65000000000E+04  0.10000000000E+01 0.  0.
</event>
<event>
 4    1  0.2195261E-006  0.1300000E+05  0.7957747E-01  0.1322471E+00
    9000001   -1    0    0    0    0  0.00000000000E+00  0.00000000000E+00  0.64999999231E+04  0.65000000000E+04  0.10000000000E+01 0.  0.
    9000001   -1    0    0    0    0 -0.00000000000E+00 -0.00000000000E+00 -0.64999999231E+04  0.65000000000E+04  0.10000000000E+01 0.  0.
    9000001    1    1    2    0    0  0.37412929375E+04 -0.28103999278E+04  0.45115826937E+04  0.65000000000E+04  0.10000000000E+01 0.  0.
    9000001    1    1    2    0    0 -0.37412929375E+04  0.28103999278E+04 -0.45115826937E+04  0.65000000000E+04  0.10000000000E+01 0.  0.
</event>
<event>
 4    1  0.2195261E-006  0.1300000E+05  0.7957747E-01  0.1322471E+00
    9000001   -1    0    0    0    0  0.00000000000E+00  0.00000000000E+00  0.64999999231E+04  0.65000000000E+04  0.10000000000E+01 0.  0.
    9000001   -1    0    0    0    0 -0.00000000000E+00 -0.00000000000E+00 -0.64999999231E+04  0.65000000000E+04  0.10000000000E+01 0.  0.
    9000001    1    1    2    0    0 -0.41086399788E+04  0.48521730329E+04 -0.13511082059E+04  0.65000000000E+04  0.10000000000E+01 0.  0.
    9000001    1    1    2    0    0  0.41086399788E+04 -0.48521730329E+04  0.13511082059E+04  0.65000000000E+04  0.10000000000E+01 0.  0.
</event>
<event>
 4    1  0.2195261E-006  0.1300000E+05  0.7957747E-01  0.1322471E+00
    9000001   -1    0    0    0    0  0.00000000000E+00  0.00000000000E+00  0.64999999231E+04  0.65000000000E+04  0.10000000000E+01 0.  0.
    9000001   -1    0    0    0    0 -0.00000000000E+00 -0.00000000000E+00 -0.64999999231E+04  0.65000000000E+04  0.10000000000E+01 0.  0.
    9000001    1    1    2    0    0 -0.47613440023E+04  0.42888275827E+04 -0.10888343575E+04  0.65000000000E+04  0.10000000000E+01 0.  0.
    9000001    1    1    2    0    0  0.47613440023E+04 -0.42888275827E+04  0.10888343575E+04  0.65000000000E+04  0.10000000000E+01 0.  0.
</event>
<event>
 4    1  0.2195261E-006  0.1300000E+05  0.7957747E-01  0.1322471E+00
    9000001   -1    0    0    0    0  0.00000000000E+00  0.00000000000E+00  0.64999999231E+04  0.65000000000E+04  0.10000000000E+01 0.  0.
    9000001   -1    0    0    0    0 -0.00000000000E+00 -0.00000000000E+00 -0.64999999231E+04  0.65000000000E+04  0.10000000000E+01 0.  0.
    9000001    1    1    2    0    0 -0.63707519253E+04 -0.10485956665E+04  0.75097672018E+03  0.65000000000E+04  0.10000000000E+01 0.  0.
    9000001    1    1    2    0    0  0.63707519253E+04  0.10485956665E+04 -0.75097672018E+03  0.65000000000E+04  0.10000000000E+01 0.  0.
</event>
<event>
 4    1  0.2195261E-006  0.1300000E+05  0.7957747E-01  0.1322471E+00
    9000001   -1    0    0    0    0  0.00000000000E+00  0.00000000000E+00  0.64999999231E+04  0.65000000000E+04  0.10000000000E+01 0.  0.
    9000001   -1    0    0    0    0 -0.00000000000E+00 -0.00000000000E+00 -0.64999999231E+04  0.65000000000E+04  0.10000000000E+01 0.  0.
    9000001    1    1    2    0    0  0.47033302146E+03  0.64648236520E+04 -0.48460395898E+03  0.65000000000E+04  0.10000000000E+01 0.  0.
    9000001    1    1    2    0    0 -0.47033302146E+03 -0.64648236520E+04  0.48460395898E+03  0.65000000000E+04  0.10000000000E+01 0.  0.
</event>
<event>
 4    1  0.2195261E-006  0.1300000E+05  0.7957747E-01  0.1322471E+00
    9000001   -1    0    0    0    0  0.00000000000E+00  0.00000000000E+00  0.64999999231E+04  0.65000000000E+04  0.10000000000E+01 0.  0.
    9000001   -1    0    0    0    0 -0.00000000000E+00 -0.00000000000E+00 -0.64999999231E+04  0.65000000000E+04  0.10000000000E+01 0.  0.
    9000001    1    1    2    0    0 -0.51210106519E+04  0.28488539342E+04 -0.28123442472E+04  0.65000000000E+04  0.10000000000E+01 0.  0.
    9000001    1    1    2    0    0  0.51210106519E+04 -0.28488539342E+04  0.28123442472E+04  0.65000000000E+04  0.10000000000E+01 0.  0.
</event>
<event>
 4    1  0.2195261E-006  0.1300000E+05  0.7957747E-01  0.1322471E+00
    9000001   -1    0    0    0    0  0.00000000000E+00  0.00000000000E+00  0.64999999231E+04  0.65000000000E+04  0.10000000000E+01 0.  0.
    9000001   -1    0    0    0    0 -0.00000000000E+00 -0.00000000000E+00 -0.64999999231E+04  0.65000000000E+04  0.10000000000E+01 0.  0.
    9000001    1    1    2    0    0 -0.43428903575E+04  0.47970062582E+04  0.61484412816E+03  0.65000000000E+04  0.10000000000E+01 0.  0.
    9000001    1    1    2    0    0  0.43428903575E+04 -0.47970062582E+04 -0.61484412816E+03  0.65000000000E+04  0.10000000000E+01 0.  0.
</event>
<event>
 4    1  0.2195261E-006  0.1300000E+05  0.7957747E-01  0.1322471E+00
    9000001   -1    0    0    0    0  0.00000000000E+00  0.00000000000E+00  0.64999999231E+04  0.65000000000E+04  0.10000000000E+01 0.  0.
    9000001   -1    0    0    0    0 -0.00000000000E+00 -0.00000000000E+00 -0.64999999231E+04  0.65000000000E+04  0.10000000000E+01 0.  0.
    9000001    1    1    2    0    0  0.11880348312E+04 -0.36815949172E+04 -0.52234501151E+04  0.65000000000E+04  0.10000000000E+01 0.  0.
    9000001    1    1    2    0    0 -0.11880348312E+04  0.36815949172E+04  0.52234501151E+04  0.65000000000E+04  0.10000000000E+01 0.  0.
</event>
<event>
 4    1  0.2195261E-006  0.1300000E+05  0.7957747E-01  0.1322471E+00
    9000001   -1    0    0    0    0  0.00000000000E+00  0.00000000000E+00  0.64999999231E+04  0.65000000000E+04  0.10000000000E+01 0.  0.
    9000001   -1    0    0    0    0 -0.00000000000E+00 -0.00000000000E+00 -0.64999999231E+04  0.65000000000E+04  0.10000000000E+01 0.  0.
    9000001    1    1    2    0    0 -0.63069735440E+04  0.92393847901E+03  0.12721719233E+04  0.65000000000E+04  0.10000000000E+01 0.  0.
    9000001    1    1    2    0    0  0.63069735440E+04 -0.92393847901E+03 -0.12721719233E+04  0.65000000000E+04  0.10000000000E+01 0.  0.
</event>
<event>
 4    1  0.2195261E-006  0.1300000E+05  0.7957747E-01  0.1322471E+00
    9000001   -1    0    0    0    0  0.00000000000E+00  0.00000000000E+00  0.64999999231E+04  0.65000000000E+04  0.10000000000E+01 0.  0.
    9000001   -1    0    0    0    0 -0.00000000000E+00 -0.00000000000E+00 -0.64999999231E+04  0.65000000000E+04  0.10000000000E+01 0.  0.
    9000001    1    1    2    0    0 -0.52685215198E+04 -0.91421252145E+03 -0.36955237060E+04  0.65000000000E+04  0.10000000000E+01 0.  0.
    9000001    1    1    2    0    0  0.52685215198E+04  0.91421252145E+03  0.36955237060E+04  0.65000000000E+04  0.10000000000E+01 0.  0.
</event>
<event>
 4    1  0.2195261E-006  0.1300000E+05  0.7957747E-01  0.1322471E+00
    9000001   -1    0    0    0    0  0.00000000000E+00  0.00000000000E+00  0.64999999231E+04  0.65000000000E+04  0.10000000000E+01 0.  0.
    9000001   -1    0    0    0    0 -0.00000000000E+00 -0.00000000000E+00 -0.64999999231E+04  0.65000000000E+04  0.10000000000E+01 0.  0.
    9000001    1    1    2    0    0 -0.22165646922E+04 -0.45610000506E+04  0.40662167310E+04  0.65000000000E+04  0.10000000000E+01 0.  0.
    9000001    1    1    2    0    0  0.22165646922E+04  0.45610000506E+04 -0.40662167310E+04  0.65000000000E+04  0.10000000000E+01 0.  0.
</event>
<event>
 4    1  0.2195261E-006  0.1300000E+05  0.7957747E-01  0.1322471E+00
    9000001   -1    0    0    0    0  0.00000000000E+00  0.00000000000E+00  0.64999999231E+04  0.65000000000E+04  0.10000000000E+01 0.  0.
    9000001   -1    0    0    0    0 -0.00000000000E+00 -0.00000000000E+00 -0.64999999231E+04  0.65000000000E+04  0.10000000000E+01 0.  0.
    9000001    1    1    2    0    0  0.55766765418E+04  0.14462783668E+04 -0.30098100661E+04  0.65000000000E+04  0.10000000000E+01 0.  0.
    9000001    1    1    2    0    0 -0.55766765418E+04 -0.14462783668E+04  0.30098100661E+04  0.65000000000E+04  0.10000000000E+01 0.  0.
</event>
<event>
 4    1  0.2195261E-006  0.1300000E+05  0.7957747E-01  0.1322471E+00
    9000001   -1    0    0    0    0  0.00000000000E+00  0.00000000000E+00  0.64999999231E+04  0.65000000000E+04  0.10000000000E+01 0.  0.
    9000001   -1    0    0    0    0 -0.00000000000E+00 -0.00000000000E+00 -0.64999999231E+04  0.65000000000E+04  0.10000000000E+01 0.  0.
    9000001    1    1    2    0    0  0.22696275928E+04  0.53457049400E+04  0.29192855778E+04  0.65000000000E+04  0.10000000000E+01 0.  0.
    9000001    1    1    2    0    0 -0.22696275928E+04 -0.53457049400E+04 -0.29192855778E+04  0.65000000000E+04  0.10000000000E+01 0.  0.
</event>
<event>
 4    1  0.2195261E-006  0.1300000E+05  0.7957747E-01  0.1322471E+00
    9000001   -1    0    0    0    0  0.00000000000E+00  0.00000000000E+00  0.64999999231E+04  0.65000000000E+04  0.10000000000E+01 0.  0.
    9000001   -1    0    0    0    0 -0.00000000000E+00 -0.00000000000E+00 -0.64999999231E+04  0.65000000000E+04  0.10000000000E+01 0.  0.
    9000001    1    1    2    0    0 -0.64540114963E+04  0.26219108071E+03 -0.72594107365E+03  0.65000000000E+04  0.10000000000E+01 0.  0.
    9000001    1    1    2    0    0  0.64540114963E+04 -0.26219108071E+03  0.72594107365E+03  0.65000000000E+04  0.10000000000E+01 0.  0.
</event>
<event>
 4    1  0.2195261E-006  0.1300000E+05  0.7957747E-01  0.1322471E+00
    9000001   -1    0    0    0    0  0.00000000000E+00  0.00000000000E+00  0.64999999231E+04  0.65000000000E+04  0.10000000000E+01 0.  0.
    9000001   -1    0    0    0    0 -0.00000000000E+00 -0.00000000000E+00 -0.64999999231E+04  0.65000000000E+04  0.10000000000E+01 0.  0.
    9000001    1    1    2    0    0  0.60340618265E+04  0.81073604112E+03  0.22765772435E+04  0.65000000000E+04  0.10000000000E+01 0.  0.
    9000001    1    1    2    0    0 -0.60340618265E+04 -0.81073604112E+03 -0.22765772435E+04  0.65000000000E+04  0.10000000000E+01 0.  0.
</event>
<event>
 4    1  0.2195261E-006  0.1300000E+05  0.7957747E-01  0.1322471E+00
    9000001   -1    0    0    0    0  0.00000000000E+00  0.00000000000E+00  0.64999999231E+04  0.65000000000E+04  0.10000000000E+01 0.  0.
    9000001   -1    0    0    0    0 -0.00000000000E+00 -0.00000000000E+00 -0.64999999231E+04  0.65000000000E+04  0.10000000000E+01 0.  0.
    9000001    1    1    2    0    0  0.61936597197E+04 -0.19594803921E+04 -0.22139301919E+03  0.65000000000E+04  0.10000000000E+01 0.  0.
    9000001    1    1    2    0    0 -0.61936597197E+04  0.19594803921E+04  0.22139301919E+03  0.65000000000E+04  0.10000000000E+01 0.  0.
</event>
<event>
 4    1  0.2195261E-006  0.1300000E+05  0.7957747E-01  0.1322471E+00
    9000001   -1    0    0    0    0  0.00000000000E+00  0.00000000000E+00  0.64999999231E+04  0.65000000000E+04  0.10000000000E+01 0.  0.
    9000001   -1    0    0    0    0 -0.00000000000E+00 -0.00000000000E+00 -0.64999999231E+04  0.65000000000E+04  0.10000000000E+01 0.  0.
    9000001    1    1    2    0    0  0.33746063399E+04  0.47042860933E+01  0.55553585771E+04  0.65000000000E+04  0.10000000000E+01 0.  0.
    9000001    1    1    2    0    0 -0.33746063399E+04 -0.47042860933E+01 -0.55553585771E+04  0.65000000000E+04  0.10000000000E+01 0.  0.
</event>
<event>
 4    1  0.2195261E-006  0.1300000E+05  0.7957747E-01  0.1322471E+00
    9000001   -1    0    0    0    0  0.00000000000E+00  0.00000000000E+00  0.64999999231E+04  0.65000000000E+04  0.10000000000E+01 0.  0.
    9000001   -1    0    0    0    0 -0.00000000000E+00 -0.00000000000E+00 -0.64999999231E+04  0.65000000000E+04  0.10000000000E+01 0.  0.
    9000001    1    1    2    0    0  0.38337475836E+04 -0.43212585977E+04  0.29797823071E+04  0.65000000000E+04  0.10000000000E+01 0.  0.
    9000001    1    1    2    0    0 -0.38337475836E+04  0.43212585977E+04 -0.29797823071E+04  0.65000000000E+04  0.10000000000E+01 0.  0.
</event>
<event>
 4    1  0.2195261E-006  0.1300000E+05  0.7957747E-01  0.1322471E+00
    9000001   -1    0    0    0    0  0.00000000000E+00  0.00000000000E+00  0.64999999231E+04  0.65000000000E+04  0.10000000000E+01 0.  0.
    9000001   -1    0    0    0    0 -0.00000000000E+00 -0.00000000000E+00 -0.64999999231E+04  0.65000000000E+04  0.10000000000E+01 0.  0.
    9000001    1    1    2    0    0 -0.12759450276E+04 -0.56762033610E+04 -0.28987374305E+04  0.65000000000E+04  0.10000000000E+01 0.  0.
    9000001    1    1    2    0    0  0.12759450276E+04  0.56762033610E+04  0.28987374305E+04  0.65000000000E+04  0.10000000000E+01 0.  0.
</event>
<event>
 4    1  0.2195261E-006  0.1300000E+05  0.7957747E-01  0.1322471E+00
    9000001   -1    0    0    0    0  0.00000000000E+00  0.00000000000E+00  0.64999999231E+04  0.65000000000E+04  0.10000000000E+01 0.  0.
    9000001   -1    0    0    0    0 -0.00000000000E+00 -0.00000000000E+00 -0.64999999231E+04  0.65000000000E+04  0.10000000000E+01 0.  0.
    9000001    1    1    2    0    0 -0.55695567588E+04  0.26459899582E+04 -0.20563982229E+04  0.65000000000E+04  0.10000000000E+01 0.  0.
    9000001    1    1    2    0    0  0.55695567588E+04 -0.26459899582E+04  0.20563982229E+04  0.65000000000E+04  0.10000000000E+01 0.  0.
</event>
<event>
 4    1  0.2195261E-006  0.1300000E+05  0.7957747E-01  0.1322471E+00
    9000001   -1    0    0    0    0  0.00000000000E+00  0.00000000000E+00  0.64999999231E+04  0.65000000000E+04  0.10000000000E+01 0.  0.
    9000001   -1    0    0    0    0 -0.00000000000E+00 -0.00000000000E+00 -0.64999999231E+04  0.65000000000E+04  0.10000000000E+01 0.  0.
    9000001    1    1    2    0    0 -0.39316595700E+04  0.10469802890E+03  0.51750449610E+04  0.65000000000E+04  0.10000000000E+01 0.  0.
    9000001    1    1    2    0    0  0.39316595700E+04 -0.10469802890E+03 -0.51750449610E+04  0.65000000000E+04  0.10000000000E+01 0.  0.
</event>
<event>
 4    1  0.2195261E-006  0.1300000E+05  0.7957747E-01  0.1322471E+00
    9000001   -1    0    0    0    0  0.00000000000E+00  0.00000000000E+00  0.64999999231E+04  0.65000000000E+04  0.10000000000E+01 0.  0.
    9000001   -1    0    0    0    0 -0.00000000000E+00 -0.00000000000E+00 -0.64999999231E+04  0.65000000000E+04  0.10000000000E+01 0.  0.
    9000001    1    1    2    0    0  0.11810672102E+03  0.19088464250E+04  0.62122745535E+04  0.65000000000E+04  0.10000000000E+01 0.  0.
    9000001    1    1    2    0    0 -0.11810672102E+03 -0.19088464250E+04 -0.62122745535E+04  0.65000000000E+04  0.10000000000E+01 0.  0.
</event>
<event>
 4    1  0.2195261E-006  0.1300000E+05  0.7957747E-01  0.1322471E+00
    9000001   -1    0    0    0    0  0.00000000000E+00  0.00000000000E+00  0.64999999231E+04  0.65000000000E+04  0.10000000000E+01 0.  0.
    9000001   -1    0    0    0    0 -0.00000000000E+00 -0.00000000000E+00 -0.64999999231E+04  0.65000000000E+04  0.10000000000E+01 0.  0.
    9000001    1    1    2    0    0  0.30620555957E+04 -0.36907724619E+04  0.43877116090E+04  0.65000000000E+04  0.10000000000E+01 0.  0.
    9000001    1    1    2    0    0 -0.30620555957E+04  0.36907724619E+04 -0.43877116090E+04  0.65000000000E+04  0.10000000000E+01 0.  0.
</event>
<event>
 4    1  0.2195261E-006  0.1300000E+05  0.7957747E-01  0.1322471E+00
    9000001   -1    0    0    0    0  0.00000000000E+00  0.00000000000E+00  0.64999999231E+04  0.65000000000E+04  0.10000000000E+01 0.  0.
    9000001   -1    0    0    0    0 -0.00000000000E+00 -0.00000000000E+00 -0.64999999231E+04  0.65000000000E+04  0.10000000000E+01 0.  0.
    9000001    1    1    2    0    0 -0.18989961045E+04 -0.27602203619E+04 -0.55700086489E+04  0.65000000000E+04  0.10000000000E+01 0.  0.
    9000001    1    1    2    0    0  0.18989961045E+04  0.27602203619E+04  0.55700086489E+04  0.65000000000E+04  0.10000000000E+01 0.  0.
</event>
<event>
 4    1  0.2195261E-006  0.1300000E+05  0.7957747E-01  0.1322471E+00
    9000001   -1    0    0    0    0  0.00000000000E+00  0.00000000000E+00  0.64999999231E+04  0.65000000000E+04  0.10000000000E+01 0.  0.
    9000001   -1    0    0    0    0 -0.00000000000E+00 -0.00000000000E+00 -0.64999999231E+04  0.65000000000E+04  0.10000000000E+01 0.  0.
    9000001    1    1    2    0    0  0.40942521068E+04  0.50231455325E+04 -0.50508182014E+03  0.65000000000E+04  0.10000000000E+01 0.  0.
    9000001    1    1    2    0    0 -0.40942521068E+04 -0.50231455325E+04  0.50508182014E+03  0.65000000000E+04  0.10000000000E+01 0.  0.
</event>
<event>
 4    1  0.2195261E-006  0.1300000E+05  0.7957747E-01  0.1322471E+00
    9000001   -1    0    0    0    0  0.00000000000E+00  0.00000000000E+00  0.64999999231E+04  0.65000000000E+04  0.10000000000E+01 0.  0.
    9000001   -1    0    0    0    0 -0.00000000000E+00 -0.00000000000E+00 -0.64999999231E+04  0.65000000000E+04  0.10000000000E+01 0.  0.
    9000001    1    1    2    0    0  0.35089917047E+04 -0.87837390488E+03 -0.54005032636E+04  0.65000000000E+04  0.10000000000E+01 0.  0.
    9000001    1    1    2    0    0 -0.35089917047E+04  0.87837390488E+03  0.54005032636E+04  0.65000000000E+04  0.10000000000E+01 0.  0.
</event>
<event>
 4    1  0.2195261E-006  0.1300000E+05  0.7957747E-01  0.1322471E+00
    9000001   -1    0    0    0    0  0.00000000000E+00  0.00000000000E+00  0.64999999231E+04  0.65000000000E+04  0.10000000000E+01 0.  0.
    9000001   -1    0    0    0    0 -0.00000000000E+00 -0.00000000000E+00 -0.64999999231E+04  0.65000000000E+04  0.10000000000E+01 0.  0.
    9000001    1    1    2    0    0 -0.61691306502E+04  0.17408562058E+04  0.10776111040E+04  0.65000000000E+04  0.10000000000E+01 0.  0.
    9000001    1    1    2    0    0  0.61691306502E+04 -0.17408562058E+04 -0.10776111040E+04  0.65000000000E+04  0.10000000000E+01 0.  0.
</event>
<event>
 4    1  0.2195261E-006  0.1300000E+05  0.7957747E-01  0.1322471E+00
    9000001   -1    0    0    0    0  0.00000000000E+00  0.00000000000E+00  0.64999999231E+04  0.65000000000E+04  0.10000000000E+01 0.  0.
    9000001   -1    0    0    0    0 -0.00000000000E+00 -0.00000000000E+00 -0.64999999231E+04  0.65000000000E+04  0.10000000000E+01 0.  0.
    9000001    1    1    2    0    0  0.52447816632E+04 -0.70232921229E+02 -0.38389232399E+04  0.65000000000E+04  0.10000000000E+01 0.  0.
    9000001    1    1    2    0    0 -0.52447816632E+04  0.70232921229E+02  0.38389232399E+04  0.65000000000E+04  0.10000000000E+01 0.  0.
</event>
<event>
 4    1  0.2195261E-006  0.1300000E+05  0.7957747E-01  0.1322471E+00
    9000001   -1    0    0    0    0  0.00000000000E+00  0.00000000000E+00  0.64999999231E+04  0.65000000000E+04  0.10000000000E+01 0.  0.
    9000001   -1    0    0    0    0 -0.00000000000E+00 -0.00000000000E+00 -0.64999999231E+04  0.65000000000E+04  0.10000000000E+01 0.  0.
    9000001    1    1    2    0    0  0.53838850267E+04  0.63255685846E+03  0.35865934869E+04  0.65000000000E+04  0.10000000000E+01 0.  0.
    9000001    1    1    2    0    0 -0.53838850267E+04 -0.63255685846E+03 -0.35865934869E+04  0.65000000000E+04  0.10000000000E+01 0.  0.
</event>
<event>
 4    1  0.2195261E-006  0.1300000E+05  0.7957747E-01  0.1322471E+00
    9000001   -1    0    0    0    0  0.00000000000E+00  0.00000000000E+00  0.64999999231E+04  0.65000000000E+04  0.10000000000E+01 0.  0.
    9000001   -1    0    0    0    0 -0.00000000000E+00 -0.00000000000E+00 -0.64999999231E+04  0.65000000000E+04  0.10000000000E+01 0.  0.
    9000001    1    1    2    0    0 -0.62788979891E+04  0.83869474614E+03  0.14567189725E+04  0.65000000000E+04  0.10000000000E+01 0.  0.
    9000001    1    1    2    0    0  0.62788979891E+04 -0.83869474614E+03 -0.14567189725E+04  0.65000000000E+04  0.10000000000E+01 0.  0.
</event>
<event>
 4    1  0.2195261E-006  0.1300000E+05  0.7957747E-01  0.1322471E+00
    9000001   -1    0    0    0    0  0.00000000000E+00  0.00000000000E+00  0.64999999231E+04  0.65000000000E+04  0.10000000000E+01 0.  0.
    9000001   -1    0    0    0    0 -0.00000000000E+00 -0.00000000000E+00 -0.64999999231E+04  0.65000000000E+04  0.10000000000E+01 0.  0.
    9000001    1    1    2    0    0 -0.61767683715E+04  0.20140046998E+04 -0.20326474051E+03  0.65000000000E+04  0.10000000000E+01 0.  0.
    9000001    1    1    2    0    0  0.61767683715E+04 -0.20140046998E+04  0.20326474051E+03  0.65000000000E+04  0.10000000000E+01 0.  0.
</event>
<event>
 4    1  0.2195261E-006  0.1300000E+05  0.7957747E-01  0.1322471E+00
    9000001   -1    0    0    0    0  0.00000000000E+00  0.00000000000E+00  0.64999999231E+04  0.65000000000E+04  0.10000000000E+01 0.  0.
    9000001   -1    0    0    0    0 -0.00000000000E+00 -0.00000000000E+00 -0.64999999231E+04  0.65000000000E+04  0.10000000000E+01 0.  0.
    9000001    1    1    2    0    0 -0.90491360982E+03  0.63579194424E+04  0.10039874117E+04  0.65000000000E+04  0.10000000000E+01 0.  0.
    9000001    1    1    2    0    0  0.90491360982E+03 -0.63579194424E+04 -0.10039874117E+04  0.65000000000E+04  0.10000000000E+01 0.  0.
</event>
<event>
 4    1  0.2195261E-006  0.1300000E+05  0.7957747E-01  0.1322471E+00
    9000001   -1    0    0    0    0  0.00000000000E+00  0.00000000000E+00  0.64999999231E+04  0.65000000000E+04  0.10000000000E+01 0.  0.
    9000001   -1    0    0    0    0 -0.00000000000E+00 -0.00000000000E+00 -0.64999999231E+04  0.65000000000E+04  0.10000000000E+01 0.  0.
    9000001    1    1    2    0    0  0.61592243181E+04  0.18490358881E+04  0.94605553941E+03  0.65000000000E+04  0.10000000000E+01 0.  0.
    9000001    1    1    2    0    0 -0.61592243181E+04 -0.18490358881E+04 -0.94605553941E+03  0.65000000000E+04  0.10000000000E+01 0.  0.
</event>
<event>
 4    1  0.2195261E-006  0.1300000E+05  0.7957747E-01  0.1322471E+00
    9000001   -1    0    0    0    0  0.00000000000E+00  0.00000000000E+00  0.64999999231E+04  0.65000000000E+04  0.10000000000E+01 0.  0.
    9000001   -1    0    0    0    0 -0.00000000000E+00 -0.00000000000E+00 -0.64999999231E+04  0.65000000000E+04  0.10000000000E+01 0.  0.
    9000001    1    1    2    0    0  0.18336658892E+04  0.48687534001E+04  0.38965252130E+04  0.65000000000E+04  0.10000000000E+01 0.  0.
    9000001    1    1    2    0    0 -0.18336658892E+04 -0.48687534001E+04 -0.38965252130E+04  0.65000000000E+04  0.10000000000E+01 0.  0.
</event>
<event>
 4    1  0.2195261E-006  0.1300000E+05  0.7957747E-01  0.1322471E+00
    9000001   -1    0    0    0    0  0.00000000000E+00  0.00000000000E+00  0.64999999231E+04  0.65000000000E+04  0.10000000000E+01 0.  0.
    9000001   -1    0    0    0    0 -0.00000000000E+00 -0.00000000000E+00 -0.64999999231E+04  0.65000000000E+04  0.10000000000E+01 0.  0.
    9000001    1    1    2    0    0 -0.64445431879E+04 -0.19393887797E+03  0.82477258159E+03  0.65000000000E+04  0.10000000000E+01 0.  0.
    9000001    1    1    2    0    0  0.64445431879E+04  0.19393887797E+03 -0.82477258159E+03  0.65000000000E+04  0.10000000000E+01 0.  0.
</event>
<event>
 4    1  0.2195261E-006  0.1300000E+05  0.7957747E-01  0.1322471E+00
    9000001   -1    0    0    0    0  0.00000000000E+00  0.00000000000E+00  0.64999999231E+04  0.65000000000E+04  0.10000000000E+01 0.  0.
    9000001   -1    0    0    0    0 -0.00000000000E+00 -0.00000000000E+00 -0.64999999231E+04  0.65000000000E+04  0.10000000000E+01 0.  0.
    9000001    1    1    2    0    0 -0.13612108073E+03 -0.60819887042E+04 -0.22892975894E+04  0.65000000000E+04  0.10000000000E+01 0.  0.
    9000001    1    1    2    0    0  0.13612108073E+03  0.60819887042E+04  0.22892975894E+04  0.65000000000E+04  0.10000000000E+01 0.  0.
</event>
<event>
 4    1  0.2195261E-006  0.1300000E+05  0.7957747E-01  0.1322471E+00
    9000001   -1    0    0    0    0  0.00000000000E+00  0.00000000000E+00  0.64999999231E+04  0.65000000000E+04  0.10000000000E+01 0.  0.
    9000001   -1    0    0    0    0 -0.00000000000E+00 -0.00000000000E+00 -0.64999999231E+04  0.65000000000E+04  0.10000000000E+01 0.  0.
    9000001    1    1    2    0    0 -0.52760621103E+04 -0.18118364864E+04  0.33362278332E+04  0.65000000000E+04  0.10000000000E+01 0.  0.
    9000001    1    1    2    0    0  0.52760621103E+04  0.18118364864E+04 -0.33362278332E+04  0.65000000000E+04  0.10000000000E+01 0.  0.
</event>
<event>
 4    1  0.2195261E-006  0.1300000E+05  0.7957747E-01  0.1322471E+00
    9000001   -1    0    0    0    0  0.00000000000E+00  0.00000000000E+00  0.64999999231E+04  0.65000000000E+04  0.10000000000E+01 0.  0.
    9000001   -1    0    0    0    0 -0.00000000000E+00 -0.00000000000E+00 -0.64999999231E+04  0.65000000000E+04  0.10000000000E+01 0.  0.
    9000001    1    1    2    0    0  0.44699897682E+04 -0.30509379780E+04  0.36001344317E+04  0.65000000000E+04  0.10000000000E+01 0.  0.
    9000001    1    1    2    0    0 -0.44699897682E+04  0.30509379780E+04 -0.36001344317E+04  0.65000000000E+04  0.10000000000E+01 0.  0.
</event>
<event>
 4    1  0.2195261E-006  0.1300000E+05  0.7957747E-01  0.1322471E+00
    9000001   -1    0    0    0    0  0.00000000000E+00  0.00000000000E+00  0.64999999231E+04  0.65000000000E+04  0.10000000000E+01 0.  0.
    9000001   -1    0    0    0    0 -0.00000000000E+00 -0.00000000000E+00 -0.64999999231E+04  0.65000000000E+04  0.10000000000E+01 0.  0.
    9000001    1    1    2    0    0  0.23346285709E+04 -0.60082052184E+04 -0.83724458197E+03  0.65000000000E+04  0.10000000000E+01 0.  0.
    9000001    1    1    2    0    0 -0.23346285709E+04  0.60082052184E+04  0.83724458197E+03  0.65000000000E+04  0.10000000000E+01 0.  0.
</event>
<event>
 4    1  0.2195261E-006  0.1300000E+05  0.7957747E-01  0.1322471E+00
    9000001   -1    0    0    0    0  0.00000000000E+00  0.00000000000E+00  0.64999999231E+04  0.65000000000E+04  0.10000000000E+01 0.  0.
    9000001   -1    0    0    0    0 -0.00000000000E+00 -0.00000000000E+00 -0.64999999231E+04  0.65000000000E+04  0.10000000000E+01 0.  0.
    9000001    1    1    2    0    0 -0.21029509423E+04 -0.43116748347E+04  0.43860068917E+04  0.65000000000E+04  0.10000000000E+01 0.  0.
    9000001    1    1    2    0    0  0.21029509423E+04  0.43116748347E+04 -0.43860068917E+04  0.65000000000E+04  0.10000000000E+01 0.  0.
</event>
<event>
 4    1  0.2195261E-006  0.1300000E+05  0.7957747E-01  0.1322471E+00
    9000001   -1    0    0    0    0  0.00000000000E+00  0.00000000000E+00  0.64999999231E+04  0.65000000000E+04  0.10000000000E+01 0.  0.
    9000001   -1    0    0    0    0 -0.00000000000E+00 -0.00000000000E+00 -0.64999999231E+04  0.65000000000E+04  0.10000000000E+01 0.  0.
    9000001    1    1    2    0    0 -0.56255955734E+04 -0.32447642608E+04 -0.27235700210E+03  0.65000000000E+04  0.10000000000E+01 0.  0.
    9000001    1    1    2    0    0  0.56255955734E+04  0.32447642608E+04  0.27235700210E+03  0.65000000000E+04  0.10000000000E+01 0.  0.
</event>
<event>
 4    1  0.2195261E-006  0.1300000E+05  0.7957747E-01  0.1322471E+00
    9000001   -1    0    0    0    0  0.00000000000E+00  0.00000000000E+00  0.64999999231E+04  0.65000000000E+04  0.10000000000E+01 0.  0.
    9000001   -1    0    0    0    0 -0.00000000000E+00 -0.00000000000E+00 -0.64999999231E+04  0.65000000000E+04  0.10000000000E+01 0.  0.
    9000001    1    1    2    0    0 -0.26733707079E+03  0.39762407968E+04 -0.51349818906E+04  0.65000000000E+04  0.10000000000E+01 0.  0.
    9000001    1    1    2    0    0  0.26733707079E+03 -0.39762407968E+04  0.51349818906E+04  0.65000000000E+04  0.10000000000E+01 0.  0.
</event>
<event>
 4    1  0.2195261E-006  0.1300000E+05  0.7957747E-01  0.1322471E+00
    9000001   -1    0    0    0    0  0.00000000000E+00  0.00000000000E+00  0.64999999231E+04  0.65000000000E+04  0.10000000000E+01 0.  0.
    9000001   -1    0    0    0    0 -0.00000000000E+00 -0.00000000000E+00 -0.64999999231E+04  0.65000000000E+04  0.10000000000E+01 0.  0.
    9000001    1    1    2    0    0 -0.27098580636E+04 -0.49246502892E+04 -0.32641212913E+04  0.65000000000E+04  0.10000000000E+01 0.  0.
    9000001    1    1    2    0    0  0.27098580636E+04  0.49246502892E+04  0.32641212913E+04  0.65000000000E+04  0.10000000000E+01 0.  0.
</event>
<event>
 4    1  0.2195261E-006  0.1300000E+05  0.7957747E-01  0.1322471E+00
    9000001   -1    0    0    0    0  0.00000000000E+00  0.00000000000E+00  0.64999999231E+04  0.65000000000E+04  0.10000000000E+01 0.  0.
    9000001   -1    0    0    0    0 -0.00000000000E+00 -0.00000000000E+00 -0.64999999231E+04  0.65000000000E+04  0.10000000000E+01 0.  0.
    9000001    1    1    2    0    0 -0.16121601559E+04 -0.33509210725E+04 -0.53312537548E+04  0.65000000000E+04  0.10000000000E+01 0.  0.
    9000001    1    1    2    0    0  0.16121601559E+04  0.33509210725E+04  0.53312537548E+04  0.65000000000E+04  0.10000000000E+01 0.  0.
</event>
<event>
 4    1  0.2195261E-006  0.1300000E+05  0.7957747E-01  0.1322471E+00
    9000001   -1    0    0    0    0  0.00000000000E+00  0.00000000000E+00  0.64999999231E+04  0.65000000000E+04  0.10000000000E+01 0.  0.
    9000001   -1    0    0    0    0 -0.00000000000E+00 -0.00000000000E+00 -0.64999999231E+04  0.65000000000E+04  0.10000000000E+01 0.  0.
    9000001    1    1    2    0    0 -0.55969012975E+04 -0.29411317050E+04  0.15081243846E+04  0.65000000000E+04  0.10000000000E+01 0.  0.
    9000001    1    1    2    0    0  0.55969012975E+04  0.29411317050E+04 -0.15081243846E+04  0.65000000000E+04  0.10000000000E+01 0.  0.
</event>
<event>
 4    1  0.2195261E-006  0.1300000E+05  0.7957747E-01  0.1322471E+00
    9000001   -1    0    0    0    0  0.00000000000E+00  0.00000000000E+00  0.64999999231E+04  0.65000000000E+04  0.10000000000E+01 0.  0.
    9000001   -1    0    0    0    0 -0.00000000000E+00 -0.00000000000E+00 -0.64999999231E+04  0.65000000000E+04  0.10000000000E+01 0.  0.
    9000001    1    1    2    0    0 -0.27539007258E+04 -0.17713467138E+04 -0.56150120758E+04  0.65000000000E+04  0.10000000000E+01 0.  0.
    9000001    1    1    2    0    0  0.27539007258E+04  0.17713467138E+04  0.56150120758E+04  0.65000000000E+04  0.10000000000E+01 0.  0.
</event>
<event>
 4    1  0.2195261E-006  0.1300000E+05  0.7957747E-01  0.1322471E+00
    9000001   -1    0    0    0    0  0.00000000000E+00  0.00000000000E+00  0.64999999231E+04  0.65000000000E+04  0.10000000000E+01 0.  0.
    9000001   -1    0    0    0    0 -0.00000000000E+00 -0.00000000000E+00 -0.64999999231E+04  0.65000000000E+04  0.10000000000E+01 0.  0.
    9000001    1    1    2    0    0 -0.59781537713E+04 -0.16571890403E+04  0.19404641123E+04  0.65000000000E+04  0.10000000000E+01 0.  0.
    9000001    1    1    2    0    0  0.59781537713E+04  0.16571890403E+04 -0.19404641123E+04  0.65000000000E+04  0.10000000000E+01 0.  0.
</event>
<event>
 4    1  0.2195261E-006  0.1300000E+05  0.7957747E-01  0.1322471E+00
    9000001   -1    0    0    0    0  0.00000000000E+00  0.00000000000E+00  0.64999999231E+04  0.65000000000E+04  0.10000000000E+01 0.  0.
    9000001   -1    0    0    0    0 -0.00000000000E+00 -0.00000000000E+00 -0.64999999231E+04  0.65000000000E+04  0.10000000000E+01 0.  0.
    9000001    1    1    2    0    0  0.51518850574E+04  0.11855100623E+04 -0.37818838226E+04  0.65000000000E+04  0.10000000000E+01 0.  0.
    9000001    1    1    2    0    0 -0.51518850574E+04 -0.11855100623E+04  0.37818838226E+04  0.65000000000E+04  0.10000000000E+01 0.  0.
</event>
<event>
 4    1  0.2195261E-006  0.1300000E+05  0.7957747E-01  0.1322471E+00
    9000001   -1    0    0    0    0  0.00000000000E+00  0.00000000000E+00  0.64999999231E+04  0.65000000000E+04  0.10000000000E+01 0.  0.
    9000001   -1    0    0    0    0 -0.00000000000E+00 -0.00000000000E+00 -0.64999999231E+04  0.65000000000E+04  0.10000000000E+01 0.  0.
    9000001    1    1    2    0    0 -0.32406408447E+04 -0.16161214963E+03  0.56322400010E+04  0.65000000000E+04  0.10000000000E+01 0.  0.
    9000001    1    1    2    0    0  0.32406408447E+04  0.16161214963E+03 -0.56322400010E+04  0.65000000000E+04  0.10000000000E+01 0.  0.
</event>
<event>
 4    1  0.2195261E-006  0.1300000E+05  0.7957747E-01  0.1322471E+00
    9000001   -1    0    0    0    0  0.00000000000E+00  0.00000000000E+00  0.64999999231E+04  0.65000000000E+04  0.10000000000E+01 0.  0.
    9000001   -1    0    0    0    0 -0.00000000000E+00 -0.00000000000E+00 -0.64999999231E+04  0.65000000000E+04  0.10000000000E+01 0.  0.
    9000001    1    1    2    0    0  0.18551144606E+04 -0.18935249995E+04  0.59349062684E+04  0.65000000000E+04  0.10000000000E+01 0.  0.
    9000001    1    1    2    0    0 -0.18551144606E+04  0.18935249995E+04 -0.59349062684E+04  0.65000000000E+04  0.10000000000E+01 0.  0.
</event>
<event>
 4    1  0.2195261E-006  0.1300000E+05  0.7957747E-01  0.1322471E+00
    9000001   -1    0    0    0    0  0.00000000000E+00  0.00000000000E+00  0.64999999231E+04  0.65000000000E+04  0.10000000000E+01 0.  0.
    9000001   -1    0    0    0    0 -0.00000000000E+00 -0.00000000000E+00 -0.64999999231E+04  0.65000000000E+04  0.10000000000E+01 0.  0.
    9000001    1    1    2    0    0 -0.33673038509E+04  0.11792302397E+04  0.54332936436E+04  0.65000000000E+04  0.10000000000E+01 0.  0.
    9000001    1    1    2    0    0  0.33673038509E+04 -0.11792302397E+04 -0.54332936436E+04  0.65000000000E+04  0.10000000000E+01 0.  0.
</event>
<event>
 4    1  0.2195261E-006  0.1300000E+05  0.7957747E-01  0.1322471E+00
    9000001   -1    0    0    0    0  0.00000000000E+00  0.00000000000E+00  0.64999999231E+04  0.65000000000E+04  0.10000000000E+01 0.  0.
    9000001   -1    0    0    0    0 -0.00000000000E+00 -0.00000000000E+00 -0.64999999231E+04  0.65000000000E+04  0.10000000000E+01 0.  0.
    9000001    1    1    2    0    0  0.57922452540E+04 -0.13378196639E+03 -0.29465227477E+04  0.65000000000E+04  0.10000000000E+01 0.  0.
    9000001    1    1    2    0    0 -0.57922452540E+04  0.13378196639E+03  0.29465227477E+04  0.65000000000E+04  0.10000000000E+01 0.  0.
</event>
<event>
 4    1  0.2195261E-006  0.1300000E+05  0.7957747E-01  0.1322471E+00
    9000001   -1    0    0    0    0  0.00000000000E+00  0.00000000000E+00  0.64999999231E+04  0.65000000000E+04  0.10000000000E+01 0.  0.
    9000001   -1    0    0    0    0 -0.00000000000E+00 -0.00000000000E+00 -0.64999999231E+04  0.65000000000E+04  0.10000000000E+01 0.  0.
    9000001    1    1    2    0    0 -0.51979655608E+04 -0.94552306481E+03  0.37864414907E+04  0.65000000000E+04  0.10000000000E+01 0.  0.
    9000001    1    1    2    0    0  0.51979655608E+04  0.94552306481E+03 -0.37864414907E+04  0.65000000000E+04  0.10000000000E+01 0.  0.
</event>
<event>
 4    1  0.2195261E-006  0.1300000E+05  0.7957747E-01  0.1322471E+00
    9000001   -1    0    0    0    0  0.00000000000E+00  0.00000000000E+00  0.64999999231E+04  0.65000000000E+04  0.10000000000E+01 0.  0.
    9000001   -1    0    0    0    0 -0.00000000000E+00 -0.00000000000E+00 -0.64999999231E+04  0.65000000000E+04  0.10000000000E+01 0.  0.
    9000001    1    1    2    0    0 -0.27590181225E+04 -0.51278650924E+04  0.28883936009E+04  0.65000000000E+04  0.10000000000E+01 0.  0.
    9000001    1    1    2    0    0  0.27590181225E+04  0.51278650924E+04 -0.28883936009E+04  0.65000000000E+04  0.10000000000E+01 0.  0.
</event>
<event>
 4    1  0.2195261E-006  0.1300000E+05  0.7957747E-01  0.1322471E+00
    9000001   -1    0    0    0    0  0.00000000000E+00  0.00000000000E+00  0.64999999231E+04  0.65000000000E+04  0.10000000000E+01 0.  0.
    9000001   -1    0    0    0    0 -0.00000000000E+00 -0.00000000000E+00 -0.64999999231E+04  0.65000000000E+04  0.10000000000E+01 0.  0.
    9000001    1    1    2    0    0 -0.62199294985E+04  0.18873110297E+04  0.23089195275E+02  0.65000000000E+04  0.10000000000E+01 0.  0.
    9000001    1    1    2    0    0  0.62199294985E+04 -0.18873110297E+04 -0.23089195275E+02  0.65000000000E+04  0.10000000000E+01 0.  0.
</event>
<event>
 4    1  0.2195261E-006  0.1300000E+05  0.7957747E-01  0.1322471E+00
    9000001   -1    0    0    0    0  0.00000000000E+00  0.00000000000E+00  0.64999999231E+04  0.65000000000E+04  0.10000000000E+01 0.  0.
    9000001   -1    0    0    0    0 -0.00000000000E+00 -0.00000000000E+00 -0.64999999231E+04  0.65000000000E+04  0.10000000000E+01 0.  0.
    9000001    1    1    2    0    0  0.63235785166E+04  0.14843384656E+04 -0.24309064836E+03  0.65000000000E+04  0.10000000000E+01 0.  0.
    9000001    1    1    2    0    0 -0.63235785166E+04 -0.14843384656E+04  0.24309064836E+03  0.65000000000E+04  0.10000000000E+01 0.  0.
</event>
<event>
 4    1  0.2195261E-006  0.1300000E+05  0.7957747E-01  0.1322471E+00
    9000001   -1    0    0    0    0  0.00000000000E+00  0.00000000000E+00  0.64999999231E+04  0.65000000000E+04  0.10000000000E+01 0.  0.
    9000001   -1    0    0    0    0 -0.00000000000E+00 -0.00000000000E+00 -0.64999999231E+04  0.65000000000E+04  0.10000000000E+01 0.  0.
    9000001    1    1    2    0    0  0.33126589592E+04 -0.18216505562E+04 -0.52875210516E+04  0.65000000000E+04  0.10000000000E+01 0.  0.
    9000001    1    1    2    0    0 -0.33126589592E+04  0.18216505562E+04  0.52875210516E+04  0.65000000000E+04  0.10000000000E+01 0.  0.
</event>
<event>
 4    1  0.2195261E-006  0.1300000E+05  0.7957747E-01  0.1322471E+00
    9000001   -1    0    0    0    0  0.00000000000E+00  0.00000000000E+00  0.64999999231E+04  0.65000000000E+04  0.10000000000E+01 0.  0.
    9000001   -1    0    0    0    0 -0.00000000000E+00 -0.00000000000E+00 -0.64999999231E+04  0.65000000000E+04  0.10000000000E+01 0.  0.
    9000001    1    1    2    0    0 -0.35167937517E+04  0.43334228994E+04  0.33322074789E+04  0.65000000000E+04  0.10000000000E+01 0.  0.
    9000001    1    1    2    0    0  0.35167937517E+04 -0.43334228994E+04 -0.33322074789E+04  0.65000000000E+04  0.10000000000E+01 0.  0.
</event>
<event>
 4    1  0.2195261E-006  0.1300000E+05  0.7957747E-01  0.1322471E+00
    9000001   -1    0    0    0    0  0.00000000000E+00  0.00000000000E+00  0.64999999231E+04  0.65000000000E+04  0.10000000000E+01 0.  0.
    9000001   -1    0    0    0    0 -0.00000000000E+00 -0.00000000000E+00 -0.64999999231E+04  0.65000000000E+04  0.10000000000E+01 0.  0.
    9000001    1    1    2    0    0 -0.17722265805E+03  0.59810510137E+04  0.25388225423E+04  0.65000000000E+04  0.10000000000E+01 0.  0.
    9000001    1    1    2    0    0  0.17722265805E+03 -0.59810510137E+04 -0.25388225423E+04  0.65000000000E+04  0.10000000000E+01 0.  0.
</event>
<event>
 4    1  0.2195261E-006  0.1300000E+05  0.7957747E-01  0.1322471E+00
    9000001   -1    0    0    0    0  0.00000000000E+00  0.00000000000E+00  0.64999999231E+04  0.65000000000E+04  0.10000000000E+01 0.  0.
    9000001   -1    0    0    0    0 -0.00000000000E+00 -0.00000000000E+00 -0.64999999231E+04  0.65000000000E+04  0.10000000000E+01 0.  0.
    9000001    1    1    2    0    0 -0.47161207617E+04  0.27574891991E+04 -0.35219962064E+04  0.65000000000E+04  0.10000000000E+01 0.  0.
    9000001    1    1    2    0    0  0.47161207617E+04 -0.27574891991E+04  0.35219962064E+04  0.65000000000E+04  0.10000000000E+01 0.  0.
</event>
<event>
 4    1  0.2195261E-006  0.1300000E+05  0.7957747E-01  0.1322471E+00
    9000001   -1    0    0    0    0  0.00000000000E+00  0.00000000000E+00  0.64999999231E+04  0.65000000000E+04  0.10000000000E+01 0.  0.
    9000001   -1    0    0    0    0 -0.00000000000E+00 -0.00000000000E+00 -0.64999999231E+04  0.65000000000E+04  0.10000000000E+01 0.  0.
    9000001    1    1    2    0    0  0.16879864281E+04  0.60297562560E+04  0.17443452388E+04  0.65000000000E+04  0.10000000000E+01 0.  0.
    9000001    1    1    2    0    0 -0.16879864281E+04 -0.60297562560E+04 -0.17443452388E+04  0.65000000000E+04  0.10000000000E+01 0.  0.
</event>
<event>
 4    1  0.2195261E-006  0.1300000E+05  0.7957747E-01  0.1322471E+00
    9000001   -1    0    0    0    0  0.00000000000E+00  0.00000000000E+00  0.64999999231E+04  0.65000000000E+04  0.10000000000E+01 0.  0.
    9000001   -1    0    0    0    0 -0.00000000000E+00 -0.00000000000E+00 -0.64999999231E+04  0.65000000000E+04  0.10000000000E+01 0.  0.
    9000001    1    1    2    0    0 -0.25188231454E+03 -0.66220701127E+03 -0.64612720244E+04  0.65000000000E+04  0.10000000000E+01 0.  0.
    9000001    1    1    2    0    0  0.25188231454E+03  0.66220701127E+03  0.64612720244E+04  0.65000000000E+04  0.10000000000E+01 0.  0.
</event>
<event>
 4    1  0.2195261E-006  0.1300000E+05  0.7957747E-01  0.1322471E+00
    9000001   -1    0    0    0    0  0.00000000000E+00  0.00000000000E+00  0.64999999231E+04  0.65000000000E+04  0.10000000000E+01 0.  0.
    9000001   -1    0    0    0    0 -0.00000000000E+00 -0.00000000000E+00 -0.64999999231E+04  0.65000000000E+04  0.10000000000E+01 0.  0.
    9000001    1    1    2    0    0  0.52258259132E+04  0.38277053198E+04 -0.53797259166E+03  0.65000000000E+04  0.10000000000E+01 0.  0.
    9000001    1    1    2    0    0 -0.52258259132E+04 -0.38277053198E+04  0.53797259166E+03  0.65000000000E+04  0.10000000000E+01 0.  0.
</event>
<event>
 4    1  0.2195261E-006  0.1300000E+05  0.7957747E-01  0.1322471E+00
    9000001   -1    0    0    0    0  0.00000000000E+00  0.00000000000E+00  0.64999999231E+04  0.65000000000E+04  0.10000000000E+01 0.  0.
    9000001   -1    0    0    0    0 -0.00000000000E+00 -0.00000000000E+00 -0.64999999231E+04  0.65000000000E+04  0.10000000000E+01 0.  0.
    9000001    1    1    2    0    0  0.22212967473E+04  0.25067298231E+03 -0.61035238032E+04  0.65000000000E+04  0.10000000000E+01 0.  0.
    9000001    1    1    2    0    0 -0.22212967473E+04 -0.25067298231E+03  0.61035238032E+04  0.65000000000E+04  0.10000000000E+01 0.  0.
</event>
<event>
 4    1  0.2195261E-006  0.1300000E+05  0.7957747E-01  0.1322471E+00
    9000001   -1    0    0    0    0  0.00000000000E+00  0.00000000000E+00  0.64999999231E+04  0.65000000000E+04  0.10000000000E+01 0.  0.
    9000001   -1    0    0    0    0 -0.00000000000E+00 -0.00000000000E+00 -0.64999999231E+04  0.65000000000E+04  0.10000000000E+01 0.  0.
    9000001    1    1    2    0    0 -0.85793385017E+03  0.19073917520E+04 -0.61543322313E+04  0.65000000000E+04  0.10000000000E+01 0.  0.
    9000001    1    1    2    0    0  0.85793385017E+03 -0.19073917520E+04  0.61543322313E+04  0.65000000000E+04  0.10000000000E+01 0.  0.
</event>
<event>
 4    1  0.2195261E-006  0.1300000E+05  0.7957747E-01  0.1322471E+00
    9000001   -1    0    0    0    0  0.00000000000E+00  0.00000000000E+00  0.64999999231E+04  0.65000000000E+04  0.10000000000E+01 0.  0.
    9000001   -1    0    0    0    0 -0.00000000000E+00 -0.00000000000E+00 -0.64999999231E+04  0.65000000000E+04  0.10000000000E+01 0.  0.
    9000001    1    1    2    0    0 -0.10595914942E+04  0.56382347615E+03 -0.63882210320E+04  0.65000000000E+04  0.10000000000E+01 0.  0.
    9000001    1    1    2    0    0  0.10595914942E+04 -0.56382347615E+03  0.63882210320E+04  0.65000000000E+04  0.10000000000E+01 0.  0.
</event>
<event>
 4    1  0.2195261E-006  0.1300000E+05  0.7957747E-01  0.1322471E+00
    9000001   -1    0    0    0    0  0.00000000000E+00  0.00000000000E+00  0.64999999231E+04  0.65000000000E+04  0.10000000000E+01 0.  0.
    9000001   -1    0    0    0    0 -0.00000000000E+00 -0.00000000000E+00 -0.64999999231E+04  0.65000000000E+04  0.10000000000E+01 0.  0.
    9000001    1    1    2    0    0  0.51285303385E+04 -0.30640867137E+04  0.25611614901E+04  0.65000000000E+04  0.10000000000E+01 0.  0.
    9000001    1    1    2    0    0 -0.51285303385E+04  0.30640867137E+04 -0.25611614901E+04  0.65000000000E+04  0.10000000000E+01 0.  0.
</event>
<event>
 4    1  0.2195261E-006  0.1300000E+05  0.7957747E-01  0.1322471E+00
    9000001   -1    0    0    0    0  0.00000000000E+00  0.00000000000E+00  0.64999999231E+04  0.65000000000E+04  0.10000000000E+01 0.  0.
    9000001   -1    0    0    0    0 -0.00000000000E+00 -0.00000000000E+00 -0.64999999231E+04  0.65000000000E+04  0.10000000000E+01 0.  0.
    9000001    1    1    2    0    0  0.27518701444E+04  0.58807042585E+04 -0.30745265045E+03  0.65000000000E+04  0.10000000000E+01 0.  0.
    9000001    1    1    2    0    0 -0.27518701444E+04 -0.58807042585E+04  0.30745265045E+03  0.65000000000E+04  0.10000000000E+01 0.  0.
</event>
<event>
 4    1  0.2195261E-006  0.1300000E+05  0.7957747E-01  0.1322471E+00
    9000001   -1    0    0    0    0  0.00000000000E+00  0.00000000000E+00  0.64999999231E+04  0.65000000000E+04  0.10000000000E+01 0.  0.
    9000001   -1    0    0    0    0 -0.00000000000E+00 -0.00000000000E+00 -0.64999999231E+04  0.65000000000E+04  0.10000000000E+01 0.  0.
    9000001    1    1    2    0    0  0.29143181103E+04  0.43911388159E+04  0.38045563278E+04  0.65000000000E+04  0.10000000000E+01 0.  0.
    9000001    1    1    2    0    0 -0.29143181103E+04 -0.43911388159E+04 -0.38045563278E+04  0.65000000000E+04  0.10000000000E+01 0.  0.
</event>
<event>
 4    1  0.2195261E-006  0.1300000E+05  0.7957747E-01  0.1322471E+00
    9000001   -1    0    0    0    0  0.00000000000E+00  0.00000000000E+00  0.64999999231E+04  0.65000000000E+04  0.10000000000E+01 0.  0.
    9000001   -1    0    0    0    0 -0.00000000000E+00 -0.00000000000E+00 -0.64999999231E+04  0.65000000000E+04  0.10000000000E+01 0.  0.
    9000001    1    1    2    0    0 -0.15283326544E+04 -0.48344035314E+04  0.40672768277E+04  0.65000000000E+04  0.10000000000E+01 0.  0.
    9000001    1    1    2    0    0  0.15283326544E+04  0.48344035314E+04 -0.40672768277E+04  0.65000000000E+04  0.10000000000E+01 0.  0.
</event>
<event>
 4    1  0.2195261E-006  0.1300000E+05  0.7957747E-01  0.1322471E+00
    9000001   -1    0    0    0    0  0.00000000000E+00  0.00000000000E+00  0.64999999231E+04  0.65000000000E+04  0.10000000000E+01 0.  0.
    9000001   -1    0    0    0    0 -0.00000000000E+00 -0.00000000000E+00 -0.64999999231E+04  0.65000000000E+04  0.10000000000E+01 0.  0.
    9000001    1    1    2    0    0 -0.47526255900E+04 -0.40669342448E+04  0.17670865428E+04  0.65000000000E+04  0.10000000000E+01 0.  0.
    9000001    1    1    2    0    0  0.47526255900E+04  0.40669342448E+04 -0.17670865428E+04  0.65000000000E+04  0.10000000000E+01 0.  0.
</event>
<event>
 4    1  0.2195261E-006  0.1300000E+05  0.7957747E-01  0.1322471E+00
    9000001   -1    0    0    0    0  0.00000000000E+00  0.00000000000E+00  0.64999999231E+04  0.65000000000E+04  0.10000000000E+01 0.  0.
    9000001   -1    0    0    0    0 -0.00000000000E+00 -0.00000000000E+00 -0.64999999231E+04  0.65000000000E+04  0.10000000000E+01 0.  0.
    9000001    1    1    2    0    0 -0.61001654184E+04 -0.18797773422E+04  0.12265471912E+04  0.65000000000E+04  0.10000000000E+01 0.  0.
    9000001    1    1    2    0    0  0.61001654184E+04  0.18797773422E+04 -0.12265471912E+04  0.65000000000E+04  0.10000000000E+01 0.  0.
</event>
<event>
 4    1  0.2195261E-006  0.1300000E+05  0.7957747E-01  0.1322471E+00
    9000001   -1    0    0    0    0  0.00000000000E+00  0.00000000000E+00  0.64999999231E+04  0.65000000000E+04  0.10000000000E+01 0.  0.
    9000001   -1    0    0    0    0 -0.00000000000E+00 -0.00000000000E+00 -0.64999999231E+04  0.65000000000E+04  0.10000000000E+01 0.  0.
    9000001    1    1    2    0    0 -0.93604300157E+03 -0.12682330749E+04 -0.63059818718E+04  0.65000000000E+04  0.10000000000E+01 0.  0.
    9000001    1    1    2    0    0  0.93604300157E+03  0.12682330749E+04  0.63059818718E+04  0.65000000000E+04  0.10000000000E+01 0.  0.
</event>
<event>
 4    1  0.2195261E-006  0.1300000E+05  0.7957747E-01  0.1322471E+00
    9000001   -1    0    0    0    0  0.00000000000E+00  0.00000000000E+00  0.64999999231E+04  0.65000000000E+04  0.10000000000E+01 0.  0.
    9000001   -1    0    0    0    0 -0.00000000000E+00 -0.00000000000E+00 -0.64999999231E+04  0.65000000000E+04  0.10000000000E+01 0.  0.
    9000001    1    1    2    0    0 -0.56978932182E+04  0.11034771331E+04 -0.29268327747E+04  0.65000000000E+04  0.10000000000E+01 0.  0.
    9000001    1    1    2    0    0  0.56978932182E+04 -0.11034771331E+04  0.29268327747E+04  0.65000000000E+04  0.10000000000E+01 0.  0.
</event>
<event>
 4    1  0.2195261E-006  0.1300000E+05  0.7957747E-01  0.1322471E+00
    9000001   -1    0    0    0    0  0.00000000000E+00  0.00000000000E+00  0.64999999231E+04  0.65000000000E+04  0.10000000000E+01 0.  0.
    9000001   -1    0    0    0    0 -0.00000000000E+00 -0.00000000000E+00 -0.64999999231E+04  0.65000000000E+04  0.10000000000E+01 0.  0.
    9000001    1    1    2    0    0 -0.39805932901E+04 -0.38395181812E+04  0.34151099828E+04  0.65000000000E+04  0.10000000000E+01 0.  0.
    9000001    1    1    2    0    0  0.39805932901E+04  0.38395181812E+04 -0.34151099828E+04  0.65000000000E+04  0.10000000000E+01 0.  0.
</event>
<event>
 4    1  0.2195261E-006  0.1300000E+05  0.7957747E-01  0.1322471E+00
    9000001   -1    0    0    0    0  0.00000000000E+00  0.00000000000E+00  0.64999999231E+04  0.65000000000E+04  0.10000000000E+01 0.  0.
    9000001   -1    0    0    0    0 -0.00000000000E+00 -0.00000000000E+00 -0.64999999231E+04  0.65000000000E+04  0.10000000000E+01 0.  0.
    9000001    1    1    2    0    0 -0.48597786483E+04  0.37050079832E+03 -0.43006138687E+04  0.65000000000E+04  0.10000000000E+01 0.  0.
    9000001    1    1    2    0    0  0.48597786483E+04 -0.37050079832E+03  0.43006138687E+04  0.65000000000E+04  0.10000000000E+01 0.  0.
</event>
<event>
 4    1  0.2195261E-006  0.1300000E+05  0.7957747E-01  0.1322471E+00
    9000001   -1    0    0    0    0  0.00000000000E+00  0.00000000000E+00  0.64999999231E+04  0.65000000000E+04  0.10000000000E+01 0.  0.
    9000001   -1    0    0    0    0 -0.00000000000E+00 -0.00000000000E+00 -0.64999999231E+04  0.65000000000E+04  0.10000000000E+01 0.  0.
    9000001    1    1    2    0    0  0.38803523613E+04  0.15781531900E+04 -0.49701405474E+04  0.65000000000E+04  0.10000000000E+01 0.  0.
    9000001    1    1    2    0    0 -0.38803523613E+04 -0.15781531900E+04  0.49701405474E+04  0.65000000000E+04  0.10000000000E+01 0.  0.
</event>
<event>
 4    1  0.2195261E-006  0.1300000E+05  0.7957747E-01  0.1322471E+00
    9000001   -1    0    0    0    0  0.00000000000E+00  0.00000000000E+00  0.64999999231E+04  0.65000000000E+04  0.10000000000E+01 0.  0.
    9000001   -1    0    0    0    0 -0.00000000000E+00 -0.00000000000E+00 -0.64999999231E+04  0.65000000000E+04  0.10000000000E+01 0.  0.
    9000001    1    1    2    0    0 -0.28540542911E+04  0.57448893871E+04  0.10491039190E+04  0.65000000000E+04  0.10000000000E+01 0.  0.
    9000001    1    1    2    0    0  0.28540542911E+04 -0.57448893871E+04 -0.10491039190E+04  0.65000000000E+04  0.10000000000E+01 0.  0.
</event>
<event>
 4    1  0.2195261E-006  0.1300000E+05  0.7957747E-01  0.1322471E+00
    9000001   -1    0    0    0    0  0.00000000000E+00  0.00000000000E+00  0.64999999231E+04  0.65000000000E+04  0.10000000000E+01 0.  0.
    9000001   -1    0    0    0    0 -0.00000000000E+00 -0.00000000000E+00 -0.64999999231E+04  0.65000000000E+04  0.10000000000E+01 0.  0.
    9000001    1    1    2    0    0 -0.32900656160E+04 -0.55977003985E+04  0.30202233502E+03  0.65000000000E+04  0.10000000000E+01 0.  0.
    9000001    1    1    2    0    0  0.32900656160E+04  0.55977003985E+04 -0.30202233502E+03  0.65000000000E+04  0.10000000000E+01 0.  0.
</event>
<event>
 4    1  0.2195261E-006  0.1300000E+05  0.7957747E-01  0.1322471E+00
    9000001   -1    0    0    0    0  0.00000000000E+00  0.00000000000E+00  0.64999999231E+04  0.65000000000E+04  0.10000000000E+01 0.  0.
    9000001   -1    0    0    0    0 -0.00000000000E+00 -0.00000000000E+00 -0.64999999231E+04  0.65000000000E+04  0.10000000000E+01 0.  0.
    9000001    1    1    2    0    0 -0.52044438909E+04 -0.38699837111E+04  0.43242208831E+03  0.65000000000E+04  0.10000000000E+01 0.  0.
    9000001    1    1    2    0    0  0.52044438909E+04  0.38699837111E+04 -0.43242208831E+03  0.65000000000E+04  0.10000000000E+01 0.  0.
</event>
<event>
 4    1  0.2195261E-006  0.1300000E+05  0.7957747E-01  0.1322471E+00
    9000001   -1    0    0    0    0  0.00000000000E+00  0.00000000000E+00  0.64999999231E+04  0.65000000000E+04  0.10000000000E+01 0.  0.
    9000001   -1    0    0    0    0 -0.00000000000E+00 -0.00000000000E+00 -0.64999999231E+04  0.65000000000E+04  0.10000000000E+01 0.  0.
    9000001    1    1    2    0    0  0.24414929867E+04  0.39344614152E+04  0.45617019158E+04  0.65000000000E+04  0.10000000000E+01 0.  0.
    9000001    1    1    2    0    0 -0.24414929867E+04 -0.39344614152E+04 -0.45617019158E+04  0.65000000000E+04  0.10000000000E+01 0.  0.
</event>
<event>
 4    1  0.2195261E-006  0.1300000E+05  0.7957747E-01  0.1322471E+00
    9000001   -1    0    0    0    0  0.00000000000E+00  0.00000000000E+00  0.64999999231E+04  0.65000000000E+04  0.10000000000E+01 0.  0.
    9000001   -1    0    0    0    0 -0.00000000000E+00 -0.00000000000E+00 -0.64999999231E+04  0.65000000000E+04  0.10000000000E+01 0.  0.
    9000001    1    1    2    0    0  0.29393573266E+04  0.31601254760E+04 -0.48604304833E+04  0.65000000000E+04  0.10000000000E+01 0.  0.
    9000001    1    1    2    0    0 -0.29393573266E+04 -0.31601254760E+04  0.48604304833E+04  0.65000000000E+04  0.10000000000E+01 0.  0.
</event>
<event>
 4    1  0.2195261E-006  0.1300000E+05  0.7957747E-01  0.1322471E+00
    9000001   -1    0    0    0    0  0.00000000000E+00  0.00000000000E+00  0.64999999231E+04  0.65000000000E+04  0.10000000000E+01 0.  0.
    9000001   -1    0    0    0    0 -0.00000000000E+00 -0.00000000000E+00 -0.64999999231E+04  0.65000000000E+04  0.10000000000E+01 0.  0.
    9000001    1    1    2    0    0  0.27408346917E+04 -0.55046547067E+04 -0.21063239904E+04  0.65000000000E+04  0.10000000000E+01 0.  0.
    9000001    1    1    2    0    0 -0.27408346917E+04  0.55046547067E+04  0.21063239904E+04  0.65000000000E+04  0.10000000000E+01 0.  0.
</event>
<event>
 4    1  0.2195261E-006  0.1300000E+05  0.7957747E-01  0.1322471E+00
    9000001   -1    0    0    0    0  0.00000000000E+00  0.00000000000E+00  0.64999999231E+04  0.65000000000E+04  0.10000000000E+01 0.  0.
    9000001   -1    0    0    0    0 -0.00000000000E+00 -0.00000000000E+00 -0.64999999231E+04  0.65000000000E+04  0.10000000000E+01 0.  0.
    9000001    1    1    2    0    0  0.15466854397E+04  0.43511671164E+04 -0.45743969959E+04  0.65000000000E+04  0.10000000000E+01 0.  0.
    9000001    1    1    2    0    0 -0.15466854397E+04 -0.43511671164E+04  0.45743969959E+04  0.65000000000E+04  0.10000000000E+01 0.  0.
</event>
<event>
 4    1  0.2195261E-006  0.1300000E+05  0.7957747E-01  0.1322471E+00
    9000001   -1    0    0    0    0  0.00000000000E+00  0.00000000000E+00  0.64999999231E+04  0.65000000000E+04  0.10000000000E+01 0.  0.
    9000001   -1    0    0    0    0 -0.00000000000E+00 -0.00000000000E+00 -0.64999999231E+04  0.65000000000E+04  0.10000000000E+01 0.  0.
    9000001    1    1    2    0    0 -0.17116070845E+04 -0.11813490332E+04  0.61583126463E+04  0.65000000000E+04  0.10000000000E+01 0.  0.
    9000001    1    1    2    0    0  0.17116070845E+04  0.11813490332E+04 -0.61583126463E+04  0.65000000000E+04  0.10000000000E+01 0.  0.
</event>
<event>
 4    1  0.2195261E-006  0.1300000E+05  0.7957747E-01  0.1322471E+00
    9000001   -1    0    0    0    0  0.00000000000E+00  0.00000000000E+00  0.64999999231E+04  0.65000000000E+04  0.10000000000E+01 0.  0.
    9000001   -1    0    0    0    0 -0.00000000000E+00 -0.00000000000E+00 -0.64999999231E+04  0.65000000000E+04  0.10000000000E+01 0.  0.
    9000001    1    1    2    0    0 -0.16657184884E+04 -0.25651343485E+04  0.57354569732E+04  0.65000000000E+04  0.10000000000E+01 0.  0.
    9000001    1    1    2    0    0  0.16657184884E+04  0.25651343485E+04 -0.57354569732E+04  0.65000000000E+04  0.10000000000E+01 0.  0.
</event>
<event>
 4    1  0.2195261E-006  0.1300000E+05  0.7957747E-01  0.1322471E+00
    9000001   -1    0    0    0    0  0.00000000000E+00  0.00000000000E+00  0.64999999231E+04  0.65000000000E+04  0.10000000000E+01 0.  0.
    9000001   -1    0    0    0    0 -0.00000000000E+00 -0.00000000000E+00 -0.64999999231E+04  0.65000000000E+04  0.10000000000E+01 0.  0.
    9000001    1    1    2    0    0  0.14565369451E+04  0.13795003892E+04  0.61826756185E+04  0.65000000000E+04  0.10000000000E+01 0.  0.
    9000001    1    1    2    0    0 -0.14565369451E+04 -0.13795003892E+04 -0.61826756185E+04  0.65000000000E+04  0.10000000000E+01 0.  0.
</event>
<event>
 4    1  0.2195261E-006  0.1300000E+05  0.7957747E-01  0.1322471E+00
    9000001   -1    0    0    0    0  0.00000000000E+00  0.00000000000E+00  0.64999999231E+04  0.65000000000E+04  0.10000000000E+01 0.  0.
    9000001   -1    0    0    0    0 -0.00000000000E+00 -0.00000000000E+00 -0.64999999231E+04  0.65000000000E+04  0.10000000000E+01 0.  0.
    9000001    1    1    2    0    0  0.30676780106E+04 -0.36266346915E+04  0.44369890058E+04  0.65000000000E+04  0.10000000000E+01 0.  0.
    9000001    1    1    2    0    0 -0.30676780106E+04  0.36266346915E+04 -0.44369890058E+04  0.65000000000E+04  0.10000000000E+01 0.  0.
</event>
<event>
 4    1  0.2195261E-006  0.1300000E+05  0.7957747E-01  0.1322471E+00
    9000001   -1    0    0    0    0  0.00000000000E+00  0.00000000000E+00  0.64999999231E+04  0.65000000000E+04  0.10000000000E+01 0.  0.
    9000001   -1    0    0    0    0 -0.00000000000E+00 -0.00000000000E+00 -0.64999999231E+04  0.65000000000E+04  0.10000000000E+01 0.  0.
    9000001    1    1    2    0    0  0.45146004893E+03 -0.58672048833E+04  0.27608132282E+04  0.65000000000E+04  0.10000000000E+01 0.  0.
    9000001    1    1    2    0    0 -0.45146004893E+03  0.58672048833E+04 -0.27608132282E+04  0.65000000000E+04  0.10000000000E+01 0.  0.
</event>
<event>
 4    1  0.2195261E-006  0.1300000E+05  0.7957747E-01  0.1322471E+00
    9000001   -1    0    0    0    0  0.00000000000E+00  0.00000000000E+00  0.64999999231E+04  0.65000000000E+04  0.10000000000E+01 0.  0.
    9000001   -1    0    0    0    0 -0.00000000000E+00 -0.00000000000E+00 -0.64999999231E+04  0.65000000000E+04  0.10000000000E+01 0.  0.
    9000001    1    1    2    0    0 -0.28439136434E+04  0.57736003375E+04  0.90977652865E+03  0.65000000000E+04  0.10000000000E+01 0.  0.
    9000001    1    1    2    0    0  0.28439136434E+04 -0.57736003375E+04 -0.90977652865E+03  0.65000000000E+04  0.10000000000E+01 0.  0.
</event>
<event>
 4    1  0.2195261E-006  0.1300000E+05  0.7957747E-01  0.1322471E+00
    9000001   -1    0    0    0    0  0.00000000000E+00  0.00000000000E+00  0.64999999231E+04  0.65000000000E+04  0.10000000000E+01 0.  0.
    9000001   -1    0    0    0    0 -0.00000000000E+00 -0.00000000000E+00 -0.64999999231E+04  0.65000000000E+04  0.10000000000E+01 0.  0.
    9000001    1    1    2    0    0  0.53732635023E+04  0.28115731273E+04 -0.23394646577E+04  0.65000000000E+04  0.10000000000E+01 0.  0.
    9000001    1    1    2    0    0 -0.53732635023E+04 -0.28115731273E+04  0.23394646577E+04  0.65000000000E+04  0.10000000000E+01 0.  0.
</event>
<event>
 4    1  0.2195261E-006  0.1300000E+05  0.7957747E-01  0.1322471E+00
    9000001   -1    0    0    0    0  0.00000000000E+00  0.00000000000E+00  0.64999999231E+04  0.65000000000E+04  0.10000000000E+01 0.  0.
    9000001   -1    0    0    0    0 -0.00000000000E+00 -0.00000000000E+00 -0.64999999231E+04  0.65000000000E+04  0.10000000000E+01 0.  0.
    9000001    1    1    2    0    0  0.44588939270E+03 -0.36127874078E+03 -0.64746165385E+04  0.65000000000E+04  0.10000000000E+01 0.  0.
    9000001    1    1    2    0    0 -0.44588939270E+03  0.36127874078E+03  0.64746165385E+04  0.65000000000E+04  0.10000000000E+01 0.  0.
</event>
<event>
 4    1  0.2195261E-006  0.1300000E+05  0.7957747E-01  0.1322471E+00
    9000001   -1    0    0    0    0  0.00000000000E+00  0.00000000000E+00  0.64999999231E+04  0.65000000000E+04  0.10000000000E+01 0.  0.
    9000001   -1    0    0    0    0 -0.00000000000E+00 -0.00000000000E+00 -0.64999999231E+04  0.65000000000E+04  0.10000000000E+01 0.  0.
    9000001    1    1    2    0    0  0.59527935346E+04  0.58979440938E+03 -0.25429098862E+04  0.65000000000E+04  0.10000000000E+01 0.  0.
    9000001    1    1    2    0    0 -0.59527935346E+04 -0.58979440938E+03  0.25429098862E+04  0.65000000000E+04  0.10000000000E+01 0.  0.
</event>
<event>
 4    1  0.2195261E-006  0.1300000E+05  0.7957747E-01  0.1322471E+00
    9000001   -1    0    0    0    0  0.00000000000E+00  0.00000000000E+00  0.64999999231E+04  0.65000000000E+04  0.10000000000E+01 0.  0.
    9000001   -1    0    0    0    0 -0.00000000000E+00 -0.00000000000E+00 -0.64999999231E+04  0.65000000000E+04  0.10000000000E+01 0.  0.
    9000001    1    1    2    0    0 -0.57590546005E+04  0.20542298986E+04 -0.22053182609E+04  0.65000000000E+04  0.10000000000E+01 0.  0.
    9000001    1    1    2    0    0  0.57590546005E+04 -0.20542298986E+04  0.22053182609E+04  0.65000000000E+04  0.10000000000E+01 0.  0.
</event>
<event>
 4    1  0.2195261E-006  0.1300000E+05  0.7957747E-01  0.1322471E+00
    9000001   -1    0    0    0    0  0.00000000000E+00  0.00000000000E+00  0.64999999231E+04  0.65000000000E+04  0.10000000000E+01 0.  0.
    9000001   -1    0    0    0    0 -0.00000000000E+00 -0.00000000000E+00 -0.64999999231E+04  0.65000000000E+04  0.10000000000E+01 0.  0.
    9000001    1    1    2    0    0  0.62292303215E+04  0.18552797716E+04  0.68011544083E+02  0.65000000000E+04  0.10000000000E+01 0.  0.
    9000001    1    1    2    0    0 -0.62292303215E+04 -0.18552797716E+04 -0.68011544083E+02  0.65000000000E+04  0.10000000000E+01 0.  0.
</event>
<event>
 4    1  0.2195261E-006  0.1300000E+05  0.7957747E-01  0.1322471E+00
    9000001   -1    0    0    0    0  0.00000000000E+00  0.00000000000E+00  0.64999999231E+04  0.65000000000E+04  0.10000000000E+01 0.  0.
    9000001   -1    0    0    0    0 -0.00000000000E+00 -0.00000000000E+00 -0.64999999231E+04  0.65000000000E+04  0.10000000000E+01 0.  0.
    9000001    1    1    2    0    0 -0.61855978056E+04 -0.14339375233E+04 -0.13900366781E+04  0.65000000000E+04  0.10000000000E+01 0.  0.
    9000001    1    1    2    0    0  0.61855978056E+04  0.14339375233E+04  0.13900366781E+04  0.65000000000E+04  0.10000000000E+01 0.  0.
</event>
<event>
 4    1  0.2195261E-006  0.1300000E+05  0.7957747E-01  0.1322471E+00
    9000001   -1    0    0    0    0  0.00000000000E+00  0.00000000000E+00  0.64999999231E+04  0.65000000000E+04  0.10000000000E+01 0.  0.
    9000001   -1    0    0    0    0 -0.00000000000E+00 -0.00000000000E+00 -0.64999999231E+04  0.65000000000E+04  0.10000000000E+01 0.  0.
    9000001    1    1    2    0    0 -0.50391272016E+04  0.15467154660E+04 -0.38032706074E+04  0.65000000000E+04  0.10000000000E+01 0.  0.
    9000001    1    1    2    0    0  0.50391272016E+04 -0.15467154660E+04  0.38032706074E+04  0.65000000000E+04  0.10000000000E+01 0.  0.
</event>
<event>
 4    1  0.2195261E-006  0.1300000E+05  0.7957747E-01  0.1322471E+00
    9000001   -1    0    0    0    0  0.00000000000E+00  0.00000000000E+00  0.64999999231E+04  0.65000000000E+04  0.10000000000E+01 0.  0.
    9000001   -1    0    0    0    0 -0.00000000000E+00 -0.00000000000E+00 -0.64999999231E+04  0.65000000000E+04  0.10000000000E+01 0.  0.
    9000001    1    1    2    0    0 -0.17386019502E+04 -0.51613272196E+04  0.35479520277E+04  0.65000000000E+04  0.10000000000E+01 0.  0.
    9000001    1    1    2    0    0  0.17386019502E+04  0.51613272196E+04 -0.35479520277E+04  0.65000000000E+04  0.10000000000E+01 0.  0.
</event>
<event>
 4    1  0.2195261E-006  0.1300000E+05  0.7957747E-01  0.1322471E+00
    9000001   -1    0    0    0    0  0.00000000000E+00  0.00000000000E+00  0.64999999231E+04  0.65000000000E+04  0.10000000000E+01 0.  0.
    9000001   -1    0    0    0    0 -0.00000000000E+00 -0.00000000000E+00 -0.64999999231E+04  0.65000000000E+04  0.10000000000E+01 0.  0.
    9000001    1    1    2    0    0 -0.19890827600E+04 -0.29787996450E+04  0.54240484372E+04  0.65000000000E+04  0.10000000000E+01 0.  0.
    9000001    1    1    2    0    0  0.19890827600E+04  0.29787996450E+04 -0.54240484372E+04  0.65000000000E+04  0.10000000000E+01 0.  0.
</event>
<event>
 4    1  0.2195261E-006  0.1300000E+05  0.7957747E-01  0.1322471E+00
    9000001   -1    0    0    0    0  0.00000000000E+00  0.00000000000E+00  0.64999999231E+04  0.65000000000E+04  0.10000000000E+01 0.  0.
    9000001   -1    0    0    0    0 -0.00000000000E+00 -0.00000000000E+00 -0.64999999231E+04  0.65000000000E+04  0.10000000000E+01 0.  0.
    9000001    1    1    2    0    0 -0.22902195853E+03  0.63557066787E+04 -0.13425872621E+04  0.65000000000E+04  0.10000000000E+01 0.  0.
    9000001    1    1    2    0    0  0.22902195853E+03 -0.63557066787E+04  0.13425872621E+04  0.65000000000E+04  0.10000000000E+01 0.  0.
</event>
<event>
 4    1  0.2195261E-006  0.1300000E+05  0.7957747E-01  0.1322471E+00
    9000001   -1    0    0    0    0  0.00000000000E+00  0.00000000000E+00  0.64999999231E+04  0.65000000000E+04  0.10000000000E+01 0.  0.
    9000001   -1    0    0    0    0 -0.00000000000E+00 -0.00000000000E+00 -0.64999999231E+04  0.65000000000E+04  0.10000000000E+01 0.  0.
    9000001    1    1    2    0    0  0.17801453671E+04  0.50742766736E+04  0.36514103729E+04  0.65000000000E+04  0.10000000000E+01 0.  0.
    9000001    1    1    2    0    0 -0.17801453671E+04 -0.50742766736E+04 -0.36514103729E+04  0.65000000000E+04  0.10000000000E+01 0.  0.
</event>
<event>
 4    1  0.2195261E-006  0.1300000E+05  0.7957747E-01  0.1322471E+00
    9000001   -1    0    0    0    0  0.00000000000E+00  0.00000000000E+00  0.64999999231E+04  0.65000000000E+04  0.10000000000E+01 0.  0.
    9000001   -1    0    0    0    0 -0.00000000000E+00 -0.00000000000E+00 -0.64999999231E+04  0.65000000000E+04  0.10000000000E+01 0.  0.
    9000001    1    1    2    0    0 -0.55640773423E+04  0.29192995356E+04  0.16639508857E+04  0.65000000000E+04  0.10000000000E+01 0.  0.
    9000001    1    1    2    0    0  0.55640773423E+04 -0.29192995356E+04 -0.16639508857E+04  0.65000000000E+04  0.10000000000E+01 0.  0.
</event>
<event>
 4    1  0.2195261E-006  0.1300000E+05  0.7957747E-01  0.1322471E+00
    9000001   -1    0    0    0    0  0.00000000000E+00  0.00000000000E+00  0.64999999231E+04  0.65000000000E+04  0.10000000000E+01 0.  0.
    9000001   -1    0    0    0    0 -0.00000000000E+00 -0.00000000000E+00 -0.64999999231E+04  0.65000000000E+04  0.10000000000E+01 0.  0.
    9000001    1    1    2    0    0  0.52966130273E+04 -0.14807205345E+03  0.37648325469E+04  0.65000000000E+04  0.10000000000E+01 0.  0.
    9000001    1    1    2    0    0 -0.52966130273E+04  0.14807205345E+03 -0.37648325469E+04  0.65000000000E+04  0.10000000000E+01 0.  0.
</event>
<event>
 4    1  0.2195261E-006  0.1300000E+05  0.7957747E-01  0.1322471E+00
    9000001   -1    0    0    0    0  0.00000000000E+00  0.00000000000E+00  0.64999999231E+04  0.65000000000E+04  0.10000000000E+01 0.  0.
    9000001   -1    0    0    0    0 -0.00000000000E+00 -0.00000000000E+00 -0.64999999231E+04  0.65000000000E+04  0.10000000000E+01 0.  0.
    9000001    1    1    2    0    0 -0.51233978300E+04 -0.28062631904E+04 -0.28505579422E+04  0.65000000000E+04  0.10000000000E+01 0.  0.
    9000001    1    1    2    0    0  0.51233978300E+04  0.28062631904E+04  0.28505579422E+04  0.65000000000E+04  0.10000000000E+01 0.  0.
</event>
<event>
 4    1  0.2195261E-006  0.1300000E+05  0.7957747E-01  0.1322471E+00
    9000001   -1    0    0    0    0  0.00000000000E+00  0.00000000000E+00  0.64999999231E+04  0.65000000000E+04  0.10000000000E+01 0.  0.
    9000001   -1    0    0    0    0 -0.00000000000E+00 -0.00000000000E+00 -0.64999999231E+04  0.65000000000E+04  0.10000000000E+01 0.  0.
    9000001    1    1    2    0    0 -0.32869597814E+04 -0.11318942666E+04 -0.54922408691E+04  0.65000000000E+04  0.10000000000E+01 0.  0.
    9000001    1    1    2    0    0  0.32869597814E+04  0.11318942666E+04  0.54922408691E+04  0.65000000000E+04  0.10000000000E+01 0.  0.
</event>
<event>
 4    1  0.2195261E-006  0.1300000E+05  0.7957747E-01  0.1322471E+00
    9000001   -1    0    0    0    0  0.00000000000E+00  0.00000000000E+00  0.64999999231E+04  0.65000000000E+04  0.10000000000E+01 0.  0.
    9000001   -1    0    0    0    0 -0.00000000000E+00 -0.00000000000E+00 -0.64999999231E+04  0.65000000000E+04  0.10000000000E+01 0.  0.
    9000001    1    1    2    0    0  0.53368327882E+04  0.15420548480E+04 -0.33749491310E+04  0.65000000000E+04  0.10000000000E+01 0.  0.
    9000001    1    1    2    0    0 -0.53368327882E+04 -0.15420548480E+04  0.33749491310E+04  0.65000000000E+04  0.10000000000E+01 0.  0.
</event>
<event>
 4    1  0.2195261E-006  0.1300000E+05  0.7957747E-01  0.1322471E+00
    9000001   -1    0    0    0    0  0.00000000000E+00  0.00000000000E+00  0.64999999231E+04  0.65000000000E+04  0.10000000000E+01 0.  0.
    9000001   -1    0    0    0    0 -0.00000000000E+00 -0.00000000000E+00 -0.64999999231E+04  0.65000000000E+04  0.10000000000E+01 0.  0.
    9000001    1    1    2    0    0  0.37457137374E+04  0.34293977256E+03 -0.53011338325E+04  0.65000000000E+04  0.10000000000E+01 0.  0.
    9000001    1    1    2    0    0 -0.37457137374E+04 -0.34293977256E+03  0.53011338325E+04  0.65000000000E+04  0.10000000000E+01 0.  0.
</event>
<event>
 4    1  0.2195261E-006  0.1300000E+05  0.7957747E-01  0.1322471E+00
    9000001   -1    0    0    0    0  0.00000000000E+00  0.00000000000E+00  0.64999999231E+04  0.65000000000E+04  0.10000000000E+01 0.  0.
    9000001   -1    0    0    0    0 -0.00000000000E+00 -0.00000000000E+00 -0.64999999231E+04  0.65000000000E+04  0.10000000000E+01 0.  0.
    9000001    1    1    2    0    0  0.27186427819E+04  0.48436318843E+04  0.33761236047E+04  0.65000000000E+04  0.10000000000E+01 0.  0.
    9000001    1    1    2    0    0 -0.27186427819E+04 -0.48436318843E+04 -0.33761236047E+04  0.65000000000E+04  0.10000000000E+01 0.  0.
</event>
<event>
 4    1  0.2195261E-006  0.1300000E+05  0.7957747E-01  0.1322471E+00
    9000001   -1    0    0    0    0  0.00000000000E+00  0.00000000000E+00  0.64999999231E+04  0.65000000000E+04  0.10000000000E+01 0.  0.
    9000001   -1    0    0    0    0 -0.00000000000E+00 -0.00000000000E+00 -0.64999999231E+04  0.65000000000E+04  0.10000000000E+01 0.  0.
    9000001    1    1    2    0    0 -0.19925208352E+04 -0.49994879472E+04 -0.36448566484E+04  0.65000000000E+04  0.10000000000E+01 0.  0.
    9000001    1    1    2    0    0  0.19925208352E+04  0.49994879472E+04  0.36448566484E+04  0.65000000000E+04  0.10000000000E+01 0.  0.
</event>
<event>
 4    1  0.2195261E-006  0.1300000E+05  0.7957747E-01  0.1322471E+00
    9000001   -1    0    0    0    0  0.00000000000E+00  0.00000000000E+00  0.64999999231E+04  0.65000000000E+04  0.10000000000E+01 0.  0.
    9000001   -1    0    0    0    0 -0.00000000000E+00 -0.00000000000E+00 -0.64999999231E+04  0.65000000000E+04  0.10000000000E+01 0.  0.
    9000001    1    1    2    0    0  0.18338454315E+04 -0.50163673714E+04 -0.37044659977E+04  0.65000000000E+04  0.10000000000E+01 0.  0.
    9000001    1    1    2    0    0 -0.18338454315E+04  0.50163673714E+04  0.37044659977E+04  0.65000000000E+04  0.10000000000E+01 0.  0.
</event>
<event>
 4    1  0.2195261E-006  0.1300000E+05  0.7957747E-01  0.1322471E+00
    9000001   -1    0    0    0    0  0.00000000000E+00  0.00000000000E+00  0.64999999231E+04  0.65000000000E+04  0.10000000000E+01 0.  0.
    9000001   -1    0    0    0    0 -0.00000000000E+00 -0.00000000000E+00 -0.64999999231E+04  0.65000000000E+04  0.10000000000E+01 0.  0.
    9000001    1    1    2    0    0 -0.58225920772E+04 -0.28736683841E+04  0.29908279837E+03  0.65000000000E+04  0.10000000000E+01 0.  0.
    9000001    1    1    2    0    0  0.58225920772E+04  0.28736683841E+04 -0.29908279837E+03  0.65000000000E+04  0.10000000000E+01 0.  0.
</event>
<event>
 4    1  0.2195261E-006  0.1300000E+05  0.7957747E-01  0.1322471E+00
    9000001   -1    0    0    0    0  0.00000000000E+00  0.00000000000E+00  0.64999999231E+04  0.65000000000E+04  0.10000000000E+01 0.  0.
    9000001   -1    0    0    0    0 -0.00000000000E+00 -0.00000000000E+00 -0.64999999231E+04  0.65000000000E+04  0.10000000000E+01 0.  0.
    9000001    1    1    2    0    0 -0.34203503741E+04  0.47958730281E+02  0.55271061396E+04  0.65000000000E+04  0.10000000000E+01 0.  0.
    9000001    1    1    2    0    0  0.34203503741E+04 -0.47958730281E+02 -0.55271061396E+04  0.65000000000E+04  0.10000000000E+01 0.  0.
</event>
<event>
 4    1  0.2195261E-006  0.1300000E+05  0.7957747E-01  0.1322471E+00
    9000001   -1    0    0    0    0  0.00000000000E+00  0.00000000000E+00  0.64999999231E+04  0.65000000000E+04  0.10000000000E+01 0.  0.
    9000001   -1    0    0    0    0 -0.00000000000E+00 -0.00000000000E+00 -0.64999999231E+04  0.65000000000E+04  0.10000000000E+01 0.  0.
    9000001    1    1    2    0    0 -0.38873750633E+04  0.51692090102E+04  0.64621383977E+03  0.65000000000E+04  0.10000000000E+01 0.  0.
    9000001    1    1    2    0    0  0.38873750633E+04 -0.51692090102E+04 -0.64621383977E+03  0.65000000000E+04  0.10000000000E+01 0.  0.
</event>
<event>
 4    1  0.2195261E-006  0.1300000E+05  0.7957747E-01  0.1322471E+00
    9000001   -1    0    0    0    0  0.00000000000E+00  0.00000000000E+00  0.64999999231E+04  0.65000000000E+04  0.10000000000E+01 0.  0.
    9000001   -1    0    0    0    0 -0.00000000000E+00 -0.00000000000E+00 -0.64999999231E+04  0.65000000000E+04  0.10000000000E+01 0.  0.
    9000001    1    1    2    0    0  0.39450880850E+04 -0.24352958654E+04 -0.45558328601E+04  0.65000000000E+04  0.10000000000E+01 0.  0.
    9000001    1    1    2    0    0 -0.39450880850E+04  0.24352958654E+04  0.45558328601E+04  0.65000000000E+04  0.10000000000E+01 0.  0.
</event>
<event>
 4    1  0.2195261E-006  0.1300000E+05  0.7957747E-01  0.1322471E+00
    9000001   -1    0    0    0    0  0.00000000000E+00  0.00000000000E+00  0.64999999231E+04  0.65000000000E+04  0.10000000000E+01 0.  0.
    9000001   -1    0    0    0    0 -0.00000000000E+00 -0.00000000000E+00 -0.64999999231E+04  0.65000000000E+04  0.10000000000E+01 0.  0.
    9000001    1    1    2    0    0  0.32002373574E+04  0.56087838686E+04  0.74163560584E+03  0.65000000000E+04  0.10000000000E+01 0.  0.
    9000001    1    1    2    0    0 -0.32002373574E+04 -0.56087838686E+04 -0.74163560584E+03  0.65000000000E+04  0.10000000000E+01 0.  0.
</event>
<event>
 4    1  0.2195261E-006  0.1300000E+05  0.7957747E-01  0.1322471E+00
    9000001   -1    0    0    0    0  0.00000000000E+00  0.00000000000E+00  0.64999999231E+04  0.65000000000E+04  0.10000000000E+01 0.  0.
    9000001   -1    0    0    0    0 -0.00000000000E+00 -0.00000000000E+00 -0.64999999231E+04  0.65000000000E+04  0.10000000000E+01 0.  0.
    9000001    1    1    2    0    0 -0.25713561694E+04 -0.25627058800E+04 -0.53917218978E+04  0.65000000000E+04  0.10000000000E+01 0.  0.
    9000001    1    1    2    0    0  0.25713561694E+04  0.25627058800E+04  0.53917218978E+04  0.65000000000E+04  0.10000000000E+01 0.  0.
</event>
<event>
 4    1  0.2195261E-006  0.1300000E+05  0.7957747E-01  0.1322471E+00
    9000001   -1    0    0    0    0  0.00000000000E+00  0.00000000000E+00  0.64999999231E+04  0.65000000000E+04  0.10000000000E+01 0.  0.
    9000001   -1    0    0    0    0 -0.00000000000E+00 -0.00000000000E+00 -0.64999999231E+04  0.65000000000E+04  0.10000000000E+01 0.  0.
    9000001    1    1    2    0    0 -0.95042840545E+03  0.44868567704E+04  0.46059527970E+04  0.65000000000E+04  0.10000000000E+01 0.  0.
    9000001    1    1    2    0    0  0.95042840545E+03 -0.44868567704E+04 -0.46059527970E+04  0.65000000000E+04  0.10000000000E+01 0.  0.
</event>
<event>
 4    1  0.2195261E-006  0.1300000E+05  0.7957747E-01  0.1322471E+00
    9000001   -1    0    0    0    0  0.00000000000E+00  0.00000000000E+00  0.64999999231E+04  0.65000000000E+04  0.10000000000E+01 0.  0.
    9000001   -1    0    0    0    0 -0.00000000000E+00 -0.00000000000E+00 -0.64999999231E+04  0.65000000000E+04  0.10000000000E+01 0.  0.
    9000001    1    1    2    0    0  0.12538897611E+04 -0.86770356665E+03  0.63186113971E+04  0.65000000000E+04  0.10000000000E+01 0.  0.
    9000001    1    1    2    0    0 -0.12538897611E+04  0.86770356665E+03 -0.63186113971E+04  0.65000000000E+04  0.10000000000E+01 0.  0.
</event>
<event>
 4    1  0.2195261E-006  0.1300000E+05  0.7957747E-01  0.1322471E+00
    9000001   -1    0    0    0    0  0.00000000000E+00  0.00000000000E+00  0.64999999231E+04  0.65000000000E+04  0.10000000000E+01 0.  0.
    9000001   -1    0    0    0    0 -0.00000000000E+00 -0.00000000000E+00 -0.64999999231E+04  0.65000000000E+04  0.10000000000E+01 0.  0.
    9000001    1    1    2    0    0 -0.20808408333E+04  0.52405758399E+04 -0.32336458206E+04  0.65000000000E+04  0.10000000000E+01 0.  0.
    9000001    1    1    2    0    0  0.20808408333E+04 -0.52405758399E+04  0.32336458206E+04  0.65000000000E+04  0.10000000000E+01 0.  0.
</event>
<event>
 4    1  0.2195261E-006  0.1300000E+05  0.7957747E-01  0.1322471E+00
    9000001   -1    0    0    0    0  0.00000000000E+00  0.00000000000E+00  0.64999999231E+04  0.65000000000E+04  0.10000000000E+01 0.  0.
    9000001   -1    0    0    0    0 -0.00000000000E+00 -0.00000000000E+00 -0.64999999231E+04  0.65000000000E+04  0.10000000000E+01 0.  0.
    9000001    1    1    2    0    0  0.25260604188E+04  0.50242445726E+04  0.32597521739E+04  0.65000000000E+04  0.10000000000E+01 0.  0.
    9000001    1    1    2    0    0 -0.25260604188E+04 -0.50242445726E+04 -0.32597521739E+04  0.65000000000E+04  0.10000000000E+01 0.  0.
</event>
<event>
 4    1  0.2195261E-006  0.1300000E+05  0.7957747E-01  0.1322471E+00
    9000001   -1    0    0    0    0  0.00000000000E+00  0.00000000000E+00  0.64999999231E+04  0.65000000000E+04  0.10000000000E+01 0.  0.
    9000001   -1    0    0    0    0 -0.00000000000E+00 -0.00000000000E+00 -0.64999999231E+04  0.65000000000E+04  0.10000000000E+01 0.  0.
    9000001    1    1    2    0    0 -0.10356920746E+04  0.10193900108E+04  0.63354703797E+04  0.65000000000E+04  0.10000000000E+01 0.  0.
    9000001    1    1    2    0    0  0.10356920746E+04 -0.10193900108E+04 -0.63354703797E+04  0.65000000000E+04  0.10000000000E+01 0.  0.
</event>
<event>
 4    1  0.2195261E-006  0.1300000E+05  0.7957747E-01  0.1322471E+00
    9000001   -1    0    0    0    0  0.00000000000E+00  0.00000000000E+00  0.64999999231E+04  0.65000000000E+04  0.10000000000E+01 0.  0.
    9000001   -1    0    0    0    0 -0.00000000000E+00 -0.00000000000E+00 -0.64999999231E+04  0.65000000000E+04  0.10000000000E+01 0.  0.
    9000001    1    1    2    0    0  0.26821077729E+04 -0.30088161859E+04  0.50993452574E+04  0.65000000000E+04  0.10000000000E+01 0.  0.
    9000001    1    1    2    0    0 -0.26821077729E+04  0.30088161859E+04 -0.50993452574E+04  0.65000000000E+04  0.10000000000E+01 0.  0.
</event>
<event>
 4    1  0.2195261E-006  0.1300000E+05  0.7957747E-01  0.1322471E+00
    9000001   -1    0    0    0    0  0.00000000000E+00  0.00000000000E+00  0.64999999231E+04  0.65000000000E+04  0.10000000000E+01 0.  0.
    9000001   -1    0    0    0    0 -0.00000000000E+00 -0.00000000000E+00 -0.64999999231E+04  0.65000000000E+04  0.10000000000E+01 0.  0.
    9000001    1    1    2    0    0  0.11821505651E+04  0.55986535371E+04 -0.30834392508E+04  0.65000000000E+04  0.10000000000E+01 0.  0.
    9000001    1    1    2    0    0 -0.11821505651E+04 -0.55986535371E+04  0.30834392508E+04  0.65000000000E+04  0.10000000000E+01 0.  0.
</event>
<event>
 4    1  0.2195261E-006  0.1300000E+05  0.7957747E-01  0.1322471E+00
    9000001   -1    0    0    0    0  0.00000000000E+00  0.00000000000E+00  0.64999999231E+04  0.65000000000E+04  0.10000000000E+01 0.  0.
    9000001   -1    0    0    0    0 -0.00000000000E+00 -0.00000000000E+00 -0.64999999231E+04  0.65000000000E+04  0.10000000000E+01 0.  0.
    9000001    1    1    2    0    0  0.60574328071E+04  0.45449982305E+03  0.23132091773E+04  0.65000000000E+04  0.10000000000E+01 0.  0.
    9000001    1    1    2    0    0 -0.60574328071E+04 -0.45449982305E+03 -0.23132091773E+04  0.65000000000E+04  0.10000000000E+01 0.  0.
</event>
<event>
 4    1  0.2195261E-006  0.1300000E+05  0.7957747E-01  0.1322471E+00
    9000001   -1    0    0    0    0  0.00000000000E+00  0.00000000000E+00  0.64999999231E+04  0.65000000000E+04  0.10000000000E+01 0.  0.
    9000001   -1    0    0    0    0 -0.00000000000E+00 -0.00000000000E+00 -0.64999999231E+04  0.65000000000E+04  0.10000000000E+01 0.  0.
    9000001    1    1    2    0    0 -0.40340507062E+04  0.27440666202E+04  0.42949426404E+04  0.65000000000E+04  0.10000000000E+01 0.  0.
    9000001    1    1    2    0    0  0.40340507062E+04 -0.27440666202E+04 -0.42949426404E+04  0.65000000000E+04  0.10000000000E+01 0.  0.
</event>
<event>
 4    1  0.2195261E-006  0.1300000E+05  0.7957747E-01  0.1322471E+00
    9000001   -1    0    0    0    0  0.00000000000E+00  0.00000000000E+00  0.64999999231E+04  0.65000000000E+04  0.10000000000E+01 0.  0.
    9000001   -1    0    0    0    0 -0.00000000000E+00 -0.00000000000E+00 -0.64999999231E+04  0.65000000000E+04  0.10000000000E+01 0.  0.
    9000001    1    1    2    0    0 -0.28598021358E+04 -0.42469657423E+04  0.40043492265E+04  0.65000000000E+04  0.10000000000E+01 0.  0.
    9000001    1    1    2    0    0  0.28598021358E+04  0.42469657423E+04 -0.40043492265E+04  0.65000000000E+04  0.10000000000E+01 0.  0.
</event>
<event>
 4    1  0.2195261E-006  0.1300000E+05  0.7957747E-01  0.1322471E+00
    9000001   -1    0    0    0    0  0.00000000000E+00  0.00000000000E+00  0.64999999231E+04  0.65000000000E+04  0.10000000000E+01 0.  0.
    9000001   -1    0    0    0    0 -0.00000000000E+00 -0.00000000000E+00 -0.64999999231E+04  0.65000000000E+04  0.10000000000E+01 0.  0.
    9000001    1    1    2    0    0 -0.44262108795E+04 -0.30878953280E+04 -0.36226452619E+04  0.65000000000E+04  0.10000000000E+01 0.  0.
    9000001    1    1    2    0    0  0.44262108795E+04  0.30878953280E+04  0.36226452619E+04  0.65000000000E+04  0.10000000000E+01 0.  0.
</event>
<event>
 4    1  0.2195261E-006  0.1300000E+05  0.7957747E-01  0.1322471E+00
    9000001   -1    0    0    0    0  0.00000000000E+00  0.00000000000E+00  0.64999999231E+04  0.65000000000E+04  0.10000000000E+01 0.  0.
    9000001   -1    0    0    0    0 -0.00000000000E+00 -0.00000000000E+00 -0.64999999231E+04  0.65000000000E+04  0.10000000000E+01 0.  0.
    9000001    1    1    2    0    0  0.20467980256E+04 -0.59587035623E+04  0.15982705336E+04  0.65000000000E+04  0.10000000000E+01 0.  0.
    9000001    1    1    2    0    0 -0.20467980256E+04  0.59587035623E+04 -0.15982705336E+04  0.65000000000E+04  0.10000000000E+01 0.  0.
</event>
<event>
 4    1  0.2195261E-006  0.1300000E+05  0.7957747E-01  0.1322471E+00
    9000001   -1    0    0    0    0  0.00000000000E+00  0.00000000000E+00  0.64999999231E+04  0.65000000000E+04  0.10000000000E+01 0.  0.
    9000001   -1    0    0    0    0 -0.00000000000E+00 -0.00000000000E+00 -0.64999999231E+04  0.65000000000E+04  0.10000000000E+01 0.  0.
    9000001    1    1    2    0    0  0.55694185167E+04  0.26305538287E+04 -0.20764784951E+04  0.65000000000E+04  0.10000000000E+01 0.  0.
    9000001    1    1    2    0    0 -0.55694185167E+04 -0.26305538287E+04  0.20764784951E+04  0.65000000000E+04  0.10000000000E+01 0.  0.
</event>
<event>
 4    1  0.2195261E-006  0.1300000E+05  0.7957747E-01  0.1322471E+00
    9000001   -1    0    0    0    0  0.00000000000E+00  0.00000000000E+00  0.64999999231E+04  0.65000000000E+04  0.10000000000E+01 0.  0.
    9000001   -1    0    0    0    0 -0.00000000000E+00 -0.00000000000E+00 -0.64999999231E+04  0.65000000000E+04  0.10000000000E+01 0.  0.
    9000001    1    1    2    0    0 -0.36555557611E+04  0.47210400091E+04 -0.25687919942E+04  0.65000000000E+04  0.10000000000E+01 0.  0.
    9000001    1    1    2    0    0  0.36555557611E+04 -0.47210400091E+04  0.25687919942E+04  0.65000000000E+04  0.10000000000E+01 0.  0.
</event>
<event>
 4    1  0.2195261E-006  0.1300000E+05  0.7957747E-01  0.1322471E+00
    9000001   -1    0    0    0    0  0.00000000000E+00  0.00000000000E+00  0.64999999231E+04  0.65000000000E+04  0.10000000000E+01 0.  0.
    9000001   -1    0    0    0    0 -0.00000000000E+00 -0.00000000000E+00 -0.64999999231E+04  0.65000000000E+04  0.10000000000E+01 0.  0.
    9000001    1    1    2    0    0 -0.52896951750E+04  0.71494170459E+03  0.37091754225E+04  0.65000000000E+04  0.10000000000E+01 0.  0.
    9000001    1    1    2    0    0  0.52896951750E+04 -0.71494170459E+03 -0.37091754225E+04  0.65000000000E+04  0.10000000000E+01 0.  0.
</event>
<event>
 4    1  0.2195261E-006  0.1300000E+05  0.7957747E-01  0.1322471E+00
    9000001   -1    0    0    0    0  0.00000000000E+00  0.00000000000E+00  0.64999999231E+04  0.65000000000E+04  0.10000000000E+01 0.  0.
    9000001   -1    0    0    0    0 -0.00000000000E+00 -0.00000000000E+00 -0.64999999231E+04  0.65000000000E+04  0.10000000000E+01 0.  0.
    9000001    1    1    2    0    0  0.79244949197E+03 -0.20574295605E+04 -0.61146550521E+04  0.65000000000E+04  0.10000000000E+01 0.  0.
    9000001    1    1    2    0    0 -0.79244949197E+03  0.20574295605E+04  0.61146550521E+04  0.65000000000E+04  0.10000000000E+01 0.  0.
</event>
<event>
 4    1  0.2195261E-006  0.1300000E+05  0.7957747E-01  0.1322471E+00
    9000001   -1    0    0    0    0  0.00000000000E+00  0.00000000000E+00  0.64999999231E+04  0.65000000000E+04  0.10000000000E+01 0.  0.
    9000001   -1    0    0    0    0 -0.00000000000E+00 -0.00000000000E+00 -0.64999999231E+04  0.65000000000E+04  0.10000000000E+01 0.  0.
    9000001    1    1    2    0    0  0.28653073618E+04  0.55926487911E+04 -0.16620145072E+04  0.65000000000E+04  0.10000000000E+01 0.  0.
    9000001    1    1    2    0    0 -0.28653073618E+04 -0.55926487911E+04  0.16620145072E+04  0.65000000000E+04  0.10000000000E+01 0.  0.
</event>
<event>
 4    1  0.2195261E-006  0.1300000E+05  0.7957747E-01  0.1322471E+00
    9000001   -1    0    0    0    0  0.00000000000E+00  0.00000000000E+00  0.64999999231E+04  0.65000000000E+04  0.10000000000E+01 0.  0.
    9000001   -1    0    0    0    0 -0.00000000000E+00 -0.00000000000E+00 -0.64999999231E+04  0.65000000000E+04  0.10000000000E+01 0.  0.
    9000001    1    1    2    0    0  0.42142146580E+04 -0.46689124859E+04  0.16406248856E+04  0.65000000000E+04  0.10000000000E+01 0.  0.
    9000001    1    1    2    0    0 -0.42142146580E+04  0.46689124859E+04 -0.16406248856E+04  0.65000000000E+04  0.10000000000E+01 0.  0.
</event>
<event>
 4    1  0.2195261E-006  0.1300000E+05  0.7957747E-01  0.1322471E+00
    9000001   -1    0    0    0    0  0.00000000000E+00  0.00000000000E+00  0.64999999231E+04  0.65000000000E+04  0.10000000000E+01 0.  0.
    9000001   -1    0    0    0    0 -0.00000000000E+00 -0.00000000000E+00 -0.64999999231E+04  0.65000000000E+04  0.10000000000E+01 0.  0.
    9000001    1    1    2    0    0  0.53894289091E+04 -0.15619070009E+04 -0.32809299831E+04  0.65000000000E+04  0.10000000000E+01 0.  0.
    9000001    1    1    2    0    0 -0.53894289091E+04  0.15619070009E+04  0.32809299831E+04  0.65000000000E+04  0.10000000000E+01 0.  0.
</event>
<event>
 4    1  0.2195261E-006  0.1300000E+05  0.7957747E-01  0.1322471E+00
    9000001   -1    0    0    0    0  0.00000000000E+00  0.00000000000E+00  0.64999999231E+04  0.65000000000E+04  0.10000000000E+01 0.  0.
    9000001   -1    0    0    0    0 -0.00000000000E+00 -0.00000000000E+00 -0.64999999231E+04  0.65000000000E+04  0.10000000000E+01 0.  0.
    9000001    1    1    2    0    0  0.64614157234E+04  0.61555144719E+03  0.34814115616E+03  0.65000000000E+04  0.10000000000E+01 0.  0.
    9000001    1    1    2    0    0 -0.64614157234E+04 -0.61555144719E+03 -0.34814115616E+03  0.65000000000E+04  0.10000000000E+01 0.  0.
</event>
<event>
 4    1  0.2195261E-006  0.1300000E+05  0.7957747E-01  0.1322471E+00
    9000001   -1    0    0    0    0  0.00000000000E+00  0.00000000000E+00  0.64999999231E+04  0.65000000000E+04  0.10000000000E+01 0.  0.
    9000001   -1    0    0    0    0 -0.00000000000E+00 -0.00000000000E+00 -0.64999999231E+04  0.65000000000E+04  0.10000000000E+01 0.  0.
    9000001    1    1    2    0    0 -0.44682376590E+03  0.45576029145E+04  0.46128736375E+04  0.65000000000E+04  0.10000000000E+01 0.  0.
    9000001    1    1    2    0    0  0.44682376590E+03 -0.45576029145E+04 -0.46128736375E+04  0.65000000000E+04  0.10000000000E+01 0.  0.
</event>
<event>
 4    1  0.2195261E-006  0.1300000E+05  0.7957747E-01  0.1322471E+00
    9000001   -1    0    0    0    0  0.00000000000E+00  0.00000000000E+00  0.64999999231E+04  0.65000000000E+04  0.10000000000E+01 0.  0.
    9000001   -1    0    0    0    0 -0.00000000000E+00 -0.00000000000E+00 -0.64999999231E+04  0.65000000000E+04  0.10000000000E+01 0.  0.
    9000001    1    1    2    0    0  0.40557674855E+04 -0.24584437533E+04  0.44448625868E+04  0.65000000000E+04  0.10000000000E+01 0.  0.
    9000001    1    1    2    0    0 -0.40557674855E+04  0.24584437533E+04 -0.44448625868E+04  0.65000000000E+04  0.10000000000E+01 0.  0.
</event>
<event>
 4    1  0.2195261E-006  0.1300000E+05  0.7957747E-01  0.1322471E+00
    9000001   -1    0    0    0    0  0.00000000000E+00  0.00000000000E+00  0.64999999231E+04  0.65000000000E+04  0.10000000000E+01 0.  0.
    9000001   -1    0    0    0    0 -0.00000000000E+00 -0.00000000000E+00 -0.64999999231E+04  0.65000000000E+04  0.10000000000E+01 0.  0.
    9000001    1    1    2    0    0  0.23959504879E+03  0.48066152339E+04 -0.43691009608E+04  0.65000000000E+04  0.10000000000E+01 0.  0.
    9000001    1    1    2    0    0 -0.23959504879E+03 -0.48066152339E+04  0.43691009608E+04  0.65000000000E+04  0.10000000000E+01 0.  0.
</event>
<event>
 4    1  0.2195261E-006  0.1300000E+05  0.7957747E-01  0.1322471E+00
    9000001   -1    0    0    0    0  0.00000000000E+00  0.00000000000E+00  0.64999999231E+04  0.65000000000E+04  0.10000000000E+01 0.  0.
    9000001   -1    0    0    0    0 -0.00000000000E+00 -0.00000000000E+00 -0.64999999231E+04  0.65000000000E+04  0.10000000000E+01 0.  0.
    9000001    1    1    2    0    0 -0.21584564018E+03 -0.15710875181E+04  0.63035778468E+04  0.65000000000E+04  0.10000000000E+01 0.  0.
    9000001    1    1    2    0    0  0.21584564018E+03  0.15710875181E+04 -0.63035778468E+04  0.65000000000E+04  0.10000000000E+01 0.  0.
</event>
<event>
 4    1  0.2195261E-006  0.1300000E+05  0.7957747E-01  0.1322471E+00
    9000001   -1    0    0    0    0  0.00000000000E+00  0.00000000000E+00  0.64999999231E+04  0.65000000000E+04  0.10000000000E+01 0.  0.
    9000001   -1    0    0    0    0 -0.00000000000E+00 -0.00000000000E+00 -0.64999999231E+04  0.65000000000E+04  0.10000000000E+01 0.  0.
    9000001    1    1    2    0    0 -0.24532891560E+04 -0.46208612068E+03  0.60014871269E+04  0.65000000000E+04  0.10000000000E+01 0.  0.
    9000001    1    1    2    0    0  0.24532891560E+04  0.46208612068E+03 -0.60014871269E+04  0.65000000000E+04  0.10000000000E+01 0.  0.
</event>
<event>
 4    1  0.2195261E-006  0.1300000E+05  0.7957747E-01  0.1322471E+00
    9000001   -1    0    0    0    0  0.00000000000E+00  0.00000000000E+00  0.64999999231E+04  0.65000000000E+04  0.10000000000E+01 0.  0.
    9000001   -1    0    0    0    0 -0.00000000000E+00 -0.00000000000E+00 -0.64999999231E+04  0.65000000000E+04  0.10000000000E+01 0.  0.
    9000001    1    1    2    0    0  0.20804417418E+04  0.44938157965E+04 -0.42103896193E+04  0.65000000000E+04  0.10000000000E+01 0.  0.
    9000001    1    1    2    0    0 -0.20804417418E+04 -0.44938157965E+04  0.42103896193E+04  0.65000000000E+04  0.10000000000E+01 0.  0.
</event>
<event>
 4    1  0.2195261E-006  0.1300000E+05  0.7957747E-01  0.1322471E+00
    9000001   -1    0    0    0    0  0.00000000000E+00  0.00000000000E+00  0.64999999231E+04  0.65000000000E+04  0.10000000000E+01 0.  0.
    9000001   -1    0    0    0    0 -0.00000000000E+00 -0.00000000000E+00 -0.64999999231E+04  0.65000000000E+04  0.10000000000E+01 0.  0.
    9000001    1    1    2    0    0  0.67633217036E+03  0.27495609630E+04 -0.58508536391E+04  0.65000000000E+04  0.10000000000E+01 0.  0.
    9000001    1    1    2    0    0 -0.67633217036E+03 -0.27495609630E+04  0.58508536391E+04  0.65000000000E+04  0.10000000000E+01 0.  0.
</event>
<event>
 4    1  0.2195261E-006  0.1300000E+05  0.7957747E-01  0.1322471E+00
    9000001   -1    0    0    0    0  0.00000000000E+00  0.00000000000E+00  0.64999999231E+04  0.65000000000E+04  0.10000000000E+01 0.  0.
    9000001   -1    0    0    0    0 -0.00000000000E+00 -0.00000000000E+00 -0.64999999231E+04  0.65000000000E+04  0.10000000000E+01 0.  0.
    9000001    1    1    2    0    0  0.19225902577E+04  0.55650697648E+04  0.27538417192E+04  0.65000000000E+04  0.10000000000E+01 0.  0.
    9000001    1    1    2    0    0 -0.19225902577E+04 -0.55650697648E+04 -0.27538417192E+04  0.65000000000E+04  0.10000000000E+01 0.  0.
</event>
<event>
 4    1  0.2195261E-006  0.1300000E+05  0.7957747E-01  0.1322471E+00
    9000001   -1    0    0    0    0  0.00000000000E+00  0.00000000000E+00  0.64999999231E+04  0.65000000000E+04  0.10000000000E+01 0.  0.
    9000001   -1    0    0    0    0 -0.00000000000E+00 -0.00000000000E+00 -0.64999999231E+04  0.65000000000E+04  0.10000000000E+01 0.  0.
    9000001    1    1    2    0    0 -0.17599494951E+04  0.55315667445E+04 -0.29247813809E+04  0.65000000000E+04  0.10000000000E+01 0.  0.
    9000001    1    1    2    0    0  0.17599494951E+04 -0.55315667445E+04  0.29247813809E+04  0.65000000000E+04  0.10000000000E+01 0.  0.
</event>
<event>
 4    1  0.2195261E-006  0.1300000E+05  0.7957747E-01  0.1322471E+00
    9000001   -1    0    0    0    0  0.00000000000E+00  0.00000000000E+00  0.64999999231E+04  0.65000000000E+04  0.10000000000E+01 0.  0.
    9000001   -1    0    0    0    0 -0.00000000000E+00 -0.00000000000E+00 -0.64999999231E+04  0.65000000000E+04  0.10000000000E+01 0.  0.
    9000001    1    1    2    0    0  0.58922142661E+04  0.70790781040E+03 -0.26515423011E+04  0.65000000000E+04  0.10000000000E+01 0.  0.
    9000001    1    1    2    0    0 -0.58922142661E+04 -0.70790781040E+03  0.26515423011E+04  0.65000000000E+04  0.10000000000E+01 0.  0.
</event>
<event>
 4    1  0.2195261E-006  0.1300000E+05  0.7957747E-01  0.1322471E+00
    9000001   -1    0    0    0    0  0.00000000000E+00  0.00000000000E+00  0.64999999231E+04  0.65000000000E+04  0.10000000000E+01 0.  0.
    9000001   -1    0    0    0    0 -0.00000000000E+00 -0.00000000000E+00 -0.64999999231E+04  0.65000000000E+04  0.10000000000E+01 0.  0.
    9000001    1    1    2    0    0 -0.39535411076E+04 -0.22061951965E+04  0.46639269362E+04  0.65000000000E+04  0.10000000000E+01 0.  0.
    9000001    1    1    2    0    0  0.39535411076E+04  0.22061951965E+04 -0.46639269362E+04  0.65000000000E+04  0.10000000000E+01 0.  0.
</event>
<event>
 4    1  0.2195261E-006  0.1300000E+05  0.7957747E-01  0.1322471E+00
    9000001   -1    0    0    0    0  0.00000000000E+00  0.00000000000E+00  0.64999999231E+04  0.65000000000E+04  0.10000000000E+01 0.  0.
    9000001   -1    0    0    0    0 -0.00000000000E+00 -0.00000000000E+00 -0.64999999231E+04  0.65000000000E+04  0.10000000000E+01 0.  0.
    9000001    1    1    2    0    0 -0.24243933747E+04 -0.27994016310E+04 -0.53418785341E+04  0.65000000000E+04  0.10000000000E+01 0.  0.
    9000001    1    1    2    0    0  0.24243933747E+04  0.27994016310E+04  0.53418785341E+04  0.65000000000E+04  0.10000000000E+01 0.  0.
</event>
<event>
 4    1  0.2195261E-006  0.1300000E+05  0.7957747E-01  0.1322471E+00
    9000001   -1    0    0    0    0  0.00000000000E+00  0.00000000000E+00  0.64999999231E+04  0.65000000000E+04  0.10000000000E+01 0.  0.
    9000001   -1    0    0    0    0 -0.00000000000E+00 -0.00000000000E+00 -0.64999999231E+04  0.65000000000E+04  0.10000000000E+01 0.  0.
    9000001    1    1    2    0    0 -0.47470392332E+04 -0.38161527178E+04 -0.22699330283E+04  0.65000000000E+04  0.10000000000E+01 0.  0.
    9000001    1    1    2    0    0  0.47470392332E+04  0.38161527178E+04  0.22699330283E+04  0.65000000000E+04  0.10000000000E+01 0.  0.
</event>
<event>
 4    1  0.2195261E-006  0.1300000E+05  0.7957747E-01  0.1322471E+00
    9000001   -1    0    0    0    0  0.00000000000E+00  0.00000000000E+00  0.64999999231E+04  0.65000000000E+04  0.10000000000E+01 0.  0.
    9000001   -1    0    0    0    0 -0.00000000000E+00 -0.00000000000E+00 -0.64999999231E+04  0.65000000000E+04  0.10000000000E+01 0.  0.
    9000001    1    1    2    0    0  0.21671367340E+04  0.57646050555E+04  0.20791454807E+04  0.65000000000E+04  0.10000000000E+01 0.  0.
    9000001    1    1    2    0    0 -0.21671367340E+04 -0.57646050555E+04 -0.20791454807E+04  0.65000000000E+04  0.10000000000E+01 0.  0.
</event>
<event>
 4    1  0.2195261E-006  0.1300000E+05  0.7957747E-01  0.1322471E+00
    9000001   -1    0    0    0    0  0.00000000000E+00  0.00000000000E+00  0.64999999231E+04  0.65000000000E+04  0.10000000000E+01 0.  0.
    9000001   -1    0    0    0    0 -0.00000000000E+00 -0.00000000000E+00 -0.64999999231E+04  0.65000000000E+04  0.10000000000E+01 0.  0.
    9000001    1    1    2    0    0  0.41591645348E+03  0.58615087745E+04 -0.27784397403E+04  0.65000000000E+04  0.10000000000E+01 0.  0.
    9000001    1    1    2    0    0 -0.41591645348E+03 -0.58615087745E+04  0.27784397403E+04  0.65000000000E+04  0.10000000000E+01 0.  0.
</event>
<event>
 4    1  0.2195261E-006  0.1300000E+05  0.7957747E-01  0.1322471E+00
    9000001   -1    0    0    0    0  0.00000000000E+00  0.00000000000E+00  0.64999999231E+04  0.65000000000E+04  0.10000000000E+01 0.  0.
    9000001   -1    0    0    0    0 -0.00000000000E+00 -0.00000000000E+00 -0.64999999231E+04  0.65000000000E+04  0.10000000000E+01 0.  0.
    9000001    1    1    2    0    0 -0.60395125094E+04 -0.33251196270E+03  0.23798578619E+04  0.65000000000E+04  0.10000000000E+01 0.  0.
    9000001    1    1    2    0    0  0.60395125094E+04  0.33251196270E+03 -0.23798578619E+04  0.65000000000E+04  0.10000000000E+01 0.  0.
</event>
<event>
 4    1  0.2195261E-006  0.1300000E+05  0.7957747E-01  0.1322471E+00
    9000001   -1    0    0    0    0  0.00000000000E+00  0.00000000000E+00  0.64999999231E+04  0.65000000000E+04  0.10000000000E+01 0.  0.
    9000001   -1    0    0    0    0 -0.00000000000E+00 -0.00000000000E+00 -0.64999999231E+04  0.65000000000E+04  0.10000000000E+01 0.  0.
    9000001    1    1    2    0    0  0.50731504580E+04 -0.12629168548E+04  0.38624065617E+04  0.65000000000E+04  0.10000000000E+01 0.  0.
    9000001    1    1    2    0    0 -0.50731504580E+04  0.12629168548E+04 -0.38624065617E+04  0.65000000000E+04  0.10000000000E+01 0.  0.
</event>
<event>
 4    1  0.2195261E-006  0.1300000E+05  0.7957747E-01  0.1322471E+00
    9000001   -1    0    0    0    0  0.00000000000E+00  0.00000000000E+00  0.64999999231E+04  0.65000000000E+04  0.10000000000E+01 0.  0.
    9000001   -1    0    0    0    0 -0.00000000000E+00 -0.00000000000E+00 -0.64999999231E+04  0.65000000000E+04  0.10000000000E+01 0.  0.
    9000001    1    1    2    0    0  0.65003041712E+03 -0.55135147481E+04  0.33806234011E+04  0.65000000000E+04  0.10000000000E+01 0.  0.
    9000001    1    1    2    0    0 -0.65003041712E+03  0.55135147481E+04 -0.33806234011E+04  0.65000000000E+04  0.10000000000E+01 0.  0.
</event>
<event>
 4    1  0.2195261E-006  0.1300000E+05  0.7957747E-01  0.1322471E+00
    9000001   -1    0    0    0    0  0.00000000000E+00  0.00000000000E+00  0.64999999231E+04  0.65000000000E+04  0.10000000000E+01 0.  0.
    9000001   -1    0    0    0    0 -0.00000000000E+00 -0.00000000000E+00 -0.64999999231E+04  0.65000000000E+04  0.10000000000E+01 0.  0.
    9000001    1    1    2    0    0 -0.16049656402E+04 -0.47944288870E+04 -0.40850380587E+04  0.65000000000E+04  0.10000000000E+01 0.  0.
    9000001    1    1    2    0    0  0.16049656402E+04  0.47944288870E+04  0.40850380587E+04  0.65000000000E+04  0.10000000000E+01 0.  0.
</event>
<event>
 4    1  0.2195261E-006  0.1300000E+05  0.7957747E-01  0.1322471E+00
    9000001   -1    0    0    0    0  0.00000000000E+00  0.00000000000E+00  0.64999999231E+04  0.65000000000E+04  0.10000000000E+01 0.  0.
    9000001   -1    0    0    0    0 -0.00000000000E+00 -0.00000000000E+00 -0.64999999231E+04  0.65000000000E+04  0.10000000000E+01 0.  0.
    9000001    1    1    2    0    0  0.14298827183E+04  0.68322450523E+03  0.63038590314E+04  0.65000000000E+04  0.10000000000E+01 0.  0.
    9000001    1    1    2    0    0 -0.14298827183E+04 -0.68322450523E+03 -0.63038590314E+04  0.65000000000E+04  0.10000000000E+01 0.  0.
</event>
<event>
 4    1  0.2195261E-006  0.1300000E+05  0.7957747E-01  0.1322471E+00
    9000001   -1    0    0    0    0  0.00000000000E+00  0.00000000000E+00  0.64999999231E+04  0.65000000000E+04  0.10000000000E+01 0.  0.
    9000001   -1    0    0    0    0 -0.00000000000E+00 -0.00000000000E+00 -0.64999999231E+04  0.65000000000E+04  0.10000000000E+01 0.  0.
    9000001    1    1    2    0    0 -0.45938357187E+04 -0.35319198282E+04 -0.29448624275E+04  0.65000000000E+04  0.10000000000E+01 0.  0.
    9000001    1    1    2    0    0  0.45938357187E+04  0.35319198282E+04  0.29448624275E+04  0.65000000000E+04  0.10000000000E+01 0.  0.
</event>
<event>
 4    1  0.2195261E-006  0.1300000E+05  0.7957747E-01  0.1322471E+00
    9000001   -1    0    0    0    0  0.00000000000E+00  0.00000000000E+00  0.64999999231E+04  0.65000000000E+04  0.10000000000E+01 0.  0.
    9000001   -1    0    0    0    0 -0.00000000000E+00 -0.00000000000E+00 -0.64999999231E+04  0.65000000000E+04  0.10000000000E+01 0.  0.
    9000001    1    1    2    0    0  0.36771745129E+04  0.49923103238E+04 -0.19506983961E+04  0.65000000000E+04  0.10000000000E+01 0.  0.
    9000001    1    1    2    0    0 -0.36771745129E+04 -0.49923103238E+04  0.19506983961E+04  0.65000000000E+04  0.10000000000E+01 0.  0.
</event>
<event>
 4    1  0.2195261E-006  0.1300000E+05  0.7957747E-01  0.1322471E+00
    9000001   -1    0    0    0    0  0.00000000000E+00  0.00000000000E+00  0.64999999231E+04  0.65000000000E+04  0.10000000000E+01 0.  0.
    9000001   -1    0    0    0    0 -0.00000000000E+00 -0.00000000000E+00 -0.64999999231E+04  0.65000000000E+04  0.10000000000E+01 0.  0.
    9000001    1    1    2    0    0 -0.53097257504E+04 -0.26768371437E+04  0.26251389223E+04  0.65000000000E+04  0.10000000000E+01 0.  0.
    9000001    1    1    2    0    0  0.53097257504E+04  0.26768371437E+04 -0.26251389223E+04  0.65000000000E+04  0.10000000000E+01 0.  0.
</event>
<event>
 4    1  0.2195261E-006  0.1300000E+05  0.7957747E-01  0.1322471E+00
    9000001   -1    0    0    0    0  0.00000000000E+00  0.00000000000E+00  0.64999999231E+04  0.65000000000E+04  0.10000000000E+01 0.  0.
    9000001   -1    0    0    0    0 -0.00000000000E+00 -0.00000000000E+00 -0.64999999231E+04  0.65000000000E+04  0.10000000000E+01 0.  0.
    9000001    1    1    2    0    0 -0.27326872963E+04 -0.17439588522E+04  0.56339175236E+04  0.65000000000E+04  0.10000000000E+01 0.  0.
    9000001    1    1    2    0    0  0.27326872963E+04  0.17439588522E+04 -0.56339175236E+04  0.65000000000E+04  0.10000000000E+01 0.  0.
</event>
<event>
 4    1  0.2195261E-006  0.1300000E+05  0.7957747E-01  0.1322471E+00
    9000001   -1    0    0    0    0  0.00000000000E+00  0.00000000000E+00  0.64999999231E+04  0.65000000000E+04  0.10000000000E+01 0.  0.
    9000001   -1    0    0    0    0 -0.00000000000E+00 -0.00000000000E+00 -0.64999999231E+04  0.65000000000E+04  0.10000000000E+01 0.  0.
    9000001    1    1    2    0    0 -0.30999649854E+04  0.21473617171E+04  0.52942472312E+04  0.65000000000E+04  0.10000000000E+01 0.  0.
    9000001    1    1    2    0    0  0.30999649854E+04 -0.21473617171E+04 -0.52942472312E+04  0.65000000000E+04  0.10000000000E+01 0.  0.
</event>
<event>
 4    1  0.2195261E-006  0.1300000E+05  0.7957747E-01  0.1322471E+00
    9000001   -1    0    0    0    0  0.00000000000E+00  0.00000000000E+00  0.64999999231E+04  0.65000000000E+04  0.10000000000E+01 0.  0.
    9000001   -1    0    0    0    0 -0.00000000000E+00 -0.00000000000E+00 -0.64999999231E+04  0.65000000000E+04  0.10000000000E+01 0.  0.
    9000001    1    1    2    0    0 -0.35106820725E+04  0.49975776713E+04  0.22247084765E+04  0.65000000000E+04  0.10000000000E+01 0.  0.
    9000001    1    1    2    0    0  0.35106820725E+04 -0.49975776713E+04 -0.22247084765E+04  0.65000000000E+04  0.10000000000E+01 0.  0.
</event>
<event>
 4    1  0.2195261E-006  0.1300000E+05  0.7957747E-01  0.1322471E+00
    9000001   -1    0    0    0    0  0.00000000000E+00  0.00000000000E+00  0.64999999231E+04  0.65000000000E+04  0.10000000000E+01 0.  0.
    9000001   -1    0    0    0    0 -0.00000000000E+00 -0.00000000000E+00 -0.64999999231E+04  0.65000000000E+04  0.10000000000E+01 0.  0.
    9000001    1    1    2    0    0  0.62105729008E+04  0.15375839151E+04 -0.11465683356E+04  0.65000000000E+04  0.10000000000E+01 0.  0.
    9000001    1    1    2    0    0 -0.62105729008E+04 -0.15375839151E+04  0.11465683356E+04  0.65000000000E+04  0.10000000000E+01 0.  0.
</event>
<event>
 4    1  0.2195261E-006  0.1300000E+05  0.7957747E-01  0.1322471E+00
    9000001   -1    0    0    0    0  0.00000000000E+00  0.00000000000E+00  0.64999999231E+04  0.65000000000E+04  0.10000000000E+01 0.  0.
    9000001   -1    0    0    0    0 -0.00000000000E+00 -0.00000000000E+00 -0.64999999231E+04  0.65000000000E+04  0.10000000000E+01 0.  0.
    9000001    1    1    2    0    0 -0.17973333769E+04 -0.37714188014E+04  0.49795574057E+04  0.65000000000E+04  0.10000000000E+01 0.  0.
    9000001    1    1    2    0    0  0.17973333769E+04  0.37714188014E+04 -0.49795574057E+04  0.65000000000E+04  0.10000000000E+01 0.  0.
</event>
<event>
 4    1  0.2195261E-006  0.1300000E+05  0.7957747E-01  0.1322471E+00
    9000001   -1    0    0    0    0  0.00000000000E+00  0.00000000000E+00  0.64999999231E+04  0.65000000000E+04  0.10000000000E+01 0.  0.
    9000001   -1    0    0    0    0 -0.00000000000E+00 -0.00000000000E+00 -0.64999999231E+04  0.65000000000E+04  0.10000000000E+01 0.  0.
    9000001    1    1    2    0    0 -0.64240476374E+04  0.97904455322E+03 -0.15192996776E+03  0.65000000000E+04  0.10000000000E+01 0.  0.
    9000001    1    1    2    0    0  0.64240476374E+04 -0.97904455322E+03  0.15192996776E+03  0.65000000000E+04  0.10000000000E+01 0.  0.
</event>
<event>
 4    1  0.2195261E-006  0.1300000E+05  0.7957747E-01  0.1322471E+00
    9000001   -1    0    0    0    0  0.00000000000E+00  0.00000000000E+00  0.64999999231E+04  0.65000000000E+04  0.10000000000E+01 0.  0.
    9000001   -1    0    0    0    0 -0.00000000000E+00 -0.00000000000E+00 -0.64999999231E+04  0.65000000000E+04  0.10000000000E+01 0.  0.
    9000001    1    1    2    0    0 -0.22222352761E+04 -0.59788799493E+04 -0.12508652725E+04  0.65000000000E+04  0.10000000000E+01 0.  0.
    9000001    1    1    2    0    0  0.22222352761E+04  0.59788799493E+04  0.12508652725E+04  0.65000000000E+04  0.10000000000E+01 0.  0.
</event>
<event>
 4    1  0.2195261E-006  0.1300000E+05  0.7957747E-01  0.1322471E+00
    9000001   -1    0    0    0    0  0.00000000000E+00  0.00000000000E+00  0.64999999231E+04  0.65000000000E+04  0.10000000000E+01 0.  0.
    9000001   -1    0    0    0    0 -0.00000000000E+00 -0.00000000000E+00 -0.64999999231E+04  0.65000000000E+04  0.10000000000E+01 0.  0.
    9000001    1    1    2    0    0  0.33141249149E+03 -0.10670824329E+04 -0.64032413543E+04  0.65000000000E+04  0.10000000000E+01 0.  0.
    9000001    1    1    2    0    0 -0.33141249149E+03  0.10670824329E+04  0.64032413543E+04  0.65000000000E+04  0.10000000000E+01 0.  0.
</event>
<event>
 4    1  0.2195261E-006  0.1300000E+05  0.7957747E-01  0.1322471E+00
    9000001   -1    0    0    0    0  0.00000000000E+00  0.00000000000E+00  0.64999999231E+04  0.65000000000E+04  0.10000000000E+01 0.  0.
    9000001   -1    0    0    0    0 -0.00000000000E+00 -0.00000000000E+00 -0.64999999231E+04  0.65000000000E+04  0.10000000000E+01 0.  0.
    9000001    1    1    2    0    0  0.37685857974E+04  0.35047245552E+04 -0.39704742638E+04  0.65000000000E+04  0.10000000000E+01 0.  0.
    9000001    1    1    2    0    0 -0.37685857974E+04 -0.35047245552E+04  0.39704742638E+04  0.65000000000E+04  0.10000000000E+01 0.  0.
</event>
<event>
 4    1  0.2195261E-006  0.1300000E+05  0.7957747E-01  0.1322471E+00
    9000001   -1    0    0    0    0  0.00000000000E+00  0.00000000000E+00  0.64999999231E+04  0.65000000000E+04  0.10000000000E+01 0.  0.
    9000001   -1    0    0    0    0 -0.00000000000E+00 -0.00000000000E+00 -0.64999999231E+04  0.65000000000E+04  0.10000000000E+01 0.  0.
    9000001    1    1    2    0    0 -0.24578153137E+03  0.16357738413E+04  0.62860030527E+04  0.65000000000E+04  0.10000000000E+01 0.  0.
    9000001    1    1    2    0    0  0.24578153137E+03 -0.16357738413E+04 -0.62860030527E+04  0.65000000000E+04  0.10000000000E+01 0.  0.
</event>
<event>
 4    1  0.2195261E-006  0.1300000E+05  0.7957747E-01  0.1322471E+00
    9000001   -1    0    0    0    0  0.00000000000E+00  0.00000000000E+00  0.64999999231E+04  0.65000000000E+04  0.10000000000E+01 0.  0.
    9000001   -1    0    0    0    0 -0.00000000000E+00 -0.00000000000E+00 -0.64999999231E+04  0.65000000000E+04  0.10000000000E+01 0.  0.
    9000001    1    1    2    0    0 -0.26204866036E+04  0.35603624795E+04  0.47651723971E+04  0.65000000000E+04  0.10000000000E+01 0.  0.
    9000001    1    1    2    0    0  0.26204866036E+04 -0.35603624795E+04 -0.47651723971E+04  0.65000000000E+04  0.10000000000E+01 0.  0.
</event>
<event>
 4    1  0.2195261E-006  0.1300000E+05  0.7957747E-01  0.1322471E+00
    9000001   -1    0    0    0    0  0.00000000000E+00  0.00000000000E+00  0.64999999231E+04  0.65000000000E+04  0.10000000000E+01 0.  0.
    9000001   -1    0    0    0    0 -0.00000000000E+00 -0.00000000000E+00 -0.64999999231E+04  0.65000000000E+04  0.10000000000E+01 0.  0.
    9000001    1    1    2    0    0 -0.16554029016E+04 -0.54666672534E+04  0.31024489317E+04  0.65000000000E+04  0.10000000000E+01 0.  0.
    9000001    1    1    2    0    0  0.16554029016E+04  0.54666672534E+04 -0.31024489317E+04  0.65000000000E+04  0.10000000000E+01 0.  0.
</event>
<event>
 4    1  0.2195261E-006  0.1300000E+05  0.7957747E-01  0.1322471E+00
    9000001   -1    0    0    0    0  0.00000000000E+00  0.00000000000E+00  0.64999999231E+04  0.65000000000E+04  0.10000000000E+01 0.  0.
    9000001   -1    0    0    0    0 -0.00000000000E+00 -0.00000000000E+00 -0.64999999231E+04  0.65000000000E+04  0.10000000000E+01 0.  0.
    9000001    1    1    2    0    0 -0.38792302768E+04 -0.31632369479E+04  0.41467461305E+04  0.65000000000E+04  0.10000000000E+01 0.  0.
    9000001    1    1    2    0    0  0.38792302768E+04  0.31632369479E+04 -0.41467461305E+04  0.65000000000E+04  0.10000000000E+01 0.  0.
</event>
<event>
 4    1  0.2195261E-006  0.1300000E+05  0.7957747E-01  0.1322471E+00
    9000001   -1    0    0    0    0  0.00000000000E+00  0.00000000000E+00  0.64999999231E+04  0.65000000000E+04  0.10000000000E+01 0.  0.
    9000001   -1    0    0    0    0 -0.00000000000E+00 -0.00000000000E+00 -0.64999999231E+04  0.65000000000E+04  0.10000000000E+01 0.  0.
    9000001    1    1    2    0    0 -0.29334424652E+04 -0.72122419992E+03  0.57554104942E+04  0.65000000000E+04  0.10000000000E+01 0.  0.
    9000001    1    1    2    0    0  0.29334424652E+04  0.72122419992E+03 -0.57554104942E+04  0.65000000000E+04  0.10000000000E+01 0.  0.
</event>
<event>
 4    1  0.2195261E-006  0.1300000E+05  0.7957747E-01  0.1322471E+00
    9000001   -1    0    0    0    0  0.00000000000E+00  0.00000000000E+00  0.64999999231E+04  0.65000000000E+04  0.10000000000E+01 0.  0.
    9000001   -1    0    0    0    0 -0.00000000000E+00 -0.00000000000E+00 -0.64999999231E+04  0.65000000000E+04  0.10000000000E+01 0.  0.
    9000001    1    1    2    0    0 -0.56350295894E+04 -0.30332727292E+04 -0.11382869048E+04  0.65000000000E+04  0.10000000000E+01 0.  0.
    9000001    1    1    2    0    0  0.56350295894E+04  0.30332727292E+04  0.11382869048E+04  0.65000000000E+04  0.10000000000E+01 0.  0.
</event>
<event>
 4    1  0.2195261E-006  0.1300000E+05  0.7957747E-01  0.1322471E+00
    9000001   -1    0    0    0    0  0.00000000000E+00  0.00000000000E+00  0.64999999231E+04  0.65000000000E+04  0.10000000000E+01 0.  0.
    9000001   -1    0    0    0    0 -0.00000000000E+00 -0.00000000000E+00 -0.64999999231E+04  0.65000000000E+04  0.10000000000E+01 0.  0.
    9000001    1    1    2    0    0 -0.32506262836E+04  0.54415199283E+04  0.14398918829E+04  0.65000000000E+04  0.10000000000E+01 0.  0.
    9000001    1    1    2    0    0  0.32506262836E+04 -0.54415199283E+04 -0.14398918829E+04  0.65000000000E+04  0.10000000000E+01 0.  0.
</event>
<event>
 4    1  0.2195261E-006  0.1300000E+05  0.7957747E-01  0.1322471E+00
    9000001   -1    0    0    0    0  0.00000000000E+00  0.00000000000E+00  0.64999999231E+04  0.65000000000E+04  0.10000000000E+01 0.  0.
    9000001   -1    0    0    0    0 -0.00000000000E+00 -0.00000000000E+00 -0.64999999231E+04  0.65000000000E+04  0.10000000000E+01 0.  0.
    9000001    1    1    2    0    0 -0.61212083521E+04  0.87215659141E+02 -0.21847656028E+04  0.65000000000E+04  0.10000000000E+01 0.  0.
    9000001    1    1    2    0    0  0.61212083521E+04 -0.87215659141E+02  0.21847656028E+04  0.65000000000E+04  0.10000000000E+01 0.  0.
</event>
<event>
 4    1  0.2195261E-006  0.1300000E+05  0.7957747E-01  0.1322471E+00
    9000001   -1    0    0    0    0  0.00000000000E+00  0.00000000000E+00  0.64999999231E+04  0.65000000000E+04  0.10000000000E+01 0.  0.
    9000001   -1    0    0    0    0 -0.00000000000E+00 -0.00000000000E+00 -0.64999999231E+04  0.65000000000E+04  0.10000000000E+01 0.  0.
    9000001    1    1    2    0    0  0.61558962501E+04  0.58959230265E+03  0.20018294819E+04  0.65000000000E+04  0.10000000000E+01 0.  0.
    9000001    1    1    2    0    0 -0.61558962501E+04 -0.58959230265E+03 -0.20018294819E+04  0.65000000000E+04  0.10000000000E+01 0.  0.
</event>
<event>
 4    1  0.2195261E-006  0.1300000E+05  0.7957747E-01  0.1322471E+00
    9000001   -1    0    0    0    0  0.00000000000E+00  0.00000000000E+00  0.64999999231E+04  0.65000000000E+04  0.10000000000E+01 0.  0.
    9000001   -1    0    0    0    0 -0.00000000000E+00 -0.00000000000E+00 -0.64999999231E+04  0.65000000000E+04  0.10000000000E+01 0.  0.
    9000001    1    1    2    0    0  0.17413789157E+04 -0.42756050756E+04  0.45756747819E+04  0.65000000000E+04  0.10000000000E+01 0.  0.
    9000001    1    1    2    0    0 -0.17413789157E+04  0.42756050756E+04 -0.45756747819E+04  0.65000000000E+04  0.10000000000E+01 0.  0.
</event>
<event>
 4    1  0.2195261E-006  0.1300000E+05  0.7957747E-01  0.1322471E+00
    9000001   -1    0    0    0    0  0.00000000000E+00  0.00000000000E+00  0.64999999231E+04  0.65000000000E+04  0.10000000000E+01 0.  0.
    9000001   -1    0    0    0    0 -0.00000000000E+00 -0.00000000000E+00 -0.64999999231E+04  0.65000000000E+04  0.10000000000E+01 0.  0.
    9000001    1    1    2    0    0 -0.56671444862E+04 -0.41448661937E+03 -0.31562118458E+04  0.65000000000E+04  0.10000000000E+01 0.  0.
    9000001    1    1    2    0    0  0.56671444862E+04  0.41448661937E+03  0.31562118458E+04  0.65000000000E+04  0.10000000000E+01 0.  0.
</event>
<event>
 4    1  0.2195261E-006  0.1300000E+05  0.7957747E-01  0.1322471E+00
    9000001   -1    0    0    0    0  0.00000000000E+00  0.00000000000E+00  0.64999999231E+04  0.65000000000E+04  0.10000000000E+01 0.  0.
    9000001   -1    0    0    0    0 -0.00000000000E+00 -0.00000000000E+00 -0.64999999231E+04  0.65000000000E+04  0.10000000000E+01 0.  0.
    9000001    1    1    2    0    0 -0.40576164146E+04 -0.47968185137E+04  0.16662173264E+04  0.65000000000E+04  0.10000000000E+01 0.  0.
    9000001    1    1    2    0    0  0.40576164146E+04  0.47968185137E+04 -0.16662173264E+04  0.65000000000E+04  0.10000000000E+01 0.  0.
</event>
<event>
 4    1  0.2195261E-006  0.1300000E+05  0.7957747E-01  0.1322471E+00
    9000001   -1    0    0    0    0  0.00000000000E+00  0.00000000000E+00  0.64999999231E+04  0.65000000000E+04  0.10000000000E+01 0.  0.
    9000001   -1    0    0    0    0 -0.00000000000E+00 -0.00000000000E+00 -0.64999999231E+04  0.65000000000E+04  0.10000000000E+01 0.  0.
    9000001    1    1    2    0    0 -0.50552158779E+04  0.30956340467E+04  0.26668035692E+04  0.65000000000E+04  0.10000000000E+01 0.  0.
    9000001    1    1    2    0    0  0.50552158779E+04 -0.30956340467E+04 -0.26668035692E+04  0.65000000000E+04  0.10000000000E+01 0.  0.
</event>
<event>
 4    1  0.2195261E-006  0.1300000E+05  0.7957747E-01  0.1322471E+00
    9000001   -1    0    0    0    0  0.00000000000E+00  0.00000000000E+00  0.64999999231E+04  0.65000000000E+04  0.10000000000E+01 0.  0.
    9000001   -1    0    0    0    0 -0.00000000000E+00 -0.00000000000E+00 -0.64999999231E+04  0.65000000000E+04  0.10000000000E+01 0.  0.
    9000001    1    1    2    0    0  0.23911109886E+03 -0.40464561177E+04 -0.50812417548E+04  0.65000000000E+04  0.10000000000E+01 0.  0.
    9000001    1    1    2    0    0 -0.23911109886E+03  0.40464561177E+04  0.50812417548E+04  0.65000000000E+04  0.10000000000E+01 0.  0.
</event>
