<event>
 8    2  0.8128359E-004  0.1364078E+03  0.7818608E-02  0.1230082E+00
         -2   -1    0    0    0  501 -0.00000000000E+00  0.00000000000E+00  0.14126031892E+02  0.14126032122E+02  0.25500000000E-02 0.  1.
          2   -1    0    0  501    0  0.00000000000E+00 -0.00000000000E+00 -0.10569552188E+04  0.10569552188E+04  0.25500000000E-02 0. -1.
         25    2    1    2    0    0 -0.49491842651E+01 -0.54382746082E+02 -0.64147517193E+03  0.65581817308E+03  0.12500040973E+03 0.  0.
         23    2    1    2    0    0  0.49491842651E+01  0.54382746082E+02 -0.40135401496E+03  0.41526307783E+03  0.91522680208E+02 0.  0.
        -11    1    4    4    0    0  0.15619932335E+02  0.50886788629E+02 -0.96541936044E+02  0.11024424229E+03  0.51100000000E-03 0.  1.
         11    1    4    4    0    0 -0.10670748070E+02  0.34959574528E+01 -0.30481207891E+03  0.30501883554E+03  0.51100000000E-03 0. -1.
    9000005    1    3    3    0    0  0.20206264849E+02 -0.78358295858E+02 -0.57626361076E+03  0.58191843479E+03  0.10000000000E+01 0.  0.
    9000005    1    3    3    0    0 -0.25155449115E+02  0.23975549776E+02 -0.65211561175E+02  0.73899738282E+02  0.10000000000E+01 0.  0.
<mgrwt>
<rscale>  0 0.12824601E+03</rscale>
<asrwt>0</asrwt>
<pdfrwt beam="2">  1        2 0.16260843E+00 0.13640777E+03</pdfrwt>
<pdfrwt beam="1">  1       -2 0.21732365E-02 0.13640777E+03</pdfrwt>
<totfact> 0.15892036E+04</totfact>
</mgrwt>
</event>
<event>
 8    2  0.8128359E-004  0.1293785E+03  0.7818608E-02  0.1242707E+00
         -2   -1    0    0    0  501 -0.00000000000E+00  0.00000000000E+00  0.15689370988E+03  0.15689370991E+03  0.25500000000E-02 0.  1.
          2   -1    0    0  501    0  0.00000000000E+00 -0.00000000000E+00 -0.12396229346E+03  0.12396229349E+03  0.25500000000E-02 0. -1.
         25    2    1    2    0    0 -0.24439369140E+02 -0.22734263059E+02  0.99841046707E+02  0.16342286443E+03  0.12499867411E+03 0.  0.
         23    2    1    2    0    0  0.24439369140E+02  0.22734263059E+02 -0.66909630283E+02  0.11743313897E+03  0.90551167976E+02 0.  0.
        -11    1    4    4    0    0 -0.54653225229E+01  0.24259638818E+02  0.15805120652E+02  0.29465262004E+02  0.51100000000E-03 0.  1.
         11    1    4    4    0    0  0.29904691663E+02 -0.15253757586E+01 -0.82714750935E+02  0.87967876962E+02  0.51100000000E-03 0. -1.
    9000005    1    3    3    0    0  0.15662609227E+02 -0.27102192210E+02  0.11585226731E+03  0.12001080781E+03  0.10000000000E+01 0.  0.
    9000005    1    3    3    0    0 -0.40101978367E+02  0.43679291510E+01 -0.16011220606E+02  0.43412056613E+02  0.10000000000E+01 0.  0.
<mgrwt>
<rscale>  0 0.12023656E+03</rscale>
<asrwt>0</asrwt>
<pdfrwt beam="2">  1        2 0.19071122E-01 0.12937851E+03</pdfrwt>
<pdfrwt beam="1">  1       -2 0.24137494E-01 0.12937851E+03</pdfrwt>
<totfact> 0.42355207E+03</totfact>
</mgrwt>
</event>
<event>
 8    2  0.8128359E-004  0.1643950E+03  0.7818608E-02  0.1190578E+00
         -2   -1    0    0    0  501 -0.00000000000E+00  0.00000000000E+00  0.14769361837E+03  0.14769361839E+03  0.25500000000E-02 0.  1.
          2   -1    0    0  501    0  0.00000000000E+00 -0.00000000000E+00 -0.17245385984E+03  0.17245385985E+03  0.25500000000E-02 0. -1.
         25    2    1    2    0    0  0.79950471798E+02 -0.70736675609E+02 -0.58830860874E+02  0.17460463307E+03  0.12501980836E+03 0.  0.
         23    2    1    2    0    0 -0.79950471798E+02  0.70736675609E+02  0.34070619406E+02  0.14554284517E+03  0.92877109435E+02 0.  0.
        -11    1    4    4    0    0 -0.43845007374E+02  0.57315346295E+02  0.64241044361E+02  0.96614415971E+02  0.51100000000E-03 0.  1.
         11    1    4    4    0    0 -0.36105464423E+02  0.13421329314E+02 -0.30170424955E+02  0.48928429200E+02  0.51100000000E-03 0. -1.
    9000005    1    3    3    0    0  0.16509647402E+02 -0.35076546398E+02 -0.88021647059E+02  0.96185980868E+02  0.10000000000E+01 0.  0.
    9000005    1    3    3    0    0  0.63440824396E+02 -0.35660129211E+02  0.29190786185E+02  0.78418652204E+02  0.10000000000E+01 0.  0.
<mgrwt>
<rscale>  0 0.15834509E+03</rscale>
<asrwt>0</asrwt>
<pdfrwt beam="2">  1        2 0.26531363E-01 0.16439497E+03</pdfrwt>
<pdfrwt beam="1">  1       -2 0.22722095E-01 0.16439497E+03</pdfrwt>
<totfact> 0.32943069E+03</totfact>
</mgrwt>
</event>
<event>
 8    2  0.8128359E-004  0.1318425E+03  0.7818608E-02  0.1237766E+00
         -2   -1    0    0    0  501 -0.00000000000E+00  0.00000000000E+00  0.65892144551E+02  0.65892144600E+02  0.25500000000E-02 0.  1.
          2   -1    0    0  501    0  0.00000000000E+00 -0.00000000000E+00 -0.33448947199E+03  0.33448947200E+03  0.25500000000E-02 0. -1.
         25    2    1    2    0    0  0.41909835145E+02 -0.21228226655E-01 -0.21600375571E+02  0.13360026668E+03  0.12500408113E+03 0.  0.
         23    2    1    2    0    0 -0.41909835145E+02  0.21228226655E-01 -0.24699695187E+03  0.26678134992E+03  0.91697108474E+02 0.  0.
        -11    1    4    4    0    0 -0.37072290851E+02 -0.43361255749E+02 -0.13342650102E+03  0.14511093833E+03  0.51100000000E-03 0.  1.
         11    1    4    4    0    0 -0.48375442946E+01  0.43382483975E+02 -0.11357045085E+03  0.12167041159E+03  0.51100000000E-03 0. -1.
    9000005    1    3    3    0    0 -0.28315002657E+02  0.35456494692E+02  0.13630630179E+02  0.47388780005E+02  0.10000000000E+01 0.  0.
    9000005    1    3    3    0    0  0.70224837803E+02 -0.35477722918E+02 -0.35231005749E+02  0.86211486671E+02  0.10000000000E+01 0.  0.
<mgrwt>
<rscale>  0 0.12329032E+03</rscale>
<asrwt>0</asrwt>
<pdfrwt beam="2">  1        2 0.51459918E-01 0.13184254E+03</pdfrwt>
<pdfrwt beam="1">  1       -2 0.10137253E-01 0.13184254E+03</pdfrwt>
<totfact> 0.60189234E+03</totfact>
</mgrwt>
</event>
<event>
 8    2  0.8128359E-004  0.3181226E+03  0.7818608E-02  0.1077941E+00
         -2   -1    0    0    0  501 -0.00000000000E+00  0.00000000000E+00  0.10467120092E+03  0.10467120095E+03  0.25500000000E-02 0.  1.
          2   -1    0    0  501    0  0.00000000000E+00 -0.00000000000E+00 -0.10364492486E+04  0.10364492486E+04  0.25500000000E-02 0. -1.
         25    2    1    2    0    0 -0.26838708565E+03  0.11638040332E+03 -0.29167036164E+03  0.43159425015E+03  0.12500388347E+03 0.  0.
         23    2    1    2    0    0  0.26838708565E+03 -0.11638040332E+03 -0.64010768604E+03  0.70952619940E+03  0.90075256834E+02 0.  0.
        -11    1    4    4    0    0  0.11398001930E+03 -0.10032141905E+02 -0.30143363149E+03  0.32241948276E+03  0.51100000000E-03 0.  1.
         11    1    4    4    0    0  0.15440706634E+03 -0.10634826142E+03 -0.33867405455E+03  0.38710671664E+03  0.51100000000E-03 0. -1.
    9000005    1    3    3    0    0 -0.74449937764E+02 -0.24499593089E+02 -0.69288066500E+02  0.10461768232E+03  0.10000000000E+01 0.  0.
    9000005    1    3    3    0    0 -0.19393714788E+03  0.14087999641E+03 -0.22238229514E+03  0.32697656783E+03  0.10000000000E+01 0.  0.
<mgrwt>
<rscale>  0 0.31507019E+03</rscale>
<asrwt>0</asrwt>
<pdfrwt beam="2">  1        2 0.15945372E+00 0.31812261E+03</pdfrwt>
<pdfrwt beam="1">  1       -2 0.16103262E-01 0.31812261E+03</pdfrwt>
<totfact> 0.75842676E+02</totfact>
</mgrwt>
</event>
<event>
 8    2  0.8128359E-004  0.1373828E+03  0.7818608E-02  0.1229425E+00
          2   -1    0    0  501    0  0.00000000000E+00  0.00000000000E+00  0.18678917551E+04  0.18678917551E+04  0.25500000000E-02 0. -1.
         -2   -1    0    0    0  501 -0.00000000000E+00 -0.00000000000E+00 -0.82812857619E+01  0.82812861545E+01  0.25500000000E-02 0.  1.
         25    2    1    2    0    0  0.33315199481E+02 -0.46271820022E+02  0.12419840951E+04  0.12495593278E+04  0.12499214895E+03 0.  0.
         23    2    1    2    0    0 -0.33315199481E+02  0.46271820022E+02  0.61762637424E+03  0.62661371348E+03  0.89058542124E+02 0.  0.
        -11    1    4    4    0    0 -0.55974057617E+02  0.57662105348E+02  0.47515473918E+03  0.48190252094E+03  0.51100000000E-03 0.  1.
         11    1    4    4    0    0  0.22658858135E+02 -0.11390285326E+02  0.14247163506E+03  0.14471119254E+03  0.51100000000E-03 0. -1.
    9000005    1    3    3    0    0  0.21082246954E+02  0.75793019019E+01  0.10376444493E+04  0.10378867521E+04  0.10000000000E+01 0.  0.
    9000005    1    3    3    0    0  0.12232952527E+02 -0.53851121924E+02  0.20433964577E+03  0.21167257567E+03  0.10000000000E+01 0.  0.
<mgrwt>
<rscale>  0 0.12868149E+03</rscale>
<asrwt>0</asrwt>
<pdfrwt beam="1">  1        2 0.28736804E+00 0.13738275E+03</pdfrwt>
<pdfrwt beam="2">  1       -2 0.12740437E-02 0.13738275E+03</pdfrwt>
<totfact> 0.12765482E+04</totfact>
</mgrwt>
</event>
<event>
 8    2  0.8128359E-004  0.1299548E+03  0.7818608E-02  0.1241042E+00
         -2   -1    0    0    0  501 -0.00000000000E+00  0.00000000000E+00  0.10450696944E+02  0.10450697255E+02  0.25500000000E-02 0.  1.
          2   -1    0    0  501    0  0.00000000000E+00 -0.00000000000E+00 -0.13036342336E+04  0.13036342336E+04  0.25500000000E-02 0. -1.
         25    2    1    2    0    0  0.20079501068E+02 -0.29311667146E+02 -0.59793436837E+03  0.61189358384E+03  0.12500355545E+03 0.  0.
         23    2    1    2    0    0 -0.20079501068E+02  0.29311667146E+02 -0.69524916824E+03  0.70219134697E+03  0.91863603386E+02 0.  0.
        -11    1    4    4    0    0  0.28300726438E+02  0.75618638846E+01 -0.46454287646E+03  0.46546557013E+03  0.51100000000E-03 0. -1.
         11    1    4    4    0    0 -0.48380227505E+02  0.21749803262E+02 -0.23070629178E+03  0.23672577684E+03  0.51100000000E-03 0.  1.
    9000005    1    3    3    0    0  0.22037997698E+02 -0.68998374397E+02 -0.51334829363E+03  0.51843410342E+03  0.10000000000E+01 0.  0.
    9000005    1    3    3    0    0 -0.19584966302E+01  0.39686707251E+02 -0.84586074737E+02  0.93459480422E+02  0.10000000000E+01 0.  0.
<mgrwt>
<rscale>  0 0.12125450E+03</rscale>
<asrwt>0</asrwt>
<pdfrwt beam="2">  1        2 0.20055898E+00 0.12995480E+03</pdfrwt>
<pdfrwt beam="1">  1       -2 0.16078006E-02 0.12995480E+03</pdfrwt>
<totfact> 0.17860790E+04</totfact>
</mgrwt>
</event>
<event>
 8    2  0.8128359E-004  0.1381516E+03  0.7818608E-02  0.1226775E+00
          2   -1    0    0  501    0  0.00000000000E+00  0.00000000000E+00  0.63720122766E+03  0.63720122767E+03  0.25500000000E-02 0.  1.
         -2   -1    0    0    0  501 -0.00000000000E+00 -0.00000000000E+00 -0.36152401961E+02  0.36152402051E+02  0.25500000000E-02 0. -1.
         25    2    1    2    0    0  0.39778512506E+02  0.43345304465E+02  0.13012500016E+03  0.18978509055E+03  0.12499887780E+03 0.  0.
         23    2    1    2    0    0 -0.39778512506E+02 -0.43345304465E+02  0.47092382554E+03  0.48356853917E+03  0.92780047104E+02 0.  0.
        -11    1    4    4    0    0 -0.29651234521E+02  0.26086811412E+02  0.18385024042E+03  0.18804421911E+03  0.51100000000E-03 0.  1.
         11    1    4    4    0    0 -0.10127277985E+02 -0.69432115876E+02  0.28707358512E+03  0.29552432006E+03  0.51100000000E-03 0. -1.
    9000005    1    3    3    0    0  0.65544248423E+02 -0.16181630156E+02  0.39146886863E+02  0.78047244711E+02  0.10000000000E+01 0.  0.
    9000005    1    3    3    0    0 -0.25765735917E+02  0.59526934620E+02  0.90978113301E+02  0.11173784584E+03  0.10000000000E+01 0.  0.
<mgrwt>
<rscale>  0 0.13045992E+03</rscale>
<asrwt>0</asrwt>
<pdfrwt beam="1">  1        2 0.98030956E-01 0.13815160E+03</pdfrwt>
<pdfrwt beam="2">  1       -2 0.55619081E-02 0.13815160E+03</pdfrwt>
<totfact> 0.75170346E+03</totfact>
</mgrwt>
</event>
<event>
 8    2  0.8128359E-004  0.1959129E+03  0.7818608E-02  0.1157698E+00
         -2   -1    0    0    0  501 -0.00000000000E+00  0.00000000000E+00  0.28681915965E+02  0.28681916079E+02  0.25500000000E-02 0.  1.
          2   -1    0    0  501    0  0.00000000000E+00 -0.00000000000E+00 -0.12704885320E+04  0.12704885320E+04  0.25500000000E-02 0. -1.
         25    2    1    2    0    0 -0.13610028895E+03 -0.65070171350E+02 -0.50841022053E+03  0.54485120359E+03  0.12499786343E+03 0.  0.
         23    2    1    2    0    0  0.13610028895E+03  0.65070171350E+02 -0.73339639547E+03  0.75431924446E+03  0.91486795855E+02 0.  0.
        -11    1    4    4    0    0  0.91634275716E+02  0.44016066479E+02 -0.27319923158E+03  0.29149969937E+03  0.51100000000E-03 0.  1.
         11    1    4    4    0    0  0.44466013239E+02  0.21054104871E+02 -0.46019716389E+03  0.46281954509E+03  0.51100000000E-03 0. -1.
    9000005    1    3    3    0    0 -0.23630248130E+02 -0.43609425438E+02 -0.43284219001E+02  0.65838394788E+02  0.10000000000E+01 0.  0.
    9000005    1    3    3    0    0 -0.11247004082E+03 -0.21460745912E+02 -0.46512600153E+03  0.47901280880E+03  0.10000000000E+01 0.  0.
<mgrwt>
<rscale>  0 0.19084902E+03</rscale>
<asrwt>0</asrwt>
<pdfrwt beam="2">  1        2 0.19545973E+00 0.19591294E+03</pdfrwt>
<pdfrwt beam="1">  1       -2 0.44126034E-02 0.19591294E+03</pdfrwt>
<totfact> 0.42876466E+03</totfact>
</mgrwt>
</event>
<event>
 8    2  0.8128359E-004  0.1273601E+03  0.7818608E-02  0.1255643E+00
         -2   -1    0    0    0  501 -0.00000000000E+00  0.00000000000E+00  0.28812456822E+02  0.28812456934E+02  0.25500000000E-02 0.  1.
          2   -1    0    0  501    0  0.00000000000E+00 -0.00000000000E+00 -0.46201898430E+03  0.46201898431E+03  0.25500000000E-02 0. -1.
         25    2    1    2    0    0 -0.75245362389E+01  0.23177407317E+02 -0.36691318757E+03  0.38838883812E+03  0.12500716581E+03 0.  0.
         23    2    1    2    0    0  0.75245362389E+01 -0.23177407317E+02 -0.66293339908E+02  0.10244260313E+03  0.74201544213E+02 0.  0.
        -11    1    4    4    0    0  0.38915874378E+02  0.21025006328E+00 -0.31448728895E+02  0.50035108005E+02  0.51100000000E-03 0.  1.
         11    1    4    4    0    0 -0.31391338140E+02 -0.23387657380E+02 -0.34844611014E+02  0.52407495121E+02  0.51100000000E-03 0. -1.
    9000005    1    3    3    0    0 -0.81443584120E+00  0.33582205318E+02 -0.37303169712E+03  0.37454248741E+03  0.10000000000E+01 0.  0.
    9000005    1    3    3    0    0 -0.67101003977E+01 -0.10404798001E+02  0.61185095481E+01  0.13846350706E+02  0.10000000000E+01 0.  0.
<mgrwt>
<rscale>  0 0.11270378E+03</rscale>
<asrwt>0</asrwt>
<pdfrwt beam="2">  1        2 0.71079838E-01 0.12736013E+03</pdfrwt>
<pdfrwt beam="1">  1       -2 0.44326860E-02 0.12736013E+03</pdfrwt>
<totfact> 0.15034995E+04</totfact>
</mgrwt>
</event>
<event>
 8    2  0.8128359E-004  0.1405659E+03  0.7818608E-02  0.1223627E+00
         -2   -1    0    0    0  501 -0.00000000000E+00  0.00000000000E+00  0.20355485663E+03  0.20355485664E+03  0.25500000000E-02 0.  1.
          2   -1    0    0  501    0  0.00000000000E+00 -0.00000000000E+00 -0.84558211162E+02  0.84558211201E+02  0.25500000000E-02 0. -1.
         25    2    1    2    0    0 -0.28712083596E+02 -0.57517897184E+02  0.10588747170E+03  0.17598557027E+03  0.12500428809E+03 0.  0.
         23    2    1    2    0    0  0.28712083596E+02  0.57517897184E+02  0.13109173769E+02  0.11212749757E+03  0.90928725024E+02 0.  0.
        -11    1    4    4    0    0  0.33663623086E+01  0.77711639957E+02  0.18038023306E+01  0.77805430936E+02  0.51100000000E-03 0.  1.
         11    1    4    4    0    0  0.25345721287E+02 -0.20193742773E+02  0.11305371438E+02  0.34322066639E+02  0.51100000000E-03 0. -1.
    9000005    1    3    3    0    0 -0.73399222366E+02 -0.17838194906E+02  0.34980809806E+02  0.83248448011E+02  0.10000000000E+01 0.  0.
    9000005    1    3    3    0    0  0.44687138770E+02 -0.39679702279E+02  0.70906661890E+02  0.92737122259E+02  0.10000000000E+01 0.  0.
<mgrwt>
<rscale>  0 0.13261444E+03</rscale>
<asrwt>0</asrwt>
<pdfrwt beam="2">  1        2 0.13008956E-01 0.14056587E+03</pdfrwt>
<pdfrwt beam="1">  1       -2 0.31316132E-01 0.14056587E+03</pdfrwt>
<totfact> 0.41880020E+03</totfact>
</mgrwt>
</event>
<event>
 8    2  0.8128359E-004  0.1657544E+03  0.7818608E-02  0.1188680E+00
          2   -1    0    0  501    0  0.00000000000E+00  0.00000000000E+00  0.79519129110E+03  0.79519129110E+03  0.25500000000E-02 0. -1.
         -2   -1    0    0    0  501 -0.00000000000E+00 -0.00000000000E+00 -0.31233421339E+02  0.31233421443E+02  0.25500000000E-02 0.  1.
         25    2    1    2    0    0 -0.10326360503E+03 -0.34448646754E+02  0.48444447707E+03  0.51201657483E+03  0.12499776058E+03 0.  0.
         23    2    1    2    0    0  0.10326360503E+03  0.34448646754E+02  0.27951339269E+03  0.31440813772E+03  0.94205408460E+02 0.  0.
        -11    1    4    4    0    0  0.25619523194E+02  0.17946592982E+01  0.36114655171E+01  0.25934985138E+02  0.51100000000E-03 0.  1.
         11    1    4    4    0    0  0.77644081832E+02  0.32653987456E+02  0.27590192718E+03  0.28847315258E+03  0.51100000000E-03 0. -1.
    9000005    1    3    3    0    0 -0.12112601922E+03 -0.28143114545E+02  0.27613245020E+03  0.30284266127E+03  0.10000000000E+01 0.  0.
    9000005    1    3    3    0    0  0.17862414195E+02 -0.63055322085E+01  0.20831202687E+03  0.20917391356E+03  0.10000000000E+01 0.  0.
<mgrwt>
<rscale>  0 0.16001472E+03</rscale>
<asrwt>0</asrwt>
<pdfrwt beam="1">  1        2 0.12233711E+00 0.16575440E+03</pdfrwt>
<pdfrwt beam="2">  1       -2 0.48051422E-02 0.16575440E+03</pdfrwt>
<totfact> 0.72533042E+03</totfact>
</mgrwt>
</event>
<event>
 8    2  0.8128359E-004  0.4422929E+03  0.7818608E-02  0.1030686E+00
         -2   -1    0    0    0  501 -0.00000000000E+00  0.00000000000E+00  0.11701339696E+03  0.11701339698E+03  0.25500000000E-02 0.  1.
          2   -1    0    0  501    0  0.00000000000E+00 -0.00000000000E+00 -0.16756340223E+04  0.16756340223E+04  0.25500000000E-02 0. -1.
         25    2    1    2    0    0  0.42401658368E+03  0.14406868537E+02 -0.65677598386E+03  0.79181924880E+03  0.12500163476E+03 0.  0.
         23    2    1    2    0    0 -0.42401658368E+03 -0.14406868537E+02 -0.90184464145E+03  0.10008281704E+04  0.91299771939E+02 0.  0.
        -11    1    4    4    0    0 -0.37395116378E+02  0.21971094449E+02 -0.63335945029E+02  0.76763048749E+02  0.51100000000E-03 0.  1.
         11    1    4    4    0    0 -0.38662146731E+03 -0.36377962986E+02 -0.83850869642E+03  0.92406512170E+03  0.51100000000E-03 0. -1.
    9000005    1    3    3    0    0  0.15137530166E+03 -0.33502982695E+02 -0.32227417176E+03  0.35762910058E+03  0.10000000000E+01 0.  0.
    9000005    1    3    3    0    0  0.27264128202E+03  0.47909851232E+02 -0.33450181210E+03  0.43419014821E+03  0.10000000000E+01 0.  0.
<mgrwt>
<rscale>  0 0.44019831E+03</rscale>
<asrwt>0</asrwt>
<pdfrwt beam="2">  1        2 0.25778983E+00 0.44229292E+03</pdfrwt>
<pdfrwt beam="1">  1       -2 0.18002062E-01 0.44229292E+03</pdfrwt>
<totfact> 0.27149992E+02</totfact>
</mgrwt>
</event>
<event>
 8    2  0.8128359E-004  0.1990873E+03  0.7818608E-02  0.1154028E+00
          2   -1    0    0  501    0  0.00000000000E+00  0.00000000000E+00  0.11064435303E+04  0.11064435303E+04  0.25500000000E-02 0. -1.
         -2   -1    0    0    0  501 -0.00000000000E+00 -0.00000000000E+00 -0.33549845536E+02  0.33549845633E+02  0.25500000000E-02 0.  1.
         25    2    1    2    0    0 -0.15222392624E+03  0.28960781625E+02  0.62947514669E+03  0.66020809074E+03  0.12499964870E+03 0.  0.
         23    2    1    2    0    0  0.15222392624E+03 -0.28960781625E+02  0.44341853806E+03  0.47978528519E+03  0.97790947413E+02 0.  0.
        -11    1    4    4    0    0  0.16298585744E+03 -0.39062452586E+02  0.39288816663E+03  0.42714327386E+03  0.51100000000E-03 0.  1.
         11    1    4    4    0    0 -0.10761931200E+02  0.10101670961E+02  0.50530371430E+02  0.52642011327E+02  0.51100000000E-03 0. -1.
    9000005    1    3    3    0    0 -0.57057273255E+01  0.22092027697E+02  0.12499364616E+02  0.26035497458E+02  0.10000000000E+01 0.  0.
    9000005    1    3    3    0    0 -0.14651819892E+03  0.68687539277E+01  0.61697578208E+03  0.63417259328E+03  0.10000000000E+01 0.  0.
<mgrwt>
<rscale>  0 0.19499926E+03</rscale>
<asrwt>0</asrwt>
<pdfrwt beam="1">  1        2 0.17022208E+00 0.19908732E+03</pdfrwt>
<pdfrwt beam="2">  1       -2 0.51615148E-02 0.19908732E+03</pdfrwt>
<totfact> 0.41892391E+03</totfact>
</mgrwt>
</event>
<event>
 8    2  0.8128359E-004  0.1310483E+03  0.7818608E-02  0.1239802E+00
         -2   -1    0    0    0  501 -0.00000000000E+00  0.00000000000E+00  0.19767085562E+03  0.19767085564E+03  0.25500000000E-02 0.  1.
          2   -1    0    0  501    0  0.00000000000E+00 -0.00000000000E+00 -0.66653940581E+02  0.66653940630E+02  0.25500000000E-02 0. -1.
         25    2    1    2    0    0 -0.38946205021E+02 -0.56176290012E+01  0.76712229604E+02  0.15185003893E+03  0.12500121404E+03 0.  0.
         23    2    1    2    0    0  0.38946205021E+02  0.56176290012E+01  0.54304685440E+02  0.11247475734E+03  0.90295113579E+02 0.  0.
        -11    1    4    4    0    0  0.44544534563E+02 -0.33670156946E+02  0.44999764078E+02  0.71713832665E+02  0.51100000000E-03 0.  1.
         11    1    4    4    0    0 -0.55983295420E+01  0.39287785947E+02  0.93049213618E+01  0.40760924672E+02  0.51100000000E-03 0. -1.
    9000005    1    3    3    0    0 -0.50000295264E+02  0.47417537736E+02  0.68280437884E+02  0.97013765049E+02  0.10000000000E+01 0.  0.
    9000005    1    3    3    0    0  0.11054090243E+02 -0.53035166737E+02  0.84317917196E+01  0.54836273884E+02  0.10000000000E+01 0.  0.
<mgrwt>
<rscale>  0 0.12201941E+03</rscale>
<asrwt>0</asrwt>
<pdfrwt beam="2">  1        2 0.10254452E-01 0.13104834E+03</pdfrwt>
<pdfrwt beam="1">  1       -2 0.30410901E-01 0.13104834E+03</pdfrwt>
<totfact> 0.58574176E+03</totfact>
</mgrwt>
</event>
<event>
 8    2  0.8128359E-004  0.4232961E+03  0.7818608E-02  0.1036682E+00
          2   -1    0    0  501    0  0.00000000000E+00  0.00000000000E+00  0.31513809341E+04  0.31513809341E+04  0.25500000000E-02 0. -1.
         -2   -1    0    0    0  501 -0.00000000000E+00 -0.00000000000E+00 -0.58761775492E+02  0.58761775547E+02  0.25500000000E-02 0.  1.
         25    2    1    2    0    0  0.92098646358E+02 -0.39379316868E+03  0.11967768576E+04  0.12694307394E+04  0.12499733894E+03 0.  0.
         23    2    1    2    0    0 -0.92098646358E+02  0.39379316868E+03  0.18958423010E+04  0.19407119703E+04  0.92680640041E+02 0.  0.
        -11    1    4    4    0    0 -0.58816128944E+02  0.22550013688E+03  0.87235365876E+03  0.90294548823E+03  0.51100000000E-03 0.  1.
         11    1    4    4    0    0 -0.33282517414E+02  0.16829303180E+03  0.10234886422E+04  0.10377664820E+04  0.51100000000E-03 0. -1.
    9000005    1    3    3    0    0  0.75819795929E+01 -0.10179836032E+03  0.16705724638E+03  0.19577925362E+03  0.10000000000E+01 0.  0.
    9000005    1    3    3    0    0  0.84516666765E+02 -0.29199480835E+03  0.10297196112E+04  0.10736514857E+04  0.10000000000E+01 0.  0.
<mgrwt>
<rscale>  0 0.42118214E+03</rscale>
<asrwt>0</asrwt>
<pdfrwt beam="1">  1        2 0.48482769E+00 0.42329606E+03</pdfrwt>
<pdfrwt beam="2">  1       -2 0.90402759E-02 0.42329606E+03</pdfrwt>
<totfact> 0.12635913E+02</totfact>
</mgrwt>
</event>
<event>
 8    2  0.8128359E-004  0.1293505E+03  0.7818608E-02  0.1243273E+00
         -2   -1    0    0    0  501 -0.00000000000E+00  0.00000000000E+00  0.13492558164E+02  0.13492558405E+02  0.25500000000E-02 0.  1.
          2   -1    0    0  501    0  0.00000000000E+00 -0.00000000000E+00 -0.10571530102E+04  0.10571530102E+04  0.25500000000E-02 0. -1.
         25    2    1    2    0    0 -0.30274803088E+02  0.13773514773E+02 -0.41250391289E+03  0.43230894046E+03  0.12500107375E+03 0.  0.
         23    2    1    2    0    0  0.30274803088E+02 -0.13773514773E+02 -0.63115653912E+03  0.63833662812E+03  0.89491901986E+02 0.  0.
        -11    1    4    4    0    0  0.59802636966E+02 -0.22615893874E+02 -0.46073823239E+03  0.46515325736E+03  0.51100000000E-03 0. -1.
         11    1    4    4    0    0 -0.29527833877E+02  0.88423791011E+01 -0.17041830673E+03  0.17318337077E+03  0.51100000000E-03 0.  1.
    9000005    1    3    3    0    0 -0.70609293572E+02  0.38863639180E+02 -0.28731214964E+03  0.29840463489E+03  0.10000000000E+01 0.  0.
    9000005    1    3    3    0    0  0.40334490484E+02 -0.25090124407E+02 -0.12519176325E+03  0.13390430557E+03  0.10000000000E+01 0.  0.
<mgrwt>
<rscale>  0 0.11989360E+03</rscale>
<asrwt>0</asrwt>
<pdfrwt beam="2">  1        2 0.16263886E+00 0.12935046E+03</pdfrwt>
<pdfrwt beam="1">  1       -2 0.20757790E-02 0.12935046E+03</pdfrwt>
<totfact> 0.16923253E+04</totfact>
</mgrwt>
</event>
<event>
 8    2  0.8128359E-004  0.1882698E+03  0.7818608E-02  0.1164635E+00
          2   -1    0    0  501    0  0.00000000000E+00  0.00000000000E+00  0.17692968317E+03  0.17692968319E+03  0.25500000000E-02 0. -1.
         -2   -1    0    0    0  501 -0.00000000000E+00 -0.00000000000E+00 -0.18363147493E+03  0.18363147495E+03  0.25500000000E-02 0.  1.
         25    2    1    2    0    0  0.32586386973E+02  0.13696247846E+03  0.19720911391E+02  0.18929988650E+03  0.12499975825E+03 0.  0.
         23    2    1    2    0    0 -0.32586386973E+02 -0.13696247846E+03 -0.26422703147E+02  0.17126127164E+03  0.93870500160E+02 0.  0.
        -11    1    4    4    0    0 -0.73484390422E+01 -0.11206520231E+03  0.18726818434E+02  0.11385650115E+03  0.51100000000E-03 0. -1.
         11    1    4    4    0    0 -0.25237947930E+02 -0.24897276144E+02 -0.45149521581E+02  0.57404770485E+02  0.51100000000E-03 0.  1.
    9000005    1    3    3    0    0  0.54278237664E+02  0.13756042390E+03 -0.14682535357E+02  0.14861216018E+03  0.10000000000E+01 0.  0.
    9000005    1    3    3    0    0 -0.21691850691E+02 -0.59794544754E+00  0.34403446748E+02  0.40687726323E+02  0.10000000000E+01 0.  0.
<mgrwt>
<rscale>  0 0.18331269E+03</rscale>
<asrwt>0</asrwt>
<pdfrwt beam="1">  1        2 0.27219951E-01 0.18826984E+03</pdfrwt>
<pdfrwt beam="2">  1       -2 0.28250996E-01 0.18826984E+03</pdfrwt>
<totfact> 0.21955069E+03</totfact>
</mgrwt>
</event>
<event>
 8    2  0.8128359E-004  0.1389355E+03  0.7818608E-02  0.1231481E+00
         -2   -1    0    0    0  501 -0.00000000000E+00  0.00000000000E+00  0.11603143897E+02  0.11603144178E+02  0.25500000000E-02 0.  1.
          2   -1    0    0  501    0  0.00000000000E+00 -0.00000000000E+00 -0.14264548135E+04  0.14264548135E+04  0.25500000000E-02 0. -1.
         25    2    1    2    0    0  0.63530136792E+01  0.60315683150E+02 -0.10879225211E+04  0.10967581645E+04  0.12499886850E+03 0.  0.
         23    2    1    2    0    0 -0.63530136792E+01 -0.60315683150E+02 -0.32692914854E+03  0.34129979318E+03  0.76971022140E+02 0.  0.
        -11    1    4    4    0    0  0.30303203234E+02 -0.47985368811E+02 -0.15469351860E+03  0.16477549710E+03  0.51100000000E-03 0.  1.
         11    1    4    4    0    0 -0.36656216913E+02 -0.12330314339E+02 -0.17223562993E+03  0.17652429609E+03  0.51100000000E-03 0. -1.
    9000005    1    3    3    0    0 -0.20970890963E+01  0.73240839902E+02 -0.30487032622E+03  0.31355308039E+03  0.10000000000E+01 0.  0.
    9000005    1    3    3    0    0  0.84501027755E+01 -0.12925156752E+02 -0.78305219488E+03  0.78320508414E+03  0.10000000000E+01 0.  0.
<mgrwt>
<rscale>  0 0.12732392E+03</rscale>
<asrwt>0</asrwt>
<pdfrwt beam="2">  1        2 0.21945445E+00 0.13893545E+03</pdfrwt>
<pdfrwt beam="1">  1       -2 0.17851002E-02 0.13893545E+03</pdfrwt>
<totfact> 0.13260909E+04</totfact>
</mgrwt>
</event>
<event>
 8    2  0.8128359E-004  0.1288573E+03  0.7818608E-02  0.1243875E+00
          2   -1    0    0  501    0  0.00000000000E+00  0.00000000000E+00  0.62659865825E+03  0.62659865825E+03  0.25500000000E-02 0. -1.
         -2   -1    0    0    0  501 -0.00000000000E+00 -0.00000000000E+00 -0.20657303087E+02  0.20657303244E+02  0.25500000000E-02 0.  1.
         25    2    1    2    0    0 -0.27205797802E+02 -0.15436947230E+02  0.40100749001E+03  0.42120208860E+03  0.12500295043E+03 0.  0.
         23    2    1    2    0    0  0.27205797802E+02  0.15436947230E+02  0.20493386515E+03  0.22605387290E+03  0.90133287942E+02 0.  0.
        -11    1    4    4    0    0 -0.20397863375E+01 -0.27752667419E+02  0.14012938629E+03  0.14286572780E+03  0.51100000000E-03 0. -1.
         11    1    4    4    0    0  0.29245584139E+02  0.43189614649E+02  0.64804478857E+02  0.83188145102E+02  0.51100000000E-03 0.  1.
    9000005    1    3    3    0    0 -0.30449466483E+02  0.46863601498E+02  0.10780209870E+03  0.12143170772E+03  0.10000000000E+01 0.  0.
    9000005    1    3    3    0    0  0.32436686811E+01 -0.62300548728E+02  0.29320539131E+03  0.29977038088E+03  0.10000000000E+01 0.  0.
<mgrwt>
<rscale>  0 0.11952989E+03</rscale>
<asrwt>0</asrwt>
<pdfrwt beam="1">  1        2 0.96399801E-01 0.12885726E+03</pdfrwt>
<pdfrwt beam="2">  1       -2 0.31780464E-02 0.12885726E+03</pdfrwt>
<totfact> 0.17552652E+04</totfact>
</mgrwt>
</event>
<event>
 8    2  0.8128359E-004  0.1329116E+03  0.7818608E-02  0.1235334E+00
         -2   -1    0    0    0  501 -0.00000000000E+00  0.00000000000E+00  0.33832619158E+02  0.33832619254E+02  0.25500000000E-02 0.  1.
          2   -1    0    0  501    0  0.00000000000E+00 -0.00000000000E+00 -0.41392101482E+03  0.41392101483E+03  0.25500000000E-02 0. -1.
         25    2    1    2    0    0  0.44677539794E+02  0.66437936561E+01 -0.20165968073E+03  0.24152042073E+03  0.12500105696E+03 0.  0.
         23    2    1    2    0    0 -0.44677539794E+02 -0.66437936561E+01 -0.17842871493E+03  0.20623321335E+03  0.93032840553E+02 0.  0.
        -11    1    4    4    0    0 -0.14717277940E+02  0.29243838641E+02 -0.14528168194E+03  0.14892470405E+03  0.51100000000E-03 0. -1.
         11    1    4    4    0    0 -0.29960261854E+02 -0.35887632297E+02 -0.33147032991E+02  0.57308509304E+02  0.51100000000E-03 0.  1.
    9000005    1    3    3    0    0  0.65991631011E+01  0.28284395607E+02  0.56730036996E+01  0.29609778105E+02  0.10000000000E+01 0.  0.
    9000005    1    3    3    0    0  0.38078376693E+02 -0.21640601951E+02 -0.20733268443E+03  0.21191064263E+03  0.10000000000E+01 0.  0.
<mgrwt>
<rscale>  0 0.12483069E+03</rscale>
<asrwt>0</asrwt>
<pdfrwt beam="2">  1        2 0.63680153E-01 0.13291158E+03</pdfrwt>
<pdfrwt beam="1">  1       -2 0.52050186E-02 0.13291158E+03</pdfrwt>
<totfact> 0.13353480E+04</totfact>
</mgrwt>
</event>
<event>
 8    2  0.8128359E-004  0.1775898E+03  0.7818608E-02  0.1175658E+00
          2   -1    0    0  501    0  0.00000000000E+00  0.00000000000E+00  0.10712050452E+03  0.10712050455E+03  0.25500000000E-02 0. -1.
         -2   -1    0    0    0  501 -0.00000000000E+00 -0.00000000000E+00 -0.26240104511E+03  0.26240104512E+03  0.25500000000E-02 0.  1.
         25    2    1    2    0    0  0.28024129026E+02  0.12299575692E+03 -0.96932565074E+02  0.20232171001E+03  0.12499937658E+03 0.  0.
         23    2    1    2    0    0 -0.28024129026E+02 -0.12299575692E+03 -0.58347975515E+02  0.16719983966E+03  0.92940798945E+02 0.  0.
        -11    1    4    4    0    0 -0.37637278268E+02 -0.19777915313E+02  0.91585763393E+01  0.43492645015E+02  0.51100000000E-03 0. -1.
         11    1    4    4    0    0  0.96131492421E+01 -0.10321784160E+03 -0.67506551854E+02  0.12370719465E+03  0.51100000000E-03 0.  1.
    9000005    1    3    3    0    0 -0.35000689984E+02  0.65311860343E+02 -0.90020576970E+02  0.11659927821E+03  0.10000000000E+01 0.  0.
    9000005    1    3    3    0    0  0.63024819010E+02  0.57683896573E+02 -0.69119881047E+01  0.85722431806E+02  0.10000000000E+01 0.  0.
<mgrwt>
<rscale>  0 0.17211666E+03</rscale>
<asrwt>0</asrwt>
<pdfrwt beam="1">  1        2 0.16480078E-01 0.17758984E+03</pdfrwt>
<pdfrwt beam="2">  1       -2 0.40369391E-01 0.17758984E+03</pdfrwt>
<totfact> 0.20010683E+03</totfact>
</mgrwt>
</event>
<event>
 8    2  0.8128359E-004  0.2588103E+03  0.7818608E-02  0.1110161E+00
         -2   -1    0    0    0  501 -0.00000000000E+00  0.00000000000E+00  0.78022661456E+02  0.78022661498E+02  0.25500000000E-02 0.  1.
          2   -1    0    0  501    0  0.00000000000E+00 -0.00000000000E+00 -0.81059920840E+03  0.81059920840E+03  0.25500000000E-02 0. -1.
         25    2    1    2    0    0 -0.96465908761E+02  0.20506659412E+03 -0.36770020110E+03  0.44965118932E+03  0.12499909835E+03 0.  0.
         23    2    1    2    0    0  0.96465908761E+02 -0.20506659412E+03 -0.36487634585E+03  0.43897068058E+03  0.90567825833E+02 0.  0.
        -11    1    4    4    0    0  0.62100629051E+01 -0.90185382964E+02 -0.89329245307E+02  0.12708926882E+03  0.51100000000E-03 0. -1.
         11    1    4    4    0    0  0.90255845856E+02 -0.11488121116E+03 -0.27554710054E+03  0.31188141176E+03  0.51100000000E-03 0.  1.
    9000005    1    3    3    0    0 -0.36236834510E+02  0.34356766827E+02 -0.13286427835E+02  0.51681957845E+02  0.10000000000E+01 0.  0.
    9000005    1    3    3    0    0 -0.60229074251E+02  0.17070982729E+03 -0.35441377326E+03  0.39796923147E+03  0.10000000000E+01 0.  0.
<mgrwt>
<rscale>  0 0.25503861E+03</rscale>
<asrwt>0</asrwt>
<pdfrwt beam="2">  1        2 0.12470756E+00 0.25881027E+03</pdfrwt>
<pdfrwt beam="1">  1       -2 0.12003487E-01 0.25881027E+03</pdfrwt>
<totfact> 0.17220980E+03</totfact>
</mgrwt>
</event>
<event>
 8    2  0.8128359E-004  0.1291598E+03  0.7818608E-02  0.1242151E+00
          2   -1    0    0  501    0  0.00000000000E+00  0.00000000000E+00  0.51238053979E+02  0.51238054043E+02  0.25500000000E-02 0. -1.
         -2   -1    0    0    0  501 -0.00000000000E+00 -0.00000000000E+00 -0.25931253450E+03  0.25931253451E+03  0.25500000000E-02 0.  1.
         25    2    1    2    0    0  0.12912345544E+01 -0.32527782327E+02 -0.91996425845E+02  0.15857363531E+03  0.12499012576E+03 0.  0.
         23    2    1    2    0    0 -0.12912345544E+01  0.32527782327E+02 -0.11607805467E+03  0.15197695324E+03  0.92537320202E+02 0.  0.
        -11    1    4    4    0    0 -0.34517762392E+02  0.38510394927E+02 -0.10394970760E+03  0.11610369567E+03  0.51100000000E-03 0.  1.
         11    1    4    4    0    0  0.33226527837E+02 -0.59826125995E+01 -0.12128347069E+02  0.35873257568E+02  0.51100000000E-03 0. -1.
    9000005    1    3    3    0    0  0.23552122498E+02 -0.40043665913E+02  0.15151772680E+02  0.48875084339E+02  0.10000000000E+01 0.  0.
    9000005    1    3    3    0    0 -0.22260887943E+02  0.75158835854E+01 -0.10714819852E+03  0.10969855097E+03  0.10000000000E+01 0.  0.
<mgrwt>
<rscale>  0 0.12057539E+03</rscale>
<asrwt>0</asrwt>
<pdfrwt beam="1">  1        2 0.78827777E-02 0.12915981E+03</pdfrwt>
<pdfrwt beam="2">  1       -2 0.39894235E-01 0.12915981E+03</pdfrwt>
<totfact> 0.49137114E+03</totfact>
</mgrwt>
</event>
<event>
 8    2  0.8128359E-004  0.1389531E+03  0.7818608E-02  0.1226520E+00
         -2   -1    0    0    0  501 -0.00000000000E+00  0.00000000000E+00  0.14933118973E+02  0.14933119191E+02  0.25500000000E-02 0.  1.
          2   -1    0    0  501    0  0.00000000000E+00 -0.00000000000E+00 -0.11965877421E+04  0.11965877421E+04  0.25500000000E-02 0. -1.
         25    2    1    2    0    0  0.12407677647E+02 -0.59406594910E+02 -0.42546163553E+03  0.44757743546E+03  0.12499945378E+03 0.  0.
         23    2    1    2    0    0 -0.12407677647E+02  0.59406594910E+02 -0.75619298757E+03  0.76394342580E+03  0.89992385182E+02 0.  0.
        -11    1    4    4    0    0 -0.27397677134E+02  0.86871105577E+01 -0.56029311232E+03  0.56102983015E+03  0.51100000000E-03 0. -1.
         11    1    4    4    0    0  0.14989999487E+02  0.50719484352E+02 -0.19589987525E+03  0.20291359565E+03  0.51100000000E-03 0.  1.
    9000005    1    3    3    0    0 -0.56567293355E+02 -0.28018640547E+02 -0.19811093297E+03  0.20792749856E+03  0.10000000000E+01 0.  0.
    9000005    1    3    3    0    0  0.68974971002E+02 -0.31387954363E+02 -0.22735070256E+03  0.23964993690E+03  0.10000000000E+01 0.  0.
<mgrwt>
<rscale>  0 0.13063280E+03</rscale>
<asrwt>0</asrwt>
<pdfrwt beam="2">  1        2 0.18409035E+00 0.13895308E+03</pdfrwt>
<pdfrwt beam="1">  1       -2 0.22974039E-02 0.13895308E+03</pdfrwt>
<totfact> 0.12225153E+04</totfact>
</mgrwt>
</event>
<event>
 8    2  0.8128359E-004  0.1517698E+03  0.7818608E-02  0.1207225E+00
          2   -1    0    0  501    0  0.00000000000E+00  0.00000000000E+00  0.11489381870E+03  0.11489381872E+03  0.25500000000E-02 0. -1.
         -2   -1    0    0    0  501 -0.00000000000E+00 -0.00000000000E+00 -0.20636819240E+03  0.20636819241E+03  0.25500000000E-02 0.  1.
         25    2    1    2    0    0  0.79388368578E+02 -0.33268473771E+02 -0.11927727673E+03  0.19303144229E+03  0.12499905823E+03 0.  0.
         23    2    1    2    0    0 -0.79388368578E+02  0.33268473771E+02  0.27802903026E+02  0.12823056884E+03  0.90888794451E+02 0.  0.
        -11    1    4    4    0    0 -0.57236478586E+02  0.37787780953E+02 -0.23231263211E+02  0.72412861157E+02  0.51100000000E-03 0.  1.
         11    1    4    4    0    0 -0.22151889992E+02 -0.45193071818E+01  0.51034166237E+02  0.55817707686E+02  0.51100000000E-03 0. -1.
    9000005    1    3    3    0    0  0.14261759734E+02 -0.65488910149E+02 -0.95293869010E+02  0.11650801094E+03  0.10000000000E+01 0.  0.
    9000005    1    3    3    0    0  0.65126608844E+02  0.32220436377E+02 -0.23983407720E+02  0.76523431351E+02  0.10000000000E+01 0.  0.
<mgrwt>
<rscale>  0 0.14463483E+03</rscale>
<asrwt>0</asrwt>
<pdfrwt beam="1">  1        2 0.17675972E-01 0.15176979E+03</pdfrwt>
<pdfrwt beam="2">  1       -2 0.31748953E-01 0.15176979E+03</pdfrwt>
<totfact> 0.28647404E+03</totfact>
</mgrwt>
</event>
<event>
 8    2  0.8128359E-004  0.1463421E+03  0.7818608E-02  0.1213616E+00
         -2   -1    0    0    0  501 -0.00000000000E+00  0.00000000000E+00  0.48459341809E+02  0.48459341876E+02  0.25500000000E-02 0.  1.
          2   -1    0    0  501    0  0.00000000000E+00 -0.00000000000E+00 -0.40278500547E+03  0.40278500548E+03  0.25500000000E-02 0. -1.
         25    2    1    2    0    0 -0.61117606092E+02 -0.45328359503E+02 -0.12896027392E+03  0.19505580672E+03  0.12500397408E+03 0.  0.
         23    2    1    2    0    0  0.61117606092E+02  0.45328359503E+02 -0.22536538974E+03  0.25618854063E+03  0.95147188661E+02 0.  0.
        -11    1    4    4    0    0  0.32800831136E+02  0.37097183931E+02 -0.22087736600E+03  0.22636012545E+03  0.51100000000E-03 0. -1.
         11    1    4    4    0    0  0.28316774957E+02  0.82311755720E+01 -0.44880237334E+01  0.29828415186E+02  0.51100000000E-03 0.  1.
    9000005    1    3    3    0    0 -0.76217920550E+02  0.20264296041E+02 -0.74028537280E+02  0.10817133372E+03  0.10000000000E+01 0.  0.
    9000005    1    3    3    0    0  0.15100314458E+02 -0.65592655544E+02 -0.54931736643E+02  0.86884473001E+02  0.10000000000E+01 0.  0.
<mgrwt>
<rscale>  0 0.13978715E+03</rscale>
<asrwt>0</asrwt>
<pdfrwt beam="2">  1        2 0.61966922E-01 0.14634212E+03</pdfrwt>
<pdfrwt beam="1">  1       -2 0.74552836E-02 0.14634212E+03</pdfrwt>
<totfact> 0.80152439E+03</totfact>
</mgrwt>
</event>
<event>
 8    2  0.8128359E-004  0.1284464E+03  0.7818608E-02  0.1243021E+00
          2   -1    0    0  501    0  0.00000000000E+00  0.00000000000E+00  0.19754025070E+04  0.19754025070E+04  0.25500000000E-02 0. -1.
         -2   -1    0    0    0  501 -0.00000000000E+00 -0.00000000000E+00 -0.64897139504E+01  0.64897144514E+01  0.25500000000E-02 0.  1.
         25    2    1    2    0    0  0.48621554198E+01  0.28936151764E+02  0.11117790563E+04  0.11191743118E+04  0.12505010461E+03 0.  0.
         23    2    1    2    0    0 -0.48621554198E+01 -0.28936151764E+02  0.85713373669E+03  0.86271790963E+03  0.93504051147E+02 0.  0.
        -11    1    4    4    0    0  0.74844492589E+00 -0.61985117813E+02  0.45747820397E+03  0.46165898898E+03  0.51100000000E-03 0.  1.
         11    1    4    4    0    0 -0.56106003457E+01  0.33048966048E+02  0.39965553273E+03  0.40105892065E+03  0.51100000000E-03 0. -1.
    9000005    1    3    3    0    0 -0.29877262586E+02  0.26561443209E+02  0.11441524299E+03  0.12120234698E+03  0.10000000000E+01 0.  0.
    9000005    1    3    3    0    0  0.34739418006E+02  0.23747085550E+01  0.99736381333E+03  0.99797196481E+03  0.10000000000E+01 0.  0.
<mgrwt>
<rscale>  0 0.12004598E+03</rscale>
<asrwt>0</asrwt>
<pdfrwt beam="1">  1        2 0.30390797E+00 0.12844637E+03</pdfrwt>
<pdfrwt beam="2">  1       -2 0.99841794E-03 0.12844637E+03</pdfrwt>
<totfact> 0.15908465E+04</totfact>
</mgrwt>
</event>
<event>
 8    2  0.8128359E-004  0.1285032E+03  0.7818608E-02  0.1243625E+00
         -2   -1    0    0    0  501 -0.00000000000E+00  0.00000000000E+00  0.59268362437E+01  0.59268367922E+01  0.25500000000E-02 0.  1.
          2   -1    0    0  501    0  0.00000000000E+00 -0.00000000000E+00 -0.23640908275E+04  0.23640908275E+04  0.25500000000E-02 0. -1.
         25    2    1    2    0    0  0.27390743735E+02 -0.11808472226E+02 -0.16921943673E+04  0.16970665399E+04  0.12499348485E+03 0.  0.
         23    2    1    2    0    0 -0.27390743735E+02  0.11808472226E+02 -0.66596962399E+03  0.67295112443E+03  0.91967292757E+02 0.  0.
        -11    1    4    4    0    0 -0.39491555768E+02 -0.13650882292E+02 -0.13698563112E+03  0.14321659365E+03  0.51100000000E-03 0.  1.
         11    1    4    4    0    0  0.12100812033E+02  0.25459354517E+02 -0.52898399288E+03  0.52973453078E+03  0.51100000000E-03 0. -1.
    9000005    1    3    3    0    0 -0.77963009553E+01 -0.12424981423E+02 -0.21761050395E+02  0.26262250213E+02  0.10000000000E+01 0.  0.
    9000005    1    3    3    0    0  0.35187044690E+02  0.61650919788E+00 -0.16704333169E+04  0.16708042897E+04  0.10000000000E+01 0.  0.
<mgrwt>
<rscale>  0 0.11968048E+03</rscale>
<asrwt>0</asrwt>
<pdfrwt beam="2">  1        2 0.36370553E+00 0.12850317E+03</pdfrwt>
<pdfrwt beam="1">  1       -2 0.91182289E-03 0.12850317E+03</pdfrwt>
<totfact> 0.11410427E+04</totfact>
</mgrwt>
</event>
<event>
 8    2  0.8128359E-004  0.1443557E+03  0.7818608E-02  0.1217476E+00
         -2   -1    0    0    0  501 -0.00000000000E+00  0.00000000000E+00  0.78990330541E+02  0.78990330582E+02  0.25500000000E-02 0.  1.
          2   -1    0    0  501    0  0.00000000000E+00 -0.00000000000E+00 -0.22147020441E+03  0.22147020443E+03  0.25500000000E-02 0. -1.
         25    2    1    2    0    0 -0.37277553309E+02  0.61833349204E+02 -0.55363466964E+02  0.15460820094E+03  0.12500241305E+03 0.  0.
         23    2    1    2    0    0  0.37277553309E+02 -0.61833349204E+02 -0.87116406909E+02  0.14585233407E+03  0.92036166513E+02 0.  0.
        -11    1    4    4    0    0  0.30877742401E+02 -0.42847168435E+02  0.36126218338E+01  0.52937376734E+02  0.51100000000E-03 0.  1.
         11    1    4    4    0    0  0.63998109078E+01 -0.18986180769E+02 -0.90729028743E+02  0.92914957336E+02  0.51100000000E-03 0. -1.
    9000005    1    3    3    0    0  0.32223440116E+01 -0.25433685801E+02 -0.52407472412E+02  0.58350655857E+02  0.10000000000E+01 0.  0.
    9000005    1    3    3    0    0 -0.40499897321E+02  0.87267035005E+02 -0.29559945515E+01  0.96257545083E+02  0.10000000000E+01 0.  0.
<mgrwt>
<rscale>  0 0.13696221E+03</rscale>
<asrwt>0</asrwt>
<pdfrwt beam="2">  1        2 0.34072339E-01 0.14435575E+03</pdfrwt>
<pdfrwt beam="1">  1       -2 0.12152359E-01 0.14435575E+03</pdfrwt>
<totfact> 0.70405675E+03</totfact>
</mgrwt>
</event>
<event>
 8    2  0.8128359E-004  0.1496631E+03  0.7818608E-02  0.1208387E+00
         -2   -1    0    0    0  501 -0.00000000000E+00  0.00000000000E+00  0.34861785755E+03  0.34861785756E+03  0.25500000000E-02 0.  1.
          2   -1    0    0  501    0  0.00000000000E+00 -0.00000000000E+00 -0.78045514644E+02  0.78045514685E+02  0.25500000000E-02 0. -1.
         25    2    1    2    0    0 -0.33287862994E+02  0.75297262678E+02  0.25858193721E+03  0.29877026536E+03  0.12498517362E+03 0.  0.
         23    2    1    2    0    0  0.33287862994E+02 -0.75297262678E+02  0.11990405699E+02  0.12789310688E+03  0.97134532325E+02 0.  0.
        -11    1    4    4    0    0  0.14242103319E+02 -0.51649031680E+01  0.45434989949E+02  0.47894175466E+02  0.51100000000E-03 0.  1.
         11    1    4    4    0    0  0.19045759674E+02 -0.70132359510E+02 -0.33444584250E+02  0.79998931417E+02  0.51100000000E-03 0. -1.
    9000005    1    3    3    0    0  0.43792194228E+02  0.16198674834E+02  0.48558397633E+02  0.67372630366E+02  0.10000000000E+01 0.  0.
    9000005    1    3    3    0    0 -0.77080057222E+02  0.59098587844E+02  0.21002353957E+03  0.23139763500E+03  0.10000000000E+01 0.  0.
<mgrwt>
<rscale>  0 0.14373702E+03</rscale>
<asrwt>0</asrwt>
<pdfrwt beam="2">  1        2 0.12007002E-01 0.14966313E+03</pdfrwt>
<pdfrwt beam="1">  1       -2 0.53633517E-01 0.14966313E+03</pdfrwt>
<totfact> 0.16587418E+03</totfact>
</mgrwt>
</event>
<event>
 8    2  0.8128359E-004  0.1461501E+03  0.7818608E-02  0.1216091E+00
          2   -1    0    0  501    0  0.00000000000E+00  0.00000000000E+00  0.11844586544E+04  0.11844586544E+04  0.25500000000E-02 0.  1.
         -2   -1    0    0    0  501 -0.00000000000E+00 -0.00000000000E+00 -0.23276664254E+02  0.23276664394E+02  0.25500000000E-02 0. -1.
         25    2    1    2    0    0  0.21428658652E+02 -0.72561558962E+02  0.25310086768E+03  0.29226681964E+03  0.12504190256E+03 0.  0.
         23    2    1    2    0    0 -0.21428658652E+02  0.72561558962E+02  0.90808112248E+03  0.91546849916E+03  0.88016366111E+02 0.  0.
        -11    1    4    4    0    0 -0.41360590493E+02  0.81972638817E+02  0.65079891561E+03  0.65724382121E+03  0.51100000000E-03 0. -1.
         11    1    4    4    0    0  0.19931931840E+02 -0.94110798551E+01  0.25728220687E+03  0.25822467795E+03  0.51100000000E-03 0.  1.
    9000005    1    3    3    0    0  0.70746363279E+02 -0.60658365743E+02  0.18698146974E+03  0.20891997338E+03  0.10000000000E+01 0.  0.
    9000005    1    3    3    0    0 -0.49317704627E+02 -0.11903193218E+02  0.66119397937E+02  0.83346846263E+02  0.10000000000E+01 0.  0.
<mgrwt>
<rscale>  0 0.13796701E+03</rscale>
<asrwt>0</asrwt>
<pdfrwt beam="1">  1        2 0.18222449E+00 0.14615008E+03</pdfrwt>
<pdfrwt beam="2">  1       -2 0.35810237E-02 0.14615008E+03</pdfrwt>
<totfact> 0.64821746E+03</totfact>
</mgrwt>
</event>
<event>
 8    2  0.8128359E-004  0.1267936E+03  0.7818608E-02  0.1246338E+00
         -2   -1    0    0    0  501 -0.00000000000E+00  0.00000000000E+00  0.71351501478E+01  0.71351506035E+01  0.25500000000E-02 0.  1.
          2   -1    0    0  501    0  0.00000000000E+00 -0.00000000000E+00 -0.17328086034E+04  0.17328086034E+04  0.25500000000E-02 0. -1.
         25    2    1    2    0    0  0.95288954133E+01  0.18981972034E+02 -0.10294366952E+04  0.10372157569E+04  0.12500200733E+03 0.  0.
         23    2    1    2    0    0 -0.95288954133E+01 -0.18981972034E+02 -0.69623675804E+03  0.70272799709E+03  0.92897252576E+02 0.  0.
        -11    1    4    4    0    0 -0.50378713092E+02 -0.13192879463E+02 -0.45724800714E+03  0.46020409259E+03  0.51100000000E-03 0. -1.
         11    1    4    4    0    0  0.40849817678E+02 -0.57890925713E+01 -0.23898875091E+03  0.24252390451E+03  0.51100000000E-03 0.  1.
    9000005    1    3    3    0    0  0.34035960170E+02  0.62074715047E+02 -0.43599323576E+03  0.44170444695E+03  0.10000000000E+01 0.  0.
    9000005    1    3    3    0    0 -0.24507064757E+02 -0.43092743013E+02 -0.59344345943E+03  0.59551130993E+03  0.10000000000E+01 0.  0.
<mgrwt>
<rscale>  0 0.11805647E+03</rscale>
<asrwt>0</asrwt>
<pdfrwt beam="2">  1        2 0.26658560E+00 0.12679360E+03</pdfrwt>
<pdfrwt beam="1">  1       -2 0.10977168E-02 0.12679360E+03</pdfrwt>
<totfact> 0.18453529E+04</totfact>
</mgrwt>
</event>
<event>
 8    2  0.8128359E-004  0.1655948E+03  0.7818608E-02  0.1189478E+00
          2   -1    0    0  501    0  0.00000000000E+00  0.00000000000E+00  0.91307901562E+03  0.91307901562E+03  0.25500000000E-02 0.  1.
         -2   -1    0    0    0  501 -0.00000000000E+00 -0.00000000000E+00 -0.27611956559E+02  0.27611956676E+02  0.25500000000E-02 0. -1.
         25    2    1    2    0    0 -0.65653052036E+02  0.86522432530E+02  0.59225123188E+03  0.61496599376E+03  0.12500078896E+03 0.  0.
         23    2    1    2    0    0  0.65653052036E+02 -0.86522432530E+02  0.29321582718E+03  0.32572497854E+03  0.91240263948E+02 0.  0.
        -11    1    4    4    0    0  0.22819928157E+02 -0.33831253288E+01  0.62463586412E+01  0.23900034616E+02  0.51100000000E-03 0. -1.
         11    1    4    4    0    0  0.42833123879E+02 -0.83139307201E+02  0.28696946854E+03  0.30182494392E+03  0.51100000000E-03 0.  1.
    9000005    1    3    3    0    0 -0.48210181897E+02  0.36668865042E+02  0.81804088829E+02  0.10179261393E+03  0.10000000000E+01 0.  0.
    9000005    1    3    3    0    0 -0.17442870139E+02  0.49853567488E+02  0.51044714306E+03  0.51317337983E+03  0.10000000000E+01 0.  0.
<mgrwt>
<rscale>  0 0.15930960E+03</rscale>
<asrwt>0</asrwt>
<pdfrwt beam="1">  1        2 0.14047371E+00 0.16559484E+03</pdfrwt>
<pdfrwt beam="2">  1       -2 0.42479929E-02 0.16559484E+03</pdfrwt>
<totfact> 0.73046344E+03</totfact>
</mgrwt>
</event>
<event>
 8    2  0.8128359E-004  0.1378735E+03  0.7818608E-02  0.1227977E+00
         -2   -1    0    0    0  501 -0.00000000000E+00  0.00000000000E+00  0.55311930087E+02  0.55311930146E+02  0.25500000000E-02 0.  1.
          2   -1    0    0  501    0  0.00000000000E+00 -0.00000000000E+00 -0.27893152608E+03  0.27893152609E+03  0.25500000000E-02 0. -1.
         25    2    1    2    0    0  0.53553517670E+02  0.22720158184E+02 -0.10060875987E+03  0.17067874537E+03  0.12499970686E+03 0.  0.
         23    2    1    2    0    0 -0.53553517670E+02 -0.22720158184E+02 -0.12301083612E+03  0.16356471087E+03  0.90761026847E+02 0.  0.
        -11    1    4    4    0    0 -0.64665839034E+02  0.16172889603E+02 -0.67353450284E+02  0.94761386448E+02  0.51100000000E-03 0.  1.
         11    1    4    4    0    0  0.11112321364E+02 -0.38893047788E+02 -0.55657385840E+02  0.68803324419E+02  0.51100000000E-03 0. -1.
    9000005    1    3    3    0    0 -0.23926841539E+02 -0.21753305881E+02  0.45726733095E+01  0.32674292708E+02  0.10000000000E+01 0.  0.
    9000005    1    3    3    0    0  0.77480359209E+02  0.44473464065E+02 -0.10518143318E+03  0.13800445266E+03  0.10000000000E+01 0.  0.
<mgrwt>
<rscale>  0 0.12964913E+03</rscale>
<asrwt>0</asrwt>
<pdfrwt beam="2">  1        2 0.42912542E-01 0.13787353E+03</pdfrwt>
<pdfrwt beam="1">  1       -2 0.85095279E-02 0.13787353E+03</pdfrwt>
<totfact> 0.96184261E+03</totfact>
</mgrwt>
</event>
<event>
 8    2  0.8128359E-004  0.1490192E+03  0.7818608E-02  0.1210813E+00
          2   -1    0    0  501    0  0.00000000000E+00  0.00000000000E+00  0.87934791693E+02  0.87934791730E+02  0.25500000000E-02 0. -1.
         -2   -1    0    0    0  501 -0.00000000000E+00 -0.00000000000E+00 -0.24080907875E+03  0.24080907876E+03  0.25500000000E-02 0.  1.
         25    2    1    2    0    0 -0.73645811352E+02 -0.34040348625E+02 -0.14191304943E+03  0.20578150613E+03  0.12499705518E+03 0.  0.
         23    2    1    2    0    0  0.73645811352E+02  0.34040348625E+02 -0.10961237627E+02  0.12296236436E+03  0.91744991439E+02 0.  0.
        -11    1    4    4    0    0 -0.32936932997E+01 -0.98996065026E+01 -0.30496532504E+02  0.32231802920E+02  0.51100000000E-03 0.  1.
         11    1    4    4    0    0  0.76939504651E+02  0.43939955128E+02  0.19535294877E+02  0.90730561438E+02  0.51100000000E-03 0. -1.
    9000005    1    3    3    0    0 -0.15236400150E+02  0.16694969098E+02 -0.12441269946E+03  0.12645311254E+03  0.10000000000E+01 0.  0.
    9000005    1    3    3    0    0 -0.58409411202E+02 -0.50735317724E+02 -0.17500349963E+02  0.79328393594E+02  0.10000000000E+01 0.  0.
<mgrwt>
<rscale>  0 0.14188666E+03</rscale>
<asrwt>0</asrwt>
<pdfrwt beam="1">  1        2 0.13528430E-01 0.14901918E+03</pdfrwt>
<pdfrwt beam="2">  1       -2 0.37047550E-01 0.14901918E+03</pdfrwt>
<totfact> 0.29439734E+03</totfact>
</mgrwt>
</event>
<event>
 8    2  0.8128359E-004  0.1624807E+03  0.7818608E-02  0.1193365E+00
         -2   -1    0    0    0  501 -0.00000000000E+00  0.00000000000E+00  0.16945110372E+03  0.16945110374E+03  0.25500000000E-02 0.  1.
          2   -1    0    0  501    0  0.00000000000E+00 -0.00000000000E+00 -0.13828659169E+03  0.13828659171E+03  0.25500000000E-02 0. -1.
         25    2    1    2    0    0 -0.28242338690E+02 -0.99885032529E+02 -0.13001536114E+02  0.16300007638E+03  0.12500134216E+03 0.  0.
         23    2    1    2    0    0  0.28242338690E+02  0.99885032529E+02  0.44166048150E+02  0.14473761907E+03  0.90684558487E+02 0.  0.
        -11    1    4    4    0    0  0.43427679806E+02  0.73303507496E+01  0.14261035800E+02  0.46293353279E+02  0.51100000000E-03 0. -1.
         11    1    4    4    0    0 -0.15185341116E+02  0.92554681779E+02  0.29905012350E+02  0.98444265795E+02  0.51100000000E-03 0.  1.
    9000005    1    3    3    0    0 -0.25092723752E+02 -0.91506588854E+02  0.44493772222E+02  0.10480360850E+03  0.10000000000E+01 0.  0.
    9000005    1    3    3    0    0 -0.31496149377E+01 -0.83784436747E+01 -0.57495308336E+02  0.58196467877E+02  0.10000000000E+01 0.  0.
<mgrwt>
<rscale>  0 0.15593400E+03</rscale>
<asrwt>0</asrwt>
<pdfrwt beam="2">  1        2 0.21274860E-01 0.16248072E+03</pdfrwt>
<pdfrwt beam="1">  1       -2 0.26069401E-01 0.16248072E+03</pdfrwt>
<totfact> 0.33130504E+03</totfact>
</mgrwt>
</event>
<event>
 8    2  0.8128359E-004  0.1387434E+03  0.7818608E-02  0.1226573E+00
          2   -1    0    0  501    0  0.00000000000E+00  0.00000000000E+00  0.24046103111E+03  0.24046103112E+03  0.25500000000E-02 0.  1.
         -2   -1    0    0    0  501 -0.00000000000E+00 -0.00000000000E+00 -0.64057180113E+02  0.64057180163E+02  0.25500000000E-02 0. -1.
         25    2    1    2    0    0  0.56273214915E+02 -0.21316442978E+02  0.10892894264E+03  0.17639517701E+03  0.12501471301E+03 0.  0.
         23    2    1    2    0    0 -0.56273214915E+02  0.21316442978E+02  0.67474908353E+02  0.12812303428E+03  0.90783165824E+02 0.  0.
        -11    1    4    4    0    0 -0.20208716981E+02 -0.50205108424E+01 -0.20651747565E+02  0.29327332795E+02  0.51100000000E-03 0. -1.
         11    1    4    4    0    0 -0.36064497934E+02  0.26336953820E+02  0.88126655918E+02  0.98795701482E+02  0.51100000000E-03 0.  1.
    9000005    1    3    3    0    0  0.67595730118E+02 -0.82572286598E+01  0.20639228153E+01  0.68136806007E+02  0.10000000000E+01 0.  0.
    9000005    1    3    3    0    0 -0.11322515204E+02 -0.13059214318E+02  0.10686501983E+03  0.10825837100E+03  0.10000000000E+01 0.  0.
<mgrwt>
<rscale>  0 0.13059666E+03</rscale>
<asrwt>0</asrwt>
<pdfrwt beam="1">  1        2 0.36994005E-01 0.13874345E+03</pdfrwt>
<pdfrwt beam="2">  1       -2 0.98549509E-02 0.13874345E+03</pdfrwt>
<totfact> 0.89614916E+03</totfact>
</mgrwt>
</event>
<event>
 8    2  0.8128359E-004  0.1349478E+03  0.7818608E-02  0.1232766E+00
          2   -1    0    0  501    0  0.00000000000E+00  0.00000000000E+00  0.19263330277E+02  0.19263330446E+02  0.25500000000E-02 0. -1.
         -2   -1    0    0    0  501 -0.00000000000E+00 -0.00000000000E+00 -0.89998366028E+03  0.89998366029E+03  0.25500000000E-02 0.  1.
         25    2    1    2    0    0 -0.46123435669E+02  0.21429416628E+02 -0.67840676795E+03  0.69169837670E+03  0.12499724127E+03 0.  0.
         23    2    1    2    0    0  0.46123435669E+02 -0.21429416628E+02 -0.20231356206E+03  0.22754861403E+03  0.90890060722E+02 0.  0.
        -11    1    4    4    0    0  0.62395558129E+02 -0.98633261811E+01 -0.72291683536E+02  0.96003012381E+02  0.51100000000E-03 0. -1.
         11    1    4    4    0    0 -0.16272122460E+02 -0.11566090447E+02 -0.13002187852E+03  0.13154560165E+03  0.51100000000E-03 0.  1.
    9000005    1    3    3    0    0 -0.28790434183E+02 -0.33094191375E+02 -0.54203820683E+03  0.54381111819E+03  0.10000000000E+01 0.  0.
    9000005    1    3    3    0    0 -0.17333001486E+02  0.54523608003E+02 -0.13636856111E+03  0.14788725851E+03  0.10000000000E+01 0.  0.
<mgrwt>
<rscale>  0 0.12648557E+03</rscale>
<asrwt>0</asrwt>
<pdfrwt beam="1">  1        2 0.29635900E-02 0.13494777E+03</pdfrwt>
<pdfrwt beam="2">  1       -2 0.13845899E+00 0.13494777E+03</pdfrwt>
<totfact> 0.11969570E+03</totfact>
</mgrwt>
</event>
<event>
 8    2  0.8128359E-004  0.1324759E+03  0.7818608E-02  0.1236764E+00
          2   -1    0    0  501    0  0.00000000000E+00  0.00000000000E+00  0.18310973076E+04  0.18310973076E+04  0.25500000000E-02 0. -1.
         -2   -1    0    0    0  501 -0.00000000000E+00 -0.00000000000E+00 -0.75864951706E+01  0.75864955992E+01  0.25500000000E-02 0.  1.
         25    2    1    2    0    0 -0.14243292331E+02  0.41503779530E+02  0.91796332092E+03  0.92747318579E+03  0.12499766682E+03 0.  0.
         23    2    1    2    0    0  0.14243292331E+02 -0.41503779530E+02  0.90554749153E+03  0.91121061744E+03  0.91449957985E+02 0.  0.
        -11    1    4    4    0    0  0.11788884766E+02 -0.34823712344E+02  0.11720472738E+03  0.12283573122E+03  0.51100000000E-03 0.  1.
         11    1    4    4    0    0  0.24544075642E+01 -0.66800671868E+01  0.78834276415E+03  0.78837488621E+03  0.51100000000E-03 0. -1.
    9000005    1    3    3    0    0 -0.45897722425E+02 -0.27786934956E+02  0.47306221328E+03  0.47609617969E+03  0.10000000000E+01 0.  0.
    9000005    1    3    3    0    0  0.31654430094E+02  0.69290714487E+02  0.44490110764E+03  0.45137700611E+03  0.10000000000E+01 0.  0.
<mgrwt>
<rscale>  0 0.12392151E+03</rscale>
<asrwt>0</asrwt>
<pdfrwt beam="1">  1        2 0.28170779E+00 0.13247585E+03</pdfrwt>
<pdfrwt beam="2">  1       -2 0.11671510E-02 0.13247585E+03</pdfrwt>
<totfact> 0.15092451E+04</totfact>
</mgrwt>
</event>
<event>
 8    2  0.8128359E-004  0.4083016E+03  0.7818608E-02  0.1041657E+00
         -2   -1    0    0    0  501 -0.00000000000E+00  0.00000000000E+00  0.11706944424E+03  0.11706944427E+03  0.25500000000E-02 0.  1.
          2   -1    0    0  501    0  0.00000000000E+00 -0.00000000000E+00 -0.17915030981E+04  0.17915030981E+04  0.25500000000E-02 0. -1.
         25    2    1    2    0    0  0.28087428665E+03 -0.26869000209E+03 -0.39501778912E+03  0.56811023845E+03  0.12500202872E+03 0.  0.
         23    2    1    2    0    0 -0.28087428665E+03  0.26869000209E+03 -0.12794158648E+04  0.13404623039E+04  0.94072052903E+02 0.  0.
        -11    1    4    4    0    0 -0.15705039424E+03  0.15839694129E+03 -0.57395752456E+03  0.61577727901E+03  0.51100000000E-03 0. -1.
         11    1    4    4    0    0 -0.12382389241E+03  0.11029306080E+03 -0.70545834020E+03  0.72468502493E+03  0.51100000000E-03 0.  1.
    9000005    1    3    3    0    0  0.21736836401E+03 -0.13981870446E+03 -0.29941797715E+03  0.39553811552E+03  0.10000000000E+01 0.  0.
    9000005    1    3    3    0    0  0.63505922645E+02 -0.12887129763E+03 -0.95599811969E+02  0.17257212293E+03  0.10000000000E+01 0.  0.
<mgrwt>
<rscale>  0 0.40618930E+03</rscale>
<asrwt>0</asrwt>
<pdfrwt beam="2">  1        2 0.27561584E+00 0.40830159E+03</pdfrwt>
<pdfrwt beam="1">  1       -2 0.18010685E-01 0.40830159E+03</pdfrwt>
<totfact> 0.23620983E+02</totfact>
</mgrwt>
</event>
<event>
 8    2  0.8128359E-004  0.2505544E+03  0.7818608E-02  0.1115204E+00
          2   -1    0    0  501    0  0.00000000000E+00  0.00000000000E+00  0.27411705898E+03  0.27411705900E+03  0.25500000000E-02 0. -1.
         -2   -1    0    0    0  501 -0.00000000000E+00 -0.00000000000E+00 -0.22506905195E+03  0.22506905196E+03  0.25500000000E-02 0.  1.
         25    2    1    2    0    0  0.16630816109E+03  0.13962209089E+03 -0.23391275741E+02  0.25164391915E+03  0.12499911022E+03 0.  0.
         23    2    1    2    0    0 -0.16630816109E+03 -0.13962209089E+03  0.72439282776E+02  0.24754219181E+03  0.94217590335E+02 0.  0.
        -11    1    4    4    0    0  0.61435212613E+01 -0.10218865360E+02  0.23652743795E+02  0.26488117185E+02  0.51100000000E-03 0. -1.
         11    1    4    4    0    0 -0.17245168235E+03 -0.12940322553E+03  0.48786538981E+02  0.22105407462E+03  0.51100000000E-03 0.  1.
    9000005    1    3    3    0    0  0.17213861487E+02  0.55644565339E+02  0.38328103237E+02  0.69732905982E+02  0.10000000000E+01 0.  0.
    9000005    1    3    3    0    0  0.14909429960E+03  0.83977525552E+02 -0.61719378978E+02  0.18191101317E+03  0.10000000000E+01 0.  0.
<mgrwt>
<rscale>  0 0.24701812E+03</rscale>
<asrwt>0</asrwt>
<pdfrwt beam="1">  1        2 0.42171855E-01 0.25055441E+03</pdfrwt>
<pdfrwt beam="2">  1       -2 0.34626008E-01 0.25055441E+03</pdfrwt>
<totfact> 0.94586406E+02</totfact>
</mgrwt>
</event>
<event>
 8    2  0.8128359E-004  0.1450012E+03  0.7818608E-02  0.1215589E+00
         -2   -1    0    0    0  501 -0.00000000000E+00  0.00000000000E+00  0.16337419748E+02  0.16337419947E+02  0.25500000000E-02 0.  1.
          2   -1    0    0  501    0  0.00000000000E+00 -0.00000000000E+00 -0.12213601257E+04  0.12213601257E+04  0.25500000000E-02 0. -1.
         25    2    1    2    0    0  0.40869935084E+02 -0.61089484375E+02 -0.86532306824E+03  0.87738781143E+03  0.12499232985E+03 0.  0.
         23    2    1    2    0    0 -0.40869935084E+02  0.61089484375E+02 -0.33969963774E+03  0.36030973424E+03  0.94999915884E+02 0.  0.
        -11    1    4    4    0    0 -0.87066334769E+01  0.15039364800E+02 -0.27106005555E+03  0.27161653425E+03  0.51100000000E-03 0. -1.
         11    1    4    4    0    0 -0.32163301608E+02  0.46050119575E+02 -0.68639582185E+02  0.88693199998E+02  0.51100000000E-03 0.  1.
    9000005    1    3    3    0    0  0.21575701673E+02  0.38179051605E+02 -0.26512233961E+03  0.26872663776E+03  0.10000000000E+01 0.  0.
    9000005    1    3    3    0    0  0.19294233412E+02 -0.99268535980E+02 -0.60020072864E+03  0.60866117367E+03  0.10000000000E+01 0.  0.
<mgrwt>
<rscale>  0 0.13833331E+03</rscale>
<asrwt>0</asrwt>
<pdfrwt beam="2">  1        2 0.18790149E+00 0.14500124E+03</pdfrwt>
<pdfrwt beam="1">  1       -2 0.25134502E-02 0.14500124E+03</pdfrwt>
<totfact> 0.10410767E+04</totfact>
</mgrwt>
</event>
<event>
 8    2  0.8128359E-004  0.1698061E+03  0.7818608E-02  0.1184443E+00
          2   -1    0    0  501    0  0.00000000000E+00  0.00000000000E+00  0.14359411246E+04  0.14359411246E+04  0.25500000000E-02 0. -1.
         -2   -1    0    0    0  501 -0.00000000000E+00 -0.00000000000E+00 -0.20076434246E+02  0.20076434408E+02  0.25500000000E-02 0.  1.
         25    2    1    2    0    0  0.70245799471E+02  0.90980150526E+02  0.49121391503E+03  0.51973571343E+03  0.12498896498E+03 0.  0.
         23    2    1    2    0    0 -0.70245799471E+02 -0.90980150526E+02  0.92465077536E+03  0.93628184561E+03  0.91830157984E+02 0.  0.
        -11    1    4    4    0    0 -0.71717285494E+02 -0.35589368857E+02  0.71364429364E+03  0.71812126417E+03  0.51100000000E-03 0. -1.
         11    1    4    4    0    0  0.14714860227E+01 -0.55390781669E+02  0.21100648172E+03  0.21816058144E+03  0.51100000000E-03 0.  1.
    9000005    1    3    3    0    0  0.13921919236E+02  0.89843040360E+02  0.16231093094E+03  0.18604147398E+03  0.10000000000E+01 0.  0.
    9000005    1    3    3    0    0  0.56323880235E+02  0.11371101660E+01  0.32890298408E+03  0.33369423945E+03  0.10000000000E+01 0.  0.
<mgrwt>
<rscale>  0 0.16382633E+03</rscale>
<asrwt>0</asrwt>
<pdfrwt beam="1">  1        2 0.22091397E+00 0.16980607E+03</pdfrwt>
<pdfrwt beam="2">  1       -2 0.30886829E-02 0.16980607E+03</pdfrwt>
<totfact> 0.59226724E+03</totfact>
</mgrwt>
</event>
<event>
 8    2  0.8128359E-004  0.1316468E+03  0.7818608E-02  0.1238098E+00
          2   -1    0    0  501    0  0.00000000000E+00  0.00000000000E+00  0.50433312110E+03  0.50433312110E+03  0.25500000000E-02 0.  1.
         -2   -1    0    0    0  501 -0.00000000000E+00 -0.00000000000E+00 -0.27818562009E+02  0.27818562125E+02  0.25500000000E-02 0. -1.
         25    2    1    2    0    0 -0.31221373741E+02  0.27051293157E+02  0.21680993676E+03  0.25364823130E+03  0.12499731966E+03 0.  0.
         23    2    1    2    0    0  0.31221373741E+02 -0.27051293157E+02  0.25970462233E+03  0.27850345193E+03  0.91712241495E+02 0.  0.
        -11    1    4    4    0    0  0.46355218026E+02 -0.25329088797E+01  0.23785404569E+03  0.24234225574E+03  0.51100000000E-03 0.  1.
         11    1    4    4    0    0 -0.15133844285E+02 -0.24518384277E+02  0.21850576638E+02  0.36161196192E+02  0.51100000000E-03 0. -1.
    9000005    1    3    3    0    0 -0.69027515601E+02 -0.18420909864E+02  0.10252259503E+03  0.12496403611E+03  0.10000000000E+01 0.  0.
    9000005    1    3    3    0    0  0.37806141860E+02  0.45472203021E+02  0.11428734173E+03  0.12868419518E+03  0.10000000000E+01 0.  0.
<mgrwt>
<rscale>  0 0.12308151E+03</rscale>
<asrwt>0</asrwt>
<pdfrwt beam="1">  1        2 0.77589711E-01 0.13164679E+03</pdfrwt>
<pdfrwt beam="2">  1       -2 0.42797788E-02 0.13164679E+03</pdfrwt>
<totfact> 0.14437691E+04</totfact>
</mgrwt>
</event>
<event>
 8    2  0.8128359E-004  0.1470871E+03  0.7818608E-02  0.1213434E+00
         -2   -1    0    0    0  501 -0.00000000000E+00  0.00000000000E+00  0.59449935158E+02  0.59449935213E+02  0.25500000000E-02 0.  1.
          2   -1    0    0  501    0  0.00000000000E+00 -0.00000000000E+00 -0.30101683228E+03  0.30101683230E+03  0.25500000000E-02 0. -1.
         25    2    1    2    0    0 -0.34604093977E+02  0.69354856518E+02 -0.13161894518E+03  0.19737820086E+03  0.12500827174E+03 0.  0.
         23    2    1    2    0    0  0.34604093977E+02 -0.69354856518E+02 -0.10994795195E+03  0.16308856665E+03  0.92205146224E+02 0.  0.
        -11    1    4    4    0    0  0.93214034653E+01  0.18208176008E+02 -0.23322179405E+00  0.20456799084E+02  0.51100000000E-03 0.  1.
         11    1    4    4    0    0  0.25282690512E+02 -0.87563032526E+02 -0.10971473016E+03  0.14263176756E+03  0.51100000000E-03 0. -1.
    9000005    1    3    3    0    0 -0.73928150312E+02  0.52033937512E+02 -0.45689502970E+02  0.10129873022E+03  0.10000000000E+01 0.  0.
    9000005    1    3    3    0    0  0.39324056335E+02  0.17320919006E+02 -0.85929442207E+02  0.96079470647E+02  0.10000000000E+01 0.  0.
<mgrwt>
<rscale>  0 0.13992226E+03</rscale>
<asrwt>0</asrwt>
<pdfrwt beam="2">  1        2 0.46310281E-01 0.14708707E+03</pdfrwt>
<pdfrwt beam="1">  1       -2 0.91461440E-02 0.14708707E+03</pdfrwt>
<totfact> 0.79643889E+03</totfact>
</mgrwt>
</event>
<event>
 8    2  0.8128359E-004  0.1396703E+03  0.7818608E-02  0.1225018E+00
          2   -1    0    0  501    0  0.00000000000E+00  0.00000000000E+00  0.22701284157E+04  0.22701284157E+04  0.25500000000E-02 0. -1.
         -2   -1    0    0    0  501 -0.00000000000E+00 -0.00000000000E+00 -0.74171942057E+01  0.74171946440E+01  0.25500000000E-02 0.  1.
         25    2    1    2    0    0  0.36280630530E+02 -0.50667076333E+02  0.95017556589E+03  0.96038606279E+03  0.12499738727E+03 0.  0.
         23    2    1    2    0    0 -0.36280630530E+02  0.50667076333E+02  0.13125356556E+04  0.13171595475E+04  0.90972466661E+02 0.  0.
        -11    1    4    4    0    0 -0.39765217639E+02 -0.10903036558E+02  0.31017133747E+03  0.31289999573E+03  0.51100000000E-03 0.  1.
         11    1    4    4    0    0  0.34845871090E+01  0.61570112891E+02  0.10023643181E+04  0.10042595518E+04  0.51100000000E-03 0. -1.
    9000005    1    3    3    0    0 -0.46307111485E+02 -0.11288127130E+02  0.36491566973E+03  0.36801659800E+03  0.10000000000E+01 0.  0.
    9000005    1    3    3    0    0  0.82587742015E+02 -0.39378949203E+02  0.58525989615E+03  0.59236946479E+03  0.10000000000E+01 0.  0.
<mgrwt>
<rscale>  0 0.13165644E+03</rscale>
<asrwt>0</asrwt>
<pdfrwt beam="1">  1        2 0.34925117E+00 0.13967027E+03</pdfrwt>
<pdfrwt beam="2">  1       -2 0.11411047E-02 0.13967027E+03</pdfrwt>
<totfact> 0.92896426E+03</totfact>
</mgrwt>
</event>
<event>
 8    2  0.8128359E-004  0.1454166E+03  0.7818608E-02  0.1216599E+00
         -2   -1    0    0    0  501 -0.00000000000E+00  0.00000000000E+00  0.14885169394E+02  0.14885169613E+02  0.25500000000E-02 0.  1.
          2   -1    0    0  501    0  0.00000000000E+00 -0.00000000000E+00 -0.11558752907E+04  0.11558752907E+04  0.25500000000E-02 0. -1.
         25    2    1    2    0    0 -0.40855813037E+02 -0.62055997766E+02 -0.66313372161E+03  0.67889051126E+03  0.12500339684E+03 0.  0.
         23    2    1    2    0    0  0.40855813037E+02  0.62055997766E+02 -0.47785639973E+03  0.49186994909E+03  0.89828524083E+02 0.  0.
        -11    1    4    4    0    0  0.28833218924E+02  0.44331743352E+02 -0.97562217654E+02  0.11097316926E+03  0.51100000000E-03 0.  1.
         11    1    4    4    0    0  0.12022594113E+02  0.17724254414E+02 -0.38029418208E+03  0.38089677983E+03  0.51100000000E-03 0. -1.
    9000005    1    3    3    0    0 -0.71665875175E+02 -0.70415943354E+02 -0.59759954070E+03  0.60598730497E+03  0.10000000000E+01 0.  0.
    9000005    1    3    3    0    0  0.30810062138E+02  0.83599455880E+01 -0.65534180912E+02  0.72903206288E+02  0.10000000000E+01 0.  0.
<mgrwt>
<rscale>  0 0.13759739E+03</rscale>
<asrwt>0</asrwt>
<pdfrwt beam="2">  1        2 0.17782690E+00 0.14541662E+03</pdfrwt>
<pdfrwt beam="1">  1       -2 0.22900270E-02 0.14541662E+03</pdfrwt>
<totfact> 0.12975541E+04</totfact>
</mgrwt>
</event>
<event>
 8    2  0.8128359E-004  0.2047769E+03  0.7818608E-02  0.1149831E+00
         -2   -1    0    0    0  501 -0.00000000000E+00  0.00000000000E+00  0.75888109209E+02  0.75888109252E+02  0.25500000000E-02 0.  1.
          2   -1    0    0  501    0  0.00000000000E+00 -0.00000000000E+00 -0.13323865190E+04  0.13323865190E+04  0.25500000000E-02 0. -1.
         25    2    1    2    0    0 -0.13867705863E+03  0.84119377275E+02 -0.11950403908E+04  0.12124582942E+04  0.12500473354E+03 0.  0.
         23    2    1    2    0    0  0.13867705863E+03 -0.84119377275E+02 -0.61458019024E+02  0.19581633405E+03  0.90882079381E+02 0.  0.
        -11    1    4    4    0    0  0.51988014727E+02 -0.28644119179E+02 -0.70897448845E+02  0.92464520178E+02  0.51100000000E-03 0. -1.
         11    1    4    4    0    0  0.86689043907E+02 -0.55475258096E+02  0.94394298205E+01  0.10335181387E+03  0.51100000000E-03 0.  1.
    9000005    1    3    3    0    0 -0.22195683764E+02 -0.28449082830E+02 -0.36339937280E+03  0.36518776382E+03  0.10000000000E+01 0.  0.
    9000005    1    3    3    0    0 -0.11648137487E+03  0.11256846010E+03 -0.83164101797E+03  0.84727053039E+03  0.10000000000E+01 0.  0.
<mgrwt>
<rscale>  0 0.19989105E+03</rscale>
<asrwt>0</asrwt>
<pdfrwt beam="2">  1        2 0.20498252E+00 0.20477690E+03</pdfrwt>
<pdfrwt beam="1">  1       -2 0.11675095E-01 0.20477690E+03</pdfrwt>
<totfact> 0.87714023E+02</totfact>
</mgrwt>
</event>
<event>
 8    2  0.8128359E-004  0.1424023E+03  0.7818608E-02  0.1222458E+00
          2   -1    0    0  501    0  0.00000000000E+00  0.00000000000E+00  0.36006717552E+03  0.36006717553E+03  0.25500000000E-02 0. -1.
         -2   -1    0    0    0  501 -0.00000000000E+00 -0.00000000000E+00 -0.48020290605E+02  0.48020290673E+02  0.25500000000E-02 0.  1.
         25    2    1    2    0    0 -0.27552777523E+02  0.62404154277E+02  0.23210129235E+03  0.27230394461E+03  0.12499997727E+03 0.  0.
         23    2    1    2    0    0  0.27552777523E+02 -0.62404154277E+02  0.79945592559E+02  0.13578352159E+03  0.85979258808E+02 0.  0.
        -11    1    4    4    0    0 -0.17239069081E+02 -0.50315230034E+02  0.13726606443E+02  0.54929296381E+02  0.51100000000E-03 0.  1.
         11    1    4    4    0    0  0.44791846603E+02 -0.12088924242E+02  0.66218986116E+02  0.80854225208E+02  0.51100000000E-03 0. -1.
    9000005    1    3    3    0    0  0.25542495920E+02  0.41912082433E+02  0.20206676439E+03  0.20794474992E+03  0.10000000000E+01 0.  0.
    9000005    1    3    3    0    0 -0.53095273443E+02  0.20492071844E+02  0.30034527968E+02  0.64359194686E+02  0.10000000000E+01 0.  0.
<mgrwt>
<rscale>  0 0.13342666E+03</rscale>
<asrwt>0</asrwt>
<pdfrwt beam="1">  1        2 0.55394951E-01 0.14240235E+03</pdfrwt>
<pdfrwt beam="2">  1       -2 0.73877369E-02 0.14240235E+03</pdfrwt>
<totfact> 0.91456139E+03</totfact>
</mgrwt>
</event>
<event>
 8    2  0.8128359E-004  0.1318067E+03  0.7818608E-02  0.1238179E+00
         -2   -1    0    0    0  501 -0.00000000000E+00  0.00000000000E+00  0.68013591642E+02  0.68013591690E+02  0.25500000000E-02 0. -1.
          2   -1    0    0  501    0  0.00000000000E+00 -0.00000000000E+00 -0.23377017076E+03  0.23377017078E+03  0.25500000000E-02 0.  1.
         25    2    1    2    0    0  0.26329990902E+01 -0.41802563355E+02 -0.15134530176E+03  0.20069482868E+03  0.12497450503E+03 0.  0.
         23    2    1    2    0    0 -0.26329990902E+01  0.41802563355E+02 -0.14411277362E+02  0.10108893378E+03  0.90867489407E+02 0.  0.
        -11    1    4    4    0    0 -0.38497046892E+02  0.28204243032E+02  0.17867656369E+02  0.50958366230E+02  0.51100000000E-03 0. -1.
         11    1    4    4    0    0  0.35864047801E+02  0.13598320322E+02 -0.32278933731E+02  0.50130567554E+02  0.51100000000E-03 0.  1.
    9000005    1    3    3    0    0  0.24547438479E+01  0.27722238406E+02 -0.12214597732E+03  0.12528043760E+03  0.10000000000E+01 0.  0.
    9000005    1    3    3    0    0  0.17825524235E+00 -0.69524801760E+02 -0.29199324438E+02  0.75414391083E+02  0.10000000000E+01 0.  0.
<mgrwt>
<rscale>  0 0.12303096E+03</rscale>
<asrwt>0</asrwt>
<pdfrwt beam="2">  1        2 0.35964641E-01 0.13180673E+03</pdfrwt>
<pdfrwt beam="1">  1       -2 0.10463630E-01 0.13180673E+03</pdfrwt>
<totfact> 0.83738940E+03</totfact>
</mgrwt>
</event>
<event>
 8    2  0.8128359E-004  0.1323450E+03  0.7818608E-02  0.1237248E+00
         -2   -1    0    0    0  501 -0.00000000000E+00  0.00000000000E+00  0.15191203093E+02  0.15191203307E+02  0.25500000000E-02 0.  1.
          2   -1    0    0  501    0  0.00000000000E+00 -0.00000000000E+00 -0.94439495850E+03  0.94439495850E+03  0.25500000000E-02 0. -1.
         25    2    1    2    0    0  0.40917881463E+02 -0.14699852833E+02 -0.63408264650E+03  0.64774686032E+03  0.12499933509E+03 0.  0.
         23    2    1    2    0    0 -0.40917881463E+02  0.14699852833E+02 -0.29512110891E+03  0.31183930149E+03  0.90867608816E+02 0.  0.
        -11    1    4    4    0    0 -0.28842789179E+02  0.46039462552E+02 -0.99589705919E+02  0.11344447155E+03  0.51100000000E-03 0.  1.
         11    1    4    4    0    0 -0.12075092284E+02 -0.31339609719E+02 -0.19553140299E+03  0.19839482994E+03  0.51100000000E-03 0. -1.
    9000005    1    3    3    0    0  0.48026386289E+02 -0.64166506216E+02 -0.44543474093E+03  0.45258919865E+03  0.10000000000E+01 0.  0.
    9000005    1    3    3    0    0 -0.71085048257E+01  0.49466653383E+02 -0.18864790556E+03  0.19515766168E+03  0.10000000000E+01 0.  0.
<mgrwt>
<rscale>  0 0.12361589E+03</rscale>
<asrwt>0</asrwt>
<pdfrwt beam="2">  1        2 0.14529149E+00 0.13234498E+03</pdfrwt>
<pdfrwt beam="1">  1       -2 0.23371089E-02 0.13234498E+03</pdfrwt>
<totfact> 0.16655327E+04</totfact>
</mgrwt>
</event>
<event>
 8    2  0.8128359E-004  0.3681774E+03  0.7818608E-02  0.1056371E+00
         -2   -1    0    0    0  501 -0.00000000000E+00  0.00000000000E+00  0.10490384007E+04  0.10490384007E+04  0.25500000000E-02 0.  1.
          2   -1    0    0  501    0  0.00000000000E+00 -0.00000000000E+00 -0.19780581040E+03  0.19780581041E+03  0.25500000000E-02 0. -1.
         25    2    1    2    0    0 -0.34586079237E+03  0.17607232473E+02  0.53033494120E+02  0.37197731758E+03  0.12499948384E+03 0.  0.
         23    2    1    2    0    0  0.34586079237E+03 -0.17607232473E+02  0.79819909617E+03  0.87486689353E+03  0.91326786473E+02 0.  0.
        -11    1    4    4    0    0  0.14889813383E+03 -0.13381101042E+02  0.23823056124E+03  0.28125345942E+03  0.51100000000E-03 0. -1.
         11    1    4    4    0    0  0.19696265853E+03 -0.42261314316E+01  0.55996853493E+03  0.59361343411E+03  0.51100000000E-03 0.  1.
    9000005    1    3    3    0    0 -0.14662665964E+03 -0.21999683976E+00  0.84879779549E+02  0.16942550780E+03  0.10000000000E+01 0.  0.
    9000005    1    3    3    0    0 -0.19923413273E+03  0.17827229313E+02 -0.31846285429E+02  0.20255180978E+03  0.10000000000E+01 0.  0.
<mgrwt>
<rscale>  0 0.36564410E+03</rscale>
<asrwt>0</asrwt>
<pdfrwt beam="2">  1        2 0.30431663E-01 0.36817737E+03</pdfrwt>
<pdfrwt beam="1">  1       -2 0.16139052E+00 0.36817737E+03</pdfrwt>
<totfact> 0.44924021E+01</totfact>
</mgrwt>
</event>
<event>
 8    2  0.8128359E-004  0.3225914E+03  0.7818608E-02  0.1075780E+00
         -2   -1    0    0    0  501 -0.00000000000E+00  0.00000000000E+00  0.16990683362E+03  0.16990683364E+03  0.25500000000E-02 0.  1.
          2   -1    0    0  501    0  0.00000000000E+00 -0.00000000000E+00 -0.69074058440E+03  0.69074058440E+03  0.25500000000E-02 0. -1.
         25    2    1    2    0    0  0.17313822707E+03 -0.24179185825E+03 -0.10100802581E+03  0.33803525113E+03  0.12500024536E+03 0.  0.
         23    2    1    2    0    0 -0.17313822707E+03  0.24179185825E+03 -0.41982572496E+03  0.52261216691E+03  0.91813339273E+02 0.  0.
        -11    1    4    4    0    0 -0.45823775309E+02  0.10872943512E+02 -0.53925114883E+02  0.71595791074E+02  0.51100000000E-03 0. -1.
         11    1    4    4    0    0 -0.12731445176E+03  0.23091891474E+03 -0.36590061008E+03  0.45101637583E+03  0.51100000000E-03 0.  1.
    9000005    1    3    3    0    0  0.40672420312E+02 -0.31769242770E+02 -0.71199793416E+02  0.87942828831E+02  0.10000000000E+01 0.  0.
    9000005    1    3    3    0    0  0.13246580676E+03 -0.21002261548E+03 -0.29808232397E+02  0.25009242230E+03  0.10000000000E+01 0.  0.
<mgrwt>
<rscale>  0 0.31971511E+03</rscale>
<asrwt>0</asrwt>
<pdfrwt beam="2">  1        2 0.10626778E+00 0.32259140E+03</pdfrwt>
<pdfrwt beam="1">  1       -2 0.26139513E-01 0.32259140E+03</pdfrwt>
<totfact> 0.56108237E+02</totfact>
</mgrwt>
</event>
<event>
 8    2  0.8128359E-004  0.1448778E+03  0.7818608E-02  0.1216910E+00
         -2   -1    0    0    0  501 -0.00000000000E+00  0.00000000000E+00  0.18101374723E+02  0.18101374903E+02  0.25500000000E-02 0.  1.
          2   -1    0    0  501    0  0.00000000000E+00 -0.00000000000E+00 -0.94925861100E+03  0.94925861101E+03  0.25500000000E-02 0. -1.
         25    2    1    2    0    0 -0.58171807802E+02  0.44522654029E+02 -0.49689296342E+03  0.51758303040E+03  0.12499340110E+03 0.  0.
         23    2    1    2    0    0  0.58171807802E+02 -0.44522654029E+02 -0.43426427286E+03  0.44977695551E+03  0.91365338498E+02 0.  0.
        -11    1    4    4    0    0 -0.11962217420E+02 -0.43486782909E+02 -0.21046776712E+03  0.21524608226E+03  0.51100000000E-03 0.  1.
         11    1    4    4    0    0  0.70134025222E+02 -0.10358711202E+01 -0.22379650574E+03  0.23453087325E+03  0.51100000000E-03 0. -1.
    9000005    1    3    3    0    0 -0.52285557926E+02 -0.36066079235E+02 -0.24112859989E+03  0.24935625784E+03  0.10000000000E+01 0.  0.
    9000005    1    3    3    0    0 -0.58862498758E+01  0.80588733264E+02 -0.25576436353E+03  0.26822677256E+03  0.10000000000E+01 0.  0.
<mgrwt>
<rscale>  0 0.13737139E+03</rscale>
<asrwt>0</asrwt>
<pdfrwt beam="2">  1        2 0.14603975E+00 0.14487780E+03</pdfrwt>
<pdfrwt beam="1">  1       -2 0.27848276E-02 0.14487780E+03</pdfrwt>
<totfact> 0.12876429E+04</totfact>
</mgrwt>
</event>
<event>
 8    2  0.8128359E-004  0.1424260E+03  0.7818608E-02  0.1220832E+00
         -2   -1    0    0    0  501 -0.00000000000E+00  0.00000000000E+00  0.20329125412E+02  0.20329125572E+02  0.25500000000E-02 0.  1.
          2   -1    0    0  501    0  0.00000000000E+00 -0.00000000000E+00 -0.80715964090E+03  0.80715964091E+03  0.25500000000E-02 0. -1.
         25    2    1    2    0    0 -0.10107642546E+02  0.67506135062E+02 -0.41890620359E+03  0.44245628981E+03  0.12500367306E+03 0.  0.
         23    2    1    2    0    0  0.10107642546E+02 -0.67506135062E+02 -0.36792431190E+03  0.38503247667E+03  0.90677814773E+02 0.  0.
        -11    1    4    4    0    0 -0.93637404354E+01  0.20931941767E+02 -0.76465908587E+02  0.79830201035E+02  0.51100000000E-03 0. -1.
         11    1    4    4    0    0  0.19471382981E+02 -0.88438076829E+02 -0.29145840332E+03  0.30520227563E+03  0.51100000000E-03 0.  1.
    9000005    1    3    3    0    0  0.34325265479E+02 -0.22685375204E+02 -0.10233246013E+03  0.11029860604E+03  0.10000000000E+01 0.  0.
    9000005    1    3    3    0    0 -0.44432908025E+02  0.90191510266E+02 -0.31657374346E+03  0.33215768377E+03  0.10000000000E+01 0.  0.
<mgrwt>
<rscale>  0 0.13456701E+03</rscale>
<asrwt>0</asrwt>
<pdfrwt beam="2">  1        2 0.12417838E+00 0.14242598E+03</pdfrwt>
<pdfrwt beam="1">  1       -2 0.31275584E-02 0.14242598E+03</pdfrwt>
<totfact> 0.13377065E+04</totfact>
</mgrwt>
</event>
<event>
 8    2  0.8128359E-004  0.1336431E+03  0.7818608E-02  0.1234717E+00
          2   -1    0    0  501    0  0.00000000000E+00  0.00000000000E+00  0.49773988435E+03  0.49773988436E+03  0.25500000000E-02 0.  1.
         -2   -1    0    0    0  501 -0.00000000000E+00 -0.00000000000E+00 -0.28537293450E+02  0.28537293564E+02  0.25500000000E-02 0. -1.
         25    2    1    2    0    0 -0.40944634774E+02  0.23644881624E+02  0.29560259712E+03  0.32440925680E+03  0.12499970773E+03 0.  0.
         23    2    1    2    0    0  0.40944634774E+02 -0.23644881624E+02  0.17359999378E+03  0.20186792112E+03  0.91532268584E+02 0.  0.
        -11    1    4    4    0    0  0.28040012919E+02 -0.37732915019E+02  0.27375605565E+02  0.54400725920E+02  0.51100000000E-03 0. -1.
         11    1    4    4    0    0  0.12904621855E+02  0.14088033395E+02  0.14622438822E+03  0.14746719520E+03  0.51100000000E-03 0.  1.
    9000005    1    3    3    0    0 -0.72424993126E+02 -0.12632007421E+02  0.23958079599E+03  0.25060906817E+03  0.10000000000E+01 0.  0.
    9000005    1    3    3    0    0  0.31480358352E+02  0.36276889045E+02  0.56021801125E+02  0.73800188631E+02  0.10000000000E+01 0.  0.
<mgrwt>
<rscale>  0 0.12522562E+03</rscale>
<asrwt>0</asrwt>
<pdfrwt beam="1">  1        2 0.76575367E-01 0.13364307E+03</pdfrwt>
<pdfrwt beam="2">  1       -2 0.43903528E-02 0.13364307E+03</pdfrwt>
<totfact> 0.14117896E+04</totfact>
</mgrwt>
</event>
<event>
 8    2  0.8128359E-004  0.1473957E+03  0.7818608E-02  0.1213429E+00
          2   -1    0    0  501    0  0.00000000000E+00  0.00000000000E+00  0.99276297360E+03  0.99276297360E+03  0.25500000000E-02 0. -1.
         -2   -1    0    0    0  501 -0.00000000000E+00 -0.00000000000E+00 -0.17966611245E+02  0.17966611426E+02  0.25500000000E-02 0.  1.
         25    2    1    2    0    0 -0.76585401529E+02  0.15303402680E+02  0.53925092151E+03  0.55903223825E+03  0.12500387673E+03 0.  0.
         23    2    1    2    0    0  0.76585401529E+02 -0.15303402680E+02  0.43554544085E+03  0.45169734678E+03  0.90725653385E+02 0.  0.
        -11    1    4    4    0    0  0.94591416888E+02 -0.18364565257E+02  0.30442032907E+03  0.31930632652E+03  0.51100000000E-03 0.  1.
         11    1    4    4    0    0 -0.18006015358E+02  0.30611625769E+01  0.13112511178E+03  0.13239102025E+03  0.51100000000E-03 0. -1.
    9000005    1    3    3    0    0 -0.10516303893E+03 -0.11915279078E+02  0.43105786671E+03  0.44386160353E+03  0.10000000000E+01 0.  0.
    9000005    1    3    3    0    0  0.28577637405E+02  0.27218681757E+02  0.10819305480E+03  0.11517063473E+03  0.10000000000E+01 0.  0.
<mgrwt>
<rscale>  0 0.13992550E+03</rscale>
<asrwt>0</asrwt>
<pdfrwt beam="1">  1        2 0.15273279E+00 0.14739568E+03</pdfrwt>
<pdfrwt beam="2">  1       -2 0.27640936E-02 0.14739568E+03</pdfrwt>
<totfact> 0.12261898E+04</totfact>
</mgrwt>
</event>
<event>
 8    2  0.8128359E-004  0.2321013E+03  0.7818608E-02  0.1128163E+00
          2   -1    0    0  501    0  0.00000000000E+00  0.00000000000E+00  0.14458081532E+04  0.14458081532E+04  0.25500000000E-02 0. -1.
         -2   -1    0    0    0  501 -0.00000000000E+00 -0.00000000000E+00 -0.42705642665E+02  0.42705642742E+02  0.25500000000E-02 0.  1.
         25    2    1    2    0    0  0.11093214342E+03  0.16105834969E+03  0.39955330998E+03  0.46207560095E+03  0.12500112409E+03 0.  0.
         23    2    1    2    0    0 -0.11093214342E+03 -0.16105834969E+03  0.10035492006E+04  0.10264381950E+04  0.90656702848E+02 0.  0.
        -11    1    4    4    0    0 -0.37287581920E+02 -0.10876969216E+03  0.71182864222E+03  0.72105563280E+03  0.51100000000E-03 0.  1.
         11    1    4    4    0    0 -0.73644561498E+02 -0.52288657529E+02  0.29172055836E+03  0.30538256223E+03  0.51100000000E-03 0. -1.
    9000005    1    3    3    0    0  0.12262518649E+03  0.13891504431E+03  0.39541023247E+03  0.43667445293E+03  0.10000000000E+01 0.  0.
    9000005    1    3    3    0    0 -0.11693043072E+02  0.22143305382E+02  0.41430775133E+01  0.25401148021E+02  0.10000000000E+01 0.  0.
<mgrwt>
<rscale>  0 0.22784956E+03</rscale>
<asrwt>0</asrwt>
<pdfrwt beam="1">  1        2 0.22243201E+00 0.23210130E+03</pdfrwt>
<pdfrwt beam="2">  1       -2 0.65700992E-02 0.23210130E+03</pdfrwt>
<totfact> 0.18792039E+03</totfact>
</mgrwt>
</event>
<event>
 8    2  0.8128359E-004  0.1342583E+03  0.7818608E-02  0.1235174E+00
         -2   -1    0    0    0  501 -0.00000000000E+00  0.00000000000E+00  0.11666104477E+02  0.11666104755E+02  0.25500000000E-02 0.  1.
          2   -1    0    0  501    0  0.00000000000E+00 -0.00000000000E+00 -0.12187305850E+04  0.12187305850E+04  0.25500000000E-02 0. -1.
         25    2    1    2    0    0 -0.26528323385E+02 -0.41195052837E+02 -0.58255704970E+03  0.59782774623E+03  0.12499805473E+03 0.  0.
         23    2    1    2    0    0  0.26528323385E+02  0.41195052837E+02 -0.62450743082E+03  0.63256894352E+03  0.87938346841E+02 0.  0.
        -11    1    4    4    0    0  0.15142071844E+02 -0.25451403244E+02 -0.27433552293E+03  0.27592940294E+03  0.51100000000E-03 0. -1.
         11    1    4    4    0    0  0.11386251541E+02  0.66646456080E+02 -0.35017190789E+03  0.35663954058E+03  0.51100000000E-03 0.  1.
    9000005    1    3    3    0    0 -0.54055484448E+02  0.27152645401E+02 -0.27219044034E+03  0.27883309948E+03  0.10000000000E+01 0.  0.
    9000005    1    3    3    0    0  0.27527161063E+02 -0.68347698238E+02 -0.31036660936E+03  0.31899464675E+03  0.10000000000E+01 0.  0.
<mgrwt>
<rscale>  0 0.12493330E+03</rscale>
<asrwt>0</asrwt>
<pdfrwt beam="2">  1        2 0.18749691E+00 0.13425833E+03</pdfrwt>
<pdfrwt beam="1">  1       -2 0.17947863E-02 0.13425833E+03</pdfrwt>
<totfact> 0.16979080E+04</totfact>
</mgrwt>
</event>
<event>
 8    2  0.8128359E-004  0.1511184E+03  0.7818608E-02  0.1207833E+00
         -2   -1    0    0    0  501 -0.00000000000E+00  0.00000000000E+00  0.14604746632E+02  0.14604746855E+02  0.25500000000E-02 0.  1.
          2   -1    0    0  501    0  0.00000000000E+00 -0.00000000000E+00 -0.14558642738E+04  0.14558642738E+04  0.25500000000E-02 0. -1.
         25    2    1    2    0    0  0.37130737387E+02 -0.76372785331E+02 -0.54692212111E+03  0.56741569288E+03  0.12500107185E+03 0.  0.
         23    2    1    2    0    0 -0.37130737387E+02  0.76372785331E+02 -0.89433740601E+03  0.90305332774E+03  0.91947936051E+02 0.  0.
        -11    1    4    4    0    0  0.29593298032E+02  0.37976489379E+02 -0.35459771084E+03  0.35785124503E+03  0.51100000000E-03 0. -1.
         11    1    4    4    0    0 -0.66724035420E+02  0.38396295951E+02 -0.53973969517E+03  0.54520208271E+03  0.51100000000E-03 0.  1.
    9000005    1    3    3    0    0  0.72063671055E+02 -0.71215754841E+02 -0.49043809668E+03  0.50079475147E+03  0.10000000000E+01 0.  0.
    9000005    1    3    3    0    0 -0.34932933668E+02 -0.51570304899E+01 -0.56484024432E+02  0.66620941409E+02  0.10000000000E+01 0.  0.
<mgrwt>
<rscale>  0 0.14416420E+03</rscale>
<asrwt>0</asrwt>
<pdfrwt beam="2">  1        2 0.22397900E+00 0.15111837E+03</pdfrwt>
<pdfrwt beam="1">  1       -2 0.22468853E-02 0.15111837E+03</pdfrwt>
<totfact> 0.91921390E+03</totfact>
</mgrwt>
</event>
<event>
 8    2  0.8128359E-004  0.1689334E+03  0.7818608E-02  0.1185460E+00
          2   -1    0    0  501    0  0.00000000000E+00  0.00000000000E+00  0.29519795666E+03  0.29519795667E+03  0.25500000000E-02 0. -1.
         -2   -1    0    0    0  501 -0.00000000000E+00 -0.00000000000E+00 -0.11550660926E+03  0.11550660928E+03  0.25500000000E-02 0.  1.
         25    2    1    2    0    0 -0.33805283859E+02 -0.10849441577E+03  0.20158038624E+03  0.26300786130E+03  0.12499859008E+03 0.  0.
         23    2    1    2    0    0  0.33805283859E+02  0.10849441577E+03 -0.21889038831E+02  0.14769670465E+03  0.91767919641E+02 0.  0.
        -11    1    4    4    0    0  0.40723176653E+02  0.52151385383E+02 -0.51336513928E+02  0.83747129961E+02  0.51100000000E-03 0. -1.
         11    1    4    4    0    0 -0.69178927947E+01  0.56343030383E+02  0.29447475097E+02  0.63949574693E+02  0.51100000000E-03 0.  1.
    9000005    1    3    3    0    0 -0.49524833633E+01 -0.12000379047E+03  0.98469554079E+02  0.15531480902E+03  0.10000000000E+01 0.  0.
    9000005    1    3    3    0    0 -0.28852800496E+02  0.11509374706E+02  0.10311083216E+03  0.10769305229E+03  0.10000000000E+01 0.  0.
<mgrwt>
<rscale>  0 0.16290096E+03</rscale>
<asrwt>0</asrwt>
<pdfrwt beam="1">  1        2 0.45415070E-01 0.16893337E+03</pdfrwt>
<pdfrwt beam="2">  1       -2 0.17770248E-01 0.16893337E+03</pdfrwt>
<totfact> 0.28038077E+03</totfact>
</mgrwt>
</event>
<event>
 8    2  0.8128359E-004  0.1307806E+03  0.7818608E-02  0.1239454E+00
         -2   -1    0    0    0  501 -0.00000000000E+00  0.00000000000E+00  0.80861545162E+01  0.80861549183E+01  0.25500000000E-02 0.  1.
          2   -1    0    0  501    0  0.00000000000E+00 -0.00000000000E+00 -0.16453697271E+04  0.16453697271E+04  0.25500000000E-02 0. -1.
         25    2    1    2    0    0 -0.38121555906E+02  0.51676416809E+01 -0.90393743023E+03  0.91334902753E+03  0.12499444300E+03 0.  0.
         23    2    1    2    0    0  0.38121555906E+02 -0.51676416809E+01 -0.73334614238E+03  0.74010685452E+03  0.92095787137E+02 0.  0.
        -11    1    4    4    0    0  0.21046750664E+02  0.22867719745E+02 -0.78353352663E+02  0.84292029241E+02  0.51100000000E-03 0.  1.
         11    1    4    4    0    0  0.17074805242E+02 -0.28035361426E+02 -0.65499278972E+03  0.65581482528E+03  0.51100000000E-03 0. -1.
    9000005    1    3    3    0    0  0.44582362741E+02 -0.10880136167E+02 -0.27738170889E+03  0.28115400914E+03  0.10000000000E+01 0.  0.
    9000005    1    3    3    0    0 -0.82703918647E+02  0.16047777847E+02 -0.62655572134E+03  0.63219501839E+03  0.10000000000E+01 0.  0.
<mgrwt>
<rscale>  0 0.12223585E+03</rscale>
<asrwt>0</asrwt>
<pdfrwt beam="2">  1        2 0.25313354E+00 0.13078061E+03</pdfrwt>
<pdfrwt beam="1">  1       -2 0.12440251E-02 0.13078061E+03</pdfrwt>
<totfact> 0.17126517E+04</totfact>
</mgrwt>
</event>
<event>
 8    2  0.8128359E-004  0.1295067E+03  0.7818608E-02  0.1259601E+00
         -2   -1    0    0    0  501 -0.00000000000E+00  0.00000000000E+00  0.39716497975E+02  0.39716498057E+02  0.25500000000E-02 0.  1.
          2   -1    0    0  501    0  0.00000000000E+00 -0.00000000000E+00 -0.29888000898E+03  0.29888000899E+03  0.25500000000E-02 0. -1.
         25    2    1    2    0    0 -0.13147509412E+02  0.31207118228E+02 -0.94931177548E+02  0.16057370038E+03  0.12500097420E+03 0.  0.
         23    2    1    2    0    0  0.13147509412E+02 -0.31207118228E+02 -0.16423233346E+03  0.17802280667E+03  0.59775572841E+02 0.  0.
        -11    1    4    4    0    0  0.18210067356E+02 -0.11148127588E+02 -0.12203730053E+02  0.24593054493E+02  0.51100000000E-03 0.  1.
         11    1    4    4    0    0 -0.50625579441E+01 -0.20058990639E+02 -0.15202860341E+03  0.15342975217E+03  0.51100000000E-03 0. -1.
    9000005    1    3    3    0    0 -0.28235463678E+01  0.13259982921E+02 -0.12407082989E+03  0.12481334220E+03  0.10000000000E+01 0.  0.
    9000005    1    3    3    0    0 -0.10323963044E+02  0.17947135307E+02  0.29139652343E+02  0.35760358183E+02  0.10000000000E+01 0.  0.
<mgrwt>
<rscale>  0 0.11052495E+03</rscale>
<asrwt>0</asrwt>
<pdfrwt beam="2">  1        2 0.45981538E-01 0.12950670E+03</pdfrwt>
<pdfrwt beam="1">  1       -2 0.61102307E-02 0.12950670E+03</pdfrwt>
<totfact> 0.14781687E+04</totfact>
</mgrwt>
</event>
<event>
 8    2  0.8128359E-004  0.1472706E+03  0.7818608E-02  0.1213342E+00
         -2   -1    0    0    0  501 -0.00000000000E+00  0.00000000000E+00  0.12703569975E+02  0.12703570231E+02  0.25500000000E-02 0.  1.
          2   -1    0    0  501    0  0.00000000000E+00 -0.00000000000E+00 -0.17223998179E+04  0.17223998179E+04  0.25500000000E-02 0. -1.
         25    2    1    2    0    0  0.72991480431E+02 -0.27139051283E+02 -0.12944150313E+04  0.13027658716E+04  0.12499743497E+03 0.  0.
         23    2    1    2    0    0 -0.72991480431E+02  0.27139051283E+02 -0.41528121670E+03  0.43233751656E+03  0.91613072005E+02 0.  0.
        -11    1    4    4    0    0  0.14243666447E+02  0.62751294814E+01 -0.13307086052E+02  0.20477739703E+02  0.51100000000E-03 0.  1.
         11    1    4    4    0    0 -0.87235146878E+02  0.20863921801E+02 -0.40197413065E+03  0.41185977686E+03  0.51100000000E-03 0. -1.
    9000005    1    3    3    0    0 -0.18465419839E+01 -0.54747351328E+02 -0.80774422098E+03  0.80960015360E+03  0.10000000000E+01 0.  0.
    9000005    1    3    3    0    0  0.74838022415E+02  0.27608300045E+02 -0.48667081028E+03  0.49316571800E+03  0.10000000000E+01 0.  0.
<mgrwt>
<rscale>  0 0.13999026E+03</rscale>
<asrwt>0</asrwt>
<pdfrwt beam="2">  1        2 0.26498440E+00 0.14727065E+03</pdfrwt>
<pdfrwt beam="1">  1       -2 0.19543968E-02 0.14727065E+03</pdfrwt>
<totfact> 0.81847635E+03</totfact>
</mgrwt>
</event>
<event>
 8    2  0.8128359E-004  0.1373917E+03  0.7818608E-02  0.1228234E+00
          2   -1    0    0  501    0  0.00000000000E+00  0.00000000000E+00  0.56988142189E+03  0.56988142190E+03  0.25500000000E-02 0.  1.
         -2   -1    0    0    0  501 -0.00000000000E+00 -0.00000000000E+00 -0.49500000268E+02  0.49500000334E+02  0.25500000000E-02 0. -1.
         25    2    1    2    0    0  0.29071118484E+02  0.49052456137E+02  0.66306279441E+02  0.15255488378E+03  0.12500078596E+03 0.  0.
         23    2    1    2    0    0 -0.29071118484E+02 -0.49052456137E+02  0.45407514218E+03  0.46682653845E+03  0.92149383431E+02 0.  0.
        -11    1    4    4    0    0  0.14830884809E+02  0.18049177786E+02  0.17185993270E+03  0.17344037716E+03  0.51100000000E-03 0.  1.
         11    1    4    4    0    0 -0.43902003294E+02 -0.67101633923E+02  0.28221520948E+03  0.29338616128E+03  0.51100000000E-03 0. -1.
    9000005    1    3    3    0    0  0.57225805850E+02  0.77311824899E+02  0.56143298200E+02  0.11137765062E+03  0.10000000000E+01 0.  0.
    9000005    1    3    3    0    0 -0.28154687366E+02 -0.28259368762E+02  0.10162981241E+02  0.41177233166E+02  0.10000000000E+01 0.  0.
<mgrwt>
<rscale>  0 0.12947671E+03</rscale>
<asrwt>0</asrwt>
<pdfrwt beam="1">  1        2 0.87674064E-01 0.13739167E+03</pdfrwt>
<pdfrwt beam="2">  1       -2 0.76153847E-02 0.13739167E+03</pdfrwt>
<totfact> 0.52865015E+03</totfact>
</mgrwt>
</event>
<event>
 8    2  0.8128359E-004  0.1338019E+03  0.7818608E-02  0.1231461E+00
          2   -1    0    0  501    0  0.00000000000E+00  0.00000000000E+00  0.72132153417E+03  0.72132153418E+03  0.25500000000E-02 0.  1.
         -2   -1    0    0    0  501 -0.00000000000E+00 -0.00000000000E+00 -0.20835309089E+02  0.20835309245E+02  0.25500000000E-02 0. -1.
         25    2    1    2    0    0  0.42322154797E+02 -0.22068404241E+02  0.34190717840E+03  0.36715590065E+03  0.12499902996E+03 0.  0.
         23    2    1    2    0    0 -0.42322154797E+02  0.22068404241E+02  0.35857904669E+03  0.37500094277E+03  0.98836203402E+02 0.  0.
        -11    1    4    4    0    0  0.87903380799E+00  0.13621564009E+02 -0.80560977476E-01  0.13650135413E+02  0.51100000000E-03 0. -1.
         11    1    4    4    0    0 -0.43201188605E+02  0.84468402325E+01  0.35865960766E+03  0.36135080736E+03  0.51100000000E-03 0.  1.
    9000005    1    3    3    0    0  0.66381350551E+02 -0.55422844228E+02  0.27810076445E+03  0.29123737835E+03  0.10000000000E+01 0.  0.
    9000005    1    3    3    0    0 -0.24059195754E+02  0.33354439987E+02  0.63806413950E+02  0.75918522301E+02  0.10000000000E+01 0.  0.
<mgrwt>
<rscale>  0 0.12733725E+03</rscale>
<asrwt>0</asrwt>
<pdfrwt beam="1">  1        2 0.11097252E+00 0.13380186E+03</pdfrwt>
<pdfrwt beam="2">  1       -2 0.32054328E-02 0.13380186E+03</pdfrwt>
<totfact> 0.14739609E+04</totfact>
</mgrwt>
</event>
<event>
 8    2  0.8128359E-004  0.1610255E+03  0.7818608E-02  0.1194747E+00
          2   -1    0    0  501    0  0.00000000000E+00  0.00000000000E+00  0.30569213894E+04  0.30569213894E+04  0.25500000000E-02 0. -1.
         -2   -1    0    0    0  501 -0.00000000000E+00 -0.00000000000E+00 -0.81390005304E+01  0.81390009298E+01  0.25500000000E-02 0.  1.
         25    2    1    2    0    0  0.77899989330E+02  0.65079355968E+02  0.11366398623E+04  0.11479892812E+04  0.12500192873E+03 0.  0.
         23    2    1    2    0    0 -0.77899989330E+02 -0.65079355968E+02  0.19121425265E+04  0.19170711091E+04  0.92568162875E+02 0.  0.
        -11    1    4    4    0    0  0.18520848702E+02 -0.56767172483E+01  0.50788304900E+03  0.50825233734E+03  0.51100000000E-03 0.  1.
         11    1    4    4    0    0 -0.96420838032E+02 -0.59402638719E+02  0.14042594775E+04  0.14088187717E+04  0.51100000000E-03 0. -1.
    9000005    1    3    3    0    0  0.61597050624E+02 -0.24860388284E+02  0.59408222120E+03  0.59778501244E+03  0.10000000000E+01 0.  0.
    9000005    1    3    3    0    0  0.16302938706E+02  0.89939744252E+02  0.54255764114E+03  0.55020426877E+03  0.10000000000E+01 0.  0.
<mgrwt>
<rscale>  0 0.15475688E+03</rscale>
<asrwt>0</asrwt>
<pdfrwt beam="1">  1        2 0.47029576E+00 0.16102550E+03</pdfrwt>
<pdfrwt beam="2">  1       -2 0.12521535E-02 0.16102550E+03</pdfrwt>
<totfact> 0.29985254E+03</totfact>
</mgrwt>
</event>
<event>
 8    2  0.8128359E-004  0.5740270E+03  0.7818608E-02  0.9964338E-01
         -2   -1    0    0    0  501 -0.00000000000E+00  0.00000000000E+00  0.55177393242E+03  0.55177393242E+03  0.25500000000E-02 0.  1.
          2   -1    0    0  501    0  0.00000000000E+00 -0.00000000000E+00 -0.67355309878E+03  0.67355309879E+03  0.25500000000E-02 0. -1.
         25    2    1    2    0    0  0.46634256496E+03 -0.31049549074E+03 -0.27627572762E+03  0.63705204668E+03  0.12499677934E+03 0.  0.
         23    2    1    2    0    0 -0.46634256496E+03  0.31049549074E+03  0.15449656125E+03  0.58827498453E+03  0.91188992357E+02 0.  0.
        -11    1    4    4    0    0 -0.14789045344E+03  0.10070297001E+03  0.94161320159E+02  0.20218562907E+03  0.51100000000E-03 0.  1.
         11    1    4    4    0    0 -0.31845211152E+03  0.20979252073E+03  0.60335241090E+02  0.38608935547E+03  0.51100000000E-03 0. -1.
    9000005    1    3    3    0    0  0.24000520247E+03 -0.18591360434E+03 -0.84004754347E+02  0.31499867340E+03  0.10000000000E+01 0.  0.
    9000005    1    3    3    0    0  0.22633736249E+03 -0.12458188640E+03 -0.19227097327E+03  0.32205337328E+03  0.10000000000E+01 0.  0.
<mgrwt>
<rscale>  0 0.57241981E+03</rscale>
<asrwt>0</asrwt>
<pdfrwt beam="2">  1        2 0.10362355E+00 0.57402703E+03</pdfrwt>
<pdfrwt beam="1">  1       -2 0.84888297E-01 0.57402703E+03</pdfrwt>
<totfact> 0.53414155E+01</totfact>
</mgrwt>
</event>
<event>
 8    2  0.8128359E-004  0.2010712E+03  0.7818608E-02  0.1153130E+00
         -2   -1    0    0    0  501 -0.00000000000E+00  0.00000000000E+00  0.11398928864E+03  0.11398928867E+03  0.25500000000E-02 0.  1.
          2   -1    0    0  501    0  0.00000000000E+00 -0.00000000000E+00 -0.32482809427E+03  0.32482809428E+03  0.25500000000E-02 0. -1.
         25    2    1    2    0    0 -0.48373890512E+02 -0.14988381334E+03 -0.13363926812E+03  0.24143134247E+03  0.12499779341E+03 0.  0.
         23    2    1    2    0    0  0.48373890512E+02  0.14988381334E+03 -0.77199537518E+02  0.19738604048E+03  0.90533361797E+02 0.  0.
        -11    1    4    4    0    0  0.11324447832E+02  0.25814792392E+01  0.15555753059E+02  0.19413619119E+02  0.51100000000E-03 0.  1.
         11    1    4    4    0    0  0.37049442679E+02  0.14730233410E+03 -0.92755290577E+02  0.17797242136E+03  0.51100000000E-03 0. -1.
    9000005    1    3    3    0    0 -0.19647701384E+01 -0.96853811171E+02 -0.77896485547E+01  0.97191561798E+02  0.10000000000E+01 0.  0.
    9000005    1    3    3    0    0 -0.46409120373E+02 -0.53030002171E+02 -0.12584961956E+03  0.14423978067E+03  0.10000000000E+01 0.  0.
<mgrwt>
<rscale>  0 0.19603297E+03</rscale>
<asrwt>0</asrwt>
<pdfrwt beam="2">  1        2 0.49973553E-01 0.20107123E+03</pdfrwt>
<pdfrwt beam="1">  1       -2 0.17536814E-01 0.20107123E+03</pdfrwt>
<totfact> 0.26044749E+03</totfact>
</mgrwt>
</event>
<event>
 8    2  0.8128359E-004  0.1379638E+03  0.7818608E-02  0.1228261E+00
          2   -1    0    0  501    0  0.00000000000E+00  0.00000000000E+00  0.24650334703E+03  0.24650334705E+03  0.25500000000E-02 0. -1.
         -2   -1    0    0    0  501 -0.00000000000E+00 -0.00000000000E+00 -0.84141129933E+02  0.84141129972E+02  0.25500000000E-02 0.  1.
         25    2    1    2    0    0  0.25740708008E+02 -0.52419911900E+02  0.21166378820E+01  0.13798001828E+03  0.12499429617E+03 0.  0.
         23    2    1    2    0    0 -0.25740708008E+02  0.52419911900E+02  0.16024557922E+03  0.19266445874E+03  0.89613150774E+02 0.  0.
        -11    1    4    4    0    0 -0.40598453556E+02 -0.10181738720E+02  0.52149594777E+02  0.66869144381E+02  0.51100000000E-03 0.  1.
         11    1    4    4    0    0  0.14857745548E+02  0.62601650620E+02  0.10809598444E+03  0.12579531436E+03  0.51100000000E-03 0. -1.
    9000005    1    3    3    0    0  0.26590234424E+02  0.63380486397E+01 -0.51571756042E+02  0.58376857132E+02  0.10000000000E+01 0.  0.
    9000005    1    3    3    0    0 -0.84952641641E+00 -0.58757960540E+02  0.53688393924E+02  0.79603161144E+02  0.10000000000E+01 0.  0.
<mgrwt>
<rscale>  0 0.12945880E+03</rscale>
<asrwt>0</asrwt>
<pdfrwt beam="1">  1        2 0.37923592E-01 0.13796378E+03</pdfrwt>
<pdfrwt beam="2">  1       -2 0.12944789E-01 0.13796378E+03</pdfrwt>
<totfact> 0.56561485E+03</totfact>
</mgrwt>
</event>
<event>
 8    2  0.8128359E-004  0.1655941E+03  0.7818608E-02  0.1190030E+00
         -2   -1    0    0    0  501 -0.00000000000E+00  0.00000000000E+00  0.63459977520E+01  0.63459982643E+01  0.25500000000E-02 0.  1.
          2   -1    0    0  501    0  0.00000000000E+00 -0.00000000000E+00 -0.36895822171E+04  0.36895822171E+04  0.25500000000E-02 0. -1.
         25    2    1    2    0    0 -0.10069059823E+03 -0.40720555105E+02 -0.20769532916E+04  0.20835441837E+04  0.12499852019E+03 0.  0.
         23    2    1    2    0    0  0.10069059823E+03  0.40720555105E+02 -0.16062829278E+04  0.16123840316E+04  0.88547508107E+02 0.  0.
        -11    1    4    4    0    0  0.12223968161E+02  0.21697946609E+02 -0.89785782032E+03  0.89820314617E+03  0.51100000000E-03 0. -1.
         11    1    4    4    0    0  0.88466630069E+02  0.19022608496E+02 -0.70842510745E+03  0.71418088544E+03  0.51100000000E-03 0.  1.
    9000005    1    3    3    0    0 -0.37457247257E+02 -0.29526018356E+02 -0.20453479004E+03  0.21002454968E+03  0.10000000000E+01 0.  0.
    9000005    1    3    3    0    0 -0.63233350974E+02 -0.11194536749E+02 -0.18724185015E+04  0.18735196341E+04  0.10000000000E+01 0.  0.
<mgrwt>
<rscale>  0 0.15882509E+03</rscale>
<asrwt>0</asrwt>
<pdfrwt beam="2">  1        2 0.56762632E+00 0.16559405E+03</pdfrwt>
<pdfrwt beam="1">  1       -2 0.97631033E-03 0.16559405E+03</pdfrwt>
<totfact> 0.17041979E+03</totfact>
</mgrwt>
</event>
<event>
 8    2  0.8128359E-004  0.1756126E+03  0.7818608E-02  0.1177768E+00
         -2   -1    0    0    0  501 -0.00000000000E+00  0.00000000000E+00  0.11062838825E+03  0.11062838828E+03  0.25500000000E-02 0.  1.
          2   -1    0    0  501    0  0.00000000000E+00 -0.00000000000E+00 -0.24720912963E+03  0.24720912964E+03  0.25500000000E-02 0. -1.
         25    2    1    2    0    0  0.12286224858E+03  0.10917928794E+02 -0.61542932597E+02  0.18608415420E+03  0.12500178637E+03 0.  0.
         23    2    1    2    0    0 -0.12286224858E+03 -0.10917928794E+02 -0.75037808787E+02  0.17175336372E+03  0.93028016782E+02 0.  0.
        -11    1    4    4    0    0 -0.33033003643E+02  0.39048705150E+02 -0.31888786734E+02  0.60273339240E+02  0.51100000000E-03 0. -1.
         11    1    4    4    0    0 -0.89829244940E+02 -0.49966633944E+02 -0.43149022054E+02  0.11148002448E+03  0.51100000000E-03 0.  1.
    9000005    1    3    3    0    0  0.78382987396E+02  0.19252126735E+02 -0.98712986661E+02  0.12751388486E+03  0.10000000000E+01 0.  0.
    9000005    1    3    3    0    0  0.44479261187E+02 -0.83341979406E+01  0.37170054064E+02  0.58570269337E+02  0.10000000000E+01 0.  0.
<mgrwt>
<rscale>  0 0.17007676E+03</rscale>
<asrwt>0</asrwt>
<pdfrwt beam="2">  1        2 0.38032174E-01 0.17561258E+03</pdfrwt>
<pdfrwt beam="1">  1       -2 0.17019752E-01 0.17561258E+03</pdfrwt>
<totfact> 0.36492459E+03</totfact>
</mgrwt>
</event>
<event>
 8    2  0.8128359E-004  0.1250891E+03  0.7818608E-02  0.1247368E+00
          2   -1    0    0  501    0  0.00000000000E+00  0.00000000000E+00  0.26326403246E+02  0.26326403369E+02  0.25500000000E-02 0. -1.
         -2   -1    0    0    0  501 -0.00000000000E+00 -0.00000000000E+00 -0.74051374601E+03  0.74051374602E+03  0.25500000000E-02 0.  1.
         25    2    1    2    0    0  0.34850622514E+01 -0.30916910791E+01 -0.61636421873E+03  0.62892936262E+03  0.12500235525E+03 0.  0.
         23    2    1    2    0    0 -0.34850622514E+01  0.30916910791E+01 -0.97823124036E+02  0.13791078677E+03  0.97099522647E+02 0.  0.
        -11    1    4    4    0    0  0.36322276188E+02  0.10240854067E+02 -0.88779886297E+02  0.96467875745E+02  0.51100000000E-03 0.  1.
         11    1    4    4    0    0 -0.39807338440E+02 -0.71491629881E+01 -0.90432377391E+01  0.41442911024E+02  0.51100000000E-03 0. -1.
    9000005    1    3    3    0    0  0.41580836716E+02  0.45399832376E+02 -0.36171361641E+03  0.36691668135E+03  0.10000000000E+01 0.  0.
    9000005    1    3    3    0    0 -0.38095774465E+02 -0.48491523455E+02 -0.25465060232E+03  0.26201268126E+03  0.10000000000E+01 0.  0.
<mgrwt>
<rscale>  0 0.11744751E+03</rscale>
<asrwt>0</asrwt>
<pdfrwt beam="1">  1        2 0.40502164E-02 0.12508914E+03</pdfrwt>
<pdfrwt beam="2">  1       -2 0.11392518E+00 0.12508914E+03</pdfrwt>
<totfact> 0.12618641E+03</totfact>
</mgrwt>
</event>
<event>
 8    2  0.8128359E-004  0.1344009E+03  0.7818608E-02  0.1233860E+00
         -2   -1    0    0    0  501 -0.00000000000E+00  0.00000000000E+00  0.12332247582E+02  0.12332247845E+02  0.25500000000E-02 0.  1.
          2   -1    0    0  501    0  0.00000000000E+00 -0.00000000000E+00 -0.13286967126E+04  0.13286967126E+04  0.25500000000E-02 0. -1.
         25    2    1    2    0    0 -0.20572947258E+02 -0.44892820411E+02 -0.48430397664E+03  0.50260715887E+03  0.12500001150E+03 0.  0.
         23    2    1    2    0    0  0.20572947258E+02  0.44892820411E+02 -0.83206048838E+03  0.83842180158E+03  0.90486736921E+02 0.  0.
        -11    1    4    4    0    0 -0.11997669251E+01  0.58312871870E+02 -0.29266207717E+03  0.29841736189E+03  0.51100000000E-03 0.  1.
         11    1    4    4    0    0  0.21772714183E+02 -0.13420051459E+02 -0.53939841122E+03  0.54000443969E+03  0.51100000000E-03 0. -1.
    9000005    1    3    3    0    0 -0.12951748060E+02 -0.31900171616E+02 -0.48617678133E+03  0.48739535434E+03  0.10000000000E+01 0.  0.
    9000005    1    3    3    0    0 -0.76211991982E+01 -0.12992648795E+02  0.18728046819E+01  0.15211804538E+02  0.10000000000E+01 0.  0.
<mgrwt>
<rscale>  0 0.12577674E+03</rscale>
<asrwt>0</asrwt>
<pdfrwt beam="2">  1        2 0.20441477E+00 0.13440095E+03</pdfrwt>
<pdfrwt beam="1">  1       -2 0.18972699E-02 0.13440095E+03</pdfrwt>
<totfact> 0.13657204E+04</totfact>
</mgrwt>
</event>
<event>
 8    2  0.8128359E-004  0.1418649E+03  0.7818608E-02  0.1221669E+00
          2   -1    0    0  501    0  0.00000000000E+00  0.00000000000E+00  0.29077831995E+03  0.29077831996E+03  0.25500000000E-02 0. -1.
         -2   -1    0    0    0  501 -0.00000000000E+00 -0.00000000000E+00 -0.58323537380E+02  0.58323537436E+02  0.25500000000E-02 0.  1.
         25    2    1    2    0    0  0.22960238268E+02 -0.63069956880E+02  0.16509615885E+03  0.21767495857E+03  0.12498261446E+03 0.  0.
         23    2    1    2    0    0 -0.22960238268E+02  0.63069956880E+02  0.67358623720E+02  0.13142689883E+03  0.90724051634E+02 0.  0.
        -11    1    4    4    0    0  0.22992345445E+02  0.35614766823E+02 -0.35971856809E+01  0.42544086663E+02  0.51100000000E-03 0.  1.
         11    1    4    4    0    0 -0.45952583713E+02  0.27455190056E+02  0.70955809401E+02  0.88882812168E+02  0.51100000000E-03 0. -1.
    9000005    1    3    3    0    0 -0.24112221804E+02  0.28829449573E+02  0.33124677904E+02  0.50107690919E+02  0.10000000000E+01 0.  0.
    9000005    1    3    3    0    0  0.47072460072E+02 -0.91899406453E+02  0.13197148095E+03  0.16756726765E+03  0.10000000000E+01 0.  0.
<mgrwt>
<rscale>  0 0.13397836E+03</rscale>
<asrwt>0</asrwt>
<pdfrwt beam="1">  1        2 0.44735125E-01 0.14186489E+03</pdfrwt>
<pdfrwt beam="2">  1       -2 0.89728521E-02 0.14186489E+03</pdfrwt>
<totfact> 0.84919516E+03</totfact>
</mgrwt>
</event>
<event>
 8    2  0.8128359E-004  0.1967777E+03  0.7818608E-02  0.1157333E+00
         -2   -1    0    0    0  501 -0.00000000000E+00  0.00000000000E+00  0.56410406866E+02  0.56410406923E+02  0.25500000000E-02 0.  1.
          2   -1    0    0  501    0  0.00000000000E+00 -0.00000000000E+00 -0.72601203177E+03  0.72601203177E+03  0.25500000000E-02 0. -1.
         25    2    1    2    0    0 -0.15128972503E+03  0.14425300853E+02 -0.19784210371E+03  0.27903934692E+03  0.12499915570E+03 0.  0.
         23    2    1    2    0    0  0.15128972503E+03 -0.14425300853E+02 -0.47175952120E+03  0.50338309177E+03  0.87981935868E+02 0.  0.
        -11    1    4    4    0    0  0.10620139517E+03  0.31556927321E+02 -0.28135357144E+03  0.30238122984E+03  0.51100000000E-03 0.  1.
         11    1    4    4    0    0  0.45088329866E+02 -0.45982228174E+02 -0.19040594975E+03  0.20100186193E+03  0.51100000000E-03 0. -1.
    9000005    1    3    3    0    0 -0.12558128766E+03  0.62808199629E+02 -0.15742633630E+03  0.21094923823E+03  0.10000000000E+01 0.  0.
    9000005    1    3    3    0    0 -0.25708437374E+02 -0.48382898776E+02 -0.40415767410E+02  0.68090108691E+02  0.10000000000E+01 0.  0.
<mgrwt>
<rscale>  0 0.19125675E+03</rscale>
<asrwt>0</asrwt>
<pdfrwt beam="2">  1        2 0.11169415E+00 0.19677769E+03</pdfrwt>
<pdfrwt beam="1">  1       -2 0.86785246E-02 0.19677769E+03</pdfrwt>
<totfact> 0.32977560E+03</totfact>
</mgrwt>
</event>
<event>
 8    2  0.8128359E-004  0.1413568E+03  0.7818608E-02  0.1222302E+00
         -2   -1    0    0    0  501 -0.00000000000E+00  0.00000000000E+00  0.29207872418E+03  0.29207872419E+03  0.25500000000E-02 0.  1.
          2   -1    0    0  501    0  0.00000000000E+00 -0.00000000000E+00 -0.57978368260E+02  0.57978368316E+02  0.25500000000E-02 0. -1.
         25    2    1    2    0    0 -0.63286632961E+02 -0.18746471330E+02  0.91542182297E+02  0.16840933852E+03  0.12500042425E+03 0.  0.
         23    2    1    2    0    0  0.63286632961E+02  0.18746471330E+02  0.14255817362E+03  0.18164775399E+03  0.91194547875E+02 0.  0.
        -11    1    4    4    0    0  0.72335966320E+02  0.12213150106E+02  0.15085098901E+03  0.16774288046E+03  0.51100000000E-03 0.  1.
         11    1    4    4    0    0 -0.90493333592E+01  0.65333212241E+01 -0.82928153873E+01  0.13904873526E+02  0.51100000000E-03 0. -1.
    9000005    1    3    3    0    0 -0.44457286726E+02 -0.66128738632E+02  0.85787247589E+02  0.11708933455E+03  0.10000000000E+01 0.  0.
    9000005    1    3    3    0    0 -0.18829346235E+02  0.47382267302E+02  0.57549347081E+01  0.51320003973E+02  0.10000000000E+01 0.  0.
<mgrwt>
<rscale>  0 0.13353579E+03</rscale>
<asrwt>0</asrwt>
<pdfrwt beam="2">  1        2 0.89197489E-02 0.14135676E+03</pdfrwt>
<pdfrwt beam="1">  1       -2 0.44935189E-01 0.14135676E+03</pdfrwt>
<totfact> 0.33740350E+03</totfact>
</mgrwt>
</event>
<event>
 8    2  0.8128359E-004  0.1292338E+03  0.7818608E-02  0.1242583E+00
         -2   -1    0    0    0  501 -0.00000000000E+00  0.00000000000E+00  0.10812598027E+03  0.10812598030E+03  0.25500000000E-02 0.  1.
          2   -1    0    0  501    0  0.00000000000E+00 -0.00000000000E+00 -0.12112646680E+03  0.12112646683E+03  0.25500000000E-02 0. -1.
         25    2    1    2    0    0 -0.13258986114E+01  0.32782242229E+02  0.95687163243E+01  0.12958754933E+03  0.12499975678E+03 0.  0.
         23    2    1    2    0    0  0.13258986114E+01 -0.32782242229E+02 -0.22569202851E+02  0.99664897799E+02  0.91363502140E+02 0.  0.
        -11    1    4    4    0    0 -0.42889783819E+02 -0.26136057220E+02 -0.22294794840E+02  0.54951659850E+02  0.51100000000E-03 0.  1.
         11    1    4    4    0    0  0.44215682430E+02 -0.66461850089E+01 -0.27440801062E+00  0.44713237950E+02  0.51100000000E-03 0. -1.
    9000005    1    3    3    0    0 -0.11699226703E+02 -0.36921705864E+02  0.37364675516E+02  0.53825674596E+02  0.10000000000E+01 0.  0.
    9000005    1    3    3    0    0  0.10373328092E+02  0.69703948093E+02 -0.27795959192E+02  0.75761874731E+02  0.10000000000E+01 0.  0.
<mgrwt>
<rscale>  0 0.12031226E+03</rscale>
<asrwt>0</asrwt>
<pdfrwt beam="2">  1        2 0.18634841E-01 0.12923379E+03</pdfrwt>
<pdfrwt beam="1">  1       -2 0.16634766E-01 0.12923379E+03</pdfrwt>
<totfact> 0.81614734E+03</totfact>
</mgrwt>
</event>
<event>
 8    2  0.8128359E-004  0.1668215E+03  0.7818608E-02  0.1187666E+00
          2   -1    0    0  501    0  0.00000000000E+00  0.00000000000E+00  0.11765365499E+04  0.11765365499E+04  0.25500000000E-02 0. -1.
         -2   -1    0    0    0  501 -0.00000000000E+00 -0.00000000000E+00 -0.20971427100E+02  0.20971427255E+02  0.25500000000E-02 0.  1.
         25    2    1    2    0    0  0.84246552136E+02  0.71453494549E+02  0.69967629189E+03  0.71928877114E+03  0.12500535762E+03 0.  0.
         23    2    1    2    0    0 -0.84246552136E+02 -0.71453494549E+02  0.45588883095E+03  0.47821920605E+03  0.93037086273E+02 0.  0.
        -11    1    4    4    0    0 -0.95205784997E+02 -0.84508691103E+02  0.39676290458E+03  0.41668532830E+03  0.51100000000E-03 0.  1.
         11    1    4    4    0    0  0.10959232861E+02  0.13055196553E+02  0.59125926374E+02  0.61533877757E+02  0.51100000000E-03 0. -1.
    9000005    1    3    3    0    0  0.44638558281E+02 -0.21732599308E+02  0.39768149852E+03  0.40076986042E+03  0.10000000000E+01 0.  0.
    9000005    1    3    3    0    0  0.39607993855E+02  0.93186093857E+02  0.30199479337E+03  0.31851891072E+03  0.10000000000E+01 0.  0.
<mgrwt>
<rscale>  0 0.16091655E+03</rscale>
<asrwt>0</asrwt>
<pdfrwt beam="1">  1        2 0.18100561E+00 0.16682153E+03</pdfrwt>
<pdfrwt beam="2">  1       -2 0.32263737E-02 0.16682153E+03</pdfrwt>
<totfact> 0.76822559E+03</totfact>
</mgrwt>
</event>
<event>
 8    2  0.8128359E-004  0.1662318E+03  0.7818608E-02  0.1188614E+00
          2   -1    0    0  501    0  0.00000000000E+00  0.00000000000E+00  0.74982441495E+02  0.74982441539E+02  0.25500000000E-02 0. -1.
         -2   -1    0    0    0  501 -0.00000000000E+00 -0.00000000000E+00 -0.33303315828E+03  0.33303315829E+03  0.25500000000E-02 0.  1.
         25    2    1    2    0    0  0.10567976624E+03  0.28978046218E+02 -0.96101924448E+02  0.19201193230E+03  0.12500024842E+03 0.  0.
         23    2    1    2    0    0 -0.10567976624E+03 -0.28978046218E+02 -0.16194879234E+03  0.21600366753E+03  0.91772724119E+02 0.  0.
        -11    1    4    4    0    0 -0.84286230274E+02  0.82906460107E+01 -0.14853881786E+03  0.17098737918E+03  0.51100000000E-03 0.  1.
         11    1    4    4    0    0 -0.21393535970E+02 -0.37268692228E+02 -0.13409974473E+02  0.45016288356E+02  0.51100000000E-03 0. -1.
    9000005    1    3    3    0    0  0.19079197186E+02 -0.20725314997E+02 -0.87336494444E+02  0.91772641396E+02  0.10000000000E+01 0.  0.
    9000005    1    3    3    0    0  0.86600569057E+02  0.49703361214E+02 -0.87654300039E+01  0.10023929090E+03  0.10000000000E+01 0.  0.
<mgrwt>
<rscale>  0 0.16007353E+03</rscale>
<asrwt>0</asrwt>
<pdfrwt beam="1">  1        2 0.11535760E-01 0.16623177E+03</pdfrwt>
<pdfrwt beam="2">  1       -2 0.51235869E-01 0.16623177E+03</pdfrwt>
<totfact> 0.19170915E+03</totfact>
</mgrwt>
</event>
<event>
 8    2  0.8128359E-004  0.1286856E+03  0.7818608E-02  0.1244199E+00
         -2   -1    0    0    0  501 -0.00000000000E+00  0.00000000000E+00  0.73911679540E+02  0.73911679584E+02  0.25500000000E-02 0.  1.
          2   -1    0    0  501    0  0.00000000000E+00 -0.00000000000E+00 -0.18007133513E+03  0.18007133514E+03  0.25500000000E-02 0. -1.
         25    2    1    2    0    0  0.22118176101E+02  0.21106930373E+02 -0.91019600401E+02  0.15762152700E+03  0.12500104756E+03 0.  0.
         23    2    1    2    0    0 -0.22118176101E+02 -0.21106930373E+02 -0.15140055185E+02  0.96361487730E+02  0.90119913575E+02 0.  0.
        -11    1    4    4    0    0 -0.20537067141E+02 -0.53493105685E+02  0.60626667229E+01  0.57619783154E+02  0.51100000000E-03 0.  1.
         11    1    4    4    0    0 -0.15811089598E+01  0.32386175313E+02 -0.21202721908E+02  0.38741704576E+02  0.51100000000E-03 0. -1.
    9000005    1    3    3    0    0 -0.13210795066E+02 -0.44196803451E+01  0.27769925051E+02  0.31084198847E+02  0.10000000000E+01 0.  0.
    9000005    1    3    3    0    0  0.35328971167E+02  0.25526610718E+02 -0.11878952545E+03  0.12653732815E+03  0.10000000000E+01 0.  0.
<mgrwt>
<rscale>  0 0.11933459E+03</rscale>
<asrwt>0</asrwt>
<pdfrwt beam="2">  1        2 0.27703282E-01 0.12868558E+03</pdfrwt>
<pdfrwt beam="1">  1       -2 0.11371028E-01 0.12868558E+03</pdfrwt>
<totfact> 0.97087475E+03</totfact>
</mgrwt>
</event>
<event>
 8    2  0.8128359E-004  0.1255799E+03  0.7818608E-02  0.1249921E+00
          2   -1    0    0  501    0  0.00000000000E+00  0.00000000000E+00  0.12686337923E+04  0.12686337923E+04  0.25500000000E-02 0.  1.
         -2   -1    0    0    0  501 -0.00000000000E+00 -0.00000000000E+00 -0.11171444189E+02  0.11171444480E+02  0.25500000000E-02 0. -1.
         25    2    1    2    0    0 -0.44141279462E+01  0.11183361134E+02  0.97257286665E+03  0.98064687413E+03  0.12500303480E+03 0.  0.
         23    2    1    2    0    0  0.44141279462E+01 -0.11183361134E+02  0.28488948148E+03  0.29915836267E+03  0.90493962256E+02 0.  0.
        -11    1    4    4    0    0  0.31151423481E+01 -0.22012054163E+02  0.10559621223E+02  0.24611790690E+02  0.51100000000E-03 0. -1.
         11    1    4    4    0    0  0.12989855981E+01  0.10828693030E+02  0.27432986026E+03  0.27454657198E+03  0.51100000000E-03 0.  1.
    9000005    1    3    3    0    0  0.26248571911E+02 -0.39268880015E+02  0.70755711660E+03  0.70913264325E+03  0.10000000000E+01 0.  0.
    9000005    1    3    3    0    0 -0.30662699858E+02  0.50452241148E+02  0.26501575004E+03  0.27151423088E+03  0.10000000000E+01 0.  0.
<mgrwt>
<rscale>  0 0.11595644E+03</rscale>
<asrwt>0</asrwt>
<pdfrwt beam="1">  1        2 0.19517432E+00 0.12557990E+03</pdfrwt>
<pdfrwt beam="2">  1       -2 0.17186847E-02 0.12557990E+03</pdfrwt>
<totfact> 0.16905875E+04</totfact>
</mgrwt>
</event>
<event>
 8    2  0.8128359E-004  0.1263787E+03  0.7818608E-02  0.1262412E+00
          2   -1    0    0  501    0  0.00000000000E+00  0.00000000000E+00  0.48975942288E+03  0.48975942289E+03  0.25500000000E-02 0. -1.
         -2   -1    0    0    0  501 -0.00000000000E+00 -0.00000000000E+00 -0.29103097721E+02  0.29103097832E+02  0.25500000000E-02 0.  1.
         25    2    1    2    0    0 -0.13661302028E+02  0.12673414586E+02  0.41853369918E+03  0.43719793409E+03  0.12499731844E+03 0.  0.
         23    2    1    2    0    0  0.13661302028E+02 -0.12673414586E+02  0.42122625983E+02  0.81664586626E+02  0.67435468996E+02 0.  0.
        -11    1    4    4    0    0  0.15074037625E+02  0.16320750015E+02 -0.81072365293E+01  0.23649963547E+02  0.51100000000E-03 0.  1.
         11    1    4    4    0    0 -0.14127355973E+01 -0.28994164601E+02  0.50229862512E+02  0.58014623079E+02  0.51100000000E-03 0. -1.
    9000005    1    3    3    0    0 -0.40651994839E+02 -0.21422397836E+02  0.57778701556E+02  0.73830089848E+02  0.10000000000E+01 0.  0.
    9000005    1    3    3    0    0  0.26990692812E+02  0.34095812421E+02  0.36075499762E+03  0.36336784424E+03  0.10000000000E+01 0.  0.
<mgrwt>
<rscale>  0 0.10901146E+03</rscale>
<asrwt>0</asrwt>
<pdfrwt beam="1">  1        2 0.75347600E-01 0.12637870E+03</pdfrwt>
<pdfrwt beam="2">  1       -2 0.44773999E-02 0.12637870E+03</pdfrwt>
<totfact> 0.13893253E+04</totfact>
</mgrwt>
</event>
<event>
 8    2  0.8128359E-004  0.2282977E+03  0.7818608E-02  0.1130828E+00
          2   -1    0    0  501    0  0.00000000000E+00  0.00000000000E+00  0.86640955846E+03  0.86640955847E+03  0.25500000000E-02 0. -1.
         -2   -1    0    0    0  501 -0.00000000000E+00 -0.00000000000E+00 -0.59426709948E+02  0.59426710003E+02  0.25500000000E-02 0.  1.
         25    2    1    2    0    0 -0.15490125697E+03 -0.11180623573E+03  0.52892767657E+03  0.57609404446E+03  0.12499930907E+03 0.  0.
         23    2    1    2    0    0  0.15490125697E+03  0.11180623573E+03  0.27805517195E+03  0.34974222401E+03  0.92249178041E+02 0.  0.
        -11    1    4    4    0    0  0.48689375555E+02  0.40376080374E+02  0.28709846922E+02  0.69463216661E+02  0.51100000000E-03 0.  1.
         11    1    4    4    0    0  0.10621188141E+03  0.71430155354E+02  0.24934532502E+03  0.28027900735E+03  0.51100000000E-03 0. -1.
    9000005    1    3    3    0    0 -0.17188111539E+03 -0.11771826072E+03  0.46224686698E+03  0.50702452876E+03  0.10000000000E+01 0.  0.
    9000005    1    3    3    0    0  0.16979858425E+02  0.59120249889E+01  0.66680809592E+02  0.69069515703E+02  0.10000000000E+01 0.  0.
<mgrwt>
<rscale>  0 0.22414742E+03</rscale>
<asrwt>0</asrwt>
<pdfrwt beam="1">  1        2 0.13329377E+00 0.22829775E+03</pdfrwt>
<pdfrwt beam="2">  1       -2 0.91425714E-02 0.22829775E+03</pdfrwt>
<totfact> 0.24378041E+03</totfact>
</mgrwt>
</event>
<event>
 8    2  0.8128359E-004  0.1646499E+03  0.7818608E-02  0.1190365E+00
          2   -1    0    0  501    0  0.00000000000E+00  0.00000000000E+00  0.14462739722E+04  0.14462739722E+04  0.25500000000E-02 0. -1.
         -2   -1    0    0    0  501 -0.00000000000E+00 -0.00000000000E+00 -0.16916534987E+02  0.16916535179E+02  0.25500000000E-02 0.  1.
         25    2    1    2    0    0  0.55439582832E+02  0.91715047829E+02  0.91635798209E+03  0.93103251055E+03  0.12499754811E+03 0.  0.
         23    2    1    2    0    0 -0.55439582832E+02 -0.91715047829E+02  0.51299945514E+03  0.53215799684E+03  0.92403978718E+02 0.  0.
        -11    1    4    4    0    0 -0.74187595283E+02 -0.74889947688E+02  0.47507352288E+03  0.48662835481E+03  0.51100000000E-03 0. -1.
         11    1    4    4    0    0  0.18748012451E+02 -0.16825100141E+02  0.37925932256E+02  0.45529642030E+02  0.51100000000E-03 0.  1.
    9000005    1    3    3    0    0  0.88587985035E+02  0.84427945928E+02  0.81503174865E+03  0.82416846606E+03  0.10000000000E+01 0.  0.
    9000005    1    3    3    0    0 -0.33148402202E+02  0.72871019015E+01  0.10132623344E+03  0.10686404449E+03  0.10000000000E+01 0.  0.
<mgrwt>
<rscale>  0 0.15853096E+03</rscale>
<asrwt>0</asrwt>
<pdfrwt beam="1">  1        2 0.22250376E+00 0.16464988E+03</pdfrwt>
<pdfrwt beam="2">  1       -2 0.26025430E-02 0.16464988E+03</pdfrwt>
<totfact> 0.75217269E+03</totfact>
</mgrwt>
</event>
<event>
 8    2  0.8128359E-004  0.1265368E+03  0.7818608E-02  0.1244423E+00
          2   -1    0    0  501    0  0.00000000000E+00  0.00000000000E+00  0.10787013400E+03  0.10787013403E+03  0.25500000000E-02 0. -1.
         -2   -1    0    0    0  501 -0.00000000000E+00 -0.00000000000E+00 -0.11890590811E+03  0.11890590814E+03  0.25500000000E-02 0.  1.
         25    2    1    2    0    0 -0.56808228446E+01 -0.18839690131E+02 -0.12220851257E+02  0.12712559470E+03  0.12499744777E+03 0.  0.
         23    2    1    2    0    0  0.56808228446E+01  0.18839690131E+02  0.11850771434E+01  0.99650447464E+02  0.97681122022E+02 0.  0.
        -11    1    4    4    0    0 -0.13036488471E+02 -0.16164341688E+02 -0.38359722645E+02  0.43619998803E+02  0.51100000000E-03 0.  1.
         11    1    4    4    0    0  0.18717311316E+02  0.35004031820E+02  0.39544799789E+02  0.56030448661E+02  0.51100000000E-03 0. -1.
    9000005    1    3    3    0    0  0.36275002462E+02  0.38796629133E+02  0.62107663745E+01  0.53484837615E+02  0.10000000000E+01 0.  0.
    9000005    1    3    3    0    0 -0.41955825307E+02 -0.57636319264E+02 -0.18431617631E+02  0.73640757085E+02  0.10000000000E+01 0.  0.
<mgrwt>
<rscale>  0 0.11919961E+03</rscale>
<asrwt>0</asrwt>
<pdfrwt beam="1">  1        2 0.16595405E-01 0.12653682E+03</pdfrwt>
<pdfrwt beam="2">  1       -2 0.18293217E-01 0.12653682E+03</pdfrwt>
<totfact> 0.79476995E+03</totfact>
</mgrwt>
</event>
<event>
 8    2  0.8128359E-004  0.1399850E+03  0.7818608E-02  0.1223043E+00
          2   -1    0    0  501    0  0.00000000000E+00  0.00000000000E+00  0.16615472325E+03  0.16615472327E+03  0.25500000000E-02 0.  1.
         -2   -1    0    0    0  501 -0.00000000000E+00 -0.00000000000E+00 -0.10365721023E+03  0.10365721026E+03  0.25500000000E-02 0. -1.
         25    2    1    2    0    0  0.23992250596E+02 -0.58269328641E+02  0.62503787278E+00  0.13998640611E+03  0.12499944189E+03 0.  0.
         23    2    1    2    0    0 -0.23992250596E+02  0.58269328641E+02  0.61872475145E+02  0.12982552742E+03  0.95160504627E+02 0.  0.
        -11    1    4    4    0    0 -0.52533816023E+02  0.20085361125E+02  0.59822335186E+02  0.82109289028E+02  0.51100000000E-03 0.  1.
         11    1    4    4    0    0  0.28541565427E+02  0.38183967517E+02  0.20501399592E+01  0.47716238394E+02  0.51100000000E-03 0. -1.
    9000005    1    3    3    0    0  0.72035157393E+02 -0.13942434282E+02 -0.89142060944E+01  0.73918322794E+02  0.10000000000E+01 0.  0.
    9000005    1    3    3    0    0 -0.48042906797E+02 -0.44326894360E+02  0.95392439672E+01  0.66068083312E+02  0.10000000000E+01 0.  0.
<mgrwt>
<rscale>  0 0.13301924E+03</rscale>
<asrwt>0</asrwt>
<pdfrwt beam="1">  1        2 0.25562265E-01 0.13998501E+03</pdfrwt>
<pdfrwt beam="2">  1       -2 0.15947263E-01 0.13998501E+03</pdfrwt>
<totfact> 0.61775567E+03</totfact>
</mgrwt>
</event>
<event>
 8    2  0.8128359E-004  0.1338902E+03  0.7818608E-02  0.1233038E+00
          2   -1    0    0  501    0  0.00000000000E+00  0.00000000000E+00  0.46300396087E+03  0.46300396087E+03  0.25500000000E-02 0. -1.
         -2   -1    0    0    0  501 -0.00000000000E+00 -0.00000000000E+00 -0.32568435397E+02  0.32568435497E+02  0.25500000000E-02 0.  1.
         25    2    1    2    0    0  0.31133171550E+02  0.36498829172E+02  0.18650489847E+03  0.22958800327E+03  0.12500054076E+03 0.  0.
         23    2    1    2    0    0 -0.31133171550E+02 -0.36498829172E+02  0.24393062700E+03  0.26598439310E+03  0.94573292654E+02 0.  0.
        -11    1    4    4    0    0 -0.40219774410E+02 -0.40830008578E+02  0.24843235946E+03  0.25495755937E+03  0.51100000000E-03 0. -1.
         11    1    4    4    0    0  0.90866028607E+01  0.43311794061E+01 -0.45017324630E+01  0.11026833726E+02  0.51100000000E-03 0.  1.
    9000005    1    3    3    0    0  0.13403827180E+02  0.97328570561E+01  0.19552242772E+03  0.19622540822E+03  0.10000000000E+01 0.  0.
    9000005    1    3    3    0    0  0.17729344369E+02  0.26765972116E+02 -0.90175292451E+01  0.33362595054E+02  0.10000000000E+01 0.  0.
<mgrwt>
<rscale>  0 0.12630893E+03</rscale>
<asrwt>0</asrwt>
<pdfrwt beam="1">  1        2 0.71231376E-01 0.13389016E+03</pdfrwt>
<pdfrwt beam="2">  1       -2 0.50105287E-02 0.13389016E+03</pdfrwt>
<totfact> 0.12538157E+04</totfact>
</mgrwt>
</event>
<event>
 8    2  0.8128359E-004  0.1532662E+03  0.7818608E-02  0.1205118E+00
         -2   -1    0    0    0  501 -0.00000000000E+00  0.00000000000E+00  0.98318965157E+02  0.98318965190E+02  0.25500000000E-02 0. -1.
          2   -1    0    0  501    0  0.00000000000E+00 -0.00000000000E+00 -0.26359971398E+03  0.26359971399E+03  0.25500000000E-02 0.  1.
         25    2    1    2    0    0  0.10870309313E+02  0.88019824793E+02  0.13163896156E+00  0.15326627122E+03  0.12499951753E+03 0.  0.
         23    2    1    2    0    0 -0.10870309313E+02 -0.88019824793E+02 -0.16541238779E+03  0.20865240796E+03  0.91153256303E+02 0.  0.
        -11    1    4    4    0    0 -0.14539303550E+02 -0.69936965186E+02 -0.17415451171E+03  0.18823486499E+03  0.51100000000E-03 0.  1.
         11    1    4    4    0    0  0.36689942362E+01 -0.18082859607E+02  0.87421239237E+01  0.20417542977E+02  0.51100000000E-03 0. -1.
    9000005    1    3    3    0    0 -0.50704683318E+01  0.98592469614E+02 -0.41765249921E+02  0.10719851125E+03  0.10000000000E+01 0.  0.
    9000005    1    3    3    0    0  0.15940777645E+02 -0.10572644821E+02  0.41896888883E+02  0.46067759968E+02  0.10000000000E+01 0.  0.
<mgrwt>
<rscale>  0 0.14628133E+03</rscale>
<asrwt>0</asrwt>
<pdfrwt beam="2">  1        2 0.40553802E-01 0.15326621E+03</pdfrwt>
<pdfrwt beam="1">  1       -2 0.15125995E-01 0.15326621E+03</pdfrwt>
<totfact> 0.41131782E+03</totfact>
</mgrwt>
</event>
<event>
 8    2  0.8128359E-004  0.1372557E+03  0.7818608E-02  0.1229686E+00
          2   -1    0    0  501    0  0.00000000000E+00  0.00000000000E+00  0.36763800517E+03  0.36763800518E+03  0.25500000000E-02 0. -1.
         -2   -1    0    0    0  501 -0.00000000000E+00 -0.00000000000E+00 -0.12738639550E+03  0.12738639553E+03  0.25500000000E-02 0.  1.
         25    2    1    2    0    0  0.32255030840E+02  0.46631677813E+02 -0.79299666886E+02  0.15851675051E+03  0.12499689050E+03 0.  0.
         23    2    1    2    0    0 -0.32255030840E+02 -0.46631677813E+02  0.31955127655E+03  0.33650765019E+03  0.88935256798E+02 0.  0.
        -11    1    4    4    0    0  0.11721071119E+02  0.20791996423E+02  0.54383374117E+02  0.59390588514E+02  0.51100000000E-03 0.  1.
         11    1    4    4    0    0 -0.43976101959E+02 -0.67423674236E+02  0.26516790244E+03  0.27711706168E+03  0.51100000000E-03 0. -1.
    9000005    1    3    3    0    0 -0.13511771544E+02  0.35817414888E+02  0.23873814528E+02  0.45126646226E+02  0.10000000000E+01 0.  0.
    9000005    1    3    3    0    0  0.45766802383E+02  0.10814262925E+02 -0.10317348141E+03  0.11339010429E+03  0.10000000000E+01 0.  0.
<mgrwt>
<rscale>  0 0.12850861E+03</rscale>
<asrwt>0</asrwt>
<pdfrwt beam="1">  1        2 0.56559693E-01 0.13725568E+03</pdfrwt>
<pdfrwt beam="2">  1       -2 0.19597907E-01 0.13725568E+03</pdfrwt>
<totfact> 0.18686659E+03</totfact>
</mgrwt>
</event>
<event>
 8    2  0.8128359E-004  0.4408635E+03  0.7818608E-02  0.1031126E+00
          2   -1    0    0  501    0  0.00000000000E+00  0.00000000000E+00  0.31320759340E+03  0.31320759341E+03  0.25500000000E-02 0. -1.
         -2   -1    0    0    0  501 -0.00000000000E+00 -0.00000000000E+00 -0.60952075732E+03  0.60952075732E+03  0.25500000000E-02 0.  1.
         25    2    1    2    0    0 -0.41580976440E+03  0.76403036786E+02 -0.13459353829E+03  0.46095128805E+03  0.12500194082E+03 0.  0.
         23    2    1    2    0    0  0.41580976440E+03 -0.76403036786E+02 -0.16171962562E+03  0.46177706268E+03  0.91376332329E+02 0.  0.
        -11    1    4    4    0    0  0.19776281546E+03 -0.80383454755E+02 -0.64510129970E+02  0.22300938959E+03  0.51100000000E-03 0.  1.
         11    1    4    4    0    0  0.21804694894E+03  0.39804179693E+01 -0.97209495647E+02  0.23876767309E+03  0.51100000000E-03 0. -1.
    9000005    1    3    3    0    0 -0.19245774027E+03 -0.17948351591E+02 -0.25130476405E+02  0.19492220489E+03  0.10000000000E+01 0.  0.
    9000005    1    3    3    0    0 -0.22335202413E+03  0.94351388377E+02 -0.10946306189E+03  0.26602908316E+03  0.10000000000E+01 0.  0.
<mgrwt>
<rscale>  0 0.43876600E+03</rscale>
<asrwt>0</asrwt>
<pdfrwt beam="1">  1        2 0.48185784E-01 0.44086355E+03</pdfrwt>
<pdfrwt beam="2">  1       -2 0.93772424E-01 0.44086355E+03</pdfrwt>
<totfact> 0.10326923E+02</totfact>
</mgrwt>
</event>
<event>
 8    2  0.8128359E-004  0.1560318E+03  0.7818608E-02  0.1201720E+00
          2   -1    0    0  501    0  0.00000000000E+00  0.00000000000E+00  0.25066402085E+04  0.25066402085E+04  0.25500000000E-02 0. -1.
         -2   -1    0    0    0  501 -0.00000000000E+00 -0.00000000000E+00 -0.82145828312E+01  0.82145832270E+01  0.25500000000E-02 0.  1.
         25    2    1    2    0    0 -0.76133923092E+02 -0.54078550600E+02  0.14797847959E+04  0.14879882237E+04  0.12500019174E+03 0.  0.
         23    2    1    2    0    0  0.76133923092E+02  0.54078550600E+02  0.10186408297E+04  0.10268665680E+04  0.90027465237E+02 0.  0.
        -11    1    4    4    0    0  0.15161794075E+02  0.11067284942E+02  0.67307823993E+03  0.67333994525E+03  0.51100000000E-03 0. -1.
         11    1    4    4    0    0  0.60972129018E+02  0.43011265658E+02  0.34556258981E+03  0.35352662271E+03  0.51100000000E-03 0.  1.
    9000005    1    3    3    0    0 -0.54168402936E+01  0.29864848292E+02  0.68341941661E+03  0.68409381690E+03  0.10000000000E+01 0.  0.
    9000005    1    3    3    0    0 -0.70717082799E+02 -0.83943398892E+02  0.79636537928E+03  0.80389440683E+03  0.10000000000E+01 0.  0.
<mgrwt>
<rscale>  0 0.14898988E+03</rscale>
<asrwt>0</asrwt>
<pdfrwt beam="1">  1        2 0.38563677E+00 0.15603177E+03</pdfrwt>
<pdfrwt beam="2">  1       -2 0.12637826E-02 0.15603177E+03</pdfrwt>
<totfact> 0.60228174E+03</totfact>
</mgrwt>
</event>
<event>
 8    2  0.8128359E-004  0.1608771E+03  0.7818608E-02  0.1194873E+00
         -2   -1    0    0    0  501 -0.00000000000E+00  0.00000000000E+00  0.12726040736E+02  0.12726040992E+02  0.25500000000E-02 0.  1.
          2   -1    0    0  501    0  0.00000000000E+00 -0.00000000000E+00 -0.27799165902E+04  0.27799165902E+04  0.25500000000E-02 0. -1.
         25    2    1    2    0    0  0.24421952497E+02 -0.98285711479E+02 -0.60285330238E+03  0.62394996158E+03  0.12499975008E+03 0.  0.
         23    2    1    2    0    0 -0.24421952497E+02  0.98285711479E+02 -0.21643372471E+04  0.21686926696E+04  0.92820597259E+02 0.  0.
        -11    1    4    4    0    0  0.18459793333E+02  0.86908044656E+02 -0.16726155324E+04  0.16749735793E+04  0.51100000000E-03 0.  1.
         11    1    4    4    0    0 -0.42881745829E+02  0.11377666824E+02 -0.49172171470E+03  0.49371909031E+03  0.51100000000E-03 0. -1.
    9000005    1    3    3    0    0 -0.44377798682E+02 -0.74961654611E+02 -0.29197519073E+03  0.30469517666E+03  0.10000000000E+01 0.  0.
    9000005    1    3    3    0    0  0.68799751179E+02 -0.23324056869E+02 -0.31087811166E+03  0.31925478493E+03  0.10000000000E+01 0.  0.
<mgrwt>
<rscale>  0 0.15464948E+03</rscale>
<asrwt>0</asrwt>
<pdfrwt beam="2">  1        2 0.42767899E+00 0.16087713E+03</pdfrwt>
<pdfrwt beam="1">  1       -2 0.19578547E-02 0.16087713E+03</pdfrwt>
<totfact> 0.22616090E+03</totfact>
</mgrwt>
</event>
<event>
 8    2  0.8128359E-004  0.1390279E+03  0.7818608E-02  0.1226561E+00
         -2   -1    0    0    0  501 -0.00000000000E+00  0.00000000000E+00  0.46861043965E+02  0.46861044034E+02  0.25500000000E-02 0.  1.
          2   -1    0    0  501    0  0.00000000000E+00 -0.00000000000E+00 -0.34338775013E+03  0.34338775014E+03  0.25500000000E-02 0. -1.
         25    2    1    2    0    0 -0.48702414707E+02  0.36491340183E+02 -0.20901682636E+03  0.25103144488E+03  0.12500083804E+03 0.  0.
         23    2    1    2    0    0  0.48702414707E+02 -0.36491340183E+02 -0.87509879803E+02  0.13921734929E+03  0.89554163355E+02 0.  0.
        -11    1    4    4    0    0  0.48207517892E+02 -0.10348397198E+02 -0.99044601159E+02  0.11063854267E+03  0.51100000000E-03 0. -1.
         11    1    4    4    0    0  0.49489681448E+00 -0.26142942985E+02  0.11534721356E+02  0.28578806620E+02  0.51100000000E-03 0.  1.
    9000005    1    3    3    0    0 -0.64511903513E+02 -0.18061631148E+02 -0.54382039552E+02  0.86292609420E+02  0.10000000000E+01 0.  0.
    9000005    1    3    3    0    0  0.15809488807E+02  0.54552971331E+02 -0.15463478681E+03  0.16473883546E+03  0.10000000000E+01 0.  0.
<mgrwt>
<rscale>  0 0.13060462E+03</rscale>
<asrwt>0</asrwt>
<pdfrwt beam="2">  1        2 0.52828883E-01 0.13902788E+03</pdfrwt>
<pdfrwt beam="1">  1       -2 0.72093916E-02 0.13902788E+03</pdfrwt>
<totfact> 0.99700940E+03</totfact>
</mgrwt>
</event>
<event>
 8    2  0.8128359E-004  0.1320249E+03  0.7818608E-02  0.1237664E+00
         -2   -1    0    0    0  501 -0.00000000000E+00  0.00000000000E+00  0.49773665112E+02  0.49773665178E+02  0.25500000000E-02 0.  1.
          2   -1    0    0  501    0  0.00000000000E+00 -0.00000000000E+00 -0.37477314489E+03  0.37477314490E+03  0.25500000000E-02 0. -1.
         25    2    1    2    0    0  0.37156134295E+02  0.20575008631E+02 -0.28893099197E+03  0.31766599091E+03  0.12500661728E+03 0.  0.
         23    2    1    2    0    0 -0.37156134295E+02 -0.20575008631E+02 -0.36068487807E+02  0.10688081917E+03  0.91206712455E+02 0.  0.
        -11    1    4    4    0    0 -0.27090530347E+02  0.10177616970E+02 -0.60013499613E+02  0.66626577713E+02  0.51100000000E-03 0. -1.
         11    1    4    4    0    0 -0.10065603948E+02 -0.30752625601E+02  0.23945011807E+02  0.40254241452E+02  0.51100000000E-03 0.  1.
    9000005    1    3    3    0    0 -0.46138852755E+02  0.12009106579E+02 -0.11971963849E+03  0.12886739003E+03  0.10000000000E+01 0.  0.
    9000005    1    3    3    0    0  0.83294987050E+02  0.85659020512E+01 -0.16921135348E+03  0.18879860087E+03  0.10000000000E+01 0.  0.
<mgrwt>
<rscale>  0 0.12335398E+03</rscale>
<asrwt>0</asrwt>
<pdfrwt beam="2">  1        2 0.57657405E-01 0.13202486E+03</pdfrwt>
<pdfrwt beam="1">  1       -2 0.76574872E-02 0.13202486E+03</pdfrwt>
<totfact> 0.82511263E+03</totfact>
</mgrwt>
</event>
<event>
 8    2  0.8128359E-004  0.1391073E+03  0.7818608E-02  0.1226068E+00
         -2   -1    0    0    0  501 -0.00000000000E+00  0.00000000000E+00  0.34049601176E+02  0.34049601272E+02  0.25500000000E-02 0.  1.
          2   -1    0    0  501    0  0.00000000000E+00 -0.00000000000E+00 -0.46512394626E+03  0.46512394627E+03  0.25500000000E-02 0. -1.
         25    2    1    2    0    0 -0.49864476666E+02  0.35196467300E+02 -0.20031029783E+03  0.24387506148E+03  0.12500229137E+03 0.  0.
         23    2    1    2    0    0  0.49864476666E+02 -0.35196467300E+02 -0.23076404725E+03  0.25529848606E+03  0.90553929455E+02 0.  0.
        -11    1    4    4    0    0  0.58086961911E+02 -0.17815185266E+02 -0.67144799545E+02  0.90553299643E+02  0.51100000000E-03 0.  1.
         11    1    4    4    0    0 -0.82224852451E+01 -0.17381282033E+02 -0.16361924771E+03  0.16474518642E+03  0.51100000000E-03 0. -1.
    9000005    1    3    3    0    0 -0.57931629892E+02 -0.27345710143E+02 -0.15029735055E+03  0.16338346057E+03  0.10000000000E+01 0.  0.
    9000005    1    3    3    0    0  0.80671532261E+01  0.62542177443E+02 -0.50012947284E+02  0.80491600907E+02  0.10000000000E+01 0.  0.
<mgrwt>
<rscale>  0 0.13093956E+03</rscale>
<asrwt>0</asrwt>
<pdfrwt beam="2">  1        2 0.71557525E-01 0.13910726E+03</pdfrwt>
<pdfrwt beam="1">  1       -2 0.52384005E-02 0.13910726E+03</pdfrwt>
<totfact> 0.11701914E+04</totfact>
</mgrwt>
</event>
<event>
 8    2  0.8128359E-004  0.1607521E+03  0.7818608E-02  0.1195487E+00
         -2   -1    0    0    0  501 -0.00000000000E+00  0.00000000000E+00  0.62102865158E+02  0.62102865210E+02  0.25500000000E-02 0.  1.
          2   -1    0    0  501    0  0.00000000000E+00 -0.00000000000E+00 -0.52011847643E+03  0.52011847644E+03  0.25500000000E-02 0. -1.
         25    2    1    2    0    0  0.41791302165E+02 -0.92031579279E+02 -0.78051630030E+02  0.17869891769E+03  0.12499968684E+03 0.  0.
         23    2    1    2    0    0 -0.41791302165E+02  0.92031579279E+02 -0.37996398124E+03  0.40352242396E+03  0.90782129720E+02 0.  0.
        -11    1    4    4    0    0 -0.37941642745E+02  0.55191186569E+02 -0.34863284447E+03  0.35500774016E+03  0.51100000000E-03 0. -1.
         11    1    4    4    0    0 -0.38496594204E+01  0.36840392711E+02 -0.31331136772E+02  0.48514683802E+02  0.51100000000E-03 0.  1.
    9000005    1    3    3    0    0 -0.23086003256E+02 -0.69871839370E+02  0.15874483107E+01  0.73610851615E+02  0.10000000000E+01 0.  0.
    9000005    1    3    3    0    0  0.64877305422E+02 -0.22159739909E+02 -0.79639078341E+02  0.10508806607E+03  0.10000000000E+01 0.  0.
<mgrwt>
<rscale>  0 0.15413093E+03</rscale>
<asrwt>0</asrwt>
<pdfrwt beam="2">  1        2 0.80018224E-01 0.16075213E+03</pdfrwt>
<pdfrwt beam="1">  1       -2 0.95542873E-02 0.16075213E+03</pdfrwt>
<totfact> 0.41452497E+03</totfact>
</mgrwt>
</event>
<event>
 8    2  0.8128359E-004  0.1313674E+03  0.7818608E-02  0.1238948E+00
          2   -1    0    0  501    0  0.00000000000E+00  0.00000000000E+00  0.27801320502E+02  0.27801320619E+02  0.25500000000E-02 0. -1.
         -2   -1    0    0    0  501 -0.00000000000E+00 -0.00000000000E+00 -0.47932770906E+03  0.47932770907E+03  0.25500000000E-02 0.  1.
         25    2    1    2    0    0 -0.40139987494E+02 -0.45546145656E+01 -0.25406556102E+03  0.28601872626E+03  0.12500175746E+03 0.  0.
         23    2    1    2    0    0  0.40139987494E+02  0.45546145656E+01 -0.19746082754E+03  0.22111030343E+03  0.90923180532E+02 0.  0.
        -11    1    4    4    0    0 -0.24757723680E+02 -0.14982994842E+02 -0.85163154495E+02  0.89945527404E+02  0.51100000000E-03 0. -1.
         11    1    4    4    0    0  0.64897711174E+02  0.19537609407E+02 -0.11229767305E+03  0.13116477602E+03  0.51100000000E-03 0.  1.
    9000005    1    3    3    0    0 -0.75814433505E+02 -0.23309395671E+02 -0.10498374022E+03  0.13158169312E+03  0.10000000000E+01 0.  0.
    9000005    1    3    3    0    0  0.35674446012E+02  0.18754781105E+02 -0.14908182080E+03  0.15443703314E+03  0.10000000000E+01 0.  0.
<mgrwt>
<rscale>  0 0.12255037E+03</rscale>
<asrwt>0</asrwt>
<pdfrwt beam="1">  1        2 0.42771266E-02 0.13136743E+03</pdfrwt>
<pdfrwt beam="2">  1       -2 0.73742718E-01 0.13136743E+03</pdfrwt>
<totfact> 0.31417466E+03</totfact>
</mgrwt>
</event>
<event>
 8    2  0.8128359E-004  0.1305010E+03  0.7818608E-02  0.1240272E+00
          2   -1    0    0  501    0  0.00000000000E+00  0.00000000000E+00  0.40608863713E+02  0.40608863793E+02  0.25500000000E-02 0. -1.
         -2   -1    0    0    0  501 -0.00000000000E+00 -0.00000000000E+00 -0.35885835017E+03  0.35885835018E+03  0.25500000000E-02 0.  1.
         25    2    1    2    0    0  0.37092652269E+02  0.54255070455E+01 -0.11697237867E+03  0.17525134920E+03  0.12500078817E+03 0.  0.
         23    2    1    2    0    0 -0.37092652269E+02 -0.54255070455E+01 -0.20127710778E+03  0.22421586477E+03  0.91405573792E+02 0.  0.
        -11    1    4    4    0    0 -0.12206006081E+02 -0.53304764920E+01  0.65927628634E+01  0.14861530423E+02  0.51100000000E-03 0. -1.
         11    1    4    4    0    0 -0.24886646188E+02 -0.95030553476E-01 -0.20786987064E+03  0.20935433435E+03  0.51100000000E-03 0.  1.
    9000005    1    3    3    0    0 -0.34450722831E+02 -0.36148760467E+01  0.35119380598E+01  0.34831786364E+02  0.10000000000E+01 0.  0.
    9000005    1    3    3    0    0  0.71543375100E+02  0.90403830922E+01 -0.12048431673E+03  0.14041956283E+03  0.10000000000E+01 0.  0.
<mgrwt>
<rscale>  0 0.12172872E+03</rscale>
<asrwt>0</asrwt>
<pdfrwt beam="1">  1        2 0.62475178E-02 0.13050095E+03</pdfrwt>
<pdfrwt beam="2">  1       -2 0.55208975E-01 0.13050095E+03</pdfrwt>
<totfact> 0.35034086E+03</totfact>
</mgrwt>
</event>
<event>
 8    2  0.8128359E-004  0.1379466E+03  0.7818608E-02  0.1228006E+00
          2   -1    0    0  501    0  0.00000000000E+00  0.00000000000E+00  0.91506849464E+02  0.91506849499E+02  0.25500000000E-02 0. -1.
         -2   -1    0    0    0  501 -0.00000000000E+00 -0.00000000000E+00 -0.18155587365E+03  0.18155587367E+03  0.25500000000E-02 0.  1.
         25    2    1    2    0    0  0.11826719491E+02  0.57131274617E+02 -0.91410168684E+02  0.16548438573E+03  0.12500163659E+03 0.  0.
         23    2    1    2    0    0 -0.11826719491E+02 -0.57131274617E+02  0.13611444973E+01  0.10757833743E+03  0.90373625231E+02 0.  0.
        -11    1    4    4    0    0 -0.15318627414E+02 -0.36175937572E+01  0.39002658437E+02  0.42058943114E+02  0.51100000000E-03 0. -1.
         11    1    4    4    0    0  0.34919079231E+01 -0.53513680860E+02 -0.37641513940E+02  0.65519394320E+02  0.51100000000E-03 0.  1.
    9000005    1    3    3    0    0 -0.55755856757E+02  0.33835611674E+02 -0.54650830196E+02  0.85095695668E+02  0.10000000000E+01 0.  0.
    9000005    1    3    3    0    0  0.67582576249E+02  0.23295662943E+02 -0.36759338488E+02  0.80388690065E+02  0.10000000000E+01 0.  0.
<mgrwt>
<rscale>  0 0.12963007E+03</rscale>
<asrwt>0</asrwt>
<pdfrwt beam="1">  1        2 0.14077977E-01 0.13794659E+03</pdfrwt>
<pdfrwt beam="2">  1       -2 0.27931673E-01 0.13794659E+03</pdfrwt>
<totfact> 0.46771140E+03</totfact>
</mgrwt>
</event>
<event>
 8    2  0.8128359E-004  0.1375261E+03  0.7818608E-02  0.1228478E+00
         -2   -1    0    0    0  501 -0.00000000000E+00  0.00000000000E+00  0.18703970095E+03  0.18703970097E+03  0.25500000000E-02 0.  1.
          2   -1    0    0  501    0  0.00000000000E+00 -0.00000000000E+00 -0.87514851075E+02  0.87514851112E+02  0.25500000000E-02 0. -1.
         25    2    1    2    0    0  0.49515721335E+02 -0.28910887759E+02  0.16072504406E+02  0.13846209229E+03  0.12500311802E+03 0.  0.
         23    2    1    2    0    0 -0.49515721335E+02  0.28910887759E+02  0.83452345467E+02  0.13609245979E+03  0.90935238253E+02 0.  0.
        -11    1    4    4    0    0 -0.50549913097E+02  0.56164906553E+02  0.77372449465E+02  0.10814937068E+03  0.51100000000E-03 0.  1.
         11    1    4    4    0    0  0.10341917623E+01 -0.27254018794E+02  0.60798960021E+01  0.27943089104E+02  0.51100000000E-03 0. -1.
    9000005    1    3    3    0    0  0.49512053100E+02 -0.46655540495E+02 -0.40488923091E+02  0.79174085117E+02  0.10000000000E+01 0.  0.
    9000005    1    3    3    0    0  0.36682342127E-02  0.17744652735E+02  0.56561427498E+02  0.59288007175E+02  0.10000000000E+01 0.  0.
<mgrwt>
<rscale>  0 0.12931349E+03</rscale>
<asrwt>0</asrwt>
<pdfrwt beam="2">  1        2 0.13463823E-01 0.13752609E+03</pdfrwt>
<pdfrwt beam="1">  1       -2 0.28775338E-01 0.13752609E+03</pdfrwt>
<totfact> 0.46749766E+03</totfact>
</mgrwt>
</event>
<event>
 8    2  0.8128359E-004  0.2317623E+03  0.7818608E-02  0.1128226E+00
          2   -1    0    0  501    0  0.00000000000E+00  0.00000000000E+00  0.12365754866E+04  0.12365754866E+04  0.25500000000E-02 0. -1.
         -2   -1    0    0    0  501 -0.00000000000E+00 -0.00000000000E+00 -0.49980474744E+02  0.49980474809E+02  0.25500000000E-02 0.  1.
         25    2    1    2    0    0  0.19463999825E+03 -0.14280826013E+02  0.88915458501E+03  0.91886323944E+03  0.12500042335E+03 0.  0.
         23    2    1    2    0    0 -0.19463999825E+03  0.14280826013E+02  0.29744042683E+03  0.36769272196E+03  0.92943312586E+02 0.  0.
        -11    1    4    4    0    0 -0.87724018707E+02 -0.31815600453E+02  0.17750608795E+03  0.20053963985E+03  0.51100000000E-03 0. -1.
         11    1    4    4    0    0 -0.10691597955E+03  0.46096426466E+02  0.11993433888E+03  0.16715308211E+03  0.51100000000E-03 0.  1.
    9000005    1    3    3    0    0  0.45074532174E+02 -0.57374565588E+02  0.35852560679E+03  0.36587588736E+03  0.10000000000E+01 0.  0.
    9000005    1    3    3    0    0  0.14956546608E+03  0.43093739575E+02  0.53062897821E+03  0.55298735207E+03  0.10000000000E+01 0.  0.
<mgrwt>
<rscale>  0 0.22776043E+03</rscale>
<asrwt>0</asrwt>
<pdfrwt beam="1">  1        2 0.19024239E+00 0.23176233E+03</pdfrwt>
<pdfrwt beam="2">  1       -2 0.76893036E-02 0.23176233E+03</pdfrwt>
<totfact> 0.19166046E+03</totfact>
</mgrwt>
</event>
<event>
 8    2  0.8128359E-004  0.1425859E+03  0.7818608E-02  0.1220586E+00
          2   -1    0    0  501    0  0.00000000000E+00  0.00000000000E+00  0.17704662195E+03  0.17704662196E+03  0.25500000000E-02 0. -1.
         -2   -1    0    0    0  501 -0.00000000000E+00 -0.00000000000E+00 -0.10412228919E+03  0.10412228923E+03  0.25500000000E-02 0.  1.
         25    2    1    2    0    0 -0.28464648215E+02 -0.62408196740E+02  0.86322366736E+02  0.16668020583E+03  0.12500288317E+03 0.  0.
         23    2    1    2    0    0  0.28464648215E+02  0.62408196740E+02 -0.13398033984E+02  0.11448870536E+03  0.90681514770E+02 0.  0.
        -11    1    4    4    0    0 -0.29915634304E+02  0.26578311935E+01 -0.59834349743E+01  0.30623695675E+02  0.51100000000E-03 0.  1.
         11    1    4    4    0    0  0.58380282519E+02  0.59750365547E+02 -0.74145990093E+01  0.83865009680E+02  0.51100000000E-03 0. -1.
    9000005    1    3    3    0    0 -0.17783699653E+02 -0.59053234664E+02 -0.16016007957E+02  0.63726423158E+02  0.10000000000E+01 0.  0.
    9000005    1    3    3    0    0 -0.10680948562E+02 -0.33549620758E+01  0.10233837469E+03  0.10295378268E+03  0.10000000000E+01 0.  0.
<mgrwt>
<rscale>  0 0.13474092E+03</rscale>
<asrwt>0</asrwt>
<pdfrwt beam="1">  1        2 0.27237942E-01 0.14258590E+03</pdfrwt>
<pdfrwt beam="2">  1       -2 0.16018814E-01 0.14258590E+03</pdfrwt>
<totfact> 0.57258740E+03</totfact>
</mgrwt>
</event>
<event>
 8    2  0.8128359E-004  0.1429396E+03  0.7818608E-02  0.1219726E+00
          2   -1    0    0  501    0  0.00000000000E+00  0.00000000000E+00  0.14572378904E+04  0.14572378904E+04  0.25500000000E-02 0. -1.
         -2   -1    0    0    0  501 -0.00000000000E+00 -0.00000000000E+00 -0.16689125720E+02  0.16689125915E+02  0.25500000000E-02 0.  1.
         25    2    1    2    0    0  0.34334286698E+02 -0.60238812319E+02  0.36083970088E+03  0.38811986370E+03  0.12499672441E+03 0.  0.
         23    2    1    2    0    0 -0.34334286698E+02  0.60238812319E+02  0.10797090638E+04  0.10858071526E+04  0.91640343037E+02 0.  0.
        -11    1    4    4    0    0  0.14357098753E+01 -0.22627012980E+02  0.14655913670E+03  0.14830247311E+03  0.51100000000E-03 0.  1.
         11    1    4    4    0    0 -0.35769996574E+02  0.82865825300E+02  0.93314992709E+03  0.93750467950E+03  0.51100000000E-03 0. -1.
    9000005    1    3    3    0    0 -0.43196337254E+02 -0.96998430331E+01  0.69291117384E+02  0.82233019252E+02  0.10000000000E+01 0.  0.
    9000005    1    3    3    0    0  0.77530623952E+02 -0.50538969286E+02  0.29154858350E+03  0.30588684445E+03  0.10000000000E+01 0.  0.
<mgrwt>
<rscale>  0 0.13535020E+03</rscale>
<asrwt>0</asrwt>
<pdfrwt beam="1">  1        2 0.22419056E+00 0.14293963E+03</pdfrwt>
<pdfrwt beam="2">  1       -2 0.25675565E-02 0.14293963E+03</pdfrwt>
<totfact> 0.75348288E+03</totfact>
</mgrwt>
</event>
<event>
 8    2  0.8128359E-004  0.1482907E+03  0.7818608E-02  0.1213291E+00
          2   -1    0    0  501    0  0.00000000000E+00  0.00000000000E+00  0.45998288109E+03  0.45998288109E+03  0.25500000000E-02 0.  1.
         -2   -1    0    0    0  501 -0.00000000000E+00 -0.00000000000E+00 -0.38977589768E+02  0.38977589852E+02  0.25500000000E-02 0. -1.
         25    2    1    2    0    0  0.61867303733E+02  0.50373843642E+02  0.26134864543E+03  0.30048833467E+03  0.12500014963E+03 0.  0.
         23    2    1    2    0    0 -0.61867303733E+02 -0.50373843642E+02  0.15965664589E+03  0.19847213628E+03  0.86809313486E+02 0.  0.
        -11    1    4    4    0    0 -0.73572636069E+02 -0.11968177566E+02  0.12448582675E+03  0.14509614438E+03  0.51100000000E-03 0.  1.
         11    1    4    4    0    0  0.11705332336E+02 -0.38405666077E+02  0.35170819139E+02  0.53375991898E+02  0.51100000000E-03 0. -1.
    9000005    1    3    3    0    0  0.84580895835E+02  0.31088134721E+01  0.10099348091E+03  0.13177357795E+03  0.10000000000E+01 0.  0.
    9000005    1    3    3    0    0 -0.22713592102E+02  0.47265030170E+02  0.16035516453E+03  0.16871475672E+03  0.10000000000E+01 0.  0.
<mgrwt>
<rscale>  0 0.14002833E+03</rscale>
<asrwt>0</asrwt>
<pdfrwt beam="1">  1        2 0.70766595E-01 0.14829068E+03</pdfrwt>
<pdfrwt beam="2">  1       -2 0.59965525E-02 0.14829068E+03</pdfrwt>
<totfact> 0.96973847E+03</totfact>
</mgrwt>
</event>
<event>
 8    2  0.8128359E-004  0.1440547E+03  0.7818608E-02  0.1218279E+00
         -2   -1    0    0    0  501 -0.00000000000E+00  0.00000000000E+00  0.12991935830E+03  0.12991935832E+03  0.25500000000E-02 0.  1.
          2   -1    0    0  501    0  0.00000000000E+00 -0.00000000000E+00 -0.13001230276E+03  0.13001230279E+03  0.25500000000E-02 0. -1.
         25    2    1    2    0    0  0.29504501959E+00  0.71605599635E+02 -0.42948101522E+01  0.14411870440E+03  0.12499722642E+03 0.  0.
         23    2    1    2    0    0 -0.29504501959E+00 -0.71605599635E+02  0.42018656857E+01  0.11581295671E+03  0.90925993623E+02 0.  0.
        -11    1    4    4    0    0  0.17271186394E+02 -0.31963275968E+02  0.43928460183E+02  0.57005740977E+02  0.51100000000E-03 0.  1.
         11    1    4    4    0    0 -0.17566231414E+02 -0.39642323667E+02 -0.39726594497E+02  0.58807215734E+02  0.51100000000E-03 0. -1.
    9000005    1    3    3    0    0 -0.46898424114E+02  0.82388972652E+02  0.44664940376E+01  0.94912352030E+02  0.10000000000E+01 0.  0.
    9000005    1    3    3    0    0  0.47193469133E+02 -0.10783373017E+02 -0.87613041898E+01  0.49206352370E+02  0.10000000000E+01 0.  0.
<mgrwt>
<rscale>  0 0.13638398E+03</rscale>
<asrwt>0</asrwt>
<pdfrwt beam="2">  1        2 0.20001893E-01 0.14405470E+03</pdfrwt>
<pdfrwt beam="1">  1       -2 0.19987594E-01 0.14405470E+03</pdfrwt>
<totfact> 0.55828403E+03</totfact>
</mgrwt>
</event>
<event>
 8    2  0.8128359E-004  0.1502426E+03  0.7818608E-02  0.1209166E+00
          2   -1    0    0  501    0  0.00000000000E+00  0.00000000000E+00  0.87341333519E+03  0.87341333520E+03  0.25500000000E-02 0. -1.
         -2   -1    0    0    0  501 -0.00000000000E+00 -0.00000000000E+00 -0.21493144739E+02  0.21493144890E+02  0.25500000000E-02 0.  1.
         25    2    1    2    0    0 -0.39916009724E+02  0.73192913650E+02  0.46848675401E+03  0.49198849110E+03  0.12498938456E+03 0.  0.
         23    2    1    2    0    0  0.39916009724E+02 -0.73192913650E+02  0.38343343645E+03  0.40291798899E+03  0.91494345308E+02 0.  0.
        -11    1    4    4    0    0 -0.24556584259E+02 -0.11523506892E+02  0.41825403246E+02  0.49851593741E+02  0.51100000000E-03 0.  1.
         11    1    4    4    0    0  0.64472593982E+02 -0.61669406757E+02  0.34160803320E+03  0.35306639525E+03  0.51100000000E-03 0. -1.
    9000005    1    3    3    0    0 -0.77972358550E+02  0.15794777919E+02  0.28862322038E+03  0.29938858871E+03  0.10000000000E+01 0.  0.
    9000005    1    3    3    0    0  0.38056348827E+02  0.57398135731E+02  0.17986353362E+03  0.19259990239E+03  0.10000000000E+01 0.  0.
<mgrwt>
<rscale>  0 0.14313907E+03</rscale>
<asrwt>0</asrwt>
<pdfrwt beam="1">  1        2 0.13437133E+00 0.15024259E+03</pdfrwt>
<pdfrwt beam="2">  1       -2 0.33066366E-02 0.15024259E+03</pdfrwt>
<totfact> 0.11182339E+04</totfact>
</mgrwt>
</event>
<event>
 8    2  0.8128359E-004  0.1334917E+03  0.7818608E-02  0.1236010E+00
         -2   -1    0    0    0  501 -0.00000000000E+00  0.00000000000E+00  0.45276387831E+02  0.45276387903E+02  0.25500000000E-02 0.  1.
          2   -1    0    0  501    0  0.00000000000E+00 -0.00000000000E+00 -0.32645000498E+03  0.32645000499E+03  0.25500000000E-02 0. -1.
         25    2    1    2    0    0 -0.41880827394E+02 -0.21002018703E+02 -0.10926387255E+03  0.17250689817E+03  0.12499979031E+03 0.  0.
         23    2    1    2    0    0  0.41880827394E+02  0.21002018703E+02 -0.17190974460E+03  0.19921949472E+03  0.89108688111E+02 0.  0.
        -11    1    4    4    0    0  0.43610351727E+02  0.16969603213E+02 -0.26568135727E+02  0.53811672035E+02  0.51100000000E-03 0.  1.
         11    1    4    4    0    0 -0.17295243330E+01  0.40324154897E+01 -0.14534160887E+03  0.14540782269E+03  0.51100000000E-03 0. -1.
    9000005    1    3    3    0    0 -0.47444175490E+02  0.31071477087E+02 -0.10575971537E+03  0.12001043235E+03  0.10000000000E+01 0.  0.
    9000005    1    3    3    0    0  0.55633480961E+01 -0.52073495790E+02 -0.35041571719E+01  0.52496465817E+02  0.10000000000E+01 0.  0.
<mgrwt>
<rscale>  0 0.12440020E+03</rscale>
<asrwt>0</asrwt>
<pdfrwt beam="2">  1        2 0.50223076E-01 0.13349171E+03</pdfrwt>
<pdfrwt beam="1">  1       -2 0.69655983E-02 0.13349171E+03</pdfrwt>
<totfact> 0.11056061E+04</totfact>
</mgrwt>
</event>
<event>
 8    2  0.8128359E-004  0.1317691E+03  0.7818608E-02  0.1238067E+00
         -2   -1    0    0    0  501 -0.00000000000E+00  0.00000000000E+00  0.65761670738E+01  0.65761675682E+01  0.25500000000E-02 0.  1.
          2   -1    0    0  501    0  0.00000000000E+00 -0.00000000000E+00 -0.20901455021E+04  0.20901455021E+04  0.25500000000E-02 0. -1.
         25    2    1    2    0    0 -0.22212171272E+02  0.35237478644E+02 -0.10335031825E+04  0.10418694434E+04  0.12501219226E+03 0.  0.
         23    2    1    2    0    0  0.22212171272E+02 -0.35237478644E+02 -0.10500661525E+04  0.10548522263E+04  0.91319408225E+02 0.  0.
        -11    1    4    4    0    0  0.97895293870E+01 -0.50580746669E+02 -0.99536922116E+03  0.99670162699E+03  0.51100000000E-03 0. -1.
         11    1    4    4    0    0  0.12422641884E+02  0.15343268025E+02 -0.54696931328E+02  0.58150599327E+02  0.51100000000E-03 0.  1.
    9000005    1    3    3    0    0  0.25457944873E+02 -0.28402322427E+02 -0.59444165955E+03  0.59566491040E+03  0.10000000000E+01 0.  0.
    9000005    1    3    3    0    0 -0.47670116144E+02  0.63639801071E+02 -0.43906152300E+03  0.44620453296E+03  0.10000000000E+01 0.  0.
<mgrwt>
<rscale>  0 0.12310116E+03</rscale>
<asrwt>0</asrwt>
<pdfrwt beam="2">  1        2 0.32156032E+00 0.13176915E+03</pdfrwt>
<pdfrwt beam="1">  1       -2 0.10117197E-02 0.13176915E+03</pdfrwt>
<totfact> 0.13650595E+04</totfact>
</mgrwt>
</event>
<event>
 8    2  0.8128359E-004  0.1297571E+03  0.7818608E-02  0.1241309E+00
         -2   -1    0    0    0  501 -0.00000000000E+00  0.00000000000E+00  0.41733075155E+02  0.41733075233E+02  0.25500000000E-02 0. -1.
          2   -1    0    0  501    0  0.00000000000E+00 -0.00000000000E+00 -0.31187015714E+03  0.31187015715E+03  0.25500000000E-02 0.  1.
         25    2    1    2    0    0  0.19685935238E+02  0.28690617087E+02 -0.15343603753E+03  0.20094655210E+03  0.12500484644E+03 0.  0.
         23    2    1    2    0    0 -0.19685935238E+02 -0.28690617087E+02 -0.11670104445E+03  0.15265668028E+03  0.92055639171E+02 0.  0.
        -11    1    4    4    0    0  0.19699035914E+01 -0.19128203017E+02  0.11421418673E+02  0.22365542148E+02  0.51100000000E-03 0. -1.
         11    1    4    4    0    0 -0.21655838829E+02 -0.95624140707E+01 -0.12812246313E+03  0.13029113813E+03  0.51100000000E-03 0.  1.
    9000005    1    3    3    0    0 -0.44327452093E+02  0.14222386166E+02 -0.17047486261E+02  0.49586450419E+02  0.10000000000E+01 0.  0.
    9000005    1    3    3    0    0  0.64013387331E+02  0.14468230921E+02 -0.13638855127E+03  0.15136010168E+03  0.10000000000E+01 0.  0.
<mgrwt>
<rscale>  0 0.12109058E+03</rscale>
<asrwt>0</asrwt>
<pdfrwt beam="2">  1        2 0.47980023E-01 0.12975708E+03</pdfrwt>
<pdfrwt beam="1">  1       -2 0.64204733E-02 0.12975708E+03</pdfrwt>
<totfact> 0.13109673E+04</totfact>
</mgrwt>
</event>
<event>
 8    2  0.8128359E-004  0.1260613E+03  0.7818608E-02  0.1247882E+00
         -2   -1    0    0    0  501 -0.00000000000E+00  0.00000000000E+00  0.21226592379E+03  0.21226592381E+03  0.25500000000E-02 0.  1.
          2   -1    0    0  501    0  0.00000000000E+00 -0.00000000000E+00 -0.72762331921E+02  0.72762331966E+02  0.25500000000E-02 0. -1.
         25    2    1    2    0    0  0.43051777873E+01 -0.15720476159E+02  0.12020744309E+02  0.12663311644E+03  0.12500311980E+03 0.  0.
         23    2    1    2    0    0 -0.43051777873E+01  0.15720476159E+02  0.12748284756E+03  0.15839513933E+03  0.92582265118E+02 0.  0.
        -11    1    4    4    0    0 -0.21005389249E+02  0.20298935437E+02 -0.53073881493E+00  0.29215660892E+02  0.51100000000E-03 0. -1.
         11    1    4    4    0    0  0.16700211462E+02 -0.45784592777E+01  0.12801358638E+03  0.12917947844E+03  0.51100000000E-03 0.  1.
    9000005    1    3    3    0    0  0.38578197745E+02 -0.57343312946E+02 -0.69466446226E+01  0.69467897279E+02  0.10000000000E+01 0.  0.
    9000005    1    3    3    0    0 -0.34273019958E+02  0.41622836787E+02  0.18967388932E+02  0.57165219164E+02  0.10000000000E+01 0.  0.
<mgrwt>
<rscale>  0 0.11714541E+03</rscale>
<asrwt>0</asrwt>
<pdfrwt beam="2">  1        2 0.11194205E-01 0.12606129E+03</pdfrwt>
<pdfrwt beam="1">  1       -2 0.32656296E-01 0.12606129E+03</pdfrwt>
<totfact> 0.46147926E+03</totfact>
</mgrwt>
</event>
<event>
 8    2  0.8128359E-004  0.1276695E+03  0.7818608E-02  0.1243635E+00
          2   -1    0    0  501    0  0.00000000000E+00  0.00000000000E+00  0.18667839883E+03  0.18667839884E+03  0.25500000000E-02 0. -1.
         -2   -1    0    0    0  501 -0.00000000000E+00 -0.00000000000E+00 -0.70291490998E+02  0.70291491044E+02  0.25500000000E-02 0.  1.
         25    2    1    2    0    0  0.70883211710E+01  0.25003738768E+02  0.85572365793E+02  0.15369489745E+03  0.12499624180E+03 0.  0.
         23    2    1    2    0    0 -0.70883211710E+01 -0.25003738768E+02  0.30814542036E+02  0.10327499244E+03  0.95082894430E+02 0.  0.
        -11    1    4    4    0    0 -0.35333530129E+02  0.17173768938E+02  0.34630137767E+02  0.52370250457E+02  0.51100000000E-03 0. -1.
         11    1    4    4    0    0  0.28245208958E+02 -0.42177507706E+02 -0.38155957309E+01  0.50904741984E+02  0.51100000000E-03 0.  1.
    9000005    1    3    3    0    0  0.26614339196E+02  0.51708389344E+02  0.10148507007E+03  0.11697136413E+03  0.10000000000E+01 0.  0.
    9000005    1    3    3    0    0 -0.19526018025E+02 -0.26704650576E+02 -0.15912704274E+02  0.36723533321E+02  0.10000000000E+01 0.  0.
<mgrwt>
<rscale>  0 0.11967468E+03</rscale>
<asrwt>0</asrwt>
<pdfrwt beam="1">  1        2 0.28719754E-01 0.12766946E+03</pdfrwt>
<pdfrwt beam="2">  1       -2 0.10814075E-01 0.12766946E+03</pdfrwt>
<totfact> 0.10101808E+04</totfact>
</mgrwt>
</event>
<event>
 8    2  0.8128359E-004  0.1813561E+03  0.7818608E-02  0.1172609E+00
          2   -1    0    0  501    0  0.00000000000E+00  0.00000000000E+00  0.13689942457E+03  0.13689942460E+03  0.25500000000E-02 0.  1.
         -2   -1    0    0    0  501 -0.00000000000E+00 -0.00000000000E+00 -0.22896110066E+03  0.22896110068E+03  0.25500000000E-02 0. -1.
         25    2    1    2    0    0 -0.39586981783E+01  0.13133561299E+03  0.36792549396E+01  0.18139340420E+03  0.12500126255E+03 0.  0.
         23    2    1    2    0    0  0.39586981783E+01 -0.13133561299E+03 -0.95740931029E+02  0.18446712107E+03  0.87161220441E+02 0.  0.
        -11    1    4    4    0    0  0.42117828071E+02 -0.53119316498E+02 -0.59484641236E+02  0.90188667635E+02  0.51100000000E-03 0.  1.
         11    1    4    4    0    0 -0.38159129893E+02 -0.78216296496E+02 -0.36256289793E+02  0.94278453432E+02  0.51100000000E-03 0. -1.
    9000005    1    3    3    0    0 -0.22438977048E+02 -0.64462186057E+01 -0.30317024163E+02  0.38277713874E+02  0.10000000000E+01 0.  0.
    9000005    1    3    3    0    0  0.18480278870E+02  0.13778183160E+03  0.33996279103E+02  0.14311569033E+03  0.10000000000E+01 0.  0.
<mgrwt>
<rscale>  0 0.17512198E+03</rscale>
<asrwt>0</asrwt>
<pdfrwt beam="1">  1        2 0.21061450E-01 0.18135609E+03</pdfrwt>
<pdfrwt beam="2">  1       -2 0.35224785E-01 0.18135609E+03</pdfrwt>
<totfact> 0.19524936E+03</totfact>
</mgrwt>
</event>
<event>
 8    2  0.8128359E-004  0.4006680E+03  0.7818608E-02  0.1043823E+00
         -2   -1    0    0    0  501 -0.00000000000E+00  0.00000000000E+00  0.14691039361E+03  0.14691039364E+03  0.25500000000E-02 0.  1.
          2   -1    0    0  501    0  0.00000000000E+00 -0.00000000000E+00 -0.11039751077E+04  0.11039751077E+04  0.25500000000E-02 0. -1.
         25    2    1    2    0    0 -0.20574022669E+03  0.32028220466E+03 -0.56423647529E+03  0.69202430189E+03  0.12500041145E+03 0.  0.
         23    2    1    2    0    0  0.20574022669E+03 -0.32028220466E+03 -0.39282823884E+03  0.55886119949E+03  0.11446433317E+03 0.  0.
        -11    1    4    4    0    0  0.49116864506E+02 -0.17296819336E+02 -0.83520164653E+02  0.98423900766E+02  0.51100000000E-03 0. -1.
         11    1    4    4    0    0  0.15662336218E+03 -0.30298538532E+03 -0.30930807419E+03  0.46043729872E+03  0.51100000000E-03 0.  1.
    9000005    1    3    3    0    0 -0.22646334166E+02  0.10314309377E+03 -0.23214315274E+03  0.25503489488E+03  0.10000000000E+01 0.  0.
    9000005    1    3    3    0    0 -0.18309389252E+03  0.21713911088E+03 -0.33209332255E+03  0.43698940701E+03  0.10000000000E+01 0.  0.
<mgrwt>
<rscale>  0 0.39987539E+03</rscale>
<asrwt>0</asrwt>
<pdfrwt beam="2">  1        2 0.16984232E+00 0.40066799E+03</pdfrwt>
<pdfrwt beam="1">  1       -2 0.22601600E-01 0.40066799E+03</pdfrwt>
<totfact> 0.38356575E+02</totfact>
</mgrwt>
</event>
<event>
 8    2  0.8128359E-004  0.1392867E+03  0.7818608E-02  0.1226838E+00
         -2   -1    0    0    0  501 -0.00000000000E+00  0.00000000000E+00  0.16678142083E+03  0.16678142085E+03  0.25500000000E-02 0.  1.
          2   -1    0    0  501    0  0.00000000000E+00 -0.00000000000E+00 -0.13929630578E+03  0.13929630580E+03  0.25500000000E-02 0. -1.
         25    2    1    2    0    0  0.21702190109E+02 -0.57491885169E+02 -0.74724697051E+02  0.15806509780E+03  0.12499797149E+03 0.  0.
         23    2    1    2    0    0 -0.21702190109E+02  0.57491885169E+02  0.10220981210E+03  0.14801262885E+03  0.87661797222E+02 0.  0.
        -11    1    4    4    0    0  0.16760922821E+02  0.50812985986E+02  0.20212485559E+02  0.57196439149E+02  0.51100000000E-03 0. -1.
         11    1    4    4    0    0 -0.38463112930E+02  0.66788991833E+01  0.81997326544E+02  0.90816189697E+02  0.51100000000E-03 0.  1.
    9000005    1    3    3    0    0 -0.21296564089E+02 -0.44468301944E+02  0.20003718986E+02  0.53217687784E+02  0.10000000000E+01 0.  0.
    9000005    1    3    3    0    0  0.42998754198E+02 -0.13023583225E+02 -0.94728416037E+02  0.10484741002E+03  0.10000000000E+01 0.  0.
<mgrwt>
<rscale>  0 0.13041713E+03</rscale>
<asrwt>0</asrwt>
<pdfrwt beam="2">  1        2 0.21430201E-01 0.13928674E+03</pdfrwt>
<pdfrwt beam="1">  1       -2 0.25658680E-01 0.13928674E+03</pdfrwt>
<totfact> 0.33518150E+03</totfact>
</mgrwt>
</event>
<event>
 8    2  0.8128359E-004  0.1292330E+03  0.7818608E-02  0.1242075E+00
          2   -1    0    0  501    0  0.00000000000E+00  0.00000000000E+00  0.53725042379E+03  0.53725042380E+03  0.25500000000E-02 0. -1.
         -2   -1    0    0    0  501 -0.00000000000E+00 -0.00000000000E+00 -0.27700442368E+02  0.27700442485E+02  0.25500000000E-02 0.  1.
         25    2    1    2    0    0 -0.11175847869E+02 -0.30851731643E+02  0.38686467341E+03  0.40787920164E+03  0.12499775471E+03 0.  0.
         23    2    1    2    0    0  0.11175847869E+02  0.30851731643E+02  0.12268530802E+03  0.15707166464E+03  0.92428859717E+02 0.  0.
        -11    1    4    4    0    0 -0.31049886165E+02  0.40439651856E+02  0.44393741752E+02  0.67603736436E+02  0.51100000000E-03 0.  1.
         11    1    4    4    0    0  0.42225734034E+02 -0.95879202132E+01  0.78291566264E+02  0.89467928204E+02  0.51100000000E-03 0. -1.
    9000005    1    3    3    0    0  0.49612141452E+02 -0.41572997559E+02  0.23976436787E+03  0.24834981539E+03  0.10000000000E+01 0.  0.
    9000005    1    3    3    0    0 -0.60787989321E+02  0.10721265917E+02  0.14710030554E+03  0.15952938626E+03  0.10000000000E+01 0.  0.
<mgrwt>
<rscale>  0 0.12062184E+03</rscale>
<asrwt>0</asrwt>
<pdfrwt beam="1">  1        2 0.82653914E-01 0.12923300E+03</pdfrwt>
<pdfrwt beam="2">  1       -2 0.42616064E-02 0.12923300E+03</pdfrwt>
<totfact> 0.13530044E+04</totfact>
</mgrwt>
</event>
<event>
 8    2  0.8128359E-004  0.1332007E+03  0.7818608E-02  0.1235686E+00
         -2   -1    0    0    0  501 -0.00000000000E+00  0.00000000000E+00  0.21569840834E+02  0.21569840985E+02  0.25500000000E-02 0. -1.
          2   -1    0    0  501    0  0.00000000000E+00 -0.00000000000E+00 -0.64554841868E+03  0.64554841868E+03  0.25500000000E-02 0.  1.
         25    2    1    2    0    0 -0.15605554804E+02  0.43291398644E+02 -0.38017864299E+03  0.40283772233E+03  0.12499900564E+03 0.  0.
         23    2    1    2    0    0  0.15605554804E+02 -0.43291398644E+02 -0.24379993486E+03  0.26428053734E+03  0.91039088538E+02 0.  0.
        -11    1    4    4    0    0  0.77239367250E+01  0.28039276078E+02 -0.53425738446E+02  0.60829020461E+02  0.51100000000E-03 0.  1.
         11    1    4    4    0    0  0.78816180792E+01 -0.71330674723E+02 -0.19037419641E+03  0.20345151688E+03  0.51100000000E-03 0. -1.
    9000005    1    3    3    0    0  0.87025492028E+00 -0.26108124879E+02 -0.13764320936E+02  0.29544002084E+02  0.10000000000E+01 0.  0.
    9000005    1    3    3    0    0 -0.16475809724E+02  0.69399523523E+02 -0.36641432205E+03  0.37329372024E+03  0.10000000000E+01 0.  0.
<mgrwt>
<rscale>  0 0.12460610E+03</rscale>
<asrwt>0</asrwt>
<pdfrwt beam="2">  1        2 0.99315126E-01 0.13320071E+03</pdfrwt>
<pdfrwt beam="1">  1       -2 0.33184376E-02 0.13320071E+03</pdfrwt>
<totfact> 0.15956103E+04</totfact>
</mgrwt>
</event>
<event>
 8    2  0.8128359E-004  0.1665215E+03  0.7818608E-02  0.1188813E+00
          2   -1    0    0  501    0  0.00000000000E+00  0.00000000000E+00  0.29936881479E+03  0.29936881480E+03  0.25500000000E-02 0.  1.
         -2   -1    0    0    0  501 -0.00000000000E+00 -0.00000000000E+00 -0.18680868480E+03  0.18680868482E+03  0.25500000000E-02 0. -1.
         25    2    1    2    0    0  0.73804724438E+02 -0.81591888866E+02 -0.12597099766E+03  0.20880156290E+03  0.12500010696E+03 0.  0.
         23    2    1    2    0    0 -0.73804724438E+02  0.81591888866E+02  0.23853112765E+03  0.27737593672E+03  0.89083880342E+02 0.  0.
        -11    1    4    4    0    0 -0.75429499966E+02  0.42538172941E+02  0.21492060731E+03  0.23171096881E+03  0.51100000000E-03 0. -1.
         11    1    4    4    0    0  0.16247755279E+01  0.39053715924E+02  0.23610520338E+02  0.45664967906E+02  0.51100000000E-03 0.  1.
    9000005    1    3    3    0    0 -0.33449907364E+02 -0.30873947149E+02 -0.51403303713E+02  0.68668745057E+02  0.10000000000E+01 0.  0.
    9000005    1    3    3    0    0  0.10725463180E+03 -0.50717941717E+02 -0.74567693945E+02  0.14013281784E+03  0.10000000000E+01 0.  0.
<mgrwt>
<rscale>  0 0.15989716E+03</rscale>
<asrwt>0</asrwt>
<pdfrwt beam="1">  1        2 0.46056740E-01 0.16652147E+03</pdfrwt>
<pdfrwt beam="2">  1       -2 0.28739798E-01 0.16652147E+03</pdfrwt>
<totfact> 0.12015876E+03</totfact>
</mgrwt>
</event>
<event>
 8    2  0.8128359E-004  0.1368891E+03  0.7818608E-02  0.1229912E+00
         -2   -1    0    0    0  501 -0.00000000000E+00  0.00000000000E+00  0.14897836720E+02  0.14897836939E+02  0.25500000000E-02 0.  1.
          2   -1    0    0  501    0  0.00000000000E+00 -0.00000000000E+00 -0.11381445039E+04  0.11381445039E+04  0.25500000000E-02 0. -1.
         25    2    1    2    0    0 -0.55757525353E+02  0.19427087848E+01 -0.83156324089E+03  0.84275502829E+03  0.12500375338E+03 0.  0.
         23    2    1    2    0    0  0.55757525353E+02 -0.19427087848E+01 -0.29168342629E+03  0.31028731255E+03  0.89923964584E+02 0.  0.
        -11    1    4    4    0    0  0.52924107351E+02 -0.11812029081E+02 -0.70872923637E+02  0.89238200760E+02  0.51100000000E-03 0.  1.
         11    1    4    4    0    0  0.28334180023E+01  0.98693202962E+01 -0.22081050266E+03  0.22104911179E+03  0.51100000000E-03 0. -1.
    9000005    1    3    3    0    0  0.25657298322E+02 -0.33303299365E+01 -0.52130772221E+03  0.52195031304E+03  0.10000000000E+01 0.  0.
    9000005    1    3    3    0    0 -0.81414823675E+02  0.52730387213E+01 -0.31025551868E+03  0.32080471525E+03  0.10000000000E+01 0.  0.
<mgrwt>
<rscale>  0 0.12835829E+03</rscale>
<asrwt>0</asrwt>
<pdfrwt beam="2">  1        2 0.17509909E+00 0.13688906E+03</pdfrwt>
<pdfrwt beam="1">  1       -2 0.22919758E-02 0.13688906E+03</pdfrwt>
<totfact> 0.13215543E+04</totfact>
</mgrwt>
</event>
<event>
 8    2  0.8128359E-004  0.1272581E+03  0.7818608E-02  0.1246358E+00
         -2   -1    0    0    0  501 -0.00000000000E+00  0.00000000000E+00  0.41251741879E+02  0.41251741958E+02  0.25500000000E-02 0.  1.
          2   -1    0    0  501    0  0.00000000000E+00 -0.00000000000E+00 -0.32442898294E+03  0.32442898295E+03  0.25500000000E-02 0. -1.
         25    2    1    2    0    0 -0.11053762993E+02  0.21181212951E+02 -0.21330430412E+03  0.24838146703E+03  0.12499519011E+03 0.  0.
         23    2    1    2    0    0  0.11053762993E+02 -0.21181212951E+02 -0.69872936942E+02  0.11729925788E+03  0.91137583482E+02 0.  0.
        -11    1    4    4    0    0 -0.30996511607E+02  0.16196756201E+02 -0.41554615441E+02  0.54313025215E+02  0.51100000000E-03 0.  1.
         11    1    4    4    0    0  0.42050274600E+02 -0.37377969152E+02 -0.28318321501E+02  0.62986232661E+02  0.51100000000E-03 0. -1.
    9000005    1    3    3    0    0 -0.16120735201E+02  0.64084549759E+01  0.12896813591E+02  0.21639644161E+02  0.10000000000E+01 0.  0.
    9000005    1    3    3    0    0  0.50669722083E+01  0.14772757976E+02 -0.22620111771E+03  0.22674182287E+03  0.10000000000E+01 0.  0.
<mgrwt>
<rscale>  0 0.11804476E+03</rscale>
<asrwt>0</asrwt>
<pdfrwt beam="2">  1        2 0.49912150E-01 0.12725811E+03</pdfrwt>
<pdfrwt beam="1">  1       -2 0.63464220E-02 0.12725811E+03</pdfrwt>
<totfact> 0.12776407E+04</totfact>
</mgrwt>
</event>
<event>
 8    2  0.8128359E-004  0.1335441E+03  0.7818608E-02  0.1233071E+00
         -2   -1    0    0    0  501 -0.00000000000E+00  0.00000000000E+00  0.17689117192E+02  0.17689117376E+02  0.25500000000E-02 0.  1.
          2   -1    0    0  501    0  0.00000000000E+00 -0.00000000000E+00 -0.82069470535E+03  0.82069470536E+03  0.25500000000E-02 0. -1.
         25    2    1    2    0    0  0.36919294894E+02 -0.29243792102E+02 -0.47615809196E+03  0.49453063418E+03  0.12496313816E+03 0.  0.
         23    2    1    2    0    0 -0.36919294894E+02  0.29243792102E+02 -0.32684749620E+03  0.34385318855E+03  0.95851425596E+02 0.  0.
        -11    1    4    4    0    0  0.25770844089E+01  0.27399955661E+02 -0.28483250219E+03  0.28615896498E+03  0.51100000000E-03 0. -1.
         11    1    4    4    0    0 -0.39496379303E+02  0.18438364403E+01 -0.42014994010E+02  0.57694223565E+02  0.51100000000E-03 0.  1.
    9000005    1    3    3    0    0  0.44882540622E+02 -0.70336290762E+02 -0.22639842536E+03  0.24128589527E+03  0.10000000000E+01 0.  0.
    9000005    1    3    3    0    0 -0.79632457273E+01  0.41092498660E+02 -0.24975966660E+03  0.25324473891E+03  0.10000000000E+01 0.  0.
<mgrwt>
<rscale>  0 0.12628706E+03</rscale>
<asrwt>0</asrwt>
<pdfrwt beam="2">  1        2 0.12626069E+00 0.13354407E+03</pdfrwt>
<pdfrwt beam="1">  1       -2 0.27214033E-02 0.13354407E+03</pdfrwt>
<totfact> 0.16000344E+04</totfact>
</mgrwt>
</event>
<event>
 8    2  0.8128359E-004  0.1292413E+03  0.7818608E-02  0.1243004E+00
          2   -1    0    0  501    0  0.00000000000E+00  0.00000000000E+00  0.61462010752E+03  0.61462010753E+03  0.25500000000E-02 0.  1.
         -2   -1    0    0    0  501 -0.00000000000E+00 -0.00000000000E+00 -0.21132753528E+02  0.21132753682E+02  0.25500000000E-02 0. -1.
         25    2    1    2    0    0 -0.32423763798E+02  0.51675703545E+01  0.38532125356E+03  0.40641823226E+03  0.12500122727E+03 0.  0.
         23    2    1    2    0    0  0.32423763798E+02 -0.51675703545E+01  0.20816610043E+03  0.22933462896E+03  0.90461275841E+02 0.  0.
        -11    1    4    4    0    0  0.38751491929E+02  0.35225679953E+02  0.14423184446E+03  0.15344494652E+03  0.51100000000E-03 0.  1.
         11    1    4    4    0    0 -0.63277281305E+01 -0.40393250307E+02  0.63934255971E+02  0.75889682438E+02  0.51100000000E-03 0. -1.
    9000005    1    3    3    0    0 -0.70790912894E+02  0.90326454910E+01  0.33757183873E+03  0.34503432922E+03  0.10000000000E+01 0.  0.
    9000005    1    3    3    0    0  0.38367149095E+02 -0.38650751365E+01  0.47749414832E+02  0.61383903039E+02  0.10000000000E+01 0.  0.
<mgrwt>
<rscale>  0 0.12005621E+03</rscale>
<asrwt>0</asrwt>
<pdfrwt beam="1">  1        2 0.94556928E-01 0.12924129E+03</pdfrwt>
<pdfrwt beam="2">  1       -2 0.32511933E-02 0.12924129E+03</pdfrwt>
<totfact> 0.17358256E+04</totfact>
</mgrwt>
</event>
<event>
 8    2  0.8128359E-004  0.2038821E+03  0.7818608E-02  0.1150334E+00
          2   -1    0    0  501    0  0.00000000000E+00  0.00000000000E+00  0.22963780210E+03  0.22963780212E+03  0.25500000000E-02 0. -1.
         -2   -1    0    0    0  501 -0.00000000000E+00 -0.00000000000E+00 -0.17593296763E+03  0.17593296765E+03  0.25500000000E-02 0.  1.
         25    2    1    2    0    0 -0.12833085010E+03  0.97336415480E+02  0.77066645715E+02  0.21796138518E+03  0.12499885071E+03 0.  0.
         23    2    1    2    0    0  0.12833085010E+03 -0.97336415480E+02 -0.23361811244E+02  0.18760938459E+03  0.93318390979E+02 0.  0.
        -11    1    4    4    0    0  0.80222915294E+02 -0.30747697769E+01 -0.81756993907E+01  0.80697040889E+02  0.51100000000E-03 0.  1.
         11    1    4    4    0    0  0.48107934810E+02 -0.94261645703E+02 -0.15186111853E+02  0.10691234370E+03  0.51100000000E-03 0. -1.
    9000005    1    3    3    0    0 -0.11605561660E+03  0.11777283435E+03  0.34121923570E+02  0.16883320860E+03  0.10000000000E+01 0.  0.
    9000005    1    3    3    0    0 -0.12275233503E+02 -0.20436418875E+02  0.42944722146E+02  0.49128176581E+02  0.10000000000E+01 0.  0.
<mgrwt>
<rscale>  0 0.19929644E+03</rscale>
<asrwt>0</asrwt>
<pdfrwt beam="1">  1        2 0.35328892E-01 0.20388207E+03</pdfrwt>
<pdfrwt beam="2">  1       -2 0.27066611E-01 0.20388207E+03</pdfrwt>
<totfact> 0.17874227E+03</totfact>
</mgrwt>
</event>
<event>
 8    2  0.8128359E-004  0.1600908E+03  0.7818608E-02  0.1197235E+00
          2   -1    0    0  501    0  0.00000000000E+00  0.00000000000E+00  0.86220956417E+03  0.86220956417E+03  0.25500000000E-02 0. -1.
         -2   -1    0    0    0  501 -0.00000000000E+00 -0.00000000000E+00 -0.29896481416E+02  0.29896481525E+02  0.25500000000E-02 0.  1.
         25    2    1    2    0    0  0.15628873122E+02  0.98793423560E+02  0.26545849057E+03  0.30999560949E+03  0.12499866190E+03 0.  0.
         23    2    1    2    0    0 -0.15628873122E+02 -0.98793423560E+02  0.56685459218E+03  0.58211043620E+03  0.86741161187E+02 0.  0.
        -11    1    4    4    0    0 -0.10770121704E+02 -0.10372518818E+03  0.35146334258E+03  0.36660795321E+03  0.51100000000E-03 0.  1.
         11    1    4    4    0    0 -0.48587514176E+01  0.49317646171E+01  0.21539124960E+03  0.21550248299E+03  0.51100000000E-03 0. -1.
    9000005    1    3    3    0    0 -0.36614482534E+02  0.41434388152E+01  0.13810136234E+03  0.14293626096E+03  0.10000000000E+01 0.  0.
    9000005    1    3    3    0    0  0.52243355655E+02  0.94649984745E+02  0.12735712823E+03  0.16705934853E+03  0.10000000000E+01 0.  0.
<mgrwt>
<rscale>  0 0.15266613E+03</rscale>
<asrwt>0</asrwt>
<pdfrwt beam="1">  1        2 0.13264761E+00 0.16009081E+03</pdfrwt>
<pdfrwt beam="2">  1       -2 0.45994591E-02 0.16009081E+03</pdfrwt>
<totfact> 0.69783235E+03</totfact>
</mgrwt>
</event>
<event>
 8    2  0.8128359E-004  0.1323817E+03  0.7818608E-02  0.1236948E+00
         -2   -1    0    0    0  501 -0.00000000000E+00  0.00000000000E+00  0.61021295365E+02  0.61021295418E+02  0.25500000000E-02 0.  1.
          2   -1    0    0  501    0  0.00000000000E+00 -0.00000000000E+00 -0.25379474987E+03  0.25379474988E+03  0.25500000000E-02 0. -1.
         25    2    1    2    0    0  0.31455138387E+02  0.30171594285E+02 -0.16150855789E+03  0.20882989893E+03  0.12500064633E+03 0.  0.
         23    2    1    2    0    0 -0.31455138387E+02 -0.30171594285E+02 -0.31264896614E+02  0.10598614637E+03  0.91410166992E+02 0.  0.
        -11    1    4    4    0    0 -0.46983801270E+02  0.12323869535E+02  0.38338187334E+01  0.48724259958E+02  0.51100000000E-03 0.  1.
         11    1    4    4    0    0  0.15528662883E+02 -0.42495463820E+02 -0.35098715347E+02  0.57261886412E+02  0.51100000000E-03 0. -1.
    9000005    1    3    3    0    0  0.76457181541E+02 -0.26569029781E+01 -0.88369562407E+02  0.11688857644E+03  0.10000000000E+01 0.  0.
    9000005    1    3    3    0    0 -0.45002043155E+02  0.32828497263E+02 -0.73138995486E+02  0.91941322491E+02  0.10000000000E+01 0.  0.
<mgrwt>
<rscale>  0 0.12380578E+03</rscale>
<asrwt>0</asrwt>
<pdfrwt beam="2">  1        2 0.39045346E-01 0.13238169E+03</pdfrwt>
<pdfrwt beam="1">  1       -2 0.93878917E-02 0.13238169E+03</pdfrwt>
<totfact> 0.90978219E+03</totfact>
</mgrwt>
</event>
<event>
 8    2  0.8128359E-004  0.1476841E+03  0.7818608E-02  0.1212995E+00
          2   -1    0    0  501    0  0.00000000000E+00  0.00000000000E+00  0.11019918301E+04  0.11019918301E+04  0.25500000000E-02 0.  1.
         -2   -1    0    0    0  501 -0.00000000000E+00 -0.00000000000E+00 -0.48331730256E+02  0.48331730323E+02  0.25500000000E-02 0. -1.
         25    2    1    2    0    0  0.30428184368E+02  0.72523652602E+02  0.77466608542E+02  0.16676827487E+03  0.12500010990E+03 0.  0.
         23    2    1    2    0    0 -0.30428184368E+02 -0.72523652602E+02  0.97619349127E+03  0.98355528552E+03  0.90783878989E+02 0.  0.
        -11    1    4    4    0    0 -0.68287656927E+01  0.77817075237E+01  0.12486882277E+02  0.16220642470E+02  0.51100000000E-03 0. -1.
         11    1    4    4    0    0 -0.23599418675E+02 -0.80305360126E+02  0.96370660900E+03  0.96733464305E+03  0.51100000000E-03 0.  1.
    9000005    1    3    3    0    0 -0.25023340588E+02 -0.15510893162E+02  0.51817819683E+02  0.59605719671E+02  0.10000000000E+01 0.  0.
    9000005    1    3    3    0    0  0.55451524956E+02  0.88034545764E+02  0.25648788860E+02  0.10716255520E+03  0.10000000000E+01 0.  0.
<mgrwt>
<rscale>  0 0.14024850E+03</rscale>
<asrwt>0</asrwt>
<pdfrwt beam="1">  1        2 0.16953719E+00 0.14768406E+03</pdfrwt>
<pdfrwt beam="2">  1       -2 0.74356513E-02 0.14768406E+03</pdfrwt>
<totfact> 0.23983564E+03</totfact>
</mgrwt>
</event>
<event>
 8    2  0.8128359E-004  0.1390995E+03  0.7818608E-02  0.1226018E+00
         -2   -1    0    0    0  501 -0.00000000000E+00  0.00000000000E+00  0.10751479609E+02  0.10751479911E+02  0.25500000000E-02 0.  1.
          2   -1    0    0  501    0  0.00000000000E+00 -0.00000000000E+00 -0.21863767694E+04  0.21863767694E+04  0.25500000000E-02 0. -1.
         25    2    1    2    0    0 -0.38936860379E+02 -0.47007520676E+02 -0.18142703667E+04  0.18195949090E+04  0.12499153371E+03 0.  0.
         23    2    1    2    0    0  0.38936860379E+02  0.47007520676E+02 -0.36135492313E+03  0.37753334029E+03  0.90709737426E+02 0.  0.
        -11    1    4    4    0    0  0.31457691371E+02  0.91471675149E+01 -0.31721265433E+03  0.31889986687E+03  0.51100000000E-03 0. -1.
         11    1    4    4    0    0  0.74791690084E+01  0.37860353161E+02 -0.44142268794E+02  0.58633473418E+02  0.51100000000E-03 0.  1.
    9000005    1    3    3    0    0  0.11002966305E+02  0.13228285840E+02 -0.39453535170E+02  0.43053852919E+02  0.10000000000E+01 0.  0.
    9000005    1    3    3    0    0 -0.49939826684E+02 -0.60235806516E+02 -0.17748168315E+04  0.17765410561E+04  0.10000000000E+01 0.  0.
<mgrwt>
<rscale>  0 0.13097352E+03</rscale>
<asrwt>0</asrwt>
<pdfrwt beam="2">  1        2 0.33636530E+00 0.13909950E+03</pdfrwt>
<pdfrwt beam="1">  1       -2 0.16540755E-02 0.13909950E+03</pdfrwt>
<totfact> 0.60154369E+03</totfact>
</mgrwt>
</event>
<event>
 8    2  0.8128359E-004  0.1346618E+03  0.7818608E-02  0.1232846E+00
         -2   -1    0    0    0  501 -0.00000000000E+00  0.00000000000E+00  0.14261373792E+02  0.14261374020E+02  0.25500000000E-02 0.  1.
          2   -1    0    0  501    0  0.00000000000E+00 -0.00000000000E+00 -0.13790024775E+04  0.13790024775E+04  0.25500000000E-02 0. -1.
         25    2    1    2    0    0 -0.26561804244E+00  0.50122388073E+02 -0.11059242381E+04  0.11140925495E+04  0.12498585515E+03 0.  0.
         23    2    1    2    0    0  0.26561804244E+00 -0.50122388073E+02 -0.25881686557E+03  0.27917130204E+03  0.91859249054E+02 0.  0.
        -11    1    4    4    0    0 -0.19659491617E+01 -0.31369422387E+02 -0.25837614751E+03  0.26028088524E+03  0.51100000000E-03 0. -1.
         11    1    4    4    0    0  0.22315672041E+01 -0.18752965685E+02 -0.44071806193E+00  0.18890416799E+02  0.51100000000E-03 0.  1.
    9000005    1    3    3    0    0  0.42221670422E+02  0.53819708964E+02 -0.33104736009E+03  0.33804228308E+03  0.10000000000E+01 0.  0.
    9000005    1    3    3    0    0 -0.42487288464E+02 -0.36973208917E+01 -0.77487687804E+03  0.77605026640E+03  0.10000000000E+01 0.  0.
<mgrwt>
<rscale>  0 0.12643351E+03</rscale>
<asrwt>0</asrwt>
<pdfrwt beam="2">  1        2 0.21215412E+00 0.13466176E+03</pdfrwt>
<pdfrwt beam="1">  1       -2 0.21940586E-02 0.13466176E+03</pdfrwt>
<totfact> 0.10397600E+04</totfact>
</mgrwt>
</event>
<event>
 8    2  0.8128359E-004  0.1332138E+03  0.7818608E-02  0.1235426E+00
          2   -1    0    0  501    0  0.00000000000E+00  0.00000000000E+00  0.38170445672E+03  0.38170445673E+03  0.25500000000E-02 0. -1.
         -2   -1    0    0    0  501 -0.00000000000E+00 -0.00000000000E+00 -0.37004500499E+02  0.37004500587E+02  0.25500000000E-02 0.  1.
         25    2    1    2    0    0  0.37779206942E+02  0.26342708870E+02  0.22101561314E+03  0.25805779657E+03  0.12499887331E+03 0.  0.
         23    2    1    2    0    0 -0.37779206942E+02 -0.26342708870E+02  0.12368434308E+03  0.16065116075E+03  0.91595698256E+02 0.  0.
        -11    1    4    4    0    0  0.90449282968E+00  0.14584713991E+02  0.97423489310E+02  0.98513289758E+02  0.51100000000E-03 0. -1.
         11    1    4    4    0    0 -0.38683699772E+02 -0.40927422861E+02  0.26260853767E+02  0.62137870988E+02  0.51100000000E-03 0.  1.
    9000005    1    3    3    0    0  0.13541704698E+02  0.74811833841E+02  0.15498243730E+03  0.17262892029E+03  0.10000000000E+01 0.  0.
    9000005    1    3    3    0    0  0.24237502244E+02 -0.48469124971E+02  0.66033175848E+02  0.85428876283E+02  0.10000000000E+01 0.  0.
<mgrwt>
<rscale>  0 0.12477207E+03</rscale>
<asrwt>0</asrwt>
<pdfrwt beam="1">  1        2 0.58723762E-01 0.13321383E+03</pdfrwt>
<pdfrwt beam="2">  1       -2 0.56930001E-02 0.13321383E+03</pdfrwt>
<totfact> 0.12722655E+04</totfact>
</mgrwt>
</event>
<event>
 8    2  0.8128359E-004  0.1319063E+03  0.7818608E-02  0.1236835E+00
          2   -1    0    0  501    0  0.00000000000E+00  0.00000000000E+00  0.13172590906E+03  0.13172590909E+03  0.25500000000E-02 0.  1.
         -2   -1    0    0    0  501 -0.00000000000E+00 -0.00000000000E+00 -0.12594775640E+03  0.12594775642E+03  0.25500000000E-02 0. -1.
         25    2    1    2    0    0  0.39288391818E+02  0.15037468141E+02  0.56163815528E+02  0.14336542790E+03  0.12501827291E+03 0.  0.
         23    2    1    2    0    0 -0.39288391818E+02 -0.15037468141E+02 -0.50385662862E+02  0.11430823762E+03  0.93583946193E+02 0.  0.
        -11    1    4    4    0    0 -0.84277085647E+01 -0.32109980528E+00 -0.72890198027E+02  0.73376497228E+02  0.51100000000E-03 0. -1.
         11    1    4    4    0    0 -0.30860683253E+02 -0.14716368335E+02  0.22504535166E+02  0.40931740387E+02  0.51100000000E-03 0.  1.
    9000005    1    3    3    0    0  0.84377380135E+02  0.60707835648E-01  0.35637676810E+02  0.91600163604E+02  0.10000000000E+01 0.  0.
    9000005    1    3    3    0    0 -0.45088988317E+02  0.14976760305E+02  0.20526138718E+02  0.51765264293E+02  0.10000000000E+01 0.  0.
<mgrwt>
<rscale>  0 0.12387698E+03</rscale>
<asrwt>0</asrwt>
<pdfrwt beam="1">  1        2 0.20265524E-01 0.13190630E+03</pdfrwt>
<pdfrwt beam="2">  1       -2 0.19376578E-01 0.13190630E+03</pdfrwt>
<totfact> 0.57635198E+03</totfact>
</mgrwt>
</event>
<event>
 8    2  0.8128359E-004  0.1506509E+03  0.7818608E-02  0.1208538E+00
          2   -1    0    0  501    0  0.00000000000E+00  0.00000000000E+00  0.43392686248E+03  0.43392686248E+03  0.25500000000E-02 0.  1.
         -2   -1    0    0    0  501 -0.00000000000E+00 -0.00000000000E+00 -0.44923304795E+02  0.44923304868E+02  0.25500000000E-02 0. -1.
         25    2    1    2    0    0  0.30655179260E+02 -0.78322253568E+02  0.25341599271E+03  0.29481412745E+03  0.12498635512E+03 0.  0.
         23    2    1    2    0    0 -0.30655179260E+02  0.78322253568E+02  0.13558756497E+03  0.18403603990E+03  0.91712380768E+02 0.  0.
        -11    1    4    4    0    0  0.22681518637E+02  0.56103819770E+02  0.40658193144E+02  0.72905271074E+02  0.51100000000E-03 0. -1.
         11    1    4    4    0    0 -0.53336697896E+02  0.22218433799E+02  0.94929371829E+02  0.11113076882E+03  0.51100000000E-03 0.  1.
    9000005    1    3    3    0    0  0.62044944647E+02  0.23674569905E+01  0.12980596132E+03  0.14389498811E+03  0.10000000000E+01 0.  0.
    9000005    1    3    3    0    0 -0.31389765387E+02 -0.80689710559E+02  0.12361003139E+03  0.15091913935E+03  0.10000000000E+01 0.  0.
<mgrwt>
<rscale>  0 0.14362126E+03</rscale>
<asrwt>0</asrwt>
<pdfrwt beam="1">  1        2 0.66757977E-01 0.15065094E+03</pdfrwt>
<pdfrwt beam="2">  1       -2 0.69112778E-02 0.15065094E+03</pdfrwt>
<totfact> 0.83265595E+03</totfact>
</mgrwt>
</event>
<event>
 8    2  0.8128359E-004  0.1383585E+03  0.7818608E-02  0.1227108E+00
          2   -1    0    0  501    0  0.00000000000E+00  0.00000000000E+00  0.24682170261E+03  0.24682170262E+03  0.25500000000E-02 0. -1.
         -2   -1    0    0    0  501 -0.00000000000E+00 -0.00000000000E+00 -0.10075802940E+03  0.10075802944E+03  0.25500000000E-02 0.  1.
         25    2    1    2    0    0  0.58272507980E+02  0.11049362307E+02 -0.29183438780E+02  0.14140278228E+03  0.12500120057E+03 0.  0.
         23    2    1    2    0    0 -0.58272507980E+02 -0.11049362307E+02  0.17524711198E+03  0.20617694978E+03  0.90992366531E+02 0.  0.
        -11    1    4    4    0    0 -0.63387325517E+02  0.50696843341E+01  0.53043073120E+02  0.82808347053E+02  0.51100000000E-03 0.  1.
         11    1    4    4    0    0  0.51148175369E+01 -0.16119046642E+02  0.12220403886E+03  0.12336860272E+03  0.51100000000E-03 0. -1.
    9000005    1    3    3    0    0  0.29792650499E+02  0.52994371892E+02 -0.57190250813E+02  0.83472931326E+02  0.10000000000E+01 0.  0.
    9000005    1    3    3    0    0  0.28479857481E+02 -0.41945009585E+02  0.28006812034E+02  0.57929850954E+02  0.10000000000E+01 0.  0.
<mgrwt>
<rscale>  0 0.13023496E+03</rscale>
<asrwt>0</asrwt>
<pdfrwt beam="1">  1        2 0.37972569E-01 0.13835850E+03</pdfrwt>
<pdfrwt beam="2">  1       -2 0.15501235E-01 0.13835850E+03</pdfrwt>
<totfact> 0.42152424E+03</totfact>
</mgrwt>
</event>
<event>
 8    2  0.8128359E-004  0.1495398E+03  0.7818608E-02  0.1209840E+00
         -2   -1    0    0    0  501 -0.00000000000E+00  0.00000000000E+00  0.22440870912E+02  0.22440871057E+02  0.25500000000E-02 0.  1.
          2   -1    0    0  501    0  0.00000000000E+00 -0.00000000000E+00 -0.84290525820E+03  0.84290525820E+03  0.25500000000E-02 0. -1.
         25    2    1    2    0    0  0.51404604867E+02 -0.64001644666E+02 -0.49747110900E+03  0.51946092747E+03  0.12499402767E+03 0.  0.
         23    2    1    2    0    0 -0.51404604867E+02  0.64001644666E+02 -0.32299327829E+03  0.34588520179E+03  0.92591960123E+02 0.  0.
        -11    1    4    4    0    0 -0.21919567119E+02 -0.45767489123E+01 -0.10742998785E+02  0.24835983501E+02  0.51100000000E-03 0.  1.
         11    1    4    4    0    0 -0.29485037748E+02  0.68578393578E+02 -0.31225027950E+03  0.32104921829E+03  0.51100000000E-03 0. -1.
    9000005    1    3    3    0    0  0.14667056208E+02 -0.31333475137E+02 -0.21050805897E+02  0.40509821413E+02  0.10000000000E+01 0.  0.
    9000005    1    3    3    0    0  0.36737548659E+02 -0.32668169529E+02 -0.47642030310E+03  0.47895110605E+03  0.10000000000E+01 0.  0.
<mgrwt>
<rscale>  0 0.14262520E+03</rscale>
<asrwt>0</asrwt>
<pdfrwt beam="2">  1        2 0.12967771E+00 0.14953980E+03</pdfrwt>
<pdfrwt beam="1">  1       -2 0.34524423E-02 0.14953980E+03</pdfrwt>
<totfact> 0.10977985E+04</totfact>
</mgrwt>
</event>
<event>
 8    2  0.8128359E-004  0.2306193E+03  0.7818608E-02  0.1129207E+00
         -2   -1    0    0    0  501 -0.00000000000E+00  0.00000000000E+00  0.23211756806E+02  0.23211756946E+02  0.25500000000E-02 0. -1.
          2   -1    0    0  501    0  0.00000000000E+00 -0.00000000000E+00 -0.21403559872E+04  0.21403559872E+04  0.25500000000E-02 0.  1.
         25    2    1    2    0    0  0.12616374127E+03  0.14711430887E+03 -0.11701203866E+04  0.11926302746E+04  0.12500137240E+03 0.  0.
         23    2    1    2    0    0 -0.12616374127E+03 -0.14711430887E+03 -0.94702384371E+03  0.97093746954E+03  0.91134514358E+02 0.  0.
        -11    1    4    4    0    0 -0.70565382761E+02 -0.11451519214E+03 -0.44767090483E+03  0.46744244727E+03  0.51100000000E-03 0. -1.
         11    1    4    4    0    0 -0.55598358510E+02 -0.32599116725E+02 -0.49935293888E+03  0.50349502227E+03  0.51100000000E-03 0.  1.
    9000005    1    3    3    0    0  0.12786059180E+03  0.16699042090E+03 -0.10494281095E+04  0.10702964490E+04  0.10000000000E+01 0.  0.
    9000005    1    3    3    0    0 -0.16968505262E+01 -0.19876112036E+02 -0.12069227711E+03  0.12233382560E+03  0.10000000000E+01 0.  0.
<mgrwt>
<rscale>  0 0.22639007E+03</rscale>
<asrwt>0</asrwt>
<pdfrwt beam="2">  1        2 0.32928538E+00 0.23061928E+03</pdfrwt>
<pdfrwt beam="1">  1       -2 0.35710412E-02 0.23061928E+03</pdfrwt>
<totfact> 0.20476764E+03</totfact>
</mgrwt>
</event>
<event>
 8    2  0.8128359E-004  0.1279496E+03  0.7818608E-02  0.1244074E+00
         -2   -1    0    0    0  501 -0.00000000000E+00  0.00000000000E+00  0.21639557157E+02  0.21639557307E+02  0.25500000000E-02 0.  1.
          2   -1    0    0  501    0  0.00000000000E+00 -0.00000000000E+00 -0.60799626482E+03  0.60799626482E+03  0.25500000000E-02 0. -1.
         25    2    1    2    0    0 -0.27269770642E+02  0.15147393750E+01 -0.39266902968E+03  0.41298919188E+03  0.12500068363E+03 0.  0.
         23    2    1    2    0    0  0.27269770642E+02 -0.15147393750E+01 -0.19368767798E+03  0.21664663025E+03  0.93139202128E+02 0.  0.
        -11    1    4    4    0    0 -0.26866786754E+01 -0.67016408087E+00  0.10199543252E+02  0.10568729583E+02  0.51100000000E-03 0.  1.
         11    1    4    4    0    0  0.29956449318E+02 -0.84457529410E+00 -0.20388722123E+03  0.20607790067E+03  0.51100000000E-03 0. -1.
    9000005    1    3    3    0    0 -0.46456427146E+02 -0.52528831085E+02 -0.19844691859E+03  0.21047483749E+03  0.10000000000E+01 0.  0.
    9000005    1    3    3    0    0  0.19186656503E+02  0.54043570460E+02 -0.19422211110E+03  0.20251435439E+03  0.10000000000E+01 0.  0.
<mgrwt>
<rscale>  0 0.11940994E+03</rscale>
<asrwt>0</asrwt>
<pdfrwt beam="2">  1        2 0.93537874E-01 0.12794962E+03</pdfrwt>
<pdfrwt beam="1">  1       -2 0.33291631E-02 0.12794962E+03</pdfrwt>
<totfact> 0.16957430E+04</totfact>
</mgrwt>
</event>
<event>
 8    2  0.8128359E-004  0.1417845E+03  0.7818608E-02  0.1221639E+00
          2   -1    0    0  501    0  0.00000000000E+00  0.00000000000E+00  0.19794498993E+04  0.19794498993E+04  0.25500000000E-02 0. -1.
         -2   -1    0    0    0  501 -0.00000000000E+00 -0.00000000000E+00 -0.88992921563E+01  0.88992925216E+01  0.25500000000E-02 0.  1.
         25    2    1    2    0    0  0.66820663300E+02  0.35983337394E+01  0.13632953011E+04  0.13706483560E+04  0.12499955563E+03 0.  0.
         23    2    1    2    0    0 -0.66820663300E+02 -0.35983337394E+01  0.60725530605E+03  0.61770083577E+03  0.91199598351E+02 0.  0.
        -11    1    4    4    0    0 -0.58998540730E+02  0.26307356605E+02  0.22200292336E+03  0.23121029994E+03  0.51100000000E-03 0.  1.
         11    1    4    4    0    0 -0.78221225696E+01 -0.29905690344E+02  0.38525238269E+03  0.38649053582E+03  0.51100000000E-03 0. -1.
    9000005    1    3    3    0    0  0.10354083858E+03  0.10814126156E+02  0.96648024526E+03  0.97207135286E+03  0.10000000000E+01 0.  0.
    9000005    1    3    3    0    0 -0.36720175284E+02 -0.72157924167E+01  0.39681505581E+03  0.39857700316E+03  0.10000000000E+01 0.  0.
<mgrwt>
<rscale>  0 0.13399941E+03</rscale>
<asrwt>0</asrwt>
<pdfrwt beam="1">  1        2 0.30453117E+00 0.14178448E+03</pdfrwt>
<pdfrwt beam="2">  1       -2 0.13691200E-02 0.14178448E+03</pdfrwt>
<totfact> 0.10103801E+04</totfact>
</mgrwt>
</event>
<event>
 8    2  0.8128359E-004  0.1465013E+03  0.7818608E-02  0.1214357E+00
          2   -1    0    0  501    0  0.00000000000E+00  0.00000000000E+00  0.82092206627E+03  0.82092206628E+03  0.25500000000E-02 0. -1.
         -2   -1    0    0    0  501 -0.00000000000E+00 -0.00000000000E+00 -0.21717741139E+02  0.21717741289E+02  0.25500000000E-02 0.  1.
         25    2    1    2    0    0  0.30445559740E+02  0.70075870184E+02  0.40344514143E+03  0.42922095362E+03  0.12500034077E+03 0.  0.
         23    2    1    2    0    0 -0.30445559740E+02 -0.70075870184E+02  0.39575918370E+03  0.41341885394E+03  0.91936160583E+02 0.  0.
        -11    1    4    4    0    0 -0.52948380140E+02 -0.52327340724E+02  0.16661097305E+03  0.18248533609E+03  0.51100000000E-03 0.  1.
         11    1    4    4    0    0  0.22502820400E+02 -0.17748529460E+02  0.22914821065E+03  0.23093351785E+03  0.51100000000E-03 0. -1.
    9000005    1    3    3    0    0  0.24088649656E+02  0.10569078670E+03  0.26985768284E+03  0.29081776841E+03  0.10000000000E+01 0.  0.
    9000005    1    3    3    0    0  0.63569100844E+01 -0.35614916511E+02  0.13358745859E+03  0.13840318521E+03  0.10000000000E+01 0.  0.
<mgrwt>
<rscale>  0 0.13923857E+03</rscale>
<asrwt>0</asrwt>
<pdfrwt beam="1">  1        2 0.12629568E+00 0.14650135E+03</pdfrwt>
<pdfrwt beam="2">  1       -2 0.33411916E-02 0.14650135E+03</pdfrwt>
<totfact> 0.11900783E+04</totfact>
</mgrwt>
</event>
<event>
 8    2  0.8128359E-004  0.1270235E+03  0.7818608E-02  0.1246041E+00
         -2   -1    0    0    0  501 -0.00000000000E+00  0.00000000000E+00  0.10934624111E+02  0.10934624409E+02  0.25500000000E-02 0.  1.
          2   -1    0    0  501    0  0.00000000000E+00 -0.00000000000E+00 -0.12239068932E+04  0.12239068932E+04  0.25500000000E-02 0. -1.
         25    2    1    2    0    0  0.22550754726E+02 -0.56366022950E+00 -0.85522253209E+03  0.86460427134E+03  0.12500444939E+03 0.  0.
         23    2    1    2    0    0 -0.22550754726E+02  0.56366022950E+00 -0.35774973701E+03  0.37023724629E+03  0.92638490678E+02 0.  0.
        -11    1    4    4    0    0  0.57644895936E+01  0.30387560913E+02 -0.28496007835E+03  0.28663370258E+03  0.51100000000E-03 0. -1.
         11    1    4    4    0    0 -0.28315244319E+02 -0.29823900684E+02 -0.72789658660E+02  0.83603543711E+02  0.51100000000E-03 0.  1.
    9000005    1    3    3    0    0  0.53125153473E+02 -0.96405147520E+01 -0.79148927107E+03  0.79332936897E+03  0.10000000000E+01 0.  0.
    9000005    1    3    3    0    0 -0.30574398747E+02  0.90768545225E+01 -0.63733261019E+02  0.71274902363E+02  0.10000000000E+01 0.  0.
<mgrwt>
<rscale>  0 0.11823280E+03</rscale>
<asrwt>0</asrwt>
<pdfrwt beam="2">  1        2 0.18829326E+00 0.12702349E+03</pdfrwt>
<pdfrwt beam="1">  1       -2 0.16822509E-02 0.12702349E+03</pdfrwt>
<totfact> 0.18456414E+04</totfact>
</mgrwt>
</event>
<event>
 8    2  0.8128359E-004  0.1345341E+03  0.7818608E-02  0.1236770E+00
         -2   -1    0    0    0  501 -0.00000000000E+00  0.00000000000E+00  0.29500471878E+03  0.29500471880E+03  0.25500000000E-02 0.  1.
          2   -1    0    0  501    0  0.00000000000E+00 -0.00000000000E+00 -0.63213734739E+02  0.63213734791E+02  0.25500000000E-02 0. -1.
         25    2    1    2    0    0  0.29279186157E+02 -0.40210110552E+02  0.35186568134E+02  0.13905944002E+03  0.12500123819E+03 0.  0.
         23    2    1    2    0    0 -0.29279186157E+02  0.40210110552E+02  0.19660441591E+03  0.21915901357E+03  0.83085817926E+02 0.  0.
        -11    1    4    4    0    0 -0.37409070121E+02 -0.99148512692E+01  0.12853745732E+03  0.13423718091E+03  0.51100000000E-03 0.  1.
         11    1    4    4    0    0  0.81298839648E+01  0.50124961821E+02  0.68066958590E+02  0.84921832663E+02  0.51100000000E-03 0. -1.
    9000005    1    3    3    0    0  0.42344359362E+02  0.36144330441E+02  0.49648762242E+01  0.55902659944E+02  0.10000000000E+01 0.  0.
    9000005    1    3    3    0    0 -0.13065173206E+02 -0.76354440993E+02  0.30221691910E+02  0.83156780073E+02  0.10000000000E+01 0.  0.
<mgrwt>
<rscale>  0 0.12391804E+03</rscale>
<asrwt>0</asrwt>
<pdfrwt beam="2">  1        2 0.97251899E-02 0.13453413E+03</pdfrwt>
<pdfrwt beam="1">  1       -2 0.45385342E-01 0.13453413E+03</pdfrwt>
<totfact> 0.29650789E+03</totfact>
</mgrwt>
</event>
<event>
 8    2  0.8128359E-004  0.1259482E+03  0.7818608E-02  0.1248537E+00
         -2   -1    0    0    0  501 -0.00000000000E+00  0.00000000000E+00  0.16024812891E+02  0.16024813094E+02  0.25500000000E-02 0.  1.
          2   -1    0    0  501    0  0.00000000000E+00 -0.00000000000E+00 -0.75381475931E+03  0.75381475931E+03  0.25500000000E-02 0. -1.
         25    2    1    2    0    0 -0.12640386327E+02  0.88821379967E+01 -0.39073892099E+03  0.41053605229E+03  0.12499709640E+03 0.  0.
         23    2    1    2    0    0  0.12640386327E+02 -0.88821379967E+01 -0.34705102543E+03  0.35930352012E+03  0.91738397517E+02 0.  0.
        -11    1    4    4    0    0  0.16442511598E+02 -0.28023450426E+02 -0.39553695099E+02  0.51187544947E+02  0.51100000000E-03 0.  1.
         11    1    4    4    0    0 -0.38021252703E+01  0.19141312429E+02 -0.30749733033E+03  0.30811597517E+03  0.51100000000E-03 0. -1.
    9000005    1    3    3    0    0 -0.51538693188E+01  0.45291458332E+02 -0.35830375097E+03  0.36119310144E+03  0.10000000000E+01 0.  0.
    9000005    1    3    3    0    0 -0.74865170087E+01 -0.36409320335E+02 -0.32435170021E+02  0.49342950849E+02  0.10000000000E+01 0.  0.
<mgrwt>
<rscale>  0 0.11676155E+03</rscale>
<asrwt>0</asrwt>
<pdfrwt beam="2">  1        2 0.11597147E+00 0.12594819E+03</pdfrwt>
<pdfrwt beam="1">  1       -2 0.24653564E-02 0.12594819E+03</pdfrwt>
<totfact> 0.20435171E+04</totfact>
</mgrwt>
</event>
<event>
 8    2  0.8128359E-004  0.2449000E+03  0.7818608E-02  0.1119180E+00
          2   -1    0    0  501    0  0.00000000000E+00  0.00000000000E+00  0.84076511261E+03  0.84076511261E+03  0.25500000000E-02 0. -1.
         -2   -1    0    0    0  501 -0.00000000000E+00 -0.00000000000E+00 -0.67514577492E+02  0.67514577540E+02  0.25500000000E-02 0.  1.
         25    2    1    2    0    0  0.15114537591E+03 -0.14665719903E+03  0.35529450399E+03  0.43152079225E+03  0.12499100322E+03 0.  0.
         23    2    1    2    0    0 -0.15114537591E+03  0.14665719903E+03  0.41795603113E+03  0.47675889791E+03  0.90876532112E+02 0.  0.
        -11    1    4    4    0    0 -0.35813793186E+02  0.37256034395E+02  0.35823396682E+02  0.62880486888E+02  0.51100000000E-03 0.  1.
         11    1    4    4    0    0 -0.11533158273E+03  0.10940116464E+03  0.38213263444E+03  0.41387841102E+03  0.51100000000E-03 0. -1.
    9000005    1    3    3    0    0  0.35756732138E+02  0.15683910205E+02  0.10250173642E+03  0.10969108853E+03  0.10000000000E+01 0.  0.
    9000005    1    3    3    0    0  0.11538864378E+03 -0.16234110924E+03  0.25279276757E+03  0.32182970372E+03  0.10000000000E+01 0.  0.
<mgrwt>
<rscale>  0 0.24092229E+03</rscale>
<asrwt>0</asrwt>
<pdfrwt beam="1">  1        2 0.12934849E+00 0.24490000E+03</pdfrwt>
<pdfrwt beam="2">  1       -2 0.10386858E-01 0.24490000E+03</pdfrwt>
<totfact> 0.20721361E+03</totfact>
</mgrwt>
</event>
<event>
 8    2  0.8128359E-004  0.1569262E+03  0.7818608E-02  0.1200583E+00
         -2   -1    0    0    0  501 -0.00000000000E+00  0.00000000000E+00  0.49684209945E+02  0.49684210011E+02  0.25500000000E-02 0.  1.
          2   -1    0    0  501    0  0.00000000000E+00 -0.00000000000E+00 -0.55101978991E+03  0.55101978992E+03  0.25500000000E-02 0. -1.
         25    2    1    2    0    0  0.54622533581E+02 -0.77567603021E+02 -0.41601641566E+03  0.44462959429E+03  0.12500185520E+03 0.  0.
         23    2    1    2    0    0 -0.54622533581E+02  0.77567603021E+02 -0.85319164304E+02  0.15607440564E+03  0.89886072810E+02 0.  0.
        -11    1    4    4    0    0 -0.47241766658E+02  0.92618666280E+02 -0.46707219166E+02  0.11398055178E+03  0.51100000000E-03 0.  1.
         11    1    4    4    0    0 -0.73807669231E+01 -0.15051063259E+02 -0.38611945138E+02  0.42093853865E+02  0.51100000000E-03 0. -1.
    9000005    1    3    3    0    0  0.73518125201E+02 -0.11346853320E+02 -0.30535506767E+03  0.31428710309E+03  0.10000000000E+01 0.  0.
    9000005    1    3    3    0    0 -0.18895591620E+02 -0.66220749701E+02 -0.11066134799E+03  0.13034249120E+03  0.10000000000E+01 0.  0.
<mgrwt>
<rscale>  0 0.14991050E+03</rscale>
<asrwt>0</asrwt>
<pdfrwt beam="2">  1        2 0.84772271E-01 0.15692615E+03</pdfrwt>
<pdfrwt beam="1">  1       -2 0.76437250E-02 0.15692615E+03</pdfrwt>
<totfact> 0.54953648E+03</totfact>
</mgrwt>
</event>
<event>
 8    2  0.8128359E-004  0.1523987E+03  0.7818608E-02  0.1207917E+00
          2   -1    0    0  501    0  0.00000000000E+00  0.00000000000E+00  0.14623436844E+03  0.14623436846E+03  0.25500000000E-02 0. -1.
         -2   -1    0    0    0  501 -0.00000000000E+00 -0.00000000000E+00 -0.13075227023E+03  0.13075227025E+03  0.25500000000E-02 0.  1.
         25    2    1    2    0    0 -0.36770278565E+02  0.79047521850E+02 -0.92725191201E+01  0.15268049981E+03  0.12499916526E+03 0.  0.
         23    2    1    2    0    0  0.36770278565E+02 -0.79047521850E+02  0.24754617332E+02  0.12430613891E+03  0.85080320842E+02 0.  0.
        -11    1    4    4    0    0  0.59445633593E+02 -0.27898495067E+02  0.98162185546E+01  0.66396291518E+02  0.51100000000E-03 0.  1.
         11    1    4    4    0    0 -0.22675355029E+02 -0.51149026783E+02  0.14938398777E+02  0.57909847390E+02  0.51100000000E-03 0. -1.
    9000005    1    3    3    0    0 -0.59826428250E+02  0.18952179387E+02  0.37495120353E+02  0.73111358016E+02  0.10000000000E+01 0.  0.
    9000005    1    3    3    0    0  0.23056149685E+02  0.60095342464E+02 -0.46767639473E+02  0.79569141795E+02  0.10000000000E+01 0.  0.
<mgrwt>
<rscale>  0 0.14409944E+03</rscale>
<asrwt>0</asrwt>
<pdfrwt beam="1">  1        2 0.22497595E-01 0.15239867E+03</pdfrwt>
<pdfrwt beam="2">  1       -2 0.20115734E-01 0.15239867E+03</pdfrwt>
<totfact> 0.48550962E+03</totfact>
</mgrwt>
</event>
<event>
 8    2  0.8128359E-004  0.1432306E+03  0.7818608E-02  0.1219765E+00
         -2   -1    0    0    0  501 -0.00000000000E+00  0.00000000000E+00  0.12564170639E+03  0.12564170641E+03  0.25500000000E-02 0.  1.
          2   -1    0    0  501    0  0.00000000000E+00 -0.00000000000E+00 -0.17000541467E+03  0.17000541469E+03  0.25500000000E-02 0. -1.
         25    2    1    2    0    0 -0.27046122870E+02  0.64495087953E+02  0.45614910086E+02  0.15031873017E+03  0.12499556586E+03 0.  0.
         23    2    1    2    0    0  0.27046122870E+02 -0.64495087953E+02 -0.89978618372E+02  0.14532839094E+03  0.90183592274E+02 0.  0.
        -11    1    4    4    0    0  0.32499998153E+02 -0.64623851788E+02 -0.10604177127E+03  0.12836412799E+03  0.51100000000E-03 0. -1.
         11    1    4    4    0    0 -0.54538752836E+01  0.12876383461E+00  0.16063152903E+02  0.16964262943E+02  0.51100000000E-03 0.  1.
    9000005    1    3    3    0    0  0.36535487704E+02 -0.16210679430E+02  0.72063772545E+01  0.40627082870E+02  0.10000000000E+01 0.  0.
    9000005    1    3    3    0    0 -0.63581610574E+02  0.80705767383E+02  0.38408532832E+02  0.10969164730E+03  0.10000000000E+01 0.  0.
<mgrwt>
<rscale>  0 0.13532270E+03</rscale>
<asrwt>0</asrwt>
<pdfrwt beam="2">  1        2 0.26154679E-01 0.14323059E+03</pdfrwt>
<pdfrwt beam="1">  1       -2 0.19329493E-01 0.14323059E+03</pdfrwt>
<totfact> 0.43785698E+03</totfact>
</mgrwt>
</event>
<event>
 8    2  0.8128359E-004  0.1860951E+03  0.7818608E-02  0.1167298E+00
         -2   -1    0    0    0  501 -0.00000000000E+00  0.00000000000E+00  0.25667240805E+02  0.25667240932E+02  0.25500000000E-02 0.  1.
          2   -1    0    0  501    0  0.00000000000E+00 -0.00000000000E+00 -0.12219084558E+04  0.12219084558E+04  0.25500000000E-02 0. -1.
         25    2    1    2    0    0  0.64660856430E+02  0.12176204807E+03 -0.54884564344E+03  0.57953680801E+03  0.12499739525E+03 0.  0.
         23    2    1    2    0    0 -0.64660856430E+02 -0.12176204807E+03 -0.64739557154E+03  0.66803888870E+03  0.90265763540E+02 0.  0.
        -11    1    4    4    0    0 -0.58055040045E+02 -0.63784527783E+02 -0.21390799102E+03  0.23064145829E+03  0.51100000000E-03 0.  1.
         11    1    4    4    0    0 -0.66058163849E+01 -0.57977520282E+02 -0.43348758051E+03  0.43739743041E+03  0.51100000000E-03 0. -1.
    9000005    1    3    3    0    0  0.72788767868E+01  0.56417001798E+02 -0.42152975157E+03  0.42535184447E+03  0.10000000000E+01 0.  0.
    9000005    1    3    3    0    0  0.57381979644E+02  0.65345046267E+02 -0.12731589187E+03  0.15418496354E+03  0.10000000000E+01 0.  0.
<mgrwt>
<rscale>  0 0.18052287E+03</rscale>
<asrwt>0</asrwt>
<pdfrwt beam="2">  1        2 0.18798587E+00 0.18609506E+03</pdfrwt>
<pdfrwt beam="1">  1       -2 0.39488072E-02 0.18609506E+03</pdfrwt>
<totfact> 0.53830793E+03</totfact>
</mgrwt>
</event>
<event>
 8    2  0.8128359E-004  0.1333402E+03  0.7818608E-02  0.1235237E+00
          2   -1    0    0  501    0  0.00000000000E+00  0.00000000000E+00  0.14295634720E+04  0.14295634720E+04  0.25500000000E-02 0.  1.
         -2   -1    0    0    0  501 -0.00000000000E+00 -0.00000000000E+00 -0.12116294232E+02  0.12116294500E+02  0.25500000000E-02 0. -1.
         25    2    1    2    0    0 -0.88021348996E+01 -0.45566574107E+02  0.46563128792E+03  0.48434708216E+03  0.12500323777E+03 0.  0.
         23    2    1    2    0    0  0.88021348996E+01  0.45566574107E+02  0.95181588985E+03  0.95733268434E+03  0.91534638730E+02 0.  0.
        -11    1    4    4    0    0  0.21380806533E+02  0.55467682265E+02  0.33004681826E+03  0.33535757768E+03  0.51100000000E-03 0. -1.
         11    1    4    4    0    0 -0.12578671633E+02 -0.99011081589E+01  0.62176907159E+03  0.62197510666E+03  0.51100000000E-03 0.  1.
    9000005    1    3    3    0    0 -0.18371793622E+02 -0.87472082211E+02  0.34040052400E+03  0.35194091082E+03  0.10000000000E+01 0.  0.
    9000005    1    3    3    0    0  0.95696587226E+01  0.41905508105E+02  0.12523076391E+03  0.13240617134E+03  0.10000000000E+01 0.  0.
<mgrwt>
<rscale>  0 0.12489256E+03</rscale>
<asrwt>0</asrwt>
<pdfrwt beam="1">  1        2 0.21993292E+00 0.13334017E+03</pdfrwt>
<pdfrwt beam="2">  1       -2 0.18640447E-02 0.13334017E+03</pdfrwt>
<totfact> 0.12382659E+04</totfact>
</mgrwt>
</event>
<event>
 8    2  0.8128359E-004  0.1537750E+03  0.7818608E-02  0.1204344E+00
          2   -1    0    0  501    0  0.00000000000E+00  0.00000000000E+00  0.53216097692E+02  0.53216097753E+02  0.25500000000E-02 0. -1.
         -2   -1    0    0    0  501 -0.00000000000E+00 -0.00000000000E+00 -0.37550637664E+03  0.37550637665E+03  0.25500000000E-02 0.  1.
         25    2    1    2    0    0  0.52872324481E+02 -0.72301228020E+02 -0.19286248716E+03  0.24666310463E+03  0.12499519175E+03 0.  0.
         23    2    1    2    0    0 -0.52872324481E+02  0.72301228020E+02 -0.12942779179E+03  0.18205936978E+03  0.91493773380E+02 0.  0.
        -11    1    4    4    0    0 -0.33519445116E+02  0.71966921614E+02 -0.36931972812E+02  0.87560045817E+02  0.51100000000E-03 0. -1.
         11    1    4    4    0    0 -0.19352879365E+02  0.33430640622E+00 -0.92495818980E+02  0.94499323963E+02  0.51100000000E-03 0.  1.
    9000005    1    3    3    0    0 -0.35262039485E+02 -0.10745294231E+02 -0.92542608958E+02  0.99619311629E+02  0.10000000000E+01 0.  0.
    9000005    1    3    3    0    0  0.88134363966E+02 -0.61555933788E+02 -0.10031987820E+03  0.14704379300E+03  0.10000000000E+01 0.  0.
<mgrwt>
<rscale>  0 0.14689266E+03</rscale>
<asrwt>0</asrwt>
<pdfrwt beam="1">  1        2 0.81870922E-02 0.15377499E+03</pdfrwt>
<pdfrwt beam="2">  1       -2 0.57770210E-01 0.15377499E+03</pdfrwt>
<totfact> 0.22898469E+03</totfact>
</mgrwt>
</event>
<event>
 8    2  0.8128359E-004  0.1795739E+03  0.7818608E-02  0.1174872E+00
         -2   -1    0    0    0  501 -0.00000000000E+00  0.00000000000E+00  0.22119941037E+02  0.22119941184E+02  0.25500000000E-02 0.  1.
          2   -1    0    0  501    0  0.00000000000E+00 -0.00000000000E+00 -0.13390098764E+04  0.13390098764E+04  0.25500000000E-02 0. -1.
         25    2    1    2    0    0  0.10363511093E+03  0.76692256320E+02 -0.54018779284E+03  0.56925359275E+03  0.12499945172E+03 0.  0.
         23    2    1    2    0    0 -0.10363511093E+03 -0.76692256320E+02 -0.77670214248E+03  0.79187622479E+03  0.84733693783E+02 0.  0.
        -11    1    4    4    0    0 -0.57046449229E+01 -0.18668337224E+02 -0.34073898116E+03  0.34129767516E+03  0.51100000000E-03 0. -1.
         11    1    4    4    0    0 -0.97930466007E+02 -0.58023919096E+02 -0.43596316133E+03  0.45057854964E+03  0.51100000000E-03 0.  1.
    9000005    1    3    3    0    0  0.12206654991E+03  0.29620825070E+02 -0.43091743153E+03  0.44885239075E+03  0.10000000000E+01 0.  0.
    9000005    1    3    3    0    0 -0.18431438978E+02  0.47071431250E+02 -0.10927036131E+03  0.12040120200E+03  0.10000000000E+01 0.  0.
<mgrwt>
<rscale>  0 0.17288550E+03</rscale>
<asrwt>0</asrwt>
<pdfrwt beam="2">  1        2 0.20600146E+00 0.17957394E+03</pdfrwt>
<pdfrwt beam="1">  1       -2 0.34030689E-02 0.17957394E+03</pdfrwt>
<totfact> 0.57898234E+03</totfact>
</mgrwt>
</event>
<event>
 8    2  0.8128359E-004  0.1563245E+03  0.7818608E-02  0.1201049E+00
         -2   -1    0    0    0  501 -0.00000000000E+00  0.00000000000E+00  0.10977261370E+03  0.10977261373E+03  0.25500000000E-02 0.  1.
          2   -1    0    0  501    0  0.00000000000E+00 -0.00000000000E+00 -0.19001450722E+03  0.19001450724E+03  0.25500000000E-02 0. -1.
         25    2    1    2    0    0  0.77289866853E+02 -0.53269768824E+02 -0.59560828094E+02  0.16728671264E+03  0.12500384072E+03 0.  0.
         23    2    1    2    0    0 -0.77289866853E+02  0.53269768824E+02 -0.20681065430E+02  0.13250040833E+03  0.91199012888E+02 0.  0.
        -11    1    4    4    0    0 -0.15380098104E+02  0.20594366477E+02 -0.50301422632E+02  0.56488126782E+02  0.51100000000E-03 0. -1.
         11    1    4    4    0    0 -0.61909768749E+02  0.32675402347E+02  0.29620357203E+02  0.76012281548E+02  0.51100000000E-03 0.  1.
    9000005    1    3    3    0    0  0.83307790649E+02 -0.66491365685E+02 -0.86094457907E+02  0.13702023710E+03  0.10000000000E+01 0.  0.
    9000005    1    3    3    0    0 -0.60179237959E+01  0.13221596860E+02  0.26533629813E+02  0.30266475537E+02  0.10000000000E+01 0.  0.
<mgrwt>
<rscale>  0 0.14953254E+03</rscale>
<asrwt>0</asrwt>
<pdfrwt beam="2">  1        2 0.29233001E-01 0.15632451E+03</pdfrwt>
<pdfrwt beam="1">  1       -2 0.16888094E-01 0.15632451E+03</pdfrwt>
<totfact> 0.48841875E+03</totfact>
</mgrwt>
</event>
<event>
 8    2  0.8128359E-004  0.1290924E+03  0.7818608E-02  0.1244078E+00
         -2   -1    0    0    0  501 -0.00000000000E+00  0.00000000000E+00  0.16250098754E+03  0.16250098756E+03  0.25500000000E-02 0.  1.
          2   -1    0    0  501    0  0.00000000000E+00 -0.00000000000E+00 -0.93882638606E+02  0.93882638640E+02  0.25500000000E-02 0. -1.
         25    2    1    2    0    0  0.22256431904E+01  0.32171548353E+02  0.92623816884E+02  0.15888369640E+03  0.12499958206E+03 0.  0.
         23    2    1    2    0    0 -0.22256431904E+01 -0.32171548353E+02 -0.24005467949E+02  0.97499929804E+02  0.88825738439E+02 0.  0.
        -11    1    4    4    0    0  0.13918087608E+02  0.26700035486E+02  0.39325664162E+01  0.30365607790E+02  0.51100000000E-03 0.  1.
         11    1    4    4    0    0 -0.16143730798E+02 -0.58871583838E+02 -0.27938034365E+02  0.67134322013E+02  0.51100000000E-03 0. -1.
    9000005    1    3    3    0    0  0.21137738680E+02 -0.12000220325E+02  0.10619342561E+03  0.10894426523E+03  0.10000000000E+01 0.  0.
    9000005    1    3    3    0    0 -0.18912095489E+02  0.44171768678E+02 -0.13569608727E+02  0.49939431163E+02  0.10000000000E+01 0.  0.
<mgrwt>
<rscale>  0 0.11940757E+03</rscale>
<asrwt>0</asrwt>
<pdfrwt beam="2">  1        2 0.14443483E-01 0.12909244E+03</pdfrwt>
<pdfrwt beam="1">  1       -2 0.25000152E-01 0.12909244E+03</pdfrwt>
<totfact> 0.54917876E+03</totfact>
</mgrwt>
</event>
<event>
 8    2  0.8128359E-004  0.1451953E+03  0.7818608E-02  0.1215508E+00
         -2   -1    0    0    0  501 -0.00000000000E+00  0.00000000000E+00  0.17384750936E+02  0.17384751123E+02  0.25500000000E-02 0. -1.
          2   -1    0    0  501    0  0.00000000000E+00 -0.00000000000E+00 -0.10619482830E+04  0.10619482830E+04  0.25500000000E-02 0.  1.
         25    2    1    2    0    0 -0.31510461288E+02 -0.66810187469E+02 -0.68851601590E+03  0.70365898793E+03  0.12500062729E+03 0.  0.
         23    2    1    2    0    0  0.31510461288E+02  0.66810187469E+02 -0.35604751620E+03  0.37567404623E+03  0.94364426032E+02 0.  0.
        -11    1    4    4    0    0 -0.89740187603E+01  0.48142439350E+02 -0.30042639634E+03  0.30439160155E+03  0.51100000000E-03 0.  1.
         11    1    4    4    0    0  0.40484480048E+02  0.18667748119E+02 -0.55621119866E+02  0.71282444684E+02  0.51100000000E-03 0. -1.
    9000005    1    3    3    0    0 -0.51434140604E+02 -0.76817096357E+02 -0.66439637376E+03  0.67079794169E+03  0.10000000000E+01 0.  0.
    9000005    1    3    3    0    0  0.19923679316E+02  0.10006908888E+02 -0.24119642146E+02  0.32861046244E+02  0.10000000000E+01 0.  0.
<mgrwt>
<rscale>  0 0.13839265E+03</rscale>
<asrwt>0</asrwt>
<pdfrwt beam="2">  1        2 0.16337661E+00 0.14519527E+03</pdfrwt>
<pdfrwt beam="1">  1       -2 0.26745779E-02 0.14519527E+03</pdfrwt>
<totfact> 0.11700823E+04</totfact>
</mgrwt>
</event>
<event>
 8    2  0.8128359E-004  0.1375491E+03  0.7818608E-02  0.1229674E+00
         -2   -1    0    0    0  501 -0.00000000000E+00  0.00000000000E+00  0.13541523279E+02  0.13541523519E+02  0.25500000000E-02 0.  1.
          2   -1    0    0  501    0  0.00000000000E+00 -0.00000000000E+00 -0.13827412851E+04  0.13827412851E+04  0.25500000000E-02 0. -1.
         25    2    1    2    0    0 -0.54903587749E+02  0.16737892782E+02 -0.10789928665E+04  0.10877248556E+04  0.12500077779E+03 0.  0.
         23    2    1    2    0    0  0.54903587749E+02 -0.16737892782E+02 -0.29020689528E+03  0.30855795301E+03  0.87712070433E+02 0.  0.
        -11    1    4    4    0    0  0.38286751774E+02 -0.44636379645E+02 -0.10342873560E+03  0.11897808663E+03  0.51100000000E-03 0.  1.
         11    1    4    4    0    0  0.16616835975E+02  0.27898486863E+02 -0.18677815968E+03  0.18957986639E+03  0.51100000000E-03 0. -1.
    9000005    1    3    3    0    0  0.12156916915E+02 -0.42589449087E+02 -0.24843167466E+03  0.25235084462E+03  0.10000000000E+01 0.  0.
    9000005    1    3    3    0    0 -0.67060504664E+02  0.59327341868E+02 -0.83056119184E+03  0.83537401095E+03  0.10000000000E+01 0.  0.
<mgrwt>
<rscale>  0 0.12851624E+03</rscale>
<asrwt>0</asrwt>
<pdfrwt beam="2">  1        2 0.21272932E+00 0.13754910E+03</pdfrwt>
<pdfrwt beam="1">  1       -2 0.20833124E-02 0.13754910E+03</pdfrwt>
<totfact> 0.11171305E+04</totfact>
</mgrwt>
</event>
<event>
 8    2  0.8128359E-004  0.2274639E+03  0.7818608E-02  0.1131640E+00
          2   -1    0    0  501    0  0.00000000000E+00  0.00000000000E+00  0.44341226812E+03  0.44341226813E+03  0.25500000000E-02 0.  1.
         -2   -1    0    0    0  501 -0.00000000000E+00 -0.00000000000E+00 -0.14587527124E+03  0.14587527126E+03  0.25500000000E-02 0. -1.
         25    2    1    2    0    0  0.81732879087E+02  0.17156586815E+03  0.30309090624E+03  0.37895108082E+03  0.12499885428E+03 0.  0.
         23    2    1    2    0    0 -0.81732879087E+02 -0.17156586815E+03 -0.55539093567E+01  0.21033645857E+03  0.89974825683E+02 0.  0.
        -11    1    4    4    0    0 -0.45147974607E+02 -0.10834563311E+03 -0.46905048784E+02  0.12640094709E+03  0.51100000000E-03 0. -1.
         11    1    4    4    0    0 -0.36584904480E+02 -0.63220235045E+02  0.41351139427E+02  0.83935511478E+02  0.51100000000E-03 0.  1.
    9000005    1    3    3    0    0 -0.23099199103E+02  0.59663762263E+02  0.14610854911E+03  0.15950562889E+03  0.10000000000E+01 0.  0.
    9000005    1    3    3    0    0  0.10483207819E+03  0.11190210589E+03  0.15698235713E+03  0.21944545193E+03  0.10000000000E+01 0.  0.
<mgrwt>
<rscale>  0 0.22303608E+03</rscale>
<asrwt>0</asrwt>
<pdfrwt beam="1">  1        2 0.68217271E-01 0.22746390E+03</pdfrwt>
<pdfrwt beam="2">  1       -2 0.22442350E-01 0.22746390E+03</pdfrwt>
<totfact> 0.12235155E+03</totfact>
</mgrwt>
</event>
<event>
 8    2  0.8128359E-004  0.1309448E+03  0.7818608E-02  0.1239671E+00
         -2   -1    0    0    0  501 -0.00000000000E+00  0.00000000000E+00  0.61174061521E+01  0.61174066836E+01  0.25500000000E-02 0.  1.
          2   -1    0    0  501    0  0.00000000000E+00 -0.00000000000E+00 -0.22725113090E+04  0.22725113090E+04  0.25500000000E-02 0. -1.
         25    2    1    2    0    0  0.35825992644E+02 -0.15431543448E+02 -0.15332789971E+04  0.15388602975E+04  0.12499959230E+03 0.  0.
         23    2    1    2    0    0 -0.35825992644E+02  0.15431543448E+02 -0.73311490573E+03  0.73976841814E+03  0.90984686580E+02 0.  0.
        -11    1    4    4    0    0 -0.61938600173E+01 -0.92854509874E+01 -0.82562904302E+01  0.13883437394E+02  0.51100000000E-03 0.  1.
         11    1    4    4    0    0 -0.29632132627E+02  0.24716994435E+02 -0.72485861530E+03  0.72588498074E+03  0.51100000000E-03 0. -1.
    9000005    1    3    3    0    0 -0.27269465128E+02  0.28656987510E+02 -0.90780532717E+03  0.90866735317E+03  0.10000000000E+01 0.  0.
    9000005    1    3    3    0    0  0.63095457772E+02 -0.44088530958E+02 -0.62547366994E+03  0.63019294437E+03  0.10000000000E+01 0.  0.
<mgrwt>
<rscale>  0 0.12210081E+03</rscale>
<asrwt>0</asrwt>
<pdfrwt beam="2">  1        2 0.34961645E+00 0.13094477E+03</pdfrwt>
<pdfrwt beam="1">  1       -2 0.94114126E-03 0.13094477E+03</pdfrwt>
<totfact> 0.12182758E+04</totfact>
</mgrwt>
</event>
<event>
 8    2  0.8128359E-004  0.1313028E+03  0.7818608E-02  0.1240928E+00
          2   -1    0    0  501    0  0.00000000000E+00  0.00000000000E+00  0.24231497546E+04  0.24231497546E+04  0.25500000000E-02 0.  1.
         -2   -1    0    0    0  501 -0.00000000000E+00 -0.00000000000E+00 -0.53248242928E+01  0.53248249033E+01  0.25500000000E-02 0. -1.
         25    2    1    2    0    0 -0.38772147594E+02  0.10572124492E+02  0.14438311689E+04  0.14497892531E+04  0.12500153918E+03 0.  0.
         23    2    1    2    0    0  0.38772147594E+02 -0.10572124492E+02  0.97399376143E+03  0.97868532645E+03  0.86868128014E+02 0.  0.
        -11    1    4    4    0    0  0.45467414178E+02 -0.23650346312E+01  0.22217676029E+03  0.22679372115E+03  0.51100000000E-03 0. -1.
         11    1    4    4    0    0 -0.66952665836E+01 -0.82070898605E+01  0.75181700114E+03  0.75189160530E+03  0.51100000000E-03 0.  1.
    9000005    1    3    3    0    0 -0.12514607201E+01  0.19183184120E+02  0.31384760140E+02  0.36817983052E+02  0.10000000000E+01 0.  0.
    9000005    1    3    3    0    0 -0.37520686874E+02 -0.86110596287E+01  0.14124464088E+04  0.14129712700E+04  0.10000000000E+01 0.  0.
<mgrwt>
<rscale>  0 0.12132468E+03</rscale>
<asrwt>0</asrwt>
<pdfrwt beam="1">  1        2 0.37279155E+00 0.13130283E+03</pdfrwt>
<pdfrwt beam="2">  1       -2 0.81920536E-03 0.13130283E+03</pdfrwt>
<totfact> 0.12381759E+04</totfact>
</mgrwt>
</event>
<event>
 8    2  0.8128359E-004  0.1263940E+03  0.7818608E-02  0.1248343E+00
         -2   -1    0    0    0  501 -0.00000000000E+00  0.00000000000E+00  0.11335716227E+02  0.11335716514E+02  0.25500000000E-02 0. -1.
          2   -1    0    0  501    0  0.00000000000E+00 -0.00000000000E+00 -0.10558330351E+04  0.10558330351E+04  0.25500000000E-02 0.  1.
         25    2    1    2    0    0 -0.15403069105E+02 -0.10548676267E+02 -0.60223575473E+03  0.61535628305E+03  0.12500768658E+03 0.  0.
         23    2    1    2    0    0  0.15403069105E+02  0.10548676267E+02 -0.44226156415E+03  0.45181246858E+03  0.90502411723E+02 0.  0.
        -11    1    4    4    0    0  0.70550191848E+01 -0.39822954122E+02 -0.22732613467E+03  0.23089567444E+03  0.51100000000E-03 0.  1.
         11    1    4    4    0    0  0.83480499207E+01  0.50371630389E+02 -0.21493542949E+03  0.22091679414E+03  0.51100000000E-03 0. -1.
    9000005    1    3    3    0    0 -0.66943282023E+02 -0.24937062913E+02 -0.38901565250E+03  0.39552172886E+03  0.10000000000E+01 0.  0.
    9000005    1    3    3    0    0  0.51540212918E+02  0.14388386646E+02 -0.21322010223E+03  0.21983455418E+03  0.10000000000E+01 0.  0.
<mgrwt>
<rscale>  0 0.11687515E+03</rscale>
<asrwt>0</asrwt>
<pdfrwt beam="2">  1        2 0.16243577E+00 0.12639403E+03</pdfrwt>
<pdfrwt beam="1">  1       -2 0.17439572E-02 0.12639403E+03</pdfrwt>
<totfact> 0.21778937E+04</totfact>
</mgrwt>
</event>
<event>
 8    2  0.8128359E-004  0.1628401E+03  0.7818608E-02  0.1192849E+00
         -2   -1    0    0    0  501 -0.00000000000E+00  0.00000000000E+00  0.13039234180E+03  0.13039234183E+03  0.25500000000E-02 0.  1.
          2   -1    0    0  501    0  0.00000000000E+00 -0.00000000000E+00 -0.17535608849E+03  0.17535608851E+03  0.25500000000E-02 0. -1.
         25    2    1    2    0    0 -0.30586081199E+02  0.99778031816E+02 -0.11310675870E+02  0.16323243133E+03  0.12500292497E+03 0.  0.
         23    2    1    2    0    0  0.30586081199E+02 -0.99778031816E+02 -0.33653070814E+02  0.14251599901E+03  0.91033602602E+02 0.  0.
        -11    1    4    4    0    0  0.18483001143E+02 -0.79644379253E+02  0.19803852157E+02  0.84125151045E+02  0.51100000000E-03 0.  1.
         11    1    4    4    0    0  0.12103080056E+02 -0.20133652563E+02 -0.53456922971E+02  0.58390847966E+02  0.51100000000E-03 0. -1.
    9000005    1    3    3    0    0  0.20779141794E+02  0.53953400671E+01 -0.45620162315E+02  0.50428976172E+02  0.10000000000E+01 0.  0.
    9000005    1    3    3    0    0 -0.51365222993E+02  0.94382691749E+02  0.34309486445E+02  0.11280345515E+03  0.10000000000E+01 0.  0.
<mgrwt>
<rscale>  0 0.15637676E+03</rscale>
<asrwt>0</asrwt>
<pdfrwt beam="2">  1        2 0.26977860E-01 0.16284009E+03</pdfrwt>
<pdfrwt beam="1">  1       -2 0.20060360E-01 0.16284009E+03</pdfrwt>
<totfact> 0.40025941E+03</totfact>
</mgrwt>
</event>
<event>
 8    2  0.8128359E-004  0.1433521E+03  0.7818608E-02  0.1219019E+00
          2   -1    0    0  501    0  0.00000000000E+00  0.00000000000E+00  0.14106436964E+04  0.14106436964E+04  0.25500000000E-02 0. -1.
         -2   -1    0    0    0  501 -0.00000000000E+00 -0.00000000000E+00 -0.11923749564E+02  0.11923749837E+02  0.25500000000E-02 0.  1.
         25    2    1    2    0    0  0.34804638919E+02 -0.60936392248E+02  0.81330901996E+03  0.82584586539E+03  0.12500089853E+03 0.  0.
         23    2    1    2    0    0 -0.34804638919E+02  0.60936392248E+02  0.58541092691E+03  0.59672158089E+03  0.91902584098E+02 0.  0.
        -11    1    4    4    0    0  0.31645958209E+02  0.20117772749E+02  0.17629281656E+03  0.18023692358E+03  0.51100000000E-03 0. -1.
         11    1    4    4    0    0 -0.66450597128E+02  0.40818619499E+02  0.40911811036E+03  0.41648465731E+03  0.51100000000E-03 0.  1.
    9000005    1    3    3    0    0  0.54342125021E+02 -0.31947350458E+01  0.14708770915E+03  0.15684089731E+03  0.10000000000E+01 0.  0.
    9000005    1    3    3    0    0 -0.19537486102E+02 -0.57741657202E+02  0.66622131081E+03  0.66900496808E+03  0.10000000000E+01 0.  0.
<mgrwt>
<rscale>  0 0.13585397E+03</rscale>
<asrwt>0</asrwt>
<pdfrwt beam="1">  1        2 0.21702196E+00 0.14335212E+03</pdfrwt>
<pdfrwt beam="2">  1       -2 0.18344242E-02 0.14335212E+03</pdfrwt>
<totfact> 0.13015069E+04</totfact>
</mgrwt>
</event>
<event>
 8    2  0.8128359E-004  0.1420545E+03  0.7818608E-02  0.1221593E+00
         -2   -1    0    0    0  501 -0.00000000000E+00  0.00000000000E+00  0.18899378969E+02  0.18899379141E+02  0.25500000000E-02 0.  1.
          2   -1    0    0  501    0  0.00000000000E+00 -0.00000000000E+00 -0.85789050236E+03  0.85789050236E+03  0.25500000000E-02 0. -1.
         25    2    1    2    0    0 -0.66378675088E+02 -0.12232845385E+02 -0.47455247010E+03  0.49535797555E+03  0.12499482410E+03 0.  0.
         23    2    1    2    0    0  0.66378675088E+02  0.12232845385E+02 -0.36443865329E+03  0.38143190595E+03  0.90105470720E+02 0.  0.
        -11    1    4    4    0    0  0.64172511874E+02  0.39641372304E+02 -0.32306831951E+03  0.33175697242E+03  0.51100000000E-03 0. -1.
         11    1    4    4    0    0  0.22061632141E+01 -0.27408526919E+02 -0.41370333776E+02  0.49674933528E+02  0.51100000000E-03 0.  1.
    9000005    1    3    3    0    0 -0.28478659285E+02 -0.43527508725E+02 -0.66882428679E+02  0.84734510776E+02  0.10000000000E+01 0.  0.
    9000005    1    3    3    0    0 -0.37900015803E+02  0.31294663340E+02 -0.40767004142E+03  0.41062346478E+03  0.10000000000E+01 0.  0.
<mgrwt>
<rscale>  0 0.13403207E+03</rscale>
<asrwt>0</asrwt>
<pdfrwt beam="2">  1        2 0.13198312E+00 0.14205449E+03</pdfrwt>
<pdfrwt beam="1">  1       -2 0.29075974E-02 0.14205449E+03</pdfrwt>
<totfact> 0.13784393E+04</totfact>
</mgrwt>
</event>
<event>
 8    2  0.8128359E-004  0.1395076E+03  0.7818608E-02  0.1225254E+00
          2   -1    0    0  501    0  0.00000000000E+00  0.00000000000E+00  0.16648225310E+03  0.16648225312E+03  0.25500000000E-02 0. -1.
         -2   -1    0    0    0  501 -0.00000000000E+00 -0.00000000000E+00 -0.10828545034E+03  0.10828545037E+03  0.25500000000E-02 0.  1.
         25    2    1    2    0    0 -0.21052845007E+02  0.58180610808E+02  0.82400551444E+02  0.16202540976E+03  0.12503670170E+03 0.  0.
         23    2    1    2    0    0  0.21052845007E+02 -0.58180610808E+02 -0.24203748686E+02  0.11274229373E+03  0.91086758574E+02 0.  0.
        -11    1    4    4    0    0  0.51079502991E+02 -0.60291875279E+02 -0.10664846479E+02  0.79736847198E+02  0.51100000000E-03 0.  1.
         11    1    4    4    0    0 -0.30026657984E+02  0.21112644705E+01 -0.13538902207E+02  0.33005446529E+02  0.51100000000E-03 0. -1.
    9000005    1    3    3    0    0 -0.57626204881E+02  0.77686474388E+02  0.47182665060E+02  0.10762514425E+03  0.10000000000E+01 0.  0.
    9000005    1    3    3    0    0  0.36573359874E+02 -0.19505863580E+02  0.35217886384E+02  0.54400265513E+02  0.10000000000E+01 0.  0.
<mgrwt>
<rscale>  0 0.13149485E+03</rscale>
<asrwt>0</asrwt>
<pdfrwt beam="1">  1        2 0.25612654E-01 0.13950764E+03</pdfrwt>
<pdfrwt beam="2">  1       -2 0.16659300E-01 0.13950764E+03</pdfrwt>
<totfact> 0.57341756E+03</totfact>
</mgrwt>
</event>
<event>
 8    2  0.8128359E-004  0.1389762E+03  0.7818608E-02  0.1225960E+00
         -2   -1    0    0    0  501 -0.00000000000E+00  0.00000000000E+00  0.14174431552E+02  0.14174431781E+02  0.25500000000E-02 0. -1.
          2   -1    0    0  501    0  0.00000000000E+00 -0.00000000000E+00 -0.13053295972E+04  0.13053295972E+04  0.25500000000E-02 0.  1.
         25    2    1    2    0    0 -0.58519500149E+01  0.60446979460E+02 -0.97462656675E+03  0.98448531526E+03  0.12500523464E+03 0.  0.
         23    2    1    2    0    0  0.58519500149E+01 -0.60446979460E+02 -0.31652859887E+03  0.33501871370E+03  0.91428124691E+02 0.  0.
        -11    1    4    4    0    0 -0.13374670567E+02 -0.71533963623E+02 -0.29590203693E+03  0.30471955176E+03  0.51100000000E-03 0.  1.
         11    1    4    4    0    0  0.19226620582E+02  0.11086984163E+02 -0.20626561937E+02  0.30299161943E+02  0.51100000000E-03 0. -1.
    9000005    1    3    3    0    0 -0.30504008477E+02  0.93140832558E+02 -0.69066272125E+03  0.69758275764E+03  0.10000000000E+01 0.  0.
    9000005    1    3    3    0    0  0.24652058462E+02 -0.32693853099E+02 -0.28396384550E+03  0.28690255762E+03  0.10000000000E+01 0.  0.
<mgrwt>
<rscale>  0 0.13101351E+03</rscale>
<asrwt>0</asrwt>
<pdfrwt beam="2">  1        2 0.20081984E+00 0.13897623E+03</pdfrwt>
<pdfrwt beam="1">  1       -2 0.21806828E-02 0.13897623E+03</pdfrwt>
<totfact> 0.11503758E+04</totfact>
</mgrwt>
</event>
<event>
 8    2  0.8128359E-004  0.1308707E+03  0.7818608E-02  0.1237672E+00
          2   -1    0    0  501    0  0.00000000000E+00  0.00000000000E+00  0.23234555712E+03  0.23234555713E+03  0.25500000000E-02 0. -1.
         -2   -1    0    0    0  501 -0.00000000000E+00 -0.00000000000E+00 -0.62762071599E+02  0.62762071651E+02  0.25500000000E-02 0.  1.
         25    2    1    2    0    0 -0.21440723099E+02  0.32298639080E+02  0.58259393690E+02  0.14325252811E+03  0.12499689261E+03 0.  0.
         23    2    1    2    0    0  0.21440723099E+02 -0.32298639080E+02  0.11132409183E+03  0.15185510068E+03  0.95728843544E+02 0.  0.
        -11    1    4    4    0    0  0.41275869293E+02 -0.31106076759E+02  0.15451271867E+02  0.53944667946E+02  0.51100000000E-03 0.  1.
         11    1    4    4    0    0 -0.19835146194E+02 -0.11925623208E+01  0.95872819965E+02  0.97910432731E+02  0.51100000000E-03 0. -1.
    9000005    1    3    3    0    0 -0.61762324417E+02  0.24228037055E+02 -0.63557226022E+01  0.66655665226E+02  0.10000000000E+01 0.  0.
    9000005    1    3    3    0    0  0.40321601318E+02  0.80706020249E+01  0.64615116292E+02  0.76596862882E+02  0.10000000000E+01 0.  0.
<mgrwt>
<rscale>  0 0.12334927E+03</rscale>
<asrwt>0</asrwt>
<pdfrwt beam="1">  1        2 0.35745470E-01 0.13087066E+03</pdfrwt>
<pdfrwt beam="2">  1       -2 0.96557033E-02 0.13087066E+03</pdfrwt>
<totfact> 0.95574344E+03</totfact>
</mgrwt>
</event>
<event>
 8    2  0.8128359E-004  0.1598616E+03  0.7818608E-02  0.1197147E+00
          2   -1    0    0  501    0  0.00000000000E+00  0.00000000000E+00  0.11319754313E+03  0.11319754316E+03  0.25500000000E-02 0. -1.
         -2   -1    0    0    0  501 -0.00000000000E+00 -0.00000000000E+00 -0.21421903969E+03  0.21421903971E+03  0.25500000000E-02 0.  1.
         25    2    1    2    0    0 -0.32221088633E+02  0.94298486030E+02  0.60086185612E+00  0.15986270471E+03  0.12500128120E+03 0.  0.
         23    2    1    2    0    0  0.32221088633E+02 -0.94298486030E+02 -0.10162235842E+03  0.16755387816E+03  0.88412642391E+02 0.  0.
        -11    1    4    4    0    0  0.50491546464E+02 -0.77257702882E+02 -0.39118582432E+02  0.10024176979E+03  0.51100000000E-03 0. -1.
         11    1    4    4    0    0 -0.18270457831E+02 -0.17040783147E+02 -0.62503775991E+02  0.67312108368E+02  0.51100000000E-03 0.  1.
    9000005    1    3    3    0    0 -0.51008322315E+01  0.81966339725E+01 -0.53661740389E+02  0.54532427779E+02  0.10000000000E+01 0.  0.
    9000005    1    3    3    0    0 -0.27120256402E+02  0.86101852057E+02  0.54262602245E+02  0.10533027693E+03  0.10000000000E+01 0.  0.
<mgrwt>
<rscale>  0 0.15273877E+03</rscale>
<asrwt>0</asrwt>
<pdfrwt beam="1">  1        2 0.17415007E-01 0.15986158E+03</pdfrwt>
<pdfrwt beam="2">  1       -2 0.32956775E-01 0.15986158E+03</pdfrwt>
<totfact> 0.27294149E+03</totfact>
</mgrwt>
</event>
<event>
 8    2  0.8128359E-004  0.1297221E+03  0.7818608E-02  0.1241528E+00
         -2   -1    0    0    0  501 -0.00000000000E+00  0.00000000000E+00  0.72644581277E+03  0.72644581278E+03  0.25500000000E-02 0.  1.
          2   -1    0    0  501    0  0.00000000000E+00 -0.00000000000E+00 -0.18581309161E+02  0.18581309336E+02  0.25500000000E-02 0. -1.
         25    2    1    2    0    0  0.32447530758E+02  0.12286813908E+02  0.47418761897E+03  0.49161134827E+03  0.12499604679E+03 0.  0.
         23    2    1    2    0    0 -0.32447530758E+02 -0.12286813908E+02  0.23367688464E+03  0.25341577385E+03  0.91710740752E+02 0.  0.
        -11    1    4    4    0    0  0.99726409336E+01 -0.15923097112E+02  0.32238401053E+01  0.19062836466E+02  0.51100000000E-03 0. -1.
         11    1    4    4    0    0 -0.42420171691E+02  0.36362832038E+01  0.23045304454E+03  0.23435293738E+03  0.51100000000E-03 0.  1.
    9000005    1    3    3    0    0 -0.99839207890E+01  0.56342341527E+02  0.33088349070E+03  0.33579610263E+03  0.10000000000E+01 0.  0.
    9000005    1    3    3    0    0  0.42431451547E+02 -0.44055527619E+02  0.14330412827E+03  0.15581524564E+03  0.10000000000E+01 0.  0.
<mgrwt>
<rscale>  0 0.12095595E+03</rscale>
<asrwt>0</asrwt>
<pdfrwt beam="2">  1        2 0.28586634E-02 0.12972209E+03</pdfrwt>
<pdfrwt beam="1">  1       -2 0.11176088E+00 0.12972209E+03</pdfrwt>
<totfact> 0.21059816E+03</totfact>
</mgrwt>
</event>
<event>
 8    2  0.8128359E-004  0.1373138E+03  0.7818608E-02  0.1224006E+00
         -2   -1    0    0    0  501 -0.00000000000E+00  0.00000000000E+00  0.24987957101E+03  0.24987957102E+03  0.25500000000E-02 0.  1.
          2   -1    0    0  501    0  0.00000000000E+00 -0.00000000000E+00 -0.14346973495E+03  0.14346973498E+03  0.25500000000E-02 0. -1.
         25    2    1    2    0    0  0.56543290727E+02  0.56485812831E+01  0.19981495689E+03  0.24244811050E+03  0.12500407630E+03 0.  0.
         23    2    1    2    0    0 -0.56543290727E+02 -0.56485812831E+01 -0.93405120838E+02  0.15090119550E+03  0.10400771129E+03 0.  0.
        -11    1    4    4    0    0 -0.14616219831E+02  0.14144130317E+02 -0.10177515245E+03  0.10378762913E+03  0.51100000000E-03 0. -1.
         11    1    4    4    0    0 -0.41927070896E+02 -0.19792711600E+02  0.83700316115E+01  0.47113566367E+02  0.51100000000E-03 0.  1.
    9000005    1    3    3    0    0 -0.70896100978E+01  0.48946035231E+02  0.35158646873E+02  0.60688610019E+02  0.10000000000E+01 0.  0.
    9000005    1    3    3    0    0  0.63632900825E+02 -0.43297453948E+02  0.16465631002E+03  0.18175950048E+03  0.10000000000E+01 0.  0.
<mgrwt>
<rscale>  0 0.13235250E+03</rscale>
<asrwt>0</asrwt>
<pdfrwt beam="2">  1        2 0.22072267E-01 0.13731376E+03</pdfrwt>
<pdfrwt beam="1">  1       -2 0.38443010E-01 0.13731376E+03</pdfrwt>
<totfact> 0.15564700E+03</totfact>
</mgrwt>
</event>
<event>
 8    2  0.8128359E-004  0.1354644E+03  0.7818608E-02  0.1231903E+00
         -2   -1    0    0    0  501 -0.00000000000E+00  0.00000000000E+00  0.25566548262E+03  0.25566548263E+03  0.25500000000E-02 0.  1.
          2   -1    0    0  501    0  0.00000000000E+00 -0.00000000000E+00 -0.66308958651E+02  0.66308958700E+02  0.25500000000E-02 0. -1.
         25    2    1    2    0    0  0.17650072256E+02 -0.49121810108E+02  0.16660019132E+03  0.21472357744E+03  0.12500445466E+03 0.  0.
         23    2    1    2    0    0 -0.17650072256E+02  0.49121810108E+02  0.22756332655E+02  0.10725086389E+03  0.90886851914E+02 0.  0.
        -11    1    4    4    0    0 -0.15361451179E+02  0.33810196022E+02 -0.32818673205E+02  0.49559750288E+02  0.51100000000E-03 0. -1.
         11    1    4    4    0    0 -0.22886210768E+01  0.15311614086E+02  0.55575005860E+02  0.57691113604E+02  0.51100000000E-03 0.  1.
    9000005    1    3    3    0    0  0.70095004877E+02 -0.43907475740E+02  0.99403579570E+02  0.12931839686E+03  0.10000000000E+01 0.  0.
    9000005    1    3    3    0    0 -0.52444932621E+02 -0.52143343687E+01  0.67196611745E+02  0.85405180584E+02  0.10000000000E+01 0.  0.
<mgrwt>
<rscale>  0 0.12704813E+03</rscale>
<asrwt>0</asrwt>
<pdfrwt beam="2">  1        2 0.10201378E-01 0.13546435E+03</pdfrwt>
<pdfrwt beam="1">  1       -2 0.39333151E-01 0.13546435E+03</pdfrwt>
<totfact> 0.36779455E+03</totfact>
</mgrwt>
</event>
<event>
 8    2  0.8128359E-004  0.1422384E+03  0.7818608E-02  0.1220218E+00
         -2   -1    0    0    0  501 -0.00000000000E+00  0.00000000000E+00  0.17949061541E+02  0.17949061723E+02  0.25500000000E-02 0.  1.
          2   -1    0    0  501    0  0.00000000000E+00 -0.00000000000E+00 -0.10977958587E+04  0.10977958587E+04  0.25500000000E-02 0. -1.
         25    2    1    2    0    0 -0.22350418988E+02 -0.64085404972E+02 -0.80775714358E+03  0.82018496017E+03  0.12500114208E+03 0.  0.
         23    2    1    2    0    0  0.22350418988E+02  0.64085404972E+02 -0.27208965359E+03  0.29555996027E+03  0.93361823912E+02 0.  0.
        -11    1    4    4    0    0 -0.33117813994E+02  0.80892977086E+01 -0.11276315606E+03  0.11780388663E+03  0.51100000000E-03 0. -1.
         11    1    4    4    0    0  0.55468232981E+02  0.55996107264E+02 -0.15932649753E+03  0.17775607363E+03  0.51100000000E-03 0.  1.
    9000005    1    3    3    0    0  0.11764183361E+02 -0.62248535828E+02 -0.16855372957E+03  0.18006842026E+03  0.10000000000E+01 0.  0.
    9000005    1    3    3    0    0 -0.34114602349E+02 -0.18368691442E+01 -0.63920341401E+03  0.64011653991E+03  0.10000000000E+01 0.  0.
<mgrwt>
<rscale>  0 0.13500118E+03</rscale>
<asrwt>0</asrwt>
<pdfrwt beam="2">  1        2 0.16889162E+00 0.14223841E+03</pdfrwt>
<pdfrwt beam="1">  1       -2 0.27613949E-02 0.14223841E+03</pdfrwt>
<totfact> 0.10632804E+04</totfact>
</mgrwt>
</event>
<event>
 8    2  0.8128359E-004  0.1537158E+03  0.7818608E-02  0.1204086E+00
          2   -1    0    0  501    0  0.00000000000E+00  0.00000000000E+00  0.37166452772E+03  0.37166452773E+03  0.25500000000E-02 0. -1.
         -2   -1    0    0    0  501 -0.00000000000E+00 -0.00000000000E+00 -0.53775203482E+02  0.53775203543E+02  0.25500000000E-02 0.  1.
         25    2    1    2    0    0  0.40668532409E+02 -0.79672542553E+02  0.16655473366E+03  0.22664734356E+03  0.12500758166E+03 0.  0.
         23    2    1    2    0    0 -0.40668532409E+02  0.79672542553E+02  0.15133459058E+03  0.19879238771E+03  0.92814931671E+02 0.  0.
        -11    1    4    4    0    0 -0.49362583212E+01 -0.13912377236E+02 -0.27412850943E+01  0.15014510674E+02  0.51100000000E-03 0.  1.
         11    1    4    4    0    0 -0.35732274088E+02  0.93584919789E+02  0.15407587568E+03  0.18377787704E+03  0.51100000000E-03 0. -1.
    9000005    1    3    3    0    0  0.77468924398E+02 -0.76319056449E+02  0.15204552841E+03  0.18693548442E+03  0.10000000000E+01 0.  0.
    9000005    1    3    3    0    0 -0.36800391989E+02 -0.33534861046E+01  0.14509205247E+02  0.39711859142E+02  0.10000000000E+01 0.  0.
<mgrwt>
<rscale>  0 0.14709756E+03</rscale>
<asrwt>0</asrwt>
<pdfrwt beam="1">  1        2 0.57179159E-01 0.15371577E+03</pdfrwt>
<pdfrwt beam="2">  1       -2 0.82731081E-02 0.15371577E+03</pdfrwt>
<totfact> 0.74602147E+03</totfact>
</mgrwt>
</event>
<event>
 8    2  0.8128359E-004  0.2262796E+03  0.7818608E-02  0.1132445E+00
         -2   -1    0    0    0  501 -0.00000000000E+00  0.00000000000E+00  0.57539786423E+02  0.57539786480E+02  0.25500000000E-02 0. -1.
          2   -1    0    0  501    0  0.00000000000E+00 -0.00000000000E+00 -0.11315575043E+04  0.11315575043E+04  0.25500000000E-02 0.  1.
         25    2    1    2    0    0 -0.16150032022E+03 -0.97444962271E+02 -0.86156702977E+03  0.89078627186E+03  0.12499824496E+03 0.  0.
         23    2    1    2    0    0  0.16150032022E+03  0.97444962271E+02 -0.21245068811E+03  0.29831101892E+03  0.90974144847E+02 0.  0.
        -11    1    4    4    0    0  0.60791550031E+02  0.65702861739E+02 -0.15265405129E+03  0.17696253268E+03  0.51100000000E-03 0.  1.
         11    1    4    4    0    0  0.10070877019E+03  0.31742100532E+02 -0.59796636814E+02  0.12134848624E+03  0.51100000000E-03 0. -1.
    9000005    1    3    3    0    0 -0.32748775711E+00 -0.50723896099E+02 -0.31430973798E+03  0.31837812782E+03  0.10000000000E+01 0.  0.
    9000005    1    3    3    0    0 -0.16117283246E+03 -0.46721066173E+02 -0.54725729179E+03  0.57240814404E+03  0.10000000000E+01 0.  0.
<mgrwt>
<rscale>  0 0.22193988E+03</rscale>
<asrwt>0</asrwt>
<pdfrwt beam="2">  1        2 0.17408575E+00 0.22627955E+03</pdfrwt>
<pdfrwt beam="1">  1       -2 0.88522757E-02 0.22627955E+03</pdfrwt>
<totfact> 0.17637573E+03</totfact>
</mgrwt>
</event>
<event>
 8    2  0.8128359E-004  0.1392268E+03  0.7818608E-02  0.1225888E+00
         -2   -1    0    0    0  501 -0.00000000000E+00  0.00000000000E+00  0.27361179160E+02  0.27361179278E+02  0.25500000000E-02 0.  1.
          2   -1    0    0  501    0  0.00000000000E+00 -0.00000000000E+00 -0.74668904550E+03  0.74668904550E+03  0.25500000000E-02 0. -1.
         25    2    1    2    0    0 -0.46666203601E+02  0.39769994742E+02 -0.58249792079E+03  0.59890560204E+03  0.12499882154E+03 0.  0.
         23    2    1    2    0    0  0.46666203601E+02 -0.39769994742E+02 -0.13682994555E+03  0.17514462275E+03  0.90519709660E+02 0.  0.
        -11    1    4    4    0    0  0.28940042671E+02 -0.35047486784E+02 -0.14721003822E+03  0.15406702357E+03  0.51100000000E-03 0. -1.
         11    1    4    4    0    0  0.17726160931E+02 -0.47225079578E+01  0.10380092670E+02  0.21077599172E+02  0.51100000000E-03 0.  1.
    9000005    1    3    3    0    0  0.42878680768E+02  0.56076240492E+01 -0.16954482944E+03  0.17497564374E+03  0.10000000000E+01 0.  0.
    9000005    1    3    3    0    0 -0.89544884370E+02  0.34162370692E+02 -0.41295309135E+03  0.42392995830E+03  0.10000000000E+01 0.  0.
<mgrwt>
<rscale>  0 0.13106224E+03</rscale>
<asrwt>0</asrwt>
<pdfrwt beam="2">  1        2 0.11487522E+00 0.13922677E+03</pdfrwt>
<pdfrwt beam="1">  1       -2 0.42094128E-02 0.13922677E+03</pdfrwt>
<totfact> 0.94677540E+03</totfact>
</mgrwt>
</event>
<event>
 8    2  0.8128359E-004  0.1555360E+03  0.7818608E-02  0.1202485E+00
          2   -1    0    0  501    0  0.00000000000E+00  0.00000000000E+00  0.12937679033E+04  0.12937679033E+04  0.25500000000E-02 0. -1.
         -2   -1    0    0    0  501 -0.00000000000E+00 -0.00000000000E+00 -0.27667795128E+02  0.27667795246E+02  0.25500000000E-02 0.  1.
         25    2    1    2    0    0  0.69808498078E+02 -0.60775658317E+02  0.11015021577E+04  0.11124290715E+04  0.12499811457E+03 0.  0.
         23    2    1    2    0    0 -0.69808498078E+02  0.60775658317E+02  0.16459795044E+03  0.20900662702E+03  0.89578891498E+02 0.  0.
        -11    1    4    4    0    0  0.21003291308E+02  0.16052554348E+02  0.23618767168E+02  0.35449526226E+02  0.51100000000E-03 0.  1.
         11    1    4    4    0    0 -0.90811789386E+02  0.44723103969E+02  0.14097918328E+03  0.17355710080E+03  0.51100000000E-03 0. -1.
    9000005    1    3    3    0    0  0.59832715690E+02  0.26138634440E+02  0.37059737294E+03  0.37630651723E+03  0.10000000000E+01 0.  0.
    9000005    1    3    3    0    0  0.99757823881E+01 -0.86914292757E+02  0.73090478479E+03  0.73612255430E+03  0.10000000000E+01 0.  0.
<mgrwt>
<rscale>  0 0.14837411E+03</rscale>
<asrwt>0</asrwt>
<pdfrwt beam="1">  1        2 0.19904121E+00 0.15553596E+03</pdfrwt>
<pdfrwt beam="2">  1       -2 0.42565840E-02 0.15553596E+03</pdfrwt>
<totfact> 0.43723151E+03</totfact>
</mgrwt>
</event>
<event>
 8    2  0.8128359E-004  0.1619413E+03  0.7818608E-02  0.1193999E+00
          2   -1    0    0  501    0  0.00000000000E+00  0.00000000000E+00  0.45913411690E+03  0.45913411690E+03  0.25500000000E-02 0. -1.
         -2   -1    0    0    0  501 -0.00000000000E+00 -0.00000000000E+00 -0.83634317303E+02  0.83634317341E+02  0.25500000000E-02 0.  1.
         25    2    1    2    0    0 -0.17259702218E+02  0.10149862328E+03  0.21855586317E+02  0.16340942462E+03  0.12500042222E+03 0.  0.
         23    2    1    2    0    0  0.17259702218E+02 -0.10149862328E+03  0.35364421328E+03  0.37935900962E+03  0.90824890588E+02 0.  0.
        -11    1    4    4    0    0 -0.32772319295E+02 -0.72006613735E+02  0.21107287389E+03  0.22541236751E+03  0.51100000000E-03 0.  1.
         11    1    4    4    0    0  0.50032021513E+02 -0.29492009542E+02  0.14257133939E+03  0.15394664211E+03  0.51100000000E-03 0. -1.
    9000005    1    3    3    0    0 -0.45756820233E+02  0.33789508650E+02 -0.38194668929E+02  0.68521895969E+02  0.10000000000E+01 0.  0.
    9000005    1    3    3    0    0  0.28497118015E+02  0.67709114627E+02  0.60050255246E+02  0.94887528653E+02  0.10000000000E+01 0.  0.
<mgrwt>
<rscale>  0 0.15539222E+03</rscale>
<asrwt>0</asrwt>
<pdfrwt beam="1">  1        2 0.70636020E-01 0.16194127E+03</pdfrwt>
<pdfrwt beam="2">  1       -2 0.12866818E-01 0.16194127E+03</pdfrwt>
<totfact> 0.29614905E+03</totfact>
</mgrwt>
</event>
<event>
 8    2  0.8128359E-004  0.1343295E+03  0.7818608E-02  0.1234382E+00
          2   -1    0    0  501    0  0.00000000000E+00  0.00000000000E+00  0.68838974617E+02  0.68838974664E+02  0.25500000000E-02 0. -1.
         -2   -1    0    0    0  501 -0.00000000000E+00 -0.00000000000E+00 -0.26684756150E+03  0.26684756152E+03  0.25500000000E-02 0.  1.
         25    2    1    2    0    0  0.39232012305E+02 -0.29689456907E+02 -0.19071815244E+03  0.23327630822E+03  0.12499523056E+03 0.  0.
         23    2    1    2    0    0 -0.39232012305E+02  0.29689456907E+02 -0.72904344443E+01  0.10241022796E+03  0.89521448359E+02 0.  0.
        -11    1    4    4    0    0 -0.73717005251E+01  0.55517503227E+02 -0.20004933350E+02  0.59470433761E+02  0.51100000000E-03 0.  1.
         11    1    4    4    0    0 -0.31860311780E+02 -0.25828046320E+02  0.12714498906E+02  0.42939794202E+02  0.51100000000E-03 0. -1.
    9000005    1    3    3    0    0  0.32098862989E+02  0.33742082843E+02 -0.19417812310E+02  0.50466985195E+02  0.10000000000E+01 0.  0.
    9000005    1    3    3    0    0  0.71331493168E+01 -0.63431539749E+02 -0.17130034013E+03  0.18280932302E+03  0.10000000000E+01 0.  0.
<mgrwt>
<rscale>  0 0.12544075E+03</rscale>
<asrwt>0</asrwt>
<pdfrwt beam="1">  1        2 0.10590612E-01 0.13432953E+03</pdfrwt>
<pdfrwt beam="2">  1       -2 0.41053470E-01 0.13432953E+03</pdfrwt>
<totfact> 0.32382547E+03</totfact>
</mgrwt>
</event>
<event>
 8    2  0.8128359E-004  0.3372432E+03  0.7818608E-02  0.1069221E+00
          2   -1    0    0  501    0  0.00000000000E+00  0.00000000000E+00  0.19286919179E+04  0.19286919179E+04  0.25500000000E-02 0. -1.
         -2   -1    0    0    0  501 -0.00000000000E+00 -0.00000000000E+00 -0.59813227469E+02  0.59813227524E+02  0.25500000000E-02 0.  1.
         25    2    1    2    0    0 -0.28020870953E+03 -0.13996865815E+03  0.11653526897E+04  0.12131693361E+04  0.12499920185E+03 0.  0.
         23    2    1    2    0    0  0.28020870953E+03  0.13996865815E+03  0.70352600072E+03  0.77533580932E+03  0.89936852162E+02 0.  0.
        -11    1    4    4    0    0  0.28486366393E+03  0.13319121527E+03  0.69759838399E+03  0.76519978581E+03  0.51100000000E-03 0. -1.
         11    1    4    4    0    0 -0.46549544024E+01  0.67774428762E+01  0.59276167280E+01  0.10136023518E+02  0.51100000000E-03 0.  1.
    9000005    1    3    3    0    0 -0.60252736483E+02 -0.94419914846E+02  0.35416455892E+03  0.37145531006E+03  0.10000000000E+01 0.  0.
    9000005    1    3    3    0    0 -0.21995597305E+03 -0.45548743302E+02  0.81118813076E+03  0.84171402601E+03  0.10000000000E+01 0.  0.
<mgrwt>
<rscale>  0 0.33436536E+03</rscale>
<asrwt>0</asrwt>
<pdfrwt beam="1">  1        2 0.29672182E+00 0.33724316E+03</pdfrwt>
<pdfrwt beam="2">  1       -2 0.92020354E-02 0.33724316E+03</pdfrwt>
<totfact> 0.60902039E+02</totfact>
</mgrwt>
</event>
<event>
 8    2  0.8128359E-004  0.1539537E+03  0.7818608E-02  0.1204991E+00
         -2   -1    0    0    0  501 -0.00000000000E+00  0.00000000000E+00  0.91874457858E+02  0.91874457894E+02  0.25500000000E-02 0.  1.
          2   -1    0    0  501    0  0.00000000000E+00 -0.00000000000E+00 -0.22166119036E+03  0.22166119037E+03  0.25500000000E-02 0. -1.
         25    2    1    2    0    0  0.55492490390E+02 -0.70698327898E+02 -0.10200021190E+03  0.18467752333E+03  0.12499629731E+03 0.  0.
         23    2    1    2    0    0 -0.55492490390E+02  0.70698327898E+02 -0.27786520606E+02  0.12885812493E+03  0.88060522239E+02 0.  0.
        -11    1    4    4    0    0 -0.41685607341E+02  0.68180018133E+02  0.17190919095E+02  0.81741864620E+02  0.51100000000E-03 0.  1.
         11    1    4    4    0    0 -0.13806883049E+02  0.25183097649E+01 -0.44977439702E+02  0.47116260314E+02  0.51100000000E-03 0. -1.
    9000005    1    3    3    0    0  0.73871359680E+02 -0.34272796013E+02 -0.11582209519E+03  0.14158870034E+03  0.10000000000E+01 0.  0.
    9000005    1    3    3    0    0 -0.18378869290E+02 -0.36425531884E+02  0.13821883300E+02  0.43088822998E+02  0.10000000000E+01 0.  0.
<mgrwt>
<rscale>  0 0.14638134E+03</rscale>
<asrwt>0</asrwt>
<pdfrwt beam="2">  1        2 0.34101721E-01 0.15395371E+03</pdfrwt>
<pdfrwt beam="1">  1       -2 0.14134532E-01 0.15395371E+03</pdfrwt>
<totfact> 0.55340834E+03</totfact>
</mgrwt>
</event>
<event>
 8    2  0.8128359E-004  0.1475805E+03  0.7818608E-02  0.1213481E+00
          2   -1    0    0  501    0  0.00000000000E+00  0.00000000000E+00  0.32114155253E+03  0.32114155254E+03  0.25500000000E-02 0.  1.
         -2   -1    0    0    0  501 -0.00000000000E+00 -0.00000000000E+00 -0.57498657650E+02  0.57498657707E+02  0.25500000000E-02 0. -1.
         25    2    1    2    0    0  0.43981940772E+02 -0.64965580010E+02  0.18153038556E+03  0.23395148168E+03  0.12500030879E+03 0.  0.
         23    2    1    2    0    0 -0.43981940772E+02  0.64965580010E+02  0.82112509319E+02  0.14468872857E+03  0.89651694287E+02 0.  0.
        -11    1    4    4    0    0  0.21573323418E+02  0.14917833285E+02 -0.27232201523E+01  0.26369792595E+02  0.51100000000E-03 0. -1.
         11    1    4    4    0    0 -0.65555264190E+02  0.50047746725E+02  0.84835729471E+02  0.11831893598E+03  0.51100000000E-03 0.  1.
    9000005    1    3    3    0    0  0.67382425451E+02 -0.79034581517E+01  0.38092001444E+02  0.77812958332E+02  0.10000000000E+01 0.  0.
    9000005    1    3    3    0    0 -0.23400484678E+02 -0.57062121859E+02  0.14343838412E+03  0.15613852334E+03  0.10000000000E+01 0.  0.
<mgrwt>
<rscale>  0 0.13988742E+03</rscale>
<asrwt>0</asrwt>
<pdfrwt beam="1">  1        2 0.49406393E-01 0.14758054E+03</pdfrwt>
<pdfrwt beam="2">  1       -2 0.88459472E-02 0.14758054E+03</pdfrwt>
<totfact> 0.78345796E+03</totfact>
</mgrwt>
</event>
<event>
 8    2  0.8128359E-004  0.1650809E+03  0.7818608E-02  0.1192276E+00
         -2   -1    0    0    0  501 -0.00000000000E+00  0.00000000000E+00  0.15247323725E+02  0.15247323938E+02  0.25500000000E-02 0.  1.
          2   -1    0    0  501    0  0.00000000000E+00 -0.00000000000E+00 -0.15214038203E+04  0.15214038203E+04  0.25500000000E-02 0. -1.
         25    2    1    2    0    0  0.81059956353E+02  0.71104681400E+02 -0.96410434511E+03  0.97813541463E+03  0.12500043544E+03 0.  0.
         23    2    1    2    0    0 -0.81059956353E+02 -0.71104681400E+02 -0.54205215143E+03  0.55851572957E+03  0.80577249063E+02 0.  0.
        -11    1    4    4    0    0 -0.46898987417E+02 -0.82224328002E+02 -0.44672514787E+03  0.45664396730E+03  0.51100000000E-03 0.  1.
         11    1    4    4    0    0 -0.34160968935E+02  0.11119646601E+02 -0.95327003565E+02  0.10187176227E+03  0.51100000000E-03 0. -1.
    9000005    1    3    3    0    0 -0.16358484264E+02  0.16918625543E+02 -0.33930480447E+02  0.41305174023E+02  0.10000000000E+01 0.  0.
    9000005    1    3    3    0    0  0.97418440617E+02  0.54186055857E+02 -0.93017386466E+03  0.93683024061E+03  0.10000000000E+01 0.  0.
<mgrwt>
<rscale>  0 0.15687012E+03</rscale>
<asrwt>0</asrwt>
<pdfrwt beam="2">  1        2 0.23406201E+00 0.16508089E+03</pdfrwt>
<pdfrwt beam="1">  1       -2 0.23457433E-02 0.16508089E+03</pdfrwt>
<totfact> 0.79986341E+03</totfact>
</mgrwt>
</event>
<event>
 8    2  0.8128359E-004  0.1433596E+03  0.7818608E-02  0.1219379E+00
         -2   -1    0    0    0  501 -0.00000000000E+00  0.00000000000E+00  0.13885150450E+03  0.13885150453E+03  0.25500000000E-02 0.  1.
          2   -1    0    0  501    0  0.00000000000E+00 -0.00000000000E+00 -0.12988570300E+03  0.12988570303E+03  0.25500000000E-02 0. -1.
         25    2    1    2    0    0  0.59214019061E+02  0.37685280262E+02  0.41909543269E+02  0.14935996146E+03  0.12500203146E+03 0.  0.
         23    2    1    2    0    0 -0.59214019061E+02 -0.37685280262E+02 -0.32943741767E+02  0.11937724609E+03  0.90769798730E+02 0.  0.
        -11    1    4    4    0    0 -0.55409995924E+02 -0.19303592831E+02 -0.61630152195E+02  0.85095076264E+02  0.51100000000E-03 0. -1.
         11    1    4    4    0    0 -0.38040231370E+01 -0.18381687430E+02  0.28686410427E+02  0.34282169830E+02  0.51100000000E-03 0.  1.
    9000005    1    3    3    0    0  0.27463649044E+02  0.77059217505E+02 -0.27763861749E+01  0.81860145013E+02  0.10000000000E+01 0.  0.
    9000005    1    3    3    0    0  0.31750370017E+02 -0.39373937243E+02  0.44685929444E+02  0.67499816448E+02  0.10000000000E+01 0.  0.
<mgrwt>
<rscale>  0 0.13559711E+03</rscale>
<asrwt>0</asrwt>
<pdfrwt beam="2">  1        2 0.19982416E-01 0.14335965E+03</pdfrwt>
<pdfrwt beam="1">  1       -2 0.21361770E-01 0.14335965E+03</pdfrwt>
<totfact> 0.49894854E+03</totfact>
</mgrwt>
</event>
<event>
 8    2  0.8128359E-004  0.1614323E+03  0.7818608E-02  0.1194256E+00
         -2   -1    0    0    0  501 -0.00000000000E+00  0.00000000000E+00  0.19891005880E+03  0.19891005882E+03  0.25500000000E-02 0. -1.
          2   -1    0    0  501    0  0.00000000000E+00 -0.00000000000E+00 -0.11272458605E+03  0.11272458608E+03  0.25500000000E-02 0.  1.
         25    2    1    2    0    0 -0.62201426430E+02  0.81032426600E+02  0.52597977331E+02  0.16978500420E+03  0.12500051529E+03 0.  0.
         23    2    1    2    0    0  0.62201426430E+02 -0.81032426600E+02  0.33587495416E+02  0.14184964070E+03  0.92509075806E+02 0.  0.
        -11    1    4    4    0    0 -0.52556385879E+01  0.12039047756E+01  0.35063416735E+02  0.35475545339E+02  0.51100000000E-03 0. -1.
         11    1    4    4    0    0  0.67457065018E+02 -0.82236331376E+02 -0.14759213191E+01  0.10637409536E+03  0.51100000000E-03 0.  1.
    9000005    1    3    3    0    0  0.15687308161E+02  0.58216091884E+02  0.63869645674E+02  0.87838127428E+02  0.10000000000E+01 0.  0.
    9000005    1    3    3    0    0 -0.77888734591E+02  0.22816334717E+02 -0.11271668343E+02  0.81946876776E+02  0.10000000000E+01 0.  0.
<mgrwt>
<rscale>  0 0.15517354E+03</rscale>
<asrwt>0</asrwt>
<pdfrwt beam="2">  1        2 0.17342244E-01 0.16143234E+03</pdfrwt>
<pdfrwt beam="1">  1       -2 0.30601547E-01 0.16143234E+03</pdfrwt>
<totfact> 0.31408364E+03</totfact>
</mgrwt>
</event>
<event>
 8    2  0.8128359E-004  0.2005431E+03  0.7818608E-02  0.1155419E+00
         -2   -1    0    0    0  501 -0.00000000000E+00  0.00000000000E+00  0.21122839806E+02  0.21122839959E+02  0.25500000000E-02 0.  1.
          2   -1    0    0  501    0  0.00000000000E+00 -0.00000000000E+00 -0.16629267252E+04  0.16629267252E+04  0.25500000000E-02 0. -1.
         25    2    1    2    0    0  0.14996883283E+03  0.45841803669E+02 -0.93437249091E+03  0.95565134998E+03  0.12500171667E+03 0.  0.
         23    2    1    2    0    0 -0.14996883283E+03 -0.45841803669E+02 -0.70743139452E+03  0.72839821521E+03  0.74247290804E+02 0.  0.
        -11    1    4    4    0    0 -0.16794536425E+02 -0.25026904894E+02 -0.24111802886E+03  0.24299445727E+03  0.51100000000E-03 0. -1.
         11    1    4    4    0    0 -0.13317429640E+03 -0.20814898775E+02 -0.46631336566E+03  0.48540375795E+03  0.51100000000E-03 0.  1.
    9000005    1    3    3    0    0  0.83360947472E+02  0.64400265708E+02 -0.77217398762E+03  0.77932670231E+03  0.10000000000E+01 0.  0.
    9000005    1    3    3    0    0  0.66607885356E+02 -0.18558462039E+02 -0.16219850329E+03  0.17632464766E+03  0.10000000000E+01 0.  0.
<mgrwt>
<rscale>  0 0.19341284E+03</rscale>
<asrwt>0</asrwt>
<pdfrwt beam="2">  1        2 0.25583478E+00 0.20054314E+03</pdfrwt>
<pdfrwt beam="1">  1       -2 0.32496690E-02 0.20054314E+03</pdfrwt>
<totfact> 0.41863409E+03</totfact>
</mgrwt>
</event>
<event>
 8    2  0.8128359E-004  0.1329885E+03  0.7818608E-02  0.1236021E+00
         -2   -1    0    0    0  501 -0.00000000000E+00  0.00000000000E+00  0.38372303468E+02  0.38372303553E+02  0.25500000000E-02 0.  1.
          2   -1    0    0  501    0  0.00000000000E+00 -0.00000000000E+00 -0.37249798206E+03  0.37249798207E+03  0.25500000000E-02 0. -1.
         25    2    1    2    0    0 -0.34726420475E+02  0.29245998428E+02 -0.22702007981E+03  0.26310463228E+03  0.12499871273E+03 0.  0.
         23    2    1    2    0    0  0.34726420475E+02 -0.29245998428E+02 -0.10710559878E+03  0.14776565335E+03  0.91114358449E+02 0.  0.
        -11    1    4    4    0    0 -0.13692161363E+02  0.20856759774E+02 -0.72077483031E+01  0.25969816074E+02  0.51100000000E-03 0. -1.
         11    1    4    4    0    0  0.48418581838E+02 -0.50102758202E+02 -0.99897850477E+02  0.12179583727E+03  0.51100000000E-03 0.  1.
    9000005    1    3    3    0    0  0.12974482861E+02  0.53828441829E+02 -0.39415897244E+02  0.67973901689E+02  0.10000000000E+01 0.  0.
    9000005    1    3    3    0    0 -0.47700903336E+02 -0.24582443400E+02 -0.18760418257E+03  0.19513073059E+03  0.10000000000E+01 0.  0.
<mgrwt>
<rscale>  0 0.12439318E+03</rscale>
<asrwt>0</asrwt>
<pdfrwt beam="2">  1        2 0.57307379E-01 0.13298846E+03</pdfrwt>
<pdfrwt beam="1">  1       -2 0.59034316E-02 0.13298846E+03</pdfrwt>
<totfact> 0.12358288E+04</totfact>
</mgrwt>
</event>
<event>
 8    2  0.8128359E-004  0.1279300E+03  0.7818608E-02  0.1243835E+00
          2   -1    0    0  501    0  0.00000000000E+00  0.00000000000E+00  0.50468560885E+03  0.50468560885E+03  0.25500000000E-02 0. -1.
         -2   -1    0    0    0  501 -0.00000000000E+00 -0.00000000000E+00 -0.39458013037E+02  0.39458013119E+02  0.25500000000E-02 0.  1.
         25    2    1    2    0    0 -0.25348737430E+02 -0.98963126829E+01  0.89947962435E+02  0.15638644870E+03  0.12500235956E+03 0.  0.
         23    2    1    2    0    0  0.25348737430E+02  0.98963126829E+01  0.37527963338E+03  0.38775717327E+03  0.93703397512E+02 0.  0.
        -11    1    4    4    0    0  0.16602574946E+02 -0.22464902780E+02  0.33121461640E+03  0.33239049245E+03  0.51100000000E-03 0. -1.
         11    1    4    4    0    0  0.87461624840E+01  0.32361215463E+02  0.44065016971E+02  0.55366680823E+02  0.51100000000E-03 0.  1.
    9000005    1    3    3    0    0  0.29400942711E+02  0.42718916063E+02  0.33171219127E+02  0.61568262931E+02  0.10000000000E+01 0.  0.
    9000005    1    3    3    0    0 -0.54749680141E+02 -0.52615228746E+02  0.56776743308E+02  0.94818185767E+02  0.10000000000E+01 0.  0.
<mgrwt>
<rscale>  0 0.11955386E+03</rscale>
<asrwt>0</asrwt>
<pdfrwt beam="1">  1        2 0.77643939E-01 0.12793000E+03</pdfrwt>
<pdfrwt beam="2">  1       -2 0.60704637E-02 0.12793000E+03</pdfrwt>
<totfact> 0.85176277E+03</totfact>
</mgrwt>
</event>
<event>
 8    2  0.8128359E-004  0.1311561E+03  0.7818608E-02  0.1235842E+00
         -2   -1    0    0    0  501 -0.00000000000E+00  0.00000000000E+00  0.15103975087E+02  0.15103975303E+02  0.25500000000E-02 0.  1.
          2   -1    0    0  501    0  0.00000000000E+00 -0.00000000000E+00 -0.93898357577E+03  0.93898357578E+03  0.25500000000E-02 0. -1.
         25    2    1    2    0    0  0.24723886514E+02  0.31035699266E+02 -0.47861890254E+03  0.49626401874E+03  0.12500974855E+03 0.  0.
         23    2    1    2    0    0 -0.24723886514E+02 -0.31035699266E+02 -0.44526069814E+03  0.45782353234E+03  0.98847419075E+02 0.  0.
        -11    1    4    4    0    0 -0.57660247160E+01 -0.26556018940E+02 -0.43492180108E+03  0.43576994187E+03  0.51100000000E-03 0. -1.
         11    1    4    4    0    0 -0.18957861798E+02 -0.44796803260E+01 -0.10338897065E+02  0.22053590469E+02  0.51100000000E-03 0.  1.
    9000005    1    3    3    0    0  0.48178302996E+02 -0.30676419601E+02 -0.30922244675E+03  0.31445462816E+03  0.10000000000E+01 0.  0.
    9000005    1    3    3    0    0 -0.23454416481E+02  0.61712118867E+02 -0.16939645579E+03  0.18180939058E+03  0.10000000000E+01 0.  0.
<mgrwt>
<rscale>  0 0.12450688E+03</rscale>
<asrwt>0</asrwt>
<pdfrwt beam="2">  1        2 0.14445897E+00 0.13115610E+03</pdfrwt>
<pdfrwt beam="1">  1       -2 0.23236892E-02 0.13115610E+03</pdfrwt>
<totfact> 0.16913858E+04</totfact>
</mgrwt>
</event>
<event>
 8    2  0.8128359E-004  0.2150013E+03  0.7818608E-02  0.1140990E+00
          2   -1    0    0  501    0  0.00000000000E+00  0.00000000000E+00  0.23414427744E+04  0.23414427744E+04  0.25500000000E-02 0. -1.
         -2   -1    0    0    0  501 -0.00000000000E+00 -0.00000000000E+00 -0.18396665731E+02  0.18396665908E+02  0.25500000000E-02 0.  1.
         25    2    1    2    0    0 -0.15111526484E+03 -0.88114972764E+02  0.11019383771E+04  0.11227171234E+04  0.12500192155E+03 0.  0.
         23    2    1    2    0    0  0.15111526484E+03  0.88114972764E+02  0.12211077316E+04  0.12371223170E+04  0.93634733884E+02 0.  0.
        -11    1    4    4    0    0  0.83439552548E+02  0.13690917297E+02  0.78614260031E+03  0.79067679122E+03  0.51100000000E-03 0. -1.
         11    1    4    4    0    0  0.67675712291E+02  0.74424055467E+02  0.43496513124E+03  0.44644552575E+03  0.51100000000E-03 0.  1.
    9000005    1    3    3    0    0 -0.54637757671E+02 -0.95461768025E+02  0.42993007891E+03  0.44377821766E+03  0.10000000000E+01 0.  0.
    9000005    1    3    3    0    0 -0.96477507168E+02  0.73467952611E+01  0.67200829824E+03  0.67893890571E+03  0.10000000000E+01 0.  0.
<mgrwt>
<rscale>  0 0.21072840E+03</rscale>
<asrwt>0</asrwt>
<pdfrwt beam="1">  1        2 0.36022206E+00 0.21500128E+03</pdfrwt>
<pdfrwt beam="2">  1       -2 0.28302555E-02 0.21500128E+03</pdfrwt>
<totfact> 0.22685372E+03</totfact>
</mgrwt>
</event>
<event>
 8    2  0.8128359E-004  0.1563230E+03  0.7818608E-02  0.1202126E+00
         -2   -1    0    0    0  501 -0.00000000000E+00  0.00000000000E+00  0.21403883616E+02  0.21403883768E+02  0.25500000000E-02 0. -1.
          2   -1    0    0  501    0  0.00000000000E+00 -0.00000000000E+00 -0.15347457330E+04  0.15347457330E+04  0.25500000000E-02 0.  1.
         25    2    1    2    0    0  0.93644933326E+02  0.65109326659E+01 -0.12847788343E+04  0.12942540418E+04  0.12500042362E+03 0.  0.
         23    2    1    2    0    0 -0.93644933326E+02 -0.65109326659E+01 -0.22856301514E+03  0.26189557501E+03  0.86812870813E+02 0.  0.
        -11    1    4    4    0    0 -0.28681112075E+02  0.27464323331E+02 -0.14681059770E+03  0.15208631379E+03  0.51100000000E-03 0.  1.
         11    1    4    4    0    0 -0.64963821251E+02 -0.33975255997E+02 -0.81752417435E+02  0.10980926121E+03  0.51100000000E-03 0. -1.
    9000005    1    3    3    0    0 -0.32783895229E+01  0.87818174399E+01 -0.79048157493E+03  0.79053778433E+03  0.10000000000E+01 0.  0.
    9000005    1    3    3    0    0  0.96923322849E+02 -0.22708847740E+01 -0.49429725936E+03  0.50371625747E+03  0.10000000000E+01 0.  0.
<mgrwt>
<rscale>  0 0.14866235E+03</rscale>
<asrwt>0</asrwt>
<pdfrwt beam="2">  1        2 0.23611464E+00 0.15632297E+03</pdfrwt>
<pdfrwt beam="1">  1       -2 0.32929064E-02 0.15632297E+03</pdfrwt>
<totfact> 0.47702948E+03</totfact>
</mgrwt>
</event>
<event>
 8    2  0.8128359E-004  0.1251477E+03  0.7818608E-02  0.1250253E+00
          2   -1    0    0  501    0  0.00000000000E+00  0.00000000000E+00  0.18680130703E+02  0.18680130877E+02  0.25500000000E-02 0. -1.
         -2   -1    0    0    0  501 -0.00000000000E+00 -0.00000000000E+00 -0.71440849683E+03  0.71440849683E+03  0.25500000000E-02 0.  1.
         25    2    1    2    0    0 -0.24572238662E+01  0.54928289427E+01 -0.52068321630E+03  0.53551187618E+03  0.12500299468E+03 0.  0.
         23    2    1    2    0    0  0.24572238662E+01 -0.54928289427E+01 -0.17504514982E+03  0.19757675152E+03  0.91430624778E+02 0.  0.
        -11    1    4    4    0    0  0.25224595803E+02 -0.42503018167E+01 -0.17277994017E+03  0.17466325608E+03  0.51100000000E-03 0.  1.
         11    1    4    4    0    0 -0.22767371936E+02 -0.12425271260E+01 -0.22652096554E+01  0.22913495447E+02  0.51100000000E-03 0. -1.
    9000005    1    3    3    0    0 -0.31213127861E+02 -0.51272468538E+02 -0.21199473917E+03  0.22033132963E+03  0.10000000000E+01 0.  0.
    9000005    1    3    3    0    0  0.28755903995E+02  0.56765297481E+02 -0.30868847713E+03  0.31518054655E+03  0.10000000000E+01 0.  0.
<mgrwt>
<rscale>  0 0.11576435E+03</rscale>
<asrwt>0</asrwt>
<pdfrwt beam="1">  1        2 0.28738668E-02 0.12514774E+03</pdfrwt>
<pdfrwt beam="2">  1       -2 0.10990898E+00 0.12514774E+03</pdfrwt>
<totfact> 0.21691148E+03</totfact>
</mgrwt>
</event>
<event>
 8    2  0.8128359E-004  0.1297182E+03  0.7818608E-02  0.1240257E+00
         -2   -1    0    0    0  501 -0.00000000000E+00  0.00000000000E+00  0.52828738933E+01  0.52828745087E+01  0.25500000000E-02 0. -1.
          2   -1    0    0  501    0  0.00000000000E+00 -0.00000000000E+00 -0.26968912766E+04  0.26968912766E+04  0.25500000000E-02 0.  1.
         25    2    1    2    0    0 -0.23398981900E+02 -0.25563377844E+02 -0.11518475163E+04  0.11591287684E+04  0.12500320877E+03 0.  0.
         23    2    1    2    0    0  0.23398981900E+02  0.25563377844E+02 -0.15397608864E+04  0.15430453827E+04  0.94469398560E+02 0.  0.
        -11    1    4    4    0    0  0.23552198622E+02  0.58851245798E+02 -0.11953395314E+04  0.11970191187E+04  0.51100000000E-03 0.  1.
         11    1    4    4    0    0 -0.15321672208E+00 -0.33287867955E+02 -0.34442135494E+03  0.34602626398E+03  0.51100000000E-03 0. -1.
    9000005    1    3    3    0    0 -0.40311096223E+02  0.38299684636E+02 -0.33223939541E+03  0.33686179092E+03  0.10000000000E+01 0.  0.
    9000005    1    3    3    0    0  0.16912114322E+02 -0.63863062480E+02 -0.81960812091E+03  0.82226697746E+03  0.10000000000E+01 0.  0.
<mgrwt>
<rscale>  0 0.12173836E+03</rscale>
<asrwt>0</asrwt>
<pdfrwt beam="2">  1        2 0.41490525E+00 0.12971816E+03</pdfrwt>
<pdfrwt beam="1">  1       -2 0.81275203E-03 0.12971816E+03</pdfrwt>
<totfact> 0.89212090E+03</totfact>
</mgrwt>
</event>
<event>
 8    2  0.8128359E-004  0.1328857E+03  0.7818608E-02  0.1234820E+00
         -2   -1    0    0    0  501 -0.00000000000E+00  0.00000000000E+00  0.21997818499E+02  0.21997818647E+02  0.25500000000E-02 0.  1.
          2   -1    0    0  501    0  0.00000000000E+00 -0.00000000000E+00 -0.92344738837E+03  0.92344738837E+03  0.25500000000E-02 0. -1.
         25    2    1    2    0    0 -0.26905920077E+02 -0.36130960141E+02 -0.22779101798E+03  0.26371834935E+03  0.12501697922E+03 0.  0.
         23    2    1    2    0    0  0.26905920077E+02  0.36130960141E+02 -0.67365855189E+03  0.68172685768E+03  0.94373137717E+02 0.  0.
        -11    1    4    4    0    0  0.38013888773E+02  0.64074978282E+02 -0.47942437279E+03  0.48517871739E+03  0.51100000000E-03 0.  1.
         11    1    4    4    0    0 -0.11107968696E+02 -0.27944018141E+02 -0.19423417910E+03  0.19654814029E+03  0.51100000000E-03 0. -1.
    9000005    1    3    3    0    0 -0.41949010000E+02 -0.32024840603E+02 -0.23882559557E+03  0.24458940074E+03  0.10000000000E+01 0.  0.
    9000005    1    3    3    0    0  0.15043089924E+02 -0.41061195379E+01  0.11034577590E+02  0.19128948604E+02  0.10000000000E+01 0.  0.
<mgrwt>
<rscale>  0 0.12515968E+03</rscale>
<asrwt>0</asrwt>
<pdfrwt beam="2">  1        2 0.14206880E+00 0.13288574E+03</pdfrwt>
<pdfrwt beam="1">  1       -2 0.33842805E-02 0.13288574E+03</pdfrwt>
<totfact> 0.99751107E+03</totfact>
</mgrwt>
</event>
<event>
 8    2  0.8128359E-004  0.1538791E+03  0.7818608E-02  0.1204120E+00
          2   -1    0    0  501    0  0.00000000000E+00  0.00000000000E+00  0.17299608536E+04  0.17299608536E+04  0.25500000000E-02 0. -1.
         -2   -1    0    0    0  501 -0.00000000000E+00 -0.00000000000E+00 -0.13416867611E+02  0.13416867853E+02  0.25500000000E-02 0.  1.
         25    2    1    2    0    0  0.16996147858E+01 -0.89722351348E+02  0.59771026725E+03  0.61720040934E+03  0.12500317069E+03 0.  0.
         23    2    1    2    0    0 -0.16996147858E+01  0.89722351348E+02  0.11188337187E+04  0.11261773121E+04  0.91833867001E+02 0.  0.
        -11    1    4    4    0    0 -0.72057610454E+01  0.73232206200E+02  0.37560767952E+03  0.38274796921E+03  0.51100000000E-03 0.  1.
         11    1    4    4    0    0  0.55061462596E+01  0.16490145148E+02  0.74322603922E+03  0.74342934291E+03  0.51100000000E-03 0. -1.
    9000005    1    3    3    0    0 -0.43594163692E+02  0.44990674477E+01  0.26025484134E+03  0.26392096384E+03  0.10000000000E+01 0.  0.
    9000005    1    3    3    0    0  0.45293778478E+02 -0.94221418796E+02  0.33745542591E+03  0.35327944549E+03  0.10000000000E+01 0.  0.
<mgrwt>
<rscale>  0 0.14707053E+03</rscale>
<asrwt>0</asrwt>
<pdfrwt beam="1">  1        2 0.26614782E+00 0.15387911E+03</pdfrwt>
<pdfrwt beam="2">  1       -2 0.20641336E-02 0.15387911E+03</pdfrwt>
<totfact> 0.75012094E+03</totfact>
</mgrwt>
</event>
<event>
 8    2  0.8128359E-004  0.1308660E+03  0.7818608E-02  0.1239774E+00
         -2   -1    0    0    0  501 -0.00000000000E+00  0.00000000000E+00  0.96592351329E+01  0.96592354695E+01  0.25500000000E-02 0.  1.
          2   -1    0    0  501    0  0.00000000000E+00 -0.00000000000E+00 -0.18920360888E+04  0.18920360888E+04  0.25500000000E-02 0. -1.
         25    2    1    2    0    0  0.52811358648E+01 -0.38374764819E+02 -0.53826895086E+03  0.55394889435E+03  0.12500160450E+03 0.  0.
         23    2    1    2    0    0 -0.52811358648E+01  0.38374764819E+02 -0.13441079028E+04  0.13477464299E+04  0.91070697759E+02 0.  0.
        -11    1    4    4    0    0  0.40459872111E+02  0.34238496039E+02 -0.73829318653E+03  0.74019328904E+03  0.51100000000E-03 0. -1.
         11    1    4    4    0    0 -0.45741007976E+02  0.41362687797E+01 -0.60581471624E+03  0.60755314084E+03  0.51100000000E-03 0.  1.
    9000005    1    3    3    0    0  0.30479749725E+02 -0.66727615592E+02 -0.19088377204E+03  0.20449744315E+03  0.10000000000E+01 0.  0.
    9000005    1    3    3    0    0 -0.25198613860E+02  0.28352850773E+02 -0.34738517882E+03  0.34945145120E+03  0.10000000000E+01 0.  0.
<mgrwt>
<rscale>  0 0.12203722E+03</rscale>
<asrwt>0</asrwt>
<pdfrwt beam="2">  1        2 0.29108218E+00 0.13086602E+03</pdfrwt>
<pdfrwt beam="1">  1       -2 0.14860377E-02 0.13086602E+03</pdfrwt>
<totfact> 0.99255106E+03</totfact>
</mgrwt>
</event>
<event>
 8    2  0.8128359E-004  0.1264292E+03  0.7818608E-02  0.1248183E+00
         -2   -1    0    0    0  501 -0.00000000000E+00  0.00000000000E+00  0.22858430589E+03  0.22858430590E+03  0.25500000000E-02 0.  1.
          2   -1    0    0  501    0  0.00000000000E+00 -0.00000000000E+00 -0.68781652305E+02  0.68781652353E+02  0.25500000000E-02 0. -1.
         25    2    1    2    0    0  0.17263867571E+02 -0.78131997239E+01  0.17588902693E+02  0.12764682359E+03  0.12500101944E+03 0.  0.
         23    2    1    2    0    0 -0.17263867571E+02  0.78131997239E+01  0.14221375089E+03  0.16971913467E+03  0.90668332493E+02 0.  0.
        -11    1    4    4    0    0 -0.19961143579E+01  0.59665334876E+01 -0.12631706984E+02  0.14111839567E+02  0.51100000000E-03 0. -1.
         11    1    4    4    0    0 -0.15267753213E+02  0.18466662363E+01  0.15484545787E+03  0.15560729510E+03  0.51100000000E-03 0.  1.
    9000005    1    3    3    0    0  0.38035657603E+02 -0.19878339746E+02 -0.44035892409E+02  0.61498125668E+02  0.10000000000E+01 0.  0.
    9000005    1    3    3    0    0 -0.20771790033E+02  0.12065140022E+02  0.61624795102E+02  0.66148697919E+02  0.10000000000E+01 0.  0.
<mgrwt>
<rscale>  0 0.11696890E+03</rscale>
<asrwt>0</asrwt>
<pdfrwt beam="2">  1        2 0.10581793E-01 0.12642920E+03</pdfrwt>
<pdfrwt beam="1">  1       -2 0.35166816E-01 0.12642920E+03</pdfrwt>
<totfact> 0.43143107E+03</totfact>
</mgrwt>
</event>
<event>
 8    2  0.8128359E-004  0.1408063E+03  0.7818608E-02  0.1222640E+00
         -2   -1    0    0    0  501 -0.00000000000E+00  0.00000000000E+00  0.25431373686E+03  0.25431373687E+03  0.25500000000E-02 0. -1.
          2   -1    0    0  501    0  0.00000000000E+00 -0.00000000000E+00 -0.65438293572E+02  0.65438293621E+02  0.25500000000E-02 0.  1.
         25    2    1    2    0    0  0.40773437208E+02  0.50389946933E+02  0.76184982128E+02  0.16009545797E+03  0.12499913690E+03 0.  0.
         23    2    1    2    0    0 -0.40773437208E+02 -0.50389946933E+02  0.11269046116E+03  0.15965657252E+03  0.92679346027E+02 0.  0.
        -11    1    4    4    0    0 -0.30074609530E+02 -0.60069559993E+02  0.12419784784E+03  0.14120176905E+03  0.51100000000E-03 0. -1.
         11    1    4    4    0    0 -0.10698827678E+02  0.96796130606E+01 -0.11507386678E+02  0.18454803470E+02  0.51100000000E-03 0.  1.
    9000005    1    3    3    0    0  0.63432744486E+02  0.66605682763E+01 -0.62167824676E+01  0.64091533193E+02  0.10000000000E+01 0.  0.
    9000005    1    3    3    0    0 -0.22659307278E+02  0.43729378656E+02  0.82401764595E+02  0.96003924776E+02  0.10000000000E+01 0.  0.
<mgrwt>
<rscale>  0 0.13329992E+03</rscale>
<asrwt>0</asrwt>
<pdfrwt beam="2">  1        2 0.10067430E-01 0.14080626E+03</pdfrwt>
<pdfrwt beam="1">  1       -2 0.39125189E-01 0.14080626E+03</pdfrwt>
<totfact> 0.37847192E+03</totfact>
</mgrwt>
</event>
<event>
 8    2  0.8128359E-004  0.1290100E+03  0.7818608E-02  0.1242728E+00
          2   -1    0    0  501    0  0.00000000000E+00  0.00000000000E+00  0.49724034813E+03  0.49724034813E+03  0.25500000000E-02 0.  1.
         -2   -1    0    0    0  501 -0.00000000000E+00 -0.00000000000E+00 -0.34931039090E+02  0.34931039183E+02  0.25500000000E-02 0. -1.
         25    2    1    2    0    0  0.25379311523E+02 -0.19357266576E+02  0.11960363596E+03  0.17592216519E+03  0.12499906098E+03 0.  0.
         23    2    1    2    0    0 -0.25379311523E+02  0.19357266576E+02  0.34270567307E+03  0.35624922213E+03  0.91910373138E+02 0.  0.
        -11    1    4    4    0    0  0.13298696649E+02 -0.11292687753E+02  0.10425090878E+02  0.20323942761E+02  0.51100000000E-03 0. -1.
         11    1    4    4    0    0 -0.38678008173E+02  0.30649954330E+02  0.33228058219E+03  0.33592527937E+03  0.51100000000E-03 0.  1.
    9000005    1    3    3    0    0 -0.14135511043E+02 -0.57168148345E+02  0.19846188797E+02  0.62152080154E+02  0.10000000000E+01 0.  0.
    9000005    1    3    3    0    0  0.39514822567E+02  0.37810881769E+02  0.99757447168E+02  0.11377008503E+03  0.10000000000E+01 0.  0.
<mgrwt>
<rscale>  0 0.12022374E+03</rscale>
<asrwt>0</asrwt>
<pdfrwt beam="1">  1        2 0.76498512E-01 0.12900999E+03</pdfrwt>
<pdfrwt beam="2">  1       -2 0.53740062E-02 0.12900999E+03</pdfrwt>
<totfact> 0.10412491E+04</totfact>
</mgrwt>
</event>
<event>
 8    2  0.8128359E-004  0.1401411E+03  0.7818608E-02  0.1224122E+00
         -2   -1    0    0    0  501 -0.00000000000E+00  0.00000000000E+00  0.80860051725E+01  0.80860055746E+01  0.25500000000E-02 0.  1.
          2   -1    0    0  501    0  0.00000000000E+00 -0.00000000000E+00 -0.19556641595E+04  0.19556641595E+04  0.25500000000E-02 0. -1.
         25    2    1    2    0    0 -0.10311071166E+02  0.62509229058E+02 -0.10529374272E+04  0.10622225528E+04  0.12500321667E+03 0.  0.
         23    2    1    2    0    0  0.10311071166E+02 -0.62509229058E+02 -0.89464072714E+03  0.90152761228E+03  0.91412707817E+02 0.  0.
        -11    1    4    4    0    0 -0.34463798319E+02 -0.54735783665E+02 -0.46181591536E+03  0.46632359911E+03  0.51100000000E-03 0. -1.
         11    1    4    4    0    0  0.44774869485E+02 -0.77734453924E+01 -0.43282481178E+03  0.43520401317E+03  0.51100000000E-03 0.  1.
    9000005    1    3    3    0    0  0.12240668301E+02  0.86034850742E+02 -0.95614126005E+03  0.96008277699E+03  0.10000000000E+01 0.  0.
    9000005    1    3    3    0    0 -0.22551739466E+02 -0.23525621684E+02 -0.96796167189E+02  0.10213977585E+03  0.10000000000E+01 0.  0.
<mgrwt>
<rscale>  0 0.13227274E+03</rscale>
<asrwt>0</asrwt>
<pdfrwt beam="2">  1        2 0.30087103E+00 0.14014109E+03</pdfrwt>
<pdfrwt beam="1">  1       -2 0.12440024E-02 0.14014109E+03</pdfrwt>
<totfact> 0.11923135E+04</totfact>
</mgrwt>
</event>
<event>
 8    2  0.8128359E-004  0.1584020E+03  0.7818608E-02  0.1198685E+00
         -2   -1    0    0    0  501 -0.00000000000E+00  0.00000000000E+00  0.12942653011E+04  0.12942653011E+04  0.25500000000E-02 0.  1.
          2   -1    0    0  501    0  0.00000000000E+00 -0.00000000000E+00 -0.16405240577E+02  0.16405240775E+02  0.25500000000E-02 0. -1.
         25    2    1    2    0    0 -0.37159592428E+02 -0.89853105474E+02  0.73778467937E+03  0.75459752824E+03  0.12504711367E+03 0.  0.
         23    2    1    2    0    0  0.37159592428E+02  0.89853105474E+02  0.54007538120E+03  0.55607301368E+03  0.89896403147E+02 0.  0.
        -11    1    4    4    0    0  0.34162986231E+02  0.20317653778E+02  0.66985075802E+02  0.77890417022E+02  0.51100000000E-03 0. -1.
         11    1    4    4    0    0  0.29966061969E+01  0.69535451697E+02  0.47309030539E+03  0.47818259666E+03  0.51100000000E-03 0.  1.
    9000005    1    3    3    0    0 -0.61104328560E+02 -0.10053357602E+03  0.43342750627E+03  0.44911150294E+03  0.10000000000E+01 0.  0.
    9000005    1    3    3    0    0  0.23944736132E+02  0.10680470541E+02  0.30435717310E+03  0.30548602530E+03  0.10000000000E+01 0.  0.
<mgrwt>
<rscale>  0 0.15146460E+03</rscale>
<asrwt>0</asrwt>
<pdfrwt beam="2">  1        2 0.25238821E-02 0.15840201E+03</pdfrwt>
<pdfrwt beam="1">  1       -2 0.19911782E+00 0.15840201E+03</pdfrwt>
<totfact> 0.57005222E+02</totfact>
</mgrwt>
</event>
<event>
 8    2  0.8128359E-004  0.1278442E+03  0.7818608E-02  0.1246089E+00
          2   -1    0    0  501    0  0.00000000000E+00  0.00000000000E+00  0.39420074152E+03  0.39420074153E+03  0.25500000000E-02 0. -1.
         -2   -1    0    0    0  501 -0.00000000000E+00 -0.00000000000E+00 -0.31347991391E+02  0.31347991495E+02  0.25500000000E-02 0.  1.
         25    2    1    2    0    0 -0.23963354137E+02 -0.12071911249E+02  0.18895404607E+03  0.22813978734E+03  0.12499663057E+03 0.  0.
         23    2    1    2    0    0  0.23963354137E+02  0.12071911249E+02  0.17389870406E+03  0.19740894569E+03  0.89496140602E+02 0.  0.
        -11    1    4    4    0    0  0.37898885708E+02  0.21458061782E+02  0.30836534790E+02  0.53363525291E+02  0.51100000000E-03 0.  1.
         11    1    4    4    0    0 -0.13935531572E+02 -0.93861505329E+01  0.14306216927E+03  0.14404542040E+03  0.51100000000E-03 0. -1.
    9000005    1    3    3    0    0  0.17796685646E+02  0.15855919089E+02 -0.77777522708E+01  0.25092341870E+02  0.10000000000E+01 0.  0.
    9000005    1    3    3    0    0 -0.41760039783E+02 -0.27927830338E+02  0.19673179834E+03  0.20304744546E+03  0.10000000000E+01 0.  0.
<mgrwt>
<rscale>  0 0.11820465E+03</rscale>
<asrwt>0</asrwt>
<pdfrwt beam="1">  1        2 0.60646268E-01 0.12784417E+03</pdfrwt>
<pdfrwt beam="2">  1       -2 0.48227679E-02 0.12784417E+03</pdfrwt>
<totfact> 0.15722641E+04</totfact>
</mgrwt>
</event>
<event>
 8    2  0.8128359E-004  0.4269433E+03  0.7818608E-02  0.1035491E+00
         -2   -1    0    0    0  501 -0.00000000000E+00  0.00000000000E+00  0.19062877369E+03  0.19062877370E+03  0.25500000000E-02 0.  1.
          2   -1    0    0  501    0  0.00000000000E+00 -0.00000000000E+00 -0.11244789487E+04  0.11244789487E+04  0.25500000000E-02 0. -1.
         25    2    1    2    0    0  0.21526869607E+03  0.34687056284E+03 -0.20287702765E+03  0.47269406697E+03  0.12498317379E+03 0.  0.
         23    2    1    2    0    0 -0.21526869607E+03 -0.34687056284E+03 -0.73097314738E+03  0.84241365545E+03  0.93162362722E+02 0.  0.
        -11    1    4    4    0    0 -0.12038804295E+03 -0.11866974830E+03 -0.25212212000E+03  0.30354794257E+03  0.51100000000E-03 0.  1.
         11    1    4    4    0    0 -0.94880653122E+02 -0.22820081454E+03 -0.47885102738E+03  0.53886571288E+03  0.51100000000E-03 0. -1.
    9000005    1    3    3    0    0  0.16945070147E+03  0.30947858192E+03 -0.21378689401E+03  0.41254862616E+03  0.10000000000E+01 0.  0.
    9000005    1    3    3    0    0  0.45817994602E+02  0.37391980913E+02  0.10909866363E+02  0.60145440808E+02  0.10000000000E+01 0.  0.
<mgrwt>
<rscale>  0 0.42487628E+03</rscale>
<asrwt>0</asrwt>
<pdfrwt beam="2">  1        2 0.17299676E+00 0.42694331E+03</pdfrwt>
<pdfrwt beam="1">  1       -2 0.29327504E-01 0.42694331E+03</pdfrwt>
<totfact> 0.23310370E+02</totfact>
</mgrwt>
</event>
<event>
 8    2  0.8128359E-004  0.1872891E+03  0.7818608E-02  0.1165720E+00
          2   -1    0    0  501    0  0.00000000000E+00  0.00000000000E+00  0.22475125427E+04  0.22475125427E+04  0.25500000000E-02 0.  1.
         -2   -1    0    0    0  501 -0.00000000000E+00 -0.00000000000E+00 -0.21040232120E+02  0.21040232274E+02  0.25500000000E-02 0. -1.
         25    2    1    2    0    0 -0.11324628418E+03 -0.81410238829E+02  0.18091853432E+04  0.18188537058E+04  0.12499939672E+03 0.  0.
         23    2    1    2    0    0  0.11324628418E+03  0.81410238829E+02  0.41728696730E+03  0.44969906910E+03  0.92997267702E+02 0.  0.
        -11    1    4    4    0    0  0.74669007455E+01  0.16265573558E+02  0.18860235879E+03  0.18944965883E+03  0.51100000000E-03 0.  1.
         11    1    4    4    0    0  0.10577938344E+03  0.65144665271E+02  0.22868460851E+03  0.26024941027E+03  0.51100000000E-03 0. -1.
    9000005    1    3    3    0    0  0.34093320355E+01  0.24695789905E+02  0.13737108371E+03  0.13961848095E+03  0.10000000000E+01 0.  0.
    9000005    1    3    3    0    0 -0.11665561622E+03 -0.10610602873E+03  0.16718142595E+04  0.16792352249E+04  0.10000000000E+01 0.  0.
<mgrwt>
<rscale>  0 0.18216890E+03</rscale>
<asrwt>0</asrwt>
<pdfrwt beam="1">  1        2 0.34577132E+00 0.18728907E+03</pdfrwt>
<pdfrwt beam="2">  1       -2 0.32369573E-02 0.18728907E+03</pdfrwt>
<totfact> 0.20895952E+03</totfact>
</mgrwt>
</event>
<event>
 8    2  0.8128359E-004  0.1605739E+03  0.7818608E-02  0.1195761E+00
          2   -1    0    0  501    0  0.00000000000E+00  0.00000000000E+00  0.87829091854E+03  0.87829091854E+03  0.25500000000E-02 0.  1.
         -2   -1    0    0    0  501 -0.00000000000E+00 -0.00000000000E+00 -0.29282504341E+02  0.29282504452E+02  0.25500000000E-02 0. -1.
         25    2    1    2    0    0  0.79661957103E+02 -0.61749071963E+02  0.28114949875E+03  0.32377307895E+03  0.12499996283E+03 0.  0.
         23    2    1    2    0    0 -0.79661957103E+02  0.61749071963E+02  0.56785891545E+03  0.58380034405E+03  0.90554505986E+02 0.  0.
        -11    1    4    4    0    0 -0.78497733317E+02  0.39259032220E+02  0.24660197013E+03  0.26175503322E+03  0.51100000000E-03 0. -1.
         11    1    4    4    0    0 -0.11642237867E+01  0.22490039744E+02  0.32125694532E+03  0.32204531082E+03  0.51100000000E-03 0.  1.
    9000005    1    3    3    0    0  0.73191402199E+02 -0.93769710195E+02  0.16699401153E+03  0.20503107031E+03  0.10000000000E+01 0.  0.
    9000005    1    3    3    0    0  0.64705549038E+01  0.32020638231E+02  0.11415548722E+03  0.11874200864E+03  0.10000000000E+01 0.  0.
<mgrwt>
<rscale>  0 0.15389962E+03</rscale>
<asrwt>0</asrwt>
<pdfrwt beam="1">  1        2 0.13512168E+00 0.16057386E+03</pdfrwt>
<pdfrwt beam="2">  1       -2 0.45050006E-02 0.16057386E+03</pdfrwt>
<totfact> 0.70296096E+03</totfact>
</mgrwt>
</event>
<event>
 8    2  0.8128359E-004  0.2398371E+03  0.7818608E-02  0.1122735E+00
          2   -1    0    0  501    0  0.00000000000E+00  0.00000000000E+00  0.48972281945E+03  0.48972281946E+03  0.25500000000E-02 0. -1.
         -2   -1    0    0    0  501 -0.00000000000E+00 -0.00000000000E+00 -0.11413610782E+03  0.11413610785E+03  0.25500000000E-02 0.  1.
         25    2    1    2    0    0  0.52204765239E+02  0.19791686721E+03  0.25447516932E+03  0.34968478106E+03  0.12500164185E+03 0.  0.
         23    2    1    2    0    0 -0.52204765239E+02 -0.19791686721E+03  0.12111154231E+03  0.25417414625E+03  0.89666421256E+02 0.  0.
        -11    1    4    4    0    0 -0.43989813412E+02 -0.10630165370E+03  0.18760127065E+02  0.11656366343E+03  0.51100000000E-03 0.  1.
         11    1    4    4    0    0 -0.82149518272E+01 -0.91615213505E+02  0.10235141524E+03  0.13761048282E+03  0.51100000000E-03 0. -1.
    9000005    1    3    3    0    0  0.15414945808E+02  0.20212433887E+02 -0.11321086880E+02  0.27844748985E+02  0.10000000000E+01 0.  0.
    9000005    1    3    3    0    0  0.36789819431E+02  0.17770443332E+03  0.26579625620E+03  0.32184003207E+03  0.10000000000E+01 0.  0.
<mgrwt>
<rscale>  0 0.23563485E+03</rscale>
<asrwt>0</asrwt>
<pdfrwt beam="1">  1        2 0.75341973E-01 0.23983710E+03</pdfrwt>
<pdfrwt beam="2">  1       -2 0.17559401E-01 0.23983710E+03</pdfrwt>
<totfact> 0.16690062E+03</totfact>
</mgrwt>
</event>
<event>
 8    2  0.8128359E-004  0.2387254E+03  0.7818608E-02  0.1123395E+00
          2   -1    0    0  501    0  0.00000000000E+00  0.00000000000E+00  0.13298399987E+04  0.13298399987E+04  0.25500000000E-02 0. -1.
         -2   -1    0    0    0  501 -0.00000000000E+00 -0.00000000000E+00 -0.46659064270E+02  0.46659064340E+02  0.25500000000E-02 0.  1.
         25    2    1    2    0    0 -0.17995789606E+03  0.94768133394E+02  0.40181632867E+03  0.46738225174E+03  0.12499585511E+03 0.  0.
         23    2    1    2    0    0  0.17995789606E+03 -0.94768133394E+02  0.88136460579E+03  0.90911681133E+03  0.91235765188E+02 0.  0.
        -11    1    4    4    0    0  0.11581998679E+02 -0.37437941094E+02  0.25475312399E+03  0.25774967761E+03  0.51100000000E-03 0.  1.
         11    1    4    4    0    0  0.16837589738E+03 -0.57330192301E+02  0.62661148180E+03  0.65136713372E+03  0.51100000000E-03 0. -1.
    9000005    1    3    3    0    0 -0.80535046683E+02  0.10945848439E+03  0.19825440927E+03  0.24035986425E+03  0.10000000000E+01 0.  0.
    9000005    1    3    3    0    0 -0.99422849376E+02 -0.14690350993E+02  0.20356191940E+03  0.22702238749E+03  0.10000000000E+01 0.  0.
<mgrwt>
<rscale>  0 0.23466989E+03</rscale>
<asrwt>0</asrwt>
<pdfrwt beam="1">  1        2 0.20459076E+00 0.23872538E+03</pdfrwt>
<pdfrwt beam="2">  1       -2 0.71783178E-02 0.23872538E+03</pdfrwt>
<totfact> 0.18936138E+03</totfact>
</mgrwt>
</event>
<event>
 8    2  0.8128359E-004  0.1279342E+03  0.7818608E-02  0.1245913E+00
         -2   -1    0    0    0  501 -0.00000000000E+00  0.00000000000E+00  0.27417449540E+02  0.27417449659E+02  0.25500000000E-02 0.  1.
          2   -1    0    0  501    0  0.00000000000E+00 -0.00000000000E+00 -0.51085376027E+03  0.51085376028E+03  0.25500000000E-02 0. -1.
         25    2    1    2    0    0  0.30676410260E+01 -0.27107068850E+02 -0.36843969235E+03  0.39001919221E+03  0.12499183890E+03 0.  0.
         23    2    1    2    0    0 -0.30676410260E+01  0.27107068850E+02 -0.11499661838E+03  0.14825201773E+03  0.89499915738E+02 0.  0.
        -11    1    4    4    0    0 -0.14600748769E+02 -0.99260435054E+01 -0.10725646462E+03  0.10869985008E+03  0.51100000000E-03 0. -1.
         11    1    4    4    0    0  0.11533107743E+02  0.37033112355E+02 -0.77401537628E+01  0.39552167646E+02  0.51100000000E-03 0.  1.
    9000005    1    3    3    0    0  0.41792930828E+02 -0.62034751783E+02 -0.19300830939E+03  0.20699798789E+03  0.10000000000E+01 0.  0.
    9000005    1    3    3    0    0 -0.38725289802E+02  0.34927682933E+02 -0.17543138295E+03  0.18302120432E+03  0.10000000000E+01 0.  0.
<mgrwt>
<rscale>  0 0.11830921E+03</rscale>
<asrwt>0</asrwt>
<pdfrwt beam="2">  1        2 0.78592879E-01 0.12793422E+03</pdfrwt>
<pdfrwt beam="1">  1       -2 0.42180696E-02 0.12793422E+03</pdfrwt>
<totfact> 0.14512919E+04</totfact>
</mgrwt>
</event>
<event>
 8    2  0.8128359E-004  0.1778735E+03  0.7818608E-02  0.1176669E+00
          2   -1    0    0  501    0  0.00000000000E+00  0.00000000000E+00  0.58354328442E+03  0.58354328443E+03  0.25500000000E-02 0. -1.
         -2   -1    0    0    0  501 -0.00000000000E+00 -0.00000000000E+00 -0.11500773176E+03  0.11500773178E+03  0.25500000000E-02 0.  1.
         25    2    1    2    0    0 -0.83944046737E+02 -0.94688330236E+02 -0.27175733353E+02  0.17993749229E+03  0.12500599099E+03 0.  0.
         23    2    1    2    0    0  0.83944046737E+02  0.94688330236E+02  0.49571128602E+03  0.51861352392E+03  0.84957785042E+02 0.  0.
        -11    1    4    4    0    0  0.69761286801E+01 -0.99834739348E+01  0.12886879002E+03  0.12944304216E+03  0.51100000000E-03 0. -1.
         11    1    4    4    0    0  0.76967918057E+02  0.10467180417E+03  0.36684249601E+03  0.38917048176E+03  0.51100000000E-03 0.  1.
    9000005    1    3    3    0    0  0.10977067437E+02 -0.62068219115E+01 -0.46991399728E+02  0.48664281523E+02  0.10000000000E+01 0.  0.
    9000005    1    3    3    0    0 -0.94921114174E+02 -0.88481508325E+02  0.19815666375E+02  0.13127321077E+03  0.10000000000E+01 0.  0.
<mgrwt>
<rscale>  0 0.17113558E+03</rscale>
<asrwt>0</asrwt>
<pdfrwt beam="1">  1        2 0.89775891E-01 0.17787350E+03</pdfrwt>
<pdfrwt beam="2">  1       -2 0.17693497E-01 0.17787350E+03</pdfrwt>
<totfact> 0.13458660E+03</totfact>
</mgrwt>
</event>
<event>
 8    2  0.8128359E-004  0.1355484E+03  0.7818608E-02  0.1231535E+00
         -2   -1    0    0    0  501 -0.00000000000E+00  0.00000000000E+00  0.45704433927E+02  0.45704433998E+02  0.25500000000E-02 0.  1.
          2   -1    0    0  501    0  0.00000000000E+00 -0.00000000000E+00 -0.40825719996E+03  0.40825719997E+03  0.25500000000E-02 0. -1.
         25    2    1    2    0    0 -0.21118317898E+02 -0.47976578458E+02 -0.92599124112E+02  0.16415838443E+03  0.12500256782E+03 0.  0.
         23    2    1    2    0    0  0.21118317898E+02  0.47976578458E+02 -0.26995364192E+03  0.28980324954E+03  0.91450638189E+02 0.  0.
        -11    1    4    4    0    0 -0.94134865581E+01  0.43484633483E+02 -0.24792898414E+03  0.25188947627E+03  0.51100000000E-03 0. -1.
         11    1    4    4    0    0  0.30531804456E+02  0.44919449746E+01 -0.22024657787E+02  0.37913773274E+02  0.51100000000E-03 0.  1.
    9000005    1    3    3    0    0 -0.60850273051E+02  0.34828691424E+01 -0.14730353587E+02  0.62712593828E+02  0.10000000000E+01 0.  0.
    9000005    1    3    3    0    0  0.39731955153E+02 -0.51459447600E+02 -0.77868770524E+02  0.10144579060E+03  0.10000000000E+01 0.  0.
<mgrwt>
<rscale>  0 0.12728868E+03</rscale>
<asrwt>0</asrwt>
<pdfrwt beam="2">  1        2 0.62808798E-01 0.13554843E+03</pdfrwt>
<pdfrwt beam="1">  1       -2 0.70314517E-02 0.13554843E+03</pdfrwt>
<totfact> 0.85998304E+03</totfact>
</mgrwt>
</event>
<event>
 8    2  0.8128359E-004  0.2769287E+03  0.7818608E-02  0.1099401E+00
          2   -1    0    0  501    0  0.00000000000E+00  0.00000000000E+00  0.10566758383E+04  0.10566758383E+04  0.25500000000E-02 0. -1.
         -2   -1    0    0    0  501 -0.00000000000E+00 -0.00000000000E+00 -0.97801026820E+02  0.97801026853E+02  0.25500000000E-02 0.  1.
         25    2    1    2    0    0  0.31483234015E+02  0.24510516691E+03  0.80202129172E+03  0.84848550952E+03  0.12498708184E+03 0.  0.
         23    2    1    2    0    0 -0.31483234015E+02 -0.24510516691E+03  0.15685351971E+03  0.30599135558E+03  0.89218530454E+02 0.  0.
        -11    1    4    4    0    0 -0.53322668430E+02 -0.18508030652E+03  0.87027021618E+02  0.21135687668E+03  0.51100000000E-03 0.  1.
         11    1    4    4    0    0  0.21839434416E+02 -0.60024860393E+02  0.69826498093E+02  0.94634478901E+02  0.51100000000E-03 0. -1.
    9000005    1    3    3    0    0 -0.78881670263E+00  0.10485946642E+02  0.21821995019E+03  0.21847545393E+03  0.10000000000E+01 0.  0.
    9000005    1    3    3    0    0  0.32272050718E+02  0.23461922027E+03  0.58380134153E+03  0.63001005560E+03  0.10000000000E+01 0.  0.
<mgrwt>
<rscale>  0 0.27330897E+03</rscale>
<asrwt>0</asrwt>
<pdfrwt beam="1">  1        2 0.16256552E+00 0.27692870E+03</pdfrwt>
<pdfrwt beam="2">  1       -2 0.15046311E-01 0.27692870E+03</pdfrwt>
<totfact> 0.82774253E+02</totfact>
</mgrwt>
</event>
<event>
 8    2  0.8128359E-004  0.1562352E+03  0.7818608E-02  0.1201521E+00
          2   -1    0    0  501    0  0.00000000000E+00  0.00000000000E+00  0.16149273228E+04  0.16149273228E+04  0.25500000000E-02 0. -1.
         -2   -1    0    0    0  501 -0.00000000000E+00 -0.00000000000E+00 -0.13081597958E+02  0.13081598206E+02  0.25500000000E-02 0.  1.
         25    2    1    2    0    0  0.58951120570E+01 -0.93536927047E+02  0.72758935526E+03  0.74417450972E+03  0.12500208781E+03 0.  0.
         23    2    1    2    0    0 -0.58951120570E+01  0.93536927047E+02  0.87425636954E+03  0.88383441124E+03  0.89750530686E+02 0.  0.
        -11    1    4    4    0    0  0.57145936756E+00 -0.17822721816E+02  0.98809663309E+02  0.10040580433E+03  0.51100000000E-03 0.  1.
         11    1    4    4    0    0 -0.64665714246E+01  0.11135964886E+03  0.77544670623E+03  0.78342860692E+03  0.51100000000E-03 0. -1.
    9000005    1    3    3    0    0  0.52686467537E+02 -0.63421872364E+02  0.59033720776E+03  0.59606813085E+03  0.10000000000E+01 0.  0.
    9000005    1    3    3    0    0 -0.46791355480E+02 -0.30115054684E+02  0.13725214750E+03  0.14810637886E+03  0.10000000000E+01 0.  0.
<mgrwt>
<rscale>  0 0.14915021E+03</rscale>
<asrwt>0</asrwt>
<pdfrwt beam="1">  1        2 0.24845039E+00 0.15623518E+03</pdfrwt>
<pdfrwt beam="2">  1       -2 0.20125533E-02 0.15623518E+03</pdfrwt>
<totfact> 0.89273986E+03</totfact>
</mgrwt>
</event>
<event>
 8    2  0.8128359E-004  0.1645698E+03  0.7818608E-02  0.1190589E+00
          2   -1    0    0  501    0  0.00000000000E+00  0.00000000000E+00  0.41245789690E+03  0.41245789691E+03  0.25500000000E-02 0. -1.
         -2   -1    0    0    0  501 -0.00000000000E+00 -0.00000000000E+00 -0.62922664856E+02  0.62922664908E+02  0.25500000000E-02 0.  1.
         25    2    1    2    0    0  0.44559979043E+02 -0.97327285970E+02  0.26202816327E+03  0.30942198622E+03  0.12500005954E+03 0.  0.
         23    2    1    2    0    0 -0.44559979043E+02  0.97327285970E+02  0.87507068776E+02  0.16595857560E+03  0.91796347429E+02 0.  0.
        -11    1    4    4    0    0 -0.45007614000E+02  0.47241823091E+02  0.13676975817E+00  0.65249474122E+02  0.51100000000E-03 0.  1.
         11    1    4    4    0    0  0.44763495743E+00  0.50085462879E+02  0.87370299017E+02  0.10070910147E+03  0.51100000000E-03 0. -1.
    9000005    1    3    3    0    0  0.49818987404E+02  0.27220636747E+01  0.34090835167E+02  0.60436133058E+02  0.10000000000E+01 0.  0.
    9000005    1    3    3    0    0 -0.52590083608E+01 -0.10004934964E+03  0.22793732810E+03  0.24898585316E+03  0.10000000000E+01 0.  0.
<mgrwt>
<rscale>  0 0.15833524E+03</rscale>
<asrwt>0</asrwt>
<pdfrwt beam="1">  1        2 0.63455060E-01 0.16456976E+03</pdfrwt>
<pdfrwt beam="2">  1       -2 0.96804101E-02 0.16456976E+03</pdfrwt>
<totfact> 0.52388827E+03</totfact>
</mgrwt>
</event>
<event>
 8    2  0.8128359E-004  0.1412820E+03  0.7818608E-02  0.1223838E+00
         -2   -1    0    0    0  501 -0.00000000000E+00  0.00000000000E+00  0.45531740697E+02  0.45531740768E+02  0.25500000000E-02 0.  1.
          2   -1    0    0  501    0  0.00000000000E+00 -0.00000000000E+00 -0.36002250959E+03  0.36002250960E+03  0.25500000000E-02 0. -1.
         25    2    1    2    0    0  0.65324025355E+02  0.82751982923E+01 -0.21833454821E+03  0.26005881630E+03  0.12499962319E+03 0.  0.
         23    2    1    2    0    0 -0.65324025355E+02 -0.82751982923E+01 -0.96156220687E+02  0.14549543407E+03  0.87104508287E+02 0.  0.
        -11    1    4    4    0    0 -0.26629703703E+02 -0.27765044956E+02 -0.94620747063E+02  0.10214266795E+03  0.51100000000E-03 0.  1.
         11    1    4    4    0    0 -0.38694321652E+02  0.19489846664E+02 -0.15354736241E+01  0.43352766124E+02  0.51100000000E-03 0. -1.
    9000005    1    3    3    0    0  0.74272553959E+02  0.55477970885E+02 -0.15409788681E+03  0.17983708251E+03  0.10000000000E+01 0.  0.
    9000005    1    3    3    0    0 -0.89485286038E+01 -0.47202772592E+02 -0.64236661395E+02  0.80221733787E+02  0.10000000000E+01 0.  0.
<mgrwt>
<rscale>  0 0.13246860E+03</rscale>
<asrwt>0</asrwt>
<pdfrwt beam="2">  1        2 0.55388076E-01 0.14128203E+03</pdfrwt>
<pdfrwt beam="1">  1       -2 0.70048834E-02 0.14128203E+03</pdfrwt>
<totfact> 0.99198082E+03</totfact>
</mgrwt>
</event>
<event>
 8    2  0.8128359E-004  0.1296479E+03  0.7818608E-02  0.1243016E+00
         -2   -1    0    0    0  501 -0.00000000000E+00  0.00000000000E+00  0.44115360788E+01  0.44115368158E+01  0.25500000000E-02 0.  1.
          2   -1    0    0  501    0  0.00000000000E+00 -0.00000000000E+00 -0.30221307251E+04  0.30221307251E+04  0.25500000000E-02 0. -1.
         25    2    1    2    0    0 -0.34375123133E+02  0.17358987312E+00 -0.20655599019E+04  0.20696246728E+04  0.12500759402E+03 0.  0.
         23    2    1    2    0    0  0.34375123133E+02 -0.17358987312E+00 -0.95215928708E+03  0.95691758911E+03  0.88894798214E+02 0.  0.
        -11    1    4    4    0    0  0.61079765256E+02  0.93254888220E+01 -0.48838401163E+03  0.49227700057E+03  0.51100000000E-03 0.  1.
         11    1    4    4    0    0 -0.26704642123E+02 -0.94990786951E+01 -0.46377527545E+03  0.46464058855E+03  0.51100000000E-03 0. -1.
    9000005    1    3    3    0    0 -0.21356642268E+02  0.29357941221E+02 -0.17188824423E+03  0.17568313347E+03  0.10000000000E+01 0.  0.
    9000005    1    3    3    0    0 -0.13018480865E+02 -0.29184351348E+02 -0.18936716577E+04  0.18939415393E+04  0.10000000000E+01 0.  0.
<mgrwt>
<rscale>  0 0.12004900E+03</rscale>
<asrwt>0</asrwt>
<pdfrwt beam="2">  1        2 0.46494153E+00 0.12964790E+03</pdfrwt>
<pdfrwt beam="1">  1       -2 0.67870033E-03 0.12964790E+03</pdfrwt>
<totfact> 0.75616166E+03</totfact>
</mgrwt>
</event>
<event>
 8    2  0.8128359E-004  0.3113291E+03  0.7818608E-02  0.1080491E+00
          2   -1    0    0  501    0  0.00000000000E+00  0.00000000000E+00  0.10112496037E+03  0.10112496040E+03  0.25500000000E-02 0. -1.
         -2   -1    0    0    0  501 -0.00000000000E+00 -0.00000000000E+00 -0.93940327112E+03  0.93940327112E+03  0.25500000000E-02 0.  1.
         25    2    1    2    0    0  0.28211246102E+03  0.41399218798E+02 -0.40871502691E+03  0.51378381122E+03  0.12499798188E+03 0.  0.
         23    2    1    2    0    0 -0.28211246102E+03 -0.41399218798E+02 -0.42956328384E+03  0.52674442030E+03  0.10785978634E+03 0.  0.
        -11    1    4    4    0    0 -0.13185417923E+03 -0.12111613687E+02 -0.29328050003E+03  0.32178512623E+03  0.51100000000E-03 0.  1.
         11    1    4    4    0    0 -0.15025828179E+03 -0.29287605110E+02 -0.13628278381E+03  0.20495929406E+03  0.51100000000E-03 0. -1.
    9000005    1    3    3    0    0  0.28350678321E+03  0.59812950882E+02 -0.36293718856E+03  0.46441155031E+03  0.10000000000E+01 0.  0.
    9000005    1    3    3    0    0 -0.13943221947E+01 -0.18413732085E+02 -0.45777838346E+02  0.49372260909E+02  0.10000000000E+01 0.  0.
<mgrwt>
<rscale>  0 0.30969720E+03</rscale>
<asrwt>0</asrwt>
<pdfrwt beam="1">  1        2 0.15557687E-01 0.31132914E+03</pdfrwt>
<pdfrwt beam="2">  1       -2 0.14452357E+00 0.31132914E+03</pdfrwt>
<totfact> 0.13032922E+02</totfact>
</mgrwt>
</event>
<event>
 8    2  0.8128359E-004  0.1310395E+03  0.7818608E-02  0.1239307E+00
          2   -1    0    0  501    0  0.00000000000E+00  0.00000000000E+00  0.93742167384E+03  0.93742167385E+03  0.25500000000E-02 0. -1.
         -2   -1    0    0    0  501 -0.00000000000E+00 -0.00000000000E+00 -0.14499167283E+02  0.14499167507E+02  0.25500000000E-02 0.  1.
         25    2    1    2    0    0 -0.27541770847E+02  0.28061777691E+02  0.45271625579E+03  0.47129964127E+03  0.12500132439E+03 0.  0.
         23    2    1    2    0    0  0.27541770847E+02 -0.28061777691E+02  0.47020625077E+03  0.48062120008E+03  0.91415574133E+02 0.  0.
        -11    1    4    4    0    0 -0.65181815331E+01  0.24738923514E+02  0.25917221852E+03  0.26043183346E+03  0.51100000000E-03 0. -1.
         11    1    4    4    0    0  0.34059952380E+02 -0.52800701205E+02  0.21103403225E+03  0.22018936662E+03  0.51100000000E-03 0.  1.
    9000005    1    3    3    0    0  0.20273757586E+02  0.62890406470E+02  0.30696635779E+03  0.31399932052E+03  0.10000000000E+01 0.  0.
    9000005    1    3    3    0    0 -0.47815528433E+02 -0.34828628780E+02  0.14574989800E+03  0.15730032075E+03  0.10000000000E+01 0.  0.
<mgrwt>
<rscale>  0 0.12232676E+03</rscale>
<asrwt>0</asrwt>
<pdfrwt beam="1">  1        2 0.14421872E+00 0.13103947E+03</pdfrwt>
<pdfrwt beam="2">  1       -2 0.22306411E-02 0.13103947E+03</pdfrwt>
<totfact> 0.17989238E+04</totfact>
</mgrwt>
</event>
<event>
 8    2  0.8128359E-004  0.1524092E+03  0.7818608E-02  0.1205955E+00
          2   -1    0    0  501    0  0.00000000000E+00  0.00000000000E+00  0.43195740981E+03  0.43195740982E+03  0.25500000000E-02 0. -1.
         -2   -1    0    0    0  501 -0.00000000000E+00 -0.00000000000E+00 -0.47345086103E+02  0.47345086172E+02  0.25500000000E-02 0.  1.
         25    2    1    2    0    0 -0.52450709153E+02  0.69674770096E+02  0.15808609848E+03  0.21959004990E+03  0.12499169974E+03 0.  0.
         23    2    1    2    0    0  0.52450709153E+02 -0.69674770096E+02  0.22652622523E+03  0.25971244609E+03  0.92362186303E+02 0.  0.
        -11    1    4    4    0    0  0.91616065018E+01 -0.35900073628E+02  0.19043700589E+03  0.19400774091E+03  0.51100000000E-03 0. -1.
         11    1    4    4    0    0  0.43289102651E+02 -0.33774696468E+02  0.36089219336E+02  0.65704705177E+02  0.51100000000E-03 0.  1.
    9000005    1    3    3    0    0 -0.30471482106E+02 -0.31404838635E+02  0.22999789594E+02  0.49444569295E+02  0.10000000000E+01 0.  0.
    9000005    1    3    3    0    0 -0.21979227047E+02  0.10107960873E+03  0.13508630889E+03  0.17014548061E+03  0.10000000000E+01 0.  0.
<mgrwt>
<rscale>  0 0.14562448E+03</rscale>
<asrwt>0</asrwt>
<pdfrwt beam="1">  1        2 0.66454985E-01 0.15240924E+03</pdfrwt>
<pdfrwt beam="2">  1       -2 0.72838595E-02 0.15240924E+03</pdfrwt>
<totfact> 0.77248987E+03</totfact>
</mgrwt>
</event>
<event>
 8    2  0.8128359E-004  0.1488970E+03  0.7818608E-02  0.1210868E+00
          2   -1    0    0  501    0  0.00000000000E+00  0.00000000000E+00  0.39692578300E+03  0.39692578300E+03  0.25500000000E-02 0.  1.
         -2   -1    0    0    0  501 -0.00000000000E+00 -0.00000000000E+00 -0.47790175255E+02  0.47790175323E+02  0.25500000000E-02 0. -1.
         25    2    1    2    0    0  0.78538902265E+02  0.19454747557E+02  0.22823076799E+03  0.27250613018E+03  0.12499384448E+03 0.  0.
         23    2    1    2    0    0 -0.78538902265E+02 -0.19454747557E+02  0.12090483975E+03  0.17220982815E+03  0.92148783300E+02 0.  0.
        -11    1    4    4    0    0 -0.36163900489E+02 -0.10469284517E+02 -0.59926072975E+01  0.38122761696E+02  0.51100000000E-03 0. -1.
         11    1    4    4    0    0 -0.42375001776E+02 -0.89854630393E+01  0.12689744705E+03  0.13408706645E+03  0.51100000000E-03 0.  1.
    9000005    1    3    3    0    0  0.75201150710E+02 -0.41014171306E+02  0.10771542147E+03  0.13762625963E+03  0.10000000000E+01 0.  0.
    9000005    1    3    3    0    0  0.33377515554E+01  0.60468918863E+02  0.12051534652E+03  0.13487987055E+03  0.10000000000E+01 0.  0.
<mgrwt>
<rscale>  0 0.14184500E+03</rscale>
<asrwt>0</asrwt>
<pdfrwt beam="1">  1        2 0.61065505E-01 0.14889697E+03</pdfrwt>
<pdfrwt beam="2">  1       -2 0.73523347E-02 0.14889697E+03</pdfrwt>
<totfact> 0.83276247E+03</totfact>
</mgrwt>
</event>
<event>
 8    2  0.8128359E-004  0.1581210E+03  0.7818608E-02  0.1199178E+00
          2   -1    0    0  501    0  0.00000000000E+00  0.00000000000E+00  0.59359006372E+03  0.59359006372E+03  0.25500000000E-02 0. -1.
         -2   -1    0    0    0  501 -0.00000000000E+00 -0.00000000000E+00 -0.37720703476E+02  0.37720703562E+02  0.25500000000E-02 0.  1.
         25    2    1    2    0    0  0.72471206607E+02 -0.64233227602E+02  0.22334547097E+03  0.27365205439E+03  0.12499705659E+03 0.  0.
         23    2    1    2    0    0 -0.72471206607E+02  0.64233227602E+02  0.33252388928E+03  0.35765871289E+03  0.89272810274E+02 0.  0.
        -11    1    4    4    0    0 -0.38315891970E+02 -0.17378396722E+02  0.13044203860E+03  0.13705926341E+03  0.51100000000E-03 0. -1.
         11    1    4    4    0    0 -0.34155314638E+02  0.81611624324E+02  0.20208185067E+03  0.22059944949E+03  0.51100000000E-03 0.  1.
    9000005    1    3    3    0    0  0.12950100943E+01  0.25203489845E+02  0.10930962941E+03  0.11218951837E+03  0.10000000000E+01 0.  0.
    9000005    1    3    3    0    0  0.71176196513E+02 -0.89436717447E+02  0.11403584156E+03  0.16146253602E+03  0.10000000000E+01 0.  0.
<mgrwt>
<rscale>  0 0.15105918E+03</rscale>
<asrwt>0</asrwt>
<pdfrwt beam="1">  1        2 0.91321548E-01 0.15812099E+03</pdfrwt>
<pdfrwt beam="2">  1       -2 0.58031852E-02 0.15812099E+03</pdfrwt>
<totfact> 0.77058598E+03</totfact>
</mgrwt>
</event>
<event>
 8    2  0.8128359E-004  0.1329388E+03  0.7818608E-02  0.1235479E+00
          2   -1    0    0  501    0  0.00000000000E+00  0.00000000000E+00  0.11235832247E+03  0.11235832250E+03  0.25500000000E-02 0.  1.
         -2   -1    0    0    0  501 -0.00000000000E+00 -0.00000000000E+00 -0.15104310845E+03  0.15104310847E+03  0.25500000000E-02 0. -1.
         25    2    1    2    0    0  0.76029287575E+01  0.44607171071E+02 -0.76801855716E+02  0.15352934420E+03  0.12500052100E+03 0.  0.
         23    2    1    2    0    0 -0.76029287575E+01 -0.44607171071E+02  0.38117069736E+02  0.10987208678E+03  0.92581640791E+02 0.  0.
        -11    1    4    4    0    0 -0.71150871982E+00 -0.15081127287E+02  0.66589312211E+02  0.68279448928E+02  0.51100000000E-03 0.  1.
         11    1    4    4    0    0 -0.68914200377E+01 -0.29526043783E+02 -0.28472242475E+02  0.41592637852E+02  0.51100000000E-03 0. -1.
    9000005    1    3    3    0    0  0.39803093411E+02  0.69338550870E+02 -0.17823071099E+02  0.81919367339E+02  0.10000000000E+01 0.  0.
    9000005    1    3    3    0    0 -0.32200164654E+02 -0.24731379799E+02 -0.58978784618E+02  0.71609976857E+02  0.10000000000E+01 0.  0.
<mgrwt>
<rscale>  0 0.12473812E+03</rscale>
<asrwt>0</asrwt>
<pdfrwt beam="1">  1        2 0.17285896E-01 0.13293884E+03</pdfrwt>
<pdfrwt beam="2">  1       -2 0.23237401E-01 0.13293884E+03</pdfrwt>
<totfact> 0.50703274E+03</totfact>
</mgrwt>
</event>
<event>
 8    2  0.8128359E-004  0.1537945E+03  0.7818608E-02  0.1203298E+00
          2   -1    0    0  501    0  0.00000000000E+00  0.00000000000E+00  0.50994679340E+03  0.50994679341E+03  0.25500000000E-02 0. -1.
         -2   -1    0    0    0  501 -0.00000000000E+00 -0.00000000000E+00 -0.42585362317E+02  0.42585362393E+02  0.25500000000E-02 0.  1.
         25    2    1    2    0    0 -0.69954065692E+02  0.55982652097E+02  0.32242548002E+03  0.35722671216E+03  0.12500042029E+03 0.  0.
         23    2    1    2    0    0  0.69954065692E+02 -0.55982652097E+02  0.14493595106E+03  0.19530544364E+03  0.95447146432E+02 0.  0.
        -11    1    4    4    0    0 -0.21802100149E+02 -0.19970894977E+02  0.52075823972E+02  0.59883717819E+02  0.51100000000E-03 0.  1.
         11    1    4    4    0    0  0.91756165841E+02 -0.36011757119E+02  0.92860127086E+02  0.13542172582E+03  0.51100000000E-03 0. -1.
    9000005    1    3    3    0    0 -0.76952304317E+01  0.33198351778E+02  0.68674155171E+01  0.34777989132E+02  0.10000000000E+01 0.  0.
    9000005    1    3    3    0    0 -0.62258835260E+02  0.22784300318E+02  0.31555806451E+03  0.32244872303E+03  0.10000000000E+01 0.  0.
<mgrwt>
<rscale>  0 0.14772359E+03</rscale>
<asrwt>0</asrwt>
<pdfrwt beam="1">  1        2 0.78453351E-01 0.15379445E+03</pdfrwt>
<pdfrwt beam="2">  1       -2 0.65515943E-02 0.15379445E+03</pdfrwt>
<totfact> 0.75844273E+03</totfact>
</mgrwt>
</event>
<event>
 8    2  0.8128359E-004  0.1459806E+03  0.7818608E-02  0.1216667E+00
          2   -1    0    0  501    0  0.00000000000E+00  0.00000000000E+00  0.70266093300E+03  0.70266093300E+03  0.25500000000E-02 0.  1.
         -2   -1    0    0    0  501 -0.00000000000E+00 -0.00000000000E+00 -0.24324284404E+02  0.24324284537E+02  0.25500000000E-02 0. -1.
         25    2    1    2    0    0  0.12424868045E+01  0.75392725305E+02  0.39984791829E+03  0.42566266677E+03  0.12499896527E+03 0.  0.
         23    2    1    2    0    0 -0.12424868045E+01 -0.75392725305E+02  0.27848873030E+03  0.30132255077E+03  0.86912023878E+02 0.  0.
        -11    1    4    4    0    0 -0.40393143057E+02 -0.55722330339E+02  0.13883816383E+03  0.15496005885E+03  0.51100000000E-03 0. -1.
         11    1    4    4    0    0  0.39150656252E+02 -0.19670394966E+02  0.13965056647E+03  0.14636249192E+03  0.51100000000E-03 0.  1.
    9000005    1    3    3    0    0  0.11086431284E+02  0.99740299174E+02  0.37915574230E+03  0.39221309662E+03  0.10000000000E+01 0.  0.
    9000005    1    3    3    0    0 -0.98439444790E+01 -0.24347573869E+02  0.20692175991E+02  0.33449570153E+02  0.10000000000E+01 0.  0.
<mgrwt>
<rscale>  0 0.13754810E+03</rscale>
<asrwt>0</asrwt>
<pdfrwt beam="1">  1        2 0.10810167E+00 0.14598064E+03</pdfrwt>
<pdfrwt beam="2">  1       -2 0.37421981E-02 0.14598064E+03</pdfrwt>
<totfact> 0.12169744E+04</totfact>
</mgrwt>
</event>
<event>
 8    2  0.8128359E-004  0.1387049E+03  0.7818608E-02  0.1224470E+00
          2   -1    0    0  501    0  0.00000000000E+00  0.00000000000E+00  0.23776738164E+03  0.23776738165E+03  0.25500000000E-02 0. -1.
         -2   -1    0    0    0  501 -0.00000000000E+00 -0.00000000000E+00 -0.67828024827E+02  0.67828024875E+02  0.25500000000E-02 0.  1.
         25    2    1    2    0    0  0.52173222477E+02  0.29873559275E+02  0.10917250498E+03  0.17651536362E+03  0.12499825224E+03 0.  0.
         23    2    1    2    0    0 -0.52173222477E+02 -0.29873559275E+02  0.60766851831E+02  0.12908004291E+03  0.96719039014E+02 0.  0.
        -11    1    4    4    0    0 -0.48661103692E+02 -0.41246394048E+02 -0.33401363205E+01  0.63877418118E+02  0.51100000000E-03 0.  1.
         11    1    4    4    0    0 -0.35121187845E+01  0.11372834773E+02  0.64106988152E+02  0.65202624788E+02  0.51100000000E-03 0. -1.
    9000005    1    3    3    0    0  0.88191434881E+01 -0.38621452593E+02  0.81897597804E+02  0.90981374019E+02  0.10000000000E+01 0.  0.
    9000005    1    3    3    0    0  0.43354078989E+02  0.68495011868E+02  0.27274907176E+02  0.85533989602E+02  0.10000000000E+01 0.  0.
<mgrwt>
<rscale>  0 0.13203293E+03</rscale>
<asrwt>0</asrwt>
<pdfrwt beam="1">  1        2 0.36579597E-01 0.13870486E+03</pdfrwt>
<pdfrwt beam="2">  1       -2 0.10435081E-01 0.13870486E+03</pdfrwt>
<totfact> 0.82890122E+03</totfact>
</mgrwt>
</event>
<event>
 8    2  0.8128359E-004  0.1377479E+03  0.7818608E-02  0.1228818E+00
          2   -1    0    0  501    0  0.00000000000E+00  0.00000000000E+00  0.72994345897E+03  0.72994345897E+03  0.25500000000E-02 0. -1.
         -2   -1    0    0    0  501 -0.00000000000E+00 -0.00000000000E+00 -0.21874439160E+02  0.21874439308E+02  0.25500000000E-02 0.  1.
         25    2    1    2    0    0  0.54361392798E+02 -0.19811064316E+02  0.49389709428E+03  0.51274634495E+03  0.12500734071E+03 0.  0.
         23    2    1    2    0    0 -0.54361392798E+02  0.19811064316E+02  0.21417192553E+03  0.23907155333E+03  0.89095199804E+02 0.  0.
        -11    1    4    4    0    0 -0.55900540310E+02 -0.23060097366E+02  0.97127867053E+02  0.11441355276E+03  0.51100000000E-03 0.  1.
         11    1    4    4    0    0  0.15391475120E+01  0.42871161683E+02  0.11704405848E+03  0.12465800056E+03  0.51100000000E-03 0. -1.
    9000005    1    3    3    0    0 -0.18047253914E+02 -0.43643912114E+02  0.31144575194E+03  0.31500785837E+03  0.10000000000E+01 0.  0.
    9000005    1    3    3    0    0  0.72408646711E+02  0.23832847798E+02  0.18245134234E+03  0.19773848658E+03  0.10000000000E+01 0.  0.
<mgrwt>
<rscale>  0 0.12908602E+03</rscale>
<asrwt>0</asrwt>
<pdfrwt beam="1">  1        2 0.11229900E+00 0.13774787E+03</pdfrwt>
<pdfrwt beam="2">  1       -2 0.33652981E-02 0.13774787E+03</pdfrwt>
<totfact> 0.13552219E+04</totfact>
</mgrwt>
</event>
<event>
 8    2  0.8128359E-004  0.2392365E+03  0.7818608E-02  0.1123010E+00
          2   -1    0    0  501    0  0.00000000000E+00  0.00000000000E+00  0.32233435636E+04  0.32233435636E+04  0.25500000000E-02 0. -1.
         -2   -1    0    0    0  501 -0.00000000000E+00 -0.00000000000E+00 -0.16826231784E+02  0.16826231977E+02  0.25500000000E-02 0.  1.
         25    2    1    2    0    0 -0.16155447503E+03 -0.12453532159E+03  0.18377268169E+04  0.18532333812E+04  0.12500086836E+03 0.  0.
         23    2    1    2    0    0  0.16155447503E+03  0.12453532159E+03  0.13687905149E+04  0.13869364144E+04  0.91631047930E+02 0.  0.
        -11    1    4    4    0    0  0.38588200355E+02  0.85159491874E+02  0.64076386262E+03  0.64754885214E+03  0.51100000000E-03 0. -1.
         11    1    4    4    0    0  0.12296627468E+03  0.39375829719E+02  0.72802665233E+03  0.73938756222E+03  0.51100000000E-03 0.  1.
    9000005    1    3    3    0    0  0.15234499772E+02  0.87482269696E+01  0.15840417622E+03  0.15937849447E+03  0.10000000000E+01 0.  0.
    9000005    1    3    3    0    0 -0.17678897481E+03 -0.13328354856E+03  0.16793226407E+04  0.16938548868E+04  0.10000000000E+01 0.  0.
<mgrwt>
<rscale>  0 0.23523256E+03</rscale>
<asrwt>0</asrwt>
<pdfrwt beam="1">  1        2 0.49589904E+00 0.23923652E+03</pdfrwt>
<pdfrwt beam="2">  1       -2 0.25886509E-02 0.23923652E+03</pdfrwt>
<totfact> 0.81050605E+02</totfact>
</mgrwt>
</event>
<event>
 8    2  0.8128359E-004  0.1767127E+03  0.7818608E-02  0.1176746E+00
         -2   -1    0    0    0  501 -0.00000000000E+00  0.00000000000E+00  0.17981362352E+02  0.17981362533E+02  0.25500000000E-02 0. -1.
          2   -1    0    0  501    0  0.00000000000E+00 -0.00000000000E+00 -0.15556834433E+04  0.15556834433E+04  0.25500000000E-02 0.  1.
         25    2    1    2    0    0  0.58944000576E+01 -0.12476747378E+03 -0.91611860431E+03  0.93300625421E+03  0.12500282708E+03 0.  0.
         23    2    1    2    0    0 -0.58944000576E+01  0.12476747378E+03 -0.62158347665E+03  0.64065855163E+03  0.92063537140E+02 0.  0.
        -11    1    4    4    0    0  0.87332650547E+01  0.44093337582E+02 -0.42900112024E+03  0.43134957228E+03  0.51100000000E-03 0.  1.
         11    1    4    4    0    0 -0.14627665112E+02  0.80674136194E+02 -0.19258235641E+03  0.20930897935E+03  0.51100000000E-03 0. -1.
    9000005    1    3    3    0    0 -0.51380469617E+02 -0.18931526626E+02 -0.23141129711E+03  0.23780358237E+03  0.10000000000E+01 0.  0.
    9000005    1    3    3    0    0  0.57274869675E+02 -0.10583594715E+03 -0.68470730720E+03  0.69520267185E+03  0.10000000000E+01 0.  0.
<mgrwt>
<rscale>  0 0.17106135E+03</rscale>
<asrwt>0</asrwt>
<pdfrwt beam="2">  1        2 0.23933581E+00 0.17671269E+03</pdfrwt>
<pdfrwt beam="1">  1       -2 0.27663647E-02 0.17671269E+03</pdfrwt>
<totfact> 0.60335491E+03</totfact>
</mgrwt>
</event>
<event>
 8    2  0.8128359E-004  0.1827951E+03  0.7818608E-02  0.1170445E+00
         -2   -1    0    0    0  501 -0.00000000000E+00  0.00000000000E+00  0.19609096530E+03  0.19609096531E+03  0.25500000000E-02 0.  1.
          2   -1    0    0  501    0  0.00000000000E+00 -0.00000000000E+00 -0.22764499913E+03  0.22764499915E+03  0.25500000000E-02 0. -1.
         25    2    1    2    0    0  0.12756694127E+02 -0.13276849099E+03 -0.13890433982E+03  0.22958323743E+03  0.12499536727E+03 0.  0.
         23    2    1    2    0    0 -0.12756694127E+02  0.13276849099E+03  0.10735030599E+03  0.19415272703E+03  0.91547734940E+02 0.  0.
        -11    1    4    4    0    0 -0.48695422048E+02  0.45721546309E+02  0.35103615821E+02  0.75458384354E+02  0.51100000000E-03 0.  1.
         11    1    4    4    0    0  0.35938727921E+02  0.87046944686E+02  0.72246690167E+02  0.11869434268E+03  0.51100000000E-03 0. -1.
    9000005    1    3    3    0    0  0.13732584725E+02  0.22838824036E+02 -0.26690490381E+02  0.37730333200E+02  0.10000000000E+01 0.  0.
    9000005    1    3    3    0    0 -0.97589059761E+00 -0.15560731503E+03 -0.11221384944E+03  0.19185290423E+03  0.10000000000E+01 0.  0.
<mgrwt>
<rscale>  0 0.17729698E+03</rscale>
<asrwt>0</asrwt>
<pdfrwt beam="2">  1        2 0.35022308E-01 0.18279510E+03</pdfrwt>
<pdfrwt beam="1">  1       -2 0.30167841E-01 0.18279510E+03</pdfrwt>
<totfact> 0.14801710E+03</totfact>
</mgrwt>
</event>
<event>
 8    2  0.8128359E-004  0.1276389E+03  0.7818608E-02  0.1245107E+00
         -2   -1    0    0    0  501 -0.00000000000E+00  0.00000000000E+00  0.73239980399E+01  0.73239984838E+01  0.25500000000E-02 0.  1.
          2   -1    0    0  501    0  0.00000000000E+00 -0.00000000000E+00 -0.17272101864E+04  0.17272101864E+04  0.25500000000E-02 0. -1.
         25    2    1    2    0    0 -0.24396552325E+01  0.25706311312E+02 -0.88039998949E+03  0.88960431107E+03  0.12499968966E+03 0.  0.
         23    2    1    2    0    0  0.24396552325E+01 -0.25706311312E+02 -0.83948619890E+03  0.84492987385E+03  0.92209800025E+02 0.  0.
        -11    1    4    4    0    0 -0.14645067818E+02 -0.81558582792E+01 -0.25144336524E+02  0.30219756702E+02  0.51100000000E-03 0.  1.
         11    1    4    4    0    0  0.17084723050E+02 -0.17550453033E+02 -0.81434186237E+03  0.81471011714E+03  0.51100000000E-03 0. -1.
    9000005    1    3    3    0    0  0.32080208241E+02 -0.39739719356E+02 -0.44991533243E+03  0.45280590921E+03  0.10000000000E+01 0.  0.
    9000005    1    3    3    0    0 -0.34519863474E+02  0.65446030669E+02 -0.43048465706E+03  0.43679840186E+03  0.10000000000E+01 0.  0.
<mgrwt>
<rscale>  0 0.11879003E+03</rscale>
<asrwt>0</asrwt>
<pdfrwt beam="2">  1        2 0.26572432E+00 0.12763890E+03</pdfrwt>
<pdfrwt beam="1">  1       -2 0.11267703E-02 0.12763890E+03</pdfrwt>
<totfact> 0.17900137E+04</totfact>
</mgrwt>
</event>
<event>
 8    2  0.8128359E-004  0.1454441E+03  0.7818608E-02  0.1217846E+00
          2   -1    0    0  501    0  0.00000000000E+00  0.00000000000E+00  0.64948811969E+02  0.64948812019E+02  0.25500000000E-02 0. -1.
         -2   -1    0    0    0  501 -0.00000000000E+00 -0.00000000000E+00 -0.34141009565E+03  0.34141009566E+03  0.25500000000E-02 0.  1.
         25    2    1    2    0    0 -0.74352524913E+02 -0.26173405981E+00 -0.51316909304E+02  0.15423164708E+03  0.12500243724E+03 0.  0.
         23    2    1    2    0    0  0.74352524913E+02  0.26173405981E+00 -0.22514437438E+03  0.25212726060E+03  0.85730973151E+02 0.  0.
        -11    1    4    4    0    0  0.45855499121E+02  0.42378567658E+02 -0.11677747620E+03  0.13242223659E+03  0.51100000000E-03 0. -1.
         11    1    4    4    0    0  0.28497025792E+02 -0.42116833598E+02 -0.10836689818E+03  0.11970502400E+03  0.51100000000E-03 0.  1.
    9000005    1    3    3    0    0  0.51124017293E+01  0.16348560959E+02 -0.69032362715E+02  0.71132827857E+02  0.10000000000E+01 0.  0.
    9000005    1    3    3    0    0 -0.79464926642E+02 -0.16610295018E+02  0.17715453411E+02  0.83098819224E+02  0.10000000000E+01 0.  0.
<mgrwt>
<rscale>  0 0.13669535E+03</rscale>
<asrwt>0</asrwt>
<pdfrwt beam="1">  1        2 0.99921251E-02 0.14544406E+03</pdfrwt>
<pdfrwt beam="2">  1       -2 0.52524629E-01 0.14544406E+03</pdfrwt>
<totfact> 0.21602289E+03</totfact>
</mgrwt>
</event>
<event>
 8    2  0.8128359E-004  0.1377954E+03  0.7818608E-02  0.1227822E+00
         -2   -1    0    0    0  501 -0.00000000000E+00  0.00000000000E+00  0.36470478606E+02  0.36470478695E+02  0.25500000000E-02 0.  1.
          2   -1    0    0  501    0  0.00000000000E+00 -0.00000000000E+00 -0.50244429497E+03  0.50244429498E+03  0.25500000000E-02 0. -1.
         25    2    1    2    0    0  0.42849511059E+02  0.39077412808E+02 -0.36760690223E+03  0.39258425315E+03  0.12499774585E+03 0.  0.
         23    2    1    2    0    0 -0.42849511059E+02 -0.39077412808E+02 -0.98366914140E+02  0.14633052052E+03  0.91506538836E+02 0.  0.
        -11    1    4    4    0    0 -0.69430395284E+01  0.26924894450E+02 -0.49270581956E+02  0.56575135754E+02  0.51100000000E-03 0. -1.
         11    1    4    4    0    0 -0.35906471530E+02 -0.66002307258E+02 -0.49096332184E+02  0.89755384771E+02  0.51100000000E-03 0.  1.
    9000005    1    3    3    0    0 -0.62144500765E+01  0.46146879783E+02 -0.32157225933E+03  0.32492748710E+03  0.10000000000E+01 0.  0.
    9000005    1    3    3    0    0  0.49063961135E+02 -0.70694669746E+01 -0.46034642896E+02  0.67656766049E+02  0.10000000000E+01 0.  0.
<mgrwt>
<rscale>  0 0.12975336E+03</rscale>
<asrwt>0</asrwt>
<pdfrwt beam="2">  1        2 0.77299117E-01 0.13779536E+03</pdfrwt>
<pdfrwt beam="1">  1       -2 0.56108432E-02 0.13779536E+03</pdfrwt>
<totfact> 0.96901190E+03</totfact>
</mgrwt>
</event>
<event>
 8    2  0.8128359E-004  0.1457393E+03  0.7818608E-02  0.1216219E+00
          2   -1    0    0  501    0  0.00000000000E+00  0.00000000000E+00  0.41056237839E+03  0.41056237840E+03  0.25500000000E-02 0. -1.
         -2   -1    0    0    0  501 -0.00000000000E+00 -0.00000000000E+00 -0.42540332898E+02  0.42540332974E+02  0.25500000000E-02 0.  1.
         25    2    1    2    0    0 -0.43249074379E+02 -0.61197543422E+02  0.23059689029E+03  0.27279086395E+03  0.12499723152E+03 0.  0.
         23    2    1    2    0    0  0.43249074379E+02  0.61197543422E+02  0.13742515520E+03  0.18031184742E+03  0.89504565711E+02 0.  0.
        -11    1    4    4    0    0  0.16231372250E+02  0.78227101055E+02  0.72182871154E+02  0.10767220474E+03  0.51100000000E-03 0.  1.
         11    1    4    4    0    0  0.27017702129E+02 -0.17029557634E+02  0.65242284042E+02  0.72639642681E+02  0.51100000000E-03 0. -1.
    9000005    1    3    3    0    0  0.39924402801E+02 -0.30234432964E+01  0.97499480878E+02  0.10540516078E+03  0.10000000000E+01 0.  0.
    9000005    1    3    3    0    0 -0.83173477180E+02 -0.58174100125E+02  0.13309740942E+03  0.16738570317E+03  0.10000000000E+01 0.  0.
<mgrwt>
<rscale>  0 0.13787363E+03</rscale>
<asrwt>0</asrwt>
<pdfrwt beam="1">  1        2 0.63163443E-01 0.14573925E+03</pdfrwt>
<pdfrwt beam="2">  1       -2 0.65446666E-02 0.14573925E+03</pdfrwt>
<totfact> 0.95857881E+03</totfact>
</mgrwt>
</event>
<event>
 8    2  0.8128359E-004  0.1799476E+03  0.7818608E-02  0.1173390E+00
         -2   -1    0    0    0  501 -0.00000000000E+00  0.00000000000E+00  0.31010694537E+02  0.31010694641E+02  0.25500000000E-02 0.  1.
          2   -1    0    0  501    0  0.00000000000E+00 -0.00000000000E+00 -0.11842974131E+04  0.11842974131E+04  0.25500000000E-02 0. -1.
         25    2    1    2    0    0 -0.38004010741E+02 -0.12373385211E+03 -0.88960017669E+03  0.90761755692E+03  0.12500713692E+03 0.  0.
         23    2    1    2    0    0  0.38004010741E+02  0.12373385211E+03 -0.26368654192E+03  0.30769055087E+03  0.91588818707E+02 0.  0.
        -11    1    4    4    0    0  0.51285184872E+02  0.74355072731E+02 -0.93567053068E+02  0.13005245268E+03  0.51100000000E-03 0.  1.
         11    1    4    4    0    0 -0.13281174131E+02  0.49378779380E+02 -0.17011948886E+03  0.17763809819E+03  0.51100000000E-03 0. -1.
    9000005    1    3    3    0    0 -0.29838240550E+02 -0.14973068010E+03 -0.75322045889E+03  0.76853865020E+03  0.10000000000E+01 0.  0.
    9000005    1    3    3    0    0 -0.81657701903E+01  0.25996827988E+02 -0.13637971780E+03  0.13907890672E+03  0.10000000000E+01 0.  0.
<mgrwt>
<rscale>  0 0.17434581E+03</rscale>
<asrwt>0</asrwt>
<pdfrwt beam="2">  1        2 0.18219957E+00 0.17994765E+03</pdfrwt>
<pdfrwt beam="1">  1       -2 0.47708770E-02 0.17994765E+03</pdfrwt>
<totfact> 0.42493409E+03</totfact>
</mgrwt>
</event>
<event>
 8    2  0.8128359E-004  0.1295952E+03  0.7818608E-02  0.1243475E+00
          2   -1    0    0  501    0  0.00000000000E+00  0.00000000000E+00  0.16483168987E+04  0.16483168987E+04  0.25500000000E-02 0. -1.
         -2   -1    0    0    0  501 -0.00000000000E+00 -0.00000000000E+00 -0.82488035005E+01  0.82488038947E+01  0.25500000000E-02 0.  1.
         25    2    1    2    0    0  0.17104626159E+02 -0.29619543782E+02  0.71236348099E+03  0.72405569827E+03  0.12500015817E+03 0.  0.
         23    2    1    2    0    0 -0.17104626159E+02  0.29619543782E+02  0.92770461421E+03  0.93251000432E+03  0.88142902889E+02 0.  0.
        -11    1    4    4    0    0  0.18840602921E+02  0.40359985347E+02  0.26279534122E+03  0.26654321995E+03  0.51100000000E-03 0.  1.
         11    1    4    4    0    0 -0.35945229080E+02 -0.10740441564E+02  0.66490927299E+03  0.66596678437E+03  0.51100000000E-03 0. -1.
    9000005    1    3    3    0    0 -0.45589146270E-01  0.29093931735E+02  0.43148827146E+02  0.52050746644E+02  0.10000000000E+01 0.  0.
    9000005    1    3    3    0    0  0.17150215306E+02 -0.58713475518E+02  0.66921465385E+03  0.67200495163E+03  0.10000000000E+01 0.  0.
<mgrwt>
<rscale>  0 0.11977143E+03</rscale>
<asrwt>0</asrwt>
<pdfrwt beam="1">  1        2 0.25358699E+00 0.12959524E+03</pdfrwt>
<pdfrwt beam="2">  1       -2 0.12690478E-02 0.12959524E+03</pdfrwt>
<totfact> 0.16578150E+04</totfact>
</mgrwt>
</event>
<event>
 8    2  0.8128359E-004  0.1386217E+03  0.7818608E-02  0.1226599E+00
          2   -1    0    0  501    0  0.00000000000E+00  0.00000000000E+00  0.27184172546E+04  0.27184172546E+04  0.25500000000E-02 0. -1.
         -2   -1    0    0    0  501 -0.00000000000E+00 -0.00000000000E+00 -0.57348426839E+01  0.57348432508E+01  0.25500000000E-02 0.  1.
         25    2    1    2    0    0  0.59103701438E+02 -0.98759022540E+01  0.13463905705E+04  0.13535078684E+04  0.12500080232E+03 0.  0.
         23    2    1    2    0    0 -0.59103701438E+02  0.98759022540E+01  0.13662918413E+04  0.13706442294E+04  0.91221854729E+02 0.  0.
        -11    1    4    4    0    0 -0.68628539367E+02  0.22991403090E+02  0.13117377035E+04  0.13137329576E+04  0.51100000000E-03 0. -1.
         11    1    4    4    0    0  0.95248379292E+01 -0.13115500836E+02  0.54554137804E+02  0.56911271745E+02  0.51100000000E-03 0.  1.
    9000005    1    3    3    0    0 -0.13546240910E+02  0.21568062806E+02  0.67228707766E+02  0.71898408355E+02  0.10000000000E+01 0.  0.
    9000005    1    3    3    0    0  0.72649942348E+02 -0.31443965060E+02  0.12791618628E+04  0.12816094601E+04  0.10000000000E+01 0.  0.
<mgrwt>
<rscale>  0 0.13057875E+03</rscale>
<asrwt>0</asrwt>
<pdfrwt beam="1">  1        2 0.41821816E+00 0.13862172E+03</pdfrwt>
<pdfrwt beam="2">  1       -2 0.88228327E-03 0.13862172E+03</pdfrwt>
<totfact> 0.77292485E+03</totfact>
</mgrwt>
</event>
<event>
 8    2  0.8128359E-004  0.1361594E+03  0.7818608E-02  0.1229724E+00
         -2   -1    0    0    0  501 -0.00000000000E+00  0.00000000000E+00  0.82426594083E+01  0.82426598027E+01  0.25500000000E-02 0.  1.
          2   -1    0    0  501    0  0.00000000000E+00 -0.00000000000E+00 -0.18075281431E+04  0.18075281431E+04  0.25500000000E-02 0. -1.
         25    2    1    2    0    0  0.46637947703E+02 -0.27201815319E+02 -0.10102902591E+04  0.10194242439E+04  0.12499737754E+03 0.  0.
         23    2    1    2    0    0 -0.46637947703E+02  0.27201815319E+02 -0.78899522454E+03  0.79634655900E+03  0.93484441316E+02 0.  0.
        -11    1    4    4    0    0 -0.10605896458E+02 -0.33992110257E+02 -0.32564250998E+03  0.32758356629E+03  0.51100000000E-03 0.  1.
         11    1    4    4    0    0 -0.36032051245E+02  0.61193925576E+02 -0.46335271456E+03  0.46876299271E+03  0.51100000000E-03 0. -1.
    9000005    1    3    3    0    0 -0.16619807015E+02 -0.56102170276E+02 -0.29418925693E+03  0.29995331368E+03  0.10000000000E+01 0.  0.
    9000005    1    3    3    0    0  0.63257754718E+02  0.28900354956E+02 -0.71610100220E+03  0.71947093019E+03  0.10000000000E+01 0.  0.
<mgrwt>
<rscale>  0 0.12848335E+03</rscale>
<asrwt>0</asrwt>
<pdfrwt beam="2">  1        2 0.27808094E+00 0.13615940E+03</pdfrwt>
<pdfrwt beam="1">  1       -2 0.12681029E-02 0.13615940E+03</pdfrwt>
<totfact> 0.13791827E+04</totfact>
</mgrwt>
</event>
<event>
 8    2  0.8128359E-004  0.1392801E+03  0.7818608E-02  0.1225177E+00
          2   -1    0    0  501    0  0.00000000000E+00  0.00000000000E+00  0.51922946835E+02  0.51922946898E+02  0.25500000000E-02 0. -1.
         -2   -1    0    0    0  501 -0.00000000000E+00 -0.00000000000E+00 -0.30218217715E+03  0.30218217716E+03  0.25500000000E-02 0.  1.
         25    2    1    2    0    0 -0.42142483602E+02  0.44697615167E+02 -0.14934435105E+03  0.20421232368E+03  0.12500028891E+03 0.  0.
         23    2    1    2    0    0  0.42142483602E+02 -0.44697615167E+02 -0.10091487927E+03  0.14989280038E+03  0.92250599032E+02 0.  0.
        -11    1    4    4    0    0  0.52774603380E+02 -0.38274183885E+02 -0.11432933633E+03  0.13161029237E+03  0.51100000000E-03 0.  1.
         11    1    4    4    0    0 -0.10632119778E+02 -0.64234312818E+01  0.13414457059E+02  0.18282508003E+02  0.51100000000E-03 0. -1.
    9000005    1    3    3    0    0 -0.69097617199E+02  0.53672990070E+02 -0.15228476652E+03  0.17563291457E+03  0.10000000000E+01 0.  0.
    9000005    1    3    3    0    0  0.26955133597E+02 -0.89753749036E+01  0.29404154750E+01  0.28579409109E+02  0.10000000000E+01 0.  0.
<mgrwt>
<rscale>  0 0.13154804E+03</rscale>
<asrwt>0</asrwt>
<pdfrwt beam="1">  1        2 0.79881459E-02 0.13928007E+03</pdfrwt>
<pdfrwt beam="2">  1       -2 0.46489564E-01 0.13928007E+03</pdfrwt>
<totfact> 0.36217424E+03</totfact>
</mgrwt>
</event>
<event>
 8    2  0.8128359E-004  0.1582942E+03  0.7818608E-02  0.1198510E+00
         -2   -1    0    0    0  501 -0.00000000000E+00  0.00000000000E+00  0.37855319300E+02  0.37855319386E+02  0.25500000000E-02 0.  1.
          2   -1    0    0  501    0  0.00000000000E+00 -0.00000000000E+00 -0.12491454132E+04  0.12491454132E+04  0.25500000000E-02 0. -1.
         25    2    1    2    0    0 -0.31299187156E+02 -0.91937421588E+02 -0.15229140819E+03  0.21965818763E+03  0.12499967111E+03 0.  0.
         23    2    1    2    0    0  0.31299187156E+02  0.91937421588E+02 -0.10589986857E+04  0.10673425450E+04  0.91157903343E+02 0.  0.
        -11    1    4    4    0    0 -0.15335135401E+02  0.84614501373E+02 -0.68348611373E+03  0.68887447905E+03  0.51100000000E-03 0.  1.
         11    1    4    4    0    0  0.46634322557E+02  0.73229202154E+01 -0.37551257202E+03  0.37846806595E+03  0.51100000000E-03 0. -1.
    9000005    1    3    3    0    0 -0.26986138604E+02 -0.13394083176E+02  0.15825691428E+02  0.34045640691E+02  0.10000000000E+01 0.  0.
    9000005    1    3    3    0    0 -0.43130485527E+01 -0.78543338412E+02 -0.16811709962E+03  0.18561254694E+03  0.10000000000E+01 0.  0.
<mgrwt>
<rscale>  0 0.15160855E+03</rscale>
<asrwt>0</asrwt>
<pdfrwt beam="2">  1        2 0.19217619E+00 0.15829418E+03</pdfrwt>
<pdfrwt beam="1">  1       -2 0.58238962E-02 0.15829418E+03</pdfrwt>
<totfact> 0.28845724E+03</totfact>
</mgrwt>
</event>
<event>
 8    2  0.8128359E-004  0.1347760E+03  0.7818608E-02  0.1232310E+00
          2   -1    0    0  501    0  0.00000000000E+00  0.00000000000E+00  0.35232251932E+04  0.35232251932E+04  0.25500000000E-02 0. -1.
         -2   -1    0    0    0  501 -0.00000000000E+00 -0.00000000000E+00 -0.48756269738E+01  0.48756276407E+01  0.25500000000E-02 0.  1.
         25    2    1    2    0    0 -0.15934702468E+02 -0.47813543675E+02  0.12388679759E+04  0.12461775310E+04  0.12499810895E+03 0.  0.
         23    2    1    2    0    0  0.15934702468E+02  0.47813543675E+02  0.22794815903E+04  0.22819232899E+04  0.92722869880E+02 0.  0.
        -11    1    4    4    0    0 -0.35553528744E+01  0.58265652440E+01  0.18396223927E+04  0.18396350554E+04  0.51100000000E-03 0. -1.
         11    1    4    4    0    0  0.19490055343E+02  0.41986978431E+02  0.43985919759E+03  0.44228823443E+03  0.51100000000E-03 0.  1.
    9000005    1    3    3    0    0 -0.39296204383E+02  0.55063115018E+01  0.98166755630E+03  0.98246969533E+03  0.10000000000E+01 0.  0.
    9000005    1    3    3    0    0  0.23361501915E+02 -0.53319855177E+02  0.25720041960E+03  0.26370783563E+03  0.10000000000E+01 0.  0.
<mgrwt>
<rscale>  0 0.12678222E+03</rscale>
<asrwt>0</asrwt>
<pdfrwt beam="1">  1        2 0.54203440E+00 0.13477603E+03</pdfrwt>
<pdfrwt beam="2">  1       -2 0.75009685E-03 0.13477603E+03</pdfrwt>
<totfact> 0.32318582E+03</totfact>
</mgrwt>
</event>
<event>
 8    2  0.8128359E-004  0.1363388E+03  0.7818608E-02  0.1230401E+00
         -2   -1    0    0    0  501 -0.00000000000E+00  0.00000000000E+00  0.49101340452E+03  0.49101340452E+03  0.25500000000E-02 0.  1.
          2   -1    0    0  501    0  0.00000000000E+00 -0.00000000000E+00 -0.33988261732E+02  0.33988261828E+02  0.25500000000E-02 0. -1.
         25    2    1    2    0    0 -0.51611529073E+02  0.17298907604E+02  0.34395071546E+03  0.36998699126E+03  0.12500110759E+03 0.  0.
         23    2    1    2    0    0  0.51611529073E+02 -0.17298907604E+02  0.11307442732E+03  0.15501467509E+03  0.90998468344E+02 0.  0.
        -11    1    4    4    0    0  0.67617230384E+02  0.11674361074E+02  0.54073979620E+02  0.87363469617E+02  0.51100000000E-03 0. -1.
         11    1    4    4    0    0 -0.16005701311E+02 -0.28973268678E+02  0.59000447703E+02  0.67651205472E+02  0.51100000000E-03 0.  1.
    9000005    1    3    3    0    0 -0.67259072706E+02  0.11015216689E+02  0.34628944896E+03  0.35293413028E+03  0.10000000000E+01 0.  0.
    9000005    1    3    3    0    0  0.15647543633E+02  0.62836909150E+01 -0.23387334947E+01  0.17052860980E+02  0.10000000000E+01 0.  0.
<mgrwt>
<rscale>  0 0.12803493E+03</rscale>
<asrwt>0</asrwt>
<pdfrwt beam="2">  1        2 0.52289640E-02 0.13633884E+03</pdfrwt>
<pdfrwt beam="1">  1       -2 0.75540515E-01 0.13633884E+03</pdfrwt>
<totfact> 0.22984142E+03</totfact>
</mgrwt>
</event>
<event>
 8    2  0.8128359E-004  0.1382660E+03  0.7818608E-02  0.1226846E+00
          2   -1    0    0  501    0  0.00000000000E+00  0.00000000000E+00  0.19766562832E+03  0.19766562834E+03  0.25500000000E-02 0. -1.
         -2   -1    0    0    0  501 -0.00000000000E+00 -0.00000000000E+00 -0.92467321337E+02  0.92467321372E+02  0.25500000000E-02 0.  1.
         25    2    1    2    0    0 -0.58664373989E+02  0.71452400874E+01 -0.10898005235E+00  0.13826602991E+03  0.12499967968E+03 0.  0.
         23    2    1    2    0    0  0.58664373989E+02 -0.71452400874E+01  0.10530728704E+03  0.15186691980E+03  0.92094372220E+02 0.  0.
        -11    1    4    4    0    0  0.36130533167E+02 -0.33249020239E+02  0.10659311596E+03  0.11735844726E+03  0.51100000000E-03 0. -1.
         11    1    4    4    0    0  0.22533840822E+02  0.26103780152E+02 -0.12858289232E+01  0.34508472535E+02  0.51100000000E-03 0.  1.
    9000005    1    3    3    0    0 -0.13300566707E+02 -0.55272348056E+02  0.16757162619E+02  0.59276808562E+02  0.10000000000E+01 0.  0.
    9000005    1    3    3    0    0 -0.45363807282E+02  0.62417588143E+02 -0.16866142671E+02  0.78989221349E+02  0.10000000000E+01 0.  0.
<mgrwt>
<rscale>  0 0.13041157E+03</rscale>
<asrwt>0</asrwt>
<pdfrwt beam="1">  1        2 0.30410096E-01 0.13826599E+03</pdfrwt>
<pdfrwt beam="2">  1       -2 0.14225742E-01 0.13826599E+03</pdfrwt>
<totfact> 0.61559302E+03</totfact>
</mgrwt>
</event>
<event>
 8    2  0.8128359E-004  0.1407161E+03  0.7818608E-02  0.1224215E+00
          2   -1    0    0  501    0  0.00000000000E+00  0.00000000000E+00  0.50897423146E+02  0.50897423210E+02  0.25500000000E-02 0. -1.
         -2   -1    0    0    0  501 -0.00000000000E+00 -0.00000000000E+00 -0.52581750063E+03  0.52581750064E+03  0.25500000000E-02 0.  1.
         25    2    1    2    0    0 -0.59713329891E+02 -0.24733253059E+02 -0.69911919622E+02  0.15712641132E+03  0.12499446810E+03 0.  0.
         23    2    1    2    0    0  0.59713329891E+02  0.24733253059E+02 -0.40500815787E+03  0.41958851253E+03  0.88574806453E+02 0.  0.
        -11    1    4    4    0    0  0.20939801838E+02  0.13188129865E+01 -0.33833514874E+03  0.33898508439E+03  0.51100000000E-03 0.  1.
         11    1    4    4    0    0  0.38773528052E+02  0.23414440073E+02 -0.66673009127E+02  0.80603428140E+02  0.51100000000E-03 0. -1.
    9000005    1    3    3    0    0 -0.47392662863E+01  0.47807099011E+02 -0.13014139325E+02  0.49783000945E+02  0.10000000000E+01 0.  0.
    9000005    1    3    3    0    0 -0.54974063604E+02 -0.72540352070E+02 -0.56897780296E+02  0.10734341037E+03  0.10000000000E+01 0.  0.
<mgrwt>
<rscale>  0 0.13220843E+03</rscale>
<asrwt>0</asrwt>
<pdfrwt beam="1">  1        2 0.78303732E-02 0.14071614E+03</pdfrwt>
<pdfrwt beam="2">  1       -2 0.80894996E-01 0.14071614E+03</pdfrwt>
<totfact> 0.11822864E+03</totfact>
</mgrwt>
</event>
<event>
 8    2  0.8128359E-004  0.2317910E+03  0.7818608E-02  0.1127964E+00
         -2   -1    0    0    0  501 -0.00000000000E+00  0.00000000000E+00  0.43209370086E+02  0.43209370161E+02  0.25500000000E-02 0.  1.
          2   -1    0    0  501    0  0.00000000000E+00 -0.00000000000E+00 -0.11777173328E+04  0.11777173329E+04  0.25500000000E-02 0. -1.
         25    2    1    2    0    0  0.12124266534E+03 -0.15298747844E+03 -0.52934210112E+03  0.57786689267E+03  0.12498853212E+03 0.  0.
         23    2    1    2    0    0 -0.12124266534E+03  0.15298747844E+03 -0.60516586164E+03  0.64305981035E+03  0.95891851234E+02 0.  0.
        -11    1    4    4    0    0 -0.92037126691E+02  0.15468896001E+03 -0.44120685583E+03  0.47651127654E+03  0.51100000000E-03 0.  1.
         11    1    4    4    0    0 -0.29205538648E+02 -0.17014815709E+01 -0.16395900581E+03  0.16654853380E+03  0.51100000000E-03 0. -1.
    9000005    1    3    3    0    0  0.12924446274E+03 -0.16763704579E+03 -0.45738740890E+03  0.50399459530E+03  0.10000000000E+01 0.  0.
    9000005    1    3    3    0    0 -0.80017973966E+01  0.14649567357E+02 -0.71954692226E+02  0.73872297370E+02  0.10000000000E+01 0.  0.
<mgrwt>
<rscale>  0 0.22812892E+03</rscale>
<asrwt>0</asrwt>
<pdfrwt beam="2">  1        2 0.18118726E+00 0.23179104E+03</pdfrwt>
<pdfrwt beam="1">  1       -2 0.66475963E-02 0.23179104E+03</pdfrwt>
<totfact> 0.25938359E+03</totfact>
</mgrwt>
</event>
<event>
 8    2  0.8128359E-004  0.1638596E+03  0.7818608E-02  0.1192353E+00
         -2   -1    0    0    0  501 -0.00000000000E+00  0.00000000000E+00  0.51291686187E+02  0.51291686250E+02  0.25500000000E-02 0.  1.
          2   -1    0    0  501    0  0.00000000000E+00 -0.00000000000E+00 -0.47990068151E+03  0.47990068152E+03  0.25500000000E-02 0. -1.
         25    2    1    2    0    0 -0.93137942560E+02  0.50504246172E+02 -0.30564282557E+03  0.34679605459E+03  0.12499844573E+03 0.  0.
         23    2    1    2    0    0  0.93137942560E+02 -0.50504246172E+02 -0.12296616976E+03  0.18439631317E+03  0.87498378169E+02 0.  0.
        -11    1    4    4    0    0  0.10846681010E+03 -0.53003937134E+02 -0.11582531655E+03  0.16730203285E+03  0.51100000000E-03 0.  1.
         11    1    4    4    0    0 -0.15328867536E+02  0.24996909625E+01 -0.71408532109E+01  0.17094280320E+02  0.51100000000E-03 0. -1.
    9000005    1    3    3    0    0 -0.11743310865E+03  0.40131957424E+02 -0.18152446338E+03  0.21989370118E+03  0.10000000000E+01 0.  0.
    9000005    1    3    3    0    0  0.24295166090E+02  0.10372288747E+02 -0.12411836218E+03  0.12690235341E+03  0.10000000000E+01 0.  0.
<mgrwt>
<rscale>  0 0.15680430E+03</rscale>
<asrwt>0</asrwt>
<pdfrwt beam="2">  1        2 0.73830871E-01 0.16385959E+03</pdfrwt>
<pdfrwt beam="1">  1       -2 0.78910290E-02 0.16385959E+03</pdfrwt>
<totfact> 0.61122145E+03</totfact>
</mgrwt>
</event>
<event>
 8    2  0.8128359E-004  0.1465700E+03  0.7818608E-02  0.1213649E+00
          2   -1    0    0  501    0  0.00000000000E+00  0.00000000000E+00  0.89553362817E+03  0.89553362817E+03  0.25500000000E-02 0. -1.
         -2   -1    0    0    0  501 -0.00000000000E+00 -0.00000000000E+00 -0.23709311958E+02  0.23709312095E+02  0.25500000000E-02 0.  1.
         25    2    1    2    0    0  0.76450529627E+02  0.38547030914E+01  0.29002052610E+03  0.32495332550E+03  0.12499286370E+03 0.  0.
         23    2    1    2    0    0 -0.76450529627E+02 -0.38547030914E+01  0.58180379011E+03  0.59428961477E+03  0.93941225341E+02 0.  0.
        -11    1    4    4    0    0  0.21256020676E+02  0.57657373604E+00  0.67562421311E+02  0.70829595692E+02  0.51100000000E-03 0.  1.
         11    1    4    4    0    0 -0.97706550303E+02 -0.44312768274E+01  0.51424136880E+03  0.52346001908E+03  0.51100000000E-03 0. -1.
    9000005    1    3    3    0    0  0.93349216528E+02  0.40451242411E+02  0.16760940619E+03  0.19607216091E+03  0.10000000000E+01 0.  0.
    9000005    1    3    3    0    0 -0.16898686901E+02 -0.36596539320E+02  0.12241111991E+03  0.12888116459E+03  0.10000000000E+01 0.  0.
<mgrwt>
<rscale>  0 0.13976266E+03</rscale>
<asrwt>0</asrwt>
<pdfrwt beam="1">  1        2 0.13777439E+00 0.14656998E+03</pdfrwt>
<pdfrwt beam="2">  1       -2 0.36475867E-02 0.14656998E+03</pdfrwt>
<totfact> 0.93469373E+03</totfact>
</mgrwt>
</event>
<event>
 8    2  0.8128359E-004  0.1278230E+03  0.7818608E-02  0.1243630E+00
          2   -1    0    0  501    0  0.00000000000E+00  0.00000000000E+00  0.25226670406E+04  0.25226670406E+04  0.25500000000E-02 0.  1.
         -2   -1    0    0    0  501 -0.00000000000E+00 -0.00000000000E+00 -0.50896111307E+01  0.50896117695E+01  0.25500000000E-02 0. -1.
         25    2    1    2    0    0  0.18864367364E+01 -0.26650746666E+02  0.15118779159E+04  0.15172717466E+04  0.12499959811E+03 0.  0.
         23    2    1    2    0    0 -0.18864367364E+01  0.26650746666E+02  0.10056995135E+04  0.10104849057E+04  0.94522019869E+02 0.  0.
        -11    1    4    4    0    0 -0.88899191519E+01 -0.34611414271E+02  0.30805034018E+03  0.31011609560E+03  0.51100000000E-03 0. -1.
         11    1    4    4    0    0  0.70034824156E+01  0.61262160937E+02  0.69764917335E+03  0.70036881014E+03  0.51100000000E-03 0.  1.
    9000005    1    3    3    0    0  0.45235599521E+00 -0.10096028252E+02  0.70755596880E+01  0.12377316240E+02  0.10000000000E+01 0.  0.
    9000005    1    3    3    0    0  0.14340807412E+01 -0.16554718414E+02  0.15048023562E+04  0.15048944304E+04  0.10000000000E+01 0.  0.
<mgrwt>
<rscale>  0 0.11967756E+03</rscale>
<asrwt>0</asrwt>
<pdfrwt beam="1">  1        2 0.38810189E+00 0.12782300E+03</pdfrwt>
<pdfrwt beam="2">  1       -2 0.78301862E-03 0.12782300E+03</pdfrwt>
<totfact> 0.11683040E+04</totfact>
</mgrwt>
</event>
<event>
 8    2  0.8128359E-004  0.1292024E+03  0.7818608E-02  0.1241961E+00
          2   -1    0    0  501    0  0.00000000000E+00  0.00000000000E+00  0.30825096937E+03  0.30825096938E+03  0.25500000000E-02 0. -1.
         -2   -1    0    0    0  501 -0.00000000000E+00 -0.00000000000E+00 -0.13966219155E+03  0.13966219158E+03  0.25500000000E-02 0.  1.
         25    2    1    2    0    0 -0.28271655666E+02  0.16330818381E+02 -0.99027830207E+02  0.16278746624E+03  0.12500906313E+03 0.  0.
         23    2    1    2    0    0  0.28271655666E+02 -0.16330818381E+02  0.26761660803E+03  0.28512569472E+03  0.92801027776E+02 0.  0.
        -11    1    4    4    0    0 -0.99146393230E+01  0.14961574883E+02  0.20307526815E+03  0.20386690101E+03  0.51100000000E-03 0. -1.
         11    1    4    4    0    0  0.38186294989E+02 -0.31292393263E+02  0.64541339878E+02  0.81258793707E+02  0.51100000000E-03 0.  1.
    9000005    1    3    3    0    0 -0.66997839701E+02  0.45103538032E+02 -0.57854877139E+02  0.99354046100E+02  0.10000000000E+01 0.  0.
    9000005    1    3    3    0    0  0.38726184035E+02 -0.28772719651E+02 -0.41172953068E+02  0.63433420138E+02  0.10000000000E+01 0.  0.
<mgrwt>
<rscale>  0 0.12069134E+03</rscale>
<asrwt>0</asrwt>
<pdfrwt beam="1">  1        2 0.47423225E-01 0.12920235E+03</pdfrwt>
<pdfrwt beam="2">  1       -2 0.21486491E-01 0.12920235E+03</pdfrwt>
<totfact> 0.19230463E+03</totfact>
</mgrwt>
</event>
<event>
 8    2  0.8128359E-004  0.2839447E+03  0.7818608E-02  0.1095333E+00
         -2   -1    0    0    0  501 -0.00000000000E+00  0.00000000000E+00  0.15195557156E+03  0.15195557159E+03  0.25500000000E-02 0.  1.
          2   -1    0    0  501    0  0.00000000000E+00 -0.00000000000E+00 -0.51175484849E+03  0.51175484850E+03  0.25500000000E-02 0. -1.
         25    2    1    2    0    0 -0.36408689286E+02  0.25233237173E+03 -0.21712753201E+03  0.35744780813E+03  0.12500940723E+03 0.  0.
         23    2    1    2    0    0  0.36408689286E+02 -0.25233237173E+03 -0.14267174492E+03  0.30626261196E+03  0.91893102061E+02 0.  0.
        -11    1    4    4    0    0 -0.23479287360E+02 -0.13681734907E+03 -0.54740488062E+02  0.14922059166E+03  0.51100000000E-03 0.  1.
         11    1    4    4    0    0  0.59887976646E+02 -0.11551502266E+03 -0.87931256855E+02  0.15704202030E+03  0.51100000000E-03 0. -1.
    9000005    1    3    3    0    0  0.26087568951E+02  0.53481583328E+02 -0.10516909556E+03  0.12084030648E+03  0.10000000000E+01 0.  0.
    9000005    1    3    3    0    0 -0.62496258237E+02  0.19885078841E+03 -0.11195843646E+03  0.23660750165E+03  0.10000000000E+01 0.  0.
<mgrwt>
<rscale>  0 0.28065192E+03</rscale>
<asrwt>0</asrwt>
<pdfrwt beam="2">  1        2 0.78731515E-01 0.28394466E+03</pdfrwt>
<pdfrwt beam="1">  1       -2 0.23377780E-01 0.28394466E+03</pdfrwt>
<totfact> 0.97269986E+02</totfact>
</mgrwt>
</event>
<event>
 8    2  0.8128359E-004  0.1443010E+03  0.7818608E-02  0.1219701E+00
          2   -1    0    0  501    0  0.00000000000E+00  0.00000000000E+00  0.12376660476E+04  0.12376660476E+04  0.25500000000E-02 0. -1.
         -2   -1    0    0    0  501 -0.00000000000E+00 -0.00000000000E+00 -0.13728278170E+02  0.13728278407E+02  0.25500000000E-02 0.  1.
         25    2    1    2    0    0  0.26608051480E+02 -0.67012636037E+02  0.80368463135E+03  0.81653644322E+03  0.12499637853E+03 0.  0.
         23    2    1    2    0    0 -0.26608051480E+02  0.67012636037E+02  0.42025313811E+03  0.43485788282E+03  0.85381475547E+02 0.  0.
        -11    1    4    4    0    0 -0.55625737789E+01  0.92510180163E+01  0.29630548102E+03  0.29650204324E+03  0.51100000000E-03 0. -1.
         11    1    4    4    0    0 -0.21045477701E+02  0.57761618021E+02  0.12394765709E+03  0.13835583959E+03  0.51100000000E-03 0.  1.
    9000005    1    3    3    0    0  0.45911560358E+02 -0.80463173668E+02  0.76931474525E+03  0.77487313216E+03  0.10000000000E+01 0.  0.
    9000005    1    3    3    0    0 -0.19303508878E+02  0.13450537631E+02  0.34369886098E+02  0.41663311053E+02  0.10000000000E+01 0.  0.
<mgrwt>
<rscale>  0 0.13536817E+03</rscale>
<asrwt>0</asrwt>
<pdfrwt beam="1">  1        2 0.19041013E+00 0.14430099E+03</pdfrwt>
<pdfrwt beam="2">  1       -2 0.21120432E-02 0.14430099E+03</pdfrwt>
<totfact> 0.13143815E+04</totfact>
</mgrwt>
</event>
<event>
 8    2  0.8128359E-004  0.1453631E+03  0.7818608E-02  0.1216385E+00
          2   -1    0    0  501    0  0.00000000000E+00  0.00000000000E+00  0.30868551565E+03  0.30868551566E+03  0.25500000000E-02 0. -1.
         -2   -1    0    0    0  501 -0.00000000000E+00 -0.00000000000E+00 -0.58779489043E+02  0.58779489099E+02  0.25500000000E-02 0.  1.
         25    2    1    2    0    0 -0.34719406040E+02 -0.65568159025E+02  0.17849018717E+03  0.23019378044E+03  0.12500323598E+03 0.  0.
         23    2    1    2    0    0  0.34719406040E+02  0.65568159025E+02  0.71415839438E+02  0.13727122432E+03  0.90766438015E+02 0.  0.
        -11    1    4    4    0    0  0.27280347086E+02 -0.13032219696E+02 -0.84226855465E+00  0.30245090576E+02  0.51100000000E-03 0.  1.
         11    1    4    4    0    0  0.74390589538E+01  0.78600378721E+02  0.72258107993E+02  0.10702613374E+03  0.51100000000E-03 0. -1.
    9000005    1    3    3    0    0 -0.54019560335E+02 -0.87965719549E+02  0.17088890557E+03  0.19964994055E+03  0.10000000000E+01 0.  0.
    9000005    1    3    3    0    0  0.19300154295E+02  0.22397560524E+02  0.76012815961E+01  0.30543839889E+02  0.10000000000E+01 0.  0.
<mgrwt>
<rscale>  0 0.13775313E+03</rscale>
<asrwt>0</asrwt>
<pdfrwt beam="1">  1        2 0.47490079E-01 0.14536310E+03</pdfrwt>
<pdfrwt beam="2">  1       -2 0.90429984E-02 0.14536310E+03</pdfrwt>
<totfact> 0.78868296E+03</totfact>
</mgrwt>
</event>
<event>
 8    2  0.8128359E-004  0.1469729E+03  0.7818608E-02  0.1211393E+00
         -2   -1    0    0    0  501 -0.00000000000E+00  0.00000000000E+00  0.17907206466E+02  0.17907206648E+02  0.25500000000E-02 0.  1.
          2   -1    0    0  501    0  0.00000000000E+00 -0.00000000000E+00 -0.12098903300E+04  0.12098903300E+04  0.25500000000E-02 0. -1.
         25    2    1    2    0    0 -0.36449881728E+02 -0.68172017110E+02 -0.86400392069E+03  0.87641531600E+03  0.12500005339E+03 0.  0.
         23    2    1    2    0    0  0.36449881728E+02  0.68172017110E+02 -0.32797920285E+03  0.35138222067E+03  0.99614706246E+02 0.  0.
        -11    1    4    4    0    0 -0.28952384004E+02  0.26744180084E+02 -0.18119721680E+03  0.18543441720E+03  0.51100000000E-03 0.  1.
         11    1    4    4    0    0  0.65402265731E+02  0.41427837026E+02 -0.14678198606E+03  0.16594780347E+03  0.51100000000E-03 0. -1.
    9000005    1    3    3    0    0 -0.47924642712E+02 -0.11180697180E+02 -0.11414436551E+03  0.12430492970E+03  0.10000000000E+01 0.  0.
    9000005    1    3    3    0    0  0.11474760984E+02 -0.56991319930E+02 -0.74985955518E+03  0.75211038630E+03  0.10000000000E+01 0.  0.
<mgrwt>
<rscale>  0 0.14144888E+03</rscale>
<asrwt>0</asrwt>
<pdfrwt beam="2">  1        2 0.18613691E+00 0.14697289E+03</pdfrwt>
<pdfrwt beam="1">  1       -2 0.27549558E-02 0.14697289E+03</pdfrwt>
<totfact> 0.92403584E+03</totfact>
</mgrwt>
</event>
<event>
 8    2  0.8128359E-004  0.1495927E+03  0.7818608E-02  0.1210394E+00
         -2   -1    0    0    0  501 -0.00000000000E+00  0.00000000000E+00  0.32242400852E+02  0.32242400953E+02  0.25500000000E-02 0.  1.
          2   -1    0    0  501    0  0.00000000000E+00 -0.00000000000E+00 -0.77702635491E+03  0.77702635492E+03  0.25500000000E-02 0. -1.
         25    2    1    2    0    0  0.46675569884E+02  0.67634661241E+02 -0.60686755650E+03  0.62503296305E+03  0.12499967017E+03 0.  0.
         23    2    1    2    0    0 -0.46675569884E+02 -0.67634661241E+02 -0.13791639756E+03  0.18423579282E+03  0.90381626531E+02 0.  0.
        -11    1    4    4    0    0 -0.39975507301E+02 -0.55682515526E+02 -0.28946050186E+02  0.74407375581E+02  0.51100000000E-03 0.  1.
         11    1    4    4    0    0 -0.67000625830E+01 -0.11952145715E+02 -0.10897034737E+03  0.10982841724E+03  0.51100000000E-03 0. -1.
    9000005    1    3    3    0    0  0.56131491313E+02  0.52687580756E+02 -0.15744774702E+03  0.17526413930E+03  0.10000000000E+01 0.  0.
    9000005    1    3    3    0    0 -0.94559214291E+01  0.14947080486E+02 -0.44941980948E+03  0.44976882375E+03  0.10000000000E+01 0.  0.
<mgrwt>
<rscale>  0 0.14220366E+03</rscale>
<asrwt>0</asrwt>
<pdfrwt beam="2">  1        2 0.11954250E+00 0.14959269E+03</pdfrwt>
<pdfrwt beam="1">  1       -2 0.49603700E-02 0.14959269E+03</pdfrwt>
<totfact> 0.70799728E+03</totfact>
</mgrwt>
</event>
<event>
 8    2  0.8128359E-004  0.1540545E+03  0.7818608E-02  0.1203918E+00
         -2   -1    0    0    0  501 -0.00000000000E+00  0.00000000000E+00  0.45890661010E+02  0.45890661081E+02  0.25500000000E-02 0.  1.
          2   -1    0    0  501    0  0.00000000000E+00 -0.00000000000E+00 -0.45361153003E+03  0.45361153004E+03  0.25500000000E-02 0. -1.
         25    2    1    2    0    0  0.64693814001E+02  0.62628420682E+02 -0.17111894394E+03  0.23024871015E+03  0.12500066762E+03 0.  0.
         23    2    1    2    0    0 -0.64693814001E+02 -0.62628420682E+02 -0.23660192509E+03  0.26925348097E+03  0.91702548561E+02 0.  0.
        -11    1    4    4    0    0 -0.55650157265E+02  0.73396903229E+01 -0.12775108148E+03  0.13953906220E+03  0.51100000000E-03 0. -1.
         11    1    4    4    0    0 -0.90436567357E+01 -0.69968111005E+02 -0.10885084360E+03  0.12971441877E+03  0.51100000000E-03 0.  1.
    9000005    1    3    3    0    0  0.57511040214E+02 -0.26091701647E+02 -0.89039775326E+02  0.10916674508E+03  0.10000000000E+01 0.  0.
    9000005    1    3    3    0    0  0.71827737869E+01  0.88720122330E+02 -0.82079168609E+02  0.12108196507E+03  0.10000000000E+01 0.  0.
<mgrwt>
<rscale>  0 0.14723023E+03</rscale>
<asrwt>0</asrwt>
<pdfrwt beam="2">  1        2 0.69786386E-01 0.15405446E+03</pdfrwt>
<pdfrwt beam="1">  1       -2 0.70601020E-02 0.15405446E+03</pdfrwt>
<totfact> 0.76909457E+03</totfact>
</mgrwt>
</event>
<event>
 8    2  0.8128359E-004  0.1299353E+03  0.7818608E-02  0.1241459E+00
         -2   -1    0    0    0  501 -0.00000000000E+00  0.00000000000E+00  0.44312664143E+02  0.44312664216E+02  0.25500000000E-02 0.  1.
          2   -1    0    0  501    0  0.00000000000E+00 -0.00000000000E+00 -0.29250311033E+03  0.29250311034E+03  0.25500000000E-02 0. -1.
         25    2    1    2    0    0  0.35436807716E+02 -0.29134310179E+00 -0.13804214810E+03  0.18957532821E+03  0.12500927242E+03 0.  0.
         23    2    1    2    0    0 -0.35436807716E+02  0.29134310179E+00 -0.11014829809E+03  0.14724044635E+03  0.91056297131E+02 0.  0.
        -11    1    4    4    0    0 -0.36447953285E+02  0.39139040758E+02 -0.39071081776E+02  0.66233429939E+02  0.51100000000E-03 0.  1.
         11    1    4    4    0    0  0.10111455685E+01 -0.38847697656E+02 -0.71077216313E+02  0.81007016410E+02  0.51100000000E-03 0. -1.
    9000005    1    3    3    0    0  0.81526285010E+01  0.13528337561E+02 -0.15417300288E+03  0.15498321227E+03  0.10000000000E+01 0.  0.
    9000005    1    3    3    0    0  0.27284179216E+02 -0.13819680662E+02  0.16130854782E+02  0.34592115938E+02  0.10000000000E+01 0.  0.
<mgrwt>
<rscale>  0 0.12099828E+03</rscale>
<asrwt>0</asrwt>
<pdfrwt beam="2">  1        2 0.45000477E-01 0.12993525E+03</pdfrwt>
<pdfrwt beam="1">  1       -2 0.68173331E-02 0.12993525E+03</pdfrwt>
<totfact> 0.12805942E+04</totfact>
</mgrwt>
</event>
<event>
 8    2  0.8128359E-004  0.1290853E+03  0.7818608E-02  0.1243380E+00
         -2   -1    0    0    0  501 -0.00000000000E+00  0.00000000000E+00  0.73783680718E+02  0.73783680762E+02  0.25500000000E-02 0.  1.
          2   -1    0    0  501    0  0.00000000000E+00 -0.00000000000E+00 -0.17144282879E+03  0.17144282881E+03  0.25500000000E-02 0. -1.
         25    2    1    2    0    0 -0.31397824949E+02  0.71559621534E+01 -0.55575336918E+02  0.14054049504E+03  0.12500392581E+03 0.  0.
         23    2    1    2    0    0  0.31397824949E+02 -0.71559621534E+01 -0.42083811155E+02  0.10468601453E+03  0.90283349912E+02 0.  0.
        -11    1    4    4    0    0  0.12381597632E+01  0.33977521097E+02 -0.41536357899E+02  0.53677500010E+02  0.51100000000E-03 0. -1.
         11    1    4    4    0    0  0.30159665186E+02 -0.41133483250E+02 -0.54745325549E+00  0.51008514522E+02  0.51100000000E-03 0.  1.
    9000005    1    3    3    0    0  0.33573758211E+02  0.35548525340E+02  0.23706100522E+01  0.48964422659E+02  0.10000000000E+01 0.  0.
    9000005    1    3    3    0    0 -0.64971583160E+02 -0.28392563187E+02 -0.57945946971E+02  0.91576072382E+02  0.10000000000E+01 0.  0.
<mgrwt>
<rscale>  0 0.11982871E+03</rscale>
<asrwt>0</asrwt>
<pdfrwt beam="2">  1        2 0.26375820E-01 0.12908529E+03</pdfrwt>
<pdfrwt beam="1">  1       -2 0.11351336E-01 0.12908529E+03</pdfrwt>
<totfact> 0.10274535E+04</totfact>
</mgrwt>
</event>
<event>
 8    2  0.8128359E-004  0.1352770E+03  0.7818608E-02  0.1233794E+00
         -2   -1    0    0    0  501 -0.00000000000E+00  0.00000000000E+00  0.14979120401E+03  0.14979120404E+03  0.25500000000E-02 0. -1.
          2   -1    0    0  501    0  0.00000000000E+00 -0.00000000000E+00 -0.11455540790E+03  0.11455540793E+03  0.25500000000E-02 0.  1.
         25    2    1    2    0    0  0.48022387200E+02 -0.19224136076E+02 -0.36688723019E+02  0.14016396807E+03  0.12499663383E+03 0.  0.
         23    2    1    2    0    0 -0.48022387200E+02  0.19224136076E+02  0.71924519137E+02  0.12418264389E+03  0.87019971909E+02 0.  0.
        -11    1    4    4    0    0  0.18626126810E+02 -0.11840480795E+02  0.11148847945E+01  0.22099152784E+02  0.51100000000E-03 0.  1.
         11    1    4    4    0    0 -0.66648514011E+02  0.31064616871E+02  0.70809634342E+02  0.10208349111E+03  0.51100000000E-03 0. -1.
    9000005    1    3    3    0    0  0.51798160805E+01 -0.46610392662E+02  0.30459595391E+02  0.55929832380E+02  0.10000000000E+01 0.  0.
    9000005    1    3    3    0    0  0.42842571120E+02  0.27386256586E+02 -0.67148318409E+02  0.84234135688E+02  0.10000000000E+01 0.  0.
<mgrwt>
<rscale>  0 0.12581979E+03</rscale>
<asrwt>0</asrwt>
<pdfrwt beam="2">  1        2 0.17623909E-01 0.13527703E+03</pdfrwt>
<pdfrwt beam="1">  1       -2 0.23044800E-01 0.13527703E+03</pdfrwt>
<totfact> 0.50361114E+03</totfact>
</mgrwt>
</event>
<event>
 8    2  0.8128359E-004  0.1254165E+03  0.7818608E-02  0.1252859E+00
         -2   -1    0    0    0  501 -0.00000000000E+00  0.00000000000E+00  0.22051118017E+02  0.22051118165E+02  0.25500000000E-02 0. -1.
          2   -1    0    0  501    0  0.00000000000E+00 -0.00000000000E+00 -0.56737779023E+03  0.56737779023E+03  0.25500000000E-02 0.  1.
         25    2    1    2    0    0  0.39653021695E+01  0.94059898751E+01 -0.22442782739E+03  0.25709363603E+03  0.12500036685E+03 0.  0.
         23    2    1    2    0    0 -0.39653021695E+01 -0.94059898751E+01 -0.32089884482E+03  0.33233527237E+03  0.85828132832E+02 0.  0.
        -11    1    4    4    0    0 -0.33563261589E+02 -0.20529410549E+02 -0.26670848430E+03  0.26959481602E+03  0.51100000000E-03 0. -1.
         11    1    4    4    0    0  0.29597959420E+02  0.11123420673E+02 -0.54190360520E+02  0.62740456349E+02  0.51100000000E-03 0.  1.
    9000005    1    3    3    0    0 -0.45893639638E+02 -0.25297090544E+02 -0.16076201148E+03  0.16909048845E+03  0.10000000000E+01 0.  0.
    9000005    1    3    3    0    0  0.49858941807E+02  0.34703080419E+02 -0.63665815910E+02  0.88003147581E+02  0.10000000000E+01 0.  0.
<mgrwt>
<rscale>  0 0.11427094E+03</rscale>
<asrwt>0</asrwt>
<pdfrwt beam="2">  1        2 0.87288880E-01 0.12541646E+03</pdfrwt>
<pdfrwt beam="1">  1       -2 0.33924801E-02 0.12541646E+03</pdfrwt>
<totfact> 0.17802894E+04</totfact>
</mgrwt>
</event>
<event>
 8    2  0.8128359E-004  0.1343943E+03  0.7818608E-02  0.1232223E+00
          2   -1    0    0  501    0  0.00000000000E+00  0.00000000000E+00  0.32820629220E+04  0.32820629220E+04  0.25500000000E-02 0. -1.
         -2   -1    0    0    0  501 -0.00000000000E+00 -0.00000000000E+00 -0.47165576120E+01  0.47165583014E+01  0.25500000000E-02 0.  1.
         25    2    1    2    0    0 -0.48542175024E+02  0.91478773004E+01  0.22218782092E+04  0.22259390413E+04  0.12498724971E+03 0.  0.
         23    2    1    2    0    0  0.48542175024E+02 -0.91478773004E+01  0.10554681551E+04  0.10608404390E+04  0.94495417987E+02 0.  0.
        -11    1    4    4    0    0  0.34462532490E+02  0.22953363342E+02  0.91932658845E+03  0.92025860456E+03  0.51100000000E-03 0. -1.
         11    1    4    4    0    0  0.14079642533E+02 -0.32101240642E+02  0.13614156669E+03  0.14058183441E+03  0.51100000000E-03 0.  1.
    9000005    1    3    3    0    0 -0.41555403612E+02 -0.54847183073E+02  0.12951172040E+04  0.12969443462E+04  0.10000000000E+01 0.  0.
    9000005    1    3    3    0    0 -0.69867714114E+01  0.63995060373E+02  0.92676100521E+03  0.92899469509E+03  0.10000000000E+01 0.  0.
<mgrwt>
<rscale>  0 0.12683905E+03</rscale>
<asrwt>0</asrwt>
<pdfrwt beam="1">  1        2 0.50493343E+00 0.13439434E+03</pdfrwt>
<pdfrwt beam="2">  1       -2 0.72562333E-03 0.13439434E+03</pdfrwt>
<totfact> 0.48119023E+03</totfact>
</mgrwt>
</event>
<event>
 8    2  0.8128359E-004  0.1677869E+03  0.7818608E-02  0.1187211E+00
         -2   -1    0    0    0  501 -0.00000000000E+00  0.00000000000E+00  0.13630259635E+03  0.13630259638E+03  0.25500000000E-02 0.  1.
          2   -1    0    0  501    0  0.00000000000E+00 -0.00000000000E+00 -0.25958607833E+03  0.25958607835E+03  0.25500000000E-02 0. -1.
         25    2    1    2    0    0 -0.10922882065E+03  0.24470109856E+02  0.46059274210E+02  0.17399398557E+03  0.12499091462E+03 0.  0.
         23    2    1    2    0    0  0.10922882065E+03 -0.24470109856E+02 -0.16934275619E+03  0.22189468915E+03  0.89613405594E+02 0.  0.
        -11    1    4    4    0    0  0.64126104735E+02  0.25520433018E+02 -0.11995618619E+03  0.13839413432E+03  0.51100000000E-03 0.  1.
         11    1    4    4    0    0  0.45102715914E+02 -0.49990542874E+02 -0.49386570004E+02  0.83500554829E+02  0.51100000000E-03 0. -1.
    9000005    1    3    3    0    0 -0.56662085033E+02  0.71244119475E+02  0.49341368500E+02  0.10354654550E+03  0.10000000000E+01 0.  0.
    9000005    1    3    3    0    0 -0.52566735616E+02 -0.46774009619E+02 -0.32820942892E+01  0.70447440068E+02  0.10000000000E+01 0.  0.
<mgrwt>
<rscale>  0 0.16132334E+03</rscale>
<asrwt>0</asrwt>
<pdfrwt beam="2">  1        2 0.39936320E-01 0.16778692E+03</pdfrwt>
<pdfrwt beam="1">  1       -2 0.20969630E-01 0.16778692E+03</pdfrwt>
<totfact> 0.24297570E+03</totfact>
</mgrwt>
</event>
<event>
 8    2  0.8128359E-004  0.1755846E+03  0.7818608E-02  0.1178234E+00
          2   -1    0    0  501    0  0.00000000000E+00  0.00000000000E+00  0.38560300558E+02  0.38560300642E+02  0.25500000000E-02 0. -1.
         -2   -1    0    0    0  501 -0.00000000000E+00 -0.00000000000E+00 -0.70333556053E+03  0.70333556053E+03  0.25500000000E-02 0.  1.
         25    2    1    2    0    0  0.99969559071E+02  0.72195782447E+02 -0.32888626025E+03  0.37282185408E+03  0.12499527571E+03 0.  0.
         23    2    1    2    0    0 -0.99969559071E+02 -0.72195782447E+02 -0.33588899972E+03  0.36907400710E+03  0.90487893341E+02 0.  0.
        -11    1    4    4    0    0 -0.11506851289E+03 -0.73299762664E+02 -0.31499536958E+03  0.34327205060E+03  0.51100000000E-03 0.  1.
         11    1    4    4    0    0  0.15098953817E+02  0.11039802169E+01 -0.20893630136E+02  0.25801956500E+02  0.51100000000E-03 0. -1.
    9000005    1    3    3    0    0  0.39267676285E+02 -0.63334391192E+00 -0.23888248948E+03  0.24209129539E+03  0.10000000000E+01 0.  0.
    9000005    1    3    3    0    0  0.60701882786E+02  0.72829126359E+02 -0.90003770774E+02  0.13073055868E+03  0.10000000000E+01 0.  0.
<mgrwt>
<rscale>  0 0.16963029E+03</rscale>
<asrwt>0</asrwt>
<pdfrwt beam="1">  1        2 0.59323545E-02 0.17558463E+03</pdfrwt>
<pdfrwt beam="2">  1       -2 0.10820546E+00 0.17558463E+03</pdfrwt>
<totfact> 0.87855293E+02</totfact>
</mgrwt>
</event>
<event>
 8    2  0.8128359E-004  0.1298954E+03  0.7818608E-02  0.1241696E+00
          2   -1    0    0  501    0  0.00000000000E+00  0.00000000000E+00  0.67656123814E+03  0.67656123815E+03  0.25500000000E-02 0. -1.
         -2   -1    0    0    0  501 -0.00000000000E+00 -0.00000000000E+00 -0.19129469408E+02  0.19129469578E+02  0.25500000000E-02 0.  1.
         25    2    1    2    0    0 -0.25827878382E+02 -0.24096693599E+02  0.35797582640E+03  0.38081427531E+03  0.12500036021E+03 0.  0.
         23    2    1    2    0    0  0.25827878382E+02  0.24096693599E+02  0.29945594234E+03  0.31487643241E+03  0.90694963160E+02 0.  0.
        -11    1    4    4    0    0  0.22600395840E+01 -0.29985734641E+02  0.16963533161E+03  0.17227999824E+03  0.51100000000E-03 0. -1.
         11    1    4    4    0    0  0.23567838798E+02  0.54082428240E+02  0.12982061072E+03  0.14259643417E+03  0.51100000000E-03 0.  1.
    9000005    1    3    3    0    0 -0.56456941436E+02 -0.51897178174E+02  0.14682948172E+03  0.16565204508E+03  0.10000000000E+01 0.  0.
    9000005    1    3    3    0    0  0.30629063054E+02  0.27800484574E+02  0.21114634468E+03  0.21516223023E+03  0.10000000000E+01 0.  0.
<mgrwt>
<rscale>  0 0.12085318E+03</rscale>
<asrwt>0</asrwt>
<pdfrwt beam="1">  1        2 0.10408634E+00 0.12989542E+03</pdfrwt>
<pdfrwt beam="2">  1       -2 0.29429954E-02 0.12989542E+03</pdfrwt>
<totfact> 0.17988597E+04</totfact>
</mgrwt>
</event>
<event>
 8    2  0.8128359E-004  0.1714506E+03  0.7818608E-02  0.1183021E+00
          2   -1    0    0  501    0  0.00000000000E+00  0.00000000000E+00  0.28208463530E+04  0.28208463530E+04  0.25500000000E-02 0. -1.
         -2   -1    0    0    0  501 -0.00000000000E+00 -0.00000000000E+00 -0.96930628067E+01  0.96930631422E+01  0.25500000000E-02 0.  1.
         25    2    1    2    0    0  0.74124460623E+02  0.90977189423E+02  0.11311267390E+04  0.11440467643E+04  0.12499605825E+03 0.  0.
         23    2    1    2    0    0 -0.74124460623E+02 -0.90977189423E+02  0.16800265511E+04  0.16864926518E+04  0.89425764369E+02 0.  0.
        -11    1    4    4    0    0 -0.63066789457E+02 -0.64990674478E+02  0.67247485259E+03  0.67854523435E+03  0.51100000000E-03 0.  1.
         11    1    4    4    0    0 -0.11057671166E+02 -0.25986514945E+02  0.10075516986E+04  0.10079474174E+04  0.51100000000E-03 0. -1.
    9000005    1    3    3    0    0 -0.35283216065E+02  0.25617367412E+02  0.25605178008E+03  0.25973961756E+03  0.10000000000E+01 0.  0.
    9000005    1    3    3    0    0  0.10940767669E+03  0.65359822011E+02  0.87507495893E+03  0.88430714675E+03  0.10000000000E+01 0.  0.
<mgrwt>
<rscale>  0 0.16513235E+03</rscale>
<asrwt>0</asrwt>
<pdfrwt beam="1">  1        2 0.43397669E+00 0.17145057E+03</pdfrwt>
<pdfrwt beam="2">  1       -2 0.14912393E-02 0.17145057E+03</pdfrwt>
<totfact> 0.31822969E+03</totfact>
</mgrwt>
</event>
<event>
 8    2  0.8128359E-004  0.1318615E+03  0.7818608E-02  0.1238087E+00
          2   -1    0    0  501    0  0.00000000000E+00  0.00000000000E+00  0.19776894513E+02  0.19776894677E+02  0.25500000000E-02 0. -1.
         -2   -1    0    0    0  501 -0.00000000000E+00 -0.00000000000E+00 -0.78629919915E+03  0.78629919915E+03  0.25500000000E-02 0.  1.
         25    2    1    2    0    0 -0.13038127605E+02 -0.39923664096E+02 -0.57542403053E+03  0.59033911833E+03  0.12499427184E+03 0.  0.
         23    2    1    2    0    0  0.13038127605E+02  0.39923664096E+02 -0.19109827410E+03  0.21573697550E+03  0.90884544920E+02 0.  0.
        -11    1    4    4    0    0  0.50606192995E+02  0.32395568047E+02 -0.96553502658E+02  0.11372351768E+03  0.51100000000E-03 0. -1.
         11    1    4    4    0    0 -0.37568065390E+02  0.75280960488E+01 -0.94544771443E+02  0.10201345781E+03  0.51100000000E-03 0.  1.
    9000005    1    3    3    0    0 -0.24537030899E+02 -0.62971729368E+02 -0.54998709856E+03  0.55412481732E+03  0.10000000000E+01 0.  0.
    9000005    1    3    3    0    0  0.11498903294E+02  0.23048065272E+02 -0.25436931972E+02  0.36214301014E+02  0.10000000000E+01 0.  0.
<mgrwt>
<rscale>  0 0.12308868E+03</rscale>
<asrwt>0</asrwt>
<pdfrwt beam="1">  1        2 0.30425998E-02 0.13186152E+03</pdfrwt>
<pdfrwt beam="2">  1       -2 0.12096908E+00 0.13186152E+03</pdfrwt>
<totfact> 0.16059735E+03</totfact>
</mgrwt>
</event>
<event>
 8    2  0.8128359E-004  0.2016029E+03  0.7818608E-02  0.1152554E+00
         -2   -1    0    0    0  501 -0.00000000000E+00  0.00000000000E+00  0.52793724589E+02  0.52793724650E+02  0.25500000000E-02 0. -1.
          2   -1    0    0  501    0  0.00000000000E+00 -0.00000000000E+00 -0.71057031943E+03  0.71057031944E+03  0.25500000000E-02 0.  1.
         25    2    1    2    0    0  0.85893963612E+02  0.13281344601E+03 -0.39274752921E+03  0.44146838733E+03  0.12500612339E+03 0.  0.
         23    2    1    2    0    0 -0.85893963612E+02 -0.13281344601E+03 -0.26502906563E+03  0.32189565676E+03  0.91428790774E+02 0.  0.
        -11    1    4    4    0    0 -0.71335307892E+01 -0.91119915154E+02 -0.15892720272E+03  0.18333461747E+03  0.51100000000E-03 0.  1.
         11    1    4    4    0    0 -0.78760432823E+02 -0.41693530858E+02 -0.10610186291E+03  0.13856103929E+03  0.51100000000E-03 0. -1.
    9000005    1    3    3    0    0  0.11375486548E+03  0.12455030042E+03 -0.36070851014E+03  0.39820167760E+03  0.10000000000E+01 0.  0.
    9000005    1    3    3    0    0 -0.27860901868E+02  0.82631455920E+01 -0.32039019071E+02  0.43266709731E+02  0.10000000000E+01 0.  0.
<mgrwt>
<rscale>  0 0.19669915E+03</rscale>
<asrwt>0</asrwt>
<pdfrwt beam="2">  1        2 0.10931850E+00 0.20160287E+03</pdfrwt>
<pdfrwt beam="1">  1       -2 0.81221120E-02 0.20160287E+03</pdfrwt>
<totfact> 0.37572882E+03</totfact>
</mgrwt>
</event>
<event>
 8    2  0.8128359E-004  0.2062580E+03  0.7818608E-02  0.1148423E+00
          2   -1    0    0  501    0  0.00000000000E+00  0.00000000000E+00  0.29942867363E+02  0.29942867471E+02  0.25500000000E-02 0. -1.
         -2   -1    0    0    0  501 -0.00000000000E+00 -0.00000000000E+00 -0.13935763800E+04  0.13935763800E+04  0.25500000000E-02 0.  1.
         25    2    1    2    0    0 -0.12016983584E+03  0.11169815641E+03 -0.52543786254E+03  0.56447081244E+03  0.12500033246E+03 0.  0.
         23    2    1    2    0    0  0.12016983584E+03 -0.11169815641E+03 -0.83819565006E+03  0.85904843500E+03  0.92059753985E+02 0.  0.
        -11    1    4    4    0    0  0.18545096496E+02 -0.70190570242E+02 -0.23547040410E+03  0.24640809232E+03  0.51100000000E-03 0. -1.
         11    1    4    4    0    0  0.10162473934E+03 -0.41507586163E+02 -0.60272524596E+03  0.61264034268E+03  0.51100000000E-03 0.  1.
    9000005    1    3    3    0    0 -0.10303137049E+03  0.28783252355E+02 -0.39281822826E+03  0.40712540989E+03  0.10000000000E+01 0.  0.
    9000005    1    3    3    0    0 -0.17138465352E+02  0.82914904050E+02 -0.13261963428E+03  0.15734540255E+03  0.10000000000E+01 0.  0.
<mgrwt>
<rscale>  0 0.20156801E+03</rscale>
<asrwt>0</asrwt>
<pdfrwt beam="1">  1        2 0.46065961E-02 0.20625797E+03</pdfrwt>
<pdfrwt beam="2">  1       -2 0.21439631E+00 0.20625797E+03</pdfrwt>
<totfact> 0.20518869E+02</totfact>
</mgrwt>
</event>
<event>
 8    2  0.8128359E-004  0.1317322E+03  0.7818608E-02  0.1240633E+00
         -2   -1    0    0    0  501 -0.00000000000E+00  0.00000000000E+00  0.92782732424E+01  0.92782735928E+01  0.25500000000E-02 0.  1.
          2   -1    0    0  501    0  0.00000000000E+00 -0.00000000000E+00 -0.23744714706E+04  0.23744714706E+04  0.25500000000E-02 0. -1.
         25    2    1    2    0    0 -0.60559745712E+00  0.41578431033E+02 -0.20553600130E+04  0.20595771818E+04  0.12499700796E+03 0.  0.
         23    2    1    2    0    0  0.60559745712E+00 -0.41578431033E+02 -0.30983318442E+03  0.32417256248E+03  0.85802770461E+02 0.  0.
        -11    1    4    4    0    0 -0.10314712601E+02 -0.14671297015E+02 -0.28612058450E+03  0.28668210465E+03  0.51100000000E-03 0. -1.
         11    1    4    4    0    0  0.10920310058E+02 -0.26907134019E+02 -0.23712599927E+02  0.37490457832E+02  0.51100000000E-03 0.  1.
    9000005    1    3    3    0    0 -0.46234993858E+02  0.39007651898E+02 -0.17260003235E+04  0.17270603314E+04  0.10000000000E+01 0.  0.
    9000005    1    3    3    0    0  0.45629396401E+02  0.25707791354E+01 -0.32935968943E+03  0.33251685031E+03  0.10000000000E+01 0.  0.
<mgrwt>
<rscale>  0 0.12150580E+03</rscale>
<asrwt>0</asrwt>
<pdfrwt beam="2">  1        2 0.36530282E+00 0.13173225E+03</pdfrwt>
<pdfrwt beam="1">  1       -2 0.14274286E-02 0.13173225E+03</pdfrwt>
<totfact> 0.59321871E+03</totfact>
</mgrwt>
</event>
<event>
 8    2  0.8128359E-004  0.1773601E+03  0.7818608E-02  0.1176310E+00
          2   -1    0    0  501    0  0.00000000000E+00  0.00000000000E+00  0.11926231687E+04  0.11926231687E+04  0.25500000000E-02 0. -1.
         -2   -1    0    0    0  501 -0.00000000000E+00 -0.00000000000E+00 -0.23339721115E+02  0.23339721255E+02  0.25500000000E-02 0.  1.
         25    2    1    2    0    0 -0.14323501949E+02  0.12500754310E+03  0.56970394307E+03  0.59667342995E+03  0.12499820284E+03 0.  0.
         23    2    1    2    0    0  0.14323501949E+02 -0.12500754310E+03  0.59957950448E+03  0.61928945997E+03  0.90508588019E+02 0.  0.
        -11    1    4    4    0    0  0.84426069614E+01 -0.43448721999E+02  0.65916026373E+02  0.79397679996E+02  0.51100000000E-03 0.  1.
         11    1    4    4    0    0  0.58808949879E+01 -0.81558821105E+02  0.53366347810E+03  0.53989177998E+03  0.51100000000E-03 0. -1.
    9000005    1    3    3    0    0 -0.34916824940E+02  0.13321033823E+03  0.35419833601E+03  0.38002847276E+03  0.10000000000E+01 0.  0.
    9000005    1    3    3    0    0  0.20593322991E+02 -0.82027951279E+01  0.21550560706E+03  0.21664495719E+03  0.10000000000E+01 0.  0.
<mgrwt>
<rscale>  0 0.17148346E+03</rscale>
<asrwt>0</asrwt>
<pdfrwt beam="1">  1        2 0.18348047E+00 0.17736008E+03</pdfrwt>
<pdfrwt beam="2">  1       -2 0.35907267E-02 0.17736008E+03</pdfrwt>
<totfact> 0.64328743E+03</totfact>
</mgrwt>
</event>
<event>
 8    2  0.8128359E-004  0.1658962E+03  0.7818608E-02  0.1189364E+00
          2   -1    0    0  501    0  0.00000000000E+00  0.00000000000E+00  0.94983319529E+03  0.94983319529E+03  0.25500000000E-02 0. -1.
         -2   -1    0    0    0  501 -0.00000000000E+00 -0.00000000000E+00 -0.37515874727E+02  0.37515874813E+02  0.25500000000E-02 0.  1.
         25    2    1    2    0    0  0.10461517351E+02  0.10856547448E+03  0.76634476364E+03  0.78409555397E+03  0.12500254159E+03 0.  0.
         23    2    1    2    0    0 -0.10461517351E+02 -0.10856547448E+03  0.14597255692E+03  0.20325351614E+03  0.90044982390E+02 0.  0.
        -11    1    4    4    0    0 -0.27019122124E+02  0.39689571900E+01  0.22605420710E+02  0.35451242958E+02  0.51100000000E-03 0.  1.
         11    1    4    4    0    0  0.16557604772E+02 -0.11253443167E+03  0.12336713621E+03  0.16780227318E+03  0.51100000000E-03 0. -1.
    9000005    1    3    3    0    0 -0.44519492056E+02  0.88552974618E+00  0.18169557899E+03  0.18707499234E+03  0.10000000000E+01 0.  0.
    9000005    1    3    3    0    0  0.54981009408E+02  0.10767994473E+03  0.58464918465E+03  0.59702056163E+03  0.10000000000E+01 0.  0.
<mgrwt>
<rscale>  0 0.15941049E+03</rscale>
<asrwt>0</asrwt>
<pdfrwt beam="1">  1        2 0.14612817E+00 0.16589618E+03</pdfrwt>
<pdfrwt beam="2">  1       -2 0.57716735E-02 0.16589618E+03</pdfrwt>
<totfact> 0.43639122E+03</totfact>
</mgrwt>
</event>
<event>
 8    2  0.8128359E-004  0.1419725E+03  0.7818608E-02  0.1221015E+00
          2   -1    0    0  501    0  0.00000000000E+00  0.00000000000E+00  0.18541634519E+04  0.18541634519E+04  0.25500000000E-02 0. -1.
         -2   -1    0    0    0  501 -0.00000000000E+00 -0.00000000000E+00 -0.15131242503E+02  0.15131242718E+02  0.25500000000E-02 0.  1.
         25    2    1    2    0    0 -0.11457729554E+02 -0.66337147929E+02  0.37754727688E+03  0.40335858327E+03  0.12499721459E+03 0.  0.
         23    2    1    2    0    0  0.11457729554E+02  0.66337147929E+02  0.14614849326E+04  0.14659361114E+04  0.92187731427E+02 0.  0.
        -11    1    4    4    0    0 -0.35972937941E+02  0.43565117591E+02  0.53924820865E+03  0.54219978077E+03  0.51100000000E-03 0.  1.
         11    1    4    4    0    0  0.47430667496E+02  0.22772030339E+02  0.92223672391E+03  0.92373633062E+03  0.51100000000E-03 0. -1.
    9000005    1    3    3    0    0  0.14177616833E+02  0.29208685816E+02  0.17444221533E+03  0.17744080319E+03  0.10000000000E+01 0.  0.
    9000005    1    3    3    0    0 -0.25635346387E+02 -0.95545833746E+02  0.20310506155E+03  0.22591778009E+03  0.10000000000E+01 0.  0.
<mgrwt>
<rscale>  0 0.13443838E+03</rscale>
<asrwt>0</asrwt>
<pdfrwt beam="1">  1        2 0.28525586E+00 0.14197253E+03</pdfrwt>
<pdfrwt beam="2">  1       -2 0.23278839E-02 0.14197253E+03</pdfrwt>
<totfact> 0.54258752E+03</totfact>
</mgrwt>
</event>
<event>
 8    2  0.8128359E-004  0.1356001E+03  0.7818608E-02  0.1233363E+00
         -2   -1    0    0    0  501 -0.00000000000E+00  0.00000000000E+00  0.74761870407E+01  0.74761874755E+01  0.25500000000E-02 0.  1.
          2   -1    0    0  501    0  0.00000000000E+00 -0.00000000000E+00 -0.19048620092E+04  0.19048620092E+04  0.25500000000E-02 0. -1.
         25    2    1    2    0    0  0.75703916153E+01 -0.52013125541E+02 -0.11953280370E+04  0.12029948005E+04  0.12499879225E+03 0.  0.
         23    2    1    2    0    0 -0.75703916153E+01  0.52013125541E+02 -0.70205778524E+03  0.70934339620E+03  0.86719339620E+02 0.  0.
        -11    1    4    4    0    0 -0.20373473673E+02  0.54536719566E+02 -0.23502146289E+03  0.24212480300E+03  0.51100000000E-03 0.  1.
         11    1    4    4    0    0  0.12803082057E+02 -0.25235940255E+01 -0.46703632235E+03  0.46721859320E+03  0.51100000000E-03 0. -1.
    9000005    1    3    3    0    0 -0.56671743547E+02 -0.92759364341E+01 -0.58347735979E+03  0.58629732978E+03  0.10000000000E+01 0.  0.
    9000005    1    3    3    0    0  0.64242135162E+02 -0.42737189107E+02 -0.61185067717E+03  0.61669747074E+03  0.10000000000E+01 0.  0.
<mgrwt>
<rscale>  0 0.12609836E+03</rscale>
<asrwt>0</asrwt>
<pdfrwt beam="2">  1        2 0.29305531E+00 0.13560005E+03</pdfrwt>
<pdfrwt beam="1">  1       -2 0.11501842E-02 0.13560005E+03</pdfrwt>
<totfact> 0.14147917E+04</totfact>
</mgrwt>
</event>
<event>
 8    2  0.8128359E-004  0.1465710E+03  0.7818608E-02  0.1214731E+00
         -2   -1    0    0    0  501 -0.00000000000E+00  0.00000000000E+00  0.19759955577E+02  0.19759955741E+02  0.25500000000E-02 0.  1.
          2   -1    0    0  501    0  0.00000000000E+00 -0.00000000000E+00 -0.11265999170E+04  0.11265999170E+04  0.25500000000E-02 0. -1.
         25    2    1    2    0    0  0.75202378665E+02 -0.13776808027E+02 -0.33742743571E+03  0.36788631909E+03  0.12505147424E+03 0.  0.
         23    2    1    2    0    0 -0.75202378665E+02  0.13776808027E+02 -0.76941252572E+03  0.77847355366E+03  0.90444683737E+02 0.  0.
        -11    1    4    4    0    0 -0.76800486299E+02  0.96837986258E+01 -0.32693022329E+03  0.33596943544E+03  0.51100000000E-03 0.  1.
         11    1    4    4    0    0  0.15981076343E+01  0.40930094007E+01 -0.44248230244E+03  0.44250411822E+03  0.51100000000E-03 0. -1.
    9000005    1    3    3    0    0  0.78232196420E+01  0.28669736105E+02 -0.10713886522E+02  0.31606073756E+02  0.10000000000E+01 0.  0.
    9000005    1    3    3    0    0  0.67379159023E+02 -0.42446544131E+02 -0.32671354919E+03  0.33628024534E+03  0.10000000000E+01 0.  0.
<mgrwt>
<rscale>  0 0.13896348E+03</rscale>
<asrwt>0</asrwt>
<pdfrwt beam="2">  1        2 0.17332301E+00 0.14657104E+03</pdfrwt>
<pdfrwt beam="1">  1       -2 0.30399941E-02 0.14657104E+03</pdfrwt>
<totfact> 0.89015891E+03</totfact>
</mgrwt>
</event>
<event>
 8    2  0.8128359E-004  0.1509790E+03  0.7818608E-02  0.1208953E+00
          2   -1    0    0  501    0  0.00000000000E+00  0.00000000000E+00  0.12257860769E+03  0.12257860771E+03  0.25500000000E-02 0.  1.
         -2   -1    0    0    0  501 -0.00000000000E+00 -0.00000000000E+00 -0.15509748502E+03  0.15509748504E+03  0.25500000000E-02 0. -1.
         25    2    1    2    0    0 -0.74261018576E+02  0.40691343460E+02 -0.35522408999E+02  0.15510159593E+03  0.12499671679E+03 0.  0.
         23    2    1    2    0    0  0.74261018576E+02 -0.40691343460E+02  0.30035316633E+01  0.12257449683E+03  0.88572014527E+02 0.  0.
        -11    1    4    4    0    0  0.41681888883E+02 -0.54764967233E+02  0.32796582008E+02  0.76237768125E+02  0.51100000000E-03 0.  1.
         11    1    4    4    0    0  0.32579129693E+02  0.14073623774E+02 -0.29793050345E+02  0.46336728702E+02  0.51100000000E-03 0. -1.
    9000005    1    3    3    0    0  0.18147628882E+02  0.16860922231E+02 -0.52598948740E+02  0.58148744966E+02  0.10000000000E+01 0.  0.
    9000005    1    3    3    0    0 -0.92408647458E+02  0.23830421229E+02  0.17076539742E+02  0.96952850967E+02  0.10000000000E+01 0.  0.
<mgrwt>
<rscale>  0 0.14330286E+03</rscale>
<asrwt>0</asrwt>
<pdfrwt beam="1">  1        2 0.18858247E-01 0.15097902E+03</pdfrwt>
<pdfrwt beam="2">  1       -2 0.23861152E-01 0.15097902E+03</pdfrwt>
<totfact> 0.44177493E+03</totfact>
</mgrwt>
</event>
<event>
 8    2  0.8128359E-004  0.1262370E+03  0.7818608E-02  0.1246655E+00
          2   -1    0    0  501    0  0.00000000000E+00  0.00000000000E+00  0.24214639030E+03  0.24214639031E+03  0.25500000000E-02 0. -1.
         -2   -1    0    0    0  501 -0.00000000000E+00 -0.00000000000E+00 -0.50967278294E+02  0.50967278357E+02  0.25500000000E-02 0.  1.
         25    2    1    2    0    0 -0.17447007632E+02  0.18219134362E+01  0.10855627230E+03  0.16649395143E+03  0.12501221605E+03 0.  0.
         23    2    1    2    0    0  0.17447007632E+02 -0.18219134362E+01  0.82622839702E+02  0.12661971724E+03  0.94330809974E+02 0.  0.
        -11    1    4    4    0    0  0.44153983256E+02 -0.81782198372E+01  0.87861233947E+02  0.98671444441E+02  0.51100000000E-03 0. -1.
         11    1    4    4    0    0 -0.26706975624E+02  0.63563064011E+01 -0.52383942454E+01  0.27948272802E+02  0.51100000000E-03 0.  1.
    9000005    1    3    3    0    0  0.43929346289E+02  0.26326086664E+02  0.17814828531E+02  0.54233001208E+02  0.10000000000E+01 0.  0.
    9000005    1    3    3    0    0 -0.61376353921E+02 -0.24504173228E+02  0.90741443770E+02  0.11226095022E+03  0.10000000000E+01 0.  0.
<mgrwt>
<rscale>  0 0.11786881E+03</rscale>
<asrwt>0</asrwt>
<pdfrwt beam="1">  1        2 0.37253291E-01 0.12623697E+03</pdfrwt>
<pdfrwt beam="2">  1       -2 0.78411198E-02 0.12623697E+03</pdfrwt>
<totfact> 0.12595778E+04</totfact>
</mgrwt>
</event>
<event>
 8    2  0.8128359E-004  0.1287257E+03  0.7818608E-02  0.1243342E+00
          2   -1    0    0  501    0  0.00000000000E+00  0.00000000000E+00  0.22433765737E+03  0.22433765739E+03  0.25500000000E-02 0. -1.
         -2   -1    0    0    0  501 -0.00000000000E+00 -0.00000000000E+00 -0.59850389864E+02  0.59850389918E+02  0.25500000000E-02 0.  1.
         25    2    1    2    0    0  0.30074366689E+02 -0.52800014936E+01  0.12584863536E+03  0.18002275074E+03  0.12505185251E+03 0.  0.
         23    2    1    2    0    0 -0.30074366689E+02  0.52800014936E+01  0.38638632155E+02  0.10416529657E+03  0.91788447891E+02 0.  0.
        -11    1    4    4    0    0 -0.37125146841E+01 -0.20428435413E+02 -0.23858046719E+02  0.31627679842E+02  0.51100000000E-03 0.  1.
         11    1    4    4    0    0 -0.26361852005E+02  0.25708436907E+02  0.62496678874E+02  0.72537616723E+02  0.51100000000E-03 0. -1.
    9000005    1    3    3    0    0  0.87323915118E+01  0.58256570167E+02  0.40482947835E+02  0.71483926128E+02  0.10000000000E+01 0.  0.
    9000005    1    3    3    0    0  0.21341975177E+02 -0.63536571661E+02  0.85365687520E+02  0.10853882461E+03  0.10000000000E+01 0.  0.
<mgrwt>
<rscale>  0 0.11985159E+03</rscale>
<asrwt>0</asrwt>
<pdfrwt beam="1">  1        2 0.34513486E-01 0.12872572E+03</pdfrwt>
<pdfrwt beam="2">  1       -2 0.92077522E-02 0.12872572E+03</pdfrwt>
<totfact> 0.10672947E+04</totfact>
</mgrwt>
</event>
<event>
 8    2  0.8128359E-004  0.3291276E+03  0.7818608E-02  0.1072777E+00
          2   -1    0    0  501    0  0.00000000000E+00  0.00000000000E+00  0.40635512025E+03  0.40635512026E+03  0.25500000000E-02 0. -1.
         -2   -1    0    0    0  501 -0.00000000000E+00 -0.00000000000E+00 -0.26427634616E+03  0.26427634617E+03  0.25500000000E-02 0.  1.
         25    2    1    2    0    0  0.94780893784E+02  0.28933918025E+03  0.19216322804E+02  0.32968814773E+03  0.12499771453E+03 0.  0.
         23    2    1    2    0    0 -0.94780893784E+02 -0.28933918025E+03  0.12286245129E+03  0.34094331869E+03  0.91905307628E+02 0.  0.
        -11    1    4    4    0    0 -0.77316240044E+02 -0.11231743108E+03  0.79551653099E+02  0.15786535976E+03  0.51100000000E-03 0.  1.
         11    1    4    4    0    0 -0.17464653740E+02 -0.17702174917E+03  0.43310798190E+02  0.18307795894E+03  0.51100000000E-03 0. -1.
    9000005    1    3    3    0    0  0.54123338595E+02  0.24249355243E+02 -0.90851156593E+01  0.60007552332E+02  0.10000000000E+01 0.  0.
    9000005    1    3    3    0    0  0.40657555189E+02  0.26508982501E+03  0.28301438464E+02  0.26968059540E+03  0.10000000000E+01 0.  0.
<mgrwt>
<rscale>  0 0.32631909E+03</rscale>
<asrwt>0</asrwt>
<pdfrwt beam="1">  1        2 0.62516172E-01 0.32912765E+03</pdfrwt>
<pdfrwt beam="2">  1       -2 0.40657899E-01 0.32912765E+03</pdfrwt>
<totfact> 0.45470694E+02</totfact>
</mgrwt>
</event>
<event>
 8    2  0.8128359E-004  0.3606993E+03  0.7818608E-02  0.1059328E+00
         -2   -1    0    0    0  501 -0.00000000000E+00  0.00000000000E+00  0.85365013678E+02  0.85365013716E+02  0.25500000000E-02 0.  1.
          2   -1    0    0  501    0  0.00000000000E+00 -0.00000000000E+00 -0.14833969834E+04  0.14833969834E+04  0.25500000000E-02 0. -1.
         25    2    1    2    0    0 -0.33700223318E+03  0.30140383504E+02 -0.68009243932E+03  0.76982447227E+03  0.12500017680E+03 0.  0.
         23    2    1    2    0    0  0.33700223318E+03 -0.30140383504E+02 -0.71793953038E+03  0.79893752482E+03  0.91569926335E+02 0.  0.
        -11    1    4    4    0    0  0.23386835580E+03  0.14954401348E+02 -0.42876903011E+03  0.48863168455E+03  0.51100000000E-03 0. -1.
         11    1    4    4    0    0  0.10313387738E+03 -0.45094784851E+02 -0.28917050026E+03  0.31030584027E+03  0.51100000000E-03 0.  1.
    9000005    1    3    3    0    0 -0.57772891400E+02 -0.21753599902E+02 -0.52824447880E+02  0.81254836061E+02  0.10000000000E+01 0.  0.
    9000005    1    3    3    0    0 -0.27922934178E+03  0.51893983406E+02 -0.62726799144E+03  0.68856963621E+03  0.10000000000E+01 0.  0.
<mgrwt>
<rscale>  0 0.35812700E+03</rscale>
<asrwt>0</asrwt>
<pdfrwt beam="2">  1        2 0.22821490E+00 0.36069931E+03</pdfrwt>
<pdfrwt beam="1">  1       -2 0.13133080E-01 0.36069931E+03</pdfrwt>
<totfact> 0.59054027E+02</totfact>
</mgrwt>
</event>
<event>
 8    2  0.8128359E-004  0.3181772E+03  0.7818608E-02  0.1077942E+00
         -2   -1    0    0    0  501 -0.00000000000E+00  0.00000000000E+00  0.69251574407E+02  0.69251574454E+02  0.25500000000E-02 0. -1.
          2   -1    0    0  501    0  0.00000000000E+00 -0.00000000000E+00 -0.14108200971E+04  0.14108200971E+04  0.25500000000E-02 0.  1.
         25    2    1    2    0    0 -0.20085313604E+03 -0.21276393429E+03 -0.72680349851E+03  0.79339780752E+03  0.12500512608E+03 0.  0.
         23    2    1    2    0    0  0.20085313604E+03  0.21276393429E+03 -0.61476502422E+03  0.68667386407E+03  0.89299980983E+02 0.  0.
        -11    1    4    4    0    0  0.44714885603E+02  0.10484747940E+03 -0.19255235930E+03  0.22376064445E+03  0.51100000000E-03 0.  1.
         11    1    4    4    0    0  0.15613825043E+03  0.10791645489E+03 -0.42221266492E+03  0.46291321962E+03  0.51100000000E-03 0. -1.
    9000005    1    3    3    0    0 -0.18903138511E+03 -0.13539688394E+03 -0.46117002448E+03  0.51647262485E+03  0.10000000000E+01 0.  0.
    9000005    1    3    3    0    0 -0.11821750922E+02 -0.77367050346E+02 -0.26563347403E+03  0.27692518267E+03  0.10000000000E+01 0.  0.
<mgrwt>
<rscale>  0 0.31506676E+03</rscale>
<asrwt>0</asrwt>
<pdfrwt beam="2">  1        2 0.21704922E+00 0.31817724E+03</pdfrwt>
<pdfrwt beam="1">  1       -2 0.10654089E-01 0.31817724E+03</pdfrwt>
<totfact> 0.91249764E+02</totfact>
</mgrwt>
</event>
<event>
 8    2  0.8128359E-004  0.2675399E+03  0.7818608E-02  0.1104871E+00
          2   -1    0    0  501    0  0.00000000000E+00  0.00000000000E+00  0.19746365404E+04  0.19746365404E+04  0.25500000000E-02 0. -1.
         -2   -1    0    0    0  501 -0.00000000000E+00 -0.00000000000E+00 -0.36017430844E+02  0.36017430934E+02  0.25500000000E-02 0.  1.
         25    2    1    2    0    0  0.19806625193E+03 -0.12930996409E+03  0.77571433255E+03  0.82055488540E+03  0.12500514895E+03 0.  0.
         23    2    1    2    0    0 -0.19806625193E+03  0.12930996409E+03  0.11629047770E+04  0.11900990860E+04  0.89649355820E+02 0.  0.
        -11    1    4    4    0    0 -0.84279653834E+02  0.41350668247E+02  0.67313341822E+03  0.67964809758E+03  0.51100000000E-03 0. -1.
         11    1    4    4    0    0 -0.11378659809E+03  0.87959295844E+02  0.48977135881E+03  0.51045098838E+03  0.51100000000E-03 0.  1.
    9000005    1    3    3    0    0  0.15854384647E+03 -0.83305207071E+02  0.70497423651E+03  0.72736894553E+03  0.10000000000E+01 0.  0.
    9000005    1    3    3    0    0  0.39522405460E+02 -0.46004757021E+02  0.70740096046E+02  0.93185939876E+02  0.10000000000E+01 0.  0.
<mgrwt>
<rscale>  0 0.26381774E+03</rscale>
<asrwt>0</asrwt>
<pdfrwt beam="1">  1        2 0.30379031E+00 0.26753989E+03</pdfrwt>
<pdfrwt beam="2">  1       -2 0.55411419E-02 0.26753989E+03</pdfrwt>
<totfact> 0.12820602E+03</totfact>
</mgrwt>
</event>
<event>
 8    2  0.8128359E-004  0.1289924E+03  0.7818608E-02  0.1243304E+00
          2   -1    0    0  501    0  0.00000000000E+00  0.00000000000E+00  0.90360566026E+03  0.90360566027E+03  0.25500000000E-02 0. -1.
         -2   -1    0    0    0  501 -0.00000000000E+00 -0.00000000000E+00 -0.17663867464E+02  0.17663867648E+02  0.25500000000E-02 0.  1.
         25    2    1    2    0    0  0.30085190857E+02 -0.10436282590E+02  0.28707414787E+03  0.31472307847E+03  0.12500006018E+03 0.  0.
         23    2    1    2    0    0 -0.30085190857E+02  0.10436282590E+02  0.59886764493E+03  0.60654644944E+03  0.90786036820E+02 0.  0.
        -11    1    4    4    0    0  0.23243882023E+02  0.69393455569E+01  0.55662379243E+02  0.60718473560E+02  0.51100000000E-03 0.  1.
         11    1    4    4    0    0 -0.53329072880E+02  0.34969370332E+01  0.54320526569E+03  0.54582797588E+03  0.51100000000E-03 0. -1.
    9000005    1    3    3    0    0  0.65760954405E+02 -0.11436700687E+01  0.76269189217E+02  0.10071643525E+03  0.10000000000E+01 0.  0.
    9000005    1    3    3    0    0 -0.35675763547E+02 -0.92926125214E+01  0.21080495865E+03  0.21400664323E+03  0.10000000000E+01 0.  0.
<mgrwt>
<rscale>  0 0.11987453E+03</rscale>
<asrwt>0</asrwt>
<pdfrwt beam="1">  1        2 0.13901624E+00 0.12899244E+03</pdfrwt>
<pdfrwt beam="2">  1       -2 0.27175183E-02 0.12899244E+03</pdfrwt>
<totfact> 0.14140820E+04</totfact>
</mgrwt>
</event>
<event>
 8    2  0.8128359E-004  0.1267721E+03  0.7818608E-02  0.1246822E+00
         -2   -1    0    0    0  501 -0.00000000000E+00  0.00000000000E+00  0.59708711527E+01  0.59708716972E+01  0.25500000000E-02 0.  1.
          2   -1    0    0  501    0  0.00000000000E+00 -0.00000000000E+00 -0.24130041208E+04  0.24130041208E+04  0.25500000000E-02 0. -1.
         25    2    1    2    0    0 -0.19226425147E+02  0.87454372507E+01 -0.88718149625E+03  0.89619315391E+03  0.12500009494E+03 0.  0.
         23    2    1    2    0    0  0.19226425147E+02 -0.87454372507E+01 -0.15198517534E+04  0.15227818386E+04  0.92027373778E+02 0.  0.
        -11    1    4    4    0    0  0.77836942465E+01  0.25284535764E+02 -0.14086153457E+03  0.14332433696E+03  0.51100000000E-03 0.  1.
         11    1    4    4    0    0  0.11442730901E+02 -0.34029973015E+02 -0.13789902189E+04  0.13794575017E+04  0.51100000000E-03 0. -1.
    9000005    1    3    3    0    0 -0.63471856563E+02 -0.27046414980E+02 -0.43395065569E+03  0.43940227208E+03  0.10000000000E+01 0.  0.
    9000005    1    3    3    0    0  0.44245431416E+02  0.35791852231E+02 -0.45323084056E+03  0.45679088183E+03  0.10000000000E+01 0.  0.
<mgrwt>
<rscale>  0 0.11776981E+03</rscale>
<asrwt>0</asrwt>
<pdfrwt beam="2">  1        2 0.37123062E+00 0.12677209E+03</pdfrwt>
<pdfrwt beam="1">  1       -2 0.91859753E-03 0.12677209E+03</pdfrwt>
<totfact> 0.10637832E+04</totfact>
</mgrwt>
</event>
<event>
 8    2  0.8128359E-004  0.1607111E+03  0.7818608E-02  0.1195424E+00
          2   -1    0    0  501    0  0.00000000000E+00  0.00000000000E+00  0.69088384310E+03  0.69088384310E+03  0.25500000000E-02 0.  1.
         -2   -1    0    0    0  501 -0.00000000000E+00 -0.00000000000E+00 -0.32368115396E+02  0.32368115496E+02  0.25500000000E-02 0. -1.
         25    2    1    2    0    0  0.97112056298E+02 -0.27794527919E+02  0.39994657167E+03  0.43102821093E+03  0.12499908467E+03 0.  0.
         23    2    1    2    0    0 -0.97112056298E+02  0.27794527919E+02  0.25856915603E+03  0.29222374766E+03  0.91287583975E+02 0.  0.
        -11    1    4    4    0    0 -0.20429249828E+02 -0.31925825102E+02  0.57095403023E+02  0.68530997392E+02  0.51100000000E-03 0. -1.
         11    1    4    4    0    0 -0.76682806470E+02  0.59720353021E+02  0.20147375300E+03  0.22369275027E+03  0.51100000000E-03 0.  1.
    9000005    1    3    3    0    0  0.73960721671E+02  0.33589047656E+02  0.13059151913E+03  0.15379713048E+03  0.10000000000E+01 0.  0.
    9000005    1    3    3    0    0  0.23151334628E+02 -0.61383575575E+02  0.26935505254E+03  0.27723108046E+03  0.10000000000E+01 0.  0.
<mgrwt>
<rscale>  0 0.15418371E+03</rscale>
<asrwt>0</asrwt>
<pdfrwt beam="1">  1        2 0.10628981E+00 0.16071110E+03</pdfrwt>
<pdfrwt beam="2">  1       -2 0.49797104E-02 0.16071110E+03</pdfrwt>
<totfact> 0.81467027E+03</totfact>
</mgrwt>
</event>
<event>
 8    2  0.8128359E-004  0.1808646E+03  0.7818608E-02  0.1172602E+00
         -2   -1    0    0    0  501 -0.00000000000E+00  0.00000000000E+00  0.28331535256E+02  0.28331535371E+02  0.25500000000E-02 0.  1.
          2   -1    0    0  501    0  0.00000000000E+00 -0.00000000000E+00 -0.10192354991E+04  0.10192354991E+04  0.25500000000E-02 0. -1.
         25    2    1    2    0    0  0.12905319916E+03 -0.20803921171E+02 -0.53066602627E+03  0.56064108086E+03  0.12499783505E+03 0.  0.
         23    2    1    2    0    0 -0.12905319916E+03  0.20803921171E+02 -0.46023793756E+03  0.48692595359E+03  0.90500794259E+02 0.  0.
        -11    1    4    4    0    0 -0.12309013175E+03  0.47273802163E+02 -0.38238303478E+03  0.40447840263E+03  0.51100000000E-03 0. -1.
         11    1    4    4    0    0 -0.59630674136E+01 -0.26469880992E+02 -0.77854902781E+02  0.82447550964E+02  0.51100000000E-03 0.  1.
    9000005    1    3    3    0    0  0.73852599863E+01  0.27160387244E+01 -0.28849629679E+03  0.28860532253E+03  0.10000000000E+01 0.  0.
    9000005    1    3    3    0    0  0.12166793918E+03 -0.23519959895E+02 -0.24216972947E+03  0.27203575833E+03  0.10000000000E+01 0.  0.
<mgrwt>
<rscale>  0 0.17512889E+03</rscale>
<asrwt>0</asrwt>
<pdfrwt beam="2">  1        2 0.15680543E+00 0.18086456E+03</pdfrwt>
<pdfrwt beam="1">  1       -2 0.43586985E-02 0.18086456E+03</pdfrwt>
<totfact> 0.60697707E+03</totfact>
</mgrwt>
</event>
<event>
 8    2  0.8128359E-004  0.1263443E+03  0.7818608E-02  0.1247598E+00
         -2   -1    0    0    0  501 -0.00000000000E+00  0.00000000000E+00  0.11441563382E+03  0.11441563385E+03  0.25500000000E-02 0.  1.
          2   -1    0    0  501    0  0.00000000000E+00 -0.00000000000E+00 -0.10720310551E+03  0.10720310554E+03  0.25500000000E-02 0. -1.
         25    2    1    2    0    0 -0.11873500059E+02 -0.14063253428E+02  0.15749027534E+02  0.12732212990E+03  0.12499655113E+03 0.  0.
         23    2    1    2    0    0  0.11873500059E+02  0.14063253428E+02 -0.85364992186E+01  0.94296609489E+02  0.92088129754E+02 0.  0.
        -11    1    4    4    0    0  0.25694410379E+02 -0.29678147439E+02 -0.23852866099E+02  0.45934239752E+02  0.51100000000E-03 0. -1.
         11    1    4    4    0    0 -0.13820910320E+02  0.43741400867E+02  0.15316366881E+02  0.48362369737E+02  0.51100000000E-03 0.  1.
    9000005    1    3    3    0    0  0.22569697264E+02  0.49264305901E+02  0.85625913069E+01  0.54869673230E+02  0.10000000000E+01 0.  0.
    9000005    1    3    3    0    0 -0.34443197322E+02 -0.63327559329E+02  0.71864362272E+01  0.72452456674E+02  0.10000000000E+01 0.  0.
<mgrwt>
<rscale>  0 0.11731246E+03</rscale>
<asrwt>0</asrwt>
<pdfrwt beam="2">  1        2 0.16492785E-01 0.12634434E+03</pdfrwt>
<pdfrwt beam="1">  1       -2 0.17602405E-01 0.12634434E+03</pdfrwt>
<totfact> 0.85337698E+03</totfact>
</mgrwt>
</event>
<event>
 8    2  0.8128359E-004  0.1263525E+03  0.7818608E-02  0.1249097E+00
          2   -1    0    0  501    0  0.00000000000E+00  0.00000000000E+00  0.19841516951E+04  0.19841516951E+04  0.25500000000E-02 0. -1.
         -2   -1    0    0    0  501 -0.00000000000E+00 -0.00000000000E+00 -0.59842180617E+01  0.59842186050E+01  0.25500000000E-02 0.  1.
         25    2    1    2    0    0  0.13216480449E+02 -0.12834632117E+02  0.10844567473E+04  0.10917927426E+04  0.12500221155E+03 0.  0.
         23    2    1    2    0    0 -0.13216480449E+02  0.12834632117E+02  0.89371072972E+03  0.89834317109E+03  0.89231056747E+02 0.  0.
        -11    1    4    4    0    0  0.33322738325E+02  0.25957579536E+02  0.46481588980E+03  0.46673119913E+03  0.51100000000E-03 0. -1.
         11    1    4    4    0    0 -0.46539218774E+02 -0.13122947419E+02  0.42889483992E+03  0.43161197196E+03  0.51100000000E-03 0.  1.
    9000005    1    3    3    0    0  0.35926041780E+02  0.47307726428E+02  0.63276752076E+03  0.63555049900E+03  0.10000000000E+01 0.  0.
    9000005    1    3    3    0    0 -0.22709561331E+02 -0.60142358545E+02  0.45168922653E+03  0.45624224358E+03  0.10000000000E+01 0.  0.
<mgrwt>
<rscale>  0 0.11643486E+03</rscale>
<asrwt>0</asrwt>
<pdfrwt beam="1">  1        2 0.30525418E+00 0.12635251E+03</pdfrwt>
<pdfrwt beam="2">  1       -2 0.92064876E-03 0.12635251E+03</pdfrwt>
<totfact> 0.17664598E+04</totfact>
</mgrwt>
</event>
<event>
 8    2  0.8128359E-004  0.1570374E+03  0.7818608E-02  0.1199986E+00
          2   -1    0    0  501    0  0.00000000000E+00  0.00000000000E+00  0.45103572945E+03  0.45103572946E+03  0.25500000000E-02 0.  1.
         -2   -1    0    0    0  501 -0.00000000000E+00 -0.00000000000E+00 -0.46465321369E+02  0.46465321439E+02  0.25500000000E-02 0. -1.
         25    2    1    2    0    0  0.73458783355E+02  0.60324503948E+02  0.20691294284E+03  0.25975699420E+03  0.12500196596E+03 0.  0.
         23    2    1    2    0    0 -0.73458783355E+02 -0.60324503948E+02  0.19765746524E+03  0.23774405669E+03  0.91752516582E+02 0.  0.
        -11    1    4    4    0    0 -0.39969306745E+02 -0.46206961556E+02  0.19133788390E+03  0.20085520804E+03  0.51100000000E-03 0.  1.
         11    1    4    4    0    0 -0.33489476610E+02 -0.14117542392E+02  0.63195813377E+01  0.36888848659E+02  0.51100000000E-03 0. -1.
    9000005    1    3    3    0    0 -0.33989463438E+02  0.11929714819E+01  0.37913157339E+02  0.50942264429E+02  0.10000000000E+01 0.  0.
    9000005    1    3    3    0    0  0.10744824679E+03  0.59131532467E+02  0.16899978550E+03  0.20881472977E+03  0.10000000000E+01 0.  0.
<mgrwt>
<rscale>  0 0.15039672E+03</rscale>
<asrwt>0</asrwt>
<pdfrwt beam="1">  1        2 0.69390113E-01 0.15703735E+03</pdfrwt>
<pdfrwt beam="2">  1       -2 0.71485109E-02 0.15703735E+03</pdfrwt>
<totfact> 0.76010345E+03</totfact>
</mgrwt>
</event>
<event>
 8    2  0.8128359E-004  0.1327430E+03  0.7818608E-02  0.1236371E+00
          2   -1    0    0  501    0  0.00000000000E+00  0.00000000000E+00  0.24420169166E+03  0.24420169167E+03  0.25500000000E-02 0. -1.
         -2   -1    0    0    0  501 -0.00000000000E+00 -0.00000000000E+00 -0.56596010973E+02  0.56596011031E+02  0.25500000000E-02 0.  1.
         25    2    1    2    0    0  0.79571165003E+01  0.43962922298E+02  0.11804560375E+03  0.17763857275E+03  0.12499857488E+03 0.  0.
         23    2    1    2    0    0 -0.79571165003E+01 -0.43962922298E+02  0.69560076932E+02  0.12315912996E+03  0.91288075613E+02 0.  0.
        -11    1    4    4    0    0  0.72839352978E+01  0.53033643734E+01  0.70999700556E+02  0.71569119503E+02  0.51100000000E-03 0. -1.
         11    1    4    4    0    0 -0.15241051798E+02 -0.49266286671E+02 -0.14396236238E+01  0.51590010455E+02  0.51100000000E-03 0.  1.
    9000005    1    3    3    0    0 -0.57183286588E+00 -0.37708800451E+02  0.52128342148E+01  0.38084829851E+02  0.10000000000E+01 0.  0.
    9000005    1    3    3    0    0  0.85289493662E+01  0.81671722749E+02  0.11283276954E+03  0.13955374290E+03  0.10000000000E+01 0.  0.
<mgrwt>
<rscale>  0 0.12417064E+03</rscale>
<asrwt>0</asrwt>
<pdfrwt beam="1">  1        2 0.37569491E-01 0.13274298E+03</pdfrwt>
<pdfrwt beam="2">  1       -2 0.87070787E-02 0.13274298E+03</pdfrwt>
<totfact> 0.10660615E+04</totfact>
</mgrwt>
</event>
<event>
 8    2  0.8128359E-004  0.1923825E+03  0.7818608E-02  0.1161143E+00
          2   -1    0    0  501    0  0.00000000000E+00  0.00000000000E+00  0.73865428325E+03  0.73865428326E+03  0.25500000000E-02 0. -1.
         -2   -1    0    0    0  501 -0.00000000000E+00 -0.00000000000E+00 -0.78590044883E+02  0.78590044924E+02  0.25500000000E-02 0.  1.
         25    2    1    2    0    0 -0.89693439417E+02 -0.11550300570E+03  0.60781572166E+03  0.63753509010E+03  0.12500072885E+03 0.  0.
         23    2    1    2    0    0  0.89693439417E+02  0.11550300570E+03  0.52248516713E+02  0.17970923808E+03  0.90441391823E+02 0.  0.
        -11    1    4    4    0    0  0.12104798130E+02  0.66531149956E+02  0.56119392196E+02  0.87876653515E+02  0.51100000000E-03 0.  1.
         11    1    4    4    0    0  0.77588641287E+02  0.48971855740E+02 -0.38708754833E+01  0.91832584569E+02  0.51100000000E-03 0. -1.
    9000005    1    3    3    0    0 -0.11222520584E+03 -0.78809645854E+02  0.34575084324E+03  0.37195443633E+03  0.10000000000E+01 0.  0.
    9000005    1    3    3    0    0  0.22531766426E+02 -0.36693359843E+02  0.26206487842E+03  0.26558065377E+03  0.10000000000E+01 0.  0.
<mgrwt>
<rscale>  0 0.18705632E+03</rscale>
<asrwt>0</asrwt>
<pdfrwt beam="1">  1        2 0.11363912E+00 0.19238253E+03</pdfrwt>
<pdfrwt beam="2">  1       -2 0.12090776E-01 0.19238253E+03</pdfrwt>
<totfact> 0.19059874E+03</totfact>
</mgrwt>
</event>
<event>
 8    2  0.8128359E-004  0.1275794E+03  0.7818608E-02  0.1245732E+00
         -2   -1    0    0    0  501 -0.00000000000E+00  0.00000000000E+00  0.46417452783E+02  0.46417452853E+02  0.25500000000E-02 0.  1.
          2   -1    0    0  501    0  0.00000000000E+00 -0.00000000000E+00 -0.32693614507E+03  0.32693614508E+03  0.25500000000E-02 0. -1.
         25    2    1    2    0    0  0.14582076735E+02 -0.20940425803E+02 -0.77336471297E+02  0.14918923606E+03  0.12500143987E+03 0.  0.
         23    2    1    2    0    0 -0.14582076735E+02  0.20940425803E+02 -0.20318222099E+03  0.22416436187E+03  0.91189406256E+02 0.  0.
        -11    1    4    4    0    0 -0.24098331703E+02 -0.30507021780E+02 -0.11756663875E+03  0.12382779379E+03  0.51100000000E-03 0. -1.
         11    1    4    4    0    0  0.95162549674E+01  0.51447447583E+02 -0.85615582237E+02  0.10033656808E+03  0.51100000000E-03 0.  1.
    9000005    1    3    3    0    0  0.35898369382E+02  0.28789628878E+02  0.93791836965E+01  0.46973447202E+02  0.10000000000E+01 0.  0.
    9000005    1    3    3    0    0 -0.21316292647E+02 -0.49730054681E+02 -0.86715654993E+02  0.10221578886E+03  0.10000000000E+01 0.  0.
<mgrwt>
<rscale>  0 0.11841702E+03</rscale>
<asrwt>0</asrwt>
<pdfrwt beam="2">  1        2 0.50297867E-01 0.12757938E+03</pdfrwt>
<pdfrwt beam="1">  1       -2 0.71411468E-02 0.12757938E+03</pdfrwt>
<totfact> 0.10588877E+04</totfact>
</mgrwt>
</event>
<event>
 8    2  0.8128359E-004  0.1556308E+03  0.7818608E-02  0.1201820E+00
         -2   -1    0    0    0  501 -0.00000000000E+00  0.00000000000E+00  0.14847587580E+03  0.14847587582E+03  0.25500000000E-02 0.  1.
          2   -1    0    0  501    0  0.00000000000E+00 -0.00000000000E+00 -0.20988888128E+03  0.20988888130E+03  0.25500000000E-02 0. -1.
         25    2    1    2    0    0 -0.34878532568E+02 -0.85894306608E+02 -0.13723207497E+03  0.20749358843E+03  0.12500641142E+03 0.  0.
         23    2    1    2    0    0  0.34878532568E+02  0.85894306608E+02  0.75819069480E+02  0.15087116869E+03  0.91756385623E+02 0.  0.
        -11    1    4    4    0    0  0.55072717202E+02  0.71826715576E+02  0.85420298201E+02  0.12445364035E+03  0.51100000000E-03 0.  1.
         11    1    4    4    0    0 -0.20194184634E+02  0.14067591032E+02 -0.96012287208E+01  0.26417528342E+02  0.51100000000E-03 0. -1.
    9000005    1    3    3    0    0 -0.67512205813E+02 -0.64332906771E+02 -0.37781700975E+02  0.10062344536E+03  0.10000000000E+01 0.  0.
    9000005    1    3    3    0    0  0.32633673244E+02 -0.21561399837E+02 -0.99450373995E+02  0.10687014307E+03  0.10000000000E+01 0.  0.
<mgrwt>
<rscale>  0 0.14890906E+03</rscale>
<asrwt>0</asrwt>
<pdfrwt beam="2">  1        2 0.32290597E-01 0.15563080E+03</pdfrwt>
<pdfrwt beam="1">  1       -2 0.22842443E-01 0.15563080E+03</pdfrwt>
<totfact> 0.26279576E+03</totfact>
</mgrwt>
</event>
<event>
 8    2  0.8128359E-004  0.1330650E+03  0.7818608E-02  0.1236748E+00
         -2   -1    0    0    0  501 -0.00000000000E+00  0.00000000000E+00  0.53132231795E+02  0.53132231856E+02  0.25500000000E-02 0.  1.
          2   -1    0    0  501    0  0.00000000000E+00 -0.00000000000E+00 -0.25597770309E+03  0.25597770310E+03  0.25500000000E-02 0. -1.
         25    2    1    2    0    0  0.40181288034E+02  0.21643765447E+02 -0.11247263634E+03  0.17423085860E+03  0.12499323851E+03 0.  0.
         23    2    1    2    0    0 -0.40181288034E+02 -0.21643765447E+02 -0.90372834952E+02  0.13487907636E+03  0.89118614500E+02 0.  0.
        -11    1    4    4    0    0  0.98825201676E+01  0.16199139405E+02  0.59756079139E+01  0.19894326139E+02  0.51100000000E-03 0.  1.
         11    1    4    4    0    0 -0.50063808201E+02 -0.37842904852E+02 -0.96348442866E+02  0.11498475022E+03  0.51100000000E-03 0. -1.
    9000005    1    3    3    0    0  0.49135917472E+02 -0.37354654931E+02 -0.92671173910E+02  0.11134924833E+03  0.10000000000E+01 0.  0.
    9000005    1    3    3    0    0 -0.89546294383E+01  0.58998420378E+02 -0.19801462433E+02  0.62881610269E+02  0.10000000000E+01 0.  0.
<mgrwt>
<rscale>  0 0.12393218E+03</rscale>
<asrwt>0</asrwt>
<pdfrwt beam="2">  1        2 0.39381184E-01 0.13306501E+03</pdfrwt>
<pdfrwt beam="1">  1       -2 0.81741897E-02 0.13306501E+03</pdfrwt>
<totfact> 0.11183344E+04</totfact>
</mgrwt>
</event>
<event>
 8    2  0.8128359E-004  0.1297051E+03  0.7818608E-02  0.1229942E+00
         -2   -1    0    0    0  501 -0.00000000000E+00  0.00000000000E+00  0.11927600999E+03  0.11927601002E+03  0.25500000000E-02 0.  1.
          2   -1    0    0  501    0  0.00000000000E+00 -0.00000000000E+00 -0.22583103409E+03  0.22583103410E+03  0.25500000000E-02 0. -1.
         25    2    1    2    0    0 -0.18246653776E+02 -0.29410912109E+02  0.55310605552E+02  0.14100591959E+03  0.12500185658E+03 0.  0.
         23    2    1    2    0    0  0.18246653776E+02  0.29410912109E+02 -0.16186562965E+03  0.20410112453E+03  0.11941040510E+03 0.  0.
        -11    1    4    4    0    0 -0.27487409184E+02  0.28687207660E+02 -0.42199772896E+01  0.39953995489E+02  0.51100000000E-03 0.  1.
         11    1    4    4    0    0  0.45734062960E+02  0.72370444991E+00 -0.15764565236E+03  0.16414712904E+03  0.51100000000E-03 0. -1.
    9000005    1    3    3    0    0  0.77895923782E+01  0.18053048144E+02 -0.32409695213E+02  0.37920688819E+02  0.10000000000E+01 0.  0.
    9000005    1    3    3    0    0 -0.26036246154E+02 -0.47463960253E+02  0.87720300765E+02  0.10308523077E+03  0.10000000000E+01 0.  0.
<mgrwt>
<rscale>  0 0.12833870E+03</rscale>
<asrwt>0</asrwt>
<pdfrwt beam="2">  1        2 0.34743236E-01 0.12970507E+03</pdfrwt>
<pdfrwt beam="1">  1       -2 0.18350155E-01 0.12970507E+03</pdfrwt>
<totfact> 0.34935741E+03</totfact>
</mgrwt>
</event>
<event>
 8    2  0.8128359E-004  0.1298563E+03  0.7818608E-02  0.1241007E+00
         -2   -1    0    0    0  501 -0.00000000000E+00  0.00000000000E+00  0.38312551167E+02  0.38312551251E+02  0.25500000000E-02 0.  1.
          2   -1    0    0  501    0  0.00000000000E+00 -0.00000000000E+00 -0.35126153937E+03  0.35126153937E+03  0.25500000000E-02 0. -1.
         25    2    1    2    0    0  0.36596291739E+01  0.34992438140E+02 -0.20990425037E+03  0.24682473577E+03  0.12499916901E+03 0.  0.
         23    2    1    2    0    0 -0.36596291739E+01 -0.34992438140E+02 -0.10304473783E+03  0.14274935486E+03  0.92310869916E+02 0.  0.
        -11    1    4    4    0    0 -0.48999329613E+00  0.19270004032E+02 -0.82369620577E+02  0.84595079899E+02  0.51100000000E-03 0. -1.
         11    1    4    4    0    0 -0.31696358777E+01 -0.54262442172E+02 -0.20675117253E+02  0.58154274957E+02  0.51100000000E-03 0.  1.
    9000005    1    3    3    0    0  0.50856457426E+02 -0.22280774536E+02 -0.94726816769E+02  0.10980428949E+03  0.10000000000E+01 0.  0.
    9000005    1    3    3    0    0 -0.47196828252E+02  0.57273212677E+02 -0.11517743360E+03  0.13702044628E+03  0.10000000000E+01 0.  0.
<mgrwt>
<rscale>  0 0.12127570E+03</rscale>
<asrwt>0</asrwt>
<pdfrwt beam="2">  1        2 0.54040235E-01 0.12985629E+03</pdfrwt>
<pdfrwt beam="1">  1       -2 0.58942389E-02 0.12985629E+03</pdfrwt>
<totfact> 0.13159499E+04</totfact>
</mgrwt>
</event>
<event>
 8    2  0.8128359E-004  0.1798622E+03  0.7818608E-02  0.1173581E+00
         -2   -1    0    0    0  501 -0.00000000000E+00  0.00000000000E+00  0.34596488940E+02  0.34596489034E+02  0.25500000000E-02 0.  1.
          2   -1    0    0  501    0  0.00000000000E+00 -0.00000000000E+00 -0.99984145992E+03  0.99984145992E+03  0.25500000000E-02 0. -1.
         25    2    1    2    0    0 -0.77326186662E+02 -0.10366690270E+03 -0.72395285913E+03  0.74596121973E+03  0.12499693294E+03 0.  0.
         23    2    1    2    0    0  0.77326186662E+02  0.10366690270E+03 -0.24129211185E+03  0.28847672922E+03  0.90943796949E+02 0.  0.
        -11    1    4    4    0    0  0.90837108346E+02  0.65216876510E+02 -0.20674703792E+03  0.23505097091E+03  0.51100000000E-03 0. -1.
         11    1    4    4    0    0 -0.13510921684E+02  0.38450026189E+02 -0.34545073923E+02  0.53425758312E+02  0.51100000000E-03 0.  1.
    9000005    1    3    3    0    0 -0.34069348746E+01 -0.49449154123E+02 -0.51992044887E+03  0.52227875622E+03  0.10000000000E+01 0.  0.
    9000005    1    3    3    0    0 -0.73919251788E+02 -0.54217748576E+02 -0.20403241027E+03  0.22368246352E+03  0.10000000000E+01 0.  0.
<mgrwt>
<rscale>  0 0.17415691E+03</rscale>
<asrwt>0</asrwt>
<pdfrwt beam="2">  1        2 0.15382174E+00 0.17986217E+03</pdfrwt>
<pdfrwt beam="1">  1       -2 0.53225375E-02 0.17986217E+03</pdfrwt>
<totfact> 0.46111835E+03</totfact>
</mgrwt>
</event>
<event>
 8    2  0.8128359E-004  0.1373660E+03  0.7818608E-02  0.1228634E+00
         -2   -1    0    0    0  501 -0.00000000000E+00  0.00000000000E+00  0.23334840575E+02  0.23334840714E+02  0.25500000000E-02 0.  1.
          2   -1    0    0  501    0  0.00000000000E+00 -0.00000000000E+00 -0.64370837572E+03  0.64370837572E+03  0.25500000000E-02 0. -1.
         25    2    1    2    0    0  0.29096290238E+02  0.48988827492E+02 -0.36196170452E+03  0.38715074476E+03  0.12499169693E+03 0.  0.
         23    2    1    2    0    0 -0.29096290238E+02 -0.48988827492E+02 -0.25841183062E+03  0.27989247168E+03  0.91195516189E+02 0.  0.
        -11    1    4    4    0    0 -0.24062874714E+02 -0.59594919872E+02 -0.26019767817E+03  0.26801755192E+03  0.51100000000E-03 0. -1.
         11    1    4    4    0    0 -0.50334155240E+01  0.10606092380E+02  0.17858475506E+01  0.11874919753E+02  0.51100000000E-03 0.  1.
    9000005    1    3    3    0    0  0.48884543118E+02  0.48774535554E+02 -0.36074761816E+03  0.36729892170E+03  0.10000000000E+01 0.  0.
    9000005    1    3    3    0    0 -0.19788252880E+02  0.21429193718E+00 -0.12140863638E+01  0.19851823060E+02  0.10000000000E+01 0.  0.
<mgrwt>
<rscale>  0 0.12920933E+03</rscale>
<asrwt>0</asrwt>
<pdfrwt beam="2">  1        2 0.99032044E-01 0.13736602E+03</pdfrwt>
<pdfrwt beam="1">  1       -2 0.35899760E-02 0.13736602E+03</pdfrwt>
<totfact> 0.14285702E+04</totfact>
</mgrwt>
</event>
<event>
 8    2  0.8128359E-004  0.1423082E+03  0.7818608E-02  0.1220955E+00
         -2   -1    0    0    0  501 -0.00000000000E+00  0.00000000000E+00  0.29720716390E+02  0.29720716499E+02  0.25500000000E-02 0.  1.
          2   -1    0    0  501    0  0.00000000000E+00 -0.00000000000E+00 -0.12384884676E+04  0.12384884676E+04  0.25500000000E-02 0. -1.
         25    2    1    2    0    0  0.64981694130E+02  0.20073795069E+02 -0.16332856227E+03  0.21662837712E+03  0.12500422673E+03 0.  0.
         23    2    1    2    0    0 -0.64981694130E+02 -0.20073795069E+02 -0.10454391889E+04  0.10515808069E+04  0.90848874602E+02 0.  0.
        -11    1    4    4    0    0 -0.83314462882E+01  0.22641147395E+01 -0.74410898925E+03  0.74415907379E+03  0.51100000000E-03 0. -1.
         11    1    4    4    0    0 -0.56650247841E+02 -0.22337909808E+02 -0.30133019966E+03  0.30742173316E+03  0.51100000000E-03 0.  1.
    9000005    1    3    3    0    0 -0.30062791233E+02 -0.74475359964E+01 -0.72496830133E+01  0.31824442068E+02  0.10000000000E+01 0.  0.
    9000005    1    3    3    0    0  0.95044485362E+02  0.27521331065E+02 -0.15607887926E+03  0.18480393505E+03  0.10000000000E+01 0.  0.
<mgrwt>
<rscale>  0 0.13448016E+03</rscale>
<asrwt>0</asrwt>
<pdfrwt beam="2">  1        2 0.19053665E+00 0.14230824E+03</pdfrwt>
<pdfrwt beam="1">  1       -2 0.45724189E-02 0.14230824E+03</pdfrwt>
<totfact> 0.42015444E+03</totfact>
</mgrwt>
</event>
<event>
 8    2  0.8128359E-004  0.1275409E+03  0.7818608E-02  0.1245615E+00
          2   -1    0    0  501    0  0.00000000000E+00  0.00000000000E+00  0.10178557549E+02  0.10178557868E+02  0.25500000000E-02 0. -1.
         -2   -1    0    0    0  501 -0.00000000000E+00 -0.00000000000E+00 -0.12659971310E+04  0.12659971311E+04  0.25500000000E-02 0.  1.
         25    2    1    2    0    0 -0.71352568715E+01 -0.24292501611E+02 -0.84112063237E+03  0.85073532933E+03  0.12500257933E+03 0.  0.
         23    2    1    2    0    0  0.71352568715E+01  0.24292501611E+02 -0.41469794113E+03  0.42544035959E+03  0.91564620175E+02 0.  0.
        -11    1    4    4    0    0  0.25227176289E+02  0.24322083806E+02 -0.54534019857E+02  0.64822322592E+02  0.51100000000E-03 0. -1.
         11    1    4    4    0    0 -0.18091919418E+02 -0.29582195550E-01 -0.36016392127E+03  0.36061803700E+03  0.51100000000E-03 0.  1.
    9000005    1    3    3    0    0 -0.29530587853E+02 -0.66330860024E+02 -0.35924719848E+03  0.36651246668E+03  0.10000000000E+01 0.  0.
    9000005    1    3    3    0    0  0.22395330981E+02  0.42038358414E+02 -0.48187343389E+03  0.48422286265E+03  0.10000000000E+01 0.  0.
<mgrwt>
<rscale>  0 0.11848646E+03</rscale>
<asrwt>0</asrwt>
<pdfrwt beam="1">  1        2 0.15659330E-02 0.12754090E+03</pdfrwt>
<pdfrwt beam="2">  1       -2 0.19476866E+00 0.12754090E+03</pdfrwt>
<totfact> 0.11528050E+03</totfact>
</mgrwt>
</event>
<event>
 8    2  0.8128359E-004  0.1334889E+03  0.7818608E-02  0.1235202E+00
         -2   -1    0    0    0  501 -0.00000000000E+00  0.00000000000E+00  0.10787030998E+02  0.10787031299E+02  0.25500000000E-02 0. -1.
          2   -1    0    0  501    0  0.00000000000E+00 -0.00000000000E+00 -0.13194472382E+04  0.13194472382E+04  0.25500000000E-02 0.  1.
         25    2    1    2    0    0  0.46721698383E+02  0.30796105482E+01 -0.63876676493E+03  0.65256591620E+03  0.12500757539E+03 0.  0.
         23    2    1    2    0    0 -0.46721698383E+02 -0.30796105482E+01 -0.66989344225E+03  0.67766835329E+03  0.91020722742E+02 0.  0.
        -11    1    4    4    0    0 -0.53225116851E+02  0.29020730723E+02 -0.28458272282E+03  0.29096811166E+03  0.51100000000E-03 0. -1.
         11    1    4    4    0    0  0.65034184674E+01 -0.32100341271E+02 -0.38531071944E+03  0.38670024163E+03  0.51100000000E-03 0.  1.
    9000005    1    3    3    0    0 -0.15097982611E+02  0.46465577178E+02 -0.14397051338E+03  0.15203784945E+03  0.10000000000E+01 0.  0.
    9000005    1    3    3    0    0  0.61819680994E+02 -0.43385966630E+02 -0.49479625155E+03  0.50052806675E+03  0.10000000000E+01 0.  0.
<mgrwt>
<rscale>  0 0.12491496E+03</rscale>
<asrwt>0</asrwt>
<pdfrwt beam="2">  1        2 0.20299176E+00 0.13348893E+03</pdfrwt>
<pdfrwt beam="1">  1       -2 0.16595443E-02 0.13348893E+03</pdfrwt>
<totfact> 0.16760002E+04</totfact>
</mgrwt>
</event>
<event>
 8    2  0.8128359E-004  0.1527869E+03  0.7818608E-02  0.1205647E+00
          2   -1    0    0  501    0  0.00000000000E+00  0.00000000000E+00  0.49865029620E+03  0.49865029621E+03  0.25500000000E-02 0. -1.
         -2   -1    0    0    0  501 -0.00000000000E+00 -0.00000000000E+00 -0.41155510973E+02  0.41155511052E+02  0.25500000000E-02 0.  1.
         25    2    1    2    0    0 -0.87806597194E+02  0.31388521739E+01  0.19069693509E+03  0.24435454691E+03  0.12499589049E+03 0.  0.
         23    2    1    2    0    0  0.87806597194E+02 -0.31388521739E+01  0.26679785014E+03  0.29545126035E+03  0.91599691594E+02 0.  0.
        -11    1    4    4    0    0  0.58515061729E+02  0.26506882853E+02  0.73075493588E+02  0.97296737104E+02  0.51100000000E-03 0.  1.
         11    1    4    4    0    0  0.29291535465E+02 -0.29645735027E+02  0.19372235655E+03  0.19815452324E+03  0.51100000000E-03 0. -1.
    9000005    1    3    3    0    0  0.13429091190E+01  0.90284728512E+01  0.14257492531E+03  0.14287031201E+03  0.10000000000E+01 0.  0.
    9000005    1    3    3    0    0 -0.89149506313E+02 -0.58896206773E+01  0.48122009779E+02  0.10148423490E+03  0.10000000000E+01 0.  0.
<mgrwt>
<rscale>  0 0.14586552E+03</rscale>
<asrwt>0</asrwt>
<pdfrwt beam="1">  1        2 0.76715432E-01 0.15278686E+03</pdfrwt>
<pdfrwt beam="2">  1       -2 0.63316169E-02 0.15278686E+03</pdfrwt>
<totfact> 0.81874843E+03</totfact>
</mgrwt>
</event>
<event>
 8    2  0.8128359E-004  0.1554180E+03  0.7818608E-02  0.1202325E+00
         -2   -1    0    0    0  501 -0.00000000000E+00  0.00000000000E+00  0.17445433364E+03  0.17445433366E+03  0.25500000000E-02 0.  1.
          2   -1    0    0  501    0  0.00000000000E+00 -0.00000000000E+00 -0.12883366335E+03  0.12883366338E+03  0.25500000000E-02 0. -1.
         25    2    1    2    0    0 -0.88005684835E+02 -0.28008463038E+02  0.71670226525E+02  0.17114723215E+03  0.12500111654E+03 0.  0.
         23    2    1    2    0    0  0.88005684835E+02  0.28008463038E+02 -0.26049556238E+02  0.13214076488E+03  0.90846726957E+02 0.  0.
        -11    1    4    4    0    0  0.19162189693E+02  0.76052045491E+01  0.33178391783E+02  0.39061929441E+02  0.51100000000E-03 0.  1.
         11    1    4    4    0    0  0.68843495141E+02  0.20403258489E+02 -0.59227948021E+02  0.93078835442E+02  0.51100000000E-03 0. -1.
    9000005    1    3    3    0    0 -0.10501033435E+03  0.16106976436E+02  0.36968901610E+02  0.11249135388E+03  0.10000000000E+01 0.  0.
    9000005    1    3    3    0    0  0.17004649517E+02 -0.44115439474E+02  0.34701324915E+02  0.58655878274E+02  0.10000000000E+01 0.  0.
<mgrwt>
<rscale>  0 0.14850237E+03</rscale>
<asrwt>0</asrwt>
<pdfrwt beam="2">  1        2 0.19820564E-01 0.15541800E+03</pdfrwt>
<pdfrwt beam="1">  1       -2 0.26839128E-01 0.15541800E+03</pdfrwt>
<totfact> 0.34017694E+03</totfact>
</mgrwt>
</event>
<event>
 8    2  0.8128359E-004  0.1529100E+03  0.7818608E-02  0.1207598E+00
          2   -1    0    0  501    0  0.00000000000E+00  0.00000000000E+00  0.30278877161E+04  0.30278877161E+04  0.25500000000E-02 0. -1.
         -2   -1    0    0    0  501 -0.00000000000E+00 -0.00000000000E+00 -0.69284798421E+01  0.69284803114E+01  0.25500000000E-02 0.  1.
         25    2    1    2    0    0 -0.76264518369E+02 -0.44048072971E+02  0.11815366011E+04  0.11913900269E+04  0.12499978826E+03 0.  0.
         23    2    1    2    0    0  0.76264518369E+02  0.44048072971E+02  0.18394226352E+04  0.18434261695E+04  0.83593672365E+02 0.  0.
        -11    1    4    4    0    0  0.34529697446E+02  0.83468150739E+00  0.20421644240E+03  0.20711675945E+03  0.51100000000E-03 0.  1.
         11    1    4    4    0    0  0.41734820923E+02  0.43213391464E+02  0.16352061928E+04  0.16363094101E+04  0.51100000000E-03 0. -1.
    9000005    1    3    3    0    0 -0.86457720723E+02 -0.22165269862E+02  0.41581663993E+03  0.42528897788E+03  0.10000000000E+01 0.  0.
    9000005    1    3    3    0    0  0.10193202355E+02 -0.21882803109E+02  0.76571996117E+03  0.76610104907E+03  0.10000000000E+01 0.  0.
<mgrwt>
<rscale>  0 0.14434617E+03</rscale>
<asrwt>0</asrwt>
<pdfrwt beam="1">  1        2 0.46582903E+00 0.15290996E+03</pdfrwt>
<pdfrwt beam="2">  1       -2 0.10659197E-02 0.15290996E+03</pdfrwt>
<totfact> 0.39356792E+03</totfact>
</mgrwt>
</event>
<event>
 8    2  0.8128359E-004  0.1560877E+03  0.7818608E-02  0.1201624E+00
          2   -1    0    0  501    0  0.00000000000E+00  0.00000000000E+00  0.35960692738E+04  0.35960692738E+04  0.25500000000E-02 0. -1.
         -2   -1    0    0    0  501 -0.00000000000E+00 -0.00000000000E+00 -0.57036504369E+01  0.57036510069E+01  0.25500000000E-02 0.  1.
         25    2    1    2    0    0  0.12015656140E+02 -0.92706768944E+02  0.18536084384E+04  0.18601687087E+04  0.12499784368E+03 0.  0.
         23    2    1    2    0    0 -0.12015656140E+02  0.92706768944E+02  0.17367571849E+04  0.17416042161E+04  0.90115509412E+02 0.  0.
        -11    1    4    4    0    0 -0.50558919683E+02  0.59353221290E+02  0.11481158356E+04  0.11507601754E+04  0.51100000000E-03 0.  1.
         11    1    4    4    0    0  0.38543263543E+02  0.33353547654E+02  0.58864134934E+03  0.59084404072E+03  0.51100000000E-03 0. -1.
    9000005    1    3    3    0    0  0.46884493387E+02 -0.65996948578E+02  0.16446465944E+04  0.16466381429E+04  0.10000000000E+01 0.  0.
    9000005    1    3    3    0    0 -0.34868837246E+02 -0.26709820367E+02  0.20896184400E+03  0.21353056588E+03  0.10000000000E+01 0.  0.
<mgrwt>
<rscale>  0 0.14906748E+03</rscale>
<asrwt>0</asrwt>
<pdfrwt beam="1">  1        2 0.55324228E+00 0.15608774E+03</pdfrwt>
<pdfrwt beam="2">  1       -2 0.87748337E-03 0.15608774E+03</pdfrwt>
<totfact> 0.23028989E+03</totfact>
</mgrwt>
</event>
<event>
 8    2  0.8128359E-004  0.1282540E+03  0.7818608E-02  0.1244942E+00
         -2   -1    0    0    0  501 -0.00000000000E+00  0.00000000000E+00  0.52658963570E+01  0.52658969744E+01  0.25500000000E-02 0.  1.
          2   -1    0    0  501    0  0.00000000000E+00 -0.00000000000E+00 -0.25426079343E+04  0.25426079343E+04  0.25500000000E-02 0. -1.
         25    2    1    2    0    0  0.14975582508E+02 -0.24501877087E+02 -0.17837779096E+04  0.17883827095E+04  0.12499789934E+03 0.  0.
         23    2    1    2    0    0 -0.14975582508E+02  0.24501877087E+02 -0.75356412837E+03  0.75949112180E+03  0.90240004800E+02 0.  0.
        -11    1    4    4    0    0 -0.15385926306E+02  0.36141949951E+02 -0.12968737829E+03  0.13550565805E+03  0.51100000000E-03 0.  1.
         11    1    4    4    0    0  0.41034379804E+00 -0.11640072864E+02 -0.62387675008E+03  0.62398546375E+03  0.51100000000E-03 0. -1.
    9000005    1    3    3    0    0  0.49366557189E+02 -0.66947736672E+01 -0.15894483924E+04  0.15902292505E+04  0.10000000000E+01 0.  0.
    9000005    1    3    3    0    0 -0.34390974681E+02 -0.17807103420E+02 -0.19432951720E+03  0.19815345904E+03  0.10000000000E+01 0.  0.
<mgrwt>
<rscale>  0 0.11888835E+03</rscale>
<asrwt>0</asrwt>
<pdfrwt beam="2">  1        2 0.39116947E+00 0.12825399E+03</pdfrwt>
<pdfrwt beam="1">  1       -2 0.81013998E-03 0.12825399E+03</pdfrwt>
<totfact> 0.10861226E+04</totfact>
</mgrwt>
</event>
<event>
 8    2  0.8128359E-004  0.1250825E+03  0.7818608E-02  0.1248075E+00
         -2   -1    0    0    0  501 -0.00000000000E+00  0.00000000000E+00  0.32974488221E+03  0.32974488222E+03  0.25500000000E-02 0.  1.
          2   -1    0    0  501    0  0.00000000000E+00 -0.00000000000E+00 -0.46790739785E+02  0.46790739855E+02  0.25500000000E-02 0. -1.
         25    2    1    2    0    0 -0.43193645377E+01  0.83243028320E-01  0.24175781158E+03  0.27219934145E+03  0.12500791250E+03 0.  0.
         23    2    1    2    0    0  0.43193645377E+01 -0.83243028320E-01  0.41196330844E+02  0.10433628062E+03  0.95761463749E+02 0.  0.
        -11    1    4    4    0    0 -0.26446794636E+02  0.38366534466E+02  0.19058702966E+02  0.50345387797E+02  0.51100000000E-03 0. -1.
         11    1    4    4    0    0  0.30766159173E+02 -0.38449777494E+02  0.22137627878E+02  0.53990892824E+02  0.51100000000E-03 0.  1.
    9000005    1    3    3    0    0  0.10291945060E+02  0.81299580759E+01 -0.12051925239E+02  0.17840102393E+02  0.10000000000E+01 0.  0.
    9000005    1    3    3    0    0 -0.14611309597E+02 -0.80467150476E+01  0.25380973682E+03  0.25435923906E+03  0.10000000000E+01 0.  0.
<mgrwt>
<rscale>  0 0.11703226E+03</rscale>
<asrwt>0</asrwt>
<pdfrwt beam="2">  1        2 0.71985754E-02 0.12508254E+03</pdfrwt>
<pdfrwt beam="1">  1       -2 0.50729982E-01 0.12508254E+03</pdfrwt>
<totfact> 0.34536006E+03</totfact>
</mgrwt>
</event>
<event>
 8    2  0.8128359E-004  0.1462899E+03  0.7818608E-02  0.1215354E+00
          2   -1    0    0  501    0  0.00000000000E+00  0.00000000000E+00  0.49289631894E+02  0.49289631960E+02  0.25500000000E-02 0. -1.
         -2   -1    0    0    0  501 -0.00000000000E+00 -0.00000000000E+00 -0.39573739277E+03  0.39573739278E+03  0.25500000000E-02 0.  1.
         25    2    1    2    0    0  0.67140411411E+02  0.35632842749E+02 -0.26272958916E+03  0.30071175572E+03  0.12499275452E+03 0.  0.
         23    2    1    2    0    0 -0.67140411411E+02 -0.35632842749E+02 -0.83718171724E+02  0.14431526903E+03  0.89669561559E+02 0.  0.
        -11    1    4    4    0    0 -0.16263548645E+02 -0.43859928708E+02 -0.79963387905E+02  0.92640918423E+02  0.51100000000E-03 0.  1.
         11    1    4    4    0    0 -0.50876862767E+02  0.82270859589E+01 -0.37547838191E+01  0.51674350602E+02  0.51100000000E-03 0. -1.
    9000005    1    3    3    0    0  0.74090508720E+02 -0.81949102751E+00 -0.25110678095E+03  0.26181231921E+03  0.10000000000E+01 0.  0.
    9000005    1    3    3    0    0 -0.69500973088E+01  0.36452333777E+02 -0.11622808204E+02  0.38899436512E+02  0.10000000000E+01 0.  0.
<mgrwt>
<rscale>  0 0.13850548E+03</rscale>
<asrwt>0</asrwt>
<pdfrwt beam="1">  1        2 0.75830206E-02 0.14628986E+03</pdfrwt>
<pdfrwt beam="2">  1       -2 0.60882674E-01 0.14628986E+03</pdfrwt>
<totfact> 0.22583625E+03</totfact>
</mgrwt>
</event>
<event>
 8    2  0.8128359E-004  0.1528027E+03  0.7818608E-02  0.1205756E+00
         -2   -1    0    0    0  501 -0.00000000000E+00  0.00000000000E+00  0.60909625737E+02  0.60909625791E+02  0.25500000000E-02 0.  1.
          2   -1    0    0  501    0  0.00000000000E+00 -0.00000000000E+00 -0.32924580904E+03  0.32924580905E+03  0.25500000000E-02 0. -1.
         25    2    1    2    0    0  0.12664758649E+02 -0.86969512298E+02 -0.17825691342E+03  0.23478541491E+03  0.12499828675E+03 0.  0.
         23    2    1    2    0    0 -0.12664758649E+02  0.86969512298E+02 -0.90079269880E+02  0.15537001993E+03  0.91112436309E+02 0.  0.
        -11    1    4    4    0    0 -0.24335754329E+01  0.48387067589E+02  0.83432606997E+01  0.49161373034E+02  0.51100000000E-03 0.  1.
         11    1    4    4    0    0 -0.10231183216E+02  0.38582444709E+02 -0.98422530579E+02  0.10620864690E+03  0.51100000000E-03 0. -1.
    9000005    1    3    3    0    0 -0.44680130638E+02 -0.23447547857E+02 -0.18882040094E+02  0.53885369187E+02  0.10000000000E+01 0.  0.
    9000005    1    3    3    0    0  0.57344889286E+02 -0.63521964441E+02 -0.15937487333E+03  0.18090004572E+03  0.10000000000E+01 0.  0.
<mgrwt>
<rscale>  0 0.14578067E+03</rscale>
<asrwt>0</asrwt>
<pdfrwt beam="2">  1        2 0.50653200E-01 0.15280270E+03</pdfrwt>
<pdfrwt beam="1">  1       -2 0.93707119E-02 0.15280270E+03</pdfrwt>
<totfact> 0.69879212E+03</totfact>
</mgrwt>
</event>
<event>
 8    2  0.8128359E-004  0.1266329E+03  0.7818608E-02  0.1247439E+00
         -2   -1    0    0    0  501 -0.00000000000E+00  0.00000000000E+00  0.50306886951E+02  0.50306887016E+02  0.25500000000E-02 0.  1.
          2   -1    0    0  501    0  0.00000000000E+00 -0.00000000000E+00 -0.27233509474E+03  0.27233509475E+03  0.25500000000E-02 0. -1.
         25    2    1    2    0    0  0.28517457618E+00  0.20264128191E+02 -0.71557598338E+02  0.14545231214E+03  0.12500067604E+03 0.  0.
         23    2    1    2    0    0 -0.28517457618E+00 -0.20264128191E+02 -0.15047060945E+03  0.17718966963E+03  0.91345818172E+02 0.  0.
        -11    1    4    4    0    0 -0.34069993957E+02 -0.14612630377E+02 -0.19646996035E+02  0.41955904331E+02  0.51100000000E-03 0.  1.
         11    1    4    4    0    0  0.33784819381E+02 -0.56514978141E+01 -0.13082361342E+03  0.13523376530E+03  0.51100000000E-03 0. -1.
    9000005    1    3    3    0    0 -0.61930095713E+01  0.18011047893E+02  0.34365236760E+02  0.39302935149E+02  0.10000000000E+01 0.  0.
    9000005    1    3    3    0    0  0.64781841475E+01  0.22530802982E+01 -0.10592283510E+03  0.10614937699E+03  0.10000000000E+01 0.  0.
<mgrwt>
<rscale>  0 0.11740605E+03</rscale>
<asrwt>0</asrwt>
<pdfrwt beam="2">  1        2 0.41897706E-01 0.12663288E+03</pdfrwt>
<pdfrwt beam="1">  1       -2 0.77395213E-02 0.12663288E+03</pdfrwt>
<totfact> 0.11347421E+04</totfact>
</mgrwt>
</event>
<event>
 8    2  0.8128359E-004  0.1445973E+03  0.7818608E-02  0.1217816E+00
          2   -1    0    0  501    0  0.00000000000E+00  0.00000000000E+00  0.10391132141E+03  0.10391132144E+03  0.25500000000E-02 0. -1.
         -2   -1    0    0    0  501 -0.00000000000E+00 -0.00000000000E+00 -0.18057755944E+03  0.18057755945E+03  0.25500000000E-02 0.  1.
         25    2    1    2    0    0  0.56958081450E+02 -0.45173257243E+02  0.21437214187E+01  0.14461323459E+03  0.12499418332E+03 0.  0.
         23    2    1    2    0    0 -0.56958081450E+02  0.45173257243E+02 -0.78809959447E+02  0.13987564631E+03  0.89829508009E+02 0.  0.
        -11    1    4    4    0    0 -0.38724471493E+02  0.60572848885E+02 -0.17368548864E+02  0.73961619806E+02  0.51100000000E-03 0. -1.
         11    1    4    4    0    0 -0.18233609957E+02 -0.15399591642E+02 -0.61441410583E+02  0.65914026500E+02  0.51100000000E-03 0.  1.
    9000005    1    3    3    0    0  0.32698870137E+02 -0.81626309096E+02 -0.27017547251E+02  0.91994664543E+02  0.10000000000E+01 0.  0.
    9000005    1    3    3    0    0  0.24259211313E+02  0.36453051853E+02  0.29161268669E+02  0.52618570043E+02  0.10000000000E+01 0.  0.
<mgrwt>
<rscale>  0 0.13671697E+03</rscale>
<asrwt>0</asrwt>
<pdfrwt beam="1">  1        2 0.15986357E-01 0.14459734E+03</pdfrwt>
<pdfrwt beam="2">  1       -2 0.27781163E-01 0.14459734E+03</pdfrwt>
<totfact> 0.40805221E+03</totfact>
</mgrwt>
</event>
<event>
 8    2  0.8128359E-004  0.1276658E+03  0.7818608E-02  0.1245715E+00
          2   -1    0    0  501    0  0.00000000000E+00  0.00000000000E+00  0.15980359700E+04  0.15980359700E+04  0.25500000000E-02 0. -1.
         -2   -1    0    0    0  501 -0.00000000000E+00 -0.00000000000E+00 -0.77954513797E+01  0.77954517968E+01  0.25500000000E-02 0.  1.
         25    2    1    2    0    0 -0.14280468068E+02 -0.21701442056E+02  0.83650641469E+03  0.84619237794E+03  0.12499469713E+03 0.  0.
         23    2    1    2    0    0  0.14280468068E+02  0.21701442056E+02  0.75373410394E+03  0.75963904386E+03  0.90892756428E+02 0.  0.
        -11    1    4    4    0    0 -0.34056883450E+02  0.14531201714E+02  0.17660646436E+03  0.18044630887E+03  0.51100000000E-03 0.  1.
         11    1    4    4    0    0  0.48337351518E+02  0.71702403414E+01  0.57712763958E+03  0.57919273499E+03  0.51100000000E-03 0. -1.
    9000005    1    3    3    0    0  0.35861175771E+02 -0.48306461019E+02  0.25878224831E+03  0.26568550985E+03  0.10000000000E+01 0.  0.
    9000005    1    3    3    0    0 -0.50141643839E+02  0.26605018963E+02  0.57772416637E+03  0.58050686808E+03  0.10000000000E+01 0.  0.
<mgrwt>
<rscale>  0 0.11842711E+03</rscale>
<asrwt>0</asrwt>
<pdfrwt beam="1">  1        2 0.24585207E+00 0.12766581E+03</pdfrwt>
<pdfrwt beam="2">  1       -2 0.11992984E-02 0.12766581E+03</pdfrwt>
<totfact> 0.19063095E+04</totfact>
</mgrwt>
</event>
<event>
 8    2  0.8128359E-004  0.1870838E+03  0.7818608E-02  0.1166080E+00
         -2   -1    0    0    0  501 -0.00000000000E+00  0.00000000000E+00  0.17728098650E+02  0.17728098833E+02  0.25500000000E-02 0. -1.
          2   -1    0    0  501    0  0.00000000000E+00 -0.00000000000E+00 -0.19092301066E+04  0.19092301066E+04  0.25500000000E-02 0.  1.
         25    2    1    2    0    0 -0.13735187306E+03 -0.22622840396E+02 -0.73240344758E+03  0.75592008140E+03  0.12499211771E+03 0.  0.
         23    2    1    2    0    0  0.13735187306E+03  0.22622840396E+02 -0.11590985604E+04  0.11710381241E+04  0.91888439744E+02 0.  0.
        -11    1    4    4    0    0  0.15840344513E+02 -0.29150084890E+02 -0.30294852578E+03  0.30475966471E+03  0.51100000000E-03 0.  1.
         11    1    4    4    0    0  0.12151152855E+03  0.51772925286E+02 -0.85615003462E+03  0.86627845935E+03  0.51100000000E-03 0. -1.
    9000005    1    3    3    0    0 -0.11481441443E+03 -0.69433355568E+02 -0.49232644023E+03  0.51028390566E+03  0.10000000000E+01 0.  0.
    9000005    1    3    3    0    0 -0.22537458633E+02  0.46810515172E+02 -0.24007700736E+03  0.24563617574E+03  0.10000000000E+01 0.  0.
<mgrwt>
<rscale>  0 0.18179144E+03</rscale>
<asrwt>0</asrwt>
<pdfrwt beam="2">  1        2 0.29372755E+00 0.18708383E+03</pdfrwt>
<pdfrwt beam="1">  1       -2 0.27274013E-02 0.18708383E+03</pdfrwt>
<totfact> 0.40413705E+03</totfact>
</mgrwt>
</event>
<event>
 8    2  0.8128359E-004  0.1592618E+03  0.7818608E-02  0.1197838E+00
         -2   -1    0    0    0  501 -0.00000000000E+00  0.00000000000E+00  0.23803146359E+03  0.23803146360E+03  0.25500000000E-02 0.  1.
          2   -1    0    0  501    0  0.00000000000E+00 -0.00000000000E+00 -0.11205221987E+03  0.11205221990E+03  0.25500000000E-02 0. -1.
         25    2    1    2    0    0  0.89820046092E+02 -0.40889727044E+02  0.14576980444E+03  0.21590078442E+03  0.12499880948E+03 0.  0.
         23    2    1    2    0    0 -0.89820046092E+02  0.40889727044E+02 -0.19790560726E+02  0.13418289908E+03  0.88734286805E+02 0.  0.
        -11    1    4    4    0    0 -0.65031894666E+02 -0.13263960454E+02 -0.31530359423E+02  0.73479545020E+02  0.51100000000E-03 0. -1.
         11    1    4    4    0    0 -0.24788151426E+02  0.54153687498E+02  0.11739798697E+02  0.60703354063E+02  0.51100000000E-03 0.  1.
    9000005    1    3    3    0    0  0.31229255057E+02 -0.21237758301E+02  0.14928773240E+03  0.15399394727E+03  0.10000000000E+01 0.  0.
    9000005    1    3    3    0    0  0.58590791035E+02 -0.19651968743E+02 -0.35179279618E+01  0.61906837157E+02  0.10000000000E+01 0.  0.
<mgrwt>
<rscale>  0 0.15216473E+03</rscale>
<asrwt>0</asrwt>
<pdfrwt beam="2">  1        2 0.17238803E-01 0.15926177E+03</pdfrwt>
<pdfrwt beam="1">  1       -2 0.36620225E-01 0.15926177E+03</pdfrwt>
<totfact> 0.22719632E+03</totfact>
</mgrwt>
</event>
<event>
 8    2  0.8128359E-004  0.1396804E+03  0.7818608E-02  0.1226033E+00
         -2   -1    0    0    0  501 -0.00000000000E+00  0.00000000000E+00  0.21660804729E+02  0.21660804879E+02  0.25500000000E-02 0.  1.
          2   -1    0    0  501    0  0.00000000000E+00 -0.00000000000E+00 -0.71109027669E+03  0.71109027670E+03  0.25500000000E-02 0. -1.
         25    2    1    2    0    0  0.34878124444E+02 -0.51661119819E+02 -0.36360697443E+03  0.38951334396E+03  0.12500103361E+03 0.  0.
         23    2    1    2    0    0 -0.34878124444E+02  0.51661119819E+02 -0.32582249753E+03  0.34323773761E+03  0.88127690075E+02 0.  0.
        -11    1    4    4    0    0 -0.23207434565E+02 -0.22489270273E+02 -0.82644673044E+02  0.88738347287E+02  0.51100000000E-03 0.  1.
         11    1    4    4    0    0 -0.11670689880E+02  0.74150390092E+02 -0.24317782449E+03  0.25449939032E+03  0.51100000000E-03 0. -1.
    9000005    1    3    3    0    0  0.15689551736E+02  0.25591286091E+02 -0.18347311593E+02  0.35195167284E+02  0.10000000000E+01 0.  0.
    9000005    1    3    3    0    0  0.19188572709E+02 -0.77252405911E+02 -0.34525966284E+03  0.35431817668E+03  0.10000000000E+01 0.  0.
<mgrwt>
<rscale>  0 0.13096370E+03</rscale>
<asrwt>0</asrwt>
<pdfrwt beam="2">  1        2 0.10939849E+00 0.13968040E+03</pdfrwt>
<pdfrwt beam="1">  1       -2 0.33324321E-02 0.13968040E+03</pdfrwt>
<totfact> 0.14202148E+04</totfact>
</mgrwt>
</event>
<event>
 8    2  0.8128359E-004  0.1459267E+03  0.7818608E-02  0.1213857E+00
          2   -1    0    0  501    0  0.00000000000E+00  0.00000000000E+00  0.87355827331E+02  0.87355827368E+02  0.25500000000E-02 0. -1.
         -2   -1    0    0    0  501 -0.00000000000E+00 -0.00000000000E+00 -0.21156233785E+03  0.21156233787E+03  0.25500000000E-02 0.  1.
         25    2    1    2    0    0 -0.46567789816E+02 -0.59193352392E+02 -0.91976643536E+02  0.17249436612E+03  0.12498876498E+03 0.  0.
         23    2    1    2    0    0  0.46567789816E+02  0.59193352392E+02 -0.32229866986E+02  0.12642379912E+03  0.96290189746E+02 0.  0.
        -11    1    4    4    0    0  0.94762895349E+01  0.71592286118E+02  0.50502095317E+01  0.72393094364E+02  0.51100000000E-03 0. -1.
         11    1    4    4    0    0  0.37091500281E+02 -0.12398933726E+02 -0.37280076518E+02  0.54030704753E+02  0.51100000000E-03 0.  1.
    9000005    1    3    3    0    0 -0.57405315258E+02  0.19830163983E+02 -0.63292843770E+02  0.87724510234E+02  0.10000000000E+01 0.  0.
    9000005    1    3    3    0    0  0.10837525442E+02 -0.79023516375E+02 -0.28683799766E+02  0.84769855886E+02  0.10000000000E+01 0.  0.
<mgrwt>
<rscale>  0 0.13960797E+03</rscale>
<asrwt>0</asrwt>
<pdfrwt beam="1">  1        2 0.13439358E-01 0.14592671E+03</pdfrwt>
<pdfrwt beam="2">  1       -2 0.32548052E-01 0.14592671E+03</pdfrwt>
<totfact> 0.37643781E+03</totfact>
</mgrwt>
</event>
<event>
 8    2  0.8128359E-004  0.1284410E+03  0.7818608E-02  0.1246036E+00
          2   -1    0    0  501    0  0.00000000000E+00  0.00000000000E+00  0.36298788991E+04  0.36298788991E+04  0.25500000000E-02 0. -1.
         -2   -1    0    0    0  501 -0.00000000000E+00 -0.00000000000E+00 -0.37863079718E+01  0.37863088305E+01  0.25500000000E-02 0.  1.
         25    2    1    2    0    0  0.16098725099E+02  0.24766180596E+02  0.14699470891E+04  0.14755478725E+04  0.12499818644E+03 0.  0.
         23    2    1    2    0    0 -0.16098725099E+02 -0.24766180596E+02  0.21561455020E+04  0.21581173354E+04  0.87375482568E+02 0.  0.
        -11    1    4    4    0    0 -0.39433266356E+02  0.15287392346E+02  0.73478581137E+03  0.73600195343E+03  0.51100000000E-03 0.  1.
         11    1    4    4    0    0  0.23334541257E+02 -0.40053572941E+02  0.14213596906E+04  0.14221153820E+04  0.51100000000E-03 0. -1.
    9000005    1    3    3    0    0 -0.23208953131E+02 -0.38781218168E+02  0.83417544486E+03  0.83539949198E+03  0.10000000000E+01 0.  0.
    9000005    1    3    3    0    0  0.39307678230E+02  0.63547398764E+02  0.63577164429E+03  0.64014838056E+03  0.10000000000E+01 0.  0.
<mgrwt>
<rscale>  0 0.11823601E+03</rscale>
<asrwt>0</asrwt>
<pdfrwt beam="1">  1        2 0.55843999E+00 0.12844096E+03</pdfrwt>
<pdfrwt beam="2">  1       -2 0.58251203E-03 0.12844096E+03</pdfrwt>
<totfact> 0.39404729E+03</totfact>
</mgrwt>
</event>
<event>
 8    2  0.8128359E-004  0.1271874E+03  0.7818608E-02  0.1247232E+00
          2   -1    0    0  501    0  0.00000000000E+00  0.00000000000E+00  0.33797227751E+03  0.33797227752E+03  0.25500000000E-02 0. -1.
         -2   -1    0    0    0  501 -0.00000000000E+00 -0.00000000000E+00 -0.42794668863E+02  0.42794668939E+02  0.25500000000E-02 0.  1.
         25    2    1    2    0    0  0.99157630824E+01 -0.21307529601E+02  0.90610516758E+02  0.15616308813E+03  0.12499724466E+03 0.  0.
         23    2    1    2    0    0 -0.99157630824E+01  0.21307529601E+02  0.20456709189E+03  0.22460385833E+03  0.89704319382E+02 0.  0.
        -11    1    4    4    0    0 -0.30737405621E+02 -0.60934207057E+01  0.20726846144E+02  0.37570201377E+02  0.51100000000E-03 0.  1.
         11    1    4    4    0    0  0.20821642538E+02  0.27400950306E+02  0.18384024575E+03  0.18703365695E+03  0.51100000000E-03 0. -1.
    9000005    1    3    3    0    0  0.76626192741E+01  0.25964040951E+02 -0.21425031293E+02  0.34538082207E+02  0.10000000000E+01 0.  0.
    9000005    1    3    3    0    0  0.22531438083E+01 -0.47271570552E+02  0.11203554805E+03  0.12162500593E+03  0.10000000000E+01 0.  0.
<mgrwt>
<rscale>  0 0.11752775E+03</rscale>
<asrwt>0</asrwt>
<pdfrwt beam="1">  1        2 0.51995734E-01 0.12718744E+03</pdfrwt>
<pdfrwt beam="2">  1       -2 0.65837953E-02 0.12718744E+03</pdfrwt>
<totfact> 0.11570294E+04</totfact>
</mgrwt>
</event>
<event>
 8    2  0.8128359E-004  0.1453915E+03  0.7818608E-02  0.1216876E+00
         -2   -1    0    0    0  501 -0.00000000000E+00  0.00000000000E+00  0.10211594131E+02  0.10211594449E+02  0.25500000000E-02 0. -1.
          2   -1    0    0  501    0  0.00000000000E+00 -0.00000000000E+00 -0.19700234379E+04  0.19700234379E+04  0.25500000000E-02 0.  1.
         25    2    1    2    0    0  0.36628929403E+02  0.64588891715E+02 -0.14565282707E+04  0.14637668139E+04  0.12500111414E+03 0.  0.
         23    2    1    2    0    0 -0.36628929403E+02 -0.64588891715E+02 -0.50328357304E+03  0.51646821848E+03  0.89059881049E+02 0.  0.
        -11    1    4    4    0    0  0.29745336342E+02 -0.19887124943E+02 -0.14368710290E+03  0.14807520493E+03  0.51100000000E-03 0.  1.
         11    1    4    4    0    0 -0.66374265745E+02 -0.44701766772E+02 -0.35959647013E+03  0.36839301356E+03  0.51100000000E-03 0. -1.
    9000005    1    3    3    0    0  0.59526632499E+02  0.35866494025E+02 -0.36143346578E+03  0.36805566910E+03  0.10000000000E+01 0.  0.
    9000005    1    3    3    0    0 -0.22897703096E+02  0.28722397690E+02 -0.10950948049E+04  0.10957111448E+04  0.10000000000E+01 0.  0.
<mgrwt>
<rscale>  0 0.13739616E+03</rscale>
<asrwt>0</asrwt>
<pdfrwt beam="2">  1        2 0.30308023E+00 0.14539148E+03</pdfrwt>
<pdfrwt beam="1">  1       -2 0.15710161E-02 0.14539148E+03</pdfrwt>
<totfact> 0.83832553E+03</totfact>
</mgrwt>
</event>
<event>
 8    2  0.8128359E-004  0.1323853E+03  0.7818608E-02  0.1237395E+00
         -2   -1    0    0    0  501 -0.00000000000E+00  0.00000000000E+00  0.55812885178E+02  0.55812885236E+02  0.25500000000E-02 0.  1.
          2   -1    0    0  501    0  0.00000000000E+00 -0.00000000000E+00 -0.33012688511E+03  0.33012688512E+03  0.25500000000E-02 0. -1.
         25    2    1    2    0    0  0.23674462554E+02  0.36571266162E+02 -0.24970212666E+03  0.28262522435E+03  0.12501171024E+03 0.  0.
         23    2    1    2    0    0 -0.23674462554E+02 -0.36571266162E+02 -0.24611873272E+02  0.10331454600E+03  0.90389232895E+02 0.  0.
        -11    1    4    4    0    0 -0.15334128710E+00 -0.60306405020E+02 -0.33161258212E+02  0.68822634696E+02  0.51100000000E-03 0. -1.
         11    1    4    4    0    0 -0.23521121267E+02  0.23735138859E+02  0.85493849397E+01  0.34491911304E+02  0.51100000000E-03 0.  1.
    9000005    1    3    3    0    0 -0.25882138321E+02  0.67775505570E+02 -0.15724181161E+03  0.17317445411E+03  0.10000000000E+01 0.  0.
    9000005    1    3    3    0    0  0.49556600876E+02 -0.31204239408E+02 -0.92460315050E+02  0.10945077024E+03  0.10000000000E+01 0.  0.
<mgrwt>
<rscale>  0 0.12352320E+03</rscale>
<asrwt>0</asrwt>
<pdfrwt beam="2">  1        2 0.50788751E-01 0.13238529E+03</pdfrwt>
<pdfrwt beam="1">  1       -2 0.85865979E-02 0.13238529E+03</pdfrwt>
<totfact> 0.79115120E+03</totfact>
</mgrwt>
</event>
<event>
 8    2  0.8128359E-004  0.1333614E+03  0.7818608E-02  0.1234785E+00
         -2   -1    0    0    0  501 -0.00000000000E+00  0.00000000000E+00  0.35901492711E+02  0.35901492802E+02  0.25500000000E-02 0.  1.
          2   -1    0    0  501    0  0.00000000000E+00 -0.00000000000E+00 -0.43948485412E+03  0.43948485412E+03  0.25500000000E-02 0. -1.
         25    2    1    2    0    0  0.43989500646E+02 -0.15019019688E+02 -0.30295044107E+03  0.33100487170E+03  0.12499843289E+03 0.  0.
         23    2    1    2    0    0 -0.43989500646E+02  0.15019019688E+02 -0.10063292034E+03  0.14438147523E+03  0.92511505306E+02 0.  0.
        -11    1    4    4    0    0 -0.22118302417E+02  0.42751271106E+02 -0.12939762104E+02  0.49843032879E+02  0.51100000000E-03 0.  1.
         11    1    4    4    0    0 -0.21871198228E+02 -0.27732251418E+02 -0.87693158233E+02  0.94538442349E+02  0.51100000000E-03 0. -1.
    9000005    1    3    3    0    0 -0.13371592497E+02  0.12270427995E+01  0.71351756472E+01  0.15238630236E+02  0.10000000000E+01 0.  0.
    9000005    1    3    3    0    0  0.57361093143E+02 -0.16246062487E+02 -0.31008561672E+03  0.31576624146E+03  0.10000000000E+01 0.  0.
<mgrwt>
<rscale>  0 0.12518202E+03</rscale>
<asrwt>0</asrwt>
<pdfrwt beam="2">  1        2 0.67613051E-01 0.13336137E+03</pdfrwt>
<pdfrwt beam="1">  1       -2 0.55233069E-02 0.13336137E+03</pdfrwt>
<totfact> 0.11452967E+04</totfact>
</mgrwt>
</event>
<event>
 8    2  0.8128359E-004  0.1682606E+03  0.7818608E-02  0.1186639E+00
          2   -1    0    0  501    0  0.00000000000E+00  0.00000000000E+00  0.66616102190E+03  0.66616102191E+03  0.25500000000E-02 0. -1.
         -2   -1    0    0    0  501 -0.00000000000E+00 -0.00000000000E+00 -0.36659084534E+02  0.36659084623E+02  0.25500000000E-02 0.  1.
         25    2    1    2    0    0  0.42357924428E+02  0.10437870236E+03  0.32419941607E+03  0.36526279241E+03  0.12499015509E+03 0.  0.
         23    2    1    2    0    0 -0.42357924428E+02 -0.10437870236E+03  0.30530252129E+03  0.33755731412E+03  0.89700632880E+02 0.  0.
        -11    1    4    4    0    0 -0.63117203342E+01 -0.96998042733E+02  0.26834216422E+03  0.28540493200E+03  0.51100000000E-03 0.  1.
         11    1    4    4    0    0 -0.36046204093E+02 -0.73806596260E+01  0.36960357072E+02  0.52152382124E+02  0.51100000000E-03 0. -1.
    9000005    1    3    3    0    0  0.73439645729E+02  0.22456069630E+02  0.19058178779E+03  0.20547524051E+03  0.10000000000E+01 0.  0.
    9000005    1    3    3    0    0 -0.31081721302E+02  0.81922632729E+02  0.13361762829E+03  0.15978755190E+03  0.10000000000E+01 0.  0.
<mgrwt>
<rscale>  0 0.16183622E+03</rscale>
<asrwt>0</asrwt>
<pdfrwt beam="1">  1        2 0.10248631E+00 0.16826065E+03</pdfrwt>
<pdfrwt beam="2">  1       -2 0.56398591E-02 0.16826065E+03</pdfrwt>
<totfact> 0.70625678E+03</totfact>
</mgrwt>
</event>
<event>
 8    2  0.8128359E-004  0.2230028E+03  0.7818608E-02  0.1134592E+00
          2   -1    0    0  501    0  0.00000000000E+00  0.00000000000E+00  0.84016730389E+03  0.84016730389E+03  0.25500000000E-02 0. -1.
         -2   -1    0    0    0  501 -0.00000000000E+00 -0.00000000000E+00 -0.57353700863E+02  0.57353700919E+02  0.25500000000E-02 0.  1.
         25    2    1    2    0    0 -0.18093894468E+03 -0.36960021279E+02  0.31748346274E+03  0.38797680989E+03  0.12500124411E+03 0.  0.
         23    2    1    2    0    0  0.18093894468E+03  0.36960021279E+02  0.46533014029E+03  0.50954419492E+03  0.94858854288E+02 0.  0.
        -11    1    4    4    0    0  0.49688389293E+02 -0.18557751847E+01  0.24627863253E+03  0.25124797466E+03  0.51100000000E-03 0. -1.
         11    1    4    4    0    0  0.13125055539E+03  0.38815796463E+02  0.21905150776E+03  0.25829622026E+03  0.51100000000E-03 0.  1.
    9000005    1    3    3    0    0 -0.14865392959E+03 -0.66483701835E+02  0.29900545347E+03  0.34047516003E+03  0.10000000000E+01 0.  0.
    9000005    1    3    3    0    0 -0.32285015097E+02  0.29523680557E+02  0.18478009263E+02  0.47501649863E+02  0.10000000000E+01 0.  0.
<mgrwt>
<rscale>  0 0.21905158E+03</rscale>
<asrwt>0</asrwt>
<pdfrwt beam="1">  1        2 0.12925651E+00 0.22300282E+03</pdfrwt>
<pdfrwt beam="2">  1       -2 0.88236465E-02 0.22300282E+03</pdfrwt>
<totfact> 0.26825353E+03</totfact>
</mgrwt>
</event>
<event>
 8    2  0.8128359E-004  0.1712042E+03  0.7818608E-02  0.1183041E+00
         -2   -1    0    0    0  501 -0.00000000000E+00  0.00000000000E+00  0.12674954796E+03  0.12674954799E+03  0.25500000000E-02 0.  1.
          2   -1    0    0  501    0  0.00000000000E+00 -0.00000000000E+00 -0.29683247315E+03  0.29683247316E+03  0.25500000000E-02 0. -1.
         25    2    1    2    0    0 -0.49251940397E+02  0.10612159768E+03  0.30847084726E+02  0.17396095398E+03  0.12499329481E+03 0.  0.
         23    2    1    2    0    0  0.49251940397E+02 -0.10612159768E+03 -0.20093000991E+03  0.24962106716E+03  0.90830948256E+02 0.  0.
        -11    1    4    4    0    0  0.28344761919E+01 -0.15029197828E+02  0.78217172688E+01  0.17178192685E+02  0.51100000000E-03 0.  1.
         11    1    4    4    0    0  0.46417464205E+02 -0.91092399848E+02 -0.20875172718E+03  0.23244287447E+03  0.51100000000E-03 0. -1.
    9000005    1    3    3    0    0 -0.31405617168E+02  0.42393806630E+02 -0.47779009589E+02  0.71185541984E+02  0.10000000000E+01 0.  0.
    9000005    1    3    3    0    0 -0.17846323228E+02  0.63727791046E+02  0.78626094314E+02  0.10277541200E+03  0.10000000000E+01 0.  0.
<mgrwt>
<rscale>  0 0.16511439E+03</rscale>
<asrwt>0</asrwt>
<pdfrwt beam="2">  1        2 0.45666534E-01 0.17120418E+03</pdfrwt>
<pdfrwt beam="1">  1       -2 0.19499931E-01 0.17120418E+03</pdfrwt>
<totfact> 0.23847440E+03</totfact>
</mgrwt>
</event>
<event>
 8    2  0.8128359E-004  0.1255173E+03  0.7818608E-02  0.1249798E+00
         -2   -1    0    0    0  501 -0.00000000000E+00  0.00000000000E+00  0.65182806558E+01  0.65182811546E+01  0.25500000000E-02 0.  1.
          2   -1    0    0  501    0  0.00000000000E+00 -0.00000000000E+00 -0.23877405223E+04  0.23877405223E+04  0.25500000000E-02 0. -1.
         25    2    1    2    0    0  0.72607143652E+01 -0.86821885010E+01 -0.19152654210E+04  0.19193739117E+04  0.12500592738E+03 0.  0.
         23    2    1    2    0    0 -0.72607143652E+01  0.86821885010E+01 -0.46595682069E+03  0.47488489175E+03  0.90949454592E+02 0.  0.
        -11    1    4    4    0    0 -0.13929336317E+02 -0.36637370412E+02 -0.30593849243E+03  0.30843910983E+03  0.51100000000E-03 0. -1.
         11    1    4    4    0    0  0.66686219513E+01  0.45319558913E+02 -0.16001832826E+03  0.16644578191E+03  0.51100000000E-03 0.  1.
    9000005    1    3    3    0    0  0.65336556359E+02 -0.12927409421E+02 -0.11197604809E+04  0.11217399512E+04  0.10000000000E+01 0.  0.
    9000005    1    3    3    0    0 -0.58075841994E+02  0.42452209199E+01 -0.79550494005E+03  0.79763396052E+03  0.10000000000E+01 0.  0.
<mgrwt>
<rscale>  0 0.11602774E+03</rscale>
<asrwt>0</asrwt>
<pdfrwt beam="2">  1        2 0.36734400E+00 0.12551725E+03</pdfrwt>
<pdfrwt beam="1">  1       -2 0.10028143E-02 0.12551725E+03</pdfrwt>
<totfact> 0.96756286E+03</totfact>
</mgrwt>
</event>
<event>
 8    2  0.8128359E-004  0.1255872E+03  0.7818608E-02  0.1248327E+00
         -2   -1    0    0    0  501 -0.00000000000E+00  0.00000000000E+00  0.11469632945E+03  0.11469632948E+03  0.25500000000E-02 0. -1.
          2   -1    0    0  501    0  0.00000000000E+00 -0.00000000000E+00 -0.10907352841E+03  0.10907352844E+03  0.25500000000E-02 0.  1.
         25    2    1    2    0    0  0.95769738804E+01 -0.74795890357E+01  0.23745569763E+02  0.12781230278E+03  0.12499787989E+03 0.  0.
         23    2    1    2    0    0 -0.95769738804E+01  0.74795890357E+01 -0.18122768724E+02  0.95957555138E+02  0.93443859943E+02 0.  0.
        -11    1    4    4    0    0 -0.96928202077E+01 -0.15499179760E+02  0.34217863818E+02  0.38794813331E+02  0.51100000000E-03 0. -1.
         11    1    4    4    0    0  0.11584632737E+00  0.22978768796E+02 -0.52340632542E+02  0.57162741807E+02  0.51100000000E-03 0.  1.
    9000005    1    3    3    0    0  0.49695548564E+02 -0.47484666288E+02  0.96041810643E+01  0.69409519329E+02  0.10000000000E+01 0.  0.
    9000005    1    3    3    0    0 -0.40118574684E+02  0.40005077252E+02  0.14141388699E+02  0.58402783452E+02  0.10000000000E+01 0.  0.
<mgrwt>
<rscale>  0 0.11688451E+03</rscale>
<asrwt>0</asrwt>
<pdfrwt beam="2">  1        2 0.16780543E-01 0.12558715E+03</pdfrwt>
<pdfrwt beam="1">  1       -2 0.17645589E-01 0.12558715E+03</pdfrwt>
<totfact> 0.83271336E+03</totfact>
</mgrwt>
</event>
<event>
 8    2  0.8128359E-004  0.1823966E+03  0.7818608E-02  0.1170972E+00
          2   -1    0    0  501    0  0.00000000000E+00  0.00000000000E+00  0.10554266047E+04  0.10554266047E+04  0.25500000000E-02 0. -1.
         -2   -1    0    0    0  501 -0.00000000000E+00 -0.00000000000E+00 -0.31847745342E+02  0.31847745445E+02  0.25500000000E-02 0.  1.
         25    2    1    2    0    0  0.13013617848E+03 -0.26589072814E+02  0.73062590992E+03  0.75304896245E+03  0.12500446339E+03 0.  0.
         23    2    1    2    0    0 -0.13013617848E+03  0.26589072814E+02  0.29295294942E+03  0.33422538768E+03  0.90789732078E+02 0.  0.
        -11    1    4    4    0    0 -0.35099200486E+02 -0.31041027168E+02  0.11788892776E+03  0.12685936517E+03  0.51100000000E-03 0. -1.
         11    1    4    4    0    0 -0.95036977991E+02  0.57630099982E+02  0.17506402166E+03  0.20736602250E+03  0.51100000000E-03 0.  1.
    9000005    1    3    3    0    0 -0.11566214017E+02 -0.12437235956E-02  0.40338214807E+01  0.12290200323E+02  0.10000000000E+01 0.  0.
    9000005    1    3    3    0    0  0.14170239249E+03 -0.26587829090E+02  0.72659208844E+03  0.74075876213E+03  0.10000000000E+01 0.  0.
<mgrwt>
<rscale>  0 0.17676405E+03</rscale>
<asrwt>0</asrwt>
<pdfrwt beam="1">  1        2 0.16237331E+00 0.18239660E+03</pdfrwt>
<pdfrwt beam="2">  1       -2 0.48996534E-02 0.18239660E+03</pdfrwt>
<totfact> 0.48441993E+03</totfact>
</mgrwt>
</event>
<event>
 8    2  0.8128359E-004  0.1311371E+03  0.7818608E-02  0.1238834E+00
          2   -1    0    0  501    0  0.00000000000E+00  0.00000000000E+00  0.46246154030E+02  0.46246154100E+02  0.25500000000E-02 0. -1.
         -2   -1    0    0    0  501 -0.00000000000E+00 -0.00000000000E+00 -0.29455533794E+03  0.29455533795E+03  0.25500000000E-02 0.  1.
         25    2    1    2    0    0 -0.37498748016E+02 -0.12797280286E+02 -0.16271817513E+03  0.20898362698E+03  0.12500810110E+03 0.  0.
         23    2    1    2    0    0  0.37498748016E+02  0.12797280286E+02 -0.85591008780E+02  0.13181786508E+03  0.92088013790E+02 0.  0.
        -11    1    4    4    0    0  0.64895933837E+02 -0.42657896775E+01 -0.41400255327E+02  0.77095138184E+02  0.51100000000E-03 0. -1.
         11    1    4    4    0    0 -0.27397185822E+02  0.17063069963E+02 -0.44190753453E+02  0.54722726892E+02  0.51100000000E-03 0.  1.
    9000005    1    3    3    0    0 -0.80505410747E+02 -0.19829022019E+02 -0.78642240424E+02  0.11427997748E+03  0.10000000000E+01 0.  0.
    9000005    1    3    3    0    0  0.43006662731E+02  0.70317417336E+01 -0.84075934710E+02  0.94703649499E+02  0.10000000000E+01 0.  0.
<mgrwt>
<rscale>  0 0.12262125E+03</rscale>
<asrwt>0</asrwt>
<pdfrwt beam="1">  1        2 0.71147931E-02 0.13113715E+03</pdfrwt>
<pdfrwt beam="2">  1       -2 0.45316205E-01 0.13113715E+03</pdfrwt>
<totfact> 0.43871019E+03</totfact>
</mgrwt>
</event>
<event>
 8    2  0.8128359E-004  0.1450800E+03  0.7818608E-02  0.1217603E+00
          2   -1    0    0  501    0  0.00000000000E+00  0.00000000000E+00  0.23335603758E+04  0.23335603758E+04  0.25500000000E-02 0. -1.
         -2   -1    0    0    0  501 -0.00000000000E+00 -0.00000000000E+00 -0.72850484057E+01  0.72850488519E+01  0.25500000000E-02 0.  1.
         25    2    1    2    0    0 -0.59863539638E+02  0.42840544388E+02  0.13861436350E+04  0.13937153153E+04  0.12501699000E+03 0.  0.
         23    2    1    2    0    0  0.59863539638E+02 -0.42840544388E+02  0.94013169243E+03  0.94713010933E+03  0.88254684124E+02 0.  0.
        -11    1    4    4    0    0  0.66825873365E+02  0.37979479272E+01  0.49419651154E+03  0.49870864618E+03  0.51100000000E-03 0.  1.
         11    1    4    4    0    0 -0.69623337275E+01 -0.46638492315E+02  0.44593518090E+03  0.44842146315E+03  0.51100000000E-03 0. -1.
    9000005    1    3    3    0    0 -0.89800500002E+02  0.59547942719E+02  0.11587820086E+04  0.11637812641E+04  0.10000000000E+01 0.  0.
    9000005    1    3    3    0    0  0.29936960365E+02 -0.16707398331E+02  0.22736162637E+03  0.22993405120E+03  0.10000000000E+01 0.  0.
<mgrwt>
<rscale>  0 0.13687043E+03</rscale>
<asrwt>0</asrwt>
<pdfrwt beam="1">  1        2 0.35900976E+00 0.14507999E+03</pdfrwt>
<pdfrwt beam="2">  1       -2 0.11207752E-02 0.14507999E+03</pdfrwt>
<totfact> 0.88383576E+03</totfact>
</mgrwt>
</event>
<event>
 8    2  0.8128359E-004  0.1305327E+03  0.7818608E-02  0.1240368E+00
          2   -1    0    0  501    0  0.00000000000E+00  0.00000000000E+00  0.71547836902E+03  0.71547836903E+03  0.25500000000E-02 0. -1.
         -2   -1    0    0    0  501 -0.00000000000E+00 -0.00000000000E+00 -0.22113971513E+02  0.22113971660E+02  0.25500000000E-02 0.  1.
         25    2    1    2    0    0  0.32969414266E+02  0.18086706900E+02  0.23559791974E+03  0.26934209175E+03  0.12499868542E+03 0.  0.
         23    2    1    2    0    0 -0.32969414266E+02 -0.18086706900E+02  0.45776647777E+03  0.46825024894E+03  0.91071599413E+02 0.  0.
        -11    1    4    4    0    0 -0.31700184004E+02 -0.31163443465E+02  0.45151959073E+03  0.45370254869E+03  0.51100000000E-03 0. -1.
         11    1    4    4    0    0 -0.12692302613E+01  0.13076736566E+02  0.62468870422E+01  0.14547700253E+02  0.51100000000E-03 0.  1.
    9000005    1    3    3    0    0  0.12215459789E+02 -0.52089840998E+02  0.68540890268E+02  0.86956441003E+02  0.10000000000E+01 0.  0.
    9000005    1    3    3    0    0  0.20753954476E+02  0.70176547898E+02  0.16705702947E+03  0.18238565074E+03  0.10000000000E+01 0.  0.
<mgrwt>
<rscale>  0 0.12166944E+03</rscale>
<asrwt>0</asrwt>
<pdfrwt beam="1">  1        2 0.11007360E+00 0.13053269E+03</pdfrwt>
<pdfrwt beam="2">  1       -2 0.34021494E-02 0.13053269E+03</pdfrwt>
<totfact> 0.13608399E+04</totfact>
</mgrwt>
</event>
<event>
 8    2  0.8128359E-004  0.1291716E+03  0.7818608E-02  0.1241861E+00
          2   -1    0    0  501    0  0.00000000000E+00  0.00000000000E+00  0.94349560644E+02  0.94349560679E+02  0.25500000000E-02 0. -1.
         -2   -1    0    0    0  501 -0.00000000000E+00 -0.00000000000E+00 -0.13753058776E+03  0.13753058779E+03  0.25500000000E-02 0.  1.
         25    2    1    2    0    0  0.21375968499E+02  0.24563718438E+02 -0.25356378804E+02  0.13163680873E+03  0.12499998069E+03 0.  0.
         23    2    1    2    0    0 -0.21375968499E+02 -0.24563718438E+02 -0.17824648314E+02  0.10024333974E+03  0.93116597776E+02 0.  0.
        -11    1    4    4    0    0 -0.35339533507E+02  0.12241738263E+02 -0.40245883731E+02  0.54940640164E+02  0.51100000000E-03 0.  1.
         11    1    4    4    0    0  0.13963565008E+02 -0.36805456701E+02  0.22421235417E+02  0.45302699572E+02  0.51100000000E-03 0. -1.
    9000005    1    3    3    0    0  0.43488397594E+02  0.60006973704E+02  0.12606821045E+02  0.75179848066E+02  0.10000000000E+01 0.  0.
    9000005    1    3    3    0    0 -0.22112429095E+02 -0.35443255266E+02 -0.37963199849E+02  0.56456960662E+02  0.10000000000E+01 0.  0.
<mgrwt>
<rscale>  0 0.12075219E+03</rscale>
<asrwt>0</asrwt>
<pdfrwt beam="1">  1        2 0.14515317E-01 0.12917160E+03</pdfrwt>
<pdfrwt beam="2">  1       -2 0.21158552E-01 0.12917160E+03</pdfrwt>
<totfact> 0.72789574E+03</totfact>
</mgrwt>
</event>
<event>
 8    2  0.8128359E-004  0.1285373E+03  0.7818608E-02  0.1242177E+00
          2   -1    0    0  501    0  0.00000000000E+00  0.00000000000E+00  0.21954751704E+04  0.21954751704E+04  0.25500000000E-02 0. -1.
         -2   -1    0    0    0  501 -0.00000000000E+00 -0.00000000000E+00 -0.62684237541E+01  0.62684242728E+01  0.25500000000E-02 0.  1.
         25    2    1    2    0    0  0.70995900903E+00 -0.29948303370E+02  0.96887702660E+03  0.97736611480E+03  0.12499769907E+03 0.  0.
         23    2    1    2    0    0 -0.70995900903E+00  0.29948303370E+02  0.12203297200E+04  0.12243774798E+04  0.94858751172E+02 0.  0.
        -11    1    4    4    0    0 -0.14036412385E+02 -0.17342249453E+02  0.90222258915E+03  0.90249840713E+03  0.51100000000E-03 0. -1.
         11    1    4    4    0    0  0.13326453376E+02  0.47290552822E+02  0.31810713087E+03  0.32187907272E+03  0.51100000000E-03 0.  1.
    9000005    1    3    3    0    0  0.19657867958E+02 -0.27370938164E+02  0.64438994632E+02  0.72725401737E+02  0.10000000000E+01 0.  0.
    9000005    1    3    3    0    0 -0.18947908949E+02 -0.25773652056E+01  0.90443803197E+03  0.90464071306E+03  0.10000000000E+01 0.  0.
<mgrwt>
<rscale>  0 0.12055966E+03</rscale>
<asrwt>0</asrwt>
<pdfrwt beam="1">  1        2 0.33776539E+00 0.12853727E+03</pdfrwt>
<pdfrwt beam="2">  1       -2 0.96437298E-03 0.12853727E+03</pdfrwt>
<totfact> 0.12891000E+04</totfact>
</mgrwt>
</event>
<event>
 8    2  0.8128359E-004  0.1273828E+03  0.7818608E-02  0.1246633E+00
          2   -1    0    0  501    0  0.00000000000E+00  0.00000000000E+00  0.41615318218E+04  0.41615318218E+04  0.25500000000E-02 0. -1.
         -2   -1    0    0    0  501 -0.00000000000E+00 -0.00000000000E+00 -0.34039729650E+01  0.34039739202E+01  0.25500000000E-02 0.  1.
         25    2    1    2    0    0  0.14069207717E+02 -0.20091100109E+02  0.31241886793E+04  0.31267844949E+04  0.12499911585E+03 0.  0.
         23    2    1    2    0    0 -0.14069207717E+02  0.20091100109E+02  0.10339391695E+04  0.10381513008E+04  0.90146115413E+02 0.  0.
        -11    1    4    4    0    0 -0.24452687688E+02 -0.32004667556E+02  0.43381464376E+03  0.43568036199E+03  0.51100000000E-03 0. -1.
         11    1    4    4    0    0  0.10383479972E+02  0.52095767665E+02  0.60012452577E+03  0.60247093880E+03  0.51100000000E-03 0.  1.
    9000005    1    3    3    0    0  0.37080187375E+02  0.37168249293E+02  0.77076758575E+03  0.77255426366E+03  0.10000000000E+01 0.  0.
    9000005    1    3    3    0    0 -0.23010979659E+02 -0.57259349403E+02  0.23534210935E+04  0.23542302313E+04  0.10000000000E+01 0.  0.
<mgrwt>
<rscale>  0 0.11788183E+03</rscale>
<asrwt>0</asrwt>
<pdfrwt beam="1">  1        2 0.64023787E+00 0.12738278E+03</pdfrwt>
<pdfrwt beam="2">  1       -2 0.52368642E-03 0.12738278E+03</pdfrwt>
<totfact> 0.18847265E+03</totfact>
</mgrwt>
</event>
<event>
 8    2  0.8128359E-004  0.2146494E+03  0.7818608E-02  0.1141740E+00
          2   -1    0    0  501    0  0.00000000000E+00  0.00000000000E+00  0.92144493736E+03  0.92144493736E+03  0.25500000000E-02 0. -1.
         -2   -1    0    0    0  501 -0.00000000000E+00 -0.00000000000E+00 -0.51657678208E+02  0.51657678271E+02  0.25500000000E-02 0.  1.
         25    2    1    2    0    0  0.11679514647E+03  0.12964531060E+03  0.28765090061E+03  0.35891141785E+03  0.12500140975E+03 0.  0.
         23    2    1    2    0    0 -0.11679514647E+03 -0.12964531060E+03  0.58213635854E+03  0.61419119779E+03  0.88876738836E+02 0.  0.
        -11    1    4    4    0    0 -0.17241835525E+02  0.69413294268E-01  0.11837927035E+02  0.20914641456E+02  0.51100000000E-03 0.  1.
         11    1    4    4    0    0 -0.99553310943E+02 -0.12971472389E+03  0.57029843151E+03  0.59327655633E+03  0.51100000000E-03 0. -1.
    9000005    1    3    3    0    0  0.24171003321E+02  0.72740306114E+02  0.21474139506E+03  0.22801371951E+03  0.10000000000E+01 0.  0.
    9000005    1    3    3    0    0  0.92624143148E+02  0.56905004482E+02  0.72909505552E+02  0.13089769833E+03  0.10000000000E+01 0.  0.
<mgrwt>
<rscale>  0 0.20978055E+03</rscale>
<asrwt>0</asrwt>
<pdfrwt beam="1">  1        2 0.14176075E+00 0.21464940E+03</pdfrwt>
<pdfrwt beam="2">  1       -2 0.79473355E-02 0.21464940E+03</pdfrwt>
<totfact> 0.27956723E+03</totfact>
</mgrwt>
</event>
<event>
 8    2  0.8128359E-004  0.1367746E+03  0.7818608E-02  0.1230129E+00
         -2   -1    0    0    0  501 -0.00000000000E+00  0.00000000000E+00  0.38852213118E+02  0.38852213202E+02  0.25500000000E-02 0.  1.
          2   -1    0    0  501    0  0.00000000000E+00 -0.00000000000E+00 -0.37813544616E+03  0.37813544617E+03  0.25500000000E-02 0. -1.
         25    2    1    2    0    0  0.27155977016E+02 -0.48449128490E+02 -0.18853345472E+03  0.23292092711E+03  0.12499011800E+03 0.  0.
         23    2    1    2    0    0 -0.27155977016E+02  0.48449128490E+02 -0.15074977833E+03  0.18406673227E+03  0.89834854724E+02 0.  0.
        -11    1    4    4    0    0 -0.55901654592E+02  0.48382068593E+02 -0.87231448181E+02  0.11434660073E+03  0.51100000000E-03 0.  1.
         11    1    4    4    0    0  0.28745677577E+02  0.67059896467E-01 -0.63518330144E+02  0.69720131533E+02  0.51100000000E-03 0. -1.
    9000005    1    3    3    0    0  0.27127977283E+02 -0.24130754969E+02  0.60497348418E+01  0.36821458126E+02  0.10000000000E+01 0.  0.
    9000005    1    3    3    0    0  0.27999732389E-01 -0.24318373520E+02 -0.19458318956E+03  0.19609946898E+03  0.10000000000E+01 0.  0.
<mgrwt>
<rscale>  0 0.12821479E+03</rscale>
<asrwt>0</asrwt>
<pdfrwt beam="2">  1        2 0.58174682E-01 0.13677461E+03</pdfrwt>
<pdfrwt beam="1">  1       -2 0.59772638E-02 0.13677461E+03</pdfrwt>
<totfact> 0.11961020E+04</totfact>
</mgrwt>
</event>
<event>
 8    2  0.8128359E-004  0.1455266E+03  0.7818608E-02  0.1223259E+00
         -2   -1    0    0    0  501 -0.00000000000E+00  0.00000000000E+00  0.11041512300E+02  0.11041512594E+02  0.25500000000E-02 0.  1.
          2   -1    0    0  501    0  0.00000000000E+00 -0.00000000000E+00 -0.16770504864E+04  0.16770504864E+04  0.25500000000E-02 0. -1.
         25    2    1    2    0    0  0.11928845141E+02 -0.73545476539E+02 -0.13080961614E+04  0.13161662308E+04  0.12500697997E+03 0.  0.
         23    2    1    2    0    0 -0.11928845141E+02  0.73545476539E+02 -0.35791281270E+03  0.37192576825E+03  0.68380999720E+02 0.  0.
        -11    1    4    4    0    0  0.27495188465E+02  0.18247386909E+02 -0.12875124698E+03  0.13291288920E+03  0.51100000000E-03 0.  1.
         11    1    4    4    0    0 -0.39424033606E+02  0.55298089630E+02 -0.22916156572E+03  0.23901287904E+03  0.51100000000E-03 0. -1.
    9000005    1    3    3    0    0  0.56450008811E+02 -0.13717743432E+00 -0.65939813718E+03  0.66181079293E+03  0.10000000000E+01 0.  0.
    9000005    1    3    3    0    0 -0.44521163669E+02 -0.73408299105E+02 -0.64869802424E+03  0.65435543785E+03  0.10000000000E+01 0.  0.
<mgrwt>
<rscale>  0 0.13286980E+03</rscale>
<asrwt>0</asrwt>
<pdfrwt beam="2">  1        2 0.25800757E+00 0.14552656E+03</pdfrwt>
<pdfrwt beam="1">  1       -2 0.16986956E-02 0.14552656E+03</pdfrwt>
<totfact> 0.10580561E+04</totfact>
</mgrwt>
</event>
<event>
 8    2  0.8128359E-004  0.1269066E+03  0.7818608E-02  0.1245170E+00
          2   -1    0    0  501    0  0.00000000000E+00  0.00000000000E+00  0.37914061033E+04  0.37914061033E+04  0.25500000000E-02 0. -1.
         -2   -1    0    0    0  501 -0.00000000000E+00 -0.00000000000E+00 -0.35221477771E+01  0.35221487001E+01  0.25500000000E-02 0.  1.
         25    2    1    2    0    0 -0.19689774845E+02 -0.96469876953E+01  0.16725570359E+04  0.16773646996E+04  0.12499818174E+03 0.  0.
         23    2    1    2    0    0  0.19689774845E+02  0.96469876953E+01  0.21153269197E+04  0.21175635525E+04  0.94798048897E+02 0.  0.
        -11    1    4    4    0    0  0.56392008588E+02 -0.62558598104E+01  0.13506263960E+04  0.13518176119E+04  0.51100000000E-03 0. -1.
         11    1    4    4    0    0 -0.36702233744E+02  0.15902847506E+02  0.76470052372E+03  0.76574594057E+03  0.51100000000E-03 0.  1.
    9000005    1    3    3    0    0  0.13379786456E+02 -0.25295618148E+02  0.15272837425E+04  0.15275521323E+04  0.10000000000E+01 0.  0.
    9000005    1    3    3    0    0 -0.33069561300E+02  0.15648630452E+02  0.14527329343E+03  0.14981256724E+03  0.10000000000E+01 0.  0.
<mgrwt>
<rscale>  0 0.11875236E+03</rscale>
<asrwt>0</asrwt>
<pdfrwt beam="1">  1        2 0.58329101E+00 0.12690665E+03</pdfrwt>
<pdfrwt beam="2">  1       -2 0.54187104E-03 0.12690665E+03</pdfrwt>
<totfact> 0.33856265E+03</totfact>
</mgrwt>
</event>
<event>
 8    2  0.8128359E-004  0.1372220E+03  0.7818608E-02  0.1229470E+00
         -2   -1    0    0    0  501 -0.00000000000E+00  0.00000000000E+00  0.27343517344E+02  0.27343517463E+02  0.25500000000E-02 0.  1.
          2   -1    0    0  501    0  0.00000000000E+00 -0.00000000000E+00 -0.67485506363E+03  0.67485506364E+03  0.25500000000E-02 0. -1.
         25    2    1    2    0    0  0.34243198673E+02 -0.45085720774E+02 -0.51239564359E+03  0.53045185648E+03  0.12499823041E+03 0.  0.
         23    2    1    2    0    0 -0.34243198673E+02  0.45085720774E+02 -0.13511590270E+03  0.17174672462E+03  0.89639898377E+02 0.  0.
        -11    1    4    4    0    0  0.16010850678E+02 -0.88395041168E+01 -0.73296035229E+02  0.75543318388E+02  0.51100000000E-03 0. -1.
         11    1    4    4    0    0 -0.50254049351E+02  0.53925224891E+02 -0.61819867473E+02  0.96203406230E+02  0.51100000000E-03 0.  1.
    9000005    1    3    3    0    0  0.17524692361E+01 -0.76946850279E+02 -0.42499421005E+03  0.43190851751E+03  0.10000000000E+01 0.  0.
    9000005    1    3    3    0    0  0.32490729436E+02  0.31861129506E+02 -0.87401433531E+02  0.98543338973E+02  0.10000000000E+01 0.  0.
<mgrwt>
<rscale>  0 0.12865203E+03</rscale>
<asrwt>0</asrwt>
<pdfrwt beam="2">  1        2 0.10382384E+00 0.13722200E+03</pdfrwt>
<pdfrwt beam="1">  1       -2 0.42066955E-02 0.13722200E+03</pdfrwt>
<totfact> 0.10683403E+04</totfact>
</mgrwt>
</event>
<event>
 8    2  0.8128359E-004  0.1304553E+03  0.7818608E-02  0.1241106E+00
          2   -1    0    0  501    0  0.00000000000E+00  0.00000000000E+00  0.15398761333E+03  0.15398761336E+03  0.25500000000E-02 0. -1.
         -2   -1    0    0    0  501 -0.00000000000E+00 -0.00000000000E+00 -0.10799106903E+03  0.10799106906E+03  0.25500000000E-02 0.  1.
         25    2    1    2    0    0  0.16067631022E+02 -0.33698055232E+02  0.86621674571E+02  0.15659473689E+03  0.12499947770E+03 0.  0.
         23    2    1    2    0    0 -0.16067631022E+02  0.33698055232E+02 -0.40625130267E+02  0.10538394552E+03  0.89786675357E+02 0.  0.
        -11    1    4    4    0    0  0.12084228671E+01  0.97913563396E+01  0.28537361181E+02  0.30194567859E+02  0.51100000000E-03 0. -1.
         11    1    4    4    0    0 -0.17276053889E+02  0.23906698892E+02 -0.69162491447E+02  0.75189377663E+02  0.51100000000E-03 0.  1.
    9000005    1    3    3    0    0 -0.10743847410E+02 -0.91616045154E+01 -0.30679833197E+02  0.33787829457E+02  0.10000000000E+01 0.  0.
    9000005    1    3    3    0    0  0.26811478432E+02 -0.24536450717E+02  0.11730150777E+03  0.12280690744E+03  0.10000000000E+01 0.  0.
<mgrwt>
<rscale>  0 0.12121497E+03</rscale>
<asrwt>0</asrwt>
<pdfrwt beam="1">  1        2 0.23690402E-01 0.13045535E+03</pdfrwt>
<pdfrwt beam="2">  1       -2 0.16614011E-01 0.13045535E+03</pdfrwt>
<totfact> 0.62505433E+03</totfact>
</mgrwt>
</event>
<event>
 8    2  0.8128359E-004  0.1616761E+03  0.7818608E-02  0.1194024E+00
         -2   -1    0    0    0  501 -0.00000000000E+00  0.00000000000E+00  0.75951652797E+01  0.75951657078E+01  0.25500000000E-02 0.  1.
          2   -1    0    0  501    0  0.00000000000E+00 -0.00000000000E+00 -0.30263273823E+04  0.30263273823E+04  0.25500000000E-02 0. -1.
         25    2    1    2    0    0 -0.23238571766E+02 -0.99868010366E+02 -0.13923721832E+04  0.14017273106E+04  0.12500202447E+03 0.  0.
         23    2    1    2    0    0  0.23238571766E+02  0.99868010366E+02 -0.16263600339E+04  0.16321952374E+04  0.92199146320E+02 0.  0.
        -11    1    4    4    0    0 -0.10611320326E+02  0.60960120757E+02 -0.40058110358E+03  0.40533190966E+03  0.51100000000E-03 0.  1.
         11    1    4    4    0    0  0.33849892093E+02  0.38907889609E+02 -0.12257789303E+04  0.12268633278E+04  0.51100000000E-03 0. -1.
    9000005    1    3    3    0    0  0.48149493637E+02 -0.14406340893E+02 -0.44902635985E+03  0.45183137146E+03  0.10000000000E+01 0.  0.
    9000005    1    3    3    0    0 -0.71388065403E+02 -0.85461669473E+02 -0.94334582331E+03  0.94989593914E+03  0.10000000000E+01 0.  0.
<mgrwt>
<rscale>  0 0.15537083E+03</rscale>
<asrwt>0</asrwt>
<pdfrwt beam="2">  1        2 0.46558787E+00 0.16167609E+03</pdfrwt>
<pdfrwt beam="1">  1       -2 0.11684894E-02 0.16167609E+03</pdfrwt>
<totfact> 0.34525261E+03</totfact>
</mgrwt>
</event>
<event>
 8    2  0.8128359E-004  0.1547218E+03  0.7818608E-02  0.1203847E+00
          2   -1    0    0  501    0  0.00000000000E+00  0.00000000000E+00  0.32023224322E+04  0.32023224322E+04  0.25500000000E-02 0. -1.
         -2   -1    0    0    0  501 -0.00000000000E+00 -0.00000000000E+00 -0.78730557163E+01  0.78730561292E+01  0.25500000000E-02 0.  1.
         25    2    1    2    0    0  0.51975475336E+02 -0.74916774153E+02  0.98326824371E+03  0.99536690864E+03  0.12499948259E+03 0.  0.
         23    2    1    2    0    0 -0.51975475336E+02  0.74916774153E+02  0.22111811328E+04  0.22148285797E+04  0.88485379442E+02 0.  0.
        -11    1    4    4    0    0  0.89236624071E+01  0.37981869605E+02  0.13950402993E+04  0.13955857877E+04  0.51100000000E-03 0. -1.
         11    1    4    4    0    0 -0.60899137743E+02  0.36934904547E+02  0.81614083345E+03  0.81924279196E+03  0.51100000000E-03 0.  1.
    9000005    1    3    3    0    0  0.54039254834E+02 -0.81638323238E+02  0.39153415534E+03  0.40359020266E+03  0.10000000000E+01 0.  0.
    9000005    1    3    3    0    0 -0.20637794974E+01  0.67215490855E+01  0.59173408837E+03  0.59177670599E+03  0.10000000000E+01 0.  0.
<mgrwt>
<rscale>  0 0.14728681E+03</rscale>
<asrwt>0</asrwt>
<pdfrwt beam="1">  1        2 0.49266508E+00 0.15472183E+03</pdfrwt>
<pdfrwt beam="2">  1       -2 0.12112391E-02 0.15472183E+03</pdfrwt>
<totfact> 0.25782839E+03</totfact>
</mgrwt>
</event>
<event>
 8    2  0.8128359E-004  0.1395297E+03  0.7818608E-02  0.1225395E+00
         -2   -1    0    0    0  501 -0.00000000000E+00  0.00000000000E+00  0.14811821928E+02  0.14811822148E+02  0.25500000000E-02 0.  1.
          2   -1    0    0  501    0  0.00000000000E+00 -0.00000000000E+00 -0.12088020455E+04  0.12088020456E+04  0.25500000000E-02 0. -1.
         25    2    1    2    0    0  0.24499141146E+02  0.56954364927E+02 -0.88013456323E+03  0.89112591482E+03  0.12499815622E+03 0.  0.
         23    2    1    2    0    0 -0.24499141146E+02 -0.56954364927E+02 -0.31385566039E+03  0.33248795288E+03  0.90547532568E+02 0.  0.
        -11    1    4    4    0    0  0.22344364076E+02 -0.48806402540E+02 -0.10090881272E+03  0.11429752412E+03  0.51100000000E-03 0.  1.
         11    1    4    4    0    0 -0.46843505222E+02 -0.81479623866E+01 -0.21294684767E+03  0.21819042877E+03  0.51100000000E-03 0. -1.
    9000005    1    3    3    0    0  0.47968899744E+01  0.95794855517E+02 -0.61578378026E+03  0.62320969868E+03  0.10000000000E+01 0.  0.
    9000005    1    3    3    0    0  0.19702251171E+02 -0.38840490590E+02 -0.26435078297E+03  0.26791621614E+03  0.10000000000E+01 0.  0.
<mgrwt>
<rscale>  0 0.13139877E+03</rscale>
<asrwt>0</asrwt>
<pdfrwt beam="2">  1        2 0.18596947E+00 0.13952973E+03</pdfrwt>
<pdfrwt beam="1">  1       -2 0.22787428E-02 0.13952973E+03</pdfrwt>
<totfact> 0.12183006E+04</totfact>
</mgrwt>
</event>
<event>
 8    2  0.8128359E-004  0.1343872E+03  0.7818608E-02  0.1233556E+00
         -2   -1    0    0    0  501 -0.00000000000E+00  0.00000000000E+00  0.44879964714E+02  0.44879964786E+02  0.25500000000E-02 0.  1.
          2   -1    0    0  501    0  0.00000000000E+00 -0.00000000000E+00 -0.33335260211E+03  0.33335260212E+03  0.25500000000E-02 0. -1.
         25    2    1    2    0    0 -0.18296750294E+02 -0.45822995359E+02 -0.20471156687E+03  0.24488108246E+03  0.12500160384E+03 0.  0.
         23    2    1    2    0    0  0.18296750294E+02  0.45822995359E+02 -0.83761070528E+02  0.13335148445E+03  0.91280794768E+02 0.  0.
        -11    1    4    4    0    0  0.29226325215E+02 -0.12055941705E+02 -0.63722690530E+02  0.71134415754E+02  0.51100000000E-03 0. -1.
         11    1    4    4    0    0 -0.10929574922E+02  0.57878937064E+02 -0.20038379998E+02  0.62217068694E+02  0.51100000000E-03 0.  1.
    9000005    1    3    3    0    0 -0.20558158591E+02 -0.45964799668E+02 -0.11506873515E+02  0.51660515206E+02  0.10000000000E+01 0.  0.
    9000005    1    3    3    0    0  0.22614082975E+01  0.14180430896E+00 -0.19320469335E+03  0.19322056725E+03  0.10000000000E+01 0.  0.
<mgrwt>
<rscale>  0 0.12597337E+03</rscale>
<asrwt>0</asrwt>
<pdfrwt beam="2">  1        2 0.51285014E-01 0.13438720E+03</pdfrwt>
<pdfrwt beam="1">  1       -2 0.69046102E-02 0.13438720E+03</pdfrwt>
<totfact> 0.10965423E+04</totfact>
</mgrwt>
</event>
<event>
 8    2  0.8128359E-004  0.1506384E+03  0.7818608E-02  0.1209475E+00
          2   -1    0    0  501    0  0.00000000000E+00  0.00000000000E+00  0.42253853108E+02  0.42253853185E+02  0.25500000000E-02 0. -1.
         -2   -1    0    0    0  501 -0.00000000000E+00 -0.00000000000E+00 -0.86993873201E+03  0.86993873201E+03  0.25500000000E-02 0.  1.
         25    2    1    2    0    0 -0.79812335073E+02 -0.26402938490E+02 -0.75563853697E+03  0.77050731128E+03  0.12499917679E+03 0.  0.
         23    2    1    2    0    0  0.79812335073E+02  0.26402938490E+02 -0.72046341933E+02  0.14168527392E+03  0.88413333089E+02 0.  0.
        -11    1    4    4    0    0  0.82853505816E+02  0.34807611971E+01 -0.81898163098E+02  0.11655096844E+03  0.51100000000E-03 0.  1.
         11    1    4    4    0    0 -0.30411707426E+01  0.22922177293E+02  0.98518211655E+01  0.25134305479E+02  0.51100000000E-03 0. -1.
    9000005    1    3    3    0    0  0.28034714981E+02 -0.26634755735E+02 -0.12972195942E+03  0.13536669536E+03  0.10000000000E+01 0.  0.
    9000005    1    3    3    0    0 -0.10784705005E+03  0.23181724432E+00 -0.62591657754E+03  0.63514061592E+03  0.10000000000E+01 0.  0.
<mgrwt>
<rscale>  0 0.14290315E+03</rscale>
<asrwt>0</asrwt>
<pdfrwt beam="1">  1        2 0.65005934E-02 0.15063837E+03</pdfrwt>
<pdfrwt beam="2">  1       -2 0.13383672E+00 0.15063837E+03</pdfrwt>
<totfact> 0.46502565E+02</totfact>
</mgrwt>
</event>
<event>
 8    2  0.8128359E-004  0.1301909E+03  0.7818608E-02  0.1245971E+00
         -2   -1    0    0    0  501 -0.00000000000E+00  0.00000000000E+00  0.36980876054E+02  0.36980876142E+02  0.25500000000E-02 0.  1.
          2   -1    0    0  501    0  0.00000000000E+00 -0.00000000000E+00 -0.40025627935E+03  0.40025627936E+03  0.25500000000E-02 0. -1.
         25    2    1    2    0    0 -0.33699664167E+02  0.13772775556E+02 -0.11539077653E+03  0.17396754892E+03  0.12499728020E+03 0.  0.
         23    2    1    2    0    0  0.33699664167E+02 -0.13772775556E+02 -0.24788462676E+03  0.26326960658E+03  0.80862481098E+02 0.  0.
        -11    1    4    4    0    0  0.13781677816E+02  0.33851873367E+02 -0.11686197104E+03  0.12244429039E+03  0.51100000000E-03 0.  1.
         11    1    4    4    0    0  0.19917986351E+02 -0.47624648923E+02 -0.13102265572E+03  0.14082531619E+03  0.51100000000E-03 0. -1.
    9000005    1    3    3    0    0  0.60383290460E+00  0.57067480791E+02 -0.14423035777E+02  0.58873473985E+02  0.10000000000E+01 0.  0.
    9000005    1    3    3    0    0 -0.34303497072E+02 -0.43294705235E+02 -0.10096774075E+03  0.11509407494E+03  0.10000000000E+01 0.  0.
<mgrwt>
<rscale>  0 0.11827464E+03</rscale>
<asrwt>0</asrwt>
<pdfrwt beam="2">  1        2 0.61577886E-01 0.13019092E+03</pdfrwt>
<pdfrwt beam="1">  1       -2 0.56893658E-02 0.13019092E+03</pdfrwt>
<totfact> 0.12084884E+04</totfact>
</mgrwt>
</event>
<event>
 8    2  0.8128359E-004  0.1427154E+03  0.7818608E-02  0.1219926E+00
         -2   -1    0    0    0  501 -0.00000000000E+00  0.00000000000E+00  0.18908222434E+02  0.18908222606E+02  0.25500000000E-02 0.  1.
          2   -1    0    0  501    0  0.00000000000E+00 -0.00000000000E+00 -0.90494033110E+03  0.90494033111E+03  0.25500000000E-02 0. -1.
         25    2    1    2    0    0  0.40941489878E+01  0.68744183388E+02 -0.56855965300E+03  0.58619771698E+03  0.12500063825E+03 0.  0.
         23    2    1    2    0    0 -0.40941489878E+01 -0.68744183388E+02 -0.31747245567E+03  0.33765083673E+03  0.92069553244E+02 0.  0.
        -11    1    4    4    0    0 -0.35234941381E+02  0.33593872307E+01 -0.12070404034E+03  0.12578653319E+03  0.51100000000E-03 0. -1.
         11    1    4    4    0    0  0.31140792393E+02 -0.72103570618E+02 -0.19676841532E+03  0.21186430354E+03  0.51100000000E-03 0.  1.
    9000005    1    3    3    0    0  0.12105037305E+02  0.47945190574E+02 -0.62762458097E+02  0.79908693981E+02  0.10000000000E+01 0.  0.
    9000005    1    3    3    0    0 -0.80108883173E+01  0.20798992813E+02 -0.50579719491E+03  0.50628902300E+03  0.10000000000E+01 0.  0.
<mgrwt>
<rscale>  0 0.13520859E+03</rscale>
<asrwt>0</asrwt>
<pdfrwt beam="2">  1        2 0.13922156E+00 0.14271540E+03</pdfrwt>
<pdfrwt beam="1">  1       -2 0.29089580E-02 0.14271540E+03</pdfrwt>
<totfact> 0.12857067E+04</totfact>
</mgrwt>
</event>
<event>
 8    2  0.8128359E-004  0.1828168E+03  0.7818608E-02  0.1170456E+00
         -2   -1    0    0    0  501 -0.00000000000E+00  0.00000000000E+00  0.10155880139E+02  0.10155880459E+02  0.25500000000E-02 0. -1.
          2   -1    0    0  501    0  0.00000000000E+00 -0.00000000000E+00 -0.30335458477E+04  0.30335458477E+04  0.25500000000E-02 0.  1.
         25    2    1    2    0    0 -0.13329097171E+03  0.54410653886E+01 -0.18931919384E+04  0.19019983403E+04  0.12500353103E+03 0.  0.
         23    2    1    2    0    0  0.13329097171E+03 -0.54410653886E+01 -0.11301980292E+04  0.11417033878E+04  0.91339762777E+02 0.  0.
        -11    1    4    4    0    0  0.94018834490E+02  0.90549943314E+01 -0.10103338239E+04  0.10147393605E+04  0.51100000000E-03 0.  1.
         11    1    4    4    0    0  0.39272137222E+02 -0.14496059720E+02 -0.11986420528E+03  0.12696402726E+03  0.51100000000E-03 0. -1.
    9000005    1    3    3    0    0  0.48618064884E+00 -0.36384935572E+02 -0.63062570236E+03  0.63167545178E+03  0.10000000000E+01 0.  0.
    9000005    1    3    3    0    0 -0.13377715236E+03  0.41826000960E+02 -0.12625662360E+04  0.12703228885E+04  0.10000000000E+01 0.  0.
<mgrwt>
<rscale>  0 0.17728550E+03</rscale>
<asrwt>0</asrwt>
<pdfrwt beam="2">  1        2 0.46669864E+00 0.18281677E+03</pdfrwt>
<pdfrwt beam="1">  1       -2 0.15624455E-02 0.18281677E+03</pdfrwt>
<totfact> 0.22392389E+03</totfact>
</mgrwt>
</event>
<event>
 8    2  0.8128359E-004  0.1301898E+03  0.7818608E-02  0.1240328E+00
         -2   -1    0    0    0  501 -0.00000000000E+00  0.00000000000E+00  0.33093908697E+02  0.33093908795E+02  0.25500000000E-02 0.  1.
          2   -1    0    0  501    0  0.00000000000E+00 -0.00000000000E+00 -0.44888351333E+03  0.44888351333E+03  0.25500000000E-02 0. -1.
         25    2    1    2    0    0  0.25786130484E+02  0.25667789981E+02 -0.31298926031E+03  0.33898623919E+03  0.12500253324E+03 0.  0.
         23    2    1    2    0    0 -0.25786130484E+02 -0.25667789981E+02 -0.10280034432E+03  0.14299118294E+03  0.92492203131E+02 0.  0.
        -11    1    4    4    0    0 -0.38433097549E+02 -0.11953825180E+02 -0.18074426540E+01  0.40289747739E+02  0.51100000000E-03 0.  1.
         11    1    4    4    0    0  0.12646967065E+02 -0.13713964802E+02 -0.10099290166E+03  0.10270143520E+03  0.51100000000E-03 0. -1.
    9000005    1    3    3    0    0 -0.47564109858E+02 -0.47052703980E+01 -0.84375107086E+02  0.96977537666E+02  0.10000000000E+01 0.  0.
    9000005    1    3    3    0    0  0.73350240342E+02  0.30373060379E+02 -0.22861415323E+03  0.24200870152E+03  0.10000000000E+01 0.  0.
<mgrwt>
<rscale>  0 0.12169411E+03</rscale>
<asrwt>0</asrwt>
<pdfrwt beam="2">  1        2 0.69058998E-01 0.13018984E+03</pdfrwt>
<pdfrwt beam="1">  1       -2 0.50913709E-02 0.13018984E+03</pdfrwt>
<totfact> 0.12630502E+04</totfact>
</mgrwt>
</event>
<event>
 8    2  0.8128359E-004  0.2372705E+03  0.7818608E-02  0.1124406E+00
         -2   -1    0    0    0  501 -0.00000000000E+00  0.00000000000E+00  0.21546426519E+03  0.21546426521E+03  0.25500000000E-02 0.  1.
          2   -1    0    0  501    0  0.00000000000E+00 -0.00000000000E+00 -0.26465479622E+03  0.26465479624E+03  0.25500000000E-02 0. -1.
         25    2    1    2    0    0 -0.12973672276E+03 -0.15440453766E+03 -0.92230293590E+02  0.25456572946E+03  0.12499962030E+03 0.  0.
         23    2    1    2    0    0  0.12973672276E+03  0.15440453766E+03  0.43039762559E+02  0.22555333199E+03  0.91375630927E+02 0.  0.
        -11    1    4    4    0    0  0.10846958264E+02 -0.63848315619E+01  0.20851862339E+02  0.24356164331E+02  0.51100000000E-03 0.  1.
         11    1    4    4    0    0  0.11888976450E+03  0.16078936922E+03  0.22187900219E+02  0.20119716766E+03  0.51100000000E-03 0. -1.
    9000005    1    3    3    0    0 -0.56967075541E+02  0.96459693203E+01 -0.23705448135E+02  0.62459912673E+02  0.10000000000E+01 0.  0.
    9000005    1    3    3    0    0 -0.72769647222E+02 -0.16405050698E+03 -0.68524845455E+02  0.19210581678E+03  0.10000000000E+01 0.  0.
<mgrwt>
<rscale>  0 0.23320161E+03</rscale>
<asrwt>0</asrwt>
<pdfrwt beam="2">  1        2 0.40716122E-01 0.23727049E+03</pdfrwt>
<pdfrwt beam="1">  1       -2 0.33148349E-01 0.23727049E+03</pdfrwt>
<totfact> 0.10645737E+03</totfact>
</mgrwt>
</event>
<event>
 8    2  0.8128359E-004  0.1426942E+03  0.7818608E-02  0.1219487E+00
         -2   -1    0    0    0  501 -0.00000000000E+00  0.00000000000E+00  0.19955113412E+02  0.19955113575E+02  0.25500000000E-02 0.  1.
          2   -1    0    0  501    0  0.00000000000E+00 -0.00000000000E+00 -0.88025219095E+03  0.88025219095E+03  0.25500000000E-02 0. -1.
         25    2    1    2    0    0  0.38017697683E+02 -0.57364524331E+02 -0.56923695607E+03  0.58684950776E+03  0.12500239444E+03 0.  0.
         23    2    1    2    0    0 -0.38017697683E+02  0.57364524331E+02 -0.29106012147E+03  0.31335779676E+03  0.93493745765E+02 0.  0.
        -11    1    4    4    0    0 -0.33149485520E+02  0.82930650934E+02 -0.20939251049E+03  0.22764359140E+03  0.51100000000E-03 0.  1.
         11    1    4    4    0    0 -0.48682121624E+01 -0.25566126603E+02 -0.81667610974E+02  0.85714205366E+02  0.51100000000E-03 0. -1.
    9000005    1    3    3    0    0  0.75658400879E+02 -0.26092253804E+02 -0.46315701542E+03  0.47002172319E+03  0.10000000000E+01 0.  0.
    9000005    1    3    3    0    0 -0.37640703196E+02 -0.31272270527E+02 -0.10607994065E+03  0.11682778458E+03  0.10000000000E+01 0.  0.
<mgrwt>
<rscale>  0 0.13552030E+03</rscale>
<asrwt>0</asrwt>
<pdfrwt beam="2">  1        2 0.13542338E+00 0.14269419E+03</pdfrwt>
<pdfrwt beam="1">  1       -2 0.30700181E-02 0.14269419E+03</pdfrwt>
<totfact> 0.12313222E+04</totfact>
</mgrwt>
</event>
<event>
 8    2  0.8128359E-004  0.2270015E+03  0.7818608E-02  0.1131795E+00
         -2   -1    0    0    0  501 -0.00000000000E+00  0.00000000000E+00  0.10856387149E+03  0.10856387152E+03  0.25500000000E-02 0.  1.
          2   -1    0    0  501    0  0.00000000000E+00 -0.00000000000E+00 -0.48666137152E+03  0.48666137153E+03  0.25500000000E-02 0. -1.
         25    2    1    2    0    0 -0.13405564210E+03 -0.13391328908E+03 -0.10457642971E+03  0.24993183897E+03  0.12500404117E+03 0.  0.
         23    2    1    2    0    0  0.13405564210E+03  0.13391328908E+03 -0.27352107032E+03  0.34529340408E+03  0.92250066799E+02 0.  0.
        -11    1    4    4    0    0  0.10376652352E+03  0.14163481929E+03 -0.25279799289E+03  0.30779008861E+03  0.51100000000E-03 0.  1.
         11    1    4    4    0    0  0.30289118575E+02 -0.77215302116E+01 -0.20723077435E+02  0.37503315473E+02  0.51100000000E-03 0. -1.
    9000005    1    3    3    0    0 -0.41616787922E+02 -0.12306898944E+03 -0.37565399435E+02  0.13524086820E+03  0.10000000000E+01 0.  0.
    9000005    1    3    3    0    0 -0.92438854175E+02 -0.10844299642E+02 -0.67011030271E+02  0.11469097076E+03  0.10000000000E+01 0.  0.
<mgrwt>
<rscale>  0 0.22282365E+03</rscale>
<asrwt>0</asrwt>
<pdfrwt beam="2">  1        2 0.74870979E-01 0.22700153E+03</pdfrwt>
<pdfrwt beam="1">  1       -2 0.16702134E-01 0.22700153E+03</pdfrwt>
<totfact> 0.18262292E+03</totfact>
</mgrwt>
</event>
<event>
 8    2  0.8128359E-004  0.3563674E+03  0.7818608E-02  0.1061092E+00
          2   -1    0    0  501    0  0.00000000000E+00  0.00000000000E+00  0.22057706711E+04  0.22057706711E+04  0.25500000000E-02 0.  1.
         -2   -1    0    0    0  501 -0.00000000000E+00 -0.00000000000E+00 -0.56702090662E+02  0.56702090720E+02  0.25500000000E-02 0. -1.
         25    2    1    2    0    0  0.44204476392E+02 -0.33078664971E+03  0.95616190355E+03  0.10204132904E+04  0.12499541651E+03 0.  0.
         23    2    1    2    0    0 -0.44204476392E+02  0.33078664971E+03  0.11929066769E+04  0.12420594714E+04  0.91167687915E+02 0.  0.
        -11    1    4    4    0    0 -0.91065866108E+01  0.24129889316E+03  0.71783765558E+03  0.75736317941E+03  0.51100000000E-03 0. -1.
         11    1    4    4    0    0 -0.35097889781E+02  0.89487756549E+02  0.47506902134E+03  0.48469629200E+03  0.51100000000E-03 0.  1.
    9000005    1    3    3    0    0 -0.19466484221E+02 -0.17221727423E+03  0.61344809826E+03  0.63746160889E+03  0.10000000000E+01 0.  0.
    9000005    1    3    3    0    0  0.63670960613E+02 -0.15856937548E+03  0.34271380528E+03  0.38295168155E+03  0.10000000000E+01 0.  0.
<mgrwt>
<rscale>  0 0.35373545E+03</rscale>
<asrwt>0</asrwt>
<pdfrwt beam="1">  1        2 0.33934935E+00 0.35636736E+03</pdfrwt>
<pdfrwt beam="2">  1       -2 0.87233982E-02 0.35636736E+03</pdfrwt>
<totfact> 0.47059813E+02</totfact>
</mgrwt>
</event>
<event>
 8    2  0.8128359E-004  0.1578565E+03  0.7818608E-02  0.1199022E+00
         -2   -1    0    0    0  501 -0.00000000000E+00  0.00000000000E+00  0.62603974271E+02  0.62603974323E+02  0.25500000000E-02 0.  1.
          2   -1    0    0  501    0  0.00000000000E+00 -0.00000000000E+00 -0.42139005018E+03  0.42139005018E+03  0.25500000000E-02 0. -1.
         25    2    1    2    0    0  0.94909272016E+02  0.16902453132E+02 -0.84054546823E+02  0.17884027386E+03  0.12500085550E+03 0.  0.
         23    2    1    2    0    0 -0.94909272016E+02 -0.16902453132E+02 -0.27473152908E+03  0.30515375065E+03  0.91367037971E+02 0.  0.
        -11    1    4    4    0    0  0.17209527353E+01  0.23505307550E+02 -0.87488556427E+02  0.90607442670E+02  0.51100000000E-03 0. -1.
         11    1    4    4    0    0 -0.96630224751E+02 -0.40407760682E+02 -0.18724297266E+03  0.21454630798E+03  0.51100000000E-03 0.  1.
    9000005    1    3    3    0    0  0.38491692525E+02  0.28072191164E+02 -0.10682874931E+03  0.11697452710E+03  0.10000000000E+01 0.  0.
    9000005    1    3    3    0    0  0.56417579491E+02 -0.11169738032E+02  0.22774202487E+02  0.61865746760E+02  0.10000000000E+01 0.  0.
<mgrwt>
<rscale>  0 0.15118667E+03</rscale>
<asrwt>0</asrwt>
<pdfrwt beam="2">  1        2 0.64829237E-01 0.15785651E+03</pdfrwt>
<pdfrwt beam="1">  1       -2 0.96313809E-02 0.15785651E+03</pdfrwt>
<totfact> 0.51492929E+03</totfact>
</mgrwt>
</event>
<event>
 8    2  0.8128359E-004  0.1493884E+03  0.7818608E-02  0.1211246E+00
         -2   -1    0    0    0  501 -0.00000000000E+00  0.00000000000E+00  0.70043580218E+02  0.70043580265E+02  0.25500000000E-02 0.  1.
          2   -1    0    0  501    0  0.00000000000E+00 -0.00000000000E+00 -0.27531727988E+03  0.27531727990E+03  0.25500000000E-02 0. -1.
         25    2    1    2    0    0 -0.69193951906E+02 -0.43658352815E+02 -0.72360839757E+02  0.16599088808E+03  0.12499211593E+03 0.  0.
         23    2    1    2    0    0  0.69193951906E+02  0.43658352815E+02 -0.13291285991E+03  0.17936997208E+03  0.88396288410E+02 0.  0.
        -11    1    4    4    0    0  0.67778963141E+02  0.10966206267E+02 -0.12936345590E+03  0.14645528071E+03  0.51100000000E-03 0. -1.
         11    1    4    4    0    0  0.14149887654E+01  0.32692146548E+02 -0.35494040063E+01  0.32914691373E+02  0.51100000000E-03 0.  1.
    9000005    1    3    3    0    0 -0.92144440364E+01 -0.76070788381E+02 -0.17823814168E+02  0.78678835625E+02  0.10000000000E+01 0.  0.
    9000005    1    3    3    0    0 -0.59979507870E+02  0.32412435566E+02 -0.54537025589E+02  0.87312052453E+02  0.10000000000E+01 0.  0.
<mgrwt>
<rscale>  0 0.14155904E+03</rscale>
<asrwt>0</asrwt>
<pdfrwt beam="2">  1        2 0.42356504E-01 0.14938837E+03</pdfrwt>
<pdfrwt beam="1">  1       -2 0.10775936E-01 0.14938837E+03</pdfrwt>
<totfact> 0.67717780E+03</totfact>
</mgrwt>
</event>
<event>
 8    2  0.8128359E-004  0.1505306E+03  0.7818608E-02  0.1208880E+00
         -2   -1    0    0    0  501 -0.00000000000E+00  0.00000000000E+00  0.13786999564E+02  0.13786999800E+02  0.25500000000E-02 0.  1.
          2   -1    0    0  501    0  0.00000000000E+00 -0.00000000000E+00 -0.13780339526E+04  0.13780339526E+04  0.25500000000E-02 0. -1.
         25    2    1    2    0    0 -0.68107102675E+02  0.48948441131E+02 -0.81542964082E+03  0.82920743751E+03  0.12499979189E+03 0.  0.
         23    2    1    2    0    0  0.68107102675E+02 -0.48948441131E+02 -0.54881731226E+03  0.56261351493E+03  0.91098834387E+02 0.  0.
        -11    1    4    4    0    0  0.72521243044E+02 -0.64667586045E+02 -0.35337076897E+03  0.36648619038E+03  0.51100000000E-03 0.  1.
         11    1    4    4    0    0 -0.44141403692E+01  0.15719144914E+02 -0.19544654329E+03  0.19612732456E+03  0.51100000000E-03 0. -1.
    9000005    1    3    3    0    0  0.29979846669E+02  0.42010801662E+02 -0.24731232180E+03  0.25264220387E+03  0.10000000000E+01 0.  0.
    9000005    1    3    3    0    0 -0.98086949345E+02  0.69376394686E+01 -0.56811731902E+03  0.57656523364E+03  0.10000000000E+01 0.  0.
<mgrwt>
<rscale>  0 0.14335866E+03</rscale>
<asrwt>0</asrwt>
<pdfrwt beam="2">  1        2 0.21200511E+00 0.15053065E+03</pdfrwt>
<pdfrwt beam="1">  1       -2 0.21210780E-02 0.15053065E+03</pdfrwt>
<totfact> 0.10992001E+04</totfact>
</mgrwt>
</event>
<event>
 8    2  0.8128359E-004  0.1403340E+03  0.7818608E-02  0.1223519E+00
          2   -1    0    0  501    0  0.00000000000E+00  0.00000000000E+00  0.38888850303E+03  0.38888850304E+03  0.25500000000E-02 0. -1.
         -2   -1    0    0    0  501 -0.00000000000E+00 -0.00000000000E+00 -0.41117844276E+02  0.41117844355E+02  0.25500000000E-02 0.  1.
         25    2    1    2    0    0  0.15494365383E+02  0.61884988983E+02  0.18111301115E+03  0.22911906133E+03  0.12499517685E+03 0.  0.
         23    2    1    2    0    0 -0.15494365383E+02 -0.61884988983E+02  0.16665764760E+03  0.20088728606E+03  0.92255639278E+02 0.  0.
        -11    1    4    4    0    0 -0.30432831069E+01 -0.36793015462E+02  0.55151863735E+01  0.37328338295E+02  0.51100000000E-03 0.  1.
         11    1    4    4    0    0 -0.12451082276E+02 -0.25091973521E+02  0.16114246123E+03  0.16355894777E+03  0.51100000000E-03 0. -1.
    9000005    1    3    3    0    0 -0.29051344669E+02  0.11246829390E+01 -0.39011902408E+01  0.29350721015E+02  0.10000000000E+01 0.  0.
    9000005    1    3    3    0    0  0.44545710052E+02  0.60760306044E+02  0.18501420139E+03  0.19976834031E+03  0.10000000000E+01 0.  0.
<mgrwt>
<rscale>  0 0.13268939E+03</rscale>
<asrwt>0</asrwt>
<pdfrwt beam="1">  1        2 0.59828999E-01 0.14033396E+03</pdfrwt>
<pdfrwt beam="2">  1       -2 0.63258223E-02 0.14033396E+03</pdfrwt>
<totfact> 0.10671192E+04</totfact>
</mgrwt>
</event>
<event>
 8    2  0.8128359E-004  0.1311151E+03  0.7818608E-02  0.1246939E+00
          2   -1    0    0  501    0  0.00000000000E+00  0.00000000000E+00  0.11846664383E+03  0.11846664386E+03  0.25500000000E-02 0.  1.
         -2   -1    0    0    0  501 -0.00000000000E+00 -0.00000000000E+00 -0.98886001747E+02  0.98886001780E+02  0.25500000000E-02 0. -1.
         25    2    1    2    0    0 -0.25446069267E+02 -0.30207681992E+02  0.16539652117E+02  0.13215423354E+03  0.12502469700E+03 0.  0.
         23    2    1    2    0    0  0.25446069267E+02  0.30207681992E+02  0.30409899645E+01  0.85198412093E+02  0.75428875841E+02 0.  0.
        -11    1    4    4    0    0  0.32652746837E+02  0.45753024742E+02  0.21344801861E+02  0.60126048563E+02  0.51100000000E-03 0.  1.
         11    1    4    4    0    0 -0.72066775696E+01 -0.15545342750E+02 -0.18303811896E+02  0.25072363530E+02  0.51100000000E-03 0. -1.
    9000005    1    3    3    0    0 -0.68661433278E+02 -0.22536797379E+02 -0.20051574728E+02  0.75002435327E+02  0.10000000000E+01 0.  0.
    9000005    1    3    3    0    0  0.43215364011E+02 -0.76708846131E+01  0.36591226845E+02  0.57151798216E+02  0.10000000000E+01 0.  0.
<mgrwt>
<rscale>  0 0.11770050E+03</rscale>
<asrwt>0</asrwt>
<pdfrwt beam="1">  1        2 0.18225637E-01 0.13111515E+03</pdfrwt>
<pdfrwt beam="2">  1       -2 0.15213231E-01 0.13111515E+03</pdfrwt>
<totfact> 0.97055511E+03</totfact>
</mgrwt>
</event>
<event>
 8    2  0.8128359E-004  0.1299779E+03  0.7818608E-02  0.1241248E+00
          2   -1    0    0  501    0  0.00000000000E+00  0.00000000000E+00  0.56216253697E+03  0.56216253698E+03  0.25500000000E-02 0. -1.
         -2   -1    0    0    0  501 -0.00000000000E+00 -0.00000000000E+00 -0.25671738834E+02  0.25671738961E+02  0.25500000000E-02 0.  1.
         25    2    1    2    0    0 -0.28839464370E+02  0.20918904641E+02  0.21024528388E+03  0.24717877335E+03  0.12499980531E+03 0.  0.
         23    2    1    2    0    0  0.28839464370E+02 -0.20918904641E+02  0.32624551426E+03  0.34065550258E+03  0.91327545627E+02 0.  0.
        -11    1    4    4    0    0 -0.98507360412E+01  0.73080552647E+01  0.25203218383E+03  0.25233047053E+03  0.51100000000E-03 0. -1.
         11    1    4    4    0    0  0.38690200411E+02 -0.28226959906E+02  0.74213330427E+02  0.88325032050E+02  0.51100000000E-03 0.  1.
    9000005    1    3    3    0    0 -0.54283560483E+02 -0.13339540136E+02  0.19335115726E+03  0.20127175232E+03  0.10000000000E+01 0.  0.
    9000005    1    3    3    0    0  0.25444096113E+02  0.34258444777E+02  0.16894126616E+02  0.45907021028E+02  0.10000000000E+01 0.  0.
<mgrwt>
<rscale>  0 0.12112754E+03</rscale>
<asrwt>0</asrwt>
<pdfrwt beam="1">  1        2 0.86486544E-01 0.12997795E+03</pdfrwt>
<pdfrwt beam="2">  1       -2 0.39494983E-02 0.12997795E+03</pdfrwt>
<totfact> 0.14409278E+04</totfact>
</mgrwt>
</event>
<event>
 8    2  0.8128359E-004  0.1773563E+03  0.7818608E-02  0.1176505E+00
          2   -1    0    0  501    0  0.00000000000E+00  0.00000000000E+00  0.81910578732E+02  0.81910578772E+02  0.25500000000E-02 0. -1.
         -2   -1    0    0    0  501 -0.00000000000E+00 -0.00000000000E+00 -0.10765760518E+04  0.10765760518E+04  0.25500000000E-02 0.  1.
         25    2    1    2    0    0 -0.53848543067E+02  0.11371379938E+03 -0.98824108043E+03  0.10040297232E+04  0.12499903313E+03 0.  0.
         23    2    1    2    0    0  0.53848543067E+02 -0.11371379938E+03 -0.64243926185E+01  0.15445690734E+03  0.89359776436E+02 0.  0.
        -11    1    4    4    0    0 -0.13809366310E+02 -0.37837966607E+02 -0.29848505311E+02  0.50133258267E+02  0.51100000000E-03 0.  1.
         11    1    4    4    0    0  0.67657909378E+02 -0.75875832777E+02  0.23424112693E+02  0.10432364908E+03  0.51100000000E-03 0. -1.
    9000005    1    3    3    0    0 -0.78366306278E+02  0.51168597515E+02 -0.77035393269E+03  0.77601912666E+03  0.10000000000E+01 0.  0.
    9000005    1    3    3    0    0  0.24517763210E+02  0.62545201869E+02 -0.21788714774E+03  0.22801059655E+03  0.10000000000E+01 0.  0.
<mgrwt>
<rscale>  0 0.17129425E+03</rscale>
<asrwt>0</asrwt>
<pdfrwt beam="1">  1        2 0.12601628E-01 0.17735629E+03</pdfrwt>
<pdfrwt beam="2">  1       -2 0.16562708E+00 0.17735629E+03</pdfrwt>
<totfact> 0.11827862E+02</totfact>
</mgrwt>
</event>
<event>
 8    2  0.8128359E-004  0.1318863E+03  0.7818608E-02  0.1237590E+00
          2   -1    0    0  501    0  0.00000000000E+00  0.00000000000E+00  0.41714127201E+04  0.41714127201E+04  0.25500000000E-02 0. -1.
         -2   -1    0    0    0  501 -0.00000000000E+00 -0.00000000000E+00 -0.40373418070E+01  0.40373426122E+01  0.25500000000E-02 0.  1.
         25    2    1    2    0    0 -0.53714330532E+01  0.41718929359E+02  0.32195063993E+04  0.32222066126E+04  0.12499871256E+03 0.  0.
         23    2    1    2    0    0  0.53714330532E+01 -0.41718929359E+02  0.94786897908E+03  0.95324345014E+03  0.91913831294E+02 0.  0.
        -11    1    4    4    0    0 -0.31172454611E+02 -0.34209829786E+02  0.77566514634E+03  0.77704469217E+03  0.51100000000E-03 0. -1.
         11    1    4    4    0    0  0.36543887664E+02 -0.75090995728E+01  0.17220383274E+03  0.17619875798E+03  0.51100000000E-03 0.  1.
    9000005    1    3    3    0    0  0.29237163383E+02  0.55957559437E+02  0.82689727625E+03  0.82930462777E+03  0.10000000000E+01 0.  0.
    9000005    1    3    3    0    0 -0.34608596436E+02 -0.14238630078E+02  0.23926091230E+04  0.23929019848E+04  0.10000000000E+01 0.  0.
<mgrwt>
<rscale>  0 0.12340073E+03</rscale>
<asrwt>0</asrwt>
<pdfrwt beam="1">  1        2 0.64175635E+00 0.13188631E+03</pdfrwt>
<pdfrwt beam="2">  1       -2 0.62112904E-03 0.13188631E+03</pdfrwt>
<totfact> 0.14507187E+03</totfact>
</mgrwt>
</event>
<event>
 8    2  0.8128359E-004  0.1746710E+03  0.7818608E-02  0.1178546E+00
          2   -1    0    0  501    0  0.00000000000E+00  0.00000000000E+00  0.62291410918E+02  0.62291410970E+02  0.25500000000E-02 0. -1.
         -2   -1    0    0    0  501 -0.00000000000E+00 -0.00000000000E+00 -0.62655460140E+03  0.62655460141E+03  0.25500000000E-02 0.  1.
         25    2    1    2    0    0  0.23070228557E+02 -0.11980347344E+03 -0.48480170455E+03  0.51530830180E+03  0.12499938192E+03 0.  0.
         23    2    1    2    0    0 -0.23070228557E+02  0.11980347344E+03 -0.79461485938E+02  0.17353771058E+03  0.94425110798E+02 0.  0.
        -11    1    4    4    0    0  0.20940128452E+02  0.10030755006E+03 -0.35779895150E+02  0.10853706499E+03  0.51100000000E-03 0.  1.
         11    1    4    4    0    0 -0.44010357009E+02  0.19495923380E+02 -0.43681590787E+02  0.65000645585E+02  0.51100000000E-03 0. -1.
    9000005    1    3    3    0    0 -0.41221854477E+02 -0.42310235505E+02 -0.88457331463E+02  0.10637244382E+03  0.10000000000E+01 0.  0.
    9000005    1    3    3    0    0  0.64292083033E+02 -0.77493237939E+02 -0.39634437308E+03  0.40893585798E+03  0.10000000000E+01 0.  0.
<mgrwt>
<rscale>  0 0.16933255E+03</rscale>
<asrwt>0</asrwt>
<pdfrwt beam="1">  1        2 0.95832944E-02 0.17467099E+03</pdfrwt>
<pdfrwt beam="2">  1       -2 0.96393011E-01 0.17467099E+03</pdfrwt>
<totfact> 0.62485229E+02</totfact>
</mgrwt>
</event>
<event>
 8    2  0.8128359E-004  0.3808911E+03  0.7818608E-02  0.1051499E+00
         -2   -1    0    0    0  501 -0.00000000000E+00  0.00000000000E+00  0.32515847848E+03  0.32515847849E+03  0.25500000000E-02 0.  1.
          2   -1    0    0  501    0  0.00000000000E+00 -0.00000000000E+00 -0.45871237856E+03  0.45871237856E+03  0.25500000000E-02 0. -1.
         25    2    1    2    0    0  0.72669172296E+02 -0.35238166312E+03  0.21460634040E+02  0.38149519928E+03  0.12499753262E+03 0.  0.
         23    2    1    2    0    0 -0.72669172296E+02  0.35238166312E+03 -0.15501453412E+03  0.40237565777E+03  0.91777007339E+02 0.  0.
        -11    1    4    4    0    0 -0.35136744811E+02  0.29016587489E+03 -0.92640604288E+02  0.30661556932E+03  0.51100000000E-03 0.  1.
         11    1    4    4    0    0 -0.37532427485E+02  0.62215788228E+02 -0.62373929829E+02  0.95760088452E+02  0.51100000000E-03 0. -1.
    9000005    1    3    3    0    0 -0.75804084262E+01 -0.23356779218E+03  0.39422752760E+02  0.23699478807E+03  0.10000000000E+01 0.  0.
    9000005    1    3    3    0    0  0.80249580722E+02 -0.11881387093E+03 -0.17962118720E+02  0.14450041121E+03  0.10000000000E+01 0.  0.
<mgrwt>
<rscale>  0 0.37847480E+03</rscale>
<asrwt>0</asrwt>
<pdfrwt beam="2">  1        2 0.70571135E-01 0.38089110E+03</pdfrwt>
<pdfrwt beam="1">  1       -2 0.50024381E-01 0.38089110E+03</pdfrwt>
<totfact> 0.26348548E+02</totfact>
</mgrwt>
</event>
<event>
 8    2  0.8128359E-004  0.1675398E+03  0.7818608E-02  0.1186846E+00
          2   -1    0    0  501    0  0.00000000000E+00  0.00000000000E+00  0.12190665621E+04  0.12190665621E+04  0.25500000000E-02 0. -1.
         -2   -1    0    0    0  501 -0.00000000000E+00 -0.00000000000E+00 -0.25830014382E+02  0.25830014507E+02  0.25500000000E-02 0.  1.
         25    2    1    2    0    0  0.17801379328E+02 -0.11012139437E+03  0.92339938810E+03  0.93847537339E+03  0.12500394362E+03 0.  0.
         23    2    1    2    0    0 -0.17801379328E+02  0.11012139437E+03  0.26983715962E+03  0.30642120322E+03  0.92942188838E+02 0.  0.
        -11    1    4    4    0    0  0.10150267315E+02  0.11086031769E+03  0.24465388244E+03  0.26879092276E+03  0.51100000000E-03 0. -1.
         11    1    4    4    0    0 -0.27951646643E+02 -0.73892331827E+00  0.25183277185E+02  0.37630280464E+02  0.51100000000E-03 0.  1.
    9000005    1    3    3    0    0 -0.29747590199E+02 -0.85488467761E+02  0.78285600119E+03  0.78807215142E+03  0.10000000000E+01 0.  0.
    9000005    1    3    3    0    0  0.47548969528E+02 -0.24632926608E+02  0.14054338691E+03  0.15040322197E+03  0.10000000000E+01 0.  0.
<mgrwt>
<rscale>  0 0.16165055E+03</rscale>
<asrwt>0</asrwt>
<pdfrwt beam="1">  1        2 0.18754869E+00 0.16753984E+03</pdfrwt>
<pdfrwt beam="2">  1       -2 0.39738486E-02 0.16753984E+03</pdfrwt>
<totfact> 0.53358170E+03</totfact>
</mgrwt>
</event>
<event>
 8    2  0.8128359E-004  0.1833844E+03  0.7818608E-02  0.1169991E+00
          2   -1    0    0  501    0  0.00000000000E+00  0.00000000000E+00  0.11207524832E+04  0.11207524832E+04  0.25500000000E-02 0. -1.
         -2   -1    0    0    0  501 -0.00000000000E+00 -0.00000000000E+00 -0.37354337647E+02  0.37354337734E+02  0.25500000000E-02 0.  1.
         25    2    1    2    0    0 -0.12575374325E+03 -0.46801491561E+02  0.87608119596E+03  0.89506877815E+03  0.12500188856E+03 0.  0.
         23    2    1    2    0    0  0.12575374325E+03  0.46801491561E+02  0.20731694963E+03  0.26303804283E+03  0.90577650757E+02 0.  0.
        -11    1    4    4    0    0  0.10074718276E+03  0.71998708453E+02  0.13979206814E+03  0.18675018385E+03  0.51100000000E-03 0. -1.
         11    1    4    4    0    0  0.25006560489E+02 -0.25197216892E+02  0.67524881492E+02  0.76287858978E+02  0.51100000000E-03 0.  1.
    9000005    1    3    3    0    0 -0.12582417869E+03 -0.25463780663E+02  0.85657321275E+03  0.86614017160E+03  0.10000000000E+01 0.  0.
    9000005    1    3    3    0    0  0.70435443455E-01 -0.21337710898E+02  0.19507983216E+02  0.28928606546E+02  0.10000000000E+01 0.  0.
<mgrwt>
<rscale>  0 0.17775734E+03</rscale>
<asrwt>0</asrwt>
<pdfrwt beam="1">  1        2 0.17242344E+00 0.18338445E+03</pdfrwt>
<pdfrwt beam="2">  1       -2 0.57468217E-02 0.18338445E+03</pdfrwt>
<totfact> 0.34844901E+03</totfact>
</mgrwt>
</event>
<event>
 8    2  0.8128359E-004  0.2903713E+03  0.7818608E-02  0.1091929E+00
         -2   -1    0    0    0  501 -0.00000000000E+00  0.00000000000E+00  0.35550419079E+02  0.35550419171E+02  0.25500000000E-02 0.  1.
          2   -1    0    0  501    0  0.00000000000E+00 -0.00000000000E+00 -0.24091105852E+04  0.24091105852E+04  0.25500000000E-02 0. -1.
         25    2    1    2    0    0 -0.29450846696E+02  0.26043139015E+03 -0.15122332561E+04  0.15398587404E+04  0.12499463283E+03 0.  0.
         23    2    1    2    0    0  0.29450846696E+02 -0.26043139015E+03 -0.86132691004E+03  0.90480226397E+03  0.89951262302E+02 0.  0.
        -11    1    4    4    0    0 -0.85082688639E+00 -0.99412279694E+02 -0.19822712308E+03  0.22176004506E+03  0.51100000000E-03 0.  1.
         11    1    4    4    0    0  0.30301673583E+02 -0.16101911045E+03 -0.66309978695E+03  0.68304221891E+03  0.51100000000E-03 0. -1.
    9000005    1    3    3    0    0 -0.43565716954E+02  0.20759203814E+02 -0.19214923666E+03  0.19811927061E+03  0.10000000000E+01 0.  0.
    9000005    1    3    3    0    0  0.14114870258E+02  0.23967218633E+03 -0.13200840194E+04  0.13417394698E+04  0.10000000000E+01 0.  0.
<mgrwt>
<rscale>  0 0.28699446E+03</rscale>
<asrwt>0</asrwt>
<pdfrwt beam="2">  1        2 0.37063227E+00 0.29037135E+03</pdfrwt>
<pdfrwt beam="1">  1       -2 0.54692971E-02 0.29037135E+03</pdfrwt>
<totfact> 0.76493374E+02</totfact>
</mgrwt>
</event>
<event>
 8    2  0.8128359E-004  0.1382088E+03  0.7818608E-02  0.1227457E+00
         -2   -1    0    0    0  501 -0.00000000000E+00  0.00000000000E+00  0.14741944690E+03  0.14741944693E+03  0.25500000000E-02 0.  1.
          2   -1    0    0  501    0  0.00000000000E+00 -0.00000000000E+00 -0.11101169973E+03  0.11101169976E+03  0.25500000000E-02 0. -1.
         25    2    1    2    0    0  0.45070264324E+02 -0.38005212292E+02  0.54836724806E+02  0.14869005275E+03  0.12500376199E+03 0.  0.
         23    2    1    2    0    0 -0.45070264324E+02  0.38005212292E+02 -0.18428977637E+02  0.10974109394E+03  0.90706976553E+02 0.  0.
        -11    1    4    4    0    0  0.13722901156E+02  0.26548557837E+02  0.22315666059E+02  0.37297893926E+02  0.51100000000E-03 0.  1.
         11    1    4    4    0    0 -0.58793165480E+02  0.11456654455E+02 -0.40744643695E+02  0.72443200016E+02  0.51100000000E-03 0. -1.
    9000005    1    3    3    0    0  0.55931279445E+02 -0.78476710725E+01  0.86702754653E+02  0.10348073070E+03  0.10000000000E+01 0.  0.
    9000005    1    3    3    0    0 -0.10861015121E+02 -0.30157541220E+02 -0.31866029847E+02  0.45209322049E+02  0.10000000000E+01 0.  0.
<mgrwt>
<rscale>  0 0.12999932E+03</rscale>
<asrwt>0</asrwt>
<pdfrwt beam="2">  1        2 0.17078723E-01 0.13820877E+03</pdfrwt>
<pdfrwt beam="1">  1       -2 0.22679915E-01 0.13820877E+03</pdfrwt>
<totfact> 0.53746611E+03</totfact>
</mgrwt>
</event>
<event>
 8    2  0.8128359E-004  0.1810442E+03  0.7818608E-02  0.1172194E+00
         -2   -1    0    0    0  501 -0.00000000000E+00  0.00000000000E+00  0.40896233849E+03  0.40896233850E+03  0.25500000000E-02 0.  1.
          2   -1    0    0  501    0  0.00000000000E+00 -0.00000000000E+00 -0.71386032794E+02  0.71386032839E+02  0.25500000000E-02 0. -1.
         25    2    1    2    0    0  0.49672440378E+02  0.12115160340E+03  0.16402359335E+03  0.24429644934E+03  0.12502781148E+03 0.  0.
         23    2    1    2    0    0 -0.49672440378E+02 -0.12115160340E+03  0.17355271234E+03  0.23605192200E+03  0.91950549630E+02 0.  0.
        -11    1    4    4    0    0 -0.94651905495E+01 -0.56007370832E+00  0.73962296577E+02  0.74567585651E+02  0.51100000000E-03 0.  1.
         11    1    4    4    0    0 -0.40207249829E+02 -0.12059152969E+03  0.99590415766E+02  0.16148433635E+03  0.51100000000E-03 0. -1.
    9000005    1    3    3    0    0  0.50148893097E+02  0.83822030984E+02  0.25682553147E+02  0.10100315784E+03  0.10000000000E+01 0.  0.
    9000005    1    3    3    0    0 -0.47645271904E+00  0.37329572416E+02  0.13834104021E+03  0.14329329150E+03  0.10000000000E+01 0.  0.
<mgrwt>
<rscale>  0 0.17553691E+03</rscale>
<asrwt>0</asrwt>
<pdfrwt beam="2">  1        2 0.10982467E-01 0.18104424E+03</pdfrwt>
<pdfrwt beam="1">  1       -2 0.62917282E-01 0.18104424E+03</pdfrwt>
<totfact> 0.13436063E+03</totfact>
</mgrwt>
</event>
<event>
 8    2  0.8128359E-004  0.1633902E+03  0.7818608E-02  0.1191757E+00
          2   -1    0    0  501    0  0.00000000000E+00  0.00000000000E+00  0.72482605527E+03  0.72482605527E+03  0.25500000000E-02 0. -1.
         -2   -1    0    0    0  501 -0.00000000000E+00 -0.00000000000E+00 -0.32995792211E+02  0.32995792310E+02  0.25500000000E-02 0.  1.
         25    2    1    2    0    0  0.17745719110E+02 -0.10371336910E+03  0.30032983338E+03  0.34189818361E+03  0.12499994265E+03 0.  0.
         23    2    1    2    0    0 -0.17745719110E+02  0.10371336910E+03  0.39150042968E+03  0.41592366397E+03  0.92997496404E+02 0.  0.
        -11    1    4    4    0    0 -0.42559283214E+02  0.89444417680E+02  0.35992053557E+03  0.37330200691E+03  0.51100000000E-03 0. -1.
         11    1    4    4    0    0  0.24813564104E+02  0.14268951420E+02  0.31579894110E+02  0.42621657059E+02  0.51100000000E-03 0.  1.
    9000005    1    3    3    0    0 -0.43100072267E+02 -0.67628894626E+02  0.22350946883E+03  0.23746318930E+03  0.10000000000E+01 0.  0.
    9000005    1    3    3    0    0  0.60845791377E+02 -0.36084474475E+02  0.76820364551E+02  0.10443499431E+03  0.10000000000E+01 0.  0.
<mgrwt>
<rscale>  0 0.15731952E+03</rscale>
<asrwt>0</asrwt>
<pdfrwt beam="1">  1        2 0.11151168E+00 0.16339021E+03</pdfrwt>
<pdfrwt beam="2">  1       -2 0.50762765E-02 0.16339021E+03</pdfrwt>
<totfact> 0.74778275E+03</totfact>
</mgrwt>
</event>
<event>
 8    2  0.8128359E-004  0.1394565E+03  0.7818608E-02  0.1226136E+00
          2   -1    0    0  501    0  0.00000000000E+00  0.00000000000E+00  0.20800772205E+04  0.20800772205E+04  0.25500000000E-02 0. -1.
         -2   -1    0    0    0  501 -0.00000000000E+00 -0.00000000000E+00 -0.85308048834E+01  0.85308052645E+01  0.25500000000E-02 0.  1.
         25    2    1    2    0    0  0.14195777333E+02 -0.60177769096E+02  0.76663089638E+03  0.77921180969E+03  0.12500091635E+03 0.  0.
         23    2    1    2    0    0 -0.14195777333E+02  0.60177769096E+02  0.13049155192E+04  0.13093962160E+04  0.88831606663E+02 0.  0.
        -11    1    4    4    0    0 -0.19939445539E+02 -0.19744304634E+02  0.35464154300E+03  0.35574997270E+03  0.51100000000E-03 0.  1.
         11    1    4    4    0    0  0.57436682068E+01  0.79922073730E+02  0.95027397621E+03  0.95364624335E+03  0.51100000000E-03 0. -1.
    9000005    1    3    3    0    0 -0.21951688264E+02 -0.43087333034E+02  0.97024367411E+02  0.10841182019E+03  0.10000000000E+01 0.  0.
    9000005    1    3    3    0    0  0.36147465596E+02 -0.17090436062E+02  0.66960652897E+03  0.67079998950E+03  0.10000000000E+01 0.  0.
<mgrwt>
<rscale>  0 0.13089315E+03</rscale>
<asrwt>0</asrwt>
<pdfrwt beam="1">  1        2 0.32001175E+00 0.13945649E+03</pdfrwt>
<pdfrwt beam="2">  1       -2 0.13124321E-02 0.13945649E+03</pdfrwt>
<totfact> 0.95292190E+03</totfact>
</mgrwt>
</event>
<event>
 8    2  0.8128359E-004  0.1528047E+03  0.7818608E-02  0.1206003E+00
          2   -1    0    0  501    0  0.00000000000E+00  0.00000000000E+00  0.22452558298E+02  0.22452558443E+02  0.25500000000E-02 0. -1.
         -2   -1    0    0    0  501 -0.00000000000E+00 -0.00000000000E+00 -0.87209251075E+03  0.87209251075E+03  0.25500000000E-02 0.  1.
         25    2    1    2    0    0 -0.58638533483E+02  0.65464792707E+02 -0.50562475772E+03  0.52820987739E+03  0.12500064903E+03 0.  0.
         23    2    1    2    0    0  0.58638533483E+02 -0.65464792707E+02 -0.34401519473E+03  0.36633519180E+03  0.90171513557E+02 0.  0.
        -11    1    4    4    0    0  0.26334134871E+02 -0.39455927954E+02 -0.48202772068E+02  0.67629609975E+02  0.51100000000E-03 0. -1.
         11    1    4    4    0    0  0.32304398612E+02 -0.26008864753E+02 -0.29581242266E+03  0.29870558183E+03  0.51100000000E-03 0.  1.
    9000005    1    3    3    0    0 -0.43809971739E+02  0.29346709041E+02 -0.56125298265E+02  0.77016829723E+02  0.10000000000E+01 0.  0.
    9000005    1    3    3    0    0 -0.14828561745E+02  0.36118083666E+02 -0.44949945946E+03  0.45119304767E+03  0.10000000000E+01 0.  0.
<mgrwt>
<rscale>  0 0.14558727E+03</rscale>
<asrwt>0</asrwt>
<pdfrwt beam="1">  1        2 0.34542404E-02 0.15280471E+03</pdfrwt>
<pdfrwt beam="2">  1       -2 0.13416805E+00 0.15280471E+03</pdfrwt>
<totfact> 0.10610185E+03</totfact>
</mgrwt>
</event>
<event>
 8    2  0.8128359E-004  0.1747495E+03  0.7818608E-02  0.1179121E+00
         -2   -1    0    0    0  501 -0.00000000000E+00  0.00000000000E+00  0.98341671591E+02  0.98341671624E+02  0.25500000000E-02 0.  1.
          2   -1    0    0  501    0  0.00000000000E+00 -0.00000000000E+00 -0.41226584749E+03  0.41226584750E+03  0.25500000000E-02 0. -1.
         25    2    1    2    0    0 -0.11686730706E+03  0.35405753178E+02 -0.31304934140E+03  0.35852095999E+03  0.12500341509E+03 0.  0.
         23    2    1    2    0    0  0.11686730706E+03 -0.35405753178E+02 -0.87483450071E+00  0.15208655913E+03  0.90653302847E+02 0.  0.
        -11    1    4    4    0    0  0.62824511966E+02  0.12392960840E+02  0.33387290710E+02  0.72216452165E+02  0.51100000000E-03 0.  1.
         11    1    4    4    0    0  0.54042795090E+02 -0.47798714018E+02 -0.34262125210E+02  0.79870106968E+02  0.51100000000E-03 0. -1.
    9000005    1    3    3    0    0 -0.12253394454E+03  0.30469064757E+02 -0.15336784565E+03  0.19865957704E+03  0.10000000000E+01 0.  0.
    9000005    1    3    3    0    0  0.56666374844E+01  0.49366884206E+01 -0.15968149575E+03  0.15986138295E+03  0.10000000000E+01 0.  0.
<mgrwt>
<rscale>  0 0.16878462E+03</rscale>
<asrwt>0</asrwt>
<pdfrwt beam="2">  1        2 0.63425514E-01 0.17474950E+03</pdfrwt>
<pdfrwt beam="1">  1       -2 0.15129488E-01 0.17474950E+03</pdfrwt>
<totfact> 0.25631983E+03</totfact>
</mgrwt>
</event>
<event>
 8    2  0.8128359E-004  0.1356227E+03  0.7818608E-02  0.1231421E+00
          2   -1    0    0  501    0  0.00000000000E+00  0.00000000000E+00  0.86104008332E+03  0.86104008332E+03  0.25500000000E-02 0. -1.
         -2   -1    0    0    0  501 -0.00000000000E+00 -0.00000000000E+00 -0.16914953551E+02  0.16914953743E+02  0.25500000000E-02 0.  1.
         25    2    1    2    0    0  0.32503593934E+02  0.41371208621E+02  0.45447167568E+03  0.47427630674E+03  0.12500180247E+03 0.  0.
         23    2    1    2    0    0 -0.32503593934E+02 -0.41371208621E+02  0.38965345409E+03  0.40367873032E+03  0.91425611899E+02 0.  0.
        -11    1    4    4    0    0  0.20013642368E+02 -0.45392778358E+02  0.14000084829E+03  0.14853042695E+03  0.51100000000E-03 0.  1.
         11    1    4    4    0    0 -0.52517236302E+02  0.40215697371E+01  0.24965260580E+03  0.25514830337E+03  0.51100000000E-03 0. -1.
    9000005    1    3    3    0    0  0.65901092787E+02  0.94316037075E+01  0.38576512353E+03  0.39146856798E+03  0.10000000000E+01 0.  0.
    9000005    1    3    3    0    0 -0.33397498853E+02  0.31939604914E+02  0.68706552144E+02  0.82807738764E+02  0.10000000000E+01 0.  0.
<mgrwt>
<rscale>  0 0.12736352E+03</rscale>
<asrwt>0</asrwt>
<pdfrwt beam="1">  1        2 0.13246773E+00 0.13562268E+03</pdfrwt>
<pdfrwt beam="2">  1       -2 0.26023001E-02 0.13562268E+03</pdfrwt>
<totfact> 0.16092248E+04</totfact>
</mgrwt>
</event>
<event>
 8    2  0.8128359E-004  0.1716303E+03  0.7818608E-02  0.1182683E+00
         -2   -1    0    0    0  501 -0.00000000000E+00  0.00000000000E+00  0.13072693194E+02  0.13072693443E+02  0.25500000000E-02 0.  1.
          2   -1    0    0  501    0  0.00000000000E+00 -0.00000000000E+00 -0.21200072487E+04  0.21200072487E+04  0.25500000000E-02 0. -1.
         25    2    1    2    0    0 -0.37591892522E+02  0.11143964537E+03 -0.82890364434E+03  0.84648579518E+03  0.12500001963E+03 0.  0.
         23    2    1    2    0    0  0.37591892522E+02 -0.11143964537E+03 -0.12780309111E+04  0.12865941469E+04  0.90163984791E+02 0.  0.
        -11    1    4    4    0    0 -0.23114003316E+02 -0.59167553295E+02 -0.72708667620E+03  0.72985621270E+03  0.51100000000E-03 0. -1.
         11    1    4    4    0    0  0.60705895839E+02 -0.52272092071E+02 -0.55094423493E+03  0.55673793423E+03  0.51100000000E-03 0.  1.
    9000005    1    3    3    0    0 -0.37041132457E+02  0.12956636211E+03 -0.52432329317E+03  0.54136439063E+03  0.10000000000E+01 0.  0.
    9000005    1    3    3    0    0 -0.55076006509E+00 -0.18126716748E+02 -0.30458035116E+03  0.30512140455E+03  0.10000000000E+01 0.  0.
<mgrwt>
<rscale>  0 0.16544481E+03</rscale>
<asrwt>0</asrwt>
<pdfrwt beam="2">  1        2 0.32615469E+00 0.17163027E+03</pdfrwt>
<pdfrwt beam="1">  1       -2 0.20111853E-02 0.17163027E+03</pdfrwt>
<totfact> 0.49124231E+03</totfact>
</mgrwt>
</event>
<event>
 8    2  0.8128359E-004  0.1260932E+03  0.7818608E-02  0.1248641E+00
          2   -1    0    0  501    0  0.00000000000E+00  0.00000000000E+00  0.14753017340E+03  0.14753017342E+03  0.25500000000E-02 0. -1.
         -2   -1    0    0    0  501 -0.00000000000E+00 -0.00000000000E+00 -0.80983762416E+02  0.80983762456E+02  0.25500000000E-02 0.  1.
         25    2    1    2    0    0 -0.41473582927E+01  0.16012612665E+02  0.38405151248E+02  0.13181220881E+03  0.12500359356E+03 0.  0.
         23    2    1    2    0    0  0.41473582927E+01 -0.16012612665E+02  0.28141259734E+02  0.96701727068E+02  0.91025761042E+02 0.  0.
        -11    1    4    4    0    0 -0.35516540102E+02  0.92412919545E+01 -0.77984568678E+01  0.37518555777E+02  0.51100000000E-03 0. -1.
         11    1    4    4    0    0  0.39663898394E+02 -0.25253904620E+02  0.35939716602E+02  0.59183171291E+02  0.51100000000E-03 0.  1.
    9000005    1    3    3    0    0  0.45238244774E+01  0.35582542584E+02  0.78521251578E+02  0.86331739668E+02  0.10000000000E+01 0.  0.
    9000005    1    3    3    0    0 -0.86711827701E+01 -0.19569929919E+02 -0.40116100330E+02  0.45480469142E+02  0.10000000000E+01 0.  0.
<mgrwt>
<rscale>  0 0.11670073E+03</rscale>
<asrwt>0</asrwt>
<pdfrwt beam="1">  1        2 0.22696949E-01 0.12609323E+03</pdfrwt>
<pdfrwt beam="2">  1       -2 0.12459041E-01 0.12609323E+03</pdfrwt>
<totfact> 0.10435229E+04</totfact>
</mgrwt>
</event>
<event>
 8    2  0.8128359E-004  0.1909753E+03  0.7818608E-02  0.1162606E+00
         -2   -1    0    0    0  501 -0.00000000000E+00  0.00000000000E+00  0.77416012180E+02  0.77416012222E+02  0.25500000000E-02 0.  1.
          2   -1    0    0  501    0  0.00000000000E+00 -0.00000000000E+00 -0.43218787449E+03  0.43218787450E+03  0.25500000000E-02 0. -1.
         25    2    1    2    0    0 -0.29171406144E+02 -0.14140288201E+03 -0.22915666354E+03  0.29830243289E+03  0.12500327616E+03 0.  0.
         23    2    1    2    0    0  0.29171406144E+02  0.14140288201E+03 -0.12561519877E+03  0.21130145382E+03  0.89573323310E+02 0.  0.
        -11    1    4    4    0    0  0.39507569268E+02  0.11664380036E+03 -0.53341775424E+02  0.13420867780E+03  0.51100000000E-03 0. -1.
         11    1    4    4    0    0 -0.10336163123E+02  0.24759081651E+02 -0.72273423348E+02  0.77092776024E+02  0.51100000000E-03 0.  1.
    9000005    1    3    3    0    0  0.47298350340E+02 -0.79771007792E+02 -0.11289812860E+03  0.14610795690E+03  0.10000000000E+01 0.  0.
    9000005    1    3    3    0    0 -0.76469756485E+02 -0.61631874217E+02 -0.11625853494E+03  0.15219447599E+03  0.10000000000E+01 0.  0.
<mgrwt>
<rscale>  0 0.18547574E+03</rscale>
<asrwt>0</asrwt>
<pdfrwt beam="2">  1        2 0.66490441E-01 0.19097530E+03</pdfrwt>
<pdfrwt beam="1">  1       -2 0.11910156E-01 0.19097530E+03</pdfrwt>
<totfact> 0.36051553E+03</totfact>
</mgrwt>
</event>
<event>
 8    2  0.8128359E-004  0.2036793E+03  0.7818608E-02  0.1150944E+00
         -2   -1    0    0    0  501 -0.00000000000E+00  0.00000000000E+00  0.17946871322E+02  0.17946871503E+02  0.25500000000E-02 0. -1.
          2   -1    0    0  501    0  0.00000000000E+00 -0.00000000000E+00 -0.24185240735E+04  0.24185240735E+04  0.25500000000E-02 0.  1.
         25    2    1    2    0    0 -0.97648747627E+02  0.12776596872E+03 -0.16987577341E+04  0.17109246369E+04  0.12500341383E+03 0.  0.
         23    2    1    2    0    0  0.97648747627E+02 -0.12776596872E+03 -0.70181946812E+03  0.72554630810E+03  0.89484404728E+02 0.  0.
        -11    1    4    4    0    0  0.92559984752E+02 -0.71745931658E+02 -0.57510395032E+03  0.58690662218E+03  0.51100000000E-03 0.  1.
         11    1    4    4    0    0  0.50887628753E+01 -0.56020037061E+02 -0.12671551780E+03  0.13863968592E+03  0.51100000000E-03 0. -1.
    9000005    1    3    3    0    0 -0.12034681591E+03  0.12208320375E+03 -0.16110005647E+04  0.16200961342E+04  0.10000000000E+01 0.  0.
    9000005    1    3    3    0    0  0.22698068285E+02  0.56827649692E+01 -0.87757169406E+02  0.90828502706E+02  0.10000000000E+01 0.  0.
<mgrwt>
<rscale>  0 0.19857846E+03</rscale>
<asrwt>0</asrwt>
<pdfrwt beam="2">  1        2 0.37208037E+00 0.20367934E+03</pdfrwt>
<pdfrwt beam="1">  1       -2 0.27610591E-02 0.20367934E+03</pdfrwt>
<totfact> 0.21421398E+03</totfact>
</mgrwt>
</event>
<event>
 8    2  0.8128359E-004  0.2071947E+03  0.7818608E-02  0.1147409E+00
          2   -1    0    0  501    0  0.00000000000E+00  0.00000000000E+00  0.19150665071E+03  0.19150665072E+03  0.25500000000E-02 0. -1.
         -2   -1    0    0    0  501 -0.00000000000E+00 -0.00000000000E+00 -0.24415289074E+03  0.24415289075E+03  0.25500000000E-02 0.  1.
         25    2    1    2    0    0 -0.77868993437E+02  0.14574147043E+03 -0.11323723291E+03  0.23611926945E+03  0.12500192857E+03 0.  0.
         23    2    1    2    0    0  0.77868993437E+02 -0.14574147043E+03  0.60590992882E+02  0.19954027202E+03  0.94026035746E+02 0.  0.
        -11    1    4    4    0    0  0.22083321172E+02  0.53323514376E+01  0.26539832476E+02  0.34935222254E+02  0.51100000000E-03 0.  1.
         11    1    4    4    0    0  0.55785672265E+02 -0.15107382187E+03  0.34051160407E+02  0.16460504977E+03  0.51100000000E-03 0. -1.
    9000005    1    3    3    0    0  0.85862967384E+00 -0.12588777694E+02  0.13545148170E+02  0.18538759605E+02  0.10000000000E+01 0.  0.
    9000005    1    3    3    0    0 -0.78727623111E+02  0.15833024812E+03 -0.12678238108E+03  0.21758050985E+03  0.10000000000E+01 0.  0.
<mgrwt>
<rscale>  0 0.20278698E+03</rscale>
<asrwt>0</asrwt>
<pdfrwt beam="1">  1        2 0.29462562E-01 0.20719469E+03</pdfrwt>
<pdfrwt beam="2">  1       -2 0.37561983E-01 0.20719469E+03</pdfrwt>
<totfact> 0.11954802E+03</totfact>
</mgrwt>
</event>
<event>
 8    2  0.8128359E-004  0.1320225E+03  0.7818608E-02  0.1236895E+00
         -2   -1    0    0    0  501 -0.00000000000E+00  0.00000000000E+00  0.41037140411E+02  0.41037140490E+02  0.25500000000E-02 0.  1.
          2   -1    0    0  501    0  0.00000000000E+00 -0.00000000000E+00 -0.33626475622E+03  0.33626475623E+03  0.25500000000E-02 0. -1.
         25    2    1    2    0    0 -0.42475338733E+02 -0.43131798611E+00 -0.15174751304E+03  0.20113988972E+03  0.12500242834E+03 0.  0.
         23    2    1    2    0    0  0.42475338733E+02  0.43131798611E+00 -0.14348010277E+03  0.17616200699E+03  0.92963285122E+02 0.  0.
        -11    1    4    4    0    0  0.38446333441E+02  0.25351129928E+02 -0.14371944590E+03  0.15091745914E+03  0.51100000000E-03 0. -1.
         11    1    4    4    0    0  0.40290052919E+01 -0.24919811942E+02  0.23934312778E+00  0.25244547852E+02  0.51100000000E-03 0.  1.
    9000005    1    3    3    0    0 -0.27433670713E+02  0.50475554322E+02 -0.23027203796E+02  0.61900242225E+02  0.10000000000E+01 0.  0.
    9000005    1    3    3    0    0 -0.15041668020E+02 -0.50906872308E+02 -0.12872030924E+03  0.13923964750E+03  0.10000000000E+01 0.  0.
<mgrwt>
<rscale>  0 0.12383900E+03</rscale>
<asrwt>0</asrwt>
<pdfrwt beam="2">  1        2 0.51733038E-01 0.13202253E+03</pdfrwt>
<pdfrwt beam="1">  1       -2 0.63134065E-02 0.13202253E+03</pdfrwt>
<totfact> 0.12436095E+04</totfact>
</mgrwt>
</event>
<event>
 8    2  0.8128359E-004  0.1418604E+03  0.7818608E-02  0.1223911E+00
          2   -1    0    0  501    0  0.00000000000E+00  0.00000000000E+00  0.85697584662E+03  0.85697584662E+03  0.25500000000E-02 0. -1.
         -2   -1    0    0    0  501 -0.00000000000E+00 -0.00000000000E+00 -0.22286151914E+02  0.22286152060E+02  0.25500000000E-02 0.  1.
         25    2    1    2    0    0 -0.32051237030E+02 -0.58923838055E+02  0.65144944784E+03  0.66671640711E+03  0.12500033576E+03 0.  0.
         23    2    1    2    0    0  0.32051237030E+02  0.58923838055E+02  0.18324024687E+03  0.21254559157E+03  0.84257580889E+02 0.  0.
        -11    1    4    4    0    0  0.27305429664E+02  0.37937027811E+02  0.18513612722E+03  0.19094551624E+03  0.51100000000E-03 0. -1.
         11    1    4    4    0    0  0.47458073655E+01  0.20986810244E+02 -0.18958803539E+01  0.21600075332E+02  0.51100000000E-03 0.  1.
    9000005    1    3    3    0    0  0.59065677604E+01 -0.58710143471E+02  0.59934688617E+03  0.60224534738E+03  0.10000000000E+01 0.  0.
    9000005    1    3    3    0    0 -0.37957804790E+02 -0.21369458424E+00  0.52102561669E+02  0.64471059727E+02  0.10000000000E+01 0.  0.
<mgrwt>
<rscale>  0 0.13241795E+03</rscale>
<asrwt>0</asrwt>
<pdfrwt beam="1">  1        2 0.13184243E+00 0.14186044E+03</pdfrwt>
<pdfrwt beam="2">  1       -2 0.34286391E-02 0.14186044E+03</pdfrwt>
<totfact> 0.10824642E+04</totfact>
</mgrwt>
</event>
<event>
 8    2  0.8128359E-004  0.1395371E+03  0.7818608E-02  0.1224580E+00
         -2   -1    0    0    0  501 -0.00000000000E+00  0.00000000000E+00  0.55584846521E+02  0.55584846580E+02  0.25500000000E-02 0.  1.
          2   -1    0    0  501    0  0.00000000000E+00 -0.00000000000E+00 -0.57510948697E+03  0.57510948697E+03  0.25500000000E-02 0. -1.
         25    2    1    2    0    0  0.33030218930E+02  0.52483214448E+02 -0.50213687965E+02  0.14829702083E+03  0.12500043506E+03 0.  0.
         23    2    1    2    0    0 -0.33030218930E+02 -0.52483214448E+02 -0.46931095248E+03  0.48239731272E+03  0.92784233815E+02 0.  0.
        -11    1    4    4    0    0 -0.14109560001E+02 -0.18144991055E+02 -0.41379647898E+03  0.41443436923E+03  0.51100000000E-03 0. -1.
         11    1    4    4    0    0 -0.18920658929E+02 -0.34338223392E+02 -0.55514473504E+02  0.67962943497E+02  0.51100000000E-03 0.  1.
    9000005    1    3    3    0    0  0.18757699878E+02 -0.29249483543E+02  0.19557617971E+02  0.39885887391E+02  0.10000000000E+01 0.  0.
    9000005    1    3    3    0    0  0.14272519052E+02  0.81732697991E+02 -0.69771305936E+02  0.10841113344E+03  0.10000000000E+01 0.  0.
<mgrwt>
<rscale>  0 0.13195703E+03</rscale>
<asrwt>0</asrwt>
<pdfrwt beam="2">  1        2 0.88478378E-01 0.13953706E+03</pdfrwt>
<pdfrwt beam="1">  1       -2 0.85515153E-02 0.13953706E+03</pdfrwt>
<totfact> 0.43769843E+03</totfact>
</mgrwt>
</event>
<event>
 8    2  0.8128359E-004  0.1402628E+03  0.7818608E-02  0.1223719E+00
         -2   -1    0    0    0  501 -0.00000000000E+00  0.00000000000E+00  0.16504492199E+02  0.16504492396E+02  0.25500000000E-02 0.  1.
          2   -1    0    0  501    0  0.00000000000E+00 -0.00000000000E+00 -0.11682131677E+04  0.11682131677E+04  0.25500000000E-02 0. -1.
         25    2    1    2    0    0  0.18711973048E+02  0.60808099733E+02 -0.38228629501E+03  0.40720568113E+03  0.12500356979E+03 0.  0.
         23    2    1    2    0    0 -0.18711973048E+02 -0.60808099733E+02 -0.76942238047E+03  0.77751197895E+03  0.92012580194E+02 0.  0.
        -11    1    4    4    0    0  0.29729170059E+02 -0.29930744165E+01 -0.11745063310E+03  0.12119172110E+03  0.51100000000E-03 0.  1.
         11    1    4    4    0    0 -0.48441143107E+02 -0.57815025317E+02 -0.65197174736E+03  0.65632025784E+03  0.51100000000E-03 0. -1.
    9000005    1    3    3    0    0  0.62411434607E+02 -0.32553761272E+01 -0.15976042352E+03  0.17155225900E+03  0.10000000000E+01 0.  0.
    9000005    1    3    3    0    0 -0.43699461558E+02  0.64063475861E+02 -0.22252587149E+03  0.23565342213E+03  0.10000000000E+01 0.  0.
<mgrwt>
<rscale>  0 0.13255062E+03</rscale>
<asrwt>0</asrwt>
<pdfrwt beam="2">  1        2 0.17972504E+00 0.14026281E+03</pdfrwt>
<pdfrwt beam="1">  1       -2 0.25391536E-02 0.14026281E+03</pdfrwt>
<totfact> 0.10960107E+04</totfact>
</mgrwt>
</event>
<event>
 8    2  0.8128359E-004  0.1668705E+03  0.7818608E-02  0.1187918E+00
         -2   -1    0    0    0  501 -0.00000000000E+00  0.00000000000E+00  0.20447509406E+02  0.20447509565E+02  0.25500000000E-02 0.  1.
          2   -1    0    0  501    0  0.00000000000E+00 -0.00000000000E+00 -0.11924642560E+04  0.11924642560E+04  0.25500000000E-02 0. -1.
         25    2    1    2    0    0  0.49207703405E+02  0.98987511934E+02 -0.56234931868E+03  0.58658547093E+03  0.12500333155E+03 0.  0.
         23    2    1    2    0    0 -0.49207703405E+02 -0.98987511934E+02 -0.60966742787E+03  0.62632629458E+03  0.91489502643E+02 0.  0.
        -11    1    4    4    0    0 -0.66814917444E+02 -0.32242503188E+02 -0.33521081916E+03  0.34332215991E+03  0.51100000000E-03 0.  1.
         11    1    4    4    0    0  0.17607214039E+02 -0.66745008746E+02 -0.27445660871E+03  0.28300413467E+03  0.51100000000E-03 0. -1.
    9000005    1    3    3    0    0  0.84338011346E+02  0.65683344041E+02 -0.27248372477E+03  0.29270391543E+03  0.10000000000E+01 0.  0.
    9000005    1    3    3    0    0 -0.35130307941E+02  0.33304167893E+02 -0.28986559391E+03  0.29388155550E+03  0.10000000000E+01 0.  0.
<mgrwt>
<rscale>  0 0.16069130E+03</rscale>
<asrwt>0</asrwt>
<pdfrwt beam="2">  1        2 0.18345599E+00 0.16687048E+03</pdfrwt>
<pdfrwt beam="1">  1       -2 0.31457716E-02 0.16687048E+03</pdfrwt>
<totfact> 0.78130972E+03</totfact>
</mgrwt>
</event>
<event>
 8    2  0.8128359E-004  0.1353576E+03  0.7818608E-02  0.1231440E+00
          2   -1    0    0  501    0  0.00000000000E+00  0.00000000000E+00  0.81131719822E+03  0.81131719822E+03  0.25500000000E-02 0.  1.
         -2   -1    0    0    0  501 -0.00000000000E+00 -0.00000000000E+00 -0.18185721918E+02  0.18185722096E+02  0.25500000000E-02 0. -1.
         25    2    1    2    0    0  0.51923393099E+02  0.92137494079E+00  0.49001488201E+03  0.50836627236E+03  0.12499917838E+03 0.  0.
         23    2    1    2    0    0 -0.51923393099E+02 -0.92137494079E+00  0.30311659429E+03  0.32113664796E+03  0.92478047378E+02 0.  0.
        -11    1    4    4    0    0 -0.72516397038E+02  0.94014300510E+01  0.15673190700E+03  0.17295058658E+03  0.51100000000E-03 0. -1.
         11    1    4    4    0    0  0.20593003939E+02 -0.10322804992E+02  0.14638468730E+03  0.14818606139E+03  0.51100000000E-03 0.  1.
    9000005    1    3    3    0    0  0.11764281207E+02  0.21784368035E+02  0.10818987977E+02  0.27037150439E+02  0.10000000000E+01 0.  0.
    9000005    1    3    3    0    0  0.40159111892E+02 -0.20862993095E+02  0.47919589403E+03  0.48132912192E+03  0.10000000000E+01 0.  0.
<mgrwt>
<rscale>  0 0.12735078E+03</rscale>
<asrwt>0</asrwt>
<pdfrwt beam="1">  1        2 0.12481801E+00 0.13535761E+03</pdfrwt>
<pdfrwt beam="2">  1       -2 0.27978040E-02 0.13535761E+03</pdfrwt>
<totfact> 0.15602041E+04</totfact>
</mgrwt>
</event>
<event>
 8    2  0.8128359E-004  0.1409535E+03  0.7818608E-02  0.1224326E+00
          2   -1    0    0  501    0  0.00000000000E+00  0.00000000000E+00  0.10141724189E+03  0.10141724192E+03  0.25500000000E-02 0. -1.
         -2   -1    0    0    0  501 -0.00000000000E+00 -0.00000000000E+00 -0.15461732658E+03  0.15461732660E+03  0.25500000000E-02 0.  1.
         25    2    1    2    0    0  0.13395704266E+02  0.63738649361E+02 -0.20876200538E+02  0.14249103596E+03  0.12500327702E+03 0.  0.
         23    2    1    2    0    0 -0.13395704266E+02 -0.63738649361E+02 -0.32323884157E+02  0.11354353256E+03  0.87208027061E+02 0.  0.
        -11    1    4    4    0    0 -0.46732700903E+02 -0.58792334729E+02 -0.20880294101E+02  0.77951719921E+02  0.51100000000E-03 0.  1.
         11    1    4    4    0    0  0.33336996638E+02 -0.49463146325E+01 -0.11443590056E+02  0.35591812638E+02  0.51100000000E-03 0. -1.
    9000005    1    3    3    0    0 -0.22114548096E+02  0.69921436762E+02 -0.55905070609E+02  0.92219507026E+02  0.10000000000E+01 0.  0.
    9000005    1    3    3    0    0  0.35510252362E+02 -0.61827874007E+01  0.35028870071E+02  0.50271528933E+02  0.10000000000E+01 0.  0.
<mgrwt>
<rscale>  0 0.13213238E+03</rscale>
<asrwt>0</asrwt>
<pdfrwt beam="1">  1        2 0.15602653E-01 0.14095347E+03</pdfrwt>
<pdfrwt beam="2">  1       -2 0.23787281E-01 0.14095347E+03</pdfrwt>
<totfact> 0.55037634E+03</totfact>
</mgrwt>
</event>
<event>
 8    2  0.8128359E-004  0.1420462E+03  0.7818608E-02  0.1221665E+00
          2   -1    0    0  501    0  0.00000000000E+00  0.00000000000E+00  0.24228971297E+03  0.24228971298E+03  0.25500000000E-02 0. -1.
         -2   -1    0    0    0  501 -0.00000000000E+00 -0.00000000000E+00 -0.74603981596E+02  0.74603981640E+02  0.25500000000E-02 0.  1.
         25    2    1    2    0    0  0.20071128220E+02  0.64410604591E+02  0.41712951658E+02  0.14804422929E+03  0.12500218925E+03 0.  0.
         23    2    1    2    0    0 -0.20071128220E+02 -0.64410604591E+02  0.12597277971E+03  0.16884946534E+03  0.89941228273E+02 0.  0.
        -11    1    4    4    0    0  0.13586435326E+02  0.21582736657E+01 -0.77051666210E+01  0.15767655596E+02  0.51100000000E-03 0.  1.
         11    1    4    4    0    0 -0.33657563546E+02 -0.66568878257E+02  0.13367794634E+03  0.15308180974E+03  0.51100000000E-03 0. -1.
    9000005    1    3    3    0    0 -0.12290206263E+02  0.37871898732E+02  0.81234107102E+02  0.90472703287E+02  0.10000000000E+01 0.  0.
    9000005    1    3    3    0    0  0.32361334483E+02  0.26538705859E+02 -0.39521155444E+02  0.57571525999E+02  0.10000000000E+01 0.  0.
<mgrwt>
<rscale>  0 0.13398152E+03</rscale>
<asrwt>0</asrwt>
<pdfrwt beam="1">  1        2 0.37275341E-01 0.14204620E+03</pdfrwt>
<pdfrwt beam="2">  1       -2 0.11477536E-01 0.14204620E+03</pdfrwt>
<totfact> 0.69972654E+03</totfact>
</mgrwt>
</event>
<event>
 8    2  0.8128359E-004  0.1605217E+03  0.7818608E-02  0.1195574E+00
          2   -1    0    0  501    0  0.00000000000E+00  0.00000000000E+00  0.12183825112E+04  0.12183825112E+04  0.25500000000E-02 0. -1.
         -2   -1    0    0    0  501 -0.00000000000E+00 -0.00000000000E+00 -0.20686940749E+02  0.20686940907E+02  0.25500000000E-02 0.  1.
         25    2    1    2    0    0  0.50627755208E+02 -0.87060530280E+02  0.86169751139E+03  0.87652142282E+03  0.12499799196E+03 0.  0.
         23    2    1    2    0    0 -0.50627755208E+02  0.87060530280E+02  0.33599805905E+03  0.36254802928E+03  0.91671545853E+02 0.  0.
        -11    1    4    4    0    0 -0.16046350543E+02  0.82059035442E+02  0.30358120136E+03  0.31488524336E+03  0.51100000000E-03 0. -1.
         11    1    4    4    0    0 -0.34581404665E+02  0.50014948381E+01  0.32416857686E+02  0.47662785921E+02  0.51100000000E-03 0.  1.
    9000005    1    3    3    0    0  0.53491245967E+02 -0.74147550651E+02  0.27753971686E+03  0.29221305087E+03  0.10000000000E+01 0.  0.
    9000005    1    3    3    0    0 -0.28634907593E+01 -0.12912979629E+02  0.58415779453E+03  0.58430837195E+03  0.10000000000E+01 0.  0.
<mgrwt>
<rscale>  0 0.15405742E+03</rscale>
<asrwt>0</asrwt>
<pdfrwt beam="1">  1        2 0.18744343E+00 0.16052166E+03</pdfrwt>
<pdfrwt beam="2">  1       -2 0.31826069E-02 0.16052166E+03</pdfrwt>
<totfact> 0.74173997E+03</totfact>
</mgrwt>
</event>
<event>
 8    2  0.8128359E-004  0.1529522E+03  0.7818608E-02  0.1206366E+00
         -2   -1    0    0    0  501 -0.00000000000E+00  0.00000000000E+00  0.11871816992E+02  0.11871817265E+02  0.25500000000E-02 0.  1.
          2   -1    0    0  501    0  0.00000000000E+00 -0.00000000000E+00 -0.17411684111E+04  0.17411684111E+04  0.25500000000E-02 0. -1.
         25    2    1    2    0    0  0.38765928287E+02 -0.79164414065E+02 -0.71875771238E+03  0.73485170516E+03  0.12499831131E+03 0.  0.
         23    2    1    2    0    0 -0.38765928287E+02  0.79164414065E+02 -0.10105388817E+04  0.10181885232E+04  0.88029742946E+02 0.  0.
        -11    1    4    4    0    0 -0.49346918331E+00  0.85733128389E+02 -0.68987825743E+03  0.69518517166E+03  0.51100000000E-03 0.  1.
         11    1    4    4    0    0 -0.38272459103E+02 -0.65687143242E+01 -0.32066062431E+03  0.32300335155E+03  0.51100000000E-03 0. -1.
    9000005    1    3    3    0    0 -0.30305355951E+02  0.14596245639E+02 -0.22768151124E+03  0.23015502503E+03  0.10000000000E+01 0.  0.
    9000005    1    3    3    0    0  0.69071284237E+02 -0.93760659704E+02 -0.49107620113E+03  0.50469668013E+03  0.10000000000E+01 0.  0.
<mgrwt>
<rscale>  0 0.14530311E+03</rscale>
<asrwt>0</asrwt>
<pdfrwt beam="2">  1        2 0.26787186E+00 0.15295221E+03</pdfrwt>
<pdfrwt beam="1">  1       -2 0.18264348E-02 0.15295221E+03</pdfrwt>
<totfact> 0.88431953E+03</totfact>
</mgrwt>
</event>
<event>
 8    2  0.8128359E-004  0.1425495E+03  0.7818608E-02  0.1220268E+00
         -2   -1    0    0    0  501 -0.00000000000E+00  0.00000000000E+00  0.41378363429E+02  0.41378363508E+02  0.25500000000E-02 0.  1.
          2   -1    0    0  501    0  0.00000000000E+00 -0.00000000000E+00 -0.56079985415E+03  0.56079985416E+03  0.25500000000E-02 0. -1.
         25    2    1    2    0    0  0.19347549710E+02  0.65755116405E+02 -0.11899262302E+03  0.18568683489E+03  0.12498917274E+03 0.  0.
         23    2    1    2    0    0 -0.19347549710E+02 -0.65755116405E+02 -0.40042886770E+03  0.41649138278E+03  0.91780884865E+02 0.  0.
        -11    1    4    4    0    0 -0.13098940652E+02  0.22402130628E+02 -0.80464258195E+02  0.84545458482E+02  0.51100000000E-03 0.  1.
         11    1    4    4    0    0 -0.62486090583E+01 -0.88157247033E+02 -0.31996460951E+03  0.33194592430E+03  0.51100000000E-03 0. -1.
    9000005    1    3    3    0    0  0.63686766715E+02  0.26076918165E+02 -0.22668509483E+02  0.72462895593E+02  0.10000000000E+01 0.  0.
    9000005    1    3    3    0    0 -0.44339217005E+02  0.39678198240E+02 -0.96324113537E+02  0.11322393929E+03  0.10000000000E+01 0.  0.
<mgrwt>
<rscale>  0 0.13496570E+03</rscale>
<asrwt>0</asrwt>
<pdfrwt beam="2">  1        2 0.86276895E-01 0.14254949E+03</pdfrwt>
<pdfrwt beam="1">  1       -2 0.63659025E-02 0.14254949E+03</pdfrwt>
<totfact> 0.70965607E+03</totfact>
</mgrwt>
</event>
<event>
 8    2  0.8128359E-004  0.1270834E+03  0.7818608E-02  0.1246936E+00
         -2   -1    0    0    0  501 -0.00000000000E+00  0.00000000000E+00  0.14617070704E+02  0.14617070926E+02  0.25500000000E-02 0.  1.
          2   -1    0    0  501    0  0.00000000000E+00 -0.00000000000E+00 -0.84408302354E+03  0.84408302354E+03  0.25500000000E-02 0. -1.
         25    2    1    2    0    0 -0.74422595046E+01 -0.21689839267E+02 -0.42680977380E+03  0.44532771586E+03  0.12499742055E+03 0.  0.
         23    2    1    2    0    0  0.74422595046E+01  0.21689839267E+02 -0.40265617903E+03  0.41337237861E+03  0.90658085850E+02 0.  0.
        -11    1    4    4    0    0  0.35482782339E+02  0.37055191221E+02 -0.14640261162E+03  0.15513168512E+03  0.51100000000E-03 0.  1.
         11    1    4    4    0    0 -0.28040522834E+02 -0.15365351954E+02 -0.25625356741E+03  0.25824069349E+03  0.51100000000E-03 0. -1.
    9000005    1    3    3    0    0  0.48710851325E+01  0.41735257683E+02 -0.30073979439E+03  0.30366261399E+03  0.10000000000E+01 0.  0.
    9000005    1    3    3    0    0 -0.12313344637E+02 -0.63425096950E+02 -0.12606997942E+03  0.14166510187E+03  0.10000000000E+01 0.  0.
<mgrwt>
<rscale>  0 0.11770229E+03</rscale>
<asrwt>0</asrwt>
<pdfrwt beam="2">  1        2 0.12985889E+00 0.12708340E+03</pdfrwt>
<pdfrwt beam="1">  1       -2 0.22487808E-02 0.12708340E+03</pdfrwt>
<totfact> 0.20322125E+04</totfact>
</mgrwt>
</event>
<event>
 8    2  0.8128359E-004  0.1290473E+03  0.7818608E-02  0.1243232E+00
          2   -1    0    0  501    0  0.00000000000E+00  0.00000000000E+00  0.34433484430E+03  0.34433484431E+03  0.25500000000E-02 0. -1.
         -2   -1    0    0    0  501 -0.00000000000E+00 -0.00000000000E+00 -0.60668858293E+02  0.60668858347E+02  0.25500000000E-02 0.  1.
         25    2    1    2    0    0  0.31551898908E+02  0.56935301780E+01  0.28306746478E+02  0.13211535885E+03  0.12500103015E+03 0.  0.
         23    2    1    2    0    0 -0.31551898908E+02 -0.56935301780E+01  0.25535923953E+03  0.27288834381E+03  0.90729093246E+02 0.  0.
        -11    1    4    4    0    0 -0.40190726884E+02  0.30546721961E+02  0.88174556360E+02  0.10160289927E+03  0.51100000000E-03 0.  1.
         11    1    4    4    0    0  0.86388279759E+01 -0.36240252139E+02  0.16718468317E+03  0.17128544454E+03  0.51100000000E-03 0. -1.
    9000005    1    3    3    0    0  0.15578183076E+01 -0.31480456833E+02  0.64753782357E+02  0.72024289583E+02  0.10000000000E+01 0.  0.
    9000005    1    3    3    0    0  0.29994080600E+02  0.37173987011E+02 -0.36447035880E+02  0.60091069268E+02  0.10000000000E+01 0.  0.
<mgrwt>
<rscale>  0 0.11991852E+03</rscale>
<asrwt>0</asrwt>
<pdfrwt beam="1">  1        2 0.52974591E-01 0.12904726E+03</pdfrwt>
<pdfrwt beam="2">  1       -2 0.93336707E-02 0.12904726E+03</pdfrwt>
<totfact> 0.66334906E+03</totfact>
</mgrwt>
</event>
<event>
 8    2  0.8128359E-004  0.1607882E+03  0.7818608E-02  0.1196323E+00
          2   -1    0    0  501    0  0.00000000000E+00  0.00000000000E+00  0.16124454447E+04  0.16124454447E+04  0.25500000000E-02 0. -1.
         -2   -1    0    0    0  501 -0.00000000000E+00 -0.00000000000E+00 -0.13410136449E+02  0.13410136691E+02  0.25500000000E-02 0.  1.
         25    2    1    2    0    0  0.68228682707E+02 -0.74644775650E+02  0.87660684476E+03  0.89123084355E+03  0.12500344211E+03 0.  0.
         23    2    1    2    0    0 -0.68228682707E+02  0.74644775650E+02  0.72242846351E+03  0.73462473786E+03  0.86854043735E+02 0.  0.
        -11    1    4    4    0    0 -0.15125955478E+02  0.60472917986E+02  0.20453689843E+03  0.21382495448E+03  0.51100000000E-03 0.  1.
         11    1    4    4    0    0 -0.53102727229E+02  0.14171857664E+02  0.51789156508E+03  0.52079978338E+03  0.51100000000E-03 0. -1.
    9000005    1    3    3    0    0  0.87621052884E+02 -0.94183209050E+02  0.78828871965E+03  0.79871648995E+03  0.10000000000E+01 0.  0.
    9000005    1    3    3    0    0 -0.19392370176E+02  0.19538433401E+02  0.88318125103E+02  0.92514353603E+02  0.10000000000E+01 0.  0.
<mgrwt>
<rscale>  0 0.15342761E+03</rscale>
<asrwt>0</asrwt>
<pdfrwt beam="1">  1        2 0.24806849E+00 0.16078823E+03</pdfrwt>
<pdfrwt beam="2">  1       -2 0.20630983E-02 0.16078823E+03</pdfrwt>
<totfact> 0.86440641E+03</totfact>
</mgrwt>
</event>
<event>
 8    2  0.8128359E-004  0.1265194E+03  0.7818608E-02  0.1246490E+00
         -2   -1    0    0    0  501 -0.00000000000E+00  0.00000000000E+00  0.46326743796E+02  0.46326743866E+02  0.25500000000E-02 0.  1.
          2   -1    0    0  501    0  0.00000000000E+00 -0.00000000000E+00 -0.26657653486E+03  0.26657653487E+03  0.25500000000E-02 0. -1.
         25    2    1    2    0    0  0.17836062376E+02  0.79503315071E+01 -0.12043655182E+03  0.17467721008E+03  0.12500332722E+03 0.  0.
         23    2    1    2    0    0 -0.17836062376E+02 -0.79503315071E+01 -0.99813239249E+02  0.13822606866E+03  0.93607854557E+02 0.  0.
        -11    1    4    4    0    0 -0.52286111398E+02 -0.77330373474E+00 -0.30616291063E+02  0.60595319312E+02  0.51100000000E-03 0.  1.
         11    1    4    4    0    0  0.34450049022E+02 -0.71770277723E+01 -0.69196948187E+02  0.77630749345E+02  0.51100000000E-03 0. -1.
    9000005    1    3    3    0    0 -0.52215334632E+02 -0.85378206604E+01 -0.65075025186E+02  0.83875469926E+02  0.10000000000E+01 0.  0.
    9000005    1    3    3    0    0  0.70051397008E+02  0.16488152167E+02 -0.55361526630E+02  0.90801740157E+02  0.10000000000E+01 0.  0.
<mgrwt>
<rscale>  0 0.11796645E+03</rscale>
<asrwt>0</asrwt>
<pdfrwt beam="2">  1        2 0.41011774E-01 0.12651942E+03</pdfrwt>
<pdfrwt beam="1">  1       -2 0.71271915E-02 0.12651942E+03</pdfrwt>
<totfact> 0.13170207E+04</totfact>
</mgrwt>
</event>
<event>
 8    2  0.8128359E-004  0.1805632E+03  0.7818608E-02  0.1172866E+00
          2   -1    0    0  501    0  0.00000000000E+00  0.00000000000E+00  0.13461637289E+04  0.13461637289E+04  0.25500000000E-02 0. -1.
         -2   -1    0    0    0  501 -0.00000000000E+00 -0.00000000000E+00 -0.22440139722E+02  0.22440139866E+02  0.25500000000E-02 0.  1.
         25    2    1    2    0    0 -0.11250733823E+03 -0.65654303839E+02  0.84985636892E+03  0.86882616634E+03  0.12503867704E+03 0.  0.
         23    2    1    2    0    0  0.11250733823E+03  0.65654303839E+02  0.47386722022E+03  0.49977770239E+03  0.90880254403E+02 0.  0.
        -11    1    4    4    0    0  0.36514083746E+02 -0.14494598549E+02  0.21138405317E+03  0.21500369679E+03  0.51100000000E-03 0. -1.
         11    1    4    4    0    0  0.75993254480E+02  0.80148902388E+02  0.26248316705E+03  0.28477400560E+03  0.51100000000E-03 0.  1.
    9000005    1    3    3    0    0 -0.93341833118E+01  0.33164838735E+02  0.23979323949E+03  0.24225777844E+03  0.10000000000E+01 0.  0.
    9000005    1    3    3    0    0 -0.10317315491E+03 -0.98819142574E+02  0.61006312943E+03  0.62656838790E+03  0.10000000000E+01 0.  0.
<mgrwt>
<rscale>  0 0.17486641E+03</rscale>
<asrwt>0</asrwt>
<pdfrwt beam="1">  1        2 0.20710211E+00 0.18056317E+03</pdfrwt>
<pdfrwt beam="2">  1       -2 0.34523293E-02 0.18056317E+03</pdfrwt>
<totfact> 0.56179374E+03</totfact>
</mgrwt>
</event>
<event>
 8    2  0.8128359E-004  0.1481788E+03  0.7818608E-02  0.1212603E+00
         -2   -1    0    0    0  501 -0.00000000000E+00  0.00000000000E+00  0.37256481489E+02  0.37256481576E+02  0.25500000000E-02 0. -1.
          2   -1    0    0  501    0  0.00000000000E+00 -0.00000000000E+00 -0.48458070881E+03  0.48458070881E+03  0.25500000000E-02 0.  1.
         25    2    1    2    0    0 -0.15692918472E+02 -0.78015187502E+02 -0.26503856885E+03  0.30364848914E+03  0.12499729919E+03 0.  0.
         23    2    1    2    0    0  0.15692918472E+02  0.78015187502E+02 -0.18228565846E+03  0.21818870125E+03  0.89697329395E+02 0.  0.
        -11    1    4    4    0    0  0.38071706605E+02  0.58876589324E+01 -0.32339498069E+02  0.50298732659E+02  0.51100000000E-03 0. -1.
         11    1    4    4    0    0 -0.22378788134E+02  0.72127528569E+02 -0.14994616040E+03  0.16788996859E+03  0.51100000000E-03 0.  1.
    9000005    1    3    3    0    0  0.42663337077E+02 -0.41321162123E+02 -0.20085517327E+03  0.20945500566E+03  0.10000000000E+01 0.  0.
    9000005    1    3    3    0    0 -0.58356255548E+02 -0.36694025378E+02 -0.64183395589E+02  0.94193483476E+02  0.10000000000E+01 0.  0.
<mgrwt>
<rscale>  0 0.14054094E+03</rscale>
<asrwt>0</asrwt>
<pdfrwt beam="2">  1        2 0.74550874E-01 0.14817882E+03</pdfrwt>
<pdfrwt beam="1">  1       -2 0.57317667E-02 0.14817882E+03</pdfrwt>
<totfact> 0.98103276E+03</totfact>
</mgrwt>
</event>
<event>
 8    2  0.8128359E-004  0.2008381E+03  0.7818608E-02  0.1152651E+00
         -2   -1    0    0    0  501 -0.00000000000E+00  0.00000000000E+00  0.36389295230E+02  0.36389295320E+02  0.25500000000E-02 0. -1.
          2   -1    0    0  501    0  0.00000000000E+00 -0.00000000000E+00 -0.10911059202E+04  0.10911059202E+04  0.25500000000E-02 0.  1.
         25    2    1    2    0    0  0.13901655915E+03  0.73384046274E+02 -0.40403455637E+03  0.45119824503E+03  0.12500044646E+03 0.  0.
         23    2    1    2    0    0 -0.13901655915E+03 -0.73384046274E+02 -0.65068206862E+03  0.67629697051E+03  0.96330763140E+02 0.  0.
        -11    1    4    4    0    0 -0.88081916752E+02 -0.73782335966E+02 -0.28831029857E+03  0.31036282867E+03  0.51100000000E-03 0. -1.
         11    1    4    4    0    0 -0.50934642400E+02  0.39828969208E+00 -0.36237177005E+03  0.36593414184E+03  0.51100000000E-03 0.  1.
    9000005    1    3    3    0    0  0.58303260211E+02  0.75837607442E+02 -0.32270176534E+03  0.33658289054E+03  0.10000000000E+01 0.  0.
    9000005    1    3    3    0    0  0.80713298941E+02 -0.24535611680E+01 -0.81332791027E+02  0.11461535449E+03  0.10000000000E+01 0.  0.
<mgrwt>
<rscale>  0 0.19658670E+03</rscale>
<asrwt>0</asrwt>
<pdfrwt beam="2">  1        2 0.16786242E+00 0.20083808E+03</pdfrwt>
<pdfrwt beam="1">  1       -2 0.55983539E-02 0.20083808E+03</pdfrwt>
<totfact> 0.37798584E+03</totfact>
</mgrwt>
</event>
<event>
 8    2  0.8128359E-004  0.1349937E+03  0.7818608E-02  0.1235012E+00
         -2   -1    0    0    0  501 -0.00000000000E+00  0.00000000000E+00  0.75589859969E+01  0.75589864270E+01  0.25500000000E-02 0.  1.
          2   -1    0    0  501    0  0.00000000000E+00 -0.00000000000E+00 -0.18358227340E+04  0.18358227340E+04  0.25500000000E-02 0. -1.
         25    2    1    2    0    0  0.50049421926E+02 -0.96602255275E+01 -0.11452734037E+04  0.11532018364E+04  0.12500016607E+03 0.  0.
         23    2    1    2    0    0 -0.50049421926E+02  0.96602255275E+01 -0.68299034430E+03  0.69017988409E+03  0.85288905492E+02 0.  0.
        -11    1    4    4    0    0 -0.32937516461E+02  0.40609767874E+01 -0.76088519789E+02  0.83011049669E+02  0.51100000000E-03 0.  1.
         11    1    4    4    0    0 -0.17111905465E+02  0.55992487400E+01 -0.60690182451E+03  0.60716883442E+03  0.51100000000E-03 0. -1.
    9000005    1    3    3    0    0 -0.21060094044E+02 -0.25964514502E+02 -0.77978658829E+03  0.78050355979E+03  0.10000000000E+01 0.  0.
    9000005    1    3    3    0    0  0.71109515970E+02  0.16304288974E+02 -0.36548681544E+03  0.37269827657E+03  0.10000000000E+01 0.  0.
<mgrwt>
<rscale>  0 0.12503695E+03</rscale>
<asrwt>0</asrwt>
<pdfrwt beam="2">  1        2 0.28243391E+00 0.13499373E+03</pdfrwt>
<pdfrwt beam="1">  1       -2 0.11629224E-02 0.13499373E+03</pdfrwt>
<totfact> 0.15100451E+04</totfact>
</mgrwt>
</event>
<event>
 8    2  0.8128359E-004  0.1398135E+03  0.7818608E-02  0.1224499E+00
         -2   -1    0    0    0  501 -0.00000000000E+00  0.00000000000E+00  0.33091765234E+03  0.33091765235E+03  0.25500000000E-02 0.  1.
          2   -1    0    0  501    0  0.00000000000E+00 -0.00000000000E+00 -0.64714431930E+02  0.64714431981E+02  0.25500000000E-02 0. -1.
         25    2    1    2    0    0 -0.62632383514E+02 -0.44742449504E+00  0.24560453054E+03  0.28261177041E+03  0.12499924679E+03 0.  0.
         23    2    1    2    0    0  0.62632383514E+02  0.44742449504E+00  0.20598689874E+02  0.11302031393E+03  0.91794714894E+02 0.  0.
        -11    1    4    4    0    0  0.42344075039E+02  0.22908587681E+02 -0.28053910176E+02  0.55721144612E+02  0.51100000000E-03 0. -1.
         11    1    4    4    0    0  0.20288308475E+02 -0.22461163186E+02  0.48652600050E+02  0.57299169316E+02  0.51100000000E-03 0.  1.
    9000005    1    3    3    0    0  0.37288558351E+02  0.65148706332E+01  0.88891470217E+02  0.96620772097E+02  0.10000000000E+01 0.  0.
    9000005    1    3    3    0    0 -0.99920941865E+02 -0.69622951283E+01  0.15671306032E+03  0.18599099831E+03  0.10000000000E+01 0.  0.
<mgrwt>
<rscale>  0 0.13201314E+03</rscale>
<asrwt>0</asrwt>
<pdfrwt beam="2">  1        2 0.99560663E-02 0.13981354E+03</pdfrwt>
<pdfrwt beam="1">  1       -2 0.50910409E-01 0.13981354E+03</pdfrwt>
<totfact> 0.23043427E+03</totfact>
</mgrwt>
</event>
<event>
 8    2  0.8128359E-004  0.1273418E+03  0.7818608E-02  0.1246644E+00
         -2   -1    0    0    0  501 -0.00000000000E+00  0.00000000000E+00  0.50049648009E+01  0.50049654505E+01  0.25500000000E-02 0.  1.
          2   -1    0    0  501    0  0.00000000000E+00 -0.00000000000E+00 -0.24525122880E+04  0.24525122880E+04  0.25500000000E-02 0. -1.
         25    2    1    2    0    0  0.21065066789E+02 -0.12197509984E+02 -0.15097668748E+04  0.15151277022E+04  0.12499368501E+03 0.  0.
         23    2    1    2    0    0 -0.21065066789E+02  0.12197509984E+02 -0.93774044836E+03  0.94238955127E+03  0.90268496989E+02 0.  0.
        -11    1    4    4    0    0 -0.29926935498E+02 -0.16026732850E+02 -0.13843158580E+03  0.14253344022E+03  0.51100000000E-03 0.  1.
         11    1    4    4    0    0  0.88618687097E+01  0.28224242834E+02 -0.79930886256E+03  0.79985611104E+03  0.51100000000E-03 0. -1.
    9000005    1    3    3    0    0 -0.14786198494E+02 -0.55479886544E+02 -0.11031809231E+04  0.11046745216E+04  0.10000000000E+01 0.  0.
    9000005    1    3    3    0    0  0.35851265282E+02  0.43282376560E+02 -0.40658595170E+03  0.41045318060E+03  0.10000000000E+01 0.  0.
<mgrwt>
<rscale>  0 0.11787533E+03</rscale>
<asrwt>0</asrwt>
<pdfrwt beam="2">  1        2 0.37730862E+00 0.12734181E+03</pdfrwt>
<pdfrwt beam="1">  1       -2 0.76999659E-03 0.12734181E+03</pdfrwt>
<totfact> 0.13036997E+04</totfact>
</mgrwt>
</event>
<event>
 8    2  0.8128359E-004  0.1371447E+03  0.7818608E-02  0.1226913E+00
          2   -1    0    0  501    0  0.00000000000E+00  0.00000000000E+00  0.39036275512E+03  0.39036275513E+03  0.25500000000E-02 0. -1.
         -2   -1    0    0    0  501 -0.00000000000E+00 -0.00000000000E+00 -0.41924791679E+02  0.41924791757E+02  0.25500000000E-02 0.  1.
         25    2    1    2    0    0  0.26948448940E+01  0.56370412250E+02  0.23993988367E+03  0.27636897091E+03  0.12499509888E+03 0.  0.
         23    2    1    2    0    0 -0.26948448940E+01 -0.56370412250E+02  0.10849807977E+03  0.15591857597E+03  0.96715476797E+02 0.  0.
        -11    1    4    4    0    0  0.33936588320E+02  0.10643215838E+02  0.32590906459E+02  0.48240411009E+02  0.51100000000E-03 0. -1.
         11    1    4    4    0    0 -0.36631433214E+02 -0.67013628088E+02  0.75907173313E+02  0.10767816496E+03  0.51100000000E-03 0.  1.
    9000005    1    3    3    0    0  0.32409875959E+02  0.51687817257E+02  0.23855945363E+03  0.24623899657E+03  0.10000000000E+01 0.  0.
    9000005    1    3    3    0    0 -0.29715031065E+02  0.46825949927E+01  0.13804300340E+01  0.30129974347E+02  0.10000000000E+01 0.  0.
<mgrwt>
<rscale>  0 0.13036652E+03</rscale>
<asrwt>0</asrwt>
<pdfrwt beam="1">  1        2 0.60055810E-01 0.13714467E+03</pdfrwt>
<pdfrwt beam="2">  1       -2 0.64499678E-02 0.13714467E+03</pdfrwt>
<totfact> 0.10301247E+04</totfact>
</mgrwt>
</event>
<event>
 8    2  0.8128359E-004  0.3395611E+03  0.7818608E-02  0.1068217E+00
         -2   -1    0    0    0  501 -0.00000000000E+00  0.00000000000E+00  0.39256518211E+02  0.39256518294E+02  0.25500000000E-02 0.  1.
          2   -1    0    0  501    0  0.00000000000E+00 -0.00000000000E+00 -0.31983893390E+04  0.31983893390E+04  0.25500000000E-02 0. -1.
         25    2    1    2    0    0  0.49419601484E+02  0.31180789384E+03 -0.10613697163E+04  0.11143641400E+04  0.12504120126E+03 0.  0.
         23    2    1    2    0    0 -0.49419601484E+02 -0.31180789384E+03 -0.20977631044E+04  0.21232817173E+04  0.89714820844E+02 0.  0.
        -11    1    4    4    0    0 -0.31203387601E+02 -0.25903719505E+03 -0.14642558011E+04  0.14873193910E+04  0.51100000000E-03 0.  1.
         11    1    4    4    0    0 -0.18216213883E+02 -0.52770698781E+02 -0.63350730332E+03  0.63596232628E+03  0.51100000000E-03 0. -1.
    9000005    1    3    3    0    0  0.42020834186E+02  0.27766513384E+03 -0.74675795057E+03  0.79781709295E+03  0.10000000000E+01 0.  0.
    9000005    1    3    3    0    0  0.73987672978E+01  0.34142759996E+02 -0.31461176577E+03  0.31654704702E+03  0.10000000000E+01 0.  0.
<mgrwt>
<rscale>  0 0.33668449E+03</rscale>
<asrwt>0</asrwt>
<pdfrwt beam="2">  1        2 0.49205969E+00 0.33956113E+03</pdfrwt>
<pdfrwt beam="1">  1       -2 0.60394669E-02 0.33956113E+03</pdfrwt>
<totfact> 0.22730388E+02</totfact>
</mgrwt>
</event>
<event>
 8    2  0.8128359E-004  0.1273880E+03  0.7818608E-02  0.1250322E+00
         -2   -1    0    0    0  501 -0.00000000000E+00  0.00000000000E+00  0.27619472694E+02  0.27619472812E+02  0.25500000000E-02 0. -1.
          2   -1    0    0  501    0  0.00000000000E+00 -0.00000000000E+00 -0.47462034458E+03  0.47462034459E+03  0.25500000000E-02 0.  1.
         25    2    1    2    0    0 -0.30598552261E+01  0.24354349964E+02 -0.17306516605E+03  0.21489358943E+03  0.12500082400E+03 0.  0.
         23    2    1    2    0    0  0.30598552261E+01 -0.24354349964E+02 -0.27393570583E+03  0.28734622797E+03  0.83214101699E+02 0.  0.
        -11    1    4    4    0    0  0.16021362260E+02 -0.32424503891E+02 -0.26882219112E+03  0.27124417587E+03  0.51100000000E-03 0.  1.
         11    1    4    4    0    0 -0.12961507034E+02  0.80701539271E+01 -0.51135147129E+01  0.16102052105E+02  0.51100000000E-03 0. -1.
    9000005    1    3    3    0    0 -0.21660679030E+02  0.21863341100E+02 -0.18823783047E+03  0.19073980056E+03  0.10000000000E+01 0.  0.
    9000005    1    3    3    0    0  0.18600823803E+02  0.24910088641E+01  0.15172664412E+02  0.24153788868E+02  0.10000000000E+01 0.  0.
<mgrwt>
<rscale>  0 0.11572435E+03</rscale>
<asrwt>0</asrwt>
<pdfrwt beam="2">  1        2 0.73018509E-01 0.12738800E+03</pdfrwt>
<pdfrwt beam="1">  1       -2 0.42491500E-02 0.12738800E+03</pdfrwt>
<totfact> 0.15551792E+04</totfact>
</mgrwt>
</event>
<event>
 8    2  0.8128359E-004  0.1633792E+03  0.7818608E-02  0.1192202E+00
         -2   -1    0    0    0  501 -0.00000000000E+00  0.00000000000E+00  0.12855313817E+03  0.12855313819E+03  0.25500000000E-02 0.  1.
          2   -1    0    0  501    0  0.00000000000E+00 -0.00000000000E+00 -0.24057965845E+03  0.24057965847E+03  0.25500000000E-02 0. -1.
         25    2    1    2    0    0 -0.36655885578E+02 -0.98587863656E+02  0.34633429656E+02  0.16700968908E+03  0.12501816264E+03 0.  0.
         23    2    1    2    0    0  0.36655885578E+02  0.98587863656E+02 -0.14665994994E+03  0.20212310758E+03  0.91002136741E+02 0.  0.
        -11    1    4    4    0    0 -0.78498350560E+01 -0.10620561917E+02 -0.43435018242E+02  0.45398425697E+02  0.51100000000E-03 0. -1.
         11    1    4    4    0    0  0.44505720634E+02  0.10920842557E+03 -0.10322493170E+03  0.15672468188E+03  0.51100000000E-03 0.  1.
    9000005    1    3    3    0    0 -0.56058860331E+02  0.36899555541E+01  0.27770151931E+02  0.62676893125E+02  0.10000000000E+01 0.  0.
    9000005    1    3    3    0    0  0.19402974752E+02 -0.10227781921E+03  0.68632777247E+01  0.10433279596E+03  0.10000000000E+01 0.  0.
<mgrwt>
<rscale>  0 0.15693419E+03</rscale>
<asrwt>0</asrwt>
<pdfrwt beam="2">  1        2 0.37012255E-01 0.16337920E+03</pdfrwt>
<pdfrwt beam="1">  1       -2 0.19777406E-01 0.16337920E+03</pdfrwt>
<totfact> 0.29095752E+03</totfact>
</mgrwt>
</event>
<event>
 8    2  0.8128359E-004  0.1286957E+03  0.7818608E-02  0.1243330E+00
          2   -1    0    0  501    0  0.00000000000E+00  0.00000000000E+00  0.46195469978E+03  0.46195469979E+03  0.25500000000E-02 0. -1.
         -2   -1    0    0    0  501 -0.00000000000E+00 -0.00000000000E+00 -0.34079658207E+02  0.34079658303E+02  0.25500000000E-02 0.  1.
         25    2    1    2    0    0  0.17111135457E+02 -0.25373958871E+02  0.13046026275E+03  0.18325515696E+03  0.12500377455E+03 0.  0.
         23    2    1    2    0    0 -0.17111135457E+02  0.25373958871E+02  0.29741477883E+03  0.31277920113E+03  0.91862120864E+02 0.  0.
        -11    1    4    4    0    0  0.10675355432E+02 -0.18328836254E+02  0.15817743552E+02  0.26459600590E+02  0.51100000000E-03 0.  1.
         11    1    4    4    0    0 -0.27786490890E+02  0.43702795125E+02  0.28159703527E+03  0.28631960054E+03  0.51100000000E-03 0. -1.
    9000005    1    3    3    0    0 -0.45897662310E+02  0.19074600796E+02  0.66735864090E+02  0.83217253961E+02  0.10000000000E+01 0.  0.
    9000005    1    3    3    0    0  0.63008797767E+02 -0.44448559666E+02  0.63724398658E+02  0.10003790300E+03  0.10000000000E+01 0.  0.
<mgrwt>
<rscale>  0 0.11985908E+03</rscale>
<asrwt>0</asrwt>
<pdfrwt beam="1">  1        2 0.71069951E-01 0.12869566E+03</pdfrwt>
<pdfrwt beam="2">  1       -2 0.52430245E-02 0.12869566E+03</pdfrwt>
<totfact> 0.11705848E+04</totfact>
</mgrwt>
</event>
<event>
 8    2  0.8128359E-004  0.1503349E+03  0.7818608E-02  0.1209103E+00
         -2   -1    0    0    0  501 -0.00000000000E+00  0.00000000000E+00  0.20228599016E+02  0.20228599177E+02  0.25500000000E-02 0.  1.
          2   -1    0    0  501    0  0.00000000000E+00 -0.00000000000E+00 -0.98494763810E+03  0.98494763810E+03  0.25500000000E-02 0. -1.
         25    2    1    2    0    0  0.57278078427E+02 -0.60783377452E+02 -0.64657745961E+03  0.66382452059E+03  0.12500074247E+03 0.  0.
         23    2    1    2    0    0 -0.57278078427E+02  0.60783377452E+02 -0.31814157947E+03  0.34135171669E+03  0.91277229659E+02 0.  0.
        -11    1    4    4    0    0 -0.53764015086E+02  0.84237277243E+02 -0.26162620191E+03  0.28006206048E+03  0.51100000000E-03 0.  1.
         11    1    4    4    0    0 -0.35140633408E+01 -0.23453899791E+02 -0.56515377558E+02  0.61289656202E+02  0.51100000000E-03 0. -1.
    9000005    1    3    3    0    0  0.13514033469E+02 -0.33711105667E+01 -0.76067488789E+00  0.13984709984E+02  0.10000000000E+01 0.  0.
    9000005    1    3    3    0    0  0.43764044958E+02 -0.57412266885E+02 -0.64581678472E+03  0.64983981061E+03  0.10000000000E+01 0.  0.
<mgrwt>
<rscale>  0 0.14318775E+03</rscale>
<asrwt>0</asrwt>
<pdfrwt beam="2">  1        2 0.15153037E+00 0.15033490E+03</pdfrwt>
<pdfrwt beam="1">  1       -2 0.31120929E-02 0.15033490E+03</pdfrwt>
<totfact> 0.10421896E+04</totfact>
</mgrwt>
</event>
<event>
 8    2  0.8128359E-004  0.1742282E+03  0.7818608E-02  0.1179397E+00
         -2   -1    0    0    0  501 -0.00000000000E+00  0.00000000000E+00  0.12809290341E+02  0.12809290595E+02  0.25500000000E-02 0.  1.
          2   -1    0    0  501    0  0.00000000000E+00 -0.00000000000E+00 -0.20835939729E+04  0.20835939729E+04  0.25500000000E-02 0. -1.
         25    2    1    2    0    0 -0.21795099900E+02  0.11938067760E+03 -0.11099458345E+04  0.11235369261E+04  0.12501478427E+03 0.  0.
         23    2    1    2    0    0  0.21795099900E+02 -0.11938067760E+03 -0.96083884806E+03  0.97286633737E+03  0.92362578367E+02 0.  0.
        -11    1    4    4    0    0  0.22820805999E+02 -0.82455245889E+02 -0.32878832466E+03  0.33973727966E+03  0.51100000000E-03 0.  1.
         11    1    4    4    0    0 -0.10257060982E+01 -0.36925431710E+02 -0.63205052340E+03  0.63312905770E+03  0.51100000000E-03 0. -1.
    9000005    1    3    3    0    0 -0.71431425250E+02  0.85851459676E+02 -0.62450440704E+03  0.63441285930E+03  0.10000000000E+01 0.  0.
    9000005    1    3    3    0    0  0.49636325350E+02  0.33529217924E+02 -0.48544142746E+03  0.48912406682E+03  0.10000000000E+01 0.  0.
<mgrwt>
<rscale>  0 0.16852313E+03</rscale>
<asrwt>0</asrwt>
<pdfrwt beam="2">  1        2 0.32055265E+00 0.17422821E+03</pdfrwt>
<pdfrwt beam="1">  1       -2 0.19706617E-02 0.17422821E+03</pdfrwt>
<totfact> 0.52866265E+03</totfact>
</mgrwt>
</event>
<event>
 8    2  0.8128359E-004  0.1604420E+03  0.7818608E-02  0.1195368E+00
          2   -1    0    0  501    0  0.00000000000E+00  0.00000000000E+00  0.87443555232E+03  0.87443555233E+03  0.25500000000E-02 0. -1.
         -2   -1    0    0    0  501 -0.00000000000E+00 -0.00000000000E+00 -0.27877825038E+02  0.27877825155E+02  0.25500000000E-02 0.  1.
         25    2    1    2    0    0  0.75700451445E+02  0.66229884205E+02  0.59049272637E+03  0.61190138921E+03  0.12499877722E+03 0.  0.
         23    2    1    2    0    0 -0.75700451445E+02 -0.66229884205E+02  0.25606500091E+03  0.29041198827E+03  0.93020870393E+02 0.  0.
        -11    1    4    4    0    0  0.20069853029E+01  0.14375606424E+02  0.47294170548E+01  0.15266087777E+02  0.51100000000E-03 0.  1.
         11    1    4    4    0    0 -0.77707436748E+02 -0.80605490630E+02  0.25133558386E+03  0.27514590049E+03  0.51100000000E-03 0. -1.
    9000005    1    3    3    0    0  0.21917666103E+02 -0.14000137602E+02  0.37319660898E+03  0.37410305652E+03  0.10000000000E+01 0.  0.
    9000005    1    3    3    0    0  0.53782785343E+02  0.80230021807E+02  0.21729611739E+03  0.23779833269E+03  0.10000000000E+01 0.  0.
<mgrwt>
<rscale>  0 0.15423084E+03</rscale>
<asrwt>0</asrwt>
<pdfrwt beam="1">  1        2 0.13452855E+00 0.16044205E+03</pdfrwt>
<pdfrwt beam="2">  1       -2 0.42888962E-02 0.16044205E+03</pdfrwt>
<totfact> 0.76101692E+03</totfact>
</mgrwt>
</event>
<event>
 8    2  0.8128359E-004  0.1398194E+03  0.7818608E-02  0.1224823E+00
          2   -1    0    0  501    0  0.00000000000E+00  0.00000000000E+00  0.39259973532E+03  0.39259973533E+03  0.25500000000E-02 0. -1.
         -2   -1    0    0    0  501 -0.00000000000E+00 -0.00000000000E+00 -0.76535231896E+02  0.76535231939E+02  0.25500000000E-02 0.  1.
         25    2    1    2    0    0 -0.37078237852E+02 -0.50497717395E+02  0.32951614951E+03  0.35795301266E+03  0.12499860520E+03 0.  0.
         23    2    1    2    0    0  0.37078237852E+02  0.50497717395E+02 -0.13451646083E+02  0.11118195461E+03  0.90860690420E+02 0.  0.
        -11    1    4    4    0    0  0.11112084913E+02  0.15702111314E+01 -0.45720166244E+02  0.47077357570E+02  0.51100000000E-03 0.  1.
         11    1    4    4    0    0  0.25966152940E+02  0.48927506264E+02  0.32268520161E+02  0.64104597037E+02  0.51100000000E-03 0. -1.
    9000005    1    3    3    0    0 -0.32129543016E+02 -0.45564605645E+02  0.40663694262E+02  0.69014323535E+02  0.10000000000E+01 0.  0.
    9000005    1    3    3    0    0 -0.49486948362E+01 -0.49331117507E+01  0.28885245525E+03  0.28893868913E+03  0.10000000000E+01 0.  0.
<mgrwt>
<rscale>  0 0.13179036E+03</rscale>
<asrwt>0</asrwt>
<pdfrwt beam="1">  1        2 0.60399959E-01 0.13981941E+03</pdfrwt>
<pdfrwt beam="2">  1       -2 0.11774651E-01 0.13981941E+03</pdfrwt>
<totfact> 0.40174284E+03</totfact>
</mgrwt>
</event>
<event>
 8    2  0.8128359E-004  0.2075688E+03  0.7818608E-02  0.1147433E+00
          2   -1    0    0  501    0  0.00000000000E+00  0.00000000000E+00  0.42281808222E+04  0.42281808222E+04  0.25500000000E-02 0. -1.
         -2   -1    0    0    0  501 -0.00000000000E+00 -0.00000000000E+00 -0.15516244002E+02  0.15516244211E+02  0.25500000000E-02 0.  1.
         25    2    1    2    0    0  0.15991349078E+03 -0.43458434113E+02  0.35078454484E+04  0.35139812897E+04  0.12499541702E+03 0.  0.
         23    2    1    2    0    0 -0.15991349078E+03  0.43458434113E+02  0.70481912985E+03  0.72971577679E+03  0.90852347602E+02 0.  0.
        -11    1    4    4    0    0 -0.93855714910E+02  0.46481118948E+02  0.26488053949E+03  0.28483519769E+03  0.51100000000E-03 0. -1.
         11    1    4    4    0    0 -0.66057775875E+02 -0.30226848356E+01  0.43993859035E+03  0.44488057910E+03  0.51100000000E-03 0.  1.
    9000005    1    3    3    0    0  0.98184070670E+02 -0.69647888694E+02  0.14314238170E+04  0.14364769695E+04  0.10000000000E+01 0.  0.
    9000005    1    3    3    0    0  0.61729420115E+02  0.26189454581E+02  0.20764216314E+04  0.20775043202E+04  0.10000000000E+01 0.  0.
<mgrwt>
<rscale>  0 0.20275804E+03</rscale>
<asrwt>0</asrwt>
<pdfrwt beam="1">  1        2 0.65048985E+00 0.20756882E+03</pdfrwt>
<pdfrwt beam="2">  1       -2 0.23871127E-02 0.20756882E+03</pdfrwt>
<totfact> 0.18011586E+02</totfact>
</mgrwt>
</event>
<event>
 8    2  0.8128359E-004  0.2040559E+03  0.7818608E-02  0.1150296E+00
         -2   -1    0    0    0  501 -0.00000000000E+00  0.00000000000E+00  0.19164669585E+02  0.19164669755E+02  0.25500000000E-02 0. -1.
          2   -1    0    0  501    0  0.00000000000E+00 -0.00000000000E+00 -0.22194264427E+04  0.22194264427E+04  0.25500000000E-02 0.  1.
         25    2    1    2    0    0 -0.75365448101E+02 -0.14259927947E+03 -0.15109661425E+04  0.15246827516E+04  0.12499721625E+03 0.  0.
         23    2    1    2    0    0  0.75365448101E+02  0.14259927947E+03 -0.68929563066E+03  0.71390836086E+03  0.92315632464E+02 0.  0.
        -11    1    4    4    0    0  0.70973404201E+02  0.75739594495E+02 -0.54524872139E+03  0.55504042957E+03  0.51100000000E-03 0.  1.
         11    1    4    4    0    0  0.43920439007E+01  0.66859684976E+02 -0.14404690927E+03  0.15886793129E+03  0.51100000000E-03 0. -1.
    9000005    1    3    3    0    0 -0.91870734423E+02 -0.15711361840E+03 -0.13580489115E+04  0.13701907776E+04  0.10000000000E+01 0.  0.
    9000005    1    3    3    0    0  0.16505286322E+02  0.14514338926E+02 -0.15291723096E+03  0.15449197402E+03  0.10000000000E+01 0.  0.
<mgrwt>
<rscale>  0 0.19934114E+03</rscale>
<asrwt>0</asrwt>
<pdfrwt beam="2">  1        2 0.34145002E+00 0.20405590E+03</pdfrwt>
<pdfrwt beam="1">  1       -2 0.29484125E-02 0.20405590E+03</pdfrwt>
<totfact> 0.24802219E+03</totfact>
</mgrwt>
</event>
<event>
 8    2  0.8128359E-004  0.1768255E+03  0.7818608E-02  0.1176967E+00
          2   -1    0    0  501    0  0.00000000000E+00  0.00000000000E+00  0.15919831834E+04  0.15919831834E+04  0.25500000000E-02 0. -1.
         -2   -1    0    0    0  501 -0.00000000000E+00 -0.00000000000E+00 -0.20935994621E+02  0.20935994776E+02  0.25500000000E-02 0.  1.
         25    2    1    2    0    0 -0.24890010490E+02 -0.12253257366E+03  0.11699697436E+04  0.11832567178E+04  0.12503405578E+03 0.  0.
         23    2    1    2    0    0  0.24890010490E+02  0.12253257366E+03  0.40107744516E+03  0.42966246034E+03  0.90072018837E+02 0.  0.
        -11    1    4    4    0    0  0.24996275402E+02  0.17230608018E+02  0.20371881586E+03  0.20596859851E+03  0.51100000000E-03 0. -1.
         11    1    4    4    0    0 -0.10626491169E+00  0.10530196564E+03  0.19735862931E+03  0.22369386183E+03  0.51100000000E-03 0.  1.
    9000005    1    3    3    0    0  0.42360630371E+02 -0.93566009604E+02  0.74021640587E+03  0.74730873719E+03  0.10000000000E+01 0.  0.
    9000005    1    3    3    0    0 -0.67250640861E+02 -0.28966564054E+02  0.42975333772E+03  0.43594798063E+03  0.10000000000E+01 0.  0.
<mgrwt>
<rscale>  0 0.17084769E+03</rscale>
<asrwt>0</asrwt>
<pdfrwt beam="1">  1        2 0.24492046E+00 0.17682551E+03</pdfrwt>
<pdfrwt beam="2">  1       -2 0.32209227E-02 0.17682551E+03</pdfrwt>
<totfact> 0.46117977E+03</totfact>
</mgrwt>
</event>
<event>
 8    2  0.8128359E-004  0.1501775E+03  0.7818608E-02  0.1216867E+00
          2   -1    0    0  501    0  0.00000000000E+00  0.00000000000E+00  0.26994334339E+03  0.26994334340E+03  0.25500000000E-02 0. -1.
         -2   -1    0    0    0  501 -0.00000000000E+00 -0.00000000000E+00 -0.64606217237E+02  0.64606217287E+02  0.25500000000E-02 0.  1.
         25    2    1    2    0    0 -0.52145844267E+02  0.64869080558E+02  0.16153718384E+03  0.22056189288E+03  0.12500440049E+03 0.  0.
         23    2    1    2    0    0  0.52145844267E+02 -0.64869080558E+02  0.43799942310E+02  0.11398766780E+03  0.64401605401E+02 0.  0.
        -11    1    4    4    0    0  0.15924441353E+02 -0.47273908538E+02 -0.56642792168E+01  0.50204524897E+02  0.51100000000E-03 0.  1.
         11    1    4    4    0    0  0.36221402914E+02 -0.17595172020E+02  0.49464221527E+02  0.63783142906E+02  0.51100000000E-03 0. -1.
    9000005    1    3    3    0    0  0.22366185604E+02  0.68062107708E+02  0.54137900895E+02  0.89803168527E+02  0.10000000000E+01 0.  0.
    9000005    1    3    3    0    0 -0.74512029871E+02 -0.31930271498E+01  0.10739928294E+03  0.13075872435E+03  0.10000000000E+01 0.  0.
<mgrwt>
<rscale>  0 0.13740276E+03</rscale>
<asrwt>0</asrwt>
<pdfrwt beam="1">  1        2 0.41529745E-01 0.15017752E+03</pdfrwt>
<pdfrwt beam="2">  1       -2 0.99394180E-02 0.15017752E+03</pdfrwt>
<totfact> 0.78594995E+03</totfact>
</mgrwt>
</event>
<event>
 8    2  0.8128359E-004  0.1411301E+03  0.7818608E-02  0.1221986E+00
          2   -1    0    0  501    0  0.00000000000E+00  0.00000000000E+00  0.44320757822E+02  0.44320757895E+02  0.25500000000E-02 0. -1.
         -2   -1    0    0    0  501 -0.00000000000E+00 -0.00000000000E+00 -0.38748438873E+03  0.38748438874E+03  0.25500000000E-02 0.  1.
         25    2    1    2    0    0 -0.25987413194E+02  0.60122754949E+02 -0.23858125566E+03  0.27719797495E+03  0.12501044139E+03 0.  0.
         23    2    1    2    0    0  0.25987413194E+02 -0.60122754949E+02 -0.10458237524E+03  0.15460717168E+03  0.93144044448E+02 0.  0.
        -11    1    4    4    0    0  0.18098249181E+02 -0.29907660756E+02 -0.11615691439E+03  0.12130310612E+03  0.51100000000E-03 0.  1.
         11    1    4    4    0    0  0.78891640128E+01 -0.30215094193E+02  0.11574539143E+02  0.33304065556E+02  0.51100000000E-03 0. -1.
    9000005    1    3    3    0    0  0.43347291758E+01  0.60924113662E+02 -0.23916521969E+03  0.24684314819E+03  0.10000000000E+01 0.  0.
    9000005    1    3    3    0    0 -0.30322142369E+02 -0.80135871308E+00  0.58396402269E+00  0.30354826760E+02  0.10000000000E+01 0.  0.
<mgrwt>
<rscale>  0 0.13375655E+03</rscale>
<asrwt>0</asrwt>
<pdfrwt beam="1">  1        2 0.68185784E-02 0.14113009E+03</pdfrwt>
<pdfrwt beam="2">  1       -2 0.59612981E-01 0.14113009E+03</pdfrwt>
<totfact> 0.26934898E+03</totfact>
</mgrwt>
</event>
<event>
 8    2  0.8128359E-004  0.1255228E+03  0.7818608E-02  0.1250011E+00
         -2   -1    0    0    0  501 -0.00000000000E+00  0.00000000000E+00  0.47113417248E+03  0.47113417249E+03  0.25500000000E-02 0.  1.
          2   -1    0    0  501    0  0.00000000000E+00 -0.00000000000E+00 -0.25484170962E+02  0.25484171090E+02  0.25500000000E-02 0. -1.
         25    2    1    2    0    0  0.11267899513E+02 -0.19317206447E+01  0.22128068944E+03  0.25440344194E+03  0.12500108258E+03 0.  0.
         23    2    1    2    0    0 -0.11267899513E+02  0.19317206447E+01  0.22436931208E+03  0.24221490164E+03  0.90530510168E+02 0.  0.
        -11    1    4    4    0    0 -0.32496758297E+02  0.35491388014E+02  0.15483261260E+03  0.16213826152E+03  0.51100000000E-03 0.  1.
         11    1    4    4    0    0  0.21228858784E+02 -0.33559667369E+02  0.69536699478E+02  0.80076640126E+02  0.51100000000E-03 0. -1.
    9000005    1    3    3    0    0  0.26052521690E+02  0.55688561404E+02  0.78444773564E+02  0.99672123772E+02  0.10000000000E+01 0.  0.
    9000005    1    3    3    0    0 -0.14784622177E+02 -0.57620282048E+02  0.14283591588E+03  0.15473131817E+03  0.10000000000E+01 0.  0.
<mgrwt>
<rscale>  0 0.11590429E+03</rscale>
<asrwt>0</asrwt>
<pdfrwt beam="2">  1        2 0.39206422E-02 0.12552278E+03</pdfrwt>
<pdfrwt beam="1">  1       -2 0.72482172E-01 0.12552278E+03</pdfrwt>
<totfact> 0.36441305E+03</totfact>
</mgrwt>
</event>
<event>
 8    2  0.8128359E-004  0.1359265E+03  0.7818608E-02  0.1228785E+00
         -2   -1    0    0    0  501 -0.00000000000E+00  0.00000000000E+00  0.21642020773E+02  0.21642020924E+02  0.25500000000E-02 0.  1.
          2   -1    0    0  501    0  0.00000000000E+00 -0.00000000000E+00 -0.85520031879E+03  0.85520031879E+03  0.25500000000E-02 0. -1.
         25    2    1    2    0    0 -0.32727981581E+02 -0.42190704228E+02 -0.26728247792E+03  0.29985987129E+03  0.12499937242E+03 0.  0.
         23    2    1    2    0    0  0.32727981581E+02  0.42190704228E+02 -0.56627582009E+03  0.57698246842E+03  0.96898339216E+02 0.  0.
        -11    1    4    4    0    0  0.47687570669E+02  0.40977933063E+02 -0.55410038722E+03  0.55765628708E+03  0.51100000000E-03 0. -1.
         11    1    4    4    0    0 -0.14959589089E+02  0.12127711652E+01 -0.12175432872E+02  0.19326181348E+02  0.51100000000E-03 0.  1.
    9000005    1    3    3    0    0 -0.36076003449E+02  0.45184604960E+01 -0.91402064795E+01  0.37502505045E+02  0.10000000000E+01 0.  0.
    9000005    1    3    3    0    0  0.33480218688E+01 -0.46709164724E+02 -0.25814227144E+03  0.26235736625E+03  0.10000000000E+01 0.  0.
<mgrwt>
<rscale>  0 0.12910792E+03</rscale>
<asrwt>0</asrwt>
<pdfrwt beam="2">  1        2 0.13156925E+00 0.13592652E+03</pdfrwt>
<pdfrwt beam="1">  1       -2 0.33295423E-02 0.13592652E+03</pdfrwt>
<totfact> 0.11304623E+04</totfact>
</mgrwt>
</event>
<event>
 8    2  0.8128359E-004  0.1778341E+03  0.7818608E-02  0.1175426E+00
         -2   -1    0    0    0  501 -0.00000000000E+00  0.00000000000E+00  0.22171917130E+02  0.22171917277E+02  0.25500000000E-02 0. -1.
          2   -1    0    0  501    0  0.00000000000E+00 -0.00000000000E+00 -0.12754748742E+04  0.12754748742E+04  0.25500000000E-02 0.  1.
         25    2    1    2    0    0 -0.10377806852E+03 -0.72320878676E+02 -0.60185096002E+03  0.62757432114E+03  0.12499901391E+03 0.  0.
         23    2    1    2    0    0  0.10377806852E+03  0.72320878676E+02 -0.65145199707E+03  0.67007247036E+03  0.92775072348E+02 0.  0.
        -11    1    4    4    0    0  0.11835021823E+03  0.73783948872E+02 -0.61822544484E+03  0.63376142666E+03  0.51100000000E-03 0.  1.
         11    1    4    4    0    0 -0.14572149712E+02 -0.14630701955E+01 -0.33226552229E+02  0.36311043705E+02  0.51100000000E-03 0. -1.
    9000005    1    3    3    0    0 -0.36900211573E+02 -0.62398388344E+02 -0.11427973441E+03  0.13533677320E+03  0.10000000000E+01 0.  0.
    9000005    1    3    3    0    0 -0.66877856950E+02 -0.99224903324E+01 -0.48757122561E+03  0.49223754794E+03  0.10000000000E+01 0.  0.
<mgrwt>
<rscale>  0 0.17234331E+03</rscale>
<asrwt>0</asrwt>
<pdfrwt beam="2">  1        2 0.19622685E+00 0.17783405E+03</pdfrwt>
<pdfrwt beam="1">  1       -2 0.34110652E-02 0.17783405E+03</pdfrwt>
<totfact> 0.62466533E+03</totfact>
</mgrwt>
</event>
<event>
 8    2  0.8128359E-004  0.1540391E+03  0.7818608E-02  0.1204511E+00
         -2   -1    0    0    0  501 -0.00000000000E+00  0.00000000000E+00  0.21750700351E+02  0.21750700501E+02  0.25500000000E-02 0.  1.
          2   -1    0    0  501    0  0.00000000000E+00 -0.00000000000E+00 -0.92254562119E+03  0.92254562119E+03  0.25500000000E-02 0. -1.
         25    2    1    2    0    0  0.89377225535E+02 -0.10707764433E+02 -0.55349820011E+03  0.57453311183E+03  0.12500037760E+03 0.  0.
         23    2    1    2    0    0 -0.89377225535E+02  0.10707764433E+02 -0.34729672073E+03  0.36976320986E+03  0.89481140338E+02 0.  0.
        -11    1    4    4    0    0 -0.94439760190E+02 -0.64300284315E+01 -0.19869294681E+03  0.22008884725E+03  0.51100000000E-03 0.  1.
         11    1    4    4    0    0  0.50625346550E+01  0.17137792865E+02 -0.14860377392E+03  0.14967436262E+03  0.51100000000E-03 0. -1.
    9000005    1    3    3    0    0  0.77501018778E+02  0.39459072746E+02 -0.45619676783E+03  0.46441351973E+03  0.10000000000E+01 0.  0.
    9000005    1    3    3    0    0  0.11876206757E+02 -0.50166837180E+02 -0.97301432276E+02  0.11011959209E+03  0.10000000000E+01 0.  0.
<mgrwt>
<rscale>  0 0.14676062E+03</rscale>
<asrwt>0</asrwt>
<pdfrwt beam="2">  1        2 0.14193007E+00 0.15403908E+03</pdfrwt>
<pdfrwt beam="1">  1       -2 0.33462623E-02 0.15403908E+03</pdfrwt>
<totfact> 0.10240563E+04</totfact>
</mgrwt>
</event>
<event>
 8    2  0.8128359E-004  0.1335386E+03  0.7818608E-02  0.1234864E+00
         -2   -1    0    0    0  501 -0.00000000000E+00  0.00000000000E+00  0.80448662412E+01  0.80448666453E+01  0.25500000000E-02 0.  1.
          2   -1    0    0  501    0  0.00000000000E+00 -0.00000000000E+00 -0.18054561586E+04  0.18054561586E+04  0.25500000000E-02 0. -1.
         25    2    1    2    0    0 -0.46203460845E+02 -0.85801677956E+01 -0.11843867201E+04  0.11918911238E+04  0.12499667624E+03 0.  0.
         23    2    1    2    0    0  0.46203460845E+02  0.85801677956E+01 -0.61302457223E+03  0.62160990146E+03  0.91604390517E+02 0.  0.
        -11    1    4    4    0    0  0.65212966231E+02 -0.46077355115E+01 -0.55940018244E+03  0.56320735640E+03  0.51100000000E-03 0. -1.
         11    1    4    4    0    0 -0.19009505386E+02  0.13187903307E+02 -0.53624389793E+02  0.58402545061E+02  0.51100000000E-03 0.  1.
    9000005    1    3    3    0    0  0.16530102641E+02  0.15720512163E+01 -0.21096481965E+02  0.26865911294E+02  0.10000000000E+01 0.  0.
    9000005    1    3    3    0    0 -0.62733563486E+02 -0.10152219012E+02 -0.11632902382E+04  0.11650252125E+04  0.10000000000E+01 0.  0.
<mgrwt>
<rscale>  0 0.12513159E+03</rscale>
<asrwt>0</asrwt>
<pdfrwt beam="2">  1        2 0.27776216E+00 0.13353856E+03</pdfrwt>
<pdfrwt beam="1">  1       -2 0.12376732E-02 0.13353856E+03</pdfrwt>
<totfact> 0.14303818E+04</totfact>
</mgrwt>
</event>
<event>
 8    2  0.8128359E-004  0.1474507E+03  0.7818608E-02  0.1213400E+00
         -2   -1    0    0    0  501 -0.00000000000E+00  0.00000000000E+00  0.18065708073E+02  0.18065708253E+02  0.25500000000E-02 0.  1.
          2   -1    0    0  501    0  0.00000000000E+00 -0.00000000000E+00 -0.10162012579E+04  0.10162012579E+04  0.25500000000E-02 0. -1.
         25    2    1    2    0    0 -0.77924271135E+02  0.65964011690E+01 -0.63630896989E+03  0.65316982091E+03  0.12500402091E+03 0.  0.
         23    2    1    2    0    0  0.77924271135E+02 -0.65964011690E+01 -0.36182657995E+03  0.38109714526E+03  0.90558575667E+02 0.  0.
        -11    1    4    4    0    0  0.41842649423E+02  0.23060265409E+02 -0.65281583789E+02  0.80896652179E+02  0.51100000000E-03 0.  1.
         11    1    4    4    0    0  0.36081621712E+02 -0.29656666578E+02 -0.29654499616E+03  0.30020049308E+03  0.51100000000E-03 0. -1.
    9000005    1    3    3    0    0 -0.78987284855E+02 -0.31446724479E+02 -0.57316439090E+03  0.57943619721E+03  0.10000000000E+01 0.  0.
    9000005    1    3    3    0    0  0.10630137197E+01  0.38043125648E+02 -0.63144578996E+02  0.73733623699E+02  0.10000000000E+01 0.  0.
<mgrwt>
<rscale>  0 0.13994744E+03</rscale>
<asrwt>0</asrwt>
<pdfrwt beam="2">  1        2 0.15633861E+00 0.14745070E+03</pdfrwt>
<pdfrwt beam="1">  1       -2 0.27793405E-02 0.14745070E+03</pdfrwt>
<totfact> 0.11777047E+04</totfact>
</mgrwt>
</event>
<event>
 8    2  0.8128359E-004  0.1710572E+03  0.7818608E-02  0.1184081E+00
         -2   -1    0    0    0  501 -0.00000000000E+00  0.00000000000E+00  0.15376841134E+03  0.15376841136E+03  0.25500000000E-02 0.  1.
          2   -1    0    0  501    0  0.00000000000E+00 -0.00000000000E+00 -0.28303788705E+03  0.28303788706E+03  0.25500000000E-02 0. -1.
         25    2    1    2    0    0 -0.24031174790E+02 -0.11426380194E+03 -0.20993829937E+03  0.27080372640E+03  0.12500741937E+03 0.  0.
         23    2    1    2    0    0  0.24031174790E+02  0.11426380194E+03  0.80668823659E+02  0.16600257202E+03  0.86114348470E+02 0.  0.
        -11    1    4    4    0    0 -0.15964894521E+02  0.10074117942E+03  0.48605368269E+02  0.11298736617E+03  0.51100000000E-03 0. -1.
         11    1    4    4    0    0  0.39996069310E+02  0.13522622514E+02  0.32063455390E+02  0.53015205854E+02  0.51100000000E-03 0.  1.
    9000005    1    3    3    0    0  0.21829794294E+01 -0.13425428559E+03 -0.14287821680E+03  0.19607183233E+03  0.10000000000E+01 0.  0.
    9000005    1    3    3    0    0 -0.26214154219E+02  0.19990483649E+02 -0.67060082568E+02  0.74731894074E+02  0.10000000000E+01 0.  0.
<mgrwt>
<rscale>  0 0.16415760E+03</rscale>
<asrwt>0</asrwt>
<pdfrwt beam="2">  1        2 0.43544290E-01 0.17105721E+03</pdfrwt>
<pdfrwt beam="1">  1       -2 0.23656679E-01 0.17105721E+03</pdfrwt>
<totfact> 0.18003017E+03</totfact>
</mgrwt>
</event>
<event>
 8    2  0.8128359E-004  0.1360307E+03  0.7818608E-02  0.1231035E+00
         -2   -1    0    0    0  501 -0.00000000000E+00  0.00000000000E+00  0.57579514755E+02  0.57579514812E+02  0.25500000000E-02 0.  1.
          2   -1    0    0  501    0  0.00000000000E+00 -0.00000000000E+00 -0.25363272422E+03  0.25363272423E+03  0.25500000000E-02 0. -1.
         25    2    1    2    0    0 -0.36658381800E+02 -0.39175056475E+02 -0.10286350911E+03  0.17054396014E+03  0.12500327527E+03 0.  0.
         23    2    1    2    0    0  0.36658381800E+02  0.39175056475E+02 -0.93189700350E+02  0.14066827890E+03  0.90690255437E+02 0.  0.
        -11    1    4    4    0    0  0.39249298846E+02  0.45139832682E+02 -0.10857653450E+03  0.12396360675E+03  0.51100000000E-03 0. -1.
         11    1    4    4    0    0 -0.25909170456E+01 -0.59647762072E+01  0.15386834147E+02  0.16704672151E+02  0.51100000000E-03 0.  1.
    9000005    1    3    3    0    0 -0.39404361224E+02  0.38782327323E+02 -0.26282240264E+02  0.61225229679E+02  0.10000000000E+01 0.  0.
    9000005    1    3    3    0    0  0.27459794231E+01 -0.77957383798E+02 -0.76581268851E+02  0.10931873047E+03  0.10000000000E+01 0.  0.
<mgrwt>
<rscale>  0 0.12761709E+03</rscale>
<asrwt>0</asrwt>
<pdfrwt beam="2">  1        2 0.39020419E-01 0.13603066E+03</pdfrwt>
<pdfrwt beam="1">  1       -2 0.88583870E-02 0.13603066E+03</pdfrwt>
<totfact> 0.99865604E+03</totfact>
</mgrwt>
</event>
<event>
 8    2  0.8128359E-004  0.1317757E+03  0.7818608E-02  0.1238092E+00
         -2   -1    0    0    0  501 -0.00000000000E+00  0.00000000000E+00  0.40091184718E+02  0.40091184799E+02  0.25500000000E-02 0.  1.
          2   -1    0    0  501    0  0.00000000000E+00 -0.00000000000E+00 -0.35138929972E+03  0.35138929973E+03  0.25500000000E-02 0. -1.
         25    2    1    2    0    0  0.25110619918E+02 -0.33337899879E+02 -0.21660232207E+03  0.25353777332E+03  0.12499151081E+03 0.  0.
         23    2    1    2    0    0 -0.25110619918E+02  0.33337899879E+02 -0.94695792930E+02  0.13794271120E+03  0.91208220978E+02 0.  0.
        -11    1    4    4    0    0  0.46080376425E+00  0.17902405540E+02 -0.10487033350E+03  0.10638841719E+03  0.51100000000E-03 0. -1.
         11    1    4    4    0    0 -0.25571423682E+02  0.15435494339E+02  0.10174540566E+02  0.31554294012E+02  0.51100000000E-03 0.  1.
    9000005    1    3    3    0    0  0.70474883445E+02  0.47215695650E+01 -0.13898392720E+03  0.15590553049E+03  0.10000000000E+01 0.  0.
    9000005    1    3    3    0    0 -0.45364263527E+02 -0.38059469444E+02 -0.77618394864E+02  0.97632242835E+02  0.10000000000E+01 0.  0.
<mgrwt>
<rscale>  0 0.12308528E+03</rscale>
<asrwt>0</asrwt>
<pdfrwt beam="2">  1        2 0.54059890E-01 0.13177571E+03</pdfrwt>
<pdfrwt beam="1">  1       -2 0.61678748E-02 0.13177571E+03</pdfrwt>
<totfact> 0.12295113E+04</totfact>
</mgrwt>
</event>
<event>
 8    2  0.8128359E-004  0.1396627E+03  0.7818608E-02  0.1226130E+00
         -2   -1    0    0    0  501 -0.00000000000E+00  0.00000000000E+00  0.98046721581E+02  0.98046721614E+02  0.25500000000E-02 0.  1.
          2   -1    0    0  501    0  0.00000000000E+00 -0.00000000000E+00 -0.21989859960E+03  0.21989859962E+03  0.25500000000E-02 0. -1.
         25    2    1    2    0    0  0.39594995048E+02  0.48114754274E+02 -0.15162123437E+03  0.20614234957E+03  0.12499150516E+03 0.  0.
         23    2    1    2    0    0 -0.39594995048E+02 -0.48114754274E+02  0.29769356351E+02  0.11180297166E+03  0.87925517814E+02 0.  0.
        -11    1    4    4    0    0  0.16060352045E+02 -0.32901471607E+00  0.34745475880E+02  0.38279122938E+02  0.51100000000E-03 0.  1.
         11    1    4    4    0    0 -0.55655347093E+02 -0.47785739558E+02 -0.49761195287E+01  0.73523848722E+02  0.51100000000E-03 0. -1.
    9000005    1    3    3    0    0  0.53764179554E+01  0.45575271919E+02  0.46575835370E+01  0.46137884270E+02  0.10000000000E+01 0.  0.
    9000005    1    3    3    0    0  0.34218577092E+02  0.25394823554E+01 -0.15627881791E+03  0.16000446530E+03  0.10000000000E+01 0.  0.
<mgrwt>
<rscale>  0 0.13089758E+03</rscale>
<asrwt>0</asrwt>
<pdfrwt beam="2">  1        2 0.33830554E-01 0.13966270E+03</pdfrwt>
<pdfrwt beam="1">  1       -2 0.15084111E-01 0.13966270E+03</pdfrwt>
<totfact> 0.49906732E+03</totfact>
</mgrwt>
</event>
<event>
 8    2  0.8128359E-004  0.1319143E+03  0.7818608E-02  0.1237000E+00
         -2   -1    0    0    0  501 -0.00000000000E+00  0.00000000000E+00  0.36783224536E+02  0.36783224624E+02  0.25500000000E-02 0.  1.
          2   -1    0    0  501    0  0.00000000000E+00 -0.00000000000E+00 -0.40162930093E+03  0.40162930094E+03  0.25500000000E-02 0. -1.
         25    2    1    2    0    0  0.23570399035E+02 -0.34937618936E+02 -0.14542406701E+03  0.19634039320E+03  0.12500075924E+03 0.  0.
         23    2    1    2    0    0 -0.23570399035E+02  0.34937618936E+02 -0.21942200939E+03  0.24207213236E+03  0.93148795671E+02 0.  0.
        -11    1    4    4    0    0  0.33583758284E+02  0.29696797663E+02 -0.94171007418E+02  0.10429739810E+03  0.51100000000E-03 0. -1.
         11    1    4    4    0    0 -0.57154157319E+02  0.52408212726E+01 -0.12525100197E+03  0.13777473426E+03  0.51100000000E-03 0.  1.
    9000005    1    3    3    0    0 -0.14783101339E+02 -0.15405871853E+02 -0.15137707004E+03  0.15287870455E+03  0.10000000000E+01 0.  0.
    9000005    1    3    3    0    0  0.38353500374E+02 -0.19531747083E+02  0.59530030297E+01  0.43461688648E+02  0.10000000000E+01 0.  0.
<mgrwt>
<rscale>  0 0.12377233E+03</rscale>
<asrwt>0</asrwt>
<pdfrwt beam="2">  1        2 0.61789120E-01 0.13191433E+03</pdfrwt>
<pdfrwt beam="1">  1       -2 0.56589579E-02 0.13191433E+03</pdfrwt>
<totfact> 0.12151222E+04</totfact>
</mgrwt>
</event>
<event>
 8    2  0.8128359E-004  0.1477525E+03  0.7818608E-02  0.1212589E+00
         -2   -1    0    0    0  501 -0.00000000000E+00  0.00000000000E+00  0.65555631984E+01  0.65555636943E+01  0.25500000000E-02 0.  1.
          2   -1    0    0  501    0  0.00000000000E+00 -0.00000000000E+00 -0.30476201522E+04  0.30476201522E+04  0.25500000000E-02 0. -1.
         25    2    1    2    0    0 -0.39474432083E+02 -0.68167569431E+02 -0.21291142023E+04  0.21342347752E+04  0.12500296456E+03 0.  0.
         23    2    1    2    0    0  0.39474432083E+02  0.68167569431E+02 -0.91195038666E+03  0.91994094060E+03  0.91830159295E+02 0.  0.
        -11    1    4    4    0    0 -0.22039320544E+02  0.36730406677E+02 -0.19389624206E+03  0.19857141565E+03  0.51100000000E-03 0.  1.
         11    1    4    4    0    0  0.61513752627E+02  0.31437162754E+02 -0.71805414460E+03  0.72136952496E+03  0.51100000000E-03 0. -1.
    9000005    1    3    3    0    0  0.18795321339E+02 -0.85023677455E+02 -0.12619012407E+04  0.12649023801E+04  0.10000000000E+01 0.  0.
    9000005    1    3    3    0    0 -0.58269753422E+02  0.16856108024E+02 -0.86721296162E+03  0.86933239519E+03  0.10000000000E+01 0.  0.
<mgrwt>
<rscale>  0 0.14055154E+03</rscale>
<asrwt>0</asrwt>
<pdfrwt beam="2">  1        2 0.46886351E+00 0.14775246E+03</pdfrwt>
<pdfrwt beam="1">  1       -2 0.10085507E-02 0.14775246E+03</pdfrwt>
<totfact> 0.41511227E+03</totfact>
</mgrwt>
</event>
<event>
 8    2  0.8128359E-004  0.1594123E+03  0.7818608E-02  0.1199377E+00
         -2   -1    0    0    0  501 -0.00000000000E+00  0.00000000000E+00  0.96659440918E+02  0.96659440951E+02  0.25500000000E-02 0.  1.
          2   -1    0    0  501    0  0.00000000000E+00 -0.00000000000E+00 -0.21423025875E+03  0.21423025876E+03  0.25500000000E-02 0. -1.
         25    2    1    2    0    0  0.70419764026E+02  0.69484233629E+02 -0.73428887626E+02  0.17551087980E+03  0.12500106201E+03 0.  0.
         23    2    1    2    0    0 -0.70419764026E+02 -0.69484233629E+02 -0.44141930203E+02  0.13537881991E+03  0.81190596681E+02 0.  0.
        -11    1    4    4    0    0 -0.19484392034E+02 -0.59666714734E+02 -0.53734313351E+02  0.82626477667E+02  0.51100000000E-03 0.  1.
         11    1    4    4    0    0 -0.50935371992E+02 -0.98175188952E+01  0.95923831485E+01  0.52752342242E+02  0.51100000000E-03 0. -1.
    9000005    1    3    3    0    0  0.34518613473E+02 -0.33862522003E+02 -0.34388905919E+02  0.59344771655E+02  0.10000000000E+01 0.  0.
    9000005    1    3    3    0    0  0.35901150553E+02  0.10334675563E+03 -0.39039981706E+02  0.11616610815E+03  0.10000000000E+01 0.  0.
<mgrwt>
<rscale>  0 0.15089572E+03</rscale>
<asrwt>0</asrwt>
<pdfrwt beam="2">  1        2 0.32958501E-01 0.15941226E+03</pdfrwt>
<pdfrwt beam="1">  1       -2 0.14870683E-01 0.15941226E+03</pdfrwt>
<totfact> 0.52956364E+03</totfact>
</mgrwt>
</event>
<event>
 8    2  0.8128359E-004  0.1321842E+03  0.7818608E-02  0.1237603E+00
          2   -1    0    0  501    0  0.00000000000E+00  0.00000000000E+00  0.44113259542E+02  0.44113259616E+02  0.25500000000E-02 0. -1.
         -2   -1    0    0    0  501 -0.00000000000E+00 -0.00000000000E+00 -0.31468147635E+03  0.31468147636E+03  0.25500000000E-02 0.  1.
         25    2    1    2    0    0  0.26198643646E+02  0.34071526186E+02 -0.18196953689E+03  0.22491234376E+03  0.12500164875E+03 0.  0.
         23    2    1    2    0    0 -0.26198643646E+02 -0.34071526186E+02 -0.88598679911E+02  0.13388239222E+03  0.90705738730E+02 0.  0.
        -11    1    4    4    0    0  0.29837939872E+02 -0.16896677455E+02 -0.97733073563E+01  0.35655545176E+02  0.51100000000E-03 0. -1.
         11    1    4    4    0    0 -0.56036583518E+02 -0.17174848730E+02 -0.78825372555E+02  0.98226847043E+02  0.51100000000E-03 0.  1.
    9000005    1    3    3    0    0  0.68787762213E+00  0.77262244382E+02 -0.13818084988E+03  0.15831890240E+03  0.10000000000E+01 0.  0.
    9000005    1    3    3    0    0  0.25510766024E+02 -0.43190718197E+02 -0.43788687009E+02  0.66593441354E+02  0.10000000000E+01 0.  0.
<mgrwt>
<rscale>  0 0.12339255E+03</rscale>
<asrwt>0</asrwt>
<pdfrwt beam="1">  1        2 0.67866555E-02 0.13218415E+03</pdfrwt>
<pdfrwt beam="2">  1       -2 0.48412533E-01 0.13218415E+03</pdfrwt>
<totfact> 0.40973380E+03</totfact>
</mgrwt>
</event>
<event>
 8    2  0.8128359E-004  0.1666217E+03  0.7818608E-02  0.1188714E+00
          2   -1    0    0  501    0  0.00000000000E+00  0.00000000000E+00  0.73269357319E+03  0.73269357320E+03  0.25500000000E-02 0.  1.
         -2   -1    0    0    0  501 -0.00000000000E+00 -0.00000000000E+00 -0.41492509504E+02  0.41492509582E+02  0.25500000000E-02 0. -1.
         25    2    1    2    0    0  0.98748245814E+02 -0.48863554545E+02  0.54806172040E+03  0.57283019888E+03  0.12499569740E+03 0.  0.
         23    2    1    2    0    0 -0.98748245814E+02  0.48863554545E+02  0.14313934329E+03  0.20135588390E+03  0.88974475944E+02 0.  0.
        -11    1    4    4    0    0 -0.35429495075E+02  0.75252640452E+01  0.11516945928E+03  0.12073062193E+03  0.51100000000E-03 0.  1.
         11    1    4    4    0    0 -0.63318750739E+02  0.41338290500E+02  0.27969884015E+02  0.80625261976E+02  0.51100000000E-03 0. -1.
    9000005    1    3    3    0    0  0.24790765795E+02  0.30324285924E+02  0.52208047766E+02  0.65274992432E+02  0.10000000000E+01 0.  0.
    9000005    1    3    3    0    0  0.73957480018E+02 -0.79187840469E+02  0.49585367263E+03  0.50755520645E+03  0.10000000000E+01 0.  0.
<mgrwt>
<rscale>  0 0.15998429E+03</rscale>
<asrwt>0</asrwt>
<pdfrwt beam="1">  1        2 0.11272208E+00 0.16662169E+03</pdfrwt>
<pdfrwt beam="2">  1       -2 0.63834632E-02 0.16662169E+03</pdfrwt>
<totfact> 0.52156229E+03</totfact>
</mgrwt>
</event>
<event>
 8    2  0.8128359E-004  0.1369988E+03  0.7818608E-02  0.1228966E+00
          2   -1    0    0  501    0  0.00000000000E+00  0.00000000000E+00  0.19763275804E+04  0.19763275804E+04  0.25500000000E-02 0. -1.
         -2   -1    0    0    0  501 -0.00000000000E+00 -0.00000000000E+00 -0.75879185846E+01  0.75879190131E+01  0.25500000000E-02 0.  1.
         25    2    1    2    0    0  0.54298904127E+02 -0.13989741385E+02  0.10566256277E+04  0.10654700286E+04  0.12499832312E+03 0.  0.
         23    2    1    2    0    0 -0.54298904127E+02  0.13989741385E+02  0.91211403409E+03  0.91844547084E+03  0.91902055802E+02 0.  0.
        -11    1    4    4    0    0 -0.68283680670E+02  0.55863752438E+00  0.38732823068E+03  0.39330157819E+03  0.51100000000E-03 0.  1.
         11    1    4    4    0    0  0.13984776543E+02  0.13431103861E+02  0.52478580341E+03  0.52514389265E+03  0.51100000000E-03 0. -1.
    9000005    1    3    3    0    0  0.91732491083E+02  0.56899739340E+00  0.58660009935E+03  0.59373045251E+03  0.10000000000E+01 0.  0.
    9000005    1    3    3    0    0 -0.37433586956E+02 -0.14558738778E+02  0.47002552840E+03  0.47173957609E+03  0.10000000000E+01 0.  0.
<mgrwt>
<rscale>  0 0.12898769E+03</rscale>
<asrwt>0</asrwt>
<pdfrwt beam="1">  1        2 0.30405064E+00 0.13699878E+03</pdfrwt>
<pdfrwt beam="2">  1       -2 0.11673712E-02 0.13699878E+03</pdfrwt>
<totfact> 0.12737997E+04</totfact>
</mgrwt>
</event>
<event>
 8    2  0.8128359E-004  0.1639996E+03  0.7818608E-02  0.1190836E+00
         -2   -1    0    0    0  501 -0.00000000000E+00  0.00000000000E+00  0.50415908213E+02  0.50415908277E+02  0.25500000000E-02 0.  1.
          2   -1    0    0  501    0  0.00000000000E+00 -0.00000000000E+00 -0.61481685999E+03  0.61481685999E+03  0.25500000000E-02 0. -1.
         25    2    1    2    0    0  0.67056150584E+02 -0.82292759150E+02 -0.46241399281E+03  0.49063485402E+03  0.12500893447E+03 0.  0.
         23    2    1    2    0    0 -0.67056150584E+02  0.82292759150E+02 -0.10198695897E+03  0.17459791425E+03  0.93885389284E+02 0.  0.
        -11    1    4    4    0    0  0.48200679995E+01 -0.50067912931E+01  0.12106445145E+02  0.13959478102E+02  0.51100000000E-03 0.  1.
         11    1    4    4    0    0 -0.71876218583E+02  0.87299550444E+02 -0.11409340411E+03  0.16063843615E+03  0.51100000000E-03 0. -1.
    9000005    1    3    3    0    0 -0.28054587039E+02 -0.48581507675E+02 -0.10262861754E+03  0.11696519089E+03  0.10000000000E+01 0.  0.
    9000005    1    3    3    0    0  0.95110737623E+02 -0.33711251475E+02 -0.35978537527E+03  0.37366966313E+03  0.10000000000E+01 0.  0.
<mgrwt>
<rscale>  0 0.15811965E+03</rscale>
<asrwt>0</asrwt>
<pdfrwt beam="2">  1        2 0.94587204E-01 0.16399957E+03</pdfrwt>
<pdfrwt beam="1">  1       -2 0.77562940E-02 0.16399957E+03</pdfrwt>
<totfact> 0.47526412E+03</totfact>
</mgrwt>
</event>
<event>
 8    2  0.8128359E-004  0.1543606E+03  0.7818608E-02  0.1200793E+00
         -2   -1    0    0    0  501 -0.00000000000E+00  0.00000000000E+00  0.88959367946E+01  0.88959371601E+01  0.25500000000E-02 0.  1.
          2   -1    0    0  501    0  0.00000000000E+00 -0.00000000000E+00 -0.40633486796E+04  0.40633486796E+04  0.25500000000E-02 0. -1.
         25    2    1    2    0    0  0.59519081722E+02  0.68260689787E+02 -0.34082016688E+04  0.34116954461E+04  0.12500063396E+03 0.  0.
         23    2    1    2    0    0 -0.59519081722E+02 -0.68260689787E+02 -0.64625107395E+03  0.66054917066E+03  0.10238512304E+03 0.  0.
        -11    1    4    4    0    0 -0.17788888341E+02 -0.15887837309E+01 -0.12178437152E+02  0.21616732266E+02  0.51100000000E-03 0.  1.
         11    1    4    4    0    0 -0.41730193381E+02 -0.66671906056E+02 -0.63407263680E+03  0.63893243840E+03  0.51100000000E-03 0. -1.
    9000005    1    3    3    0    0  0.48834826744E+02  0.30243915720E+02 -0.51016709821E+03  0.51339166612E+03  0.10000000000E+01 0.  0.
    9000005    1    3    3    0    0  0.10684254978E+02  0.38016774067E+02 -0.28980345706E+04  0.28983037800E+04  0.10000000000E+01 0.  0.
<mgrwt>
<rscale>  0 0.14974017E+03</rscale>
<asrwt>0</asrwt>
<pdfrwt beam="2">  1        2 0.62512909E+00 0.15436062E+03</pdfrwt>
<pdfrwt beam="1">  1       -2 0.13686089E-02 0.15436062E+03</pdfrwt>
<totfact> 0.56349273E+02</totfact>
</mgrwt>
</event>
<event>
 8    2  0.8128359E-004  0.1289805E+03  0.7818608E-02  0.1243332E+00
         -2   -1    0    0    0  501 -0.00000000000E+00  0.00000000000E+00  0.75548427118E+01  0.75548431421E+01  0.25500000000E-02 0.  1.
          2   -1    0    0  501    0  0.00000000000E+00 -0.00000000000E+00 -0.19603155360E+04  0.19603155360E+04  0.25500000000E-02 0. -1.
         25    2    1    2    0    0 -0.11946825476E+02 -0.29494031246E+02 -0.14683026666E+04  0.14739568133E+04  0.12499336866E+03 0.  0.
         23    2    1    2    0    0  0.11946825476E+02  0.29494031246E+02 -0.48445802674E+03  0.49391356590E+03  0.90765667437E+02 0.  0.
        -11    1    4    4    0    0 -0.33529356419E+01  0.59068588208E+02 -0.23933136794E+03  0.24653568498E+03  0.51100000000E-03 0.  1.
         11    1    4    4    0    0  0.15299761117E+02 -0.29574556962E+02 -0.24512665880E+03  0.24737788091E+03  0.51100000000E-03 0. -1.
    9000005    1    3    3    0    0 -0.57293671309E+02  0.20243049124E+02 -0.61066899414E+03  0.61368555973E+03  0.10000000000E+01 0.  0.
    9000005    1    3    3    0    0  0.45346845833E+02 -0.49737080371E+02 -0.85763367242E+03  0.86027125353E+03  0.10000000000E+01 0.  0.
<mgrwt>
<rscale>  0 0.11985793E+03</rscale>
<asrwt>0</asrwt>
<pdfrwt beam="2">  1        2 0.30158660E+00 0.12898049E+03</pdfrwt>
<pdfrwt beam="1">  1       -2 0.11622851E-02 0.12898049E+03</pdfrwt>
<totfact> 0.13031185E+04</totfact>
</mgrwt>
</event>
<event>
 8    2  0.8128359E-004  0.1303551E+03  0.7818608E-02  0.1240507E+00
         -2   -1    0    0    0  501 -0.00000000000E+00  0.00000000000E+00  0.46719660020E+03  0.46719660021E+03  0.25500000000E-02 0.  1.
          2   -1    0    0  501    0  0.00000000000E+00 -0.00000000000E+00 -0.33455751892E+02  0.33455751989E+02  0.25500000000E-02 0. -1.
         25    2    1    2    0    0  0.65149726116E+01 -0.36400987264E+02  0.14236940747E+03  0.19303236844E+03  0.12499988136E+03 0.  0.
         23    2    1    2    0    0 -0.65149726116E+01  0.36400987264E+02  0.29137144083E+03  0.30761998376E+03  0.91461801483E+02 0.  0.
        -11    1    4    4    0    0 -0.18695715083E+02 -0.27670381024E+02  0.94492540111E+02  0.10021985774E+03  0.51100000000E-03 0.  1.
         11    1    4    4    0    0  0.12180742472E+02  0.64071368288E+02  0.19687890072E+03  0.20740012602E+03  0.51100000000E-03 0. -1.
    9000005    1    3    3    0    0 -0.48187280171E+02  0.12880660765E+02  0.89216686998E+02  0.10221811303E+03  0.10000000000E+01 0.  0.
    9000005    1    3    3    0    0  0.54702252783E+02 -0.49281648029E+02  0.53152720476E+02  0.90814255412E+02  0.10000000000E+01 0.  0.
<mgrwt>
<rscale>  0 0.12158370E+03</rscale>
<asrwt>0</asrwt>
<pdfrwt beam="2">  1        2 0.51470390E-02 0.13035508E+03</pdfrwt>
<pdfrwt beam="1">  1       -2 0.71876396E-01 0.13035508E+03</pdfrwt>
<totfact> 0.26029431E+03</totfact>
</mgrwt>
</event>
<event>
 8    2  0.8128359E-004  0.1811461E+03  0.7818608E-02  0.1172355E+00
         -2   -1    0    0    0  501 -0.00000000000E+00  0.00000000000E+00  0.20216263997E+03  0.20216263999E+03  0.25500000000E-02 0.  1.
          2   -1    0    0  501    0  0.00000000000E+00 -0.00000000000E+00 -0.14443975783E+03  0.14443975786E+03  0.25500000000E-02 0. -1.
         25    2    1    2    0    0  0.48235875793E+02  0.12190475583E+03  0.14679923633E+02  0.18173996010E+03  0.12500577479E+03 0.  0.
         23    2    1    2    0    0 -0.48235875793E+02 -0.12190475583E+03  0.43042958504E+02  0.16486243775E+03  0.90218944222E+02 0.  0.
        -11    1    4    4    0    0  0.25068848121E+02 -0.47873501872E+02  0.23183385773E+02  0.58802965094E+02  0.51100000000E-03 0. -1.
         11    1    4    4    0    0 -0.73304723915E+02 -0.74031253954E+02  0.19859572731E+02  0.10605947265E+03  0.51100000000E-03 0.  1.
    9000005    1    3    3    0    0  0.33351706769E+02 -0.12084825265E+02 -0.22337773219E+02  0.41932749236E+02  0.10000000000E+01 0.  0.
    9000005    1    3    3    0    0  0.14884169024E+02  0.13398958109E+03  0.37017696852E+02  0.13980721086E+03  0.10000000000E+01 0.  0.
<mgrwt>
<rscale>  0 0.17537576E+03</rscale>
<asrwt>0</asrwt>
<pdfrwt beam="2">  1        2 0.22221501E-01 0.18114611E+03</pdfrwt>
<pdfrwt beam="1">  1       -2 0.31101945E-01 0.18114611E+03</pdfrwt>
<totfact> 0.23104695E+03</totfact>
</mgrwt>
</event>
<event>
 8    2  0.8128359E-004  0.1671854E+03  0.7818608E-02  0.1186552E+00
          2   -1    0    0  501    0  0.00000000000E+00  0.00000000000E+00  0.50666022110E+03  0.50666022110E+03  0.25500000000E-02 0.  1.
         -2   -1    0    0    0  501 -0.00000000000E+00 -0.00000000000E+00 -0.63489856943E+02  0.63489856994E+02  0.25500000000E-02 0. -1.
         25    2    1    2    0    0 -0.52832849938E+02 -0.97645350460E+02  0.95240124477E+02  0.19241010961E+03  0.12500017788E+03 0.  0.
         23    2    1    2    0    0  0.52832849938E+02  0.97645350460E+02  0.34793023968E+03  0.37773996849E+03  0.96468168906E+02 0.  0.
        -11    1    4    4    0    0  0.23011878245E+02  0.11054435103E+03  0.24422411901E+03  0.26906322750E+03  0.51100000000E-03 0. -1.
         11    1    4    4    0    0  0.29820971693E+02 -0.12899000567E+02  0.10370612066E+03  0.10867674099E+03  0.51100000000E-03 0.  1.
    9000005    1    3    3    0    0 -0.91519730067E+02 -0.73632091568E+02  0.48310393003E+02  0.12701354248E+03  0.10000000000E+01 0.  0.
    9000005    1    3    3    0    0  0.38686880129E+02 -0.24013258892E+02  0.46929731474E+02  0.65396567134E+02  0.10000000000E+01 0.  0.
<mgrwt>
<rscale>  0 0.16191459E+03</rscale>
<asrwt>0</asrwt>
<pdfrwt beam="1">  1        2 0.77947728E-01 0.16718543E+03</pdfrwt>
<pdfrwt beam="2">  1       -2 0.97676701E-02 0.16718543E+03</pdfrwt>
<totfact> 0.41286522E+03</totfact>
</mgrwt>
</event>
<event>
 8    2  0.8128359E-004  0.1602846E+03  0.7818608E-02  0.1194430E+00
         -2   -1    0    0    0  501 -0.00000000000E+00  0.00000000000E+00  0.12215847230E+02  0.12215847496E+02  0.25500000000E-02 0.  1.
          2   -1    0    0  501    0  0.00000000000E+00 -0.00000000000E+00 -0.18661742770E+04  0.18661742770E+04  0.25500000000E-02 0. -1.
         25    2    1    2    0    0 -0.82149111740E+01  0.99993565520E+02 -0.89716108462E+03  0.91136664662E+03  0.12499981965E+03 0.  0.
         23    2    1    2    0    0  0.82149111740E+01 -0.99993565520E+02 -0.95679734514E+03  0.96702347786E+03  0.98015555706E+02 0.  0.
        -11    1    4    4    0    0  0.11688965580E+02 -0.15773639108E+02 -0.26840561983E+02  0.33254403842E+02  0.51100000000E-03 0.  1.
         11    1    4    4    0    0 -0.34740544062E+01 -0.84219926413E+02 -0.92995678316E+03  0.93376907402E+03  0.51100000000E-03 0. -1.
    9000005    1    3    3    0    0 -0.60217441848E+02  0.85991446258E+02 -0.53267314661E+03  0.54292020616E+03  0.10000000000E+01 0.  0.
    9000005    1    3    3    0    0  0.52002530674E+02  0.14002119262E+02 -0.36448793800E+03  0.36844644046E+03  0.10000000000E+01 0.  0.
<mgrwt>
<rscale>  0 0.15502558E+03</rscale>
<asrwt>0</asrwt>
<pdfrwt beam="2">  1        2 0.28710351E+00 0.16028460E+03</pdfrwt>
<pdfrwt beam="1">  1       -2 0.18793626E-02 0.16028460E+03</pdfrwt>
<totfact> 0.73259056E+03</totfact>
</mgrwt>
</event>
<event>
 8    2  0.8128359E-004  0.1604527E+03  0.7818608E-02  0.1196006E+00
          2   -1    0    0  501    0  0.00000000000E+00  0.00000000000E+00  0.35413619576E+04  0.35413619576E+04  0.25500000000E-02 0. -1.
         -2   -1    0    0    0  501 -0.00000000000E+00 -0.00000000000E+00 -0.72792923938E+01  0.72792928405E+01  0.25500000000E-02 0.  1.
         25    2    1    2    0    0  0.16961432019E+00  0.10059987674E+03  0.25874126355E+04  0.25923829248E+04  0.12499887480E+03 0.  0.
         23    2    1    2    0    0 -0.16961432019E+00 -0.10059987674E+03  0.94667002972E+03  0.95625832561E+03  0.90141423132E+02 0.  0.
        -11    1    4    4    0    0  0.39471489162E+02 -0.18177682779E+02  0.28346485209E+03  0.28677647912E+03  0.51100000000E-03 0.  1.
         11    1    4    4    0    0 -0.39641103483E+02 -0.82422193961E+02  0.66320517763E+03  0.66948184649E+03  0.51100000000E-03 0. -1.
    9000005    1    3    3    0    0 -0.24702887514E+02  0.10155879161E+03  0.24766002077E+04  0.24788049560E+04  0.10000000000E+01 0.  0.
    9000005    1    3    3    0    0  0.24872501834E+02 -0.95891487032E+00  0.11081242775E+03  0.11357796885E+03  0.10000000000E+01 0.  0.
<mgrwt>
<rscale>  0 0.15369362E+03</rscale>
<asrwt>0</asrwt>
<pdfrwt beam="1">  1        2 0.54482426E+00 0.16045274E+03</pdfrwt>
<pdfrwt beam="2">  1       -2 0.11198925E-02 0.16045274E+03</pdfrwt>
<totfact> 0.17616661E+03</totfact>
</mgrwt>
</event>
<event>
 8    2  0.8128359E-004  0.1443631E+03  0.7818608E-02  0.1211417E+00
          2   -1    0    0  501    0  0.00000000000E+00  0.00000000000E+00  0.47283121736E+03  0.47283121736E+03  0.25500000000E-02 0. -1.
         -2   -1    0    0    0  501 -0.00000000000E+00 -0.00000000000E+00 -0.67350756181E+02  0.67350756229E+02  0.25500000000E-02 0.  1.
         25    2    1    2    0    0  0.21065472540E+02 -0.69079414105E+02  0.37767005499E+03  0.40432087234E+03  0.12499991117E+03 0.  0.
         23    2    1    2    0    0 -0.21065472540E+02  0.69079414105E+02  0.27810406190E+02  0.13586110125E+03  0.11166512685E+03 0.  0.
        -11    1    4    4    0    0  0.93805530250E+01 -0.56432186175E+01  0.50797186690E+02  0.51963399305E+02  0.51100000000E-03 0. -1.
         11    1    4    4    0    0 -0.30446025565E+02  0.74722632722E+02 -0.22986780500E+02  0.83897701945E+02  0.51100000000E-03 0.  1.
    9000005    1    3    3    0    0 -0.96575737803E+01  0.34323825384E+02  0.76324758957E+02  0.84248813345E+02  0.10000000000E+01 0.  0.
    9000005    1    3    3    0    0  0.30723046320E+02 -0.10340323949E+03  0.30134529603E+03  0.32007205900E+03  0.10000000000E+01 0.  0.
<mgrwt>
<rscale>  0 0.14143021E+03</rscale>
<asrwt>0</asrwt>
<pdfrwt beam="1">  1        2 0.72743264E-01 0.14436307E+03</pdfrwt>
<pdfrwt beam="2">  1       -2 0.10361655E-01 0.14436307E+03</pdfrwt>
<totfact> 0.40324443E+03</totfact>
</mgrwt>
</event>
<event>
 8    2  0.8128359E-004  0.1507197E+03  0.7818608E-02  0.1207913E+00
          2   -1    0    0  501    0  0.00000000000E+00  0.00000000000E+00  0.18219646102E+04  0.18219646102E+04  0.25500000000E-02 0. -1.
         -2   -1    0    0    0  501 -0.00000000000E+00 -0.00000000000E+00 -0.11335456444E+02  0.11335456731E+02  0.25500000000E-02 0.  1.
         25    2    1    2    0    0  0.82187598693E+02 -0.18356001683E+02  0.12279609884E+04  0.12371760700E+04  0.12499877995E+03 0.  0.
         23    2    1    2    0    0 -0.82187598693E+02  0.18356001683E+02  0.58266816538E+03  0.59612399695E+03  0.93647662093E+02 0.  0.
        -11    1    4    4    0    0 -0.79705196214E+02  0.29095790780E+02  0.57793062895E+03  0.58412609532E+03  0.51100000000E-03 0. -1.
         11    1    4    4    0    0 -0.24824024791E+01 -0.10739789097E+02  0.47375364208E+01  0.11997901630E+02  0.51100000000E-03 0.  1.
    9000005    1    3    3    0    0  0.52037215793E+02 -0.29536151845E+02  0.11643995605E+04  0.11659363587E+04  0.10000000000E+01 0.  0.
    9000005    1    3    3    0    0  0.30150382900E+02  0.11180150162E+02  0.63561427840E+02  0.71239711227E+02  0.10000000000E+01 0.  0.
<mgrwt>
<rscale>  0 0.14410235E+03</rscale>
<asrwt>0</asrwt>
<pdfrwt beam="1">  1        2 0.28030239E+00 0.15071974E+03</pdfrwt>
<pdfrwt beam="2">  1       -2 0.17439155E-02 0.15071974E+03</pdfrwt>
<totfact> 0.85916886E+03</totfact>
</mgrwt>
</event>
<event>
 8    2  0.8128359E-004  0.2097301E+03  0.7818608E-02  0.1145302E+00
         -2   -1    0    0    0  501 -0.00000000000E+00  0.00000000000E+00  0.73372117676E+02  0.73372117721E+02  0.25500000000E-02 0.  1.
          2   -1    0    0  501    0  0.00000000000E+00 -0.00000000000E+00 -0.73724066873E+03  0.73724066873E+03  0.25500000000E-02 0. -1.
         25    2    1    2    0    0 -0.14680175441E+03  0.82519019484E+02 -0.54546872218E+03  0.58439954873E+03  0.12500624786E+03 0.  0.
         23    2    1    2    0    0  0.14680175441E+03 -0.82519019484E+02 -0.11839982887E+03  0.22621323773E+03  0.93775080754E+02 0.  0.
        -11    1    4    4    0    0 -0.34629976696E+01 -0.27663907275E+01 -0.37638700513E+02  0.37898773688E+02  0.51100000000E-03 0. -1.
         11    1    4    4    0    0  0.15026475208E+03 -0.79752628756E+02 -0.80761128360E+02  0.18831446404E+03  0.51100000000E-03 0.  1.
    9000005    1    3    3    0    0 -0.28639276135E+02  0.76791938508E+02 -0.14215336435E+03  0.16409079485E+03  0.10000000000E+01 0.  0.
    9000005    1    3    3    0    0 -0.11816247828E+03  0.57270809763E+01 -0.40331535783E+03  0.42030875388E+03  0.10000000000E+01 0.  0.
<mgrwt>
<rscale>  0 0.20535066E+03</rscale>
<asrwt>0</asrwt>
<pdfrwt beam="2">  1        2 0.11342164E+00 0.20973008E+03</pdfrwt>
<pdfrwt beam="1">  1       -2 0.11288019E-01 0.20973008E+03</pdfrwt>
<totfact> 0.21364291E+03</totfact>
</mgrwt>
</event>
<event>
 8    2  0.8128359E-004  0.3506706E+03  0.7818608E-02  0.1063421E+00
          2   -1    0    0  501    0  0.00000000000E+00  0.00000000000E+00  0.63891327172E+03  0.63891327173E+03  0.25500000000E-02 0. -1.
         -2   -1    0    0    0  501 -0.00000000000E+00 -0.00000000000E+00 -0.22446324841E+03  0.22446324843E+03  0.25500000000E-02 0.  1.
         25    2    1    2    0    0 -0.32075695002E+03  0.66790366435E+02  0.33020461567E+02  0.35222184959E+03  0.12499562557E+03 0.  0.
         23    2    1    2    0    0  0.32075695002E+03 -0.66790366435E+02  0.38142956174E+03  0.51115467056E+03  0.91894573490E+02 0.  0.
        -11    1    4    4    0    0  0.29398933126E+02  0.99915252790E+01  0.76093764439E+02  0.82185088873E+02  0.51100000000E-03 0. -1.
         11    1    4    4    0    0  0.29135801689E+03 -0.76781891714E+02  0.30533579730E+03  0.42896958169E+03  0.51100000000E-03 0.  1.
    9000005    1    3    3    0    0 -0.21422825603E+03  0.10072218075E+03  0.42169771301E+01  0.23676462209E+03  0.10000000000E+01 0.  0.
    9000005    1    3    3    0    0 -0.10652869399E+03 -0.33931814319E+02  0.28803484437E+02  0.11545722750E+03  0.10000000000E+01 0.  0.
<mgrwt>
<rscale>  0 0.34804363E+03</rscale>
<asrwt>0</asrwt>
<pdfrwt beam="1">  1        2 0.98294349E-01 0.35067062E+03</pdfrwt>
<pdfrwt beam="2">  1       -2 0.34532808E-01 0.35067062E+03</pdfrwt>
<totfact> 0.36971716E+02</totfact>
</mgrwt>
</event>
<event>
 8    2  0.8128359E-004  0.1316888E+03  0.7818608E-02  0.1239048E+00
          2   -1    0    0  501    0  0.00000000000E+00  0.00000000000E+00  0.52661330286E+02  0.52661330348E+02  0.25500000000E-02 0. -1.
         -2   -1    0    0    0  501 -0.00000000000E+00 -0.00000000000E+00 -0.29731063097E+03  0.29731063099E+03  0.25500000000E-02 0.  1.
         25    2    1    2    0    0 -0.38841269081E+02 -0.14432556598E+02 -0.20516463498E+03  0.24379182974E+03  0.12499994371E+03 0.  0.
         23    2    1    2    0    0  0.38841269081E+02  0.14432556598E+02 -0.39484665710E+02  0.10618013159E+03  0.89432872286E+02 0.  0.
        -11    1    4    4    0    0  0.57002631214E+02 -0.45035555542E+01  0.18626990251E+01  0.57210590155E+02  0.51100000000E-03 0. -1.
         11    1    4    4    0    0 -0.18161362134E+02  0.18936112152E+02 -0.41347364735E+02  0.48969541439E+02  0.51100000000E-03 0.  1.
    9000005    1    3    3    0    0  0.36677674548E+01  0.15342290065E+02 -0.18866146477E+03  0.18932244102E+03  0.10000000000E+01 0.  0.
    9000005    1    3    3    0    0 -0.42509036535E+02 -0.29774846663E+02 -0.16503170207E+02  0.54469388723E+02  0.10000000000E+01 0.  0.
<mgrwt>
<rscale>  0 0.12248782E+03</rscale>
<asrwt>0</asrwt>
<pdfrwt beam="1">  1        2 0.81017433E-02 0.13168876E+03</pdfrwt>
<pdfrwt beam="2">  1       -2 0.45740096E-01 0.13168876E+03</pdfrwt>
<totfact> 0.36590361E+03</totfact>
</mgrwt>
</event>
<event>
 8    2  0.8128359E-004  0.1274947E+03  0.7818608E-02  0.1250816E+00
         -2   -1    0    0    0  501 -0.00000000000E+00  0.00000000000E+00  0.49419717623E+01  0.49419724202E+01  0.25500000000E-02 0.  1.
          2   -1    0    0  501    0  0.00000000000E+00 -0.00000000000E+00 -0.23032125831E+04  0.23032125831E+04  0.25500000000E-02 0. -1.
         25    2    1    2    0    0 -0.71571349980E+01 -0.24021852639E+02 -0.14217588932E+04  0.14274639203E+04  0.12500647768E+03 0.  0.
         23    2    1    2    0    0  0.71571349980E+01  0.24021852639E+02 -0.87651171808E+03  0.88069063513E+03  0.81944669729E+02 0.  0.
        -11    1    4    4    0    0  0.23778343676E+02 -0.13371429642E+02 -0.11952400093E+03  0.12259768170E+03  0.51100000000E-03 0. -1.
         11    1    4    4    0    0 -0.16621208678E+02  0.37393282281E+02 -0.75698771714E+03  0.75809295343E+03  0.51100000000E-03 0.  1.
    9000005    1    3    3    0    0 -0.16832737971E+02 -0.44173817157E+02 -0.13730179724E+04  0.13738318746E+04  0.10000000000E+01 0.  0.
    9000005    1    3    3    0    0  0.96756029728E+01  0.20151964518E+02 -0.48740920839E+02  0.53632045747E+02  0.10000000000E+01 0.  0.
<mgrwt>
<rscale>  0 0.11543958E+03</rscale>
<asrwt>0</asrwt>
<pdfrwt beam="2">  1        2 0.35433954E+00 0.12749468E+03</pdfrwt>
<pdfrwt beam="1">  1       -2 0.76030524E-03 0.12749468E+03</pdfrwt>
<totfact> 0.15900421E+04</totfact>
</mgrwt>
</event>
<event>
 8    2  0.8128359E-004  0.1252956E+03  0.7818608E-02  0.1251605E+00
          2   -1    0    0  501    0  0.00000000000E+00  0.00000000000E+00  0.12459194647E+04  0.12459194647E+04  0.25500000000E-02 0. -1.
         -2   -1    0    0    0  501 -0.00000000000E+00 -0.00000000000E+00 -0.12965218270E+02  0.12965218521E+02  0.25500000000E-02 0.  1.
         25    2    1    2    0    0 -0.33093052559E+01 -0.79021842096E+01  0.35536478684E+03  0.37680648752E+03  0.12500240517E+03 0.  0.
         23    2    1    2    0    0  0.33093052559E+01  0.79021842096E+01  0.87758945956E+03  0.88207819567E+03  0.88460656387E+02 0.  0.
        -11    1    4    4    0    0 -0.10683865874E+02  0.22626595980E+02  0.82946559027E+03  0.82984292085E+03  0.51100000000E-03 0. -1.
         11    1    4    4    0    0  0.13993171130E+02 -0.14724411770E+02  0.48123869292E+02  0.52235274826E+02  0.51100000000E-03 0.  1.
    9000005    1    3    3    0    0 -0.53680780463E+02 -0.28864279177E+02  0.25887886547E+03  0.26595871821E+03  0.10000000000E+01 0.  0.
    9000005    1    3    3    0    0  0.50371475207E+02  0.20962094967E+02  0.96485921370E+02  0.11084776932E+03  0.10000000000E+01 0.  0.
<mgrwt>
<rscale>  0 0.11498636E+03</rscale>
<asrwt>0</asrwt>
<pdfrwt beam="1">  1        2 0.19167990E+00 0.12529564E+03</pdfrwt>
<pdfrwt beam="2">  1       -2 0.19946492E-02 0.12529564E+03</pdfrwt>
<totfact> 0.14021437E+04</totfact>
</mgrwt>
</event>
<event>
 8    2  0.8128359E-004  0.1332895E+03  0.7818608E-02  0.1235243E+00
         -2   -1    0    0    0  501 -0.00000000000E+00  0.00000000000E+00  0.32849565780E+03  0.32849565781E+03  0.25500000000E-02 0.  1.
          2   -1    0    0  501    0  0.00000000000E+00 -0.00000000000E+00 -0.49303377201E+02  0.49303377267E+02  0.25500000000E-02 0. -1.
         25    2    1    2    0    0  0.37856139323E+02 -0.26523276890E+02  0.84939199506E+02  0.15805302623E+03  0.12501807864E+03 0.  0.
         23    2    1    2    0    0 -0.37856139323E+02  0.26523276890E+02  0.19425308109E+03  0.21974600885E+03  0.91746811323E+02 0.  0.
        -11    1    4    4    0    0 -0.46673083717E+02 -0.16360575515E+02  0.14806022101E+03  0.15610212753E+03  0.51100000000E-03 0.  1.
         11    1    4    4    0    0  0.88169443945E+01  0.42883852405E+02  0.46192860087E+02  0.63643881315E+02  0.51100000000E-03 0. -1.
    9000005    1    3    3    0    0  0.98984397208E+01  0.44720728153E+01 -0.32039893511E+02  0.33845728244E+02  0.10000000000E+01 0.  0.
    9000005    1    3    3    0    0  0.27957699602E+02 -0.30995349705E+02  0.11697909302E+03  0.12420729799E+03  0.10000000000E+01 0.  0.
<mgrwt>
<rscale>  0 0.12488905E+03</rscale>
<asrwt>0</asrwt>
<pdfrwt beam="2">  1        2 0.75851352E-02 0.13328950E+03</pdfrwt>
<pdfrwt beam="1">  1       -2 0.50537792E-01 0.13328950E+03</pdfrwt>
<totfact> 0.32713632E+03</totfact>
</mgrwt>
</event>
<event>
 8    2  0.8128359E-004  0.1418090E+03  0.7818608E-02  0.1221709E+00
         -2   -1    0    0    0  501 -0.00000000000E+00  0.00000000000E+00  0.83758611774E+01  0.83758615655E+01  0.25500000000E-02 0.  1.
          2   -1    0    0  501    0  0.00000000000E+00 -0.00000000000E+00 -0.19544937419E+04  0.19544937419E+04  0.25500000000E-02 0. -1.
         25    2    1    2    0    0 -0.49891575967E+02 -0.44700171690E+02 -0.98839507723E+03  0.99851620565E+03  0.12499003781E+03 0.  0.
         23    2    1    2    0    0  0.49891575967E+02  0.44700171690E+02 -0.95772280354E+03  0.96435339787E+03  0.90869317427E+02 0.  0.
        -11    1    4    4    0    0  0.26339810736E+02  0.42928293473E+02 -0.90704456482E+03  0.90844177942E+03  0.51100000000E-03 0. -1.
         11    1    4    4    0    0  0.23551765232E+02  0.17718782175E+01 -0.50678238717E+02  0.55911618449E+02  0.51100000000E-03 0.  1.
    9000005    1    3    3    0    0 -0.15789743331E+02 -0.51876192548E+02 -0.15184635758E+03  0.16124134600E+03  0.10000000000E+01 0.  0.
    9000005    1    3    3    0    0 -0.34101832636E+02  0.71760208579E+01 -0.83654871964E+03  0.83727485965E+03  0.10000000000E+01 0.  0.
<mgrwt>
<rscale>  0 0.13395014E+03</rscale>
<asrwt>0</asrwt>
<pdfrwt beam="2">  1        2 0.30069098E+00 0.14180897E+03</pdfrwt>
<pdfrwt beam="1">  1       -2 0.12885956E-02 0.14180897E+03</pdfrwt>
<totfact> 0.11354695E+04</totfact>
</mgrwt>
</event>
<event>
 8    2  0.8128359E-004  0.1425117E+03  0.7818608E-02  0.1221402E+00
         -2   -1    0    0    0  501 -0.00000000000E+00  0.00000000000E+00  0.97135318121E+02  0.97135318154E+02  0.25500000000E-02 0.  1.
          2   -1    0    0  501    0  0.00000000000E+00 -0.00000000000E+00 -0.18788327916E+03  0.18788327918E+03  0.25500000000E-02 0. -1.
         25    2    1    2    0    0 -0.37446575237E+02 -0.57288516433E+02 -0.97810294735E+02  0.17284803293E+03  0.12500147447E+03 0.  0.
         23    2    1    2    0    0  0.37446575237E+02  0.57288516433E+02  0.70623336959E+01  0.11217056440E+03  0.88589722026E+02 0.  0.
        -11    1    4    4    0    0 -0.16338923758E+02  0.25367790186E+02 -0.27401428093E+02  0.40759335989E+02  0.51100000000E-03 0. -1.
         11    1    4    4    0    0  0.53785498995E+02  0.31920726247E+02  0.34463761789E+02  0.71411228411E+02  0.51100000000E-03 0.  1.
    9000005    1    3    3    0    0  0.17940011561E+02 -0.29536164101E+02 -0.10493287575E+03  0.11048138946E+03  0.10000000000E+01 0.  0.
    9000005    1    3    3    0    0 -0.55386586798E+02 -0.27752352331E+02  0.71225810153E+01  0.62366643467E+02  0.10000000000E+01 0.  0.
<mgrwt>
<rscale>  0 0.13416586E+03</rscale>
<asrwt>0</asrwt>
<pdfrwt beam="2">  1        2 0.28905120E-01 0.14251171E+03</pdfrwt>
<pdfrwt beam="1">  1       -2 0.14943895E-01 0.14251171E+03</pdfrwt>
<totfact> 0.60144096E+03</totfact>
</mgrwt>
</event>
<event>
 8    2  0.8128359E-004  0.1428193E+03  0.7818608E-02  0.1223487E+00
          2   -1    0    0  501    0  0.00000000000E+00  0.00000000000E+00  0.43110410836E+03  0.43110410837E+03  0.25500000000E-02 0. -1.
         -2   -1    0    0    0  501 -0.00000000000E+00 -0.00000000000E+00 -0.40766141151E+02  0.40766141231E+02  0.25500000000E-02 0.  1.
         25    2    1    2    0    0 -0.84581462650E+01 -0.68494022656E+02  0.14075910738E+03  0.20052552699E+03  0.12503755151E+03 0.  0.
         23    2    1    2    0    0  0.84581462650E+01  0.68494022656E+02  0.24957885983E+03  0.27134472261E+03  0.81088715820E+02 0.  0.
        -11    1    4    4    0    0 -0.72445704876E+01  0.49171540474E+02  0.51007992151E+02  0.71218954343E+02  0.51100000000E-03 0.  1.
         11    1    4    4    0    0  0.15702716753E+02  0.19322482181E+02  0.19857086768E+03  0.20012576826E+03  0.51100000000E-03 0. -1.
    9000005    1    3    3    0    0  0.26585872172E+02 -0.88651037918E+01 -0.13755274547E+02  0.31234696129E+02  0.10000000000E+01 0.  0.
    9000005    1    3    3    0    0 -0.35044018437E+02 -0.59628918864E+02  0.15451438192E+03  0.16929083086E+03  0.10000000000E+01 0.  0.
<mgrwt>
<rscale>  0 0.13271163E+03</rscale>
<asrwt>0</asrwt>
<pdfrwt beam="1">  1        2 0.66323709E-01 0.14281933E+03</pdfrwt>
<pdfrwt beam="2">  1       -2 0.62717140E-02 0.14281933E+03</pdfrwt>
<totfact> 0.96920840E+03</totfact>
</mgrwt>
</event>
<event>
 8    2  0.8128359E-004  0.1526918E+03  0.7818608E-02  0.1205585E+00
          2   -1    0    0  501    0  0.00000000000E+00  0.00000000000E+00  0.25993540037E+03  0.25993540038E+03  0.25500000000E-02 0. -1.
         -2   -1    0    0    0  501 -0.00000000000E+00 -0.00000000000E+00 -0.90038006262E+02  0.90038006298E+02  0.25500000000E-02 0.  1.
         25    2    1    2    0    0  0.68726796445E+02  0.54475640605E+02  0.21121842560E+02  0.15414581183E+03  0.12499532433E+03 0.  0.
         23    2    1    2    0    0 -0.68726796445E+02 -0.54475640605E+02  0.14877555155E+03  0.19582759485E+03  0.92321796971E+02 0.  0.
        -11    1    4    4    0    0 -0.61379605508E+02  0.28521710589E+01  0.11071948431E+03  0.12662699182E+03  0.51100000000E-03 0. -1.
         11    1    4    4    0    0 -0.73471909375E+01 -0.57327811664E+02  0.38056067238E+02  0.69200603023E+02  0.51100000000E-03 0.  1.
    9000005    1    3    3    0    0  0.97306706002E+02  0.43252844799E+02  0.44627197872E+02  0.11546423865E+03  0.10000000000E+01 0.  0.
    9000005    1    3    3    0    0 -0.28579909556E+02  0.11222795806E+02 -0.23505355313E+02  0.38681573188E+02  0.10000000000E+01 0.  0.
<mgrwt>
<rscale>  0 0.14591472E+03</rscale>
<asrwt>0</asrwt>
<pdfrwt beam="1">  1        2 0.39990061E-01 0.15269184E+03</pdfrwt>
<pdfrwt beam="2">  1       -2 0.13852001E-01 0.15269184E+03</pdfrwt>
<totfact> 0.48188179E+03</totfact>
</mgrwt>
</event>
<event>
 8    2  0.8128359E-004  0.1263084E+03  0.7818608E-02  0.1255301E+00
          2   -1    0    0  501    0  0.00000000000E+00  0.00000000000E+00  0.30519581715E+04  0.30519581715E+04  0.25500000000E-02 0. -1.
         -2   -1    0    0    0  501 -0.00000000000E+00 -0.00000000000E+00 -0.37441339944E+01  0.37441348628E+01  0.25500000000E-02 0.  1.
         25    2    1    2    0    0  0.17041296728E+02 -0.60748357927E+01  0.22148164557E+04  0.22184151411E+04  0.12500598443E+03 0.  0.
         23    2    1    2    0    0 -0.17041296728E+02  0.60748357927E+01  0.83339758180E+03  0.83728716531E+03  0.78555448115E+02 0.  0.
        -11    1    4    4    0    0  0.25888998308E+02  0.17497970388E+02  0.49512141664E+03  0.49610647689E+03  0.51100000000E-03 0.  1.
         11    1    4    4    0    0 -0.42930295036E+02 -0.11423134596E+02  0.33827616516E+03  0.34118068842E+03  0.51100000000E-03 0. -1.
    9000005    1    3    3    0    0 -0.16252811731E+02  0.52244966108E+02  0.12917201409E+04  0.12928788082E+04  0.10000000000E+01 0.  0.
    9000005    1    3    3    0    0  0.33294108459E+02 -0.58319801901E+02  0.92309631483E+03  0.92553633284E+03  0.10000000000E+01 0.  0.
<mgrwt>
<rscale>  0 0.11289477E+03</rscale>
<asrwt>0</asrwt>
<pdfrwt beam="1">  1        2 0.46953062E+00 0.12630837E+03</pdfrwt>
<pdfrwt beam="2">  1       -2 0.57602241E-03 0.12630837E+03</pdfrwt>
<totfact> 0.91670444E+03</totfact>
</mgrwt>
</event>
<event>
 8    2  0.8128359E-004  0.1273658E+03  0.7818608E-02  0.1246993E+00
         -2   -1    0    0    0  501 -0.00000000000E+00  0.00000000000E+00  0.13812880119E+02  0.13812880354E+02  0.25500000000E-02 0. -1.
          2   -1    0    0  501    0  0.00000000000E+00 -0.00000000000E+00 -0.94207464352E+03  0.94207464352E+03  0.25500000000E-02 0.  1.
         25    2    1    2    0    0  0.10478702963E+02 -0.22085611803E+02 -0.65597013437E+03  0.66822066123E+03  0.12499782976E+03 0.  0.
         23    2    1    2    0    0 -0.10478702963E+02  0.22085611803E+02 -0.27229162903E+03  0.28766686265E+03  0.89509302089E+02 0.  0.
        -11    1    4    4    0    0 -0.46717608066E+02 -0.54279864693E+01 -0.14905031577E+03  0.15629457627E+03  0.51100000000E-03 0.  1.
         11    1    4    4    0    0  0.36238905103E+02  0.27513598272E+02 -0.12324131326E+03  0.13137228637E+03  0.51100000000E-03 0. -1.
    9000005    1    3    3    0    0 -0.44016432705E+02  0.25745186920E+02 -0.35459107877E+03  0.35824027432E+03  0.10000000000E+01 0.  0.
    9000005    1    3    3    0    0  0.54495135668E+02 -0.47830798723E+02 -0.30137905560E+03  0.30998038692E+03  0.10000000000E+01 0.  0.
<mgrwt>
<rscale>  0 0.11766890E+03</rscale>
<asrwt>0</asrwt>
<pdfrwt beam="2">  1        2 0.14493451E+00 0.12736575E+03</pdfrwt>
<pdfrwt beam="1">  1       -2 0.21250592E-02 0.12736575E+03</pdfrwt>
<totfact> 0.19135405E+04</totfact>
</mgrwt>
</event>
<event>
 8    2  0.8128359E-004  0.1257402E+03  0.7818608E-02  0.1258981E+00
         -2   -1    0    0    0  501 -0.00000000000E+00  0.00000000000E+00  0.10162579546E+02  0.10162579866E+02  0.25500000000E-02 0.  1.
          2   -1    0    0  501    0  0.00000000000E+00 -0.00000000000E+00 -0.15829305465E+04  0.15829305465E+04  0.25500000000E-02 0. -1.
         25    2    1    2    0    0  0.10889812036E+02  0.81300832749E+01 -0.13826171136E+04  0.13883229746E+04  0.12500364995E+03 0.  0.
         23    2    1    2    0    0 -0.10889812036E+02 -0.81300832749E+01 -0.19015085332E+03  0.20477015181E+03  0.74758155378E+02 0.  0.
        -11    1    4    4    0    0 -0.17674830924E+01 -0.34016506400E+02 -0.41893611544E+02  0.53993716233E+02  0.51100000000E-03 0.  1.
         11    1    4    4    0    0 -0.91223289439E+01  0.25886423125E+02 -0.14825724177E+03  0.15077643558E+03  0.51100000000E-03 0. -1.
    9000005    1    3    3    0    0  0.18293423409E+02  0.62146633152E+02 -0.52661824522E+03  0.53058894594E+03  0.10000000000E+01 0.  0.
    9000005    1    3    3    0    0 -0.74036113725E+01 -0.54016549877E+02 -0.85599886841E+03  0.85773402862E+03  0.10000000000E+01 0.  0.
<mgrwt>
<rscale>  0 0.11086264E+03</rscale>
<asrwt>0</asrwt>
<pdfrwt beam="2">  1        2 0.24352758E+00 0.12574020E+03</pdfrwt>
<pdfrwt beam="1">  1       -2 0.15634751E-02 0.12574020E+03</pdfrwt>
<totfact> 0.13248470E+04</totfact>
</mgrwt>
</event>
<event>
 8    2  0.8128359E-004  0.1283430E+03  0.7818608E-02  0.1244646E+00
         -2   -1    0    0    0  501 -0.00000000000E+00  0.00000000000E+00  0.55602697772E+02  0.55602697830E+02  0.25500000000E-02 0.  1.
          2   -1    0    0  501    0  0.00000000000E+00 -0.00000000000E+00 -0.23549525721E+03  0.23549525722E+03  0.25500000000E-02 0. -1.
         25    2    1    2    0    0 -0.22444496191E+02  0.18518058004E+02 -0.13395050856E+03  0.18551190142E+03  0.12500101177E+03 0.  0.
         23    2    1    2    0    0  0.22444496191E+02 -0.18518058004E+02 -0.45942050873E+02  0.10558605363E+03  0.90504523653E+02 0.  0.
        -11    1    4    4    0    0 -0.83090676470E+01 -0.12555650972E+02  0.24350428736E+02  0.28629152212E+02  0.51100000000E-03 0.  1.
         11    1    4    4    0    0  0.30753563838E+02 -0.59624070317E+01 -0.70292479609E+02  0.76956901420E+02  0.51100000000E-03 0. -1.
    9000005    1    3    3    0    0 -0.55312339792E+02  0.60624758444E+01 -0.98392985552E+01  0.56515664578E+02  0.10000000000E+01 0.  0.
    9000005    1    3    3    0    0  0.32867843600E+02  0.12455582159E+02 -0.12411121001E+03  0.12899623684E+03  0.10000000000E+01 0.  0.
<mgrwt>
<rscale>  0 0.11906569E+03</rscale>
<asrwt>0</asrwt>
<pdfrwt beam="2">  1        2 0.36230039E-01 0.12834300E+03</pdfrwt>
<pdfrwt beam="1">  1       -2 0.85542613E-02 0.12834300E+03</pdfrwt>
<totfact> 0.11358949E+04</totfact>
</mgrwt>
</event>
<event>
 8    2  0.8128359E-004  0.1331713E+03  0.7818608E-02  0.1235888E+00
         -2   -1    0    0    0  501 -0.00000000000E+00  0.00000000000E+00  0.15815361004E+02  0.15815361210E+02  0.25500000000E-02 0.  1.
          2   -1    0    0  501    0  0.00000000000E+00 -0.00000000000E+00 -0.10767801307E+04  0.10767801308E+04  0.25500000000E-02 0. -1.
         25    2    1    2    0    0  0.35508512895E+02 -0.29087819751E+02 -0.35143764081E+03  0.37582311928E+03  0.12501058298E+03 0.  0.
         23    2    1    2    0    0 -0.35508512895E+02  0.29087819751E+02 -0.70952712893E+03  0.71677237269E+03  0.90702435517E+02 0.  0.
        -11    1    4    4    0    0 -0.46578054146E+02  0.14766694296E+02 -0.68248257573E+03  0.68422952038E+03  0.51100000000E-03 0. -1.
         11    1    4    4    0    0  0.11069541252E+02  0.14321125455E+02 -0.27044553202E+02  0.32542852302E+02  0.51100000000E-03 0.  1.
    9000005    1    3    3    0    0  0.43125194850E+02 -0.75013398166E+02 -0.22238580516E+03  0.23862782459E+03  0.10000000000E+01 0.  0.
    9000005    1    3    3    0    0 -0.76166819549E+01  0.45925578414E+02 -0.12905183566E+03  0.13719529468E+03  0.10000000000E+01 0.  0.
<mgrwt>
<rscale>  0 0.12447754E+03</rscale>
<asrwt>0</asrwt>
<pdfrwt beam="2">  1        2 0.16565842E+00 0.13317132E+03</pdfrwt>
<pdfrwt beam="1">  1       -2 0.24331333E-02 0.13317132E+03</pdfrwt>
<totfact> 0.13108379E+04</totfact>
</mgrwt>
</event>
<event>
 8    2  0.8128359E-004  0.1924549E+03  0.7818608E-02  0.1160752E+00
         -2   -1    0    0    0  501 -0.00000000000E+00  0.00000000000E+00  0.40774827063E+02  0.40774827143E+02  0.25500000000E-02 0. -1.
          2   -1    0    0  501    0  0.00000000000E+00 -0.00000000000E+00 -0.82888425277E+03  0.82888425277E+03  0.25500000000E-02 0.  1.
         25    2    1    2    0    0  0.12735595732E+02 -0.14578630938E+03 -0.45860062006E+03  0.49734637036E+03  0.12499215970E+03 0.  0.
         23    2    1    2    0    0 -0.12735595732E+02  0.14578630938E+03 -0.32950880564E+03  0.37231270956E+03  0.92870109826E+02 0.  0.
        -11    1    4    4    0    0 -0.23779853743E+02  0.15479737071E+03 -0.31596951646E+03  0.35265343151E+03  0.51100000000E-03 0.  1.
         11    1    4    4    0    0  0.11044258011E+02 -0.90110613353E+01 -0.13539289184E+02  0.19659278046E+02  0.51100000000E-03 0. -1.
    9000005    1    3    3    0    0  0.13742331489E+02 -0.10341192434E+03 -0.13318682882E+03  0.16918217738E+03  0.10000000000E+01 0.  0.
    9000005    1    3    3    0    0 -0.10067357569E+01 -0.42374385035E+02 -0.32541379124E+03  0.32816419298E+03  0.10000000000E+01 0.  0.
<mgrwt>
<rscale>  0 0.18748238E+03</rscale>
<asrwt>0</asrwt>
<pdfrwt beam="2">  1        2 0.12752064E+00 0.19245489E+03</pdfrwt>
<pdfrwt beam="1">  1       -2 0.62730510E-02 0.19245489E+03</pdfrwt>
<totfact> 0.46186416E+03</totfact>
</mgrwt>
</event>
<event>
 8    2  0.8128359E-004  0.1572031E+03  0.7818608E-02  0.1199168E+00
          2   -1    0    0  501    0  0.00000000000E+00  0.00000000000E+00  0.92277657056E+03  0.92277657056E+03  0.25500000000E-02 0. -1.
         -2   -1    0    0    0  501 -0.00000000000E+00 -0.00000000000E+00 -0.25909621716E+02  0.25909621842E+02  0.25500000000E-02 0.  1.
         25    2    1    2    0    0  0.65524639684E+02  0.69235548904E+02  0.32107176217E+03  0.35749108631E+03  0.12500304272E+03 0.  0.
         23    2    1    2    0    0 -0.65524639684E+02 -0.69235548904E+02  0.57579518668E+03  0.59119510610E+03  0.94257715013E+02 0.  0.
        -11    1    4    4    0    0 -0.54997259545E+02 -0.76851691497E+02  0.56848484709E+03  0.57628630247E+03  0.51100000000E-03 0. -1.
         11    1    4    4    0    0 -0.10527380139E+02  0.76161425938E+01  0.73103395903E+01  0.14908803634E+02  0.51100000000E-03 0.  1.
    9000005    1    3    3    0    0  0.47141076269E+02 -0.25592964069E+02  0.68040222723E+02  0.86647289570E+02  0.10000000000E+01 0.  0.
    9000005    1    3    3    0    0  0.18383563416E+02  0.94828512973E+02  0.25303153945E+03  0.27084379674E+03  0.10000000000E+01 0.  0.
<mgrwt>
<rscale>  0 0.15106677E+03</rscale>
<asrwt>0</asrwt>
<pdfrwt beam="1">  1        2 0.14196564E+00 0.15720305E+03</pdfrwt>
<pdfrwt beam="2">  1       -2 0.39860953E-02 0.15720305E+03</pdfrwt>
<totfact> 0.79022427E+03</totfact>
</mgrwt>
</event>
<event>
 8    2  0.8128359E-004  0.2147111E+03  0.7818608E-02  0.1141264E+00
         -2   -1    0    0    0  501 -0.00000000000E+00  0.00000000000E+00  0.91036784881E+02  0.91036784917E+02  0.25500000000E-02 0.  1.
          2   -1    0    0  501    0  0.00000000000E+00 -0.00000000000E+00 -0.55734982513E+03  0.55734982514E+03  0.25500000000E-02 0. -1.
         25    2    1    2    0    0 -0.84619391204E+02 -0.15269359191E+03 -0.11108017799E+03  0.24174297931E+03  0.12500035090E+03 0.  0.
         23    2    1    2    0    0  0.84619391204E+02  0.15269359191E+03 -0.35523286227E+03  0.40664363075E+03  0.93235624179E+02 0.  0.
        -11    1    4    4    0    0 -0.18379997284E+02  0.44430727257E+02 -0.97899030102E+02  0.10906939956E+03  0.51100000000E-03 0. -1.
         11    1    4    4    0    0  0.10299938849E+03  0.10826286466E+03 -0.25733383217E+03  0.29757423119E+03  0.51100000000E-03 0.  1.
    9000005    1    3    3    0    0 -0.90722185689E+02 -0.15654678047E+03 -0.60713729289E+02  0.19085221082E+03  0.10000000000E+01 0.  0.
    9000005    1    3    3    0    0  0.61027944851E+01  0.38531885580E+01 -0.50366448696E+02  0.50890768484E+02  0.10000000000E+01 0.  0.
<mgrwt>
<rscale>  0 0.21038183E+03</rscale>
<asrwt>0</asrwt>
<pdfrwt beam="2">  1        2 0.85746125E-01 0.21471111E+03</pdfrwt>
<pdfrwt beam="1">  1       -2 0.14005660E-01 0.21471111E+03</pdfrwt>
<totfact> 0.20957645E+03</totfact>
</mgrwt>
</event>
<event>
 8    2  0.8128359E-004  0.1777962E+03  0.7818608E-02  0.1175751E+00
         -2   -1    0    0    0  501 -0.00000000000E+00  0.00000000000E+00  0.71620209863E+02  0.71620209909E+02  0.25500000000E-02 0. -1.
          2   -1    0    0  501    0  0.00000000000E+00 -0.00000000000E+00 -0.46256366723E+03  0.46256366724E+03  0.25500000000E-02 0.  1.
         25    2    1    2    0    0  0.12591754824E+03  0.11460184396E+02 -0.99607337301E+02  0.20379670026E+03  0.12499963444E+03 0.  0.
         23    2    1    2    0    0 -0.12591754824E+03 -0.11460184396E+02 -0.29133612007E+03  0.33038717689E+03  0.91062544534E+02 0.  0.
        -11    1    4    4    0    0 -0.10539502113E+03  0.24365498650E+02 -0.16347399799E+03  0.19602432508E+03  0.51100000000E-03 0. -1.
         11    1    4    4    0    0 -0.20522527109E+02 -0.35825683046E+02 -0.12786212208E+03  0.13436285181E+03  0.51100000000E-03 0.  1.
    9000005    1    3    3    0    0  0.54460769299E+00  0.55136191035E+01 -0.75839680202E+02  0.76048364126E+02  0.10000000000E+01 0.  0.
    9000005    1    3    3    0    0  0.12537294055E+03  0.59465652928E+01 -0.23767657099E+02  0.12774833613E+03  0.10000000000E+01 0.  0.
<mgrwt>
<rscale>  0 0.17202657E+03</rscale>
<asrwt>0</asrwt>
<pdfrwt beam="2">  1        2 0.71163639E-01 0.17779616E+03</pdfrwt>
<pdfrwt beam="1">  1       -2 0.11018494E-01 0.17779616E+03</pdfrwt>
<totfact> 0.37804918E+03</totfact>
</mgrwt>
</event>
<event>
 8    2  0.8128359E-004  0.1318619E+03  0.7818608E-02  0.1236165E+00
          2   -1    0    0  501    0  0.00000000000E+00  0.00000000000E+00  0.53814724158E+03  0.53814724159E+03  0.25500000000E-02 0.  1.
         -2   -1    0    0    0  501 -0.00000000000E+00 -0.00000000000E+00 -0.26463205275E+02  0.26463205398E+02  0.25500000000E-02 0. -1.
         25    2    1    2    0    0 -0.32590116711E+00  0.41973102863E+02  0.24328799569E+03  0.27672480135E+03  0.12500287700E+03 0.  0.
         23    2    1    2    0    0  0.32590116711E+00 -0.41973102863E+02  0.26839604062E+03  0.28788564564E+03  0.95288313924E+02 0.  0.
        -11    1    4    4    0    0 -0.21890418989E+02 -0.28668145631E+02  0.25712626570E+03  0.25964392836E+03  0.51100000000E-03 0.  1.
         11    1    4    4    0    0  0.22216320156E+02 -0.13304957232E+02  0.11269774914E+02  0.28241717283E+02  0.51100000000E-03 0. -1.
    9000005    1    3    3    0    0  0.54867402572E+02 -0.98780265540E+01  0.93054311622E+02  0.10848093005E+03  0.10000000000E+01 0.  0.
    9000005    1    3    3    0    0 -0.55193303739E+02  0.51851129417E+02  0.15023368407E+03  0.16824387129E+03  0.10000000000E+01 0.  0.
<mgrwt>
<rscale>  0 0.12430162E+03</rscale>
<asrwt>0</asrwt>
<pdfrwt beam="1">  1        2 0.82791881E-01 0.13186192E+03</pdfrwt>
<pdfrwt beam="2">  1       -2 0.40712625E-02 0.13186192E+03</pdfrwt>
<totfact> 0.14477480E+04</totfact>
</mgrwt>
</event>
<event>
 8    2  0.8128359E-004  0.1354017E+03  0.7818608E-02  0.1231746E+00
         -2   -1    0    0    0  501 -0.00000000000E+00  0.00000000000E+00  0.55620244602E+01  0.55620250447E+01  0.25500000000E-02 0.  1.
          2   -1    0    0  501    0  0.00000000000E+00 -0.00000000000E+00 -0.27477652687E+04  0.27477652687E+04  0.25500000000E-02 0. -1.
         25    2    1    2    0    0  0.90322318579E+01 -0.51244831699E+02 -0.18461884181E+04  0.18511470229E+04  0.12500404393E+03 0.  0.
         23    2    1    2    0    0 -0.90322318579E+01  0.51244831699E+02 -0.89601482611E+03  0.90218027089E+03  0.91537197836E+02 0.  0.
        -11    1    4    4    0    0 -0.25061835909E+02 -0.16319481655E+02 -0.15078519398E+03  0.15372246363E+03  0.51100000000E-03 0.  1.
         11    1    4    4    0    0  0.16029604051E+02  0.67564313355E+02 -0.74522963213E+03  0.74845780726E+03  0.51100000000E-03 0. -1.
    9000005    1    3    3    0    0 -0.18805153892E+02 -0.60243321867E+02 -0.17356804443E+04  0.17368277106E+04  0.10000000000E+01 0.  0.
    9000005    1    3    3    0    0  0.27837385750E+02  0.89984901672E+01 -0.11050797385E+03  0.11431931226E+03  0.10000000000E+01 0.  0.
<mgrwt>
<rscale>  0 0.12715056E+03</rscale>
<asrwt>0</asrwt>
<pdfrwt beam="2">  1        2 0.42273203E+00 0.13540172E+03</pdfrwt>
<pdfrwt beam="1">  1       -2 0.85569831E-03 0.13540172E+03</pdfrwt>
<totfact> 0.77764892E+03</totfact>
</mgrwt>
</event>
<event>
 8    2  0.8128359E-004  0.1356499E+03  0.7818608E-02  0.1233202E+00
         -2   -1    0    0    0  501 -0.00000000000E+00  0.00000000000E+00  0.15174387088E+03  0.15174387090E+03  0.25500000000E-02 0.  1.
          2   -1    0    0  501    0  0.00000000000E+00 -0.00000000000E+00 -0.10246508467E+03  0.10246508470E+03  0.25500000000E-02 0. -1.
         25    2    1    2    0    0  0.39657861338E+02  0.34689027109E+02 -0.10923192788E+02  0.13608902246E+03  0.12499932530E+03 0.  0.
         23    2    1    2    0    0 -0.39657861338E+02 -0.34689027109E+02  0.60201979002E+02  0.11811993315E+03  0.86902046942E+02 0.  0.
        -11    1    4    4    0    0 -0.23691425332E+02 -0.56360738465E+02  0.11119489640E+02  0.62140643099E+02  0.51100000000E-03 0. -1.
         11    1    4    4    0    0 -0.15966436006E+02  0.21671711357E+02  0.49082489362E+02  0.55979290046E+02  0.51100000000E-03 0.  1.
    9000005    1    3    3    0    0  0.62165599985E+02 -0.15029642230E+02 -0.38784628970E+02  0.74804407700E+02  0.10000000000E+01 0.  0.
    9000005    1    3    3    0    0 -0.22507738647E+02  0.49718669339E+02  0.27861436182E+02  0.61284614757E+02  0.10000000000E+01 0.  0.
<mgrwt>
<rscale>  0 0.12620220E+03</rscale>
<asrwt>0</asrwt>
<pdfrwt beam="2">  1        2 0.15763859E-01 0.13564994E+03</pdfrwt>
<pdfrwt beam="1">  1       -2 0.23345211E-01 0.13564994E+03</pdfrwt>
<totfact> 0.56034081E+03</totfact>
</mgrwt>
</event>
<event>
 8    2  0.8128359E-004  0.1286958E+03  0.7818608E-02  0.1243297E+00
          2   -1    0    0  501    0  0.00000000000E+00  0.00000000000E+00  0.88017539972E+03  0.88017539972E+03  0.25500000000E-02 0. -1.
         -2   -1    0    0    0  501 -0.00000000000E+00 -0.00000000000E+00 -0.17193974774E+02  0.17193974963E+02  0.25500000000E-02 0.  1.
         25    2    1    2    0    0  0.29221409140E+02  0.91655793998E+01  0.30503004558E+03  0.33106786169E+03  0.12499880697E+03 0.  0.
         23    2    1    2    0    0 -0.29221409140E+02 -0.91655793998E+01  0.55795137937E+03  0.56630151299E+03  0.91922593959E+02 0.  0.
        -11    1    4    4    0    0  0.23054828323E+02  0.16697044929E+00  0.44560744921E+02  0.50171834492E+02  0.51100000000E-03 0.  1.
         11    1    4    4    0    0 -0.52276237463E+02 -0.93325498491E+01  0.51339063445E+03  0.51612967850E+03  0.51100000000E-03 0. -1.
    9000005    1    3    3    0    0  0.72813892869E+02 -0.22270493007E+00  0.24912470923E+03  0.25954967413E+03  0.10000000000E+01 0.  0.
    9000005    1    3    3    0    0 -0.43592483729E+02  0.93882843299E+01  0.55905336345E+02  0.71518187562E+02  0.10000000000E+01 0.  0.
<mgrwt>
<rscale>  0 0.11987893E+03</rscale>
<asrwt>0</asrwt>
<pdfrwt beam="1">  1        2 0.13541160E+00 0.12869577E+03</pdfrwt>
<pdfrwt beam="2">  1       -2 0.26452268E-02 0.12869577E+03</pdfrwt>
<totfact> 0.15217354E+04</totfact>
</mgrwt>
</event>
<event>
 8    2  0.8128359E-004  0.1532643E+03  0.7818608E-02  0.1203464E+00
          2   -1    0    0  501    0  0.00000000000E+00  0.00000000000E+00  0.16521516881E+04  0.16521516881E+04  0.25500000000E-02 0.  1.
         -2   -1    0    0    0  501 -0.00000000000E+00 -0.00000000000E+00 -0.20927466045E+02  0.20927466200E+02  0.25500000000E-02 0. -1.
         25    2    1    2    0    0 -0.83858750223E+02 -0.28862804490E+02  0.13880185053E+04  0.13964545553E+04  0.12499840990E+03 0.  0.
         23    2    1    2    0    0  0.83858750223E+02  0.28862804490E+02  0.24320571677E+03  0.27662459902E+03  0.97502803256E+02 0.  0.
        -11    1    4    4    0    0  0.79403509275E+02  0.18517343875E+02  0.25034563078E+03  0.26328832895E+03  0.51100000000E-03 0.  1.
         11    1    4    4    0    0  0.44552409475E+01  0.10345460615E+02 -0.71399140081E+01  0.13336270076E+02  0.51100000000E-03 0. -1.
    9000005    1    3    3    0    0 -0.63251863668E+02  0.41735467010E+01  0.12810136263E+04  0.12825814312E+04  0.10000000000E+01 0.  0.
    9000005    1    3    3    0    0 -0.20606886555E+02 -0.33036351191E+02  0.10700487896E+03  0.11387312411E+03  0.10000000000E+01 0.  0.
<mgrwt>
<rscale>  0 0.14759189E+03</rscale>
<asrwt>0</asrwt>
<pdfrwt beam="1">  1        2 0.25417724E+00 0.15326433E+03</pdfrwt>
<pdfrwt beam="2">  1       -2 0.32196094E-02 0.15326433E+03</pdfrwt>
<totfact> 0.42846991E+03</totfact>
</mgrwt>
</event>
<event>
 8    2  0.8128359E-004  0.1602883E+03  0.7818608E-02  0.1196262E+00
          2   -1    0    0  501    0  0.00000000000E+00  0.00000000000E+00  0.21949599247E+04  0.21949599247E+04  0.25500000000E-02 0. -1.
         -2   -1    0    0    0  501 -0.00000000000E+00 -0.00000000000E+00 -0.10146249217E+02  0.10146249537E+02  0.25500000000E-02 0.  1.
         25    2    1    2    0    0  0.10031515108E+03  0.59901891672E+00  0.13511306491E+04  0.13606051509E+04  0.12501542816E+03 0.  0.
         23    2    1    2    0    0 -0.10031515108E+03 -0.59901891672E+00  0.83368302630E+03  0.84450102329E+03  0.89950551023E+02 0.  0.
        -11    1    4    4    0    0  0.22898913230E+01 -0.27597697346E+02  0.21666674581E+03  0.21842929118E+03  0.51100000000E-03 0. -1.
         11    1    4    4    0    0 -0.10260504240E+03  0.26998678429E+02  0.61701628049E+03  0.62607173211E+03  0.51100000000E-03 0.  1.
    9000005    1    3    3    0    0  0.45596850001E+02  0.61939606150E+02  0.57167630272E+03  0.57682786222E+03  0.10000000000E+01 0.  0.
    9000005    1    3    3    0    0  0.54718301078E+02 -0.61340587234E+02  0.77945434643E+03  0.78377728870E+03  0.10000000000E+01 0.  0.
<mgrwt>
<rscale>  0 0.15347927E+03</rscale>
<asrwt>0</asrwt>
<pdfrwt beam="1">  1        2 0.33768676E+00 0.16028832E+03</pdfrwt>
<pdfrwt beam="2">  1       -2 0.15609586E-02 0.16028832E+03</pdfrwt>
<totfact> 0.64872280E+03</totfact>
</mgrwt>
</event>
<event>
 8    2  0.8128359E-004  0.4271365E+03  0.7818608E-02  0.1035451E+00
         -2   -1    0    0    0  501 -0.00000000000E+00  0.00000000000E+00  0.14567836005E+03  0.14567836008E+03  0.25500000000E-02 0. -1.
          2   -1    0    0  501    0  0.00000000000E+00 -0.00000000000E+00 -0.15004803515E+04  0.15004803515E+04  0.25500000000E-02 0.  1.
         25    2    1    2    0    0  0.29528938531E+03 -0.28217704413E+03 -0.10339032439E+04  0.11186605873E+04  0.12500354573E+03 0.  0.
         23    2    1    2    0    0 -0.29528938531E+03  0.28217704413E+03 -0.32089874749E+03  0.52749812426E+03  0.91970428144E+02 0.  0.
        -11    1    4    4    0    0 -0.16494062664E+03  0.16132936198E+03 -0.23763061183E+03  0.33121123326E+03  0.51100000000E-03 0. -1.
         11    1    4    4    0    0 -0.13034875867E+03  0.12084768214E+03 -0.83268135662E+02  0.19628689101E+03  0.51100000000E-03 0.  1.
    9000005    1    3    3    0    0  0.15857442674E+03 -0.22294979307E+03 -0.58828923094E+03  0.64879710101E+03  0.10000000000E+01 0.  0.
    9000005    1    3    3    0    0  0.13671495857E+03 -0.59227251059E+02 -0.44561401298E+03  0.46986348626E+03  0.10000000000E+01 0.  0.
<mgrwt>
<rscale>  0 0.42500205E+03</rscale>
<asrwt>0</asrwt>
<pdfrwt beam="2">  1        2 0.23084312E+00 0.42713650E+03</pdfrwt>
<pdfrwt beam="1">  1       -2 0.22412056E-01 0.42713650E+03</pdfrwt>
<totfact> 0.23139800E+02</totfact>
</mgrwt>
</event>
<event>
 8    2  0.8128359E-004  0.2182323E+03  0.7818608E-02  0.1138659E+00
         -2   -1    0    0    0  501 -0.00000000000E+00  0.00000000000E+00  0.43007869152E+02  0.43007869228E+02  0.25500000000E-02 0.  1.
          2   -1    0    0  501    0  0.00000000000E+00 -0.00000000000E+00 -0.10240102304E+04  0.10240102304E+04  0.25500000000E-02 0. -1.
         25    2    1    2    0    0 -0.14771555785E+03  0.10089672124E+03 -0.54334780526E+03  0.58553579653E+03  0.12500118861E+03 0.  0.
         23    2    1    2    0    0  0.14771555785E+03 -0.10089672124E+03 -0.43765455604E+03  0.48148230314E+03  0.91014633076E+02 0.  0.
        -11    1    4    4    0    0  0.36061620596E+02 -0.27066778709E+02 -0.23032507767E+03  0.23469702255E+03  0.51100000000E-03 0.  1.
         11    1    4    4    0    0  0.11165393725E+03 -0.73829942533E+02 -0.20732947837E+03  0.24678528060E+03  0.51100000000E-03 0. -1.
    9000005    1    3    3    0    0 -0.10021828745E+03  0.47061681363E+02 -0.47011279809E+03  0.48297572395E+03  0.10000000000E+01 0.  0.
    9000005    1    3    3    0    0 -0.47497270397E+02  0.53835039880E+02 -0.73235007163E+02  0.10256007258E+03  0.10000000000E+01 0.  0.
<mgrwt>
<rscale>  0 0.21371274E+03</rscale>
<asrwt>0</asrwt>
<pdfrwt beam="2">  1        2 0.15754002E+00 0.21823229E+03</pdfrwt>
<pdfrwt beam="1">  1       -2 0.66165960E-02 0.21823229E+03</pdfrwt>
<totfact> 0.32113968E+03</totfact>
</mgrwt>
</event>
<event>
 8    2  0.8128359E-004  0.1344350E+03  0.7818608E-02  0.1235364E+00
         -2   -1    0    0    0  501 -0.00000000000E+00  0.00000000000E+00  0.45147501232E+03  0.45147501233E+03  0.25500000000E-02 0.  1.
          2   -1    0    0  501    0  0.00000000000E+00 -0.00000000000E+00 -0.30442538139E+02  0.30442538246E+02  0.25500000000E-02 0. -1.
         25    2    1    2    0    0 -0.40220183297E+02 -0.28818505291E+02  0.23289608455E+03  0.26891145130E+03  0.12499845218E+03 0.  0.
         23    2    1    2    0    0  0.40220183297E+02  0.28818505291E+02  0.18813638963E+03  0.21300609927E+03  0.86764784533E+02 0.  0.
        -11    1    4    4    0    0  0.30100677285E+02 -0.25994941729E+01  0.17482354186E+03  0.17741499072E+03  0.51100000000E-03 0.  1.
         11    1    4    4    0    0  0.10119506012E+02  0.31417999464E+02  0.13312847763E+02  0.35591108553E+02  0.51100000000E-03 0. -1.
    9000005    1    3    3    0    0 -0.47428818755E+02 -0.11657216431E+02  0.24289478971E+03  0.24775847597E+03  0.10000000000E+01 0.  0.
    9000005    1    3    3    0    0  0.72086354581E+01 -0.17161288859E+02 -0.99987051595E+01  0.21152975331E+02  0.10000000000E+01 0.  0.
<mgrwt>
<rscale>  0 0.12481177E+03</rscale>
<asrwt>0</asrwt>
<pdfrwt beam="2">  1        2 0.46834676E-02 0.13443505E+03</pdfrwt>
<pdfrwt beam="1">  1       -2 0.69457691E-01 0.13443505E+03</pdfrwt>
<totfact> 0.31736250E+03</totfact>
</mgrwt>
</event>
<event>
 8    2  0.8128359E-004  0.1573420E+03  0.7818608E-02  0.1199738E+00
         -2   -1    0    0    0  501 -0.00000000000E+00  0.00000000000E+00  0.61478705555E+02  0.61478705608E+02  0.25500000000E-02 0.  1.
          2   -1    0    0  501    0  0.00000000000E+00 -0.00000000000E+00 -0.42014912012E+03  0.42014912013E+03  0.25500000000E-02 0. -1.
         25    2    1    2    0    0  0.92928624601E+02  0.22282583512E+02 -0.87557121937E+02  0.18006318521E+03  0.12499703304E+03 0.  0.
         23    2    1    2    0    0 -0.92928624601E+02 -0.22282583512E+02 -0.27111329263E+03  0.30156464053E+03  0.91140398164E+02 0.  0.
        -11    1    4    4    0    0 -0.80403536254E+01 -0.26148193216E+00  0.65545343947E+01  0.10376780841E+02  0.51100000000E-03 0.  1.
         11    1    4    4    0    0 -0.84888270976E+02 -0.22021101580E+02 -0.27766782703E+03  0.29118785969E+03  0.51100000000E-03 0. -1.
    9000005    1    3    3    0    0  0.17792530671E+02 -0.38740595521E+02 -0.69580634896E+02  0.81608042751E+02  0.10000000000E+01 0.  0.
    9000005    1    3    3    0    0  0.75136093930E+02  0.61023179034E+02 -0.17976487041E+02  0.98455142460E+02  0.10000000000E+01 0.  0.
<mgrwt>
<rscale>  0 0.15059935E+03</rscale>
<asrwt>0</asrwt>
<pdfrwt beam="2">  1        2 0.64638324E-01 0.15734199E+03</pdfrwt>
<pdfrwt beam="1">  1       -2 0.94582627E-02 0.15734199E+03</pdfrwt>
<totfact> 0.53141049E+03</totfact>
</mgrwt>
</event>
<event>
 8    2  0.8128359E-004  0.2368114E+03  0.7818608E-02  0.1124352E+00
          2   -1    0    0  501    0  0.00000000000E+00  0.00000000000E+00  0.36647998777E+03  0.36647998778E+03  0.25500000000E-02 0.  1.
         -2   -1    0    0    0  501 -0.00000000000E+00 -0.00000000000E+00 -0.20203913877E+03  0.20203913878E+03  0.25500000000E-02 0. -1.
         25    2    1    2    0    0  0.86084903491E+02  0.18177948760E+03 -0.68022936143E+02  0.24638744363E+03  0.12500103925E+03 0.  0.
         23    2    1    2    0    0 -0.86084903491E+02 -0.18177948760E+03  0.23246378514E+03  0.32213168293E+03  0.96306889803E+02 0.  0.
        -11    1    4    4    0    0 -0.96151761778E+02 -0.13945098248E+03  0.21843746464E+03  0.27641755329E+03  0.51100000000E-03 0.  1.
         11    1    4    4    0    0  0.10066858286E+02 -0.42328505124E+02  0.14026320499E+02  0.45714129641E+02  0.51100000000E-03 0. -1.
    9000005    1    3    3    0    0 -0.25935755988E+02  0.72003350538E+02 -0.42291535411E+02  0.87445525299E+02  0.10000000000E+01 0.  0.
    9000005    1    3    3    0    0  0.11202065948E+03  0.10977613706E+03 -0.25731400732E+02  0.15894191833E+03  0.10000000000E+01 0.  0.
<mgrwt>
<rscale>  0 0.23328062E+03</rscale>
<asrwt>0</asrwt>
<pdfrwt beam="1">  1        2 0.56381536E-01 0.23681143E+03</pdfrwt>
<pdfrwt beam="2">  1       -2 0.31082944E-01 0.23681143E+03</pdfrwt>
<totfact> 0.84318373E+02</totfact>
</mgrwt>
</event>
<event>
 8    2  0.8128359E-004  0.1544103E+03  0.7818608E-02  0.1203840E+00
          2   -1    0    0  501    0  0.00000000000E+00  0.00000000000E+00  0.21141599488E+03  0.21141599489E+03  0.25500000000E-02 0. -1.
         -2   -1    0    0    0  501 -0.00000000000E+00 -0.00000000000E+00 -0.26412830981E+03  0.26412830982E+03  0.25500000000E-02 0.  1.
         25    2    1    2    0    0  0.67909551737E+02 -0.60043436189E+02  0.16316773117E+03  0.22464691436E+03  0.12500242474E+03 0.  0.
         23    2    1    2    0    0 -0.67909551737E+02  0.60043436189E+02 -0.21588004610E+03  0.25089739035E+03  0.90157555041E+02 0.  0.
        -11    1    4    4    0    0  0.74580196571E+01  0.37909562909E+02 -0.12469861810E+03  0.13054693552E+03  0.51100000000E-03 0.  1.
         11    1    4    4    0    0 -0.75367571394E+02  0.22133873280E+02 -0.91181428002E+02  0.12035045483E+03  0.51100000000E-03 0. -1.
    9000005    1    3    3    0    0 -0.21162734191E+02  0.31146742032E+01  0.91641650921E+02  0.94110332575E+02  0.10000000000E+01 0.  0.
    9000005    1    3    3    0    0  0.89072285928E+02 -0.63158110392E+02  0.71526080251E+02  0.13053658179E+03  0.10000000000E+01 0.  0.
<mgrwt>
<rscale>  0 0.14729271E+03</rscale>
<asrwt>0</asrwt>
<pdfrwt beam="1">  1        2 0.32525538E-01 0.15441026E+03</pdfrwt>
<pdfrwt beam="2">  1       -2 0.40635124E-01 0.15441026E+03</pdfrwt>
<totfact> 0.91883674E+02</totfact>
</mgrwt>
</event>
<event>
 8    2  0.8128359E-004  0.1371773E+03  0.7818608E-02  0.1236460E+00
         -2   -1    0    0    0  501 -0.00000000000E+00  0.00000000000E+00  0.20188595409E+03  0.20188595411E+03  0.25500000000E-02 0. -1.
          2   -1    0    0  501    0  0.00000000000E+00 -0.00000000000E+00 -0.67469305658E+02  0.67469305706E+02  0.25500000000E-02 0.  1.
         25    2    1    2    0    0  0.47846824892E+02 -0.30055261177E+02  0.10528506230E+03  0.17292356843E+03  0.12499991519E+03 0.  0.
         23    2    1    2    0    0 -0.47846824892E+02  0.30055261177E+02  0.29131586129E+02  0.96431691385E+02  0.72510581409E+02 0.  0.
        -11    1    4    4    0    0 -0.36899198613E+02  0.18497648794E+02 -0.19216558564E+02  0.45530099851E+02  0.51100000000E-03 0.  1.
         11    1    4    4    0    0 -0.10947626280E+02  0.11557612383E+02  0.48348144693E+02  0.50901591534E+02  0.51100000000E-03 0. -1.
    9000005    1    3    3    0    0 -0.25012702839E+01 -0.71638338704E+02  0.59520392663E+02  0.93177170316E+02  0.10000000000E+01 0.  0.
    9000005    1    3    3    0    0  0.50348095176E+02  0.41583077527E+02  0.45764669641E+02  0.79746398112E+02  0.10000000000E+01 0.  0.
<mgrwt>
<rscale>  0 0.12411422E+03</rscale>
<asrwt>0</asrwt>
<pdfrwt beam="2">  1        2 0.10379893E-01 0.13717732E+03</pdfrwt>
<pdfrwt beam="1">  1       -2 0.31059377E-01 0.13717732E+03</pdfrwt>
<totfact> 0.55737753E+03</totfact>
</mgrwt>
</event>
<event>
 8    2  0.8128359E-004  0.1698325E+03  0.7818608E-02  0.1184701E+00
          2   -1    0    0  501    0  0.00000000000E+00  0.00000000000E+00  0.88211519406E+02  0.88211519443E+02  0.25500000000E-02 0. -1.
         -2   -1    0    0    0  501 -0.00000000000E+00 -0.00000000000E+00 -0.28308536635E+03  0.28308536637E+03  0.25500000000E-02 0.  1.
         25    2    1    2    0    0 -0.98536336887E+02  0.59234965914E+02 -0.10366061637E+03  0.19896886708E+03  0.12499958322E+03 0.  0.
         23    2    1    2    0    0  0.98536336887E+02 -0.59234965914E+02 -0.91213230575E+02  0.17232801873E+03  0.90326639118E+02 0.  0.
        -11    1    4    4    0    0  0.77208880815E+02 -0.26071311697E+02 -0.10284605627E+03  0.13121827564E+03  0.51100000000E-03 0.  1.
         11    1    4    4    0    0  0.21327456072E+02 -0.33163654216E+02  0.11632825696E+02  0.41109743096E+02  0.51100000000E-03 0. -1.
    9000005    1    3    3    0    0  0.91010404004E+01  0.55936671013E+02 -0.12897610825E+02  0.58129927451E+02  0.10000000000E+01 0.  0.
    9000005    1    3    3    0    0 -0.10763737729E+03  0.32982949002E+01 -0.90763005548E+02  0.14083893962E+03  0.10000000000E+01 0.  0.
<mgrwt>
<rscale>  0 0.16359093E+03</rscale>
<asrwt>0</asrwt>
<pdfrwt beam="1">  1        2 0.13571003E-01 0.16983253E+03</pdfrwt>
<pdfrwt beam="2">  1       -2 0.43551594E-01 0.16983253E+03</pdfrwt>
<totfact> 0.21710414E+03</totfact>
</mgrwt>
</event>
<event>
 8    2  0.8128359E-004  0.1373342E+03  0.7818608E-02  0.1231726E+00
          2   -1    0    0  501    0  0.00000000000E+00  0.00000000000E+00  0.91057497516E+03  0.91057497516E+03  0.25500000000E-02 0. -1.
         -2   -1    0    0    0  501 -0.00000000000E+00 -0.00000000000E+00 -0.17224188598E+02  0.17224188786E+02  0.25500000000E-02 0.  1.
         25    2    1    2    0    0 -0.51025533894E+02 -0.25138498578E+02  0.36698717460E+03  0.39184213624E+03  0.12500049675E+03 0.  0.
         23    2    1    2    0    0  0.51025533894E+02  0.25138498578E+02  0.52636361196E+03  0.53595702771E+03  0.83401045199E+02 0.  0.
        -11    1    4    4    0    0  0.55350084932E+02 -0.10228902608E+02  0.20375565326E+03  0.21138738985E+03  0.51100000000E-03 0.  1.
         11    1    4    4    0    0 -0.43245510382E+01  0.35367401186E+02  0.32260795869E+03  0.32456963786E+03  0.51100000000E-03 0. -1.
    9000005    1    3    3    0    0 -0.43030473370E+02  0.47578481144E+02  0.16872466799E+03  0.18051134893E+03  0.10000000000E+01 0.  0.
    9000005    1    3    3    0    0 -0.79950605235E+01 -0.72716979721E+02  0.19826250661E+03  0.21133078730E+03  0.10000000000E+01 0.  0.
<mgrwt>
<rscale>  0 0.12716353E+03</rscale>
<asrwt>0</asrwt>
<pdfrwt beam="1">  1        2 0.14008846E+00 0.13733417E+03</pdfrwt>
<pdfrwt beam="2">  1       -2 0.26498752E-02 0.13733417E+03</pdfrwt>
<totfact> 0.14586605E+04</totfact>
</mgrwt>
</event>
<event>
 8    2  0.8128359E-004  0.1369245E+03  0.7818608E-02  0.1228409E+00
         -2   -1    0    0    0  501 -0.00000000000E+00  0.00000000000E+00  0.36212070759E+02  0.36212070848E+02  0.25500000000E-02 0.  1.
          2   -1    0    0  501    0  0.00000000000E+00 -0.00000000000E+00 -0.43365946421E+03  0.43365946421E+03  0.25500000000E-02 0. -1.
         25    2    1    2    0    0  0.52466236272E+02 -0.19220989825E+02 -0.17576119290E+03  0.22280103821E+03  0.12500461311E+03 0.  0.
         23    2    1    2    0    0 -0.52466236272E+02  0.19220989825E+02 -0.22168620055E+03  0.24707049685E+03  0.93685145588E+02 0.  0.
        -11    1    4    4    0    0 -0.10296261469E+01  0.35496563173E+02 -0.25809417014E+02  0.43899796514E+02  0.51100000000E-03 0.  1.
         11    1    4    4    0    0 -0.51436610125E+02 -0.16275573348E+02 -0.19587678353E+03  0.20317070034E+03  0.51100000000E-03 0. -1.
    9000005    1    3    3    0    0  0.51165480301E+02 -0.44934723317E+02 -0.18363669281E+03  0.19585829234E+03  0.10000000000E+01 0.  0.
    9000005    1    3    3    0    0  0.13007559718E+01  0.25713733492E+02  0.78754999050E+01  0.26942745869E+02  0.10000000000E+01 0.  0.
<mgrwt>
<rscale>  0 0.12935995E+03</rscale>
<asrwt>0</asrwt>
<pdfrwt beam="2">  1        2 0.66716837E-01 0.13692445E+03</pdfrwt>
<pdfrwt beam="1">  1       -2 0.55710881E-02 0.13692445E+03</pdfrwt>
<totfact> 0.11490837E+04</totfact>
</mgrwt>
</event>
<event>
 8    2  0.8128359E-004  0.1356507E+03  0.7818608E-02  0.1225526E+00
          2   -1    0    0  501    0  0.00000000000E+00  0.00000000000E+00  0.12323248866E+04  0.12323248866E+04  0.25500000000E-02 0. -1.
         -2   -1    0    0    0  501 -0.00000000000E+00 -0.00000000000E+00 -0.13189327334E+02  0.13189327580E+02  0.25500000000E-02 0.  1.
         25    2    1    2    0    0  0.42246691888E+02  0.31474357482E+02  0.62290863362E+03  0.63750787286E+03  0.12500281582E+03 0.  0.
         23    2    1    2    0    0 -0.42246691888E+02 -0.31474357482E+02  0.59622692563E+03  0.60800634131E+03  0.10681641293E+03 0.  0.
        -11    1    4    4    0    0 -0.39776546989E+02  0.33873095747E+02  0.31280455846E+03  0.31713759175E+03  0.51100000000E-03 0. -1.
         11    1    4    4    0    0 -0.24701448988E+01 -0.65347453228E+02  0.28342236717E+03  0.29086874956E+03  0.51100000000E-03 0.  1.
    9000005    1    3    3    0    0  0.68922309011E+02  0.27134411881E+02  0.59123992180E+03  0.59586257318E+03  0.10000000000E+01 0.  0.
    9000005    1    3    3    0    0 -0.26675617123E+02  0.43399456010E+01  0.31668711816E+02  0.41645299672E+02  0.10000000000E+01 0.  0.
<mgrwt>
<rscale>  0 0.13130943E+03</rscale>
<asrwt>0</asrwt>
<pdfrwt beam="1">  1        2 0.18958845E+00 0.13565074E+03</pdfrwt>
<pdfrwt beam="2">  1       -2 0.20291273E-02 0.13565074E+03</pdfrwt>
<totfact> 0.13978072E+04</totfact>
</mgrwt>
</event>
<event>
 8    2  0.8128359E-004  0.1260598E+03  0.7818608E-02  0.1248481E+00
          2   -1    0    0  501    0  0.00000000000E+00  0.00000000000E+00  0.25141158811E+03  0.25141158813E+03  0.25500000000E-02 0. -1.
         -2   -1    0    0    0  501 -0.00000000000E+00 -0.00000000000E+00 -0.48170376037E+02  0.48170376105E+02  0.25500000000E-02 0.  1.
         25    2    1    2    0    0  0.51568684324E+01 -0.15488499733E+02  0.13196841722E+03  0.18250130746E+03  0.12499830866E+03 0.  0.
         23    2    1    2    0    0 -0.51568684324E+01  0.15488499733E+02  0.71272794857E+02  0.11708065677E+03  0.91441686260E+02 0.  0.
        -11    1    4    4    0    0 -0.25848185525E+02  0.43452739686E+02  0.18426886209E+02  0.53812818331E+02  0.51100000000E-03 0.  1.
         11    1    4    4    0    0  0.20691317093E+02 -0.27964239953E+02  0.52845908648E+02  0.63267838435E+02  0.51100000000E-03 0. -1.
    9000005    1    3    3    0    0 -0.28822182164E+01  0.23623369895E+02  0.13978644767E+03  0.14180134604E+03  0.10000000000E+01 0.  0.
    9000005    1    3    3    0    0  0.80390866488E+01 -0.39111869628E+02 -0.78180304486E+01  0.40699961425E+02  0.10000000000E+01 0.  0.
<mgrwt>
<rscale>  0 0.11679428E+03</rscale>
<asrwt>0</asrwt>
<pdfrwt beam="1">  1        2 0.38678706E-01 0.12605976E+03</pdfrwt>
<pdfrwt beam="2">  1       -2 0.74108271E-02 0.12605976E+03</pdfrwt>
<totfact> 0.13197116E+04</totfact>
</mgrwt>
</event>
<event>
 8    2  0.8128359E-004  0.1262730E+03  0.7818608E-02  0.1248427E+00
         -2   -1    0    0    0  501 -0.00000000000E+00  0.00000000000E+00  0.46339731058E+02  0.46339731128E+02  0.25500000000E-02 0.  1.
          2   -1    0    0  501    0  0.00000000000E+00 -0.00000000000E+00 -0.41737909533E+03  0.41737909534E+03  0.25500000000E-02 0. -1.
         25    2    1    2    0    0 -0.14728245805E+02 -0.10095474796E+02 -0.34533516789E+03  0.36769721615E+03  0.12500409892E+03 0.  0.
         23    2    1    2    0    0  0.14728245805E+02  0.10095474796E+02 -0.25704196386E+02  0.96021610320E+02  0.90777773165E+02 0.  0.
        -11    1    4    4    0    0  0.13446790088E+02 -0.60236825696E+01  0.32462104048E+02  0.35649531762E+02  0.51100000000E-03 0.  1.
         11    1    4    4    0    0  0.12814557170E+01  0.16119157365E+02 -0.58166300434E+02  0.60372078558E+02  0.51100000000E-03 0. -1.
    9000005    1    3    3    0    0 -0.53701084948E+02  0.15189617930E+02 -0.29053545622E+03  0.29584858008E+03  0.10000000000E+01 0.  0.
    9000005    1    3    3    0    0  0.38972839143E+02 -0.25285092726E+02 -0.54799711669E+02  0.71848636062E+02  0.10000000000E+01 0.  0.
<mgrwt>
<rscale>  0 0.11682573E+03</rscale>
<asrwt>0</asrwt>
<pdfrwt beam="2">  1        2 0.64212166E-01 0.12627298E+03</pdfrwt>
<pdfrwt beam="1">  1       -2 0.71291897E-02 0.12627298E+03</pdfrwt>
<totfact> 0.81836048E+03</totfact>
</mgrwt>
</event>
<event>
 8    2  0.8128359E-004  0.1437684E+03  0.7818608E-02  0.1219528E+00
          2   -1    0    0  501    0  0.00000000000E+00  0.00000000000E+00  0.60303127170E+03  0.60303127171E+03  0.25500000000E-02 0. -1.
         -2   -1    0    0    0  501 -0.00000000000E+00 -0.00000000000E+00 -0.29075475479E+02  0.29075475591E+02  0.25500000000E-02 0.  1.
         25    2    1    2    0    0 -0.40933793096E+02 -0.58039829480E+02  0.24401499643E+03  0.28321839719E+03  0.12500057919E+03 0.  0.
         23    2    1    2    0    0  0.40933793096E+02  0.58039829480E+02  0.32994079979E+03  0.34888835011E+03  0.88419184870E+02 0.  0.
        -11    1    4    4    0    0  0.40438402710E+02  0.79572765725E+02  0.29107780330E+03  0.30445587042E+03  0.51100000000E-03 0.  1.
         11    1    4    4    0    0  0.49539038592E+00 -0.21532936245E+02  0.38862996491E+02  0.44432479691E+02  0.51100000000E-03 0. -1.
    9000005    1    3    3    0    0  0.21932486710E+02 -0.13572908069E+02  0.18342033594E+03  0.18522763683E+03  0.10000000000E+01 0.  0.
    9000005    1    3    3    0    0 -0.62866279806E+02 -0.44466921410E+02  0.60594660489E+02  0.97990760361E+02  0.10000000000E+01 0.  0.
<mgrwt>
<rscale>  0 0.13549139E+03</rscale>
<asrwt>0</asrwt>
<pdfrwt beam="1">  1        2 0.92774048E-01 0.14376836E+03</pdfrwt>
<pdfrwt beam="2">  1       -2 0.44731498E-02 0.14376836E+03</pdfrwt>
<totfact> 0.11137846E+04</totfact>
</mgrwt>
</event>
<event>
 8    2  0.8128359E-004  0.1324419E+03  0.7818608E-02  0.1241688E+00
          2   -1    0    0  501    0  0.00000000000E+00  0.00000000000E+00  0.61783970906E+03  0.61783970907E+03  0.25500000000E-02 0. -1.
         -2   -1    0    0    0  501 -0.00000000000E+00 -0.00000000000E+00 -0.20990425142E+02  0.20990425297E+02  0.25500000000E-02 0.  1.
         25    2    1    2    0    0 -0.16464777977E+02  0.40559034961E+02  0.29608188172E+03  0.32435373073E+03  0.12499895090E+03 0.  0.
         23    2    1    2    0    0  0.16464777977E+02 -0.40559034961E+02  0.30076740220E+03  0.31447640363E+03  0.80735704525E+02 0.  0.
        -11    1    4    4    0    0 -0.58688236690E+01 -0.24444900754E+02  0.27688336657E+03  0.27802229218E+03  0.51100000000E-03 0. -1.
         11    1    4    4    0    0  0.22333601646E+02 -0.16114134207E+02  0.23884035626E+02  0.36454111452E+02  0.51100000000E-03 0.  1.
    9000005    1    3    3    0    0  0.66581559416E+01  0.44546101073E+02  0.23595258519E+02  0.50856881402E+02  0.10000000000E+01 0.  0.
    9000005    1    3    3    0    0 -0.23122933918E+02 -0.39870661112E+01  0.27248662320E+03  0.27349684933E+03  0.10000000000E+01 0.  0.
<mgrwt>
<rscale>  0 0.12085809E+03</rscale>
<asrwt>0</asrwt>
<pdfrwt beam="1">  1        2 0.95052247E-01 0.13244192E+03</pdfrwt>
<pdfrwt beam="2">  1       -2 0.32292967E-02 0.13244192E+03</pdfrwt>
<totfact> 0.17462350E+04</totfact>
</mgrwt>
</event>
<event>
 8    2  0.8128359E-004  0.1353778E+03  0.7818608E-02  0.1232220E+00
         -2   -1    0    0    0  501 -0.00000000000E+00  0.00000000000E+00  0.13201475781E+02  0.13201476028E+02  0.25500000000E-02 0.  1.
          2   -1    0    0  501    0  0.00000000000E+00 -0.00000000000E+00 -0.11488860303E+04  0.11488860303E+04  0.25500000000E-02 0. -1.
         25    2    1    2    0    0  0.41531957305E+02  0.31264027797E+02 -0.50493031830E+03  0.52276360081E+03  0.12499925234E+03 0.  0.
         23    2    1    2    0    0 -0.41531957305E+02 -0.31264027797E+02 -0.63075423621E+03  0.63932390551E+03  0.90453340151E+02 0.  0.
        -11    1    4    4    0    0 -0.56968213052E+01 -0.17831625398E+02 -0.20082172855E+02  0.27453857728E+02  0.51100000000E-03 0.  1.
         11    1    4    4    0    0 -0.35835136000E+02 -0.13432402399E+02 -0.61067206335E+03  0.61187004778E+03  0.51100000000E-03 0. -1.
    9000005    1    3    3    0    0  0.48474535090E+02 -0.29619903485E+02 -0.11749930464E+03  0.13051515554E+03  0.10000000000E+01 0.  0.
    9000005    1    3    3    0    0 -0.69425777852E+01  0.60883931282E+02 -0.38743101366E+03  0.39224844527E+03  0.10000000000E+01 0.  0.
<mgrwt>
<rscale>  0 0.12684109E+03</rscale>
<asrwt>0</asrwt>
<pdfrwt beam="2">  1        2 0.17675162E+00 0.13537783E+03</pdfrwt>
<pdfrwt beam="1">  1       -2 0.20309972E-02 0.13537783E+03</pdfrwt>
<totfact> 0.15528501E+04</totfact>
</mgrwt>
</event>
<event>
 8    2  0.8128359E-004  0.1365081E+03  0.7818608E-02  0.1230001E+00
          2   -1    0    0  501    0  0.00000000000E+00  0.00000000000E+00  0.30432970689E+02  0.30432970796E+02  0.25500000000E-02 0. -1.
         -2   -1    0    0    0  501 -0.00000000000E+00 -0.00000000000E+00 -0.51525108518E+03  0.51525108518E+03  0.25500000000E-02 0.  1.
         25    2    1    2    0    0 -0.54725690977E+02  0.38478179836E+01 -0.33601622445E+03  0.36268632462E+03  0.12499904005E+03 0.  0.
         23    2    1    2    0    0  0.54725690977E+02 -0.38478179836E+01 -0.14880189003E+03  0.18299773136E+03  0.91304218135E+02 0.  0.
        -11    1    4    4    0    0  0.30836389325E+02  0.42351113560E+02 -0.56493912965E+02  0.77045843033E+02  0.51100000000E-03 0. -1.
         11    1    4    4    0    0  0.23889301652E+02 -0.46198931544E+02 -0.92307977069E+02  0.10595188833E+03  0.51100000000E-03 0.  1.
    9000005    1    3    3    0    0  0.15910919224E+02  0.31765379514E+02 -0.22730211729E+03  0.23006401112E+03  0.10000000000E+01 0.  0.
    9000005    1    3    3    0    0 -0.70636610201E+02 -0.27917561530E+02 -0.10871410716E+03  0.13262231350E+03  0.10000000000E+01 0.  0.
<mgrwt>
<rscale>  0 0.12829951E+03</rscale>
<asrwt>0</asrwt>
<pdfrwt beam="1">  1        2 0.46819959E-02 0.13650812E+03</pdfrwt>
<pdfrwt beam="2">  1       -2 0.79269391E-01 0.13650812E+03</pdfrwt>
<totfact> 0.23916830E+03</totfact>
</mgrwt>
</event>
<event>
 8    2  0.8128359E-004  0.1546305E+03  0.7818608E-02  0.1203380E+00
         -2   -1    0    0    0  501 -0.00000000000E+00  0.00000000000E+00  0.46411006871E+02  0.46411006941E+02  0.25500000000E-02 0.  1.
          2   -1    0    0  501    0  0.00000000000E+00 -0.00000000000E+00 -0.68146552540E+03  0.68146552540E+03  0.25500000000E-02 0. -1.
         25    2    1    2    0    0  0.19868209268E+02 -0.88827953242E+02 -0.11645802790E+03  0.19357957941E+03  0.12500172114E+03 0.  0.
         23    2    1    2    0    0 -0.19868209268E+02  0.88827953242E+02 -0.51859649063E+03  0.53429695293E+03  0.90806182617E+02 0.  0.
        -11    1    4    4    0    0 -0.14029959521E+02  0.88855280675E+02 -0.25093346824E+03  0.26657026495E+03  0.51100000000E-03 0.  1.
         11    1    4    4    0    0 -0.58382497469E+01 -0.27327433064E-01 -0.26766302238E+03  0.26772668798E+03  0.51100000000E-03 0. -1.
    9000005    1    3    3    0    0  0.29584196431E+02 -0.11066227317E+03 -0.12369370049E+03  0.16858972365E+03  0.10000000000E+01 0.  0.
    9000005    1    3    3    0    0 -0.97159871625E+01  0.21834319924E+02  0.72356725926E+01  0.24989855761E+02  0.10000000000E+01 0.  0.
<mgrwt>
<rscale>  0 0.14765849E+03</rscale>
<asrwt>0</asrwt>
<pdfrwt beam="2">  1        2 0.10484084E+00 0.15463047E+03</pdfrwt>
<pdfrwt beam="1">  1       -2 0.71401554E-02 0.15463047E+03</pdfrwt>
<totfact> 0.47762150E+03</totfact>
</mgrwt>
</event>
<event>
 8    2  0.8128359E-004  0.1277183E+03  0.7818608E-02  0.1245603E+00
         -2   -1    0    0    0  501 -0.00000000000E+00  0.00000000000E+00  0.12766802256E+03  0.12766802258E+03  0.25500000000E-02 0.  1.
          2   -1    0    0  501    0  0.00000000000E+00 -0.00000000000E+00 -0.11172591085E+03  0.11172591088E+03  0.25500000000E-02 0. -1.
         25    2    1    2    0    0  0.49414280537E+01  0.25727880037E+02  0.52312671205E+02  0.13801658507E+03  0.12500248263E+03 0.  0.
         23    2    1    2    0    0 -0.49414280537E+01 -0.25727880037E+02 -0.36370559495E+02  0.10137734839E+03  0.90929685172E+02 0.  0.
        -11    1    4    4    0    0 -0.28398649819E+02 -0.35577586135E+02 -0.53847865586E+02  0.70511279773E+02  0.51100000000E-03 0. -1.
         11    1    4    4    0    0  0.23457221766E+02  0.98497060987E+01  0.17477306091E+02  0.30866068613E+02  0.51100000000E-03 0.  1.
    9000005    1    3    3    0    0  0.23181338018E+01 -0.40146381773E+02 -0.15801191817E+02  0.43217859463E+02  0.10000000000E+01 0.  0.
    9000005    1    3    3    0    0  0.26232942519E+01  0.65874261809E+02  0.68113863022E+02  0.94798725611E+02  0.10000000000E+01 0.  0.
<mgrwt>
<rscale>  0 0.11849371E+03</rscale>
<asrwt>0</asrwt>
<pdfrwt beam="2">  1        2 0.17188602E-01 0.12771829E+03</pdfrwt>
<pdfrwt beam="1">  1       -2 0.19641234E-01 0.12771829E+03</pdfrwt>
<totfact> 0.67791877E+03</totfact>
</mgrwt>
</event>
<event>
 8    2  0.8128359E-004  0.1546819E+03  0.7818608E-02  0.1204001E+00
          2   -1    0    0  501    0  0.00000000000E+00  0.00000000000E+00  0.28713224216E+04  0.28713224216E+04  0.25500000000E-02 0. -1.
         -2   -1    0    0    0  501 -0.00000000000E+00 -0.00000000000E+00 -0.15648380957E+02  0.15648381165E+02  0.25500000000E-02 0.  1.
         25    2    1    2    0    0  0.88764808443E+02 -0.20551419092E+02  0.25675585050E+04  0.25722136698E+04  0.12499973684E+03 0.  0.
         23    2    1    2    0    0 -0.88764808443E+02  0.20551419092E+02  0.28811553567E+03  0.31475713304E+03  0.88090515164E+02 0.  0.
        -11    1    4    4    0    0 -0.36446676661E+02  0.34117938935E+02  0.23015153593E+03  0.23550397765E+03  0.51100000000E-03 0. -1.
         11    1    4    4    0    0 -0.52318131782E+02 -0.13566519842E+02  0.57963999740E+02  0.79253155394E+02  0.51100000000E-03 0.  1.
    9000005    1    3    3    0    0  0.59294573353E+02 -0.36255040282E+02  0.54949522370E+03  0.55387388027E+03  0.10000000000E+01 0.  0.
    9000005    1    3    3    0    0  0.29470235090E+02  0.15703621190E+02  0.20180632813E+04  0.20183397895E+04  0.10000000000E+01 0.  0.
<mgrwt>
<rscale>  0 0.14716442E+03</rscale>
<asrwt>0</asrwt>
<pdfrwt beam="1">  1        2 0.44174151E+00 0.15468189E+03</pdfrwt>
<pdfrwt beam="2">  1       -2 0.24074454E-02 0.15468189E+03</pdfrwt>
<totfact> 0.14869121E+03</totfact>
</mgrwt>
</event>
<event>
 8    2  0.8128359E-004  0.1420274E+03  0.7818608E-02  0.1220821E+00
          2   -1    0    0  501    0  0.00000000000E+00  0.00000000000E+00  0.33191400059E+03  0.33191400060E+03  0.25500000000E-02 0. -1.
         -2   -1    0    0    0  501 -0.00000000000E+00 -0.00000000000E+00 -0.49874575221E+02  0.49874575286E+02  0.25500000000E-02 0.  1.
         25    2    1    2    0    0 -0.64510823302E+02 -0.19522040222E+02  0.17116940624E+03  0.22242019067E+03  0.12501607581E+03 0.  0.
         23    2    1    2    0    0  0.64510823302E+02  0.19522040222E+02  0.11087001913E+03  0.15936838521E+03  0.92538449767E+02 0.  0.
        -11    1    4    4    0    0  0.44319131299E+01 -0.25240870829E+02  0.68857314715E+02  0.73471580929E+02  0.51100000000E-03 0. -1.
         11    1    4    4    0    0  0.60078910172E+02  0.44762911051E+02  0.42012704415E+02  0.85896804281E+02  0.51100000000E-03 0.  1.
    9000005    1    3    3    0    0  0.34330282875E+02  0.14410874419E+02  0.51203834557E+02  0.63317251181E+02  0.10000000000E+01 0.  0.
    9000005    1    3    3    0    0 -0.98841106177E+02 -0.33932914641E+02  0.11996557168E+03  0.15910293949E+03  0.10000000000E+01 0.  0.
<mgrwt>
<rscale>  0 0.13457467E+03</rscale>
<asrwt>0</asrwt>
<pdfrwt beam="1">  1        2 0.51063691E-01 0.14202738E+03</pdfrwt>
<pdfrwt beam="2">  1       -2 0.76730117E-02 0.14202738E+03</pdfrwt>
<totfact> 0.94061243E+03</totfact>
</mgrwt>
</event>
<event>
 8    2  0.8128359E-004  0.2754096E+03  0.7818608E-02  0.1100477E+00
         -2   -1    0    0    0  501 -0.00000000000E+00  0.00000000000E+00  0.32436666843E+02  0.32436666943E+02  0.25500000000E-02 0. -1.
          2   -1    0    0  501    0  0.00000000000E+00 -0.00000000000E+00 -0.26817816924E+04  0.26817816924E+04  0.25500000000E-02 0.  1.
         25    2    1    2    0    0  0.23973534659E+03 -0.52534348423E+02 -0.78595609648E+03  0.83281296374E+03  0.12497020764E+03 0.  0.
         23    2    1    2    0    0 -0.23973534659E+03  0.52534348423E+02 -0.18633889290E+04  0.18814053956E+04  0.85059199750E+02 0.  0.
        -11    1    4    4    0    0 -0.12257681555E+02  0.24629606554E+02 -0.12619630584E+03  0.12916027208E+03  0.51100000000E-03 0.  1.
         11    1    4    4    0    0 -0.22747766504E+03  0.27904741868E+02 -0.17371926232E+04  0.17522451235E+04  0.51100000000E-03 0. -1.
    9000005    1    3    3    0    0  0.10702570670E+03 -0.85622485374E+02 -0.34900304781E+03  0.37495311610E+03  0.10000000000E+01 0.  0.
    9000005    1    3    3    0    0  0.13270963989E+03  0.33088136951E+02 -0.43695304868E+03  0.45785984763E+03  0.10000000000E+01 0.  0.
<mgrwt>
<rscale>  0 0.27140729E+03</rscale>
<asrwt>0</asrwt>
<pdfrwt beam="2">  1        2 0.41258163E+00 0.27540960E+03</pdfrwt>
<pdfrwt beam="1">  1       -2 0.49902585E-02 0.27540960E+03</pdfrwt>
<totfact> 0.62389620E+02</totfact>
</mgrwt>
</event>
<event>
 8    2  0.8128359E-004  0.1384188E+03  0.7818608E-02  0.1226741E+00
         -2   -1    0    0    0  501 -0.00000000000E+00  0.00000000000E+00  0.85420073400E+02  0.85420073438E+02  0.25500000000E-02 0.  1.
          2   -1    0    0  501    0  0.00000000000E+00 -0.00000000000E+00 -0.22443556040E+03  0.22443556042E+03  0.25500000000E-02 0. -1.
         25    2    1    2    0    0  0.42935093933E+02  0.41075785540E+02 -0.14490777375E+03  0.20039470409E+03  0.12501652725E+03 0.  0.
         23    2    1    2    0    0 -0.42935093933E+02 -0.41075785540E+02  0.58922867467E+01  0.10946092977E+03  0.91740578011E+02 0.  0.
        -11    1    4    4    0    0 -0.30502027991E+02  0.22208334756E+02  0.21056417920E+02  0.43208292954E+02  0.51100000000E-03 0.  1.
         11    1    4    4    0    0 -0.12433065943E+02 -0.63284120295E+02 -0.15164131173E+02  0.66252636814E+02  0.51100000000E-03 0. -1.
    9000005    1    3    3    0    0  0.32284545019E+02  0.42167590091E+02 -0.16731332890E+03  0.17554243797E+03  0.10000000000E+01 0.  0.
    9000005    1    3    3    0    0  0.10650548914E+02 -0.10918045512E+01  0.22405555152E+02  0.24852266115E+02  0.10000000000E+01 0.  0.
<mgrwt>
<rscale>  0 0.13048291E+03</rscale>
<asrwt>0</asrwt>
<pdfrwt beam="2">  1        2 0.34528548E-01 0.13841884E+03</pdfrwt>
<pdfrwt beam="1">  1       -2 0.13141550E-01 0.13841884E+03</pdfrwt>
<totfact> 0.61041862E+03</totfact>
</mgrwt>
</event>
<event>
 8    2  0.8128359E-004  0.1422899E+03  0.7818608E-02  0.1220936E+00
          2   -1    0    0  501    0  0.00000000000E+00  0.00000000000E+00  0.18943509519E+03  0.18943509521E+03  0.25500000000E-02 0. -1.
         -2   -1    0    0    0  501 -0.00000000000E+00 -0.00000000000E+00 -0.88521093699E+02  0.88521093736E+02  0.25500000000E-02 0.  1.
         25    2    1    2    0    0 -0.44355098733E+02 -0.51532862725E+02  0.34595503534E+02  0.14643516942E+03  0.12499359685E+03 0.  0.
         23    2    1    2    0    0  0.44355098733E+02  0.51532862725E+02  0.66318497960E+02  0.13152101952E+03  0.90975956609E+02 0.  0.
        -11    1    4    4    0    0  0.50762958837E+02  0.36503474125E+02 -0.71092263879E+00  0.62529089425E+02  0.51100000000E-03 0.  1.
         11    1    4    4    0    0 -0.64078601039E+01  0.15029388599E+02  0.67029420598E+02  0.68991930099E+02  0.51100000000E-03 0. -1.
    9000005    1    3    3    0    0 -0.20754571403E+02  0.37544038400E+02  0.33224126344E+02  0.54269232765E+02  0.10000000000E+01 0.  0.
    9000005    1    3    3    0    0 -0.23600527330E+02 -0.89076901125E+02  0.13713771891E+01  0.92165936656E+02  0.10000000000E+01 0.  0.
<mgrwt>
<rscale>  0 0.13449393E+03</rscale>
<asrwt>0</asrwt>
<pdfrwt beam="1">  1        2 0.29143860E-01 0.14228988E+03</pdfrwt>
<pdfrwt beam="2">  1       -2 0.13618630E-01 0.14228988E+03</pdfrwt>
<totfact> 0.69323483E+03</totfact>
</mgrwt>
</event>
<event>
 8    2  0.8128359E-004  0.2087214E+03  0.7818608E-02  0.1146323E+00
          2   -1    0    0  501    0  0.00000000000E+00  0.00000000000E+00  0.52845427602E+03  0.52845427602E+03  0.25500000000E-02 0. -1.
         -2   -1    0    0    0  501 -0.00000000000E+00 -0.00000000000E+00 -0.76151886441E+02  0.76151886483E+02  0.25500000000E-02 0.  1.
         25    2    1    2    0    0 -0.15154901314E+03  0.70517048335E+02  0.20890853639E+03  0.29530897277E+03  0.12499942133E+03 0.  0.
         23    2    1    2    0    0  0.15154901314E+03 -0.70517048335E+02  0.24339385319E+03  0.30929718973E+03  0.92110945702E+02 0.  0.
        -11    1    4    4    0    0  0.11561494265E+03 -0.92468773798E+02  0.17801127526E+03  0.23152819096E+03  0.51100000000E-03 0. -1.
         11    1    4    4    0    0  0.35934070492E+02  0.21951725463E+02  0.65382577929E+02  0.77768998771E+02  0.51100000000E-03 0.  1.
    9000005    1    3    3    0    0 -0.68827851791E+02  0.47364165750E+01  0.95360052875E+01  0.69653730848E+02  0.10000000000E+01 0.  0.
    9000005    1    3    3    0    0 -0.82721161351E+02  0.65780631760E+02  0.19937253110E+03  0.22565524193E+03  0.10000000000E+01 0.  0.
<mgrwt>
<rscale>  0 0.20410278E+03</rscale>
<asrwt>0</asrwt>
<pdfrwt beam="1">  1        2 0.81300659E-01 0.20872138E+03</pdfrwt>
<pdfrwt beam="2">  1       -2 0.11715675E-01 0.20872138E+03</pdfrwt>
<totfact> 0.29723536E+03</totfact>
</mgrwt>
</event>
<event>
 8    2  0.8128359E-004  0.1584297E+03  0.7818608E-02  0.1199162E+00
          2   -1    0    0  501    0  0.00000000000E+00  0.00000000000E+00  0.11989661321E+04  0.11989661321E+04  0.25500000000E-02 0. -1.
         -2   -1    0    0    0  501 -0.00000000000E+00 -0.00000000000E+00 -0.19318677254E+02  0.19318677422E+02  0.25500000000E-02 0.  1.
         25    2    1    2    0    0  0.81034436496E+02 -0.53929858359E+02  0.45248896561E+03  0.47942281076E+03  0.12499983180E+03 0.  0.
         23    2    1    2    0    0 -0.81034436496E+02  0.53929858359E+02  0.72715848920E+03  0.73886199874E+03  0.87650300866E+02 0.  0.
        -11    1    4    4    0    0 -0.23436991249E+02  0.16237505602E+02  0.51558191716E+03  0.51636969552E+03  0.51100000000E-03 0. -1.
         11    1    4    4    0    0 -0.57597445247E+02  0.37692352757E+02  0.21157657204E+03  0.22249230322E+03  0.51100000000E-03 0.  1.
    9000005    1    3    3    0    0 -0.50833003748E+01  0.34533772660E+02  0.10466063283E+03  0.11033254036E+03  0.10000000000E+01 0.  0.
    9000005    1    3    3    0    0  0.86117736871E+02 -0.88463631019E+02  0.34782833278E+03  0.36909027040E+03  0.10000000000E+01 0.  0.
<mgrwt>
<rscale>  0 0.15107217E+03</rscale>
<asrwt>0</asrwt>
<pdfrwt beam="1">  1        2 0.18445639E+00 0.15842969E+03</pdfrwt>
<pdfrwt beam="2">  1       -2 0.29721033E-02 0.15842969E+03</pdfrwt>
<totfact> 0.84083974E+03</totfact>
</mgrwt>
</event>
<event>
 8    2  0.8128359E-004  0.1309031E+03  0.7818608E-02  0.1240234E+00
         -2   -1    0    0    0  501 -0.00000000000E+00  0.00000000000E+00  0.14010882155E+02  0.14010882387E+02  0.25500000000E-02 0.  1.
          2   -1    0    0  501    0  0.00000000000E+00 -0.00000000000E+00 -0.18538348170E+04  0.18538348170E+04  0.25500000000E-02 0. -1.
         25    2    1    2    0    0 -0.21932444706E+02  0.32080927680E+02 -0.33247422754E+03  0.35731602155E+03  0.12500163690E+03 0.  0.
         23    2    1    2    0    0  0.21932444706E+02 -0.32080927680E+02 -0.15073497073E+04  0.15105296779E+04  0.89925243756E+02 0.  0.
        -11    1    4    4    0    0  0.21452276560E+02  0.22532794013E+02 -0.95026143254E+03  0.95077059123E+03  0.51100000000E-03 0. -1.
         11    1    4    4    0    0  0.48016814606E+00 -0.54613721693E+02 -0.55708827481E+03  0.55975908665E+03  0.51100000000E-03 0.  1.
    9000005    1    3    3    0    0 -0.57657773849E+02  0.68057206393E+00 -0.70623742933E+02  0.91178918229E+02  0.10000000000E+01 0.  0.
    9000005    1    3    3    0    0  0.35725329143E+02  0.31400355617E+02 -0.26185048460E+03  0.26613710332E+03  0.10000000000E+01 0.  0.
<mgrwt>
<rscale>  0 0.12175257E+03</rscale>
<asrwt>0</asrwt>
<pdfrwt beam="2">  1        2 0.28520516E+00 0.13090312E+03</pdfrwt>
<pdfrwt beam="1">  1       -2 0.21555218E-02 0.13090312E+03</pdfrwt>
<totfact> 0.60615126E+03</totfact>
</mgrwt>
</event>
<event>
 8    2  0.8128359E-004  0.1435870E+03  0.7818608E-02  0.1220027E+00
         -2   -1    0    0    0  501 -0.00000000000E+00  0.00000000000E+00  0.16269285694E+02  0.16269285894E+02  0.25500000000E-02 0.  1.
          2   -1    0    0  501    0  0.00000000000E+00 -0.00000000000E+00 -0.15643632148E+04  0.15643632148E+04  0.25500000000E-02 0. -1.
         25    2    1    2    0    0  0.11933943281E+02 -0.69638550650E+02 -0.36561636413E+03  0.39280089931E+03  0.12500109615E+03 0.  0.
         23    2    1    2    0    0 -0.11933943281E+02  0.69638550650E+02 -0.11824775650E+04  0.11878316014E+04  0.87742662628E+02 0.  0.
        -11    1    4    4    0    0 -0.70536349093E+01  0.90062743564E+02 -0.10222259295E+04  0.10262099700E+04  0.51100000000E-03 0.  1.
         11    1    4    4    0    0 -0.48803083713E+01 -0.20424192914E+02 -0.16025163549E+03  0.16162163142E+03  0.51100000000E-03 0. -1.
    9000005    1    3    3    0    0 -0.34336819032E+02  0.81837233383E+01 -0.33906856611E+02  0.48955749347E+02  0.10000000000E+01 0.  0.
    9000005    1    3    3    0    0  0.46270762313E+02 -0.77822273989E+02 -0.33170950752E+03  0.34384514996E+03  0.10000000000E+01 0.  0.
<mgrwt>
<rscale>  0 0.13513632E+03</rscale>
<asrwt>0</asrwt>
<pdfrwt beam="2">  1        2 0.24067115E+00 0.14358698E+03</pdfrwt>
<pdfrwt beam="1">  1       -2 0.25029683E-02 0.14358698E+03</pdfrwt>
<totfact> 0.68780786E+03</totfact>
</mgrwt>
</event>
<event>
 8    2  0.8128359E-004  0.1545672E+03  0.7818608E-02  0.1203666E+00
         -2   -1    0    0    0  501 -0.00000000000E+00  0.00000000000E+00  0.29262221335E+02  0.29262221446E+02  0.25500000000E-02 0.  1.
          2   -1    0    0  501    0  0.00000000000E+00 -0.00000000000E+00 -0.72314467099E+03  0.72314467099E+03  0.25500000000E-02 0. -1.
         25    2    1    2    0    0  0.89618529542E+02 -0.15304926488E+02 -0.46730821769E+03  0.49220727041E+03  0.12500122043E+03 0.  0.
         23    2    1    2    0    0 -0.89618529542E+02  0.15304926488E+02 -0.22657423196E+03  0.26019962203E+03  0.90012438607E+02 0.  0.
        -11    1    4    4    0    0 -0.60899384316E+02  0.43331678146E+02 -0.19594969514E+03  0.20972041476E+03  0.51100000000E-03 0. -1.
         11    1    4    4    0    0 -0.28719145226E+02 -0.28026751658E+02 -0.30624536823E+02  0.50479207273E+02  0.51100000000E-03 0.  1.
    9000005    1    3    3    0    0  0.10212187277E+03  0.28961887068E+02 -0.36298407872E+03  0.37818792842E+03  0.10000000000E+01 0.  0.
    9000005    1    3    3    0    0 -0.12503343229E+02 -0.44266813557E+02 -0.10432413897E+03  0.11401934198E+03  0.10000000000E+01 0.  0.
<mgrwt>
<rscale>  0 0.14743051E+03</rscale>
<asrwt>0</asrwt>
<pdfrwt beam="2">  1        2 0.11125301E+00 0.15456722E+03</pdfrwt>
<pdfrwt beam="1">  1       -2 0.45018808E-02 0.15456722E+03</pdfrwt>
<totfact> 0.89563832E+03</totfact>
</mgrwt>
</event>
<event>
 8    2  0.8128359E-004  0.1317818E+03  0.7818608E-02  0.1238171E+00
         -2   -1    0    0    0  501 -0.00000000000E+00  0.00000000000E+00  0.10962694596E+02  0.10962694893E+02  0.25500000000E-02 0. -1.
          2   -1    0    0  501    0  0.00000000000E+00 -0.00000000000E+00 -0.14295108637E+04  0.14295108637E+04  0.25500000000E-02 0.  1.
         25    2    1    2    0    0 -0.26323642881E+02  0.32384821686E+02 -0.10615705045E+04  0.10697188348E+04  0.12499895440E+03 0.  0.
         23    2    1    2    0    0  0.26323642881E+02 -0.32384821686E+02 -0.35697766461E+03  0.37075472383E+03  0.91018137520E+02 0.  0.
        -11    1    4    4    0    0  0.15771261515E+02  0.31513894818E+02 -0.11704985944E+03  0.12223963290E+03  0.51100000000E-03 0. -1.
         11    1    4    4    0    0  0.10552381366E+02 -0.63898716504E+02 -0.23992780517E+03  0.24851509092E+03  0.51100000000E-03 0.  1.
    9000005    1    3    3    0    0  0.29489347818E+02 -0.29450496674E+02 -0.53257777742E+03  0.53420692844E+03  0.10000000000E+01 0.  0.
    9000005    1    3    3    0    0 -0.55812990699E+02  0.61835318360E+02 -0.52899272709E+03  0.53551190635E+03  0.10000000000E+01 0.  0.
<mgrwt>
<rscale>  0 0.12303613E+03</rscale>
<asrwt>0</asrwt>
<pdfrwt beam="2">  1        2 0.21992460E+00 0.13178183E+03</pdfrwt>
<pdfrwt beam="1">  1       -2 0.16865696E-02 0.13178183E+03</pdfrwt>
<totfact> 0.14303097E+04</totfact>
</mgrwt>
</event>
<event>
 8    2  0.8128359E-004  0.1531433E+03  0.7818608E-02  0.1200253E+00
          2   -1    0    0  501    0  0.00000000000E+00  0.00000000000E+00  0.19305605808E+04  0.19305605808E+04  0.25500000000E-02 0.  1.
         -2   -1    0    0    0  501 -0.00000000000E+00 -0.00000000000E+00 -0.12285329793E+02  0.12285330058E+02  0.25500000000E-02 0. -1.
         25    2    1    2    0    0  0.67501090302E+02 -0.57190089073E+02  0.12750229876E+04  0.12841870921E+04  0.12500305976E+03 0.  0.
         23    2    1    2    0    0 -0.67501090302E+02  0.57190089073E+02  0.64325226342E+03  0.65865881884E+03  0.11059322657E+03 0.  0.
        -11    1    4    4    0    0 -0.74543994763E+02 -0.43297555148E+00  0.24177423339E+03  0.25300548325E+03  0.51100000000E-03 0.  1.
         11    1    4    4    0    0  0.70429044612E+01  0.57623064624E+02  0.40147803002E+03  0.40565333559E+03  0.51100000000E-03 0. -1.
    9000005    1    3    3    0    0  0.65069126161E+02 -0.86879995785E+02  0.69756488736E+03  0.70596026583E+03  0.10000000000E+01 0.  0.
    9000005    1    3    3    0    0  0.24319641411E+01  0.29689906713E+02  0.57745810027E+03  0.57822682623E+03  0.10000000000E+01 0.  0.
<mgrwt>
<rscale>  0 0.15017905E+03</rscale>
<asrwt>0</asrwt>
<pdfrwt beam="1">  1        2 0.29700949E+00 0.15314329E+03</pdfrwt>
<pdfrwt beam="2">  1       -2 0.18900497E-02 0.15314329E+03</pdfrwt>
<totfact> 0.67261877E+03</totfact>
</mgrwt>
</event>
<event>
 8    2  0.8128359E-004  0.1392335E+03  0.7818608E-02  0.1226169E+00
          2   -1    0    0  501    0  0.00000000000E+00  0.00000000000E+00  0.11342558142E+03  0.11342558145E+03  0.25500000000E-02 0. -1.
         -2   -1    0    0    0  501 -0.00000000000E+00 -0.00000000000E+00 -0.17663048207E+03  0.17663048209E+03  0.25500000000E-02 0.  1.
         25    2    1    2    0    0  0.26679204453E+02  0.55208818878E+02  0.35016081121E+02  0.14356908032E+03  0.12500464493E+03 0.  0.
         23    2    1    2    0    0 -0.26679204453E+02 -0.55208818878E+02 -0.98220981775E+02  0.14648698322E+03  0.89728932679E+02 0.  0.
        -11    1    4    4    0    0  0.19051303623E+02 -0.18250089583E+02 -0.81045775691E+02  0.85231659007E+02  0.51100000000E-03 0.  1.
         11    1    4    4    0    0 -0.45730508076E+02 -0.36958729296E+02 -0.17175206084E+02  0.61255324212E+02  0.51100000000E-03 0. -1.
    9000005    1    3    3    0    0  0.75267425018E+02  0.49917624199E+02  0.21384022487E+02  0.92818268095E+02  0.10000000000E+01 0.  0.
    9000005    1    3    3    0    0 -0.48588220565E+02  0.52911946792E+01  0.13632058634E+02  0.50750812224E+02  0.10000000000E+01 0.  0.
<mgrwt>
<rscale>  0 0.13087114E+03</rscale>
<asrwt>0</asrwt>
<pdfrwt beam="1">  1        2 0.17450089E-01 0.13923345E+03</pdfrwt>
<pdfrwt beam="2">  1       -2 0.27173920E-01 0.13923345E+03</pdfrwt>
<totfact> 0.38260463E+03</totfact>
</mgrwt>
</event>
<event>
 8    2  0.8128359E-004  0.1763318E+03  0.7818608E-02  0.1177247E+00
          2   -1    0    0  501    0  0.00000000000E+00  0.00000000000E+00  0.80986855770E+03  0.80986855770E+03  0.25500000000E-02 0. -1.
         -2   -1    0    0    0  501 -0.00000000000E+00 -0.00000000000E+00 -0.34834073470E+02  0.34834073564E+02  0.25500000000E-02 0.  1.
         25    2    1    2    0    0  0.20911540549E+02 -0.12261419885E+03  0.33871946642E+03  0.38186880673E+03  0.12498549651E+03 0.  0.
         23    2    1    2    0    0 -0.20911540549E+02  0.12261419885E+03  0.43631501781E+03  0.46283382453E+03  0.91503115117E+02 0.  0.
        -11    1    4    4    0    0 -0.41151808307E+02  0.12352384879E+03  0.33294259747E+03  0.35749459542E+03  0.51100000000E-03 0. -1.
         11    1    4    4    0    0  0.20240267758E+02 -0.90964993817E+00  0.10337242034E+03  0.10533922911E+03  0.51100000000E-03 0.  1.
    9000005    1    3    3    0    0  0.39960993233E+02 -0.97585886403E+02  0.11533539776E+03  0.15627904588E+03  0.10000000000E+01 0.  0.
    9000005    1    3    3    0    0 -0.19049452684E+02 -0.25028312447E+02  0.22338406866E+03  0.22558976085E+03  0.10000000000E+01 0.  0.
<mgrwt>
<rscale>  0 0.17057729E+03</rscale>
<asrwt>0</asrwt>
<pdfrwt beam="1">  1        2 0.12459516E+00 0.17633181E+03</pdfrwt>
<pdfrwt beam="2">  1       -2 0.53590883E-02 0.17633181E+03</pdfrwt>
<totfact> 0.60275707E+03</totfact>
</mgrwt>
</event>
<event>
 8    2  0.8128359E-004  0.1891100E+03  0.7818608E-02  0.1163799E+00
          2   -1    0    0  501    0  0.00000000000E+00  0.00000000000E+00  0.45822413733E+03  0.45822413734E+03  0.25500000000E-02 0.  1.
         -2   -1    0    0    0  501 -0.00000000000E+00 -0.00000000000E+00 -0.94828338181E+02  0.94828338215E+02  0.25500000000E-02 0. -1.
         25    2    1    2    0    0 -0.12207611620E+03 -0.72353607012E+02  0.48718109173E+02  0.19528452039E+03  0.12499986859E+03 0.  0.
         23    2    1    2    0    0  0.12207611620E+03  0.72353607012E+02  0.31467768998E+03  0.35776795517E+03  0.94011906600E+02 0.  0.
        -11    1    4    4    0    0  0.48825316266E+02  0.48405407098E+02  0.58577008230E+02  0.90323091390E+02  0.51100000000E-03 0. -1.
         11    1    4    4    0    0  0.73250799931E+02  0.23948199914E+02  0.25610068175E+03  0.26744486378E+03  0.51100000000E-03 0.  1.
    9000005    1    3    3    0    0 -0.94842900678E+02  0.75338043794E+01 -0.49234460542E+01  0.95274206050E+02  0.10000000000E+01 0.  0.
    9000005    1    3    3    0    0 -0.27233215520E+02 -0.79887411391E+02  0.53641555227E+02  0.10001031434E+03  0.10000000000E+01 0.  0.
<mgrwt>
<rscale>  0 0.18420033E+03</rscale>
<asrwt>0</asrwt>
<pdfrwt beam="1">  1        2 0.70496022E-01 0.18910999E+03</pdfrwt>
<pdfrwt beam="2">  1       -2 0.14588975E-01 0.18910999E+03</pdfrwt>
<totfact> 0.24314401E+03</totfact>
</mgrwt>
</event>
<event>
 8    2  0.8128359E-004  0.1748966E+03  0.7818608E-02  0.1178921E+00
         -2   -1    0    0    0  501 -0.00000000000E+00  0.00000000000E+00  0.28960934047E+02  0.28960934159E+02  0.25500000000E-02 0.  1.
          2   -1    0    0  501    0  0.00000000000E+00 -0.00000000000E+00 -0.10344710259E+04  0.10344710259E+04  0.25500000000E-02 0. -1.
         25    2    1    2    0    0  0.71740807883E+02  0.99081935477E+02 -0.70654605755E+03  0.72787096332E+03  0.12499933737E+03 0.  0.
         23    2    1    2    0    0 -0.71740807883E+02 -0.99081935477E+02 -0.29896403432E+03  0.33556099677E+03  0.90871971911E+02 0.  0.
        -11    1    4    4    0    0 -0.60606412452E+02 -0.11354159227E+03 -0.28455635257E+03  0.31230937898E+03  0.51100000000E-03 0. -1.
         11    1    4    4    0    0 -0.11134395431E+02  0.14459656795E+02 -0.14407681748E+02  0.23251617790E+02  0.51100000000E-03 0.  1.
    9000005    1    3    3    0    0  0.63316750095E+02  0.24291930787E+02 -0.13189974170E+03  0.14831604972E+03  0.10000000000E+01 0.  0.
    9000005    1    3    3    0    0  0.84240577876E+01  0.74790004690E+02 -0.57464631586E+03  0.57955491360E+03  0.10000000000E+01 0.  0.
<mgrwt>
<rscale>  0 0.16897509E+03</rscale>
<asrwt>0</asrwt>
<pdfrwt beam="2">  1        2 0.15914936E+00 0.17489656E+03</pdfrwt>
<pdfrwt beam="1">  1       -2 0.44555291E-02 0.17489656E+03</pdfrwt>
<totfact> 0.57440555E+03</totfact>
</mgrwt>
</event>
<event>
 8    2  0.8128359E-004  0.1254729E+03  0.7818608E-02  0.1249953E+00
         -2   -1    0    0    0  501 -0.00000000000E+00  0.00000000000E+00  0.33241804922E+02  0.33241805019E+02  0.25500000000E-02 0.  1.
          2   -1    0    0  501    0  0.00000000000E+00 -0.00000000000E+00 -0.38327257560E+03  0.38327257561E+03  0.25500000000E-02 0. -1.
         25    2    1    2    0    0  0.10768028706E+02 -0.16043774709E+01 -0.25731407263E+03  0.28627605198E+03  0.12499968599E+03 0.  0.
         23    2    1    2    0    0 -0.10768028706E+02  0.16043774709E+01 -0.92716698049E+02  0.13023832864E+03  0.90813609559E+02 0.  0.
        -11    1    4    4    0    0 -0.44021012784E+02  0.20261630842E+02 -0.72155620061E+02  0.86918448890E+02  0.51100000000E-03 0. -1.
         11    1    4    4    0    0  0.33252984078E+02 -0.18657253371E+02 -0.20561077988E+02  0.43319879752E+02  0.51100000000E-03 0.  1.
    9000005    1    3    3    0    0 -0.15357451924E+01 -0.37150989780E+02 -0.24329253541E+03  0.24611950825E+03  0.10000000000E+01 0.  0.
    9000005    1    3    3    0    0  0.12303773898E+02  0.35546612309E+02 -0.14021537220E+02  0.40156543736E+02  0.10000000000E+01 0.  0.
<mgrwt>
<rscale>  0 0.11593773E+03</rscale>
<asrwt>0</asrwt>
<pdfrwt beam="2">  1        2 0.58965009E-01 0.12547289E+03</pdfrwt>
<pdfrwt beam="1">  1       -2 0.51141241E-02 0.12547289E+03</pdfrwt>
<totfact> 0.14813191E+04</totfact>
</mgrwt>
</event>
<event>
 8    2  0.8128359E-004  0.1717445E+03  0.7818608E-02  0.1183736E+00
         -2   -1    0    0    0  501 -0.00000000000E+00  0.00000000000E+00  0.14561593573E+02  0.14561593796E+02  0.25500000000E-02 0.  1.
          2   -1    0    0  501    0  0.00000000000E+00 -0.00000000000E+00 -0.17342650213E+04  0.17342650213E+04  0.25500000000E-02 0. -1.
         25    2    1    2    0    0 -0.20228724303E+02 -0.11602953410E+03 -0.10212880751E+04  0.10356280693E+04  0.12499644548E+03 0.  0.
         23    2    1    2    0    0  0.20228724303E+02  0.11602953410E+03 -0.69841535262E+03  0.71319854586E+03  0.83642734069E+02 0.  0.
        -11    1    4    4    0    0  0.30693871087E+02  0.39555555007E+01 -0.11954342399E+03  0.12348437294E+03  0.51100000000E-03 0.  1.
         11    1    4    4    0    0 -0.10465146783E+02  0.11207397859E+03 -0.57887192863E+03  0.58971417291E+03  0.51100000000E-03 0. -1.
    9000005    1    3    3    0    0  0.32200943505E+02 -0.28631538045E+02 -0.62357113657E+03  0.62505889971E+03  0.10000000000E+01 0.  0.
    9000005    1    3    3    0    0 -0.52429667808E+02 -0.87397996050E+02 -0.39771693857E+03  0.41056916957E+03  0.10000000000E+01 0.  0.
<mgrwt>
<rscale>  0 0.16447413E+03</rscale>
<asrwt>0</asrwt>
<pdfrwt beam="2">  1        2 0.26680984E+00 0.17174448E+03</pdfrwt>
<pdfrwt beam="1">  1       -2 0.22402466E-02 0.17174448E+03</pdfrwt>
<totfact> 0.66395491E+03</totfact>
</mgrwt>
</event>
<event>
 8    2  0.8128359E-004  0.1394250E+03  0.7818608E-02  0.1224786E+00
          2   -1    0    0  501    0  0.00000000000E+00  0.00000000000E+00  0.23689382973E+03  0.23689382974E+03  0.25500000000E-02 0. -1.
         -2   -1    0    0    0  501 -0.00000000000E+00 -0.00000000000E+00 -0.10956306810E+03  0.10956306813E+03  0.25500000000E-02 0.  1.
         25    2    1    2    0    0 -0.61705218435E+02  0.21219505687E+01  0.17630787044E+03  0.22477498036E+03  0.12500915949E+03 0.  0.
         23    2    1    2    0    0  0.61705218435E+02 -0.21219505687E+01 -0.48977108817E+02  0.12168191752E+03  0.92712972157E+02 0.  0.
        -11    1    4    4    0    0  0.26110404935E+01 -0.11261212180E+02  0.24415237571E+02  0.27013630969E+02  0.51100000000E-03 0. -1.
         11    1    4    4    0    0  0.59094177942E+02  0.91392616113E+01 -0.73392346388E+02  0.94668286549E+02  0.51100000000E-03 0.  1.
    9000005    1    3    3    0    0 -0.32919577422E+02 -0.23458704800E+02 -0.37813835922E+01  0.40611676528E+02  0.10000000000E+01 0.  0.
    9000005    1    3    3    0    0 -0.28785641013E+02  0.25580655369E+02  0.18008925404E+03  0.18416330383E+03  0.10000000000E+01 0.  0.
<mgrwt>
<rscale>  0 0.13181566E+03</rscale>
<asrwt>0</asrwt>
<pdfrwt beam="1">  1        2 0.36445205E-01 0.13942499E+03</pdfrwt>
<pdfrwt beam="2">  1       -2 0.16855857E-01 0.13942499E+03</pdfrwt>
<totfact> 0.38376539E+03</totfact>
</mgrwt>
</event>
<event>
 8    2  0.8128359E-004  0.1691968E+03  0.7818608E-02  0.1185416E+00
         -2   -1    0    0    0  501 -0.00000000000E+00  0.00000000000E+00  0.53057758153E+02  0.53057758214E+02  0.25500000000E-02 0.  1.
          2   -1    0    0  501    0  0.00000000000E+00 -0.00000000000E+00 -0.47715918625E+03  0.47715918625E+03  0.25500000000E-02 0. -1.
         25    2    1    2    0    0 -0.11402295459E+03  0.13580027087E+01 -0.18853144094E+03  0.25332127131E+03  0.12499793570E+03 0.  0.
         23    2    1    2    0    0  0.11402295459E+03 -0.13580027087E+01 -0.23556998716E+03  0.27689567316E+03  0.90415245514E+02 0.  0.
        -11    1    4    4    0    0  0.10120368385E+03  0.33402383858E+02 -0.15370834755E+03  0.18704053298E+03  0.51100000000E-03 0.  1.
         11    1    4    4    0    0  0.12819270739E+02 -0.34760386567E+02 -0.81861639609E+02  0.89855140177E+02  0.51100000000E-03 0. -1.
    9000005    1    3    3    0    0 -0.93017894649E+02  0.57362238574E+02 -0.11792218321E+03  0.16077747489E+03  0.10000000000E+01 0.  0.
    9000005    1    3    3    0    0 -0.21005059944E+02 -0.56004235865E+02 -0.70609257730E+02  0.92543796417E+02  0.10000000000E+01 0.  0.
<mgrwt>
<rscale>  0 0.16294076E+03</rscale>
<asrwt>0</asrwt>
<pdfrwt beam="2">  1        2 0.73409103E-01 0.16919682E+03</pdfrwt>
<pdfrwt beam="1">  1       -2 0.81627323E-02 0.16919682E+03</pdfrwt>
<totfact> 0.58455357E+03</totfact>
</mgrwt>
</event>
<event>
 8    2  0.8128359E-004  0.1286865E+03  0.7818608E-02  0.1243473E+00
         -2   -1    0    0    0  501 -0.00000000000E+00  0.00000000000E+00  0.12153168664E+02  0.12153168932E+02  0.25500000000E-02 0.  1.
          2   -1    0    0  501    0  0.00000000000E+00 -0.00000000000E+00 -0.12477814655E+04  0.12477814655E+04  0.25500000000E-02 0. -1.
         25    2    1    2    0    0 -0.23328279671E+02 -0.19781063626E+02 -0.43893377956E+03  0.45740908794E+03  0.12499884711E+03 0.  0.
         23    2    1    2    0    0  0.23328279671E+02  0.19781063626E+02 -0.79669451731E+03  0.80252554653E+03  0.91594758652E+02 0.  0.
        -11    1    4    4    0    0 -0.12461080957E+02 -0.16437074876E+02 -0.49870819067E+02  0.53968088384E+02  0.51100000000E-03 0.  1.
         11    1    4    4    0    0  0.35789360628E+02  0.36218138502E+02 -0.74682369825E+03  0.74855745815E+03  0.51100000000E-03 0. -1.
    9000005    1    3    3    0    0  0.44049074686E+02 -0.26307150503E+02 -0.27989736166E+03  0.28456268240E+03  0.10000000000E+01 0.  0.
    9000005    1    3    3    0    0 -0.67377354357E+02  0.65260868763E+01 -0.15903641790E+03  0.17284640554E+03  0.10000000000E+01 0.  0.
<mgrwt>
<rscale>  0 0.11977230E+03</rscale>
<asrwt>0</asrwt>
<pdfrwt beam="2">  1        2 0.19196628E+00 0.12868648E+03</pdfrwt>
<pdfrwt beam="1">  1       -2 0.18697193E-02 0.12868648E+03</pdfrwt>
<totfact> 0.15386977E+04</totfact>
</mgrwt>
</event>
<event>
 8    2  0.8128359E-004  0.1358379E+03  0.7818608E-02  0.1230908E+00
          2   -1    0    0  501    0  0.00000000000E+00  0.00000000000E+00  0.10098312654E+04  0.10098312654E+04  0.25500000000E-02 0. -1.
         -2   -1    0    0    0  501 -0.00000000000E+00 -0.00000000000E+00 -0.14567070865E+02  0.14567071088E+02  0.25500000000E-02 0.  1.
         25    2    1    2    0    0 -0.52052181178E+02  0.10828983437E+02  0.59526833042E+03  0.61057049658E+03  0.12500099858E+03 0.  0.
         23    2    1    2    0    0  0.52052181178E+02 -0.10828983437E+02  0.39999586412E+03  0.41382783991E+03  0.91815539694E+02 0.  0.
        -11    1    4    4    0    0  0.36295691677E+01  0.28829035693E+02  0.24430559222E+03  0.24602745673E+03  0.51100000000E-03 0.  1.
         11    1    4    4    0    0  0.48422612010E+02 -0.39658019130E+02  0.15569027189E+03  0.16780038319E+03  0.51100000000E-03 0. -1.
    9000005    1    3    3    0    0  0.45744318009E+01 -0.39267555222E+02  0.38674427343E+03  0.38876085110E+03  0.10000000000E+01 0.  0.
    9000005    1    3    3    0    0 -0.56626612979E+02  0.50096538659E+02  0.20852405699E+03  0.22180964548E+03  0.10000000000E+01 0.  0.
<mgrwt>
<rscale>  0 0.12770051E+03</rscale>
<asrwt>0</asrwt>
<pdfrwt beam="1">  1        2 0.15535862E+00 0.13583794E+03</pdfrwt>
<pdfrwt beam="2">  1       -2 0.22410884E-02 0.13583794E+03</pdfrwt>
<totfact> 0.16193703E+04</totfact>
</mgrwt>
</event>
<event>
 8    2  0.8128359E-004  0.2095823E+03  0.7818608E-02  0.1145669E+00
         -2   -1    0    0    0  501 -0.00000000000E+00  0.00000000000E+00  0.27142099143E+03  0.27142099144E+03  0.25500000000E-02 0. -1.
          2   -1    0    0  501    0  0.00000000000E+00 -0.00000000000E+00 -0.17347352361E+03  0.17347352363E+03  0.25500000000E-02 0.  1.
         25    2    1    2    0    0 -0.80227225126E+02 -0.14786311557E+03 -0.34050447778E+02  0.21233038064E+03  0.12499939580E+03 0.  0.
         23    2    1    2    0    0  0.80227225126E+02  0.14786311557E+03  0.13199791559E+03  0.23256413443E+03  0.91447899402E+02 0.  0.
        -11    1    4    4    0    0  0.15443480447E+02  0.11019705609E+03  0.51594946901E+02  0.12265370278E+03  0.51100000000E-03 0.  1.
         11    1    4    4    0    0  0.64783744679E+02  0.37666059482E+02  0.80402968693E+02  0.10991043165E+03  0.51100000000E-03 0. -1.
    9000005    1    3    3    0    0 -0.85700200703E+01 -0.13185610434E+03 -0.18519823350E+01  0.13215107769E+03  0.10000000000E+01 0.  0.
    9000005    1    3    3    0    0 -0.71657205056E+02 -0.16007011235E+02 -0.32198465443E+02  0.80179302952E+02  0.10000000000E+01 0.  0.
<mgrwt>
<rscale>  0 0.20490095E+03</rscale>
<asrwt>0</asrwt>
<pdfrwt beam="2">  1        2 0.26688235E-01 0.20958234E+03</pdfrwt>
<pdfrwt beam="1">  1       -2 0.41757075E-01 0.20958234E+03</pdfrwt>
<totfact> 0.10900958E+03</totfact>
</mgrwt>
</event>
<event>
 8    2  0.8128359E-004  0.1463425E+03  0.7818608E-02  0.1214913E+00
         -2   -1    0    0    0  501 -0.00000000000E+00  0.00000000000E+00  0.27065003216E+02  0.27065003336E+02  0.25500000000E-02 0.  1.
          2   -1    0    0  501    0  0.00000000000E+00 -0.00000000000E+00 -0.65968899115E+03  0.65968899115E+03  0.25500000000E-02 0. -1.
         25    2    1    2    0    0  0.61636956078E+02 -0.44766628542E+02 -0.39436758302E+03  0.42064464121E+03  0.12495182372E+03 0.  0.
         23    2    1    2    0    0 -0.61636956078E+02  0.44766628542E+02 -0.23825640491E+03  0.26610935328E+03  0.90801475968E+02 0.  0.
        -11    1    4    4    0    0 -0.20011051537E+02 -0.20501031386E+02 -0.12940562911E+03  0.13253886719E+03  0.51100000000E-03 0. -1.
         11    1    4    4    0    0 -0.41625904541E+02  0.65267659928E+02 -0.10885077580E+03  0.13357048609E+03  0.51100000000E-03 0.  1.
    9000005    1    3    3    0    0 -0.61885572877E+01 -0.58075834822E+02 -0.28746303857E+03  0.29333785875E+03  0.10000000000E+01 0.  0.
    9000005    1    3    3    0    0  0.67825513366E+02  0.13309206280E+02 -0.10690454445E+03  0.12730678246E+03  0.10000000000E+01 0.  0.
<mgrwt>
<rscale>  0 0.13882891E+03</rscale>
<asrwt>0</asrwt>
<pdfrwt beam="2">  1        2 0.10149060E+00 0.14634249E+03</pdfrwt>
<pdfrwt beam="1">  1       -2 0.41638472E-02 0.14634249E+03</pdfrwt>
<totfact> 0.11187258E+04</totfact>
</mgrwt>
</event>
<event>
 8    2  0.8128359E-004  0.1501132E+03  0.7818608E-02  0.1208816E+00
          2   -1    0    0  501    0  0.00000000000E+00  0.00000000000E+00  0.16280781669E+04  0.16280781669E+04  0.25500000000E-02 0. -1.
         -2   -1    0    0    0  501 -0.00000000000E+00 -0.00000000000E+00 -0.12171545014E+02  0.12171545282E+02  0.25500000000E-02 0.  1.
         25    2    1    2    0    0 -0.48567589270E+02 -0.67453398017E+02  0.10513440956E+04  0.10620067704E+04  0.12500080575E+03 0.  0.
         23    2    1    2    0    0  0.48567589270E+02  0.67453398017E+02  0.56456252628E+03  0.57824294176E+03  0.93409217851E+02 0.  0.
        -11    1    4    4    0    0 -0.78921374498E+01  0.27804045524E+02  0.38179671039E+03  0.38288912082E+03  0.51100000000E-03 0. -1.
         11    1    4    4    0    0  0.56459726719E+02  0.39649352493E+02  0.18276581589E+03  0.19535382094E+03  0.51100000000E-03 0.  1.
    9000005    1    3    3    0    0 -0.49112101279E+02 -0.69091233626E+02  0.10547007175E+04  0.10581021693E+04  0.10000000000E+01 0.  0.
    9000005    1    3    3    0    0  0.54451200922E+00  0.16378356098E+01 -0.33566219687E+01  0.39046011133E+01  0.10000000000E+01 0.  0.
<mgrwt>
<rscale>  0 0.14340791E+03</rscale>
<asrwt>0</asrwt>
<pdfrwt beam="1">  1        2 0.25047344E+00 0.15011320E+03</pdfrwt>
<pdfrwt beam="2">  1       -2 0.18725463E-02 0.15011320E+03</pdfrwt>
<totfact> 0.97470232E+03</totfact>
</mgrwt>
</event>
<event>
 8    2  0.8128359E-004  0.1569374E+03  0.7818608E-02  0.1201990E+00
         -2   -1    0    0    0  501 -0.00000000000E+00  0.00000000000E+00  0.99462225401E+01  0.99462228670E+01  0.25500000000E-02 0.  1.
          2   -1    0    0  501    0  0.00000000000E+00 -0.00000000000E+00 -0.22391023639E+04  0.22391023639E+04  0.25500000000E-02 0. -1.
         25    2    1    2    0    0  0.92721621548E+02  0.20187080042E+02 -0.87394895351E+03  0.88792798806E+03  0.12499808530E+03 0.  0.
         23    2    1    2    0    0 -0.92721621548E+02 -0.20187080042E+02 -0.13552071879E+04  0.13611205987E+04  0.84011576215E+02 0.  0.
        -11    1    4    4    0    0 -0.26948594424E+02  0.31362388757E+02 -0.34672285162E+03  0.34917984193E+03  0.51100000000E-03 0.  1.
         11    1    4    4    0    0 -0.65773027123E+02 -0.51549468799E+02 -0.10084843362E+04  0.10119407568E+04  0.51100000000E-03 0. -1.
    9000005    1    3    3    0    0  0.49144744506E+02  0.16443158505E+02 -0.80234041419E+03  0.80401288772E+03  0.10000000000E+01 0.  0.
    9000005    1    3    3    0    0  0.43576877042E+02  0.37439215363E+01 -0.71608539325E+02  0.83915100342E+02  0.10000000000E+01 0.  0.
<mgrwt>
<rscale>  0 0.14877238E+03</rscale>
<asrwt>0</asrwt>
<pdfrwt beam="2">  1        2 0.34447689E+00 0.15693737E+03</pdfrwt>
<pdfrwt beam="1">  1       -2 0.15301899E-02 0.15693737E+03</pdfrwt>
<totfact> 0.63305518E+03</totfact>
</mgrwt>
</event>
<event>
 8    2  0.8128359E-004  0.1977658E+03  0.7818608E-02  0.1155870E+00
          2   -1    0    0  501    0  0.00000000000E+00  0.00000000000E+00  0.16049415245E+04  0.16049415245E+04  0.25500000000E-02 0.  1.
         -2   -1    0    0    0  501 -0.00000000000E+00 -0.00000000000E+00 -0.22168572925E+02  0.22168573071E+02  0.25500000000E-02 0. -1.
         25    2    1    2    0    0  0.72102063151E+02  0.13523150432E+03  0.87112481039E+03  0.89329151997E+03  0.12500014835E+03 0.  0.
         23    2    1    2    0    0 -0.72102063151E+02 -0.13523150432E+03  0.71164814119E+03  0.73381857762E+03  0.92522217453E+02 0.  0.
        -11    1    4    4    0    0  0.18138071330E+02 -0.44851492855E+02  0.25983863142E+03  0.26430429512E+03  0.51100000000E-03 0.  1.
         11    1    4    4    0    0 -0.90240134481E+02 -0.90380011467E+02  0.45180950978E+03  0.46951428250E+03  0.51100000000E-03 0. -1.
    9000005    1    3    3    0    0  0.60783373666E+02  0.13033671260E+03  0.86889912032E+03  0.88072070400E+03  0.10000000000E+01 0.  0.
    9000005    1    3    3    0    0  0.11318689485E+02  0.48947917213E+01  0.22256900723E+01  0.12570815962E+02  0.10000000000E+01 0.  0.
<mgrwt>
<rscale>  0 0.19290174E+03</rscale>
<asrwt>0</asrwt>
<pdfrwt beam="1">  1        2 0.24691414E+00 0.19776578E+03</pdfrwt>
<pdfrwt beam="2">  1       -2 0.34105489E-02 0.19776578E+03</pdfrwt>
<totfact> 0.41767221E+03</totfact>
</mgrwt>
</event>
<event>
 8    2  0.8128359E-004  0.1661798E+03  0.7818608E-02  0.1189678E+00
         -2   -1    0    0    0  501 -0.00000000000E+00  0.00000000000E+00  0.26235845390E+02  0.26235845514E+02  0.25500000000E-02 0. -1.
          2   -1    0    0  501    0  0.00000000000E+00 -0.00000000000E+00 -0.10960023214E+04  0.10960023214E+04  0.25500000000E-02 0.  1.
         25    2    1    2    0    0 -0.91720655980E+02  0.59833615388E+02 -0.33102056821E+03  0.37039216684E+03  0.12499200140E+03 0.  0.
         23    2    1    2    0    0  0.91720655980E+02 -0.59833615388E+02 -0.73874590777E+03  0.75184600004E+03  0.86799488917E+02 0.  0.
        -11    1    4    4    0    0  0.10615728678E+03 -0.43066227733E+02 -0.66697224885E+03  0.67673927789E+03  0.51100000000E-03 0. -1.
         11    1    4    4    0    0 -0.14436630800E+02 -0.16767387655E+02 -0.71773658916E+02  0.75106722150E+02  0.51100000000E-03 0.  1.
    9000005    1    3    3    0    0 -0.15181363724E+02 -0.12429313337E+02 -0.20609301909E+03  0.20702727876E+03  0.10000000000E+01 0.  0.
    9000005    1    3    3    0    0 -0.76539292257E+02  0.72262928725E+02 -0.12492754912E+03  0.16336488808E+03  0.10000000000E+01 0.  0.
<mgrwt>
<rscale>  0 0.15913397E+03</rscale>
<asrwt>0</asrwt>
<pdfrwt beam="2">  1        2 0.16861571E+00 0.16617984E+03</pdfrwt>
<pdfrwt beam="1">  1       -2 0.40362848E-02 0.16617984E+03</pdfrwt>
<totfact> 0.61188028E+03</totfact>
</mgrwt>
</event>
<event>
 8    2  0.8128359E-004  0.1320490E+03  0.7818608E-02  0.1236491E+00
         -2   -1    0    0    0  501 -0.00000000000E+00  0.00000000000E+00  0.37925861359E+02  0.37925861445E+02  0.25500000000E-02 0.  1.
          2   -1    0    0  501    0  0.00000000000E+00 -0.00000000000E+00 -0.41685016465E+03  0.41685016466E+03  0.25500000000E-02 0. -1.
         25    2    1    2    0    0  0.13437601571E+02 -0.40387939608E+02 -0.12962236750E+03  0.18503751904E+03  0.12500068198E+03 0.  0.
         23    2    1    2    0    0 -0.13437601571E+02  0.40387939608E+02 -0.24930193580E+03  0.26973850706E+03  0.93785138479E+02 0.  0.
        -11    1    4    4    0    0 -0.32728430359E+01 -0.29554558954E+02 -0.48815092153E+02  0.57158522363E+02  0.51100000000E-03 0.  1.
         11    1    4    4    0    0 -0.10164758536E+02  0.69942498562E+02 -0.20048684364E+03  0.21257998470E+03  0.51100000000E-03 0. -1.
    9000005    1    3    3    0    0  0.39193371775E+01 -0.72045379033E+02 -0.26713494729E+02  0.76944841572E+02  0.10000000000E+01 0.  0.
    9000005    1    3    3    0    0  0.95182643939E+01  0.31657439425E+02 -0.10290887277E+03  0.10809267747E+03  0.10000000000E+01 0.  0.
<mgrwt>
<rscale>  0 0.12409445E+03</rscale>
<asrwt>0</asrwt>
<pdfrwt beam="2">  1        2 0.64130791E-01 0.13204895E+03</pdfrwt>
<pdfrwt beam="1">  1       -2 0.58347482E-02 0.13204895E+03</pdfrwt>
<totfact> 0.11150472E+04</totfact>
</mgrwt>
</event>
<event>
 8    2  0.8128359E-004  0.1447120E+03  0.7818608E-02  0.1217166E+00
         -2   -1    0    0    0  501 -0.00000000000E+00  0.00000000000E+00  0.19540370978E+02  0.19540371144E+02  0.25500000000E-02 0.  1.
          2   -1    0    0  501    0  0.00000000000E+00 -0.00000000000E+00 -0.88514940794E+03  0.88514940795E+03  0.25500000000E-02 0. -1.
         25    2    1    2    0    0 -0.43587470765E+02 -0.58455423149E+02 -0.43135469700E+03  0.45498179924E+03  0.12499863564E+03 0.  0.
         23    2    1    2    0    0  0.43587470765E+02  0.58455423149E+02 -0.43425433997E+03  0.44970797985E+03  0.91342932190E+02 0.  0.
        -11    1    4    4    0    0  0.17587295988E+02  0.17650029503E+02 -0.36135377771E+03  0.36221180155E+03  0.51100000000E-03 0. -1.
         11    1    4    4    0    0  0.26000174778E+02  0.40805393646E+02 -0.72900562260E+02  0.87496178300E+02  0.51100000000E-03 0.  1.
    9000005    1    3    3    0    0 -0.57359972945E+02 -0.15185302898E+02 -0.38690782938E+03  0.39143253359E+03  0.10000000000E+01 0.  0.
    9000005    1    3    3    0    0  0.13772502180E+02 -0.43270120251E+02 -0.44446867625E+02  0.63549265649E+02  0.10000000000E+01 0.  0.
<mgrwt>
<rscale>  0 0.13718653E+03</rscale>
<asrwt>0</asrwt>
<pdfrwt beam="2">  1        2 0.13617680E+00 0.14471200E+03</pdfrwt>
<pdfrwt beam="1">  1       -2 0.30062116E-02 0.14471200E+03</pdfrwt>
<totfact> 0.12619872E+04</totfact>
</mgrwt>
</event>
<event>
 8    2  0.8128359E-004  0.1551201E+03  0.7818608E-02  0.1202763E+00
          2   -1    0    0  501    0  0.00000000000E+00  0.00000000000E+00  0.43556216769E+03  0.43556216770E+03  0.25500000000E-02 0. -1.
         -2   -1    0    0    0  501 -0.00000000000E+00 -0.00000000000E+00 -0.46541517897E+02  0.46541517967E+02  0.25500000000E-02 0.  1.
         25    2    1    2    0    0 -0.11288392204E+02  0.91169616891E+02  0.22744427993E+03  0.27530553224E+03  0.12499163479E+03 0.  0.
         23    2    1    2    0    0  0.11288392204E+02 -0.91169616891E+02  0.16157636987E+03  0.20679815343E+03  0.90659947710E+02 0.  0.
        -11    1    4    4    0    0  0.23279163326E+02 -0.52323605375E+02  0.15547678242E+03  0.16568859043E+03  0.51100000000E-03 0. -1.
         11    1    4    4    0    0 -0.11990771122E+02 -0.38846011515E+02  0.60995874428E+01  0.41109562999E+02  0.51100000000E-03 0.  1.
    9000005    1    3    3    0    0 -0.82247224997E+01  0.35493652202E+02  0.21512650677E+03  0.21819225312E+03  0.10000000000E+01 0.  0.
    9000005    1    3    3    0    0 -0.30636697048E+01  0.55675964689E+02  0.12317773157E+02  0.57113279119E+02  0.10000000000E+01 0.  0.
<mgrwt>
<rscale>  0 0.14815136E+03</rscale>
<asrwt>0</asrwt>
<pdfrwt beam="1">  1        2 0.67009562E-01 0.15512007E+03</pdfrwt>
<pdfrwt beam="2">  1       -2 0.71602337E-02 0.15512007E+03</pdfrwt>
<totfact> 0.78686833E+03</totfact>
</mgrwt>
</event>
<event>
 8    2  0.8128359E-004  0.1311672E+03  0.7818608E-02  0.1239382E+00
          2   -1    0    0  501    0  0.00000000000E+00  0.00000000000E+00  0.71386308845E+03  0.71386308846E+03  0.25500000000E-02 0.  1.
         -2   -1    0    0    0  501 -0.00000000000E+00 -0.00000000000E+00 -0.18952612062E+02  0.18952612234E+02  0.25500000000E-02 0. -1.
         25    2    1    2    0    0 -0.15943292373E+02 -0.36419556494E+02  0.44684279040E+03  0.46569657986E+03  0.12499700992E+03 0.  0.
         23    2    1    2    0    0  0.15943292373E+02  0.36419556494E+02  0.24806768599E+03  0.26711912083E+03  0.90744009261E+02 0.  0.
        -11    1    4    4    0    0 -0.27070034913E+02  0.13427291403E+02  0.26325164018E+02  0.40076092691E+02  0.51100000000E-03 0. -1.
         11    1    4    4    0    0  0.43013327286E+02  0.22992265092E+02  0.22174252197E+03  0.22704302814E+03  0.51100000000E-03 0.  1.
    9000005    1    3    3    0    0  0.36164100277E+02  0.28223374658E+02  0.20238334854E+03  0.20751968772E+03  0.10000000000E+01 0.  0.
    9000005    1    3    3    0    0 -0.52107392650E+02 -0.64642931153E+02  0.24445944186E+03  0.25817689214E+03  0.10000000000E+01 0.  0.
<mgrwt>
<rscale>  0 0.12227999E+03</rscale>
<asrwt>0</asrwt>
<pdfrwt beam="1">  1        2 0.10982509E+00 0.13116716E+03</pdfrwt>
<pdfrwt beam="2">  1       -2 0.29157865E-02 0.13116716E+03</pdfrwt>
<totfact> 0.17127259E+04</totfact>
</mgrwt>
</event>
<event>
 8    2  0.8128359E-004  0.1338311E+03  0.7818608E-02  0.1232932E+00
         -2   -1    0    0    0  501 -0.00000000000E+00  0.00000000000E+00  0.10750725343E+02  0.10750725646E+02  0.25500000000E-02 0.  1.
          2   -1    0    0  501    0  0.00000000000E+00 -0.00000000000E+00 -0.13439826828E+04  0.13439826828E+04  0.25500000000E-02 0. -1.
         25    2    1    2    0    0 -0.47794099171E+02  0.10907638374E+01 -0.76703685821E+03  0.77862462362E+03  0.12500118790E+03 0.  0.
         23    2    1    2    0    0  0.47794099171E+02 -0.10907638374E+01 -0.56619509921E+03  0.57610878478E+03  0.95073528704E+02 0.  0.
        -11    1    4    4    0    0 -0.39194486646E+01  0.26088559746E+02 -0.38112054700E+03  0.38203252005E+03  0.51100000000E-03 0. -1.
         11    1    4    4    0    0  0.51713547836E+02 -0.27179323583E+02 -0.18507455220E+03  0.19407626474E+03  0.51100000000E-03 0.  1.
    9000005    1    3    3    0    0  0.10543188844E+02 -0.51760622680E+02 -0.38069319733E+03  0.38434181581E+03  0.10000000000E+01 0.  0.
    9000005    1    3    3    0    0 -0.58337288015E+02  0.52851386518E+02 -0.38634366088E+03  0.39428280781E+03  0.10000000000E+01 0.  0.
<mgrwt>
<rscale>  0 0.12637753E+03</rscale>
<asrwt>0</asrwt>
<pdfrwt beam="2">  1        2 0.20676643E+00 0.13383110E+03</pdfrwt>
<pdfrwt beam="1">  1       -2 0.16539588E-02 0.13383110E+03</pdfrwt>
<totfact> 0.16342849E+04</totfact>
</mgrwt>
</event>
<event>
 8    2  0.8128359E-004  0.1762403E+03  0.7818608E-02  0.1178194E+00
          2   -1    0    0  501    0  0.00000000000E+00  0.00000000000E+00  0.31889446810E+03  0.31889446811E+03  0.25500000000E-02 0. -1.
         -2   -1    0    0    0  501 -0.00000000000E+00 -0.00000000000E+00 -0.84182009648E+02  0.84182009686E+02  0.25500000000E-02 0.  1.
         25    2    1    2    0    0  0.12168655891E+03 -0.25070310517E+02  0.13022643468E+03  0.21913370590E+03  0.12499807072E+03 0.  0.
         23    2    1    2    0    0 -0.12168655891E+03  0.25070310517E+02  0.10448602378E+03  0.18394277190E+03  0.86495520568E+02 0.  0.
        -11    1    4    4    0    0 -0.49943634926E+02  0.53188268452E+02  0.38510661993E+02  0.82501088829E+02  0.51100000000E-03 0.  1.
         11    1    4    4    0    0 -0.71742923989E+02 -0.28117957935E+02  0.65975361783E+02  0.10144168307E+03  0.51100000000E-03 0. -1.
    9000005    1    3    3    0    0  0.53231896084E+02 -0.40138247424E+02  0.13321486918E+03  0.14896951042E+03  0.10000000000E+01 0.  0.
    9000005    1    3    3    0    0  0.68454662831E+02  0.15067936907E+02 -0.29884344985E+01  0.70164195475E+02  0.10000000000E+01 0.  0.
<mgrwt>
<rscale>  0 0.16966809E+03</rscale>
<asrwt>0</asrwt>
<pdfrwt beam="1">  1        2 0.49060687E-01 0.17624034E+03</pdfrwt>
<pdfrwt beam="2">  1       -2 0.12951079E-01 0.17624034E+03</pdfrwt>
<totfact> 0.43533851E+03</totfact>
</mgrwt>
</event>
<event>
 8    2  0.8128359E-004  0.1637087E+03  0.7818608E-02  0.1192308E+00
         -2   -1    0    0    0  501 -0.00000000000E+00  0.00000000000E+00  0.43680030684E+02  0.43680030758E+02  0.25500000000E-02 0.  1.
          2   -1    0    0  501    0  0.00000000000E+00 -0.00000000000E+00 -0.52791896759E+03  0.52791896760E+03  0.25500000000E-02 0. -1.
         25    2    1    2    0    0 -0.39075750336E+02  0.98226461286E+02 -0.22931050561E+03  0.28175141190E+03  0.12500079267E+03 0.  0.
         23    2    1    2    0    0  0.39075750336E+02 -0.98226461286E+02 -0.25492843131E+03  0.28984758646E+03  0.88587619483E+02 0.  0.
        -11    1    4    4    0    0  0.50829114949E+02 -0.62391722095E+02 -0.90306604608E+02  0.12096118695E+03  0.51100000000E-03 0.  1.
         11    1    4    4    0    0 -0.11753364613E+02 -0.35834739192E+02 -0.16462182670E+03  0.16888639951E+03  0.51100000000E-03 0. -1.
    9000005    1    3    3    0    0 -0.68342304054E+02  0.31522961441E+02 -0.17618449399E+03  0.19158899640E+03  0.10000000000E+01 0.  0.
    9000005    1    3    3    0    0  0.29266553718E+02  0.66703499845E+02 -0.53126011618E+02  0.90162415499E+02  0.10000000000E+01 0.  0.
<mgrwt>
<rscale>  0 0.15684263E+03</rscale>
<asrwt>0</asrwt>
<pdfrwt beam="2">  1        2 0.81218298E-01 0.16370874E+03</pdfrwt>
<pdfrwt beam="1">  1       -2 0.67200051E-02 0.16370874E+03</pdfrwt>
<totfact> 0.70448551E+03</totfact>
</mgrwt>
</event>
<event>
 8    2  0.8128359E-004  0.1736047E+03  0.7818608E-02  0.1181057E+00
         -2   -1    0    0    0  501 -0.00000000000E+00  0.00000000000E+00  0.26746059057E+02  0.26746059179E+02  0.25500000000E-02 0.  1.
          2   -1    0    0  501    0  0.00000000000E+00 -0.00000000000E+00 -0.97451653431E+03  0.97451653431E+03  0.25500000000E-02 0. -1.
         25    2    1    2    0    0 -0.87262909894E+02 -0.83080730987E+02 -0.54518676296E+03  0.57216012011E+03  0.12498549208E+03 0.  0.
         23    2    1    2    0    0  0.87262909894E+02  0.83080730987E+02 -0.40258371229E+03  0.42910247338E+03  0.86822024607E+02 0.  0.
        -11    1    4    4    0    0 -0.40755195819E+01  0.51197802190E+02 -0.15506819727E+03  0.16335228989E+03  0.51100000000E-03 0. -1.
         11    1    4    4    0    0  0.91338429476E+02  0.31882928797E+02 -0.24751551502E+03  0.26575018349E+03  0.51100000000E-03 0.  1.
    9000005    1    3    3    0    0 -0.10180791978E+02  0.27417013723E+02 -0.19071353433E+03  0.19294557094E+03  0.10000000000E+01 0.  0.
    9000005    1    3    3    0    0 -0.77082117916E+02 -0.11049774471E+03 -0.35447322863E+03  0.37921454917E+03  0.10000000000E+01 0.  0.
<mgrwt>
<rscale>  0 0.16695915E+03</rscale>
<asrwt>0</asrwt>
<pdfrwt beam="2">  1        2 0.14992559E+00 0.17360471E+03</pdfrwt>
<pdfrwt beam="1">  1       -2 0.41147791E-02 0.17360471E+03</pdfrwt>
<totfact> 0.70315494E+03</totfact>
</mgrwt>
</event>
<event>
 8    2  0.8128359E-004  0.1443098E+03  0.7818608E-02  0.1219054E+00
         -2   -1    0    0    0  501 -0.00000000000E+00  0.00000000000E+00  0.27234948673E+03  0.27234948674E+03  0.25500000000E-02 0.  1.
          2   -1    0    0  501    0  0.00000000000E+00 -0.00000000000E+00 -0.97281781556E+02  0.97281781590E+02  0.25500000000E-02 0. -1.
         25    2    1    2    0    0  0.70218347277E+02 -0.16439082426E+02 -0.18370463281E+02  0.14547438806E+03  0.12499785572E+03 0.  0.
         23    2    1    2    0    0 -0.70218347277E+02  0.16439082426E+02  0.19343816846E+03  0.22415688027E+03  0.87333397008E+02 0.  0.
        -11    1    4    4    0    0 -0.39082072298E+01  0.20233066689E+02  0.13226176420E+03  0.13385748145E+03  0.51100000000E-03 0.  1.
         11    1    4    4    0    0 -0.66310140047E+02 -0.37939842632E+01  0.61176404262E+02  0.90299398826E+02  0.51100000000E-03 0. -1.
    9000005    1    3    3    0    0  0.69979949156E+02  0.44276146929E+02 -0.17996504352E+02  0.84749304655E+02  0.10000000000E+01 0.  0.
    9000005    1    3    3    0    0  0.23839812086E+00 -0.60715229354E+02 -0.37395892987E+00  0.60725083405E+02  0.10000000000E+01 0.  0.
<mgrwt>
<rscale>  0 0.13582875E+03</rscale>
<asrwt>0</asrwt>
<pdfrwt beam="2">  1        2 0.14966428E-01 0.14430982E+03</pdfrwt>
<pdfrwt beam="1">  1       -2 0.41899921E-01 0.14430982E+03</pdfrwt>
<totfact> 0.20673223E+03</totfact>
</mgrwt>
</event>
<event>
 8    2  0.8128359E-004  0.1557694E+03  0.7818608E-02  0.1202426E+00
         -2   -1    0    0    0  501 -0.00000000000E+00  0.00000000000E+00  0.29131910407E+03  0.29131910408E+03  0.25500000000E-02 0.  1.
          2   -1    0    0  501    0  0.00000000000E+00 -0.00000000000E+00 -0.75451863140E+02  0.75451863183E+02  0.25500000000E-02 0. -1.
         25    2    1    2    0    0 -0.72160326934E+02 -0.58585226467E+02  0.65321893743E+02  0.16891137473E+03  0.12499904466E+03 0.  0.
         23    2    1    2    0    0  0.72160326934E+02  0.58585226467E+02  0.15054534718E+03  0.19785959254E+03  0.88572993943E+02 0.  0.
        -11    1    4    4    0    0 -0.27900333978E+01  0.47775857736E+02  0.33363381233E+02  0.58338941338E+02  0.51100000000E-03 0. -1.
         11    1    4    4    0    0  0.74950360332E+02  0.10809368730E+02  0.11718196595E+03  0.13952065120E+03  0.51100000000E-03 0.  1.
    9000005    1    3    3    0    0  0.32087598036E+01 -0.75561834841E+02  0.16192322266E+02  0.77350360855E+02  0.10000000000E+01 0.  0.
    9000005    1    3    3    0    0 -0.75369086738E+02  0.16976608374E+02  0.49129571478E+02  0.91561013871E+02  0.10000000000E+01 0.  0.
<mgrwt>
<rscale>  0 0.14842126E+03</rscale>
<asrwt>0</asrwt>
<pdfrwt beam="2">  1        2 0.11607979E-01 0.15576939E+03</pdfrwt>
<pdfrwt beam="1">  1       -2 0.44818323E-01 0.15576939E+03</pdfrwt>
<totfact> 0.24678672E+03</totfact>
</mgrwt>
</event>
<event>
 8    2  0.8128359E-004  0.2613596E+03  0.7818608E-02  0.1108064E+00
          2   -1    0    0  501    0  0.00000000000E+00  0.00000000000E+00  0.12187243866E+04  0.12187243866E+04  0.25500000000E-02 0.  1.
         -2   -1    0    0    0  501 -0.00000000000E+00 -0.00000000000E+00 -0.55308802091E+02  0.55308802149E+02  0.25500000000E-02 0. -1.
         25    2    1    2    0    0  0.73588652748E+02 -0.21741126551E+03  0.70483993971E+03  0.75173678721E+03  0.12500363375E+03 0.  0.
         23    2    1    2    0    0 -0.73588652748E+02  0.21741126551E+03  0.45857564475E+03  0.52229640149E+03  0.99090669952E+02 0.  0.
        -11    1    4    4    0    0 -0.58047248626E+02  0.59788177326E+02  0.22632952843E+03  0.24118284487E+03  0.51100000000E-03 0. -1.
         11    1    4    4    0    0 -0.15541404122E+02  0.15762308818E+03  0.23224611632E+03  0.28111355662E+03  0.51100000000E-03 0.  1.
    9000005    1    3    3    0    0  0.41167618972E+02 -0.72275635538E+02  0.10619333997E+03  0.13489464703E+03  0.10000000000E+01 0.  0.
    9000005    1    3    3    0    0  0.32421033776E+02 -0.14513562997E+03  0.59864659974E+03  0.61684214018E+03  0.10000000000E+01 0.  0.
<mgrwt>
<rscale>  0 0.25847321E+03</rscale>
<asrwt>0</asrwt>
<pdfrwt beam="1">  1        2 0.18749607E+00 0.26135963E+03</pdfrwt>
<pdfrwt beam="2">  1       -2 0.85090462E-02 0.26135963E+03</pdfrwt>
<totfact> 0.16731730E+03</totfact>
</mgrwt>
</event>
<event>
 8    2  0.8128359E-004  0.1324521E+03  0.7818608E-02  0.1237621E+00
         -2   -1    0    0    0  501 -0.00000000000E+00  0.00000000000E+00  0.13042585957E+02  0.13042586206E+02  0.25500000000E-02 0.  1.
          2   -1    0    0  501    0  0.00000000000E+00 -0.00000000000E+00 -0.10996869631E+04  0.10996869631E+04  0.25500000000E-02 0. -1.
         25    2    1    2    0    0 -0.64459449235E+01  0.43327282183E+02 -0.47986474173E+03  0.49780891895E+03  0.12499898336E+03 0.  0.
         23    2    1    2    0    0  0.64459449235E+01 -0.43327282183E+02 -0.60677963539E+03  0.61492063034E+03  0.89593817339E+02 0.  0.
        -11    1    4    4    0    0  0.46440104731E+02 -0.15475909803E+02 -0.24213427025E+03  0.24703277503E+03  0.51100000000E-03 0.  1.
         11    1    4    4    0    0 -0.39994159807E+02 -0.27851372381E+02 -0.36464536515E+03  0.36788785531E+03  0.51100000000E-03 0. -1.
    9000005    1    3    3    0    0 -0.18363709999E+02 -0.42126364088E+02 -0.15398676794E+03  0.16070090571E+03  0.10000000000E+01 0.  0.
    9000005    1    3    3    0    0  0.11917765075E+02  0.85453646272E+02 -0.32587797379E+03  0.33710801324E+03  0.10000000000E+01 0.  0.
<mgrwt>
<rscale>  0 0.12338129E+03</rscale>
<asrwt>0</asrwt>
<pdfrwt beam="2">  1        2 0.16918254E+00 0.13245206E+03</pdfrwt>
<pdfrwt beam="1">  1       -2 0.20065526E-02 0.13245206E+03</pdfrwt>
<totfact> 0.16828714E+04</totfact>
</mgrwt>
</event>
<event>
 8    2  0.8128359E-004  0.1485951E+03  0.7818608E-02  0.1211707E+00
         -2   -1    0    0    0  501 -0.00000000000E+00  0.00000000000E+00  0.33144168928E+02  0.33144169027E+02  0.25500000000E-02 0.  1.
          2   -1    0    0  501    0  0.00000000000E+00 -0.00000000000E+00 -0.66995807154E+03  0.66995807155E+03  0.25500000000E-02 0. -1.
         25    2    1    2    0    0 -0.74774767962E+02  0.29406677928E+02 -0.19616984627E+03  0.24609576729E+03  0.12499799783E+03 0.  0.
         23    2    1    2    0    0  0.74774767962E+02 -0.29406677928E+02 -0.44064405634E+03  0.45700647329E+03  0.90728791478E+02 0.  0.
        -11    1    4    4    0    0  0.12079620353E+02 -0.18271384569E+02 -0.31857766151E+03  0.31932974671E+03  0.51100000000E-03 0. -1.
         11    1    4    4    0    0  0.62695147609E+02 -0.11135293359E+02 -0.12206639483E+03  0.13767672657E+03  0.51100000000E-03 0.  1.
    9000005    1    3    3    0    0 -0.53165200841E+02  0.62012291577E+02 -0.18955973927E+03  0.20641210633E+03  0.10000000000E+01 0.  0.
    9000005    1    3    3    0    0 -0.21609567121E+02 -0.32605613650E+02 -0.66101070013E+01  0.39683660960E+02  0.10000000000E+01 0.  0.
<mgrwt>
<rscale>  0 0.14121239E+03</rscale>
<asrwt>0</asrwt>
<pdfrwt beam="2">  1        2 0.10307046E+00 0.14859515E+03</pdfrwt>
<pdfrwt beam="1">  1       -2 0.50991034E-02 0.14859515E+03</pdfrwt>
<totfact> 0.81165006E+03</totfact>
</mgrwt>
</event>
<event>
 8    2  0.8128359E-004  0.1428599E+03  0.7818608E-02  0.1223458E+00
         -2   -1    0    0    0  501 -0.00000000000E+00  0.00000000000E+00  0.15629687445E+03  0.15629687447E+03  0.25500000000E-02 0.  1.
          2   -1    0    0  501    0  0.00000000000E+00 -0.00000000000E+00 -0.11079688538E+03  0.11079688541E+03  0.25500000000E-02 0. -1.
         25    2    1    2    0    0  0.49976130358E+02  0.47801994599E+02  0.68106712247E+02  0.15826393179E+03  0.12500521413E+03 0.  0.
         23    2    1    2    0    0 -0.49976130358E+02 -0.47801994599E+02 -0.22606723176E+02  0.10882982809E+03  0.80933449555E+02 0.  0.
        -11    1    4    4    0    0 -0.12117308499E+01  0.22527050165E+01 -0.37327099016E+02  0.37414640086E+02  0.51100000000E-03 0. -1.
         11    1    4    4    0    0 -0.48764399508E+02 -0.50054699616E+02  0.14720375840E+02  0.71415188007E+02  0.51100000000E-03 0.  1.
    9000005    1    3    3    0    0  0.80646892458E+02  0.30825762778E+02  0.83363469921E+02  0.12001923609E+03  0.10000000000E+01 0.  0.
    9000005    1    3    3    0    0 -0.30670762100E+02  0.16976231821E+02 -0.15256757674E+02  0.38244695702E+02  0.10000000000E+01 0.  0.
<mgrwt>
<rscale>  0 0.13273187E+03</rscale>
<asrwt>0</asrwt>
<pdfrwt beam="2">  1        2 0.17045675E-01 0.14285989E+03</pdfrwt>
<pdfrwt beam="1">  1       -2 0.24045673E-01 0.14285989E+03</pdfrwt>
<totfact> 0.48787651E+03</totfact>
</mgrwt>
</event>
<event>
 8    2  0.8128359E-004  0.1462807E+03  0.7818608E-02  0.1214880E+00
         -2   -1    0    0    0  501 -0.00000000000E+00  0.00000000000E+00  0.63853559179E+02  0.63853559229E+02  0.25500000000E-02 0.  1.
          2   -1    0    0  501    0  0.00000000000E+00 -0.00000000000E+00 -0.28591940964E+03  0.28591940966E+03  0.25500000000E-02 0. -1.
         25    2    1    2    0    0 -0.71129907495E+02  0.26707630914E+02 -0.88166009468E+02  0.17079606045E+03  0.12500115099E+03 0.  0.
         23    2    1    2    0    0  0.71129907495E+02 -0.26707630914E+02 -0.13389984100E+03  0.17897690844E+03  0.91273243864E+02 0.  0.
        -11    1    4    4    0    0  0.25821559463E+02 -0.77649408604E+01 -0.12646616695E+03  0.12930869508E+03  0.51100000000E-03 0. -1.
         11    1    4    4    0    0  0.45308348032E+02 -0.18942690054E+02 -0.74336740435E+01  0.49668213355E+02  0.51100000000E-03 0.  1.
    9000005    1    3    3    0    0 -0.63306060295E+02  0.34841586275E+02  0.91305459342E+01  0.72842022715E+02  0.10000000000E+01 0.  0.
    9000005    1    3    3    0    0 -0.78238471996E+01 -0.81339553602E+01 -0.97296555403E+02  0.97954037732E+02  0.10000000000E+01 0.  0.
<mgrwt>
<rscale>  0 0.13885337E+03</rscale>
<asrwt>0</asrwt>
<pdfrwt beam="2">  1        2 0.43987601E-01 0.14628072E+03</pdfrwt>
<pdfrwt beam="1">  1       -2 0.98236247E-02 0.14628072E+03</pdfrwt>
<totfact> 0.75177171E+03</totfact>
</mgrwt>
</event>
<event>
 8    2  0.8128359E-004  0.1386119E+03  0.7818608E-02  0.1226517E+00
          2   -1    0    0  501    0  0.00000000000E+00  0.00000000000E+00  0.17034904886E+04  0.17034904886E+04  0.25500000000E-02 0.  1.
         -2   -1    0    0    0  501 -0.00000000000E+00 -0.00000000000E+00 -0.92718888396E+01  0.92718891903E+01  0.25500000000E-02 0. -1.
         25    2    1    2    0    0  0.11477037533E+02 -0.58818016972E+02  0.80521295388E+03  0.81705640180E+03  0.12498792391E+03 0.  0.
         23    2    1    2    0    0 -0.11477037533E+02  0.58818016972E+02  0.88900564587E+03  0.89570597598E+03  0.91470626442E+02 0.  0.
        -11    1    4    4    0    0  0.28123099871E+02  0.20137146503E+02  0.62513809048E+03  0.62609427851E+03  0.51100000000E-03 0.  1.
         11    1    4    4    0    0 -0.39600137405E+02  0.38680870469E+02  0.26386755540E+03  0.26961169747E+03  0.51100000000E-03 0. -1.
    9000005    1    3    3    0    0  0.20206679904E+02  0.26994247274E+02  0.81282592573E+02  0.88004881422E+02  0.10000000000E+01 0.  0.
    9000005    1    3    3    0    0 -0.87296423704E+01 -0.85812264246E+02  0.72393036130E+03  0.72905152038E+03  0.10000000000E+01 0.  0.
<mgrwt>
<rscale>  0 0.13063467E+03</rscale>
<asrwt>0</asrwt>
<pdfrwt beam="1">  1        2 0.26207547E+00 0.13861191E+03</pdfrwt>
<pdfrwt beam="2">  1       -2 0.14264444E-02 0.13861191E+03</pdfrwt>
<totfact> 0.13172090E+04</totfact>
</mgrwt>
</event>
<event>
 8    2  0.8128359E-004  0.1271901E+03  0.7818608E-02  0.1249058E+00
          2   -1    0    0  501    0  0.00000000000E+00  0.00000000000E+00  0.22074884858E+02  0.22074885005E+02  0.25500000000E-02 0. -1.
         -2   -1    0    0    0  501 -0.00000000000E+00 -0.00000000000E+00 -0.57242615973E+03  0.57242615974E+03  0.25500000000E-02 0.  1.
         25    2    1    2    0    0 -0.17574721472E+02  0.15599294427E+02 -0.39833640622E+03  0.41814975927E+03  0.12500047932E+03 0.  0.
         23    2    1    2    0    0  0.17574721472E+02 -0.15599294427E+02 -0.15201486865E+03  0.17635128548E+03  0.86249908854E+02 0.  0.
        -11    1    4    4    0    0  0.50034477778E+01 -0.41197162729E+02 -0.30414953537E+02  0.51452017506E+02  0.51100000000E-03 0. -1.
         11    1    4    4    0    0  0.12571273694E+02  0.25597868302E+02 -0.12159991511E+03  0.12489926797E+03  0.51100000000E-03 0.  1.
    9000005    1    3    3    0    0 -0.28529333899E+02 -0.41511239261E+02 -0.29755971424E+03  0.30179444895E+03  0.10000000000E+01 0.  0.
    9000005    1    3    3    0    0  0.10954612428E+02  0.57110533688E+02 -0.10077669198E+03  0.11635531031E+03  0.10000000000E+01 0.  0.
<mgrwt>
<rscale>  0 0.11645736E+03</rscale>
<asrwt>0</asrwt>
<pdfrwt beam="1">  1        2 0.33961366E-02 0.12719013E+03</pdfrwt>
<pdfrwt beam="2">  1       -2 0.88065552E-01 0.12719013E+03</pdfrwt>
<totfact> 0.28851663E+03</totfact>
</mgrwt>
</event>
<event>
 8    2  0.8128359E-004  0.2340318E+03  0.7818608E-02  0.1126461E+00
          2   -1    0    0  501    0  0.00000000000E+00  0.00000000000E+00  0.16057837227E+04  0.16057837227E+04  0.25500000000E-02 0. -1.
         -2   -1    0    0    0  501 -0.00000000000E+00 -0.00000000000E+00 -0.41253549297E+02  0.41253549376E+02  0.25500000000E-02 0.  1.
         25    2    1    2    0    0  0.16376888291E+03 -0.11102050001E+03  0.11920125312E+04  0.12147694259E+04  0.12500034032E+03 0.  0.
         23    2    1    2    0    0 -0.16376888291E+03  0.11102050001E+03  0.37251764211E+03  0.43226784611E+03  0.94553152579E+02 0.  0.
        -11    1    4    4    0    0 -0.76596915802E+02  0.99356452562E+02  0.26625299705E+03  0.29432881377E+03  0.51100000000E-03 0.  1.
         11    1    4    4    0    0 -0.87171967108E+02  0.11664047448E+02  0.10626464506E+03  0.13793903234E+03  0.51100000000E-03 0. -1.
    9000005    1    3    3    0    0  0.18062312307E+03 -0.86875786358E+02  0.11013588587E+04  0.11194482795E+04  0.10000000000E+01 0.  0.
    9000005    1    3    3    0    0 -0.16854240163E+02 -0.24144713652E+02  0.90653672510E+02  0.95321146386E+02  0.10000000000E+01 0.  0.
<mgrwt>
<rscale>  0 0.23025475E+03</rscale>
<asrwt>0</asrwt>
<pdfrwt beam="1">  1        2 0.24704365E+00 0.23403180E+03</pdfrwt>
<pdfrwt beam="2">  1       -2 0.63466998E-02 0.23403180E+03</pdfrwt>
<totfact> 0.16294887E+03</totfact>
</mgrwt>
</event>
<event>
 8    2  0.8128359E-004  0.1812081E+03  0.7818608E-02  0.1171912E+00
         -2   -1    0    0    0  501 -0.00000000000E+00  0.00000000000E+00  0.54278107039E+02  0.54278107099E+02  0.25500000000E-02 0.  1.
          2   -1    0    0  501    0  0.00000000000E+00 -0.00000000000E+00 -0.58109719500E+03  0.58109719500E+03  0.25500000000E-02 0. -1.
         25    2    1    2    0    0  0.16447382391E+02 -0.13015839093E+03 -0.19184952900E+03  0.26389890323E+03  0.12499866492E+03 0.  0.
         23    2    1    2    0    0 -0.16447382391E+02  0.13015839093E+03 -0.33496955896E+03  0.37147639887E+03  0.92619578777E+02 0.  0.
        -11    1    4    4    0    0  0.12021206062E+01  0.12905465210E+03 -0.32798373128E+03  0.35246258852E+03  0.51100000000E-03 0. -1.
         11    1    4    4    0    0 -0.17649502997E+02  0.11037388337E+01 -0.69858276783E+01  0.19013810351E+02  0.51100000000E-03 0.  1.
    9000005    1    3    3    0    0  0.50898759120E+01 -0.12621090359E+03 -0.75990266899E+02  0.14741309197E+03  0.10000000000E+01 0.  0.
    9000005    1    3    3    0    0  0.11357506479E+02 -0.39474873405E+01 -0.11585926210E+03  0.11648581125E+03  0.10000000000E+01 0.  0.
<mgrwt>
<rscale>  0 0.17581864E+03</rscale>
<asrwt>0</asrwt>
<pdfrwt beam="2">  1        2 0.89399564E-01 0.18120814E+03</pdfrwt>
<pdfrwt beam="1">  1       -2 0.83504784E-02 0.18120814E+03</pdfrwt>
<totfact> 0.45398807E+03</totfact>
</mgrwt>
</event>
<event>
 8    2  0.8128359E-004  0.1271607E+03  0.7818608E-02  0.1246539E+00
         -2   -1    0    0    0  501 -0.00000000000E+00  0.00000000000E+00  0.24604016560E+02  0.24604016692E+02  0.25500000000E-02 0.  1.
          2   -1    0    0  501    0  0.00000000000E+00 -0.00000000000E+00 -0.50733928091E+03  0.50733928091E+03  0.25500000000E-02 0. -1.
         25    2    1    2    0    0 -0.18174955957E+02  0.14644180374E+02 -0.23991705208E+03  0.27153277324E+03  0.12500029608E+03 0.  0.
         23    2    1    2    0    0  0.18174955957E+02 -0.14644180374E+02 -0.24281821226E+03  0.26041052436E+03  0.91149196097E+02 0.  0.
        -11    1    4    4    0    0  0.26224892332E+02 -0.47367669902E+02 -0.19157943591E+03  0.19908320219E+03  0.51100000000E-03 0.  1.
         11    1    4    4    0    0 -0.80499363742E+01  0.32723489528E+02 -0.51238776349E+02  0.61327322170E+02  0.51100000000E-03 0. -1.
    9000005    1    3    3    0    0 -0.47046542842E+01 -0.53968410271E+02 -0.76135030870E+02  0.93446594399E+02  0.10000000000E+01 0.  0.
    9000005    1    3    3    0    0 -0.13470301673E+02  0.68612590645E+02 -0.16378202121E+03  0.17808617884E+03  0.10000000000E+01 0.  0.
<mgrwt>
<rscale>  0 0.11793721E+03</rscale>
<asrwt>0</asrwt>
<pdfrwt beam="2">  1        2 0.78052189E-01 0.12716074E+03</pdfrwt>
<pdfrwt beam="1">  1       -2 0.37852337E-02 0.12716074E+03</pdfrwt>
<totfact> 0.17162799E+04</totfact>
</mgrwt>
</event>
<event>
 8    2  0.8128359E-004  0.2522087E+03  0.7818608E-02  0.1114245E+00
          2   -1    0    0  501    0  0.00000000000E+00  0.00000000000E+00  0.79868742312E+03  0.79868742313E+03  0.25500000000E-02 0. -1.
         -2   -1    0    0    0  501 -0.00000000000E+00 -0.00000000000E+00 -0.82565707543E+02  0.82565707583E+02  0.25500000000E-02 0.  1.
         25    2    1    2    0    0 -0.21688945968E+03 -0.30708725847E+02  0.49969256392E+03  0.55973377361E+03  0.12500070127E+03 0.  0.
         23    2    1    2    0    0  0.21688945968E+03  0.30708725847E+02  0.21642915166E+03  0.32151935710E+03  0.92461103939E+02 0.  0.
        -11    1    4    4    0    0  0.18967771406E+03  0.30978315343E+02  0.22211192880E+03  0.29371925396E+03  0.51100000000E-03 0. -1.
         11    1    4    4    0    0  0.27211745619E+02 -0.26958949671E+00 -0.56827771458E+01  0.27800103138E+02  0.51100000000E-03 0.  1.
    9000005    1    3    3    0    0 -0.23134410786E+03 -0.33821857300E+02  0.48701927310E+03  0.54023401100E+03  0.10000000000E+01 0.  0.
    9000005    1    3    3    0    0  0.14454648182E+02  0.31131314535E+01  0.12673290823E+02  0.19499762609E+02  0.10000000000E+01 0.  0.
<mgrwt>
<rscale>  0 0.24851805E+03</rscale>
<asrwt>0</asrwt>
<pdfrwt beam="1">  1        2 0.12287499E+00 0.25220872E+03</pdfrwt>
<pdfrwt beam="2">  1       -2 0.12702416E-01 0.25220872E+03</pdfrwt>
<totfact> 0.16006038E+03</totfact>
</mgrwt>
</event>
<event>
 8    2  0.8128359E-004  0.1315314E+03  0.7818608E-02  0.1238128E+00
         -2   -1    0    0    0  501 -0.00000000000E+00  0.00000000000E+00  0.18759746318E+03  0.18759746320E+03  0.25500000000E-02 0. -1.
          2   -1    0    0  501    0  0.00000000000E+00 -0.00000000000E+00 -0.95416469999E+02  0.95416470033E+02  0.25500000000E-02 0.  1.
         25    2    1    2    0    0  0.38323321584E+02 -0.14387439150E+02  0.12043356623E+03  0.17833889225E+03  0.12499936492E+03 0.  0.
         23    2    1    2    0    0 -0.38323321584E+02  0.14387439150E+02 -0.28252573046E+02  0.10467504099E+03  0.92103099508E+02 0.  0.
        -11    1    4    4    0    0 -0.22343649392E+02  0.52798388471E+02 -0.64142499159E+01  0.57689263260E+02  0.51100000000E-03 0.  1.
         11    1    4    4    0    0 -0.15979672192E+02 -0.38410949321E+02 -0.21838323130E+02  0.46985777725E+02  0.51100000000E-03 0. -1.
    9000005    1    3    3    0    0 -0.98665808309E+01 -0.58443804262E+01 -0.23576441251E+02  0.26236516192E+02  0.10000000000E+01 0.  0.
    9000005    1    3    3    0    0  0.48189902415E+02 -0.85430587238E+01  0.14401000748E+03  0.15210237606E+03  0.10000000000E+01 0.  0.
<mgrwt>
<rscale>  0 0.12306277E+03</rscale>
<asrwt>0</asrwt>
<pdfrwt beam="2">  1        2 0.14679457E-01 0.13153143E+03</pdfrwt>
<pdfrwt beam="1">  1       -2 0.28861148E-01 0.13153143E+03</pdfrwt>
<totfact> 0.41875592E+03</totfact>
</mgrwt>
</event>
<event>
 8    2  0.8128359E-004  0.1622186E+03  0.7818608E-02  0.1194844E+00
         -2   -1    0    0    0  501 -0.00000000000E+00  0.00000000000E+00  0.27181820436E+02  0.27181820556E+02  0.25500000000E-02 0.  1.
          2   -1    0    0  501    0  0.00000000000E+00 -0.00000000000E+00 -0.86148807180E+03  0.86148807180E+03  0.25500000000E-02 0. -1.
         25    2    1    2    0    0 -0.74925413681E+02 -0.71247754878E+02 -0.34349095032E+03  0.37986957312E+03  0.12499919776E+03 0.  0.
         23    2    1    2    0    0  0.74925413681E+02  0.71247754878E+02 -0.49081530104E+03  0.50880031924E+03  0.85370047030E+02 0.  0.
        -11    1    4    4    0    0 -0.10359437406E+02  0.30940364301E+02 -0.65835946443E+02  0.73477860140E+02  0.51100000000E-03 0.  1.
         11    1    4    4    0    0  0.85284851087E+02  0.40307390577E+02 -0.42497935460E+03  0.43532245910E+03  0.51100000000E-03 0. -1.
    9000005    1    3    3    0    0 -0.83392658354E+02 -0.86689844590E+02 -0.18675313546E+03  0.22214229275E+03  0.10000000000E+01 0.  0.
    9000005    1    3    3    0    0  0.84672446727E+01  0.15442089712E+02 -0.15673781486E+03  0.15772728037E+03  0.10000000000E+01 0.  0.
<mgrwt>
<rscale>  0 0.15467438E+03</rscale>
<asrwt>0</asrwt>
<pdfrwt beam="2">  1        2 0.13253661E+00 0.16221856E+03</pdfrwt>
<pdfrwt beam="1">  1       -2 0.41818192E-02 0.16221856E+03</pdfrwt>
<totfact> 0.80620142E+03</totfact>
</mgrwt>
</event>
<event>
 8    2  0.8128359E-004  0.2035084E+03  0.7818608E-02  0.1151116E+00
          2   -1    0    0  501    0  0.00000000000E+00  0.00000000000E+00  0.80305070436E+03  0.80305070437E+03  0.25500000000E-02 0. -1.
         -2   -1    0    0    0  501 -0.00000000000E+00 -0.00000000000E+00 -0.48838084451E+02  0.48838084518E+02  0.25500000000E-02 0.  1.
         25    2    1    2    0    0 -0.29975195888E+02  0.15777529543E+03  0.48481527751E+03  0.52579606600E+03  0.12499637394E+03 0.  0.
         23    2    1    2    0    0  0.29975195888E+02 -0.15777529543E+03  0.26939734240E+03  0.32609272288E+03  0.89274742267E+02 0.  0.
        -11    1    4    4    0    0  0.18404338970E+02 -0.14995508260E+03  0.17728415838E+03  0.23292685397E+03  0.51100000000E-03 0. -1.
         11    1    4    4    0    0  0.11570856918E+02 -0.78202128361E+01  0.92113184024E+02  0.93165868911E+02  0.51100000000E-03 0.  1.
    9000005    1    3    3    0    0 -0.11530881130E+02  0.37320988171E+02  0.31141695134E+03  0.31385878188E+03  0.10000000000E+01 0.  0.
    9000005    1    3    3    0    0 -0.18444314758E+02  0.12045430726E+03  0.17339832616E+03  0.21193728412E+03  0.10000000000E+01 0.  0.
<mgrwt>
<rscale>  0 0.19837615E+03</rscale>
<asrwt>0</asrwt>
<pdfrwt beam="1">  1        2 0.12354625E+00 0.20350835E+03</pdfrwt>
<pdfrwt beam="2">  1       -2 0.75135522E-02 0.20350835E+03</pdfrwt>
<totfact> 0.36462718E+03</totfact>
</mgrwt>
</event>
<event>
 8    2  0.8128359E-004  0.1782731E+03  0.7818608E-02  0.1175760E+00
          2   -1    0    0  501    0  0.00000000000E+00  0.00000000000E+00  0.34189630496E+03  0.34189630497E+03  0.25500000000E-02 0. -1.
         -2   -1    0    0    0  501 -0.00000000000E+00 -0.00000000000E+00 -0.88866738115E+02  0.88866738151E+02  0.25500000000E-02 0.  1.
         25    2    1    2    0    0 -0.10232579699E+03  0.75402493429E+02  0.19870419985E+03  0.26695443137E+03  0.12500081857E+03 0.  0.
         23    2    1    2    0    0  0.10232579699E+03 -0.75402493429E+02  0.54325366990E+02  0.16380861175E+03  0.87897161735E+02 0.  0.
        -11    1    4    4    0    0  0.96596886038E+02 -0.73784026095E+02  0.74639774115E+02  0.14263988495E+03  0.51100000000E-03 0. -1.
         11    1    4    4    0    0  0.57289109493E+01 -0.16184673332E+01 -0.20314407125E+02  0.21168726799E+02  0.51100000000E-03 0.  1.
    9000005    1    3    3    0    0  0.26216466300E+01 -0.22710841151E+02  0.14560526301E+01  0.22929793416E+02  0.10000000000E+01 0.  0.
    9000005    1    3    3    0    0 -0.10494744362E+03  0.98113334579E+02  0.19724814722E+03  0.24402463795E+03  0.10000000000E+01 0.  0.
<mgrwt>
<rscale>  0 0.17201776E+03</rscale>
<asrwt>0</asrwt>
<pdfrwt beam="1">  1        2 0.52599430E-01 0.17827313E+03</pdfrwt>
<pdfrwt beam="2">  1       -2 0.13671806E-01 0.17827313E+03</pdfrwt>
<totfact> 0.37026019E+03</totfact>
</mgrwt>
</event>
<event>
 8    2  0.8128359E-004  0.1423145E+03  0.7818608E-02  0.1222007E+00
          2   -1    0    0  501    0  0.00000000000E+00  0.00000000000E+00  0.66486952411E+02  0.66486952460E+02  0.25500000000E-02 0. -1.
         -2   -1    0    0    0  501 -0.00000000000E+00 -0.00000000000E+00 -0.24868578045E+03  0.24868578046E+03  0.25500000000E-02 0.  1.
         25    2    1    2    0    0  0.42759927721E+02 -0.52977711372E+02 -0.12902168523E+03  0.19209378044E+03  0.12497350081E+03 0.  0.
         23    2    1    2    0    0 -0.42759927721E+02  0.52977711372E+02 -0.53177142805E+02  0.12307895248E+03  0.87667386781E+02 0.  0.
        -11    1    4    4    0    0  0.16377040451E+02  0.11209033066E+02  0.14021393157E+02  0.24299163412E+02  0.51100000000E-03 0. -1.
         11    1    4    4    0    0 -0.59136968172E+02  0.41768678306E+02 -0.67198535961E+02  0.98779789065E+02  0.51100000000E-03 0.  1.
    9000005    1    3    3    0    0  0.47151233958E+02  0.26097434125E+02 -0.87233316486E+02  0.10254251039E+03  0.10000000000E+01 0.  0.
    9000005    1    3    3    0    0 -0.43913062378E+01 -0.79075145497E+02 -0.41788368744E+02  0.89551270053E+02  0.10000000000E+01 0.  0.
<mgrwt>
<rscale>  0 0.13374144E+03</rscale>
<asrwt>0</asrwt>
<pdfrwt beam="1">  1        2 0.10228762E-01 0.14231453E+03</pdfrwt>
<pdfrwt beam="2">  1       -2 0.38259350E-01 0.14231453E+03</pdfrwt>
<totfact> 0.38739004E+03</totfact>
</mgrwt>
</event>
<event>
 8    2  0.8128359E-004  0.1592853E+03  0.7818608E-02  0.1197248E+00
          2   -1    0    0  501    0  0.00000000000E+00  0.00000000000E+00  0.32999885199E+03  0.32999885200E+03  0.25500000000E-02 0.  1.
         -2   -1    0    0    0  501 -0.00000000000E+00 -0.00000000000E+00 -0.66819760022E+02  0.66819760070E+02  0.25500000000E-02 0. -1.
         25    2    1    2    0    0  0.43060282162E+02 -0.88856868141E+02  0.11298574195E+03  0.19528843637E+03  0.12498825777E+03 0.  0.
         23    2    1    2    0    0 -0.43060282162E+02  0.88856868141E+02  0.15019335001E+03  0.20153017570E+03  0.91140761526E+02 0.  0.
        -11    1    4    4    0    0 -0.46965792305E+01  0.14746013794E+02 -0.11695296437E+02  0.19398008617E+02  0.51100000000E-03 0. -1.
         11    1    4    4    0    0 -0.38363702932E+02  0.74110854347E+02  0.16188864645E+03  0.18213216708E+03  0.51100000000E-03 0.  1.
    9000005    1    3    3    0    0 -0.21835295000E+02 -0.81521693084E+02  0.95946256376E+02  0.12778595644E+03  0.10000000000E+01 0.  0.
    9000005    1    3    3    0    0  0.64895577162E+02 -0.73351750572E+01  0.17039485576E+02  0.67502479932E+02  0.10000000000E+01 0.  0.
<mgrwt>
<rscale>  0 0.15265481E+03</rscale>
<asrwt>0</asrwt>
<pdfrwt beam="1">  1        2 0.50769055E-01 0.15928526E+03</pdfrwt>
<pdfrwt beam="2">  1       -2 0.10279963E-01 0.15928526E+03</pdfrwt>
<totfact> 0.60405877E+03</totfact>
</mgrwt>
</event>
<event>
 8    2  0.8128359E-004  0.1448635E+03  0.7818608E-02  0.1217070E+00
         -2   -1    0    0    0  501 -0.00000000000E+00  0.00000000000E+00  0.19329596029E+02  0.19329596197E+02  0.25500000000E-02 0.  1.
          2   -1    0    0  501    0  0.00000000000E+00 -0.00000000000E+00 -0.92541386393E+03  0.92541386393E+03  0.25500000000E-02 0. -1.
         25    2    1    2    0    0 -0.48197171114E+02  0.55091895065E+02 -0.59757844771E+03  0.61488651400E+03  0.12500935858E+03 0.  0.
         23    2    1    2    0    0  0.48197171114E+02 -0.55091895065E+02 -0.30850582019E+03  0.32985694612E+03  0.90948774644E+02 0.  0.
        -11    1    4    4    0    0  0.14882133943E+02 -0.21886147246E+02 -0.26327170827E+03  0.26459870318E+03  0.51100000000E-03 0. -1.
         11    1    4    4    0    0  0.33315037172E+02 -0.33205747819E+02 -0.45234111925E+02  0.65258242942E+02  0.51100000000E-03 0.  1.
    9000005    1    3    3    0    0  0.39382863505E+02  0.21002040776E+01 -0.22820906428E+03  0.23159403666E+03  0.10000000000E+01 0.  0.
    9000005    1    3    3    0    0 -0.87580034620E+02  0.52991690987E+02 -0.36936938343E+03  0.38329247735E+03  0.10000000000E+01 0.  0.
<mgrwt>
<rscale>  0 0.13725564E+03</rscale>
<asrwt>0</asrwt>
<pdfrwt beam="2">  1        2 0.14237133E+00 0.14486347E+03</pdfrwt>
<pdfrwt beam="1">  1       -2 0.29737847E-02 0.14486347E+03</pdfrwt>
<totfact> 0.12095828E+04</totfact>
</mgrwt>
</event>
<event>
 8    2  0.8128359E-004  0.1292791E+03  0.7818608E-02  0.1243233E+00
          2   -1    0    0  501    0  0.00000000000E+00  0.00000000000E+00  0.43231199081E+03  0.43231199082E+03  0.25500000000E-02 0. -1.
         -2   -1    0    0    0  501 -0.00000000000E+00 -0.00000000000E+00 -0.30036508402E+02  0.30036508511E+02  0.25500000000E-02 0.  1.
         25    2    1    2    0    0  0.24962571663E+01  0.32896770646E+02  0.19391030088E+03  0.23305425238E+03  0.12499860379E+03 0.  0.
         23    2    1    2    0    0 -0.24962571663E+01 -0.32896770646E+02  0.20836518153E+03  0.22929424694E+03  0.89840825846E+02 0.  0.
        -11    1    4    4    0    0  0.24072073183E+02 -0.24061126329E+02  0.21312171740E+02  0.40157330241E+02  0.51100000000E-03 0.  1.
         11    1    4    4    0    0 -0.26568330349E+02 -0.88356443173E+01  0.18705300979E+03  0.18913691670E+03  0.51100000000E-03 0. -1.
    9000005    1    3    3    0    0 -0.19754894786E+02  0.50572084309E+02  0.19709776642E+03  0.20444148578E+03  0.10000000000E+01 0.  0.
    9000005    1    3    3    0    0  0.22251151953E+02 -0.17675313662E+02 -0.31874655425E+01  0.28612766606E+02  0.10000000000E+01 0.  0.
<mgrwt>
<rscale>  0 0.11991733E+03</rscale>
<asrwt>0</asrwt>
<pdfrwt beam="1">  1        2 0.66509533E-01 0.12927908E+03</pdfrwt>
<pdfrwt beam="2">  1       -2 0.46210016E-02 0.12927908E+03</pdfrwt>
<totfact> 0.15198998E+04</totfact>
</mgrwt>
</event>
<event>
 8    2  0.8128359E-004  0.2425620E+03  0.7818608E-02  0.1121148E+00
          2   -1    0    0  501    0  0.00000000000E+00  0.00000000000E+00  0.27554755988E+04  0.27554755988E+04  0.25500000000E-02 0. -1.
         -2   -1    0    0    0  501 -0.00000000000E+00 -0.00000000000E+00 -0.30189799827E+02  0.30189799934E+02  0.25500000000E-02 0.  1.
         25    2    1    2    0    0  0.11546636800E+03  0.17283744559E+03  0.58052292924E+03  0.62916071042E+03  0.12502425135E+03 0.  0.
         23    2    1    2    0    0 -0.11546636800E+03 -0.17283744559E+03  0.21447628697E+04  0.21565046883E+04  0.85436752095E+02 0.  0.
        -11    1    4    4    0    0 -0.86428244290E+02 -0.78000129061E+02  0.84800636799E+03  0.85596066597E+03  0.51100000000E-03 0.  1.
         11    1    4    4    0    0 -0.29038123707E+02 -0.94837316527E+02  0.12967565017E+04  0.13005440223E+04  0.51100000000E-03 0. -1.
    9000005    1    3    3    0    0 -0.19144091136E+01  0.73891928153E+02  0.97685794031E+02  0.12250386265E+03  0.10000000000E+01 0.  0.
    9000005    1    3    3    0    0  0.11738077711E+03  0.98945517435E+02  0.48283713521E+03  0.50665684777E+03  0.10000000000E+01 0.  0.
<mgrwt>
<rscale>  0 0.23797622E+03</rscale>
<asrwt>0</asrwt>
<pdfrwt beam="1">  1        2 0.42391935E+00 0.24256201E+03</pdfrwt>
<pdfrwt beam="2">  1       -2 0.46445843E-02 0.24256201E+03</pdfrwt>
<totfact> 0.63690056E+02</totfact>
</mgrwt>
</event>
<event>
 8    2  0.8128359E-004  0.1344373E+03  0.7818608E-02  0.1233521E+00
         -2   -1    0    0    0  501 -0.00000000000E+00  0.00000000000E+00  0.19069101130E+03  0.19069101131E+03  0.25500000000E-02 0.  1.
          2   -1    0    0  501    0  0.00000000000E+00 -0.00000000000E+00 -0.10045830024E+03  0.10045830028E+03  0.25500000000E-02 0. -1.
         25    2    1    2    0    0 -0.29242804401E+02 -0.39909620731E+02  0.12316381377E+03  0.18232583063E+03  0.12500185621E+03 0.  0.
         23    2    1    2    0    0  0.29242804401E+02  0.39909620731E+02 -0.32931102718E+02  0.10882348096E+03  0.91160150542E+02 0.  0.
        -11    1    4    4    0    0 -0.11859752782E+01  0.58384508730E+01 -0.56917130748E+02  0.57228085926E+02  0.51100000000E-03 0. -1.
         11    1    4    4    0    0  0.30428779679E+02  0.34071169858E+02  0.23986028030E+02  0.51595395038E+02  0.51100000000E-03 0.  1.
    9000005    1    3    3    0    0  0.37753030113E+02 -0.52113070611E+02  0.44336393710E+02  0.78152282234E+02  0.10000000000E+01 0.  0.
    9000005    1    3    3    0    0 -0.66995834513E+02  0.12203449880E+02  0.78827420062E+02  0.10417354839E+03  0.10000000000E+01 0.  0.
<mgrwt>
<rscale>  0 0.12599599E+03</rscale>
<asrwt>0</asrwt>
<pdfrwt beam="2">  1        2 0.15455123E-01 0.13443728E+03</pdfrwt>
<pdfrwt beam="1">  1       -2 0.29337078E-01 0.13443728E+03</pdfrwt>
<totfact> 0.38343694E+03</totfact>
</mgrwt>
</event>
<event>
 8    2  0.8128359E-004  0.1358043E+03  0.7818608E-02  0.1231327E+00
         -2   -1    0    0    0  501 -0.00000000000E+00  0.00000000000E+00  0.21392461596E+02  0.21392461748E+02  0.25500000000E-02 0.  1.
          2   -1    0    0  501    0  0.00000000000E+00 -0.00000000000E+00 -0.71131417073E+03  0.71131417074E+03  0.25500000000E-02 0. -1.
         25    2    1    2    0    0  0.14600791900E+02 -0.51034090391E+02 -0.46400023438E+03  0.48346564404E+03  0.12500059984E+03 0.  0.
         23    2    1    2    0    0 -0.14600791900E+02  0.51034090391E+02 -0.22592147476E+03  0.24924098845E+03  0.90900473361E+02 0.  0.
        -11    1    4    4    0    0  0.35675522800E+02  0.11069405125E+02 -0.11673827191E+03  0.12256875126E+03  0.51100000000E-03 0. -1.
         11    1    4    4    0    0 -0.50276314701E+02  0.39964685267E+02 -0.10918320285E+03  0.12667223718E+03  0.51100000000E-03 0.  1.
    9000005    1    3    3    0    0  0.22855631486E+02 -0.90576158144E+02 -0.35908145631E+03  0.37103492097E+03  0.10000000000E+01 0.  0.
    9000005    1    3    3    0    0 -0.82548395859E+01  0.39542067753E+02 -0.10491877807E+03  0.11243072307E+03  0.10000000000E+01 0.  0.
<mgrwt>
<rscale>  0 0.12742521E+03</rscale>
<asrwt>0</asrwt>
<pdfrwt beam="2">  1        2 0.10943293E+00 0.13580431E+03</pdfrwt>
<pdfrwt beam="1">  1       -2 0.32911485E-02 0.13580431E+03</pdfrwt>
<totfact> 0.14431520E+04</totfact>
</mgrwt>
</event>
<event>
 8    2  0.8128359E-004  0.1647460E+03  0.7818608E-02  0.1190266E+00
          2   -1    0    0  501    0  0.00000000000E+00  0.00000000000E+00  0.15288073690E+04  0.15288073690E+04  0.25500000000E-02 0.  1.
         -2   -1    0    0    0  501 -0.00000000000E+00 -0.00000000000E+00 -0.15847734143E+02  0.15847734348E+02  0.25500000000E-02 0. -1.
         25    2    1    2    0    0  0.62154476142E+02 -0.87483123094E+02  0.67450982204E+03  0.69433762193E+03  0.12499902984E+03 0.  0.
         23    2    1    2    0    0 -0.62154476142E+02  0.87483123094E+02  0.83844981282E+03  0.85031748143E+03  0.92332306774E+02 0.  0.
        -11    1    4    4    0    0 -0.38588836379E+02  0.17217322766E+02  0.10576128934E+03  0.11389023145E+03  0.51100000000E-03 0. -1.
         11    1    4    4    0    0 -0.23565639763E+02  0.70265800328E+02  0.73268852348E+03  0.73642724998E+03  0.51100000000E-03 0.  1.
    9000005    1    3    3    0    0 -0.34349985516E+02 -0.16181923232E+02  0.26170674199E+03  0.26444885129E+03  0.10000000000E+01 0.  0.
    9000005    1    3    3    0    0  0.96504461658E+02 -0.71301199861E+02  0.41280308005E+03  0.42988877064E+03  0.10000000000E+01 0.  0.
<mgrwt>
<rscale>  0 0.15861819E+03</rscale>
<asrwt>0</asrwt>
<pdfrwt beam="1">  1        2 0.23520124E+00 0.16474597E+03</pdfrwt>
<pdfrwt beam="2">  1       -2 0.24381119E-02 0.16474597E+03</pdfrwt>
<totfact> 0.74905956E+03</totfact>
</mgrwt>
</event>
<event>
 8    2  0.8128359E-004  0.2284665E+03  0.7818608E-02  0.1130889E+00
         -2   -1    0    0    0  501 -0.00000000000E+00  0.00000000000E+00  0.84087155759E+02  0.84087155798E+02  0.25500000000E-02 0.  1.
          2   -1    0    0  501    0  0.00000000000E+00 -0.00000000000E+00 -0.58177337053E+03  0.58177337053E+03  0.25500000000E-02 0. -1.
         25    2    1    2    0    0  0.18154713768E+03  0.60107162665E+02 -0.29392941393E+03  0.37227869231E+03  0.12499876067E+03 0.  0.
         23    2    1    2    0    0 -0.18154713768E+03 -0.60107162665E+02 -0.20375680084E+03  0.29358183403E+03  0.90006806284E+02 0.  0.
        -11    1    4    4    0    0 -0.43962173450E+02  0.23970331616E+02 -0.45657440349E+02  0.67763200572E+02  0.51100000000E-03 0. -1.
         11    1    4    4    0    0 -0.13758496423E+03 -0.84077494281E+02 -0.15809936049E+03  0.22581863345E+03  0.51100000000E-03 0.  1.
    9000005    1    3    3    0    0  0.67358303756E+02  0.85099756082E+02 -0.11144387449E+03  0.15556299924E+03  0.10000000000E+01 0.  0.
    9000005    1    3    3    0    0  0.11418883392E+03 -0.24992593417E+02 -0.18248553944E+03  0.21671569307E+03  0.10000000000E+01 0.  0.
<mgrwt>
<rscale>  0 0.22406449E+03</rscale>
<asrwt>0</asrwt>
<pdfrwt beam="2">  1        2 0.89503593E-01 0.22846646E+03</pdfrwt>
<pdfrwt beam="1">  1       -2 0.12936486E-01 0.22846646E+03</pdfrwt>
<totfact> 0.22747512E+03</totfact>
</mgrwt>
</event>
<event>
 8    2  0.8128359E-004  0.1522209E+03  0.7818608E-02  0.1206400E+00
         -2   -1    0    0    0  501 -0.00000000000E+00  0.00000000000E+00  0.72125048311E+02  0.72125048356E+02  0.25500000000E-02 0.  1.
          2   -1    0    0  501    0  0.00000000000E+00 -0.00000000000E+00 -0.31227299025E+03  0.31227299026E+03  0.25500000000E-02 0. -1.
         25    2    1    2    0    0  0.72726320150E+02 -0.47532198601E+02 -0.20109310283E+03  0.25220952477E+03  0.12499112301E+03 0.  0.
         23    2    1    2    0    0 -0.72726320150E+02  0.47532198601E+02 -0.39054839113E+02  0.13218851385E+03  0.91652033200E+02 0.  0.
        -11    1    4    4    0    0 -0.33365571123E+02  0.32245260870E+02  0.27079017657E+02  0.53724215978E+02  0.51100000000E-03 0.  1.
         11    1    4    4    0    0 -0.39360749026E+02  0.15286937731E+02 -0.66133856771E+02  0.78464297873E+02  0.51100000000E-03 0. -1.
    9000005    1    3    3    0    0  0.36692348704E+02 -0.18206981491E+02 -0.20161577605E+03  0.20573707439E+03  0.10000000000E+01 0.  0.
    9000005    1    3    3    0    0  0.36033971445E+02 -0.29325217110E+02  0.52267321815E+00  0.46472450376E+02  0.10000000000E+01 0.  0.
<mgrwt>
<rscale>  0 0.14527665E+03</rscale>
<asrwt>0</asrwt>
<pdfrwt beam="2">  1        2 0.48041998E-01 0.15222092E+03</pdfrwt>
<pdfrwt beam="1">  1       -2 0.11096161E-01 0.15222092E+03</pdfrwt>
<totfact> 0.56604796E+03</totfact>
</mgrwt>
</event>
<event>
 8    2  0.8128359E-004  0.2358403E+03  0.7818608E-02  0.1125442E+00
         -2   -1    0    0    0  501 -0.00000000000E+00  0.00000000000E+00  0.30387023719E+02  0.30387023826E+02  0.25500000000E-02 0.  1.
          2   -1    0    0  501    0  0.00000000000E+00 -0.00000000000E+00 -0.17285236943E+04  0.17285236943E+04  0.25500000000E-02 0. -1.
         25    2    1    2    0    0  0.19896536770E+03  0.20236820869E+02 -0.97526044292E+03  0.10033711117E+04  0.12499563951E+03 0.  0.
         23    2    1    2    0    0 -0.19896536770E+03 -0.20236820869E+02 -0.72287622771E+03  0.75553960643E+03  0.91067611332E+02 0.  0.
        -11    1    4    4    0    0 -0.14285173906E+03 -0.83613516471E+01 -0.34754384416E+03  0.37585004345E+03  0.51100000000E-03 0.  1.
         11    1    4    4    0    0 -0.56113628643E+02 -0.11875469222E+02 -0.37533238355E+03  0.37968956297E+03  0.51100000000E-03 0. -1.
    9000005    1    3    3    0    0  0.17618065059E+03  0.36551198758E+02 -0.94554722931E+03  0.96251554514E+03  0.10000000000E+01 0.  0.
    9000005    1    3    3    0    0  0.22784717117E+02 -0.16314377889E+02 -0.29713213609E+02  0.40855566610E+02  0.10000000000E+01 0.  0.
<mgrwt>
<rscale>  0 0.23171052E+03</rscale>
<asrwt>0</asrwt>
<pdfrwt beam="2">  1        2 0.26592664E+00 0.23584032E+03</pdfrwt>
<pdfrwt beam="1">  1       -2 0.46749281E-02 0.23584032E+03</pdfrwt>
<totfact> 0.22409725E+03</totfact>
</mgrwt>
</event>
<event>
 8    2  0.8128359E-004  0.1761761E+03  0.7818608E-02  0.1177365E+00
         -2   -1    0    0    0  501 -0.00000000000E+00  0.00000000000E+00  0.86143319275E+02  0.86143319313E+02  0.25500000000E-02 0.  1.
          2   -1    0    0  501    0  0.00000000000E+00 -0.00000000000E+00 -0.31984639753E+03  0.31984639754E+03  0.25500000000E-02 0. -1.
         25    2    1    2    0    0  0.20927092866E+02 -0.12237996268E+03 -0.10597320371E+03  0.20559267245E+03  0.12499291411E+03 0.  0.
         23    2    1    2    0    0 -0.20927092866E+02  0.12237996268E+03 -0.12772987455E+03  0.20039704441E+03  0.91810980144E+02 0.  0.
        -11    1    4    4    0    0  0.38660580747E+01  0.49409458285E+02  0.18903570936E+01  0.49596516241E+02  0.51100000000E-03 0.  1.
         11    1    4    4    0    0 -0.24793150940E+02  0.72970504396E+02 -0.12962023164E+03  0.15080052817E+03  0.51100000000E-03 0. -1.
    9000005    1    3    3    0    0  0.15865942339E+02 -0.12107316563E+03 -0.13153688675E+03  0.17948089630E+03  0.10000000000E+01 0.  0.
    9000005    1    3    3    0    0  0.50611505269E+01 -0.13067970539E+01  0.25563683035E+02  0.26111776147E+02  0.10000000000E+01 0.  0.
<mgrwt>
<rscale>  0 0.17046405E+03</rscale>
<asrwt>0</asrwt>
<pdfrwt beam="2">  1        2 0.49207138E-01 0.17617613E+03</pdfrwt>
<pdfrwt beam="1">  1       -2 0.13252819E-01 0.17617613E+03</pdfrwt>
<totfact> 0.41804615E+03</totfact>
</mgrwt>
</event>
<event>
 8    2  0.8128359E-004  0.1346279E+03  0.7818608E-02  0.1233386E+00
         -2   -1    0    0    0  501 -0.00000000000E+00  0.00000000000E+00  0.46575533991E+03  0.46575533992E+03  0.25500000000E-02 0.  1.
          2   -1    0    0  501    0  0.00000000000E+00 -0.00000000000E+00 -0.30711277764E+02  0.30711277870E+02  0.25500000000E-02 0. -1.
         25    2    1    2    0    0  0.42497811767E+02  0.26357159427E+02  0.26815053271E+03  0.30004897089E+03  0.12499565143E+03 0.  0.
         23    2    1    2    0    0 -0.42497811767E+02 -0.26357159427E+02  0.16689352943E+03  0.19641764690E+03  0.90695523539E+02 0.  0.
        -11    1    4    4    0    0  0.19266351804E+02  0.10943791762E+02  0.11221919068E+02  0.24837277584E+02  0.51100000000E-03 0. -1.
         11    1    4    4    0    0 -0.61764163572E+02 -0.37300951189E+02  0.15567161037E+03  0.17158036932E+03  0.51100000000E-03 0.  1.
    9000005    1    3    3    0    0  0.66463064589E+02  0.50032018623E+02  0.24608013844E+03  0.25976330837E+03  0.10000000000E+01 0.  0.
    9000005    1    3    3    0    0 -0.23965252822E+02 -0.23674859195E+02  0.22070394276E+02  0.40285662515E+02  0.10000000000E+01 0.  0.
<mgrwt>
<rscale>  0 0.12608352E+03</rscale>
<asrwt>0</asrwt>
<pdfrwt beam="2">  1        2 0.47248121E-02 0.13462792E+03</pdfrwt>
<pdfrwt beam="1">  1       -2 0.71654666E-01 0.13462792E+03</pdfrwt>
<totfact> 0.29364718E+03</totfact>
</mgrwt>
</event>
<event>
 8    2  0.8128359E-004  0.1920896E+03  0.7818608E-02  0.1161530E+00
          2   -1    0    0  501    0  0.00000000000E+00  0.00000000000E+00  0.23604363473E+03  0.23604363474E+03  0.25500000000E-02 0. -1.
         -2   -1    0    0    0  501 -0.00000000000E+00 -0.00000000000E+00 -0.20382118086E+03  0.20382118088E+03  0.25500000000E-02 0.  1.
         25    2    1    2    0    0 -0.13438712900E+03  0.56685086510E+02 -0.10639817553E+03  0.21958824698E+03  0.12500130792E+03 0.  0.
         23    2    1    2    0    0  0.13438712900E+03 -0.56685086510E+02  0.13862062940E+03  0.22027656864E+03  0.89626939714E+02 0.  0.
        -11    1    4    4    0    0  0.90717073483E+02 -0.23578755835E+02  0.13631089487E+03  0.16542734117E+03  0.51100000000E-03 0. -1.
         11    1    4    4    0    0  0.43670055521E+02 -0.33106330675E+02  0.23097345336E+01  0.54849227468E+02  0.51100000000E-03 0.  1.
    9000005    1    3    3    0    0 -0.10124796710E+03  0.25930097347E+02 -0.59106835232E+00  0.10452210366E+03  0.10000000000E+01 0.  0.
    9000005    1    3    3    0    0 -0.33139161900E+02  0.30754989162E+02 -0.10580710718E+03  0.11506614332E+03  0.10000000000E+01 0.  0.
<mgrwt>
<rscale>  0 0.18663697E+03</rscale>
<asrwt>0</asrwt>
<pdfrwt beam="1">  1        2 0.36314405E-01 0.19208963E+03</pdfrwt>
<pdfrwt beam="2">  1       -2 0.31357105E-01 0.19208963E+03</pdfrwt>
<totfact> 0.13285035E+03</totfact>
</mgrwt>
</event>
<event>
 8    2  0.8128359E-004  0.1523099E+03  0.7818608E-02  0.1206583E+00
          2   -1    0    0  501    0  0.00000000000E+00  0.00000000000E+00  0.39367759258E+04  0.39367759258E+04  0.25500000000E-02 0. -1.
         -2   -1    0    0    0  501 -0.00000000000E+00 -0.00000000000E+00 -0.53602920683E+01  0.53602926748E+01  0.25500000000E-02 0.  1.
         25    2    1    2    0    0 -0.60157663332E+02 -0.62864614864E+02  0.15658952568E+04  0.15732851806E+04  0.12500959969E+03 0.  0.
         23    2    1    2    0    0  0.60157663332E+02  0.62864614864E+02  0.23655203769E+04  0.23688510378E+04  0.90541049450E+02 0.  0.
        -11    1    4    4    0    0  0.82153518810E+02  0.58851850325E+02  0.17409976980E+04  0.17439282455E+04  0.51100000000E-03 0.  1.
         11    1    4    4    0    0 -0.21995855478E+02  0.40127645393E+01  0.62452267888E+03  0.62492279232E+03  0.51100000000E-03 0. -1.
    9000005    1    3    3    0    0 -0.64719381595E+02 -0.13158889724E+02  0.33901258187E+03  0.34538715292E+03  0.10000000000E+01 0.  0.
    9000005    1    3    3    0    0  0.45617182626E+01 -0.49705725141E+02  0.12268826750E+04  0.12278980277E+04  0.10000000000E+01 0.  0.
<mgrwt>
<rscale>  0 0.14513434E+03</rscale>
<asrwt>0</asrwt>
<pdfrwt beam="1">  1        2 0.60565997E+00 0.15230990E+03</pdfrwt>
<pdfrwt beam="2">  1       -2 0.82465746E-03 0.15230990E+03</pdfrwt>
<totfact> 0.14543136E+03</totfact>
</mgrwt>
</event>
<event>
 8    2  0.8128359E-004  0.1579032E+03  0.7818608E-02  0.1197895E+00
          2   -1    0    0  501    0  0.00000000000E+00  0.00000000000E+00  0.76191085368E+03  0.76191085369E+03  0.25500000000E-02 0. -1.
         -2   -1    0    0    0  501 -0.00000000000E+00 -0.00000000000E+00 -0.53312092399E+02  0.53312092460E+02  0.25500000000E-02 0.  1.
         25    2    1    2    0    0  0.91944560073E+02 -0.29245579197E+02  0.89793261760E+02  0.18164869185E+03  0.12499724542E+03 0.  0.
         23    2    1    2    0    0 -0.91944560073E+02  0.29245579197E+02  0.61880549952E+03  0.63357425430E+03  0.95848752953E+02 0.  0.
        -11    1    4    4    0    0 -0.52226845733E+02  0.90224272813E+01  0.10290263441E+03  0.11574972906E+03  0.51100000000E-03 0.  1.
         11    1    4    4    0    0 -0.39717714340E+02  0.20223151916E+02  0.51590286511E+03  0.51782452524E+03  0.51100000000E-03 0. -1.
    9000005    1    3    3    0    0  0.95191544617E+02 -0.66852745995E+02  0.49477520828E+02  0.12641101566E+03  0.10000000000E+01 0.  0.
    9000005    1    3    3    0    0 -0.32469845445E+01  0.37607166797E+02  0.40315740932E+02  0.55237676182E+02  0.10000000000E+01 0.  0.
<mgrwt>
<rscale>  0 0.15211715E+03</rscale>
<asrwt>0</asrwt>
<pdfrwt beam="1">  1        2 0.11721705E+00 0.15790319E+03</pdfrwt>
<pdfrwt beam="2">  1       -2 0.82018608E-02 0.15790319E+03</pdfrwt>
<totfact> 0.33728081E+03</totfact>
</mgrwt>
</event>
<event>
 8    2  0.8128359E-004  0.1501676E+03  0.7818608E-02  0.1209692E+00
         -2   -1    0    0    0  501 -0.00000000000E+00  0.00000000000E+00  0.57364531006E+02  0.57364531063E+02  0.25500000000E-02 0.  1.
          2   -1    0    0  501    0  0.00000000000E+00 -0.00000000000E+00 -0.60415544887E+03  0.60415544888E+03  0.25500000000E-02 0. -1.
         25    2    1    2    0    0  0.18385599052E+02 -0.81154571780E+02 -0.51276754448E+03  0.53430409502E+03  0.12500486595E+03 0.  0.
         23    2    1    2    0    0 -0.18385599052E+02  0.81154571780E+02 -0.34023373389E+02  0.12721588492E+03  0.90012202877E+02 0.  0.
        -11    1    4    4    0    0 -0.83227241862E+01  0.33201592947E+02 -0.61980232262E+02  0.70803691314E+02  0.51100000000E-03 0. -1.
         11    1    4    4    0    0 -0.10062874865E+02  0.47952978833E+02  0.27956858873E+02  0.56412193610E+02  0.51100000000E-03 0.  1.
    9000005    1    3    3    0    0  0.22620402811E+02  0.96954086914E+01 -0.16212603350E+02  0.29487829361E+02  0.10000000000E+01 0.  0.
    9000005    1    3    3    0    0 -0.42348037596E+01 -0.90849980471E+02 -0.49655494113E+03  0.50481626566E+03  0.10000000000E+01 0.  0.
<mgrwt>
<rscale>  0 0.14273769E+03</rscale>
<asrwt>0</asrwt>
<pdfrwt beam="2">  1        2 0.92946988E-01 0.15016761E+03</pdfrwt>
<pdfrwt beam="1">  1       -2 0.88253129E-02 0.15016761E+03</pdfrwt>
<totfact> 0.39530924E+03</totfact>
</mgrwt>
</event>
<event>
 8    2  0.8128359E-004  0.1475301E+03  0.7818608E-02  0.1213239E+00
         -2   -1    0    0    0  501 -0.00000000000E+00  0.00000000000E+00  0.13176163820E+02  0.13176164067E+02  0.25500000000E-02 0.  1.
          2   -1    0    0  501    0  0.00000000000E+00 -0.00000000000E+00 -0.13658082805E+04  0.13658082805E+04  0.25500000000E-02 0. -1.
         25    2    1    2    0    0 -0.78003972535E+02  0.74309343682E+01 -0.68959992582E+03  0.70520436378E+03  0.12500119393E+03 0.  0.
         23    2    1    2    0    0  0.78003972535E+02 -0.74309343682E+01 -0.66303219088E+03  0.67378008081E+03  0.90708724156E+02 0.  0.
        -11    1    4    4    0    0  0.16027871715E+02  0.18316080272E+02 -0.37809766464E+02  0.44966097324E+02  0.51100000000E-03 0.  1.
         11    1    4    4    0    0  0.61976100820E+02 -0.25747014641E+02 -0.62522242441E+03  0.62881398348E+03  0.51100000000E-03 0. -1.
    9000005    1    3    3    0    0 -0.51944797306E+02 -0.55335615371E+02 -0.28496111746E+03  0.29489681375E+03  0.10000000000E+01 0.  0.
    9000005    1    3    3    0    0 -0.26059175229E+02  0.62766549739E+02 -0.40463880836E+03  0.41030755003E+03  0.10000000000E+01 0.  0.
<mgrwt>
<rscale>  0 0.14006665E+03</rscale>
<asrwt>0</asrwt>
<pdfrwt beam="2">  1        2 0.21012424E+00 0.14753012E+03</pdfrwt>
<pdfrwt beam="1">  1       -2 0.20271032E-02 0.14753012E+03</pdfrwt>
<totfact> 0.11908476E+04</totfact>
</mgrwt>
</event>
<event>
 8    2  0.8128359E-004  0.2666600E+03  0.7818608E-02  0.1105335E+00
         -2   -1    0    0    0  501 -0.00000000000E+00  0.00000000000E+00  0.58915503848E+02  0.58915503903E+02  0.25500000000E-02 0. -1.
          2   -1    0    0  501    0  0.00000000000E+00 -0.00000000000E+00 -0.11436710781E+04  0.11436710781E+04  0.25500000000E-02 0.  1.
         25    2    1    2    0    0 -0.23338796135E+03  0.31817600110E+02 -0.56581047851E+03  0.62549903168E+03  0.12500096344E+03 0.  0.
         23    2    1    2    0    0  0.23338796135E+03 -0.31817600110E+02 -0.51894509578E+03  0.57708755036E+03  0.90794978780E+02 0.  0.
        -11    1    4    4    0    0  0.81259887426E+02 -0.55038853464E+02 -0.21820079301E+03  0.23925724810E+03  0.51100000000E-03 0. -1.
         11    1    4    4    0    0  0.15212807392E+03  0.23221253354E+02 -0.30074430276E+03  0.33783030226E+03  0.51100000000E-03 0.  1.
    9000005    1    3    3    0    0 -0.14767853035E+03 -0.76085827123E+01 -0.20637240564E+03  0.25388463653E+03  0.10000000000E+01 0.  0.
    9000005    1    3    3    0    0 -0.85709431002E+02  0.39426182823E+02 -0.35943807286E+03  0.37161439514E+03  0.10000000000E+01 0.  0.
<mgrwt>
<rscale>  0 0.26303163E+03</rscale>
<asrwt>0</asrwt>
<pdfrwt beam="2">  1        2 0.17594938E+00 0.26665997E+03</pdfrwt>
<pdfrwt beam="1">  1       -2 0.90639245E-02 0.26665997E+03</pdfrwt>
<totfact> 0.16717882E+03</totfact>
</mgrwt>
</event>
<event>
 8    2  0.8128359E-004  0.1301948E+03  0.7818608E-02  0.1241450E+00
          2   -1    0    0  501    0  0.00000000000E+00  0.00000000000E+00  0.15157487465E+03  0.15157487467E+03  0.25500000000E-02 0. -1.
         -2   -1    0    0    0  501 -0.00000000000E+00 -0.00000000000E+00 -0.85440220423E+02  0.85440220462E+02  0.25500000000E-02 0.  1.
         25    2    1    2    0    0  0.33087138539E+02 -0.15204167223E+02  0.32233185471E+02  0.13412551508E+03  0.12499900044E+03 0.  0.
         23    2    1    2    0    0 -0.33087138539E+02  0.15204167223E+02  0.33901468754E+02  0.10288958005E+03  0.90061260608E+02 0.  0.
        -11    1    4    4    0    0 -0.57121211779E+02 -0.43323936738E+01  0.41813378381E+02  0.70922218535E+02  0.51100000000E-03 0. -1.
         11    1    4    4    0    0  0.24034073240E+02  0.19536560897E+02 -0.79119096278E+01  0.31967361518E+02  0.51100000000E-03 0.  1.
    9000005    1    3    3    0    0  0.50139743857E+02  0.57164466263E+01 -0.35165581571E+02  0.61516581531E+02  0.10000000000E+01 0.  0.
    9000005    1    3    3    0    0 -0.17052605319E+02 -0.20920613850E+02  0.67398767042E+02  0.72608933547E+02  0.10000000000E+01 0.  0.
<mgrwt>
<rscale>  0 0.12100383E+03</rscale>
<asrwt>0</asrwt>
<pdfrwt beam="1">  1        2 0.23319212E-01 0.13019476E+03</pdfrwt>
<pdfrwt beam="2">  1       -2 0.13144649E-01 0.13019476E+03</pdfrwt>
<totfact> 0.93168041E+03</totfact>
</mgrwt>
</event>
<event>
 8    2  0.8128359E-004  0.1319824E+03  0.7818608E-02  0.1236497E+00
          2   -1    0    0  501    0  0.00000000000E+00  0.00000000000E+00  0.34531844160E+04  0.34531844160E+04  0.25500000000E-02 0. -1.
         -2   -1    0    0    0  501 -0.00000000000E+00 -0.00000000000E+00 -0.45483258725E+01  0.45483265873E+01  0.25500000000E-02 0.  1.
         25    2    1    2    0    0  0.42312378860E+02  0.21008022514E+01  0.13153588897E+04  0.13219638291E+04  0.12499842359E+03 0.  0.
         23    2    1    2    0    0 -0.42312378860E+02 -0.21008022514E+01  0.21332772004E+04  0.21357689135E+04  0.94034500485E+02 0.  0.
        -11    1    4    4    0    0 -0.35230357183E+02 -0.17134422870E+02  0.20692318415E+04  0.20696026624E+04  0.51100000000E-03 0. -1.
         11    1    4    4    0    0 -0.70820216768E+01  0.15033620618E+02  0.64045358919E+02  0.66166251060E+02  0.51100000000E-03 0.  1.
    9000005    1    3    3    0    0 -0.23716126207E+01  0.57847659359E+02  0.72201150808E+03  0.72432975504E+03  0.10000000000E+01 0.  0.
    9000005    1    3    3    0    0  0.44683991481E+02 -0.55746857108E+02  0.59334738161E+03  0.59763407402E+03  0.10000000000E+01 0.  0.
<mgrwt>
<rscale>  0 0.12409110E+03</rscale>
<asrwt>0</asrwt>
<pdfrwt beam="1">  1        2 0.53126263E+00 0.13198241E+03</pdfrwt>
<pdfrwt beam="2">  1       -2 0.69973790E-03 0.13198241E+03</pdfrwt>
<totfact> 0.39602183E+03</totfact>
</mgrwt>
</event>
<event>
 8    2  0.8128359E-004  0.1444526E+03  0.7818608E-02  0.1217575E+00
         -2   -1    0    0    0  501 -0.00000000000E+00  0.00000000000E+00  0.25668756231E+02  0.25668756358E+02  0.25500000000E-02 0. -1.
          2   -1    0    0  501    0  0.00000000000E+00 -0.00000000000E+00 -0.76065252361E+03  0.76065252361E+03  0.25500000000E-02 0.  1.
         25    2    1    2    0    0 -0.71855180183E+02  0.88376612067E+01 -0.26180872726E+03  0.29901564053E+03  0.12500108974E+03 0.  0.
         23    2    1    2    0    0  0.71855180183E+02 -0.88376612067E+01 -0.47317504011E+03  0.48730563944E+03  0.91273744692E+02 0.  0.
        -11    1    4    4    0    0  0.40576907039E+02 -0.81565262181E+01 -0.43910105696E+03  0.44104733593E+03  0.51100000000E-03 0.  1.
         11    1    4    4    0    0  0.31278273144E+02 -0.68113498860E+00 -0.34073983151E+02  0.46258303511E+02  0.51100000000E-03 0. -1.
    9000005    1    3    3    0    0 -0.71283364147E+02 -0.48335043530E+02 -0.17527159827E+03  0.19529139151E+03  0.10000000000E+01 0.  0.
    9000005    1    3    3    0    0 -0.57181603590E+00  0.57172704737E+02 -0.86537128987E+02  0.10372424901E+03  0.10000000000E+01 0.  0.
<mgrwt>
<rscale>  0 0.13689106E+03</rscale>
<asrwt>0</asrwt>
<pdfrwt beam="2">  1        2 0.11702345E+00 0.14445257E+03</pdfrwt>
<pdfrwt beam="1">  1       -2 0.39490400E-02 0.14445257E+03</pdfrwt>
<totfact> 0.10201957E+04</totfact>
</mgrwt>
</event>
<event>
 8    2  0.8128359E-004  0.2181935E+03  0.7818608E-02  0.1139563E+00
          2   -1    0    0  501    0  0.00000000000E+00  0.00000000000E+00  0.69521686057E+03  0.69521686057E+03  0.25500000000E-02 0. -1.
         -2   -1    0    0    0  501 -0.00000000000E+00 -0.00000000000E+00 -0.91127364643E+02  0.91127364678E+02  0.25500000000E-02 0.  1.
         25    2    1    2    0    0 -0.13580020260E+03  0.11636720528E+03  0.90067503148E+02  0.23605201026E+03  0.12500149973E+03 0.  0.
         23    2    1    2    0    0  0.13580020260E+03 -0.11636720528E+03  0.51402199278E+03  0.55029221499E+03  0.81362714617E+02 0.  0.
        -11    1    4    4    0    0  0.79997796656E+02 -0.69607142900E+02  0.18431181832E+03  0.21263971451E+03  0.51100000000E-03 0.  1.
         11    1    4    4    0    0  0.55802405946E+02 -0.46760062377E+02  0.32971017445E+03  0.33765250048E+03  0.51100000000E-03 0. -1.
    9000005    1    3    3    0    0 -0.37150352043E+02  0.26903067948E+02  0.92059140064E+02  0.10285819846E+03  0.10000000000E+01 0.  0.
    9000005    1    3    3    0    0 -0.98649850559E+02  0.89464137329E+02 -0.19916369157E+01  0.13319381180E+03  0.10000000000E+01 0.  0.
<mgrwt>
<rscale>  0 0.21254889E+03</rscale>
<asrwt>0</asrwt>
<pdfrwt beam="1">  1        2 0.10695644E+00 0.21819348E+03</pdfrwt>
<pdfrwt beam="2">  1       -2 0.14019594E-01 0.21819348E+03</pdfrwt>
<totfact> 0.16157963E+03</totfact>
</mgrwt>
</event>
<event>
 8    2  0.8128359E-004  0.1307857E+03  0.7818608E-02  0.1232391E+00
          2   -1    0    0  501    0  0.00000000000E+00  0.00000000000E+00  0.80273386394E+03  0.80273386395E+03  0.25500000000E-02 0. -1.
         -2   -1    0    0    0  501 -0.00000000000E+00 -0.00000000000E+00 -0.21258526343E+02  0.21258526496E+02  0.25500000000E-02 0.  1.
         25    2    1    2    0    0 -0.21818048333E+02 -0.31781651973E+02  0.55070443281E+03  0.56602144997E+03  0.12497523304E+03 0.  0.
         23    2    1    2    0    0  0.21818048333E+02  0.31781651973E+02  0.23077090479E+03  0.25797094047E+03  0.10866321823E+03 0.  0.
        -11    1    4    4    0    0  0.63744336929E+02  0.16528211777E+02  0.99432312328E+02  0.11926150683E+03  0.51100000000E-03 0. -1.
         11    1    4    4    0    0 -0.41926288596E+02  0.15253440195E+02  0.13133859246E+03  0.13870943365E+03  0.51100000000E-03 0.  1.
    9000005    1    3    3    0    0  0.24929206333E+00  0.24662637604E+01 -0.66562042228E+01  0.71728417049E+01  0.10000000000E+01 0.  0.
    9000005    1    3    3    0    0 -0.22067340397E+02 -0.34247915733E+02  0.55736063704E+03  0.55884860827E+03  0.10000000000E+01 0.  0.
<mgrwt>
<rscale>  0 0.12672912E+03</rscale>
<asrwt>0</asrwt>
<pdfrwt beam="1">  1        2 0.12349754E+00 0.13078574E+03</pdfrwt>
<pdfrwt beam="2">  1       -2 0.32705419E-02 0.13078574E+03</pdfrwt>
<totfact> 0.12539385E+04</totfact>
</mgrwt>
</event>
<event>
 8    2  0.8128359E-004  0.1323112E+03  0.7818608E-02  0.1236729E+00
          2   -1    0    0  501    0  0.00000000000E+00  0.00000000000E+00  0.42795407305E+03  0.42795407306E+03  0.25500000000E-02 0.  1.
         -2   -1    0    0    0  501 -0.00000000000E+00 -0.00000000000E+00 -0.32205813866E+02  0.32205813967E+02  0.25500000000E-02 0. -1.
         25    2    1    2    0    0 -0.35683084027E+02 -0.24654752931E+02  0.20710940381E+03  0.24576525829E+03  0.12500047083E+03 0.  0.
         23    2    1    2    0    0  0.35683084027E+02  0.24654752931E+02  0.18863885537E+03  0.21439462873E+03  0.92191646838E+02 0.  0.
        -11    1    4    4    0    0  0.40922985723E+02 -0.12862094493E+02  0.32750202268E+02  0.53969435647E+02  0.51100000000E-03 0. -1.
         11    1    4    4    0    0 -0.52399016966E+01  0.37516847423E+02  0.15588865310E+03  0.16042519309E+03  0.51100000000E-03 0.  1.
    9000005    1    3    3    0    0 -0.35354189027E+02 -0.57927135900E+02  0.20069918394E+03  0.21186466008E+03  0.10000000000E+01 0.  0.
    9000005    1    3    3    0    0 -0.32889499987E+00  0.33272382969E+02  0.64102198714E+01  0.33900598213E+02  0.10000000000E+01 0.  0.
<mgrwt>
<rscale>  0 0.12394370E+03</rscale>
<asrwt>0</asrwt>
<pdfrwt beam="1">  1        2 0.65839085E-01 0.13231121E+03</pdfrwt>
<pdfrwt beam="2">  1       -2 0.49547409E-02 0.13231121E+03</pdfrwt>
<totfact> 0.13868970E+04</totfact>
</mgrwt>
</event>
<event>
 8    2  0.8128359E-004  0.1357435E+03  0.7818608E-02  0.1230567E+00
         -2   -1    0    0    0  501 -0.00000000000E+00  0.00000000000E+00  0.16371447866E+02  0.16371448064E+02  0.25500000000E-02 0.  1.
          2   -1    0    0  501    0  0.00000000000E+00 -0.00000000000E+00 -0.90516269327E+03  0.90516269327E+03  0.25500000000E-02 0. -1.
         25    2    1    2    0    0  0.10110148077E+02  0.51986761387E+02 -0.46312948250E+03  0.48261290960E+03  0.12498585719E+03 0.  0.
         23    2    1    2    0    0 -0.10110148077E+02 -0.51986761387E+02 -0.42566176290E+03  0.43892123174E+03  0.93054139185E+02 0.  0.
        -11    1    4    4    0    0  0.33902295137E+02 -0.24541824674E-01 -0.84837079473E+02  0.91360255426E+02  0.51100000000E-03 0.  1.
         11    1    4    4    0    0 -0.44012443214E+02 -0.51962219562E+02 -0.34082468343E+03  0.34756097631E+03  0.51100000000E-03 0. -1.
    9000005    1    3    3    0    0  0.18083983212E+01 -0.40688089263E+02 -0.10598796015E+03  0.11354839765E+03  0.10000000000E+01 0.  0.
    9000005    1    3    3    0    0  0.83017497562E+01  0.92674850651E+02 -0.35714152235E+03  0.36906451195E+03  0.10000000000E+01 0.  0.
<mgrwt>
<rscale>  0 0.12792515E+03</rscale>
<asrwt>0</asrwt>
<pdfrwt beam="2">  1        2 0.13925576E+00 0.13574352E+03</pdfrwt>
<pdfrwt beam="1">  1       -2 0.25186850E-02 0.13574352E+03</pdfrwt>
<totfact> 0.15822115E+04</totfact>
</mgrwt>
</event>
<event>
 8    2  0.8128359E-004  0.1458318E+03  0.7818608E-02  0.1215441E+00
         -2   -1    0    0    0  501 -0.00000000000E+00  0.00000000000E+00  0.81383502022E+02  0.81383502062E+02  0.25500000000E-02 0.  1.
          2   -1    0    0  501    0  0.00000000000E+00 -0.00000000000E+00 -0.21743495849E+03  0.21743495850E+03  0.25500000000E-02 0. -1.
         25    2    1    2    0    0 -0.45780845985E+02 -0.59549561113E+02 -0.92108409836E+02  0.17248438952E+03  0.12499947750E+03 0.  0.
         23    2    1    2    0    0  0.45780845985E+02  0.59549561113E+02 -0.43943046628E+02  0.12633407105E+03  0.91582040120E+02 0.  0.
        -11    1    4    4    0    0 -0.15882950594E+02  0.30611606039E+02 -0.46828033066E+02  0.58156712639E+02  0.51100000000E-03 0. -1.
         11    1    4    4    0    0  0.61663796580E+02  0.28937955075E+02  0.28849864386E+01  0.68177358408E+02  0.51100000000E-03 0.  1.
    9000005    1    3    3    0    0  0.29334588579E+02 -0.64155215582E+02 -0.43216878971E+02  0.82735170281E+02  0.10000000000E+01 0.  0.
    9000005    1    3    3    0    0 -0.75115434564E+02  0.46056544687E+01 -0.48891530865E+02  0.89749219235E+02  0.10000000000E+01 0.  0.
<mgrwt>
<rscale>  0 0.13844225E+03</rscale>
<asrwt>0</asrwt>
<pdfrwt beam="2">  1        2 0.33451532E-01 0.14583177E+03</pdfrwt>
<pdfrwt beam="1">  1       -2 0.12520539E-01 0.14583177E+03</pdfrwt>
<totfact> 0.68502852E+03</totfact>
</mgrwt>
</event>
<event>
 8    2  0.8128359E-004  0.2275728E+03  0.7818608E-02  0.1131497E+00
         -2   -1    0    0    0  501 -0.00000000000E+00  0.00000000000E+00  0.23094986155E+02  0.23094986296E+02  0.25500000000E-02 0.  1.
          2   -1    0    0  501    0  0.00000000000E+00 -0.00000000000E+00 -0.29910005812E+04  0.29910005813E+04  0.25500000000E-02 0. -1.
         25    2    1    2    0    0  0.18306678406E+03 -0.51487611693E+02 -0.69203423631E+03  0.72849212062E+03  0.12499985594E+03 0.  0.
         23    2    1    2    0    0 -0.18306678406E+03  0.51487611693E+02 -0.22758713588E+04  0.22856034469E+04  0.90709720059E+02 0.  0.
        -11    1    4    4    0    0 -0.49953842758E+02  0.11775050787E+02 -0.26401404603E+03  0.26895623200E+03  0.51100000000E-03 0.  1.
         11    1    4    4    0    0 -0.13311294130E+03  0.39712560906E+02 -0.20118573127E+04  0.20166472149E+04  0.51100000000E-03 0. -1.
    9000005    1    3    3    0    0  0.39197482355E+02 -0.72250824551E+02 -0.24772761190E+03  0.26101071619E+03  0.10000000000E+01 0.  0.
    9000005    1    3    3    0    0  0.14386930170E+03  0.20763212858E+02 -0.44430662442E+03  0.46748140442E+03  0.10000000000E+01 0.  0.
<mgrwt>
<rscale>  0 0.22323084E+03</rscale>
<asrwt>0</asrwt>
<pdfrwt beam="2">  1        2 0.46015363E+00 0.22757281E+03</pdfrwt>
<pdfrwt beam="1">  1       -2 0.35530772E-02 0.22757281E+03</pdfrwt>
<totfact> 0.70003625E+02</totfact>
</mgrwt>
</event>
<event>
 8    2  0.8128359E-004  0.1482442E+03  0.7818608E-02  0.1210227E+00
         -2   -1    0    0    0  501 -0.00000000000E+00  0.00000000000E+00  0.56316836982E+02  0.56316837040E+02  0.25500000000E-02 0.  1.
          2   -1    0    0  501    0  0.00000000000E+00 -0.00000000000E+00 -0.47185152255E+03  0.47185152256E+03  0.25500000000E-02 0. -1.
         25    2    1    2    0    0  0.98415374906E+01  0.79090020154E+02 -0.36222095245E+03  0.39138262760E+03  0.12499702254E+03 0.  0.
         23    2    1    2    0    0 -0.98415374906E+01 -0.79090020154E+02 -0.53313733121E+02  0.13678573200E+03  0.97549449985E+02 0.  0.
        -11    1    4    4    0    0 -0.35417467144E+02 -0.41484110208E+02 -0.69645138722E+02  0.88463403317E+02  0.51100000000E-03 0. -1.
         11    1    4    4    0    0  0.25575929654E+02 -0.37605909946E+02  0.16331405600E+02  0.48322328686E+02  0.51100000000E-03 0.  1.
    9000005    1    3    3    0    0  0.26047006225E+02  0.63390837874E+02 -0.36237202397E+03  0.36879713748E+03  0.10000000000E+01 0.  0.
    9000005    1    3    3    0    0 -0.16205468734E+02  0.15699182280E+02  0.15107151850E+00  0.22585490115E+02  0.10000000000E+01 0.  0.
<mgrwt>
<rscale>  0 0.14233067E+03</rscale>
<asrwt>0</asrwt>
<pdfrwt beam="2">  1        2 0.72592539E-01 0.14824420E+03</pdfrwt>
<pdfrwt beam="1">  1       -2 0.86641291E-02 0.14824420E+03</pdfrwt>
<totfact> 0.53567687E+03</totfact>
</mgrwt>
</event>
<event>
 8    2  0.8128359E-004  0.1427324E+03  0.7818608E-02  0.1224239E+00
         -2   -1    0    0    0  501 -0.00000000000E+00  0.00000000000E+00  0.28521776241E+02  0.28521776355E+02  0.25500000000E-02 0.  1.
          2   -1    0    0  501    0  0.00000000000E+00 -0.00000000000E+00 -0.54600001006E+03  0.54600001006E+03  0.25500000000E-02 0. -1.
         25    2    1    2    0    0 -0.59161519681E+02  0.35329511409E+02 -0.26317627717E+03  0.29938985650E+03  0.12499709405E+03 0.  0.
         23    2    1    2    0    0  0.59161519681E+02 -0.35329511409E+02 -0.25430195665E+03  0.27513192992E+03  0.79245403149E+02 0.  0.
        -11    1    4    4    0    0  0.46460311792E+02 -0.32579241398E+01 -0.51578956515E+02  0.69495060234E+02  0.51100000000E-03 0.  1.
         11    1    4    4    0    0  0.12701207889E+02 -0.32071587270E+02 -0.20272300013E+03  0.20563686969E+03  0.51100000000E-03 0. -1.
    9000005    1    3    3    0    0  0.33336155005E+02 -0.15725844214E+02 -0.61283179261E+02  0.71520832399E+02  0.10000000000E+01 0.  0.
    9000005    1    3    3    0    0 -0.92497674686E+02  0.51055355624E+02 -0.20189309791E+03  0.22786902410E+03  0.10000000000E+01 0.  0.
<mgrwt>
<rscale>  0 0.13219178E+03</rscale>
<asrwt>0</asrwt>
<pdfrwt beam="2">  1        2 0.83999994E-01 0.14273238E+03</pdfrwt>
<pdfrwt beam="1">  1       -2 0.43879660E-02 0.14273238E+03</pdfrwt>
<totfact> 0.12816584E+04</totfact>
</mgrwt>
</event>
<event>
 8    2  0.8128359E-004  0.1298509E+03  0.7818608E-02  0.1241723E+00
         -2   -1    0    0    0  501 -0.00000000000E+00  0.00000000000E+00  0.15775072091E+02  0.15775072297E+02  0.25500000000E-02 0.  1.
          2   -1    0    0  501    0  0.00000000000E+00 -0.00000000000E+00 -0.89274720411E+03  0.89274720411E+03  0.25500000000E-02 0. -1.
         25    2    1    2    0    0 -0.29430331153E+02 -0.19229904858E+02 -0.62588863277E+03  0.63921657479E+03  0.12500126091E+03 0.  0.
         23    2    1    2    0    0  0.29430331153E+02  0.19229904858E+02 -0.25108349925E+03  0.26930570161E+03  0.90811363250E+02 0.  0.
        -11    1    4    4    0    0  0.79074115113E+01  0.43682354539E+02 -0.55704491634E+02  0.71229668280E+02  0.51100000000E-03 0.  1.
         11    1    4    4    0    0  0.21522919642E+02 -0.24452449681E+02 -0.19537900761E+03  0.19807603333E+03  0.51100000000E-03 0. -1.
    9000005    1    3    3    0    0 -0.26851778010E+02 -0.35248971338E+02 -0.62051416166E+03  0.62209511554E+03  0.10000000000E+01 0.  0.
    9000005    1    3    3    0    0 -0.25785531433E+01  0.16019066481E+02 -0.53744711128E+01  0.17121459254E+02  0.10000000000E+01 0.  0.
<mgrwt>
<rscale>  0 0.12083696E+03</rscale>
<asrwt>0</asrwt>
<pdfrwt beam="2">  1        2 0.13734568E+00 0.12985087E+03</pdfrwt>
<pdfrwt beam="1">  1       -2 0.24269349E-02 0.12985087E+03</pdfrwt>
<totfact> 0.16952973E+04</totfact>
</mgrwt>
</event>
<event>
 8    2  0.8128359E-004  0.1494461E+03  0.7818608E-02  0.1210654E+00
          2   -1    0    0  501    0  0.00000000000E+00  0.00000000000E+00  0.16847768021E+04  0.16847768021E+04  0.25500000000E-02 0. -1.
         -2   -1    0    0    0  501 -0.00000000000E+00 -0.00000000000E+00 -0.14333850554E+02  0.14333850781E+02  0.25500000000E-02 0.  1.
         25    2    1    2    0    0 -0.31960044760E+02 -0.75415606249E+02  0.48704820624E+03  0.50946057939E+03  0.12500067450E+03 0.  0.
         23    2    1    2    0    0  0.31960044760E+02  0.75415606249E+02  0.11833947453E+04  0.11896500735E+04  0.90195432338E+02 0.  0.
        -11    1    4    4    0    0  0.43195672121E+02  0.58354257437E+02  0.43807677127E+03  0.44405218498E+03  0.51100000000E-03 0.  1.
         11    1    4    4    0    0 -0.11235627361E+02  0.17061348812E+02  0.74531797403E+03  0.74559788852E+03  0.51100000000E-03 0. -1.
    9000005    1    3    3    0    0 -0.78141059835E+02 -0.37685288470E+02  0.23651096174E+03  0.25192189509E+03  0.10000000000E+01 0.  0.
    9000005    1    3    3    0    0  0.46181015076E+02 -0.37730317779E+02  0.25053724449E+03  0.25753868430E+03  0.10000000000E+01 0.  0.
<mgrwt>
<rscale>  0 0.14200638E+03</rscale>
<asrwt>0</asrwt>
<pdfrwt beam="1">  1        2 0.25919624E+00 0.14944607E+03</pdfrwt>
<pdfrwt beam="2">  1       -2 0.22052094E-02 0.14944607E+03</pdfrwt>
<totfact> 0.71805911E+03</totfact>
</mgrwt>
</event>
<event>
 8    2  0.8128359E-004  0.1277584E+03  0.7818608E-02  0.1245408E+00
          2   -1    0    0  501    0  0.00000000000E+00  0.00000000000E+00  0.12167240077E+03  0.12167240079E+03  0.25500000000E-02 0.  1.
         -2   -1    0    0    0  501 -0.00000000000E+00 -0.00000000000E+00 -0.10807667783E+03  0.10807667786E+03  0.25500000000E-02 0. -1.
         25    2    1    2    0    0  0.18015357150E+01  0.26327605421E+02 -0.19490786883E+02  0.12923664661E+03  0.12500332682E+03 0.  0.
         23    2    1    2    0    0 -0.18015357150E+01 -0.26327605421E+02  0.33086509817E+02  0.10051243205E+03  0.91168215551E+02 0.  0.
        -11    1    4    4    0    0 -0.45507164573E+02 -0.16774427398E+02  0.26574091600E+02  0.55303397605E+02  0.51100000000E-03 0.  1.
         11    1    4    4    0    0  0.43705628858E+02 -0.95531780234E+01  0.65124182172E+01  0.45209034446E+02  0.51100000000E-03 0. -1.
    9000005    1    3    3    0    0 -0.30199396649E+01  0.42183457215E+02  0.45518369329E+02  0.62140856484E+02  0.10000000000E+01 0.  0.
    9000005    1    3    3    0    0  0.48214753799E+01 -0.15855851794E+02 -0.65009156212E+02  0.67095790124E+02  0.10000000000E+01 0.  0.
<mgrwt>
<rscale>  0 0.11860990E+03</rscale>
<asrwt>0</asrwt>
<pdfrwt beam="1">  1        2 0.18718831E-01 0.12775844E+03</pdfrwt>
<pdfrwt beam="2">  1       -2 0.16627181E-01 0.12775844E+03</pdfrwt>
<totfact> 0.81185466E+03</totfact>
</mgrwt>
</event>
<event>
 8    2  0.8128359E-004  0.1285849E+03  0.7818608E-02  0.1243790E+00
         -2   -1    0    0    0  501 -0.00000000000E+00  0.00000000000E+00  0.36614424486E+03  0.36614424487E+03  0.25500000000E-02 0.  1.
          2   -1    0    0  501    0  0.00000000000E+00 -0.00000000000E+00 -0.39765883193E+02  0.39765883275E+02  0.25500000000E-02 0. -1.
         25    2    1    2    0    0  0.20959264828E+02  0.21681796830E+02  0.11036867977E+03  0.16945596673E+03  0.12499875235E+03 0.  0.
         23    2    1    2    0    0 -0.20959264828E+02 -0.21681796830E+02  0.21600968190E+03  0.23645416141E+03  0.91329057153E+02 0.  0.
        -11    1    4    4    0    0 -0.22089111185E+02  0.22048844737E+02  0.23584467113E+02  0.39119144628E+02  0.51100000000E-03 0. -1.
         11    1    4    4    0    0  0.11298463573E+01 -0.43730641567E+02  0.19242521478E+03  0.19733501679E+03  0.51100000000E-03 0.  1.
    9000005    1    3    3    0    0 -0.11648783161E+02  0.69488881500E+02  0.55407369233E+02  0.89640255280E+02  0.10000000000E+01 0.  0.
    9000005    1    3    3    0    0  0.32608047988E+02 -0.47807084670E+02  0.54961310535E+02  0.79815711448E+02  0.10000000000E+01 0.  0.
<mgrwt>
<rscale>  0 0.11958109E+03</rscale>
<asrwt>0</asrwt>
<pdfrwt beam="2">  1        2 0.61178281E-02 0.12858491E+03</pdfrwt>
<pdfrwt beam="1">  1       -2 0.56329884E-01 0.12858491E+03</pdfrwt>
<totfact> 0.34520320E+03</totfact>
</mgrwt>
</event>
<event>
 8    2  0.8128359E-004  0.2786764E+03  0.7818608E-02  0.1098500E+00
          2   -1    0    0  501    0  0.00000000000E+00  0.00000000000E+00  0.17335502305E+04  0.17335502305E+04  0.25500000000E-02 0.  1.
         -2   -1    0    0    0  501 -0.00000000000E+00 -0.00000000000E+00 -0.42777488311E+02  0.42777488387E+02  0.25500000000E-02 0. -1.
         25    2    1    2    0    0  0.23683879508E+03 -0.77092806297E+02  0.94475815877E+03  0.98500177590E+03  0.12499841737E+03 0.  0.
         23    2    1    2    0    0 -0.23683879508E+03  0.77092806297E+02  0.74601458345E+03  0.79132594301E+03  0.87310215471E+02 0.  0.
        -11    1    4    4    0    0 -0.21843465520E+03  0.94079956326E+02  0.69340778215E+03  0.73306144976E+03  0.51100000000E-03 0.  1.
         11    1    4    4    0    0 -0.18404139880E+02 -0.16987150029E+02  0.52606801298E+02  0.58264493252E+02  0.51100000000E-03 0. -1.
    9000005    1    3    3    0    0  0.13185808331E+03 -0.89266945148E+02  0.40871584745E+03  0.43863969906E+03  0.10000000000E+01 0.  0.
    9000005    1    3    3    0    0  0.10498071177E+03  0.12174138851E+02  0.53604231131E+03  0.54636207685E+03  0.10000000000E+01 0.  0.
<mgrwt>
<rscale>  0 0.27491425E+03</rscale>
<asrwt>0</asrwt>
<pdfrwt beam="1">  1        2 0.26670002E+00 0.27867637E+03</pdfrwt>
<pdfrwt beam="2">  1       -2 0.65811525E-02 0.27867637E+03</pdfrwt>
<totfact> 0.13154387E+03</totfact>
</mgrwt>
</event>
<event>
 8    2  0.8128359E-004  0.1333835E+03  0.7818608E-02  0.1235290E+00
          2   -1    0    0  501    0  0.00000000000E+00  0.00000000000E+00  0.49453215489E+03  0.49453215490E+03  0.25500000000E-02 0. -1.
         -2   -1    0    0    0  501 -0.00000000000E+00 -0.00000000000E+00 -0.35366870651E+02  0.35366870743E+02  0.25500000000E-02 0.  1.
         25    2    1    2    0    0 -0.77893523413E+01 -0.45881712592E+02  0.13434073668E+03  0.18931085071E+03  0.12500143641E+03 0.  0.
         23    2    1    2    0    0  0.77893523413E+01  0.45881712592E+02  0.32482454756E+03  0.34058817493E+03  0.91233286942E+02 0.  0.
        -11    1    4    4    0    0  0.21346392696E+02 -0.63222314794E+01  0.16834806204E+02  0.27911463455E+02  0.51100000000E-03 0.  1.
         11    1    4    4    0    0 -0.13557040355E+02  0.52203944072E+02  0.30798974135E+03  0.31267671148E+03  0.51100000000E-03 0. -1.
    9000005    1    3    3    0    0 -0.61770907813E+02  0.90432576257E+00  0.57748259944E+02  0.84571415879E+02  0.10000000000E+01 0.  0.
    9000005    1    3    3    0    0  0.53981555472E+02 -0.46786038355E+02  0.76592476738E+02  0.10473943483E+03  0.10000000000E+01 0.  0.
<mgrwt>
<rscale>  0 0.12485906E+03</rscale>
<asrwt>0</asrwt>
<pdfrwt beam="1">  1        2 0.76081865E-01 0.13338352E+03</pdfrwt>
<pdfrwt beam="2">  1       -2 0.54410574E-02 0.13338352E+03</pdfrwt>
<totfact> 0.10305697E+04</totfact>
</mgrwt>
</event>
<event>
 8    2  0.8128359E-004  0.2780309E+03  0.7818608E-02  0.1098491E+00
         -2   -1    0    0    0  501 -0.00000000000E+00  0.00000000000E+00  0.18005109836E+02  0.18005110017E+02  0.25500000000E-02 0. -1.
          2   -1    0    0  501    0  0.00000000000E+00 -0.00000000000E+00 -0.47278828915E+04  0.47278828915E+04  0.25500000000E-02 0.  1.
         25    2    1    2    0    0  0.96715100337E+02  0.22873939638E+03 -0.15410568198E+04  0.15659365632E+04  0.12500270372E+03 0.  0.
         23    2    1    2    0    0 -0.96715100337E+02 -0.22873939638E+03 -0.31688209618E+04  0.31799514383E+04  0.94812128973E+02 0.  0.
        -11    1    4    4    0    0  0.16548556187E+01  0.85899665998E+01 -0.85741443627E+02  0.86186549002E+02  0.51100000000E-03 0.  1.
         11    1    4    4    0    0 -0.98369955956E+02 -0.23732936298E+03 -0.30830795182E+04  0.30937648893E+04  0.51100000000E-03 0. -1.
    9000005    1    3    3    0    0  0.29459514227E+02  0.93102340873E+01 -0.44693615108E+03  0.44800386893E+03  0.10000000000E+01 0.  0.
    9000005    1    3    3    0    0  0.67255586110E+02  0.21942916229E+03 -0.10941206687E+04  0.11179326943E+04  0.10000000000E+01 0.  0.
<mgrwt>
<rscale>  0 0.27492882E+03</rscale>
<asrwt>0</asrwt>
<pdfrwt beam="2">  1        2 0.72736561E+00 0.27803093E+03</pdfrwt>
<pdfrwt beam="1">  1       -2 0.27700207E-02 0.27803093E+03</pdfrwt>
<totfact> 0.48328719E+01</totfact>
</mgrwt>
</event>
<event>
 8    2  0.8128359E-004  0.2332650E+03  0.7818608E-02  0.1127644E+00
          2   -1    0    0  501    0  0.00000000000E+00  0.00000000000E+00  0.18385128853E+03  0.18385128855E+03  0.25500000000E-02 0. -1.
         -2   -1    0    0    0  501 -0.00000000000E+00 -0.00000000000E+00 -0.42643614268E+03  0.42643614269E+03  0.25500000000E-02 0.  1.
         25    2    1    2    0    0  0.11335672652E+03 -0.16105578876E+03  0.58296128588E+02  0.24043915912E+03  0.12499534427E+03 0.  0.
         23    2    1    2    0    0 -0.11335672652E+03  0.16105578876E+03 -0.30088098274E+03  0.36984827212E+03  0.86427218348E+02 0.  0.
        -11    1    4    4    0    0 -0.87590383111E+02  0.12590142547E+03 -0.15688154514E+03  0.21939704500E+03  0.51100000000E-03 0. -1.
         11    1    4    4    0    0 -0.25766343413E+02  0.35154363292E+02 -0.14399943760E+03  0.15045122712E+03  0.51100000000E-03 0.  1.
    9000005    1    3    3    0    0  0.20135716255E+02  0.13960489211E+02 -0.15324089670E+02  0.28916605131E+02  0.10000000000E+01 0.  0.
    9000005    1    3    3    0    0  0.93221010270E+02 -0.17501627797E+03  0.73620218258E+02  0.21152255399E+03  0.10000000000E+01 0.  0.
<mgrwt>
<rscale>  0 0.22857880E+03</rscale>
<asrwt>0</asrwt>
<pdfrwt beam="1">  1        2 0.28284814E-01 0.23326498E+03</pdfrwt>
<pdfrwt beam="2">  1       -2 0.65605560E-01 0.23326498E+03</pdfrwt>
<totfact> 0.41175283E+02</totfact>
</mgrwt>
</event>
<event>
 8    2  0.8128359E-004  0.1889813E+03  0.7818608E-02  0.1164243E+00
         -2   -1    0    0    0  501 -0.00000000000E+00  0.00000000000E+00  0.86437713303E+03  0.86437713303E+03  0.25500000000E-02 0.  1.
          2   -1    0    0  501    0  0.00000000000E+00 -0.00000000000E+00 -0.42794715706E+02  0.42794715782E+02  0.25500000000E-02 0. -1.
         25    2    1    2    0    0 -0.74062073324E+02 -0.12084787162E+03  0.59707729081E+03  0.62627087821E+03  0.12499809166E+03 0.  0.
         23    2    1    2    0    0  0.74062073324E+02  0.12084787162E+03  0.22450512651E+03  0.28090097060E+03  0.91724613241E+02 0.  0.
        -11    1    4    4    0    0  0.83734935524E+02  0.89715590047E+02  0.12083240925E+03  0.17222339461E+03  0.51100000000E-03 0. -1.
         11    1    4    4    0    0 -0.96728621999E+01  0.31132281571E+02  0.10367271726E+03  0.10867757599E+03  0.51100000000E-03 0.  1.
    9000005    1    3    3    0    0 -0.50513305501E+02 -0.13080143859E+03  0.57687238792E+03  0.59366940490E+03  0.10000000000E+01 0.  0.
    9000005    1    3    3    0    0 -0.23548767823E+02  0.99535669716E+01  0.20204902889E+02  0.32601473313E+02  0.10000000000E+01 0.  0.
<mgrwt>
<rscale>  0 0.18372786E+03</rscale>
<asrwt>0</asrwt>
<pdfrwt beam="2">  1        2 0.65838027E-02 0.18898127E+03</pdfrwt>
<pdfrwt beam="1">  1       -2 0.13298109E+00 0.18898127E+03</pdfrwt>
<totfact> 0.46760054E+02</totfact>
</mgrwt>
</event>
<event>
 8    2  0.8128359E-004  0.2077253E+03  0.7818608E-02  0.1147222E+00
         -2   -1    0    0    0  501 -0.00000000000E+00  0.00000000000E+00  0.16149043556E+03  0.16149043558E+03  0.25500000000E-02 0. -1.
          2   -1    0    0  501    0  0.00000000000E+00 -0.00000000000E+00 -0.24447919364E+03  0.24447919366E+03  0.25500000000E-02 0.  1.
         25    2    1    2    0    0  0.41892247205E+02 -0.16053052264E+03 -0.49272810492E+02  0.21348914896E+03  0.12499919118E+03 0.  0.
         23    2    1    2    0    0 -0.41892247205E+02  0.16053052264E+03 -0.33715947593E+02  0.19248048027E+03  0.91580353193E+02 0.  0.
        -11    1    4    4    0    0 -0.20496599517E+01  0.21782888445E+02  0.27959179457E+02  0.35502268253E+02  0.51100000000E-03 0. -1.
         11    1    4    4    0    0 -0.39842587254E+02  0.13874763419E+03 -0.61675127050E+02  0.15697821202E+03  0.51100000000E-03 0.  1.
    9000005    1    3    3    0    0  0.83316710866E+02 -0.12005845515E+03 -0.52985139666E+02  0.15544816496E+03  0.10000000000E+01 0.  0.
    9000005    1    3    3    0    0 -0.41424463661E+02 -0.40472067483E+02  0.37123291746E+01  0.58040984002E+02  0.10000000000E+01 0.  0.
<mgrwt>
<rscale>  0 0.20301212E+03</rscale>
<asrwt>0</asrwt>
<pdfrwt beam="2">  1        2 0.37612183E-01 0.20772532E+03</pdfrwt>
<pdfrwt beam="1">  1       -2 0.24844682E-01 0.20772532E+03</pdfrwt>
<totfact> 0.19450511E+03</totfact>
</mgrwt>
</event>
<event>
 8    2  0.8128359E-004  0.1476831E+03  0.7818608E-02  0.1212972E+00
          2   -1    0    0  501    0  0.00000000000E+00  0.00000000000E+00  0.26677495673E+03  0.26677495674E+03  0.25500000000E-02 0. -1.
         -2   -1    0    0    0  501 -0.00000000000E+00 -0.00000000000E+00 -0.68203709005E+02  0.68203709053E+02  0.25500000000E-02 0.  1.
         25    2    1    2    0    0  0.10393176724E+02 -0.77948101984E+02  0.12917576816E+03  0.19620572660E+03  0.12500553326E+03 0.  0.
         23    2    1    2    0    0 -0.10393176724E+02  0.77948101984E+02  0.69395479564E+02  0.13877293920E+03  0.90875031466E+02 0.  0.
        -11    1    4    4    0    0  0.13679130715E+02 -0.12663348852E+02  0.33586430461E+02  0.38412593412E+02  0.51100000000E-03 0. -1.
         11    1    4    4    0    0 -0.24072307439E+02  0.90611450836E+02  0.35809049103E+02  0.10036034578E+03  0.51100000000E-03 0.  1.
    9000005    1    3    3    0    0  0.58225391895E+02 -0.91989793850E+01  0.29229953209E+02  0.65804313291E+02  0.10000000000E+01 0.  0.
    9000005    1    3    3    0    0 -0.47832215171E+02 -0.68749122599E+02  0.99945814952E+02  0.13040141331E+03  0.10000000000E+01 0.  0.
<mgrwt>
<rscale>  0 0.14026597E+03</rscale>
<asrwt>0</asrwt>
<pdfrwt beam="1">  1        2 0.41042301E-01 0.14768313E+03</pdfrwt>
<pdfrwt beam="2">  1       -2 0.10492878E-01 0.14768313E+03</pdfrwt>
<totfact> 0.72986200E+03</totfact>
</mgrwt>
</event>
<event>
 8    2  0.8128359E-004  0.2471292E+03  0.7818608E-02  0.1117716E+00
         -2   -1    0    0    0  501 -0.00000000000E+00  0.00000000000E+00  0.55534681926E+02  0.55534681985E+02  0.25500000000E-02 0.  1.
          2   -1    0    0  501    0  0.00000000000E+00 -0.00000000000E+00 -0.12139535205E+04  0.12139535205E+04  0.25500000000E-02 0. -1.
         25    2    1    2    0    0 -0.43734319499E+02 -0.20864234662E+03 -0.84111661378E+03  0.87666984060E+03  0.12501412691E+03 0.  0.
         23    2    1    2    0    0  0.43734319499E+02  0.20864234662E+03 -0.31730222474E+03  0.39281836184E+03  0.90450229772E+02 0.  0.
        -11    1    4    4    0    0  0.42603363796E+02  0.75285367245E+02 -0.18855304448E+03  0.20744923165E+03  0.51100000000E-03 0.  1.
         11    1    4    4    0    0  0.11309557024E+01  0.13335697938E+03 -0.12874918026E+03  0.18536913019E+03  0.51100000000E-03 0. -1.
    9000005    1    3    3    0    0  0.26049188936E+02 -0.69045846836E+02 -0.13859116412E+03  0.15701719645E+03  0.10000000000E+01 0.  0.
    9000005    1    3    3    0    0 -0.69783508435E+02 -0.13959649979E+03 -0.70252544967E+03  0.71965264415E+03  0.10000000000E+01 0.  0.
<mgrwt>
<rscale>  0 0.24314456E+03</rscale>
<asrwt>0</asrwt>
<pdfrwt beam="2">  1        2 0.18676206E+00 0.24712922E+03</pdfrwt>
<pdfrwt beam="1">  1       -2 0.85437981E-02 0.24712922E+03</pdfrwt>
<totfact> 0.16731610E+03</totfact>
</mgrwt>
</event>
<event>
 8    2  0.8128359E-004  0.1718907E+03  0.7818608E-02  0.1181888E+00
          2   -1    0    0  501    0  0.00000000000E+00  0.00000000000E+00  0.47581415631E+02  0.47581415699E+02  0.25500000000E-02 0. -1.
         -2   -1    0    0    0  501 -0.00000000000E+00 -0.00000000000E+00 -0.68168380871E+03  0.68168380871E+03  0.25500000000E-02 0.  1.
         25    2    1    2    0    0 -0.35500773325E+02  0.11253825137E+03 -0.17115457247E+03  0.24257020823E+03  0.12498502037E+03 0.  0.
         23    2    1    2    0    0  0.35500773325E+02 -0.11253825137E+03 -0.46294782061E+03  0.48669501618E+03  0.92877291306E+02 0.  0.
        -11    1    4    4    0    0 -0.11626289856E+02 -0.99196178235E+02 -0.27898696315E+03  0.29632545959E+03  0.51100000000E-03 0.  1.
         11    1    4    4    0    0  0.47127063181E+02 -0.13342073131E+02 -0.18396085746E+03  0.19036955659E+03  0.51100000000E-03 0. -1.
    9000005    1    3    3    0    0 -0.30499635671E+02  0.13959515669E+03 -0.13080297266E+03  0.19372003822E+03  0.10000000000E+01 0.  0.
    9000005    1    3    3    0    0 -0.50011376544E+01 -0.27056905329E+02 -0.40351599804E+02  0.48850170016E+02  0.10000000000E+01 0.  0.
<mgrwt>
<rscale>  0 0.16618273E+03</rscale>
<asrwt>0</asrwt>
<pdfrwt beam="1">  1        2 0.73202183E-02 0.17189072E+03</pdfrwt>
<pdfrwt beam="2">  1       -2 0.10487443E+00 0.17189072E+03</pdfrwt>
<totfact> 0.72091586E+02</totfact>
</mgrwt>
</event>
<event>
 8    2  0.8128359E-004  0.1267951E+03  0.7818608E-02  0.1247723E+00
          2   -1    0    0  501    0  0.00000000000E+00  0.00000000000E+00  0.70367365919E+03  0.70367365919E+03  0.25500000000E-02 0. -1.
         -2   -1    0    0    0  501 -0.00000000000E+00 -0.00000000000E+00 -0.17150284230E+02  0.17150284419E+02  0.25500000000E-02 0.  1.
         25    2    1    2    0    0 -0.13370349893E+02 -0.16526254747E+02  0.41303841248E+03  0.43206219485E+03  0.12500050672E+03 0.  0.
         23    2    1    2    0    0  0.13370349893E+02  0.16526254747E+02  0.27348496248E+03  0.28876174876E+03  0.90207757399E+02 0.  0.
        -11    1    4    4    0    0 -0.11144058450E+01 -0.28490939181E+02  0.19542811226E+03  0.19749714574E+03  0.51100000000E-03 0. -1.
         11    1    4    4    0    0  0.14484755738E+02  0.45017193927E+02  0.78056850221E+02  0.91264603021E+02  0.51100000000E-03 0.  1.
    9000005    1    3    3    0    0 -0.15007299978E+02  0.30855485443E+01  0.41204586181E+03  0.41233182256E+03  0.10000000000E+01 0.  0.
    9000005    1    3    3    0    0  0.16369500849E+01 -0.19611803291E+02  0.99255067417E+00  0.19730372291E+02  0.10000000000E+01 0.  0.
<mgrwt>
<rscale>  0 0.11723893E+03</rscale>
<asrwt>0</asrwt>
<pdfrwt beam="1">  1        2 0.10825748E+00 0.12679515E+03</pdfrwt>
<pdfrwt beam="2">  1       -2 0.26385054E-02 0.12679515E+03</pdfrwt>
<totfact> 0.20111535E+04</totfact>
</mgrwt>
</event>
<event>
 8    2  0.8128359E-004  0.1808650E+03  0.7818608E-02  0.1172509E+00
          2   -1    0    0  501    0  0.00000000000E+00  0.00000000000E+00  0.45295207372E+03  0.45295207373E+03  0.25500000000E-02 0. -1.
         -2   -1    0    0    0  501 -0.00000000000E+00 -0.00000000000E+00 -0.71859718947E+02  0.71859718992E+02  0.25500000000E-02 0.  1.
         25    2    1    2    0    0  0.30299890920E+02  0.12716019012E+03  0.11396017254E+03  0.21377338984E+03  0.12499737572E+03 0.  0.
         23    2    1    2    0    0 -0.30299890920E+02 -0.12716019012E+03  0.26713218223E+03  0.31103840288E+03  0.91090548035E+02 0.  0.
        -11    1    4    4    0    0 -0.46802530705E+02 -0.13230755241E+03  0.25001333678E+03  0.28670966826E+03  0.51100000000E-03 0. -1.
         11    1    4    4    0    0  0.16502639785E+02  0.51473622888E+01  0.17118845450E+02  0.24328734620E+02  0.51100000000E-03 0.  1.
    9000005    1    3    3    0    0  0.66843550391E+02  0.24014354875E+02  0.51842705523E+02  0.87939840714E+02  0.10000000000E+01 0.  0.
    9000005    1    3    3    0    0 -0.36543659471E+02  0.10314583525E+03  0.62117467018E+02  0.12583354912E+03  0.10000000000E+01 0.  0.
<mgrwt>
<rscale>  0 0.17522200E+03</rscale>
<asrwt>0</asrwt>
<pdfrwt beam="1">  1        2 0.69684934E-01 0.18086498E+03</pdfrwt>
<pdfrwt beam="2">  1       -2 0.11055341E-01 0.18086498E+03</pdfrwt>
<totfact> 0.38505773E+03</totfact>
</mgrwt>
</event>
<event>
 8    2  0.8128359E-004  0.1414773E+03  0.7818608E-02  0.1223754E+00
         -2   -1    0    0    0  501 -0.00000000000E+00  0.00000000000E+00  0.13872202521E+03  0.13872202523E+03  0.25500000000E-02 0.  1.
          2   -1    0    0  501    0  0.00000000000E+00 -0.00000000000E+00 -0.11436652301E+03  0.11436652304E+03  0.25500000000E-02 0. -1.
         25    2    1    2    0    0 -0.47767531180E+02  0.45919138516E+02  0.42625883177E-01  0.14147733784E+03  0.12500212394E+03 0.  0.
         23    2    1    2    0    0  0.47767531180E+02 -0.45919138516E+02  0.24312876316E+02  0.11161121043E+03  0.86461795161E+02 0.  0.
        -11    1    4    4    0    0 -0.21819234645E+02 -0.27713117548E+02 -0.11984856597E+01  0.35292099015E+02  0.51100000000E-03 0. -1.
         11    1    4    4    0    0  0.69586765825E+02 -0.18206020967E+02  0.25511361976E+02  0.76319111418E+02  0.51100000000E-03 0.  1.
    9000005    1    3    3    0    0 -0.81199931999E+01  0.82789669530E+02  0.16637593389E+02  0.84840280435E+02  0.10000000000E+01 0.  0.
    9000005    1    3    3    0    0 -0.39647537980E+02 -0.36870531015E+02 -0.16594967506E+02  0.56637057407E+02  0.10000000000E+01 0.  0.
<mgrwt>
<rscale>  0 0.13252657E+03</rscale>
<asrwt>0</asrwt>
<pdfrwt beam="2">  1        2 0.17594850E-01 0.14147733E+03</pdfrwt>
<pdfrwt beam="1">  1       -2 0.21341850E-01 0.14147733E+03</pdfrwt>
<totfact> 0.57734746E+03</totfact>
</mgrwt>
</event>
<event>
 8    2  0.8128359E-004  0.1581826E+03  0.7818608E-02  0.1199363E+00
          2   -1    0    0  501    0  0.00000000000E+00  0.00000000000E+00  0.13419222926E+04  0.13419222926E+04  0.25500000000E-02 0. -1.
         -2   -1    0    0    0  501 -0.00000000000E+00 -0.00000000000E+00 -0.15651111497E+02  0.15651111705E+02  0.25500000000E-02 0.  1.
         25    2    1    2    0    0 -0.46486819241E+01  0.96826334549E+02  0.76990770916E+03  0.78598957069E+03  0.12499910119E+03 0.  0.
         23    2    1    2    0    0  0.46486819241E+01 -0.96826334549E+02  0.55636347195E+03  0.57158383362E+03  0.88152235576E+02 0.  0.
        -11    1    4    4    0    0 -0.18151678422E+02 -0.32043331609E+02  0.59348532701E+02  0.69846308880E+02  0.51100000000E-03 0.  1.
         11    1    4    4    0    0  0.22800360346E+02 -0.64783002940E+02  0.49701493925E+03  0.50173752474E+03  0.51100000000E-03 0. -1.
    9000005    1    3    3    0    0 -0.61824664316E+02  0.57786586328E+02  0.33070546010E+03  0.34136297400E+03  0.10000000000E+01 0.  0.
    9000005    1    3    3    0    0  0.57175982392E+02  0.39039748221E+02  0.43920224906E+03  0.44462659669E+03  0.10000000000E+01 0.  0.
<mgrwt>
<rscale>  0 0.15090658E+03</rscale>
<asrwt>0</asrwt>
<pdfrwt beam="1">  1        2 0.20644952E+00 0.15818257E+03</pdfrwt>
<pdfrwt beam="2">  1       -2 0.24078640E-02 0.15818257E+03</pdfrwt>
<totfact> 0.95690408E+03</totfact>
</mgrwt>
</event>
<event>
 8    2  0.8128359E-004  0.1269717E+03  0.7818608E-02  0.1238195E+00
         -2   -1    0    0    0  501 -0.00000000000E+00  0.00000000000E+00  0.23836889475E+02  0.23836889611E+02  0.25500000000E-02 0.  1.
          2   -1    0    0  501    0  0.00000000000E+00 -0.00000000000E+00 -0.68030304300E+03  0.68030304301E+03  0.25500000000E-02 0. -1.
         25    2    1    2    0    0  0.13993088994E+01 -0.22250359223E+02 -0.22451274640E+03  0.25792978417E+03  0.12499905485E+03 0.  0.
         23    2    1    2    0    0 -0.13993088994E+01  0.22250359223E+02 -0.43195340712E+03  0.44621014845E+03  0.10964813770E+03 0.  0.
        -11    1    4    4    0    0  0.28701101692E+02  0.56483752663E+02 -0.19913492718E+03  0.20897101899E+03  0.51100000000E-03 0.  1.
         11    1    4    4    0    0 -0.30100410591E+02 -0.34233393440E+02 -0.23281847994E+03  0.23723912946E+03  0.51100000000E-03 0. -1.
    9000005    1    3    3    0    0 -0.35745467987E+02 -0.58200480839E+02 -0.16788525848E+03  0.18124981232E+03  0.10000000000E+01 0.  0.
    9000005    1    3    3    0    0  0.37144776887E+02  0.35950121616E+02 -0.56627487922E+02  0.76679971847E+02  0.10000000000E+01 0.  0.
<mgrwt>
<rscale>  0 0.12302108E+03</rscale>
<asrwt>0</asrwt>
<pdfrwt beam="2">  1        2 0.10466199E+00 0.12697165E+03</pdfrwt>
<pdfrwt beam="1">  1       -2 0.36672143E-02 0.12697165E+03</pdfrwt>
<totfact> 0.12904236E+04</totfact>
</mgrwt>
</event>
<event>
 8    2  0.8128359E-004  0.1608989E+03  0.7818608E-02  0.1193366E+00
         -2   -1    0    0    0  501 -0.00000000000E+00  0.00000000000E+00  0.99832664701E+02  0.99832664733E+02  0.25500000000E-02 0. -1.
          2   -1    0    0  501    0  0.00000000000E+00 -0.00000000000E+00 -0.23444535402E+03  0.23444535403E+03  0.25500000000E-02 0.  1.
         25    2    1    2    0    0 -0.51233315251E+02  0.87395799073E+02 -0.47597731720E+02  0.16779153061E+03  0.12500230155E+03 0.  0.
         23    2    1    2    0    0  0.51233315251E+02 -0.87395799073E+02 -0.87014957601E+02  0.16648648816E+03  0.99414634769E+02 0.  0.
        -11    1    4    4    0    0 -0.28965938997E+01 -0.53264120102E+02 -0.87516809197E+02  0.10249218818E+03  0.51100000000E-03 0.  1.
         11    1    4    4    0    0  0.54129909151E+02 -0.34131678972E+02  0.50185159616E+00  0.63994299976E+02  0.51100000000E-03 0. -1.
    9000005    1    3    3    0    0  0.31044639468E+02  0.62282361528E+02 -0.42632360699E+02  0.81617279886E+02  0.10000000000E+01 0.  0.
    9000005    1    3    3    0    0 -0.82277954720E+02  0.25113437545E+02 -0.49653710203E+01  0.86174250722E+02  0.10000000000E+01 0.  0.
<mgrwt>
<rscale>  0 0.15593327E+03</rscale>
<asrwt>0</asrwt>
<pdfrwt beam="2">  1        2 0.36068516E-01 0.16089889E+03</pdfrwt>
<pdfrwt beam="1">  1       -2 0.15358872E-01 0.16089889E+03</pdfrwt>
<totfact> 0.45594526E+03</totfact>
</mgrwt>
</event>
<event>
 8    2  0.8128359E-004  0.1439469E+03  0.7818608E-02  0.1217984E+00
         -2   -1    0    0    0  501 -0.00000000000E+00  0.00000000000E+00  0.11651990166E+02  0.11651990445E+02  0.25500000000E-02 0.  1.
          2   -1    0    0  501    0  0.00000000000E+00 -0.00000000000E+00 -0.19404665603E+04  0.19404665603E+04  0.25500000000E-02 0. -1.
         25    2    1    2    0    0 -0.44521553072E+02  0.55795387757E+02 -0.15248570174E+04  0.15316362594E+04  0.12500165539E+03 0.  0.
         23    2    1    2    0    0  0.44521553072E+02 -0.55795387757E+02 -0.40395755280E+03  0.42048229133E+03  0.92349114127E+02 0.  0.
        -11    1    4    4    0    0 -0.23333555608E+02 -0.25104915476E+02 -0.65468840920E+02  0.73897772158E+02  0.51100000000E-03 0.  1.
         11    1    4    4    0    0  0.67855108680E+02 -0.30690472281E+02 -0.33848871188E+03  0.34658451917E+03  0.51100000000E-03 0. -1.
    9000005    1    3    3    0    0 -0.49223958162E+02  0.88798208404E+02 -0.13363538298E+04  0.13402054613E+04  0.10000000000E+01 0.  0.
    9000005    1    3    3    0    0  0.47024050905E+01 -0.33002820647E+02 -0.18850318752E+03  0.19143079817E+03  0.10000000000E+01 0.  0.
<mgrwt>
<rscale>  0 0.13659614E+03</rscale>
<asrwt>0</asrwt>
<pdfrwt beam="2">  1        2 0.29853306E+00 0.14394689E+03</pdfrwt>
<pdfrwt beam="1">  1       -2 0.17926154E-02 0.14394689E+03</pdfrwt>
<totfact> 0.71694245E+03</totfact>
</mgrwt>
</event>
<event>
 8    2  0.8128359E-004  0.1255447E+03  0.7818608E-02  0.1249676E+00
         -2   -1    0    0    0  501 -0.00000000000E+00  0.00000000000E+00  0.54296013597E+02  0.54296013657E+02  0.25500000000E-02 0. -1.
          2   -1    0    0  501    0  0.00000000000E+00 -0.00000000000E+00 -0.24988313469E+03  0.24988313471E+03  0.25500000000E-02 0.  1.
         25    2    1    2    0    0  0.75895782250E+01 -0.88482321438E+01 -0.56858598896E+02  0.13782003653E+03  0.12500227714E+03 0.  0.
         23    2    1    2    0    0 -0.75895782250E+01  0.88482321438E+01 -0.13872852220E+03  0.16635911183E+03  0.91070622639E+02 0.  0.
        -11    1    4    4    0    0  0.48549969417E+01  0.30737126091E+02 -0.13768564195E+03  0.14115834342E+03  0.51100000000E-03 0.  1.
         11    1    4    4    0    0 -0.12444575167E+02 -0.21888893947E+02 -0.10428802475E+01  0.25200768416E+02  0.51100000000E-03 0. -1.
    9000005    1    3    3    0    0 -0.48341268338E+02 -0.32066799852E+02 -0.52648223288E+01  0.58256984401E+02  0.10000000000E+01 0.  0.
    9000005    1    3    3    0    0  0.55930846563E+02  0.23218567709E+02 -0.51593776567E+02  0.79563052130E+02  0.10000000000E+01 0.  0.
<mgrwt>
<rscale>  0 0.11609821E+03</rscale>
<asrwt>0</asrwt>
<pdfrwt beam="2">  1        2 0.38443558E-01 0.12554466E+03</pdfrwt>
<pdfrwt beam="1">  1       -2 0.83532330E-02 0.12554466E+03</pdfrwt>
<totfact> 0.11043491E+04</totfact>
</mgrwt>
</event>
<event>
 8    2  0.8128359E-004  0.1852958E+03  0.7818608E-02  0.1168741E+00
          2   -1    0    0  501    0  0.00000000000E+00  0.00000000000E+00  0.21244468596E+04  0.21244468596E+04  0.25500000000E-02 0. -1.
         -2   -1    0    0    0  501 -0.00000000000E+00 -0.00000000000E+00 -0.18007080518E+02  0.18007080698E+02  0.25500000000E-02 0.  1.
         25    2    1    2    0    0  0.75150846996E+02  0.11428989424E+03  0.61530651320E+03  0.64260145064E+03  0.12499875779E+03 0.  0.
         23    2    1    2    0    0 -0.75150846996E+02 -0.11428989424E+03  0.14911332659E+04  0.14998524897E+04  0.85844303172E+02 0.  0.
        -11    1    4    4    0    0 -0.31699865292E+02 -0.19587480102E+02  0.80411548533E+03  0.80497842492E+03  0.51100000000E-03 0. -1.
         11    1    4    4    0    0 -0.43450981704E+02 -0.94702414139E+02  0.68701778058E+03  0.69487406477E+03  0.51100000000E-03 0.  1.
    9000005    1    3    3    0    0 -0.19728467908E+02 -0.14159662048E+02  0.11033867380E+03  0.11298376614E+03  0.10000000000E+01 0.  0.
    9000005    1    3    3    0    0  0.94879314903E+02  0.12844955629E+03  0.50496783940E+03  0.52961768450E+03  0.10000000000E+01 0.  0.
<mgrwt>
<rscale>  0 0.17903405E+03</rscale>
<asrwt>0</asrwt>
<pdfrwt beam="1">  1        2 0.32683770E+00 0.18529576E+03</pdfrwt>
<pdfrwt beam="2">  1       -2 0.27703224E-02 0.18529576E+03</pdfrwt>
<totfact> 0.30531965E+03</totfact>
</mgrwt>
</event>
<event>
 8    2  0.8128359E-004  0.1254847E+03  0.7818608E-02  0.1249916E+00
         -2   -1    0    0    0  501 -0.00000000000E+00  0.00000000000E+00  0.23432447110E+02  0.23432447248E+02  0.25500000000E-02 0.  1.
          2   -1    0    0  501    0  0.00000000000E+00 -0.00000000000E+00 -0.53184016414E+03  0.53184016414E+03  0.25500000000E-02 0. -1.
         25    2    1    2    0    0 -0.10791975390E+02 -0.21591714324E+01 -0.35642626078E+03  0.37787045521E+03  0.12500109116E+03 0.  0.
         23    2    1    2    0    0  0.10791975390E+02  0.21591714324E+01 -0.15198145625E+03  0.17740215618E+03  0.90840702448E+02 0.  0.
        -11    1    4    4    0    0  0.47771309716E+02 -0.10844338054E+02 -0.10736209559E+03  0.11800981853E+03  0.51100000000E-03 0. -1.
         11    1    4    4    0    0 -0.36979334326E+02  0.13003509486E+02 -0.44619360659E+02  0.59392337654E+02  0.51100000000E-03 0.  1.
    9000005    1    3    3    0    0  0.43079577450E+02  0.75466999707E+01 -0.49336217360E+02  0.65938342542E+02  0.10000000000E+01 0.  0.
    9000005    1    3    3    0    0 -0.53871552840E+02 -0.97058714032E+01 -0.30709004342E+03  0.31193211267E+03  0.10000000000E+01 0.  0.
<mgrwt>
<rscale>  0 0.11595893E+03</rscale>
<asrwt>0</asrwt>
<pdfrwt beam="2">  1        2 0.81821555E-01 0.12548467E+03</pdfrwt>
<pdfrwt beam="1">  1       -2 0.36049923E-02 0.12548467E+03</pdfrwt>
<totfact> 0.17492340E+04</totfact>
</mgrwt>
</event>
<event>
 8    2  0.8128359E-004  0.2006092E+03  0.7818608E-02  0.1153352E+00
          2   -1    0    0  501    0  0.00000000000E+00  0.00000000000E+00  0.10856059309E+04  0.10856059309E+04  0.25500000000E-02 0. -1.
         -2   -1    0    0    0  501 -0.00000000000E+00 -0.00000000000E+00 -0.50224821072E+02  0.50224821136E+02  0.25500000000E-02 0.  1.
         25    2    1    2    0    0 -0.89556064737E+02 -0.12884222290E+03  0.86005771195E+03  0.88314399240E+03  0.12499374502E+03 0.  0.
         23    2    1    2    0    0  0.89556064737E+02  0.12884222290E+03  0.17532339791E+03  0.25268675967E+03  0.92150407083E+02 0.  0.
        -11    1    4    4    0    0  0.59119256691E+02  0.58201474368E+02  0.29919469262E+02  0.88191115037E+02  0.51100000000E-03 0.  1.
         11    1    4    4    0    0  0.30436808047E+02  0.70640748532E+02  0.14540392865E+03  0.16449564464E+03  0.51100000000E-03 0. -1.
    9000005    1    3    3    0    0  0.11338591584E+02  0.22586872265E+01  0.27232650711E+03  0.27257364473E+03  0.10000000000E+01 0.  0.
    9000005    1    3    3    0    0 -0.10089465632E+03 -0.13110091013E+03  0.58773120484E+03  0.61057034767E+03  0.10000000000E+01 0.  0.
<mgrwt>
<rscale>  0 0.19577705E+03</rscale>
<asrwt>0</asrwt>
<pdfrwt beam="1">  1        2 0.16701629E+00 0.20060918E+03</pdfrwt>
<pdfrwt beam="2">  1       -2 0.77268959E-02 0.20060918E+03</pdfrwt>
<totfact> 0.23188176E+03</totfact>
</mgrwt>
</event>
<event>
 8    2  0.8128359E-004  0.1255904E+03  0.7818608E-02  0.1248124E+00
         -2   -1    0    0    0  501 -0.00000000000E+00  0.00000000000E+00  0.25757306443E+02  0.25757306570E+02  0.25500000000E-02 0.  1.
          2   -1    0    0  501    0  0.00000000000E+00 -0.00000000000E+00 -0.48605522694E+03  0.48605522695E+03  0.25500000000E-02 0. -1.
         25    2    1    2    0    0 -0.18505570866E+01 -0.12016910366E+02 -0.30667389608E+03  0.33139377844E+03  0.12500050860E+03 0.  0.
         23    2    1    2    0    0  0.18505570866E+01  0.12016910366E+02 -0.15362402441E+03  0.18041875508E+03  0.93823001504E+02 0.  0.
        -11    1    4    4    0    0  0.47235768234E+02 -0.14015475626E+01 -0.78773302745E+02  0.91860847817E+02  0.51100000000E-03 0. -1.
         11    1    4    4    0    0 -0.45385211147E+02  0.13418457929E+02 -0.74850721670E+02  0.88557907263E+02  0.51100000000E-03 0.  1.
    9000005    1    3    3    0    0 -0.34146886978E+02 -0.54587776792E+02 -0.22296930564E+03  0.23208219777E+03  0.10000000000E+01 0.  0.
    9000005    1    3    3    0    0  0.32296329892E+02  0.42570866425E+02 -0.83704590440E+02  0.99311580661E+02  0.10000000000E+01 0.  0.
<mgrwt>
<rscale>  0 0.11700350E+03</rscale>
<asrwt>0</asrwt>
<pdfrwt beam="2">  1        2 0.74777720E-01 0.12559044E+03</pdfrwt>
<pdfrwt beam="1">  1       -2 0.39626629E-02 0.12559044E+03</pdfrwt>
<totfact> 0.16788852E+04</totfact>
</mgrwt>
</event>
<event>
 8    2  0.8128359E-004  0.1388093E+03  0.7818608E-02  0.1227594E+00
          2   -1    0    0  501    0  0.00000000000E+00  0.00000000000E+00  0.17458991254E+04  0.17458991254E+04  0.25500000000E-02 0. -1.
         -2   -1    0    0    0  501 -0.00000000000E+00 -0.00000000000E+00 -0.89604666966E+01  0.89604670595E+01  0.25500000000E-02 0.  1.
         25    2    1    2    0    0 -0.46064196961E+02  0.38956318030E+02  0.80782027911E+03  0.81965946451E+03  0.12501411708E+03 0.  0.
         23    2    1    2    0    0  0.46064196961E+02 -0.38956318030E+02  0.92911837955E+03  0.93520012790E+03  0.87742868984E+02 0.  0.
        -11    1    4    4    0    0  0.33824168589E+02 -0.20016889445E+02  0.88289499361E+03  0.88376938167E+03  0.51100000000E-03 0. -1.
         11    1    4    4    0    0  0.12240028373E+02 -0.18939428585E+02  0.46223385941E+02  0.51430746230E+02  0.51100000000E-03 0.  1.
    9000005    1    3    3    0    0  0.42190759567E+02  0.17960304927E+02  0.34456071167E+03  0.34759993782E+03  0.10000000000E+01 0.  0.
    9000005    1    3    3    0    0 -0.88254956528E+02  0.20996013103E+02  0.46325956744E+03  0.47205952669E+03  0.10000000000E+01 0.  0.
<mgrwt>
<rscale>  0 0.12990701E+03</rscale>
<asrwt>0</asrwt>
<pdfrwt beam="1">  1        2 0.26859979E+00 0.13880935E+03</pdfrwt>
<pdfrwt beam="2">  1       -2 0.13785338E-02 0.13880935E+03</pdfrwt>
<totfact> 0.13162356E+04</totfact>
</mgrwt>
</event>
<event>
 8    2  0.8128359E-004  0.4562625E+03  0.7818608E-02  0.1026496E+00
         -2   -1    0    0    0  501 -0.00000000000E+00  0.00000000000E+00  0.36419969491E+03  0.36419969492E+03  0.25500000000E-02 0. -1.
          2   -1    0    0  501    0  0.00000000000E+00 -0.00000000000E+00 -0.57750027383E+03  0.57750027383E+03  0.25500000000E-02 0.  1.
         25    2    1    2    0    0 -0.43875317422E+03 -0.67786022356E+01 -0.18706625212E+03  0.49312192054E+03  0.12500059398E+03 0.  0.
         23    2    1    2    0    0  0.43875317422E+03  0.67786022356E+01 -0.26234326792E+02  0.44857804822E+03  0.89351710166E+02 0.  0.
        -11    1    4    4    0    0  0.37619179857E+03  0.33457514995E+01 -0.53969917923E+02  0.38005817372E+03  0.51100000000E-03 0.  1.
         11    1    4    4    0    0  0.62561375643E+02  0.34328507361E+01  0.27735591131E+02  0.68519874504E+02  0.51100000000E-03 0. -1.
    9000005    1    3    3    0    0 -0.42224930162E+03 -0.18742145622E+02 -0.14583820441E+03  0.44711913693E+03  0.10000000000E+01 0.  0.
    9000005    1    3    3    0    0 -0.16503872591E+02  0.11963543386E+02 -0.41228047716E+02  0.46002783604E+02  0.10000000000E+01 0.  0.
<mgrwt>
<rscale>  0 0.45413458E+03</rscale>
<asrwt>0</asrwt>
<pdfrwt beam="2">  1        2 0.88846196E-01 0.45626247E+03</pdfrwt>
<pdfrwt beam="1">  1       -2 0.56030723E-01 0.45626247E+03</pdfrwt>
<totfact> 0.15969175E+02</totfact>
</mgrwt>
</event>
<event>
 8    2  0.8128359E-004  0.1282147E+03  0.7818608E-02  0.1243334E+00
         -2   -1    0    0    0  501 -0.00000000000E+00  0.00000000000E+00  0.40260687548E+02  0.40260687629E+02  0.25500000000E-02 0.  1.
          2   -1    0    0  501    0  0.00000000000E+00 -0.00000000000E+00 -0.31807957020E+03  0.31807957021E+03  0.25500000000E-02 0. -1.
         25    2    1    2    0    0 -0.75088376291E+00 -0.28523305962E+02 -0.14997743451E+03  0.19731257683E+03  0.12499951721E+03 0.  0.
         23    2    1    2    0    0  0.75088376291E+00  0.28523305962E+02 -0.12784144813E+03  0.16102768101E+03  0.93660746203E+02 0.  0.
        -11    1    4    4    0    0  0.15828481708E+02 -0.26691798691E+02 -0.82067251210E+02  0.87738399073E+02  0.51100000000E-03 0. -1.
         11    1    4    4    0    0 -0.15077597945E+02  0.55215104653E+02 -0.45774196925E+02  0.73289281932E+02  0.51100000000E-03 0.  1.
    9000005    1    3    3    0    0 -0.28580501657E+02 -0.29423443479E+02 -0.16189131666E+03  0.16701012697E+03  0.10000000000E+01 0.  0.
    9000005    1    3    3    0    0  0.27829617894E+02  0.90013751640E+00  0.11913882146E+02  0.30302449859E+02  0.10000000000E+01 0.  0.
<mgrwt>
<rscale>  0 0.11985630E+03</rscale>
<asrwt>0</asrwt>
<pdfrwt beam="2">  1        2 0.48935317E-01 0.12821475E+03</pdfrwt>
<pdfrwt beam="1">  1       -2 0.61939521E-02 0.12821475E+03</pdfrwt>
<totfact> 0.13545382E+04</totfact>
</mgrwt>
</event>
<event>
 8    2  0.8128359E-004  0.1298148E+03  0.7818608E-02  0.1242110E+00
          2   -1    0    0  501    0  0.00000000000E+00  0.00000000000E+00  0.74878620541E+02  0.74878620584E+02  0.25500000000E-02 0.  1.
         -2   -1    0    0    0  501 -0.00000000000E+00 -0.00000000000E+00 -0.17665343465E+03  0.17665343466E+03  0.25500000000E-02 0. -1.
         25    2    1    2    0    0 -0.25233078610E+02  0.24305518188E+02 -0.79756105254E+02  0.15235789426E+03  0.12499770057E+03 0.  0.
         23    2    1    2    0    0  0.25233078610E+02 -0.24305518188E+02 -0.22018708850E+02  0.99174160991E+02  0.90128930973E+02 0.  0.
        -11    1    4    4    0    0  0.42747859483E+01  0.29446818041E+02 -0.28394147126E+02  0.41129265480E+02  0.51100000000E-03 0.  1.
         11    1    4    4    0    0  0.20958292662E+02 -0.53752336229E+02  0.63754382759E+01  0.58044895511E+02  0.51100000000E-03 0. -1.
    9000005    1    3    3    0    0 -0.43469487378E+02 -0.32797869585E+02 -0.24370295648E+01  0.54518214345E+02  0.10000000000E+01 0.  0.
    9000005    1    3    3    0    0  0.18236408769E+02  0.57103387773E+02 -0.77319075689E+02  0.97839679912E+02  0.10000000000E+01 0.  0.
<mgrwt>
<rscale>  0 0.12060039E+03</rscale>
<asrwt>0</asrwt>
<pdfrwt beam="1">  1        2 0.11519788E-01 0.12981484E+03</pdfrwt>
<pdfrwt beam="2">  1       -2 0.27177451E-01 0.12981484E+03</pdfrwt>
<totfact> 0.62107223E+03</totfact>
</mgrwt>
</event>
<event>
 8    2  0.8128359E-004  0.1257904E+03  0.7818608E-02  0.1248886E+00
         -2   -1    0    0    0  501 -0.00000000000E+00  0.00000000000E+00  0.19331548600E+03  0.19331548602E+03  0.25500000000E-02 0.  1.
          2   -1    0    0  501    0  0.00000000000E+00 -0.00000000000E+00 -0.63384070625E+02  0.63384070676E+02  0.25500000000E-02 0. -1.
         25    2    1    2    0    0  0.14047599250E+02 -0.11193380701E+01  0.54181991647E+02  0.13696318059E+03  0.12499854661E+03 0.  0.
         23    2    1    2    0    0 -0.14047599250E+02  0.11193380701E+01  0.75749423727E+02  0.11973637611E+03  0.91652804679E+02 0.  0.
        -11    1    4    4    0    0 -0.16019245452E+02 -0.31100736468E+02  0.79868471653E+02  0.87194293380E+02  0.51100000000E-03 0.  1.
         11    1    4    4    0    0  0.19716462021E+01  0.32220074538E+02 -0.41190479255E+01  0.32542082725E+02  0.51100000000E-03 0. -1.
    9000005    1    3    3    0    0 -0.38050361456E+02 -0.36527334074E+02  0.51776200837E+02  0.73917867357E+02  0.10000000000E+01 0.  0.
    9000005    1    3    3    0    0  0.52097960706E+02  0.35407996004E+02  0.24057908094E+01  0.63045313229E+02  0.10000000000E+01 0.  0.
<mgrwt>
<rscale>  0 0.11655758E+03</rscale>
<asrwt>0</asrwt>
<pdfrwt beam="2">  1        2 0.97513955E-02 0.12579040E+03</pdfrwt>
<pdfrwt beam="1">  1       -2 0.29740844E-01 0.12579040E+03</pdfrwt>
<totfact> 0.64635068E+03</totfact>
</mgrwt>
</event>
<event>
 8    2  0.8128359E-004  0.1287838E+03  0.7818608E-02  0.1246103E+00
          2   -1    0    0  501    0  0.00000000000E+00  0.00000000000E+00  0.11973822197E+04  0.11973822197E+04  0.25500000000E-02 0. -1.
         -2   -1    0    0    0  501 -0.00000000000E+00 -0.00000000000E+00 -0.15926910436E+02  0.15926910640E+02  0.25500000000E-02 0.  1.
         25    2    1    2    0    0  0.28781898373E+02  0.11579174935E+02  0.10174385038E+04  0.10255566164E+04  0.12499115745E+03 0.  0.
         23    2    1    2    0    0 -0.28781898373E+02 -0.11579174935E+02  0.16401680543E+03  0.18775251392E+03  0.85947769330E+02 0.  0.
        -11    1    4    4    0    0  0.22456793734E+02  0.94197709743E+01  0.14574053562E+02  0.28380322540E+02  0.51100000000E-03 0.  1.
         11    1    4    4    0    0 -0.51238692107E+02 -0.20998945909E+02  0.14944275187E+03  0.15937219138E+03  0.51100000000E-03 0. -1.
    9000005    1    3    3    0    0  0.64144855256E+02  0.17601516678E+02  0.90694958168E+03  0.90938601240E+03  0.10000000000E+01 0.  0.
    9000005    1    3    3    0    0 -0.35362956883E+02 -0.60223417429E+01  0.11048892213E+03  0.11617060399E+03  0.10000000000E+01 0.  0.
<mgrwt>
<rscale>  0 0.11819617E+03</rscale>
<asrwt>0</asrwt>
<pdfrwt beam="1">  1        2 0.18421273E+00 0.12878379E+03</pdfrwt>
<pdfrwt beam="2">  1       -2 0.24502929E-02 0.12878379E+03</pdfrwt>
<totfact> 0.11071965E+04</totfact>
</mgrwt>
</event>
<event>
 8    2  0.8128359E-004  0.1303693E+03  0.7818608E-02  0.1240626E+00
          2   -1    0    0  501    0  0.00000000000E+00  0.00000000000E+00  0.27128537712E+04  0.27128537712E+04  0.25500000000E-02 0. -1.
         -2   -1    0    0    0  501 -0.00000000000E+00 -0.00000000000E+00 -0.48642896672E+01  0.48642903356E+01  0.25500000000E-02 0.  1.
         25    2    1    2    0    0 -0.23429380402E+02 -0.28670147844E+02  0.14165635813E+04  0.14225500116E+04  0.12500096966E+03 0.  0.
         23    2    1    2    0    0  0.23429380402E+02  0.28670147844E+02  0.12914259003E+04  0.12951680500E+04  0.91151020413E+02 0.  0.
        -11    1    4    4    0    0  0.13664012815E+02 -0.24372479775E+02  0.15743482435E+03  0.15989511229E+03  0.51100000000E-03 0.  1.
         11    1    4    4    0    0  0.97653675868E+01  0.53042627619E+02  0.11339910759E+04  0.11352729377E+04  0.51100000000E-03 0. -1.
    9000005    1    3    3    0    0  0.94151422637E+01 -0.62991723828E+02  0.11515509882E+04  0.11533114413E+04  0.10000000000E+01 0.  0.
    9000005    1    3    3    0    0 -0.32844522665E+02  0.34321575984E+02  0.26501259304E+03  0.26923857026E+03  0.10000000000E+01 0.  0.
<mgrwt>
<rscale>  0 0.12151019E+03</rscale>
<asrwt>0</asrwt>
<pdfrwt beam="1">  1        2 0.41736173E+00 0.13036930E+03</pdfrwt>
<pdfrwt beam="2">  1       -2 0.74835301E-03 0.13036930E+03</pdfrwt>
<totfact> 0.98338546E+03</totfact>
</mgrwt>
</event>
<event>
 8    2  0.8128359E-004  0.2663957E+03  0.7818608E-02  0.1105592E+00
          2   -1    0    0  501    0  0.00000000000E+00  0.00000000000E+00  0.17638806092E+04  0.17638806092E+04  0.25500000000E-02 0. -1.
         -2   -1    0    0    0  501 -0.00000000000E+00 -0.00000000000E+00 -0.41220534510E+02  0.41220534588E+02  0.25500000000E-02 0.  1.
         25    2    1    2    0    0 -0.94485588236E+02  0.21543160494E+03  0.11355567977E+04  0.11663858264E+04  0.12501340868E+03 0.  0.
         23    2    1    2    0    0  0.94485588236E+02 -0.21543160494E+03  0.58710327702E+03  0.63871531746E+03  0.89043225877E+02 0.  0.
        -11    1    4    4    0    0  0.31039361593E+02 -0.14032386622E+03  0.43002182288E+03  0.45340158530E+03  0.51100000000E-03 0. -1.
         11    1    4    4    0    0  0.63446226644E+02 -0.75107738716E+02  0.15708145414E+03  0.18531373215E+03  0.51100000000E-03 0.  1.
    9000005    1    3    3    0    0 -0.12296099335E+03  0.19633234586E+03  0.10100496401E+04  0.10362755769E+04  0.10000000000E+01 0.  0.
    9000005    1    3    3    0    0  0.28475405116E+02  0.19099259083E+02  0.12550715763E+03  0.13011024944E+03  0.10000000000E+01 0.  0.
<mgrwt>
<rscale>  0 0.26259867E+03</rscale>
<asrwt>0</asrwt>
<pdfrwt beam="1">  1        2 0.27136628E+00 0.26639567E+03</pdfrwt>
<pdfrwt beam="2">  1       -2 0.63416199E-02 0.26639567E+03</pdfrwt>
<totfact> 0.13441528E+03</totfact>
</mgrwt>
</event>
<event>
 8    2  0.8128359E-004  0.2228726E+03  0.7818608E-02  0.1134969E+00
         -2   -1    0    0    0  501 -0.00000000000E+00  0.00000000000E+00  0.79134400220E+03  0.79134400221E+03  0.25500000000E-02 0.  1.
          2   -1    0    0  501    0  0.00000000000E+00 -0.00000000000E+00 -0.58160202663E+02  0.58160202719E+02  0.25500000000E-02 0. -1.
         25    2    1    2    0    0 -0.17059776973E+03  0.70312121418E+02  0.37097858408E+03  0.43277856808E+03  0.12499914276E+03 0.  0.
         23    2    1    2    0    0  0.17059776973E+03 -0.70312121418E+02  0.36220521546E+03  0.41672563684E+03  0.91761892111E+02 0.  0.
        -11    1    4    4    0    0  0.67439418854E+02 -0.75481142286E+02  0.15363726281E+03  0.18398338669E+03  0.51100000000E-03 0.  1.
         11    1    4    4    0    0  0.10315835087E+03  0.51690208688E+01  0.20856795265E+03  0.23274225015E+03  0.51100000000E-03 0. -1.
    9000005    1    3    3    0    0 -0.17279998621E+03  0.57332207224E+02  0.24054368082E+03  0.30167711150E+03  0.10000000000E+01 0.  0.
    9000005    1    3    3    0    0  0.22022164851E+01  0.12979914194E+02  0.13043490326E+03  0.13110145659E+03  0.10000000000E+01 0.  0.
<mgrwt>
<rscale>  0 0.21854945E+03</rscale>
<asrwt>0</asrwt>
<pdfrwt beam="2">  1        2 0.89477237E-02 0.22287256E+03</pdfrwt>
<pdfrwt beam="1">  1       -2 0.12174523E+00 0.22287256E+03</pdfrwt>
<totfact> 0.39423219E+02</totfact>
</mgrwt>
</event>
<event>
 8    2  0.8128359E-004  0.1296200E+03  0.7818608E-02  0.1241830E+00
          2   -1    0    0  501    0  0.00000000000E+00  0.00000000000E+00  0.18288716730E+03  0.18288716732E+03  0.25500000000E-02 0. -1.
         -2   -1    0    0    0  501 -0.00000000000E+00 -0.00000000000E+00 -0.72376758391E+02  0.72376758436E+02  0.25500000000E-02 0.  1.
         25    2    1    2    0    0  0.25672032572E+02  0.22741134909E+02  0.82473443838E+02  0.15363336523E+03  0.12500051800E+03 0.  0.
         23    2    1    2    0    0 -0.25672032572E+02 -0.22741134909E+02  0.28036965072E+02  0.10163056052E+03  0.91468502495E+02 0.  0.
        -11    1    4    4    0    0 -0.17801112341E+02 -0.35200462108E+02  0.56892568657E+02  0.69229448227E+02  0.51100000000E-03 0. -1.
         11    1    4    4    0    0 -0.78709202310E+01  0.12459327199E+02 -0.28855603585E+02  0.32401112297E+02  0.51100000000E-03 0.  1.
    9000005    1    3    3    0    0 -0.47470565589E+02 -0.10113391184E+02  0.22549371413E+02  0.53527651076E+02  0.10000000000E+01 0.  0.
    9000005    1    3    3    0    0  0.73142598160E+02  0.32854526093E+02  0.59924072425E+02  0.10010571415E+03  0.10000000000E+01 0.  0.
<mgrwt>
<rscale>  0 0.12077106E+03</rscale>
<asrwt>0</asrwt>
<pdfrwt beam="1">  1        2 0.28136487E-01 0.12961999E+03</pdfrwt>
<pdfrwt beam="2">  1       -2 0.11134886E-01 0.12961999E+03</pdfrwt>
<totfact> 0.98748790E+03</totfact>
</mgrwt>
</event>
<event>
 8    2  0.8128359E-004  0.1745773E+03  0.7818608E-02  0.1180028E+00
         -2   -1    0    0    0  501 -0.00000000000E+00  0.00000000000E+00  0.11687100864E+02  0.11687101142E+02  0.25500000000E-02 0. -1.
          2   -1    0    0  501    0  0.00000000000E+00 -0.00000000000E+00 -0.29187690801E+04  0.29187690801E+04  0.25500000000E-02 0.  1.
         25    2    1    2    0    0 -0.12185812848E+03  0.15417454439E+01 -0.22420774697E+04  0.22488638516E+04  0.12500185103E+03 0.  0.
         23    2    1    2    0    0  0.12185812848E+03 -0.15417454439E+01 -0.66500450955E+03  0.68159232959E+03  0.86517776041E+02 0.  0.
        -11    1    4    4    0    0 -0.90139068813E+01  0.10007659876E+02 -0.12985463476E+03  0.13055125408E+03  0.51100000000E-03 0. -1.
         11    1    4    4    0    0  0.13087203537E+03 -0.11549405320E+02 -0.53514987479E+03  0.55104107550E+03  0.51100000000E-03 0.  1.
    9000005    1    3    3    0    0 -0.53290513903E+01 -0.33266263489E+02 -0.10622066908E+04  0.10627413124E+04  0.10000000000E+01 0.  0.
    9000005    1    3    3    0    0 -0.11652907709E+03  0.34808008933E+02 -0.11798707789E+04  0.11861225393E+04  0.10000000000E+01 0.  0.
<mgrwt>
<rscale>  0 0.16792650E+03</rscale>
<asrwt>0</asrwt>
<pdfrwt beam="2">  1        2 0.44904082E+00 0.17457733E+03</pdfrwt>
<pdfrwt beam="1">  1       -2 0.17980179E-02 0.17457733E+03</pdfrwt>
<totfact> 0.21314661E+03</totfact>
</mgrwt>
</event>
<event>
 8    2  0.8128359E-004  0.3281649E+03  0.7818608E-02  0.1072572E+00
          2   -1    0    0  501    0  0.00000000000E+00  0.00000000000E+00  0.30684322844E+03  0.30684322845E+03  0.25500000000E-02 0. -1.
         -2   -1    0    0    0  501 -0.00000000000E+00 -0.00000000000E+00 -0.35030406898E+03  0.35030406899E+03  0.25500000000E-02 0.  1.
         25    2    1    2    0    0 -0.14800263203E+03  0.26488267724E+03  0.18175508180E+02  0.32866780584E+03  0.12499826281E+03 0.  0.
         23    2    1    2    0    0  0.14800263203E+03 -0.26488267724E+03 -0.61636348717E+02  0.32847949161E+03  0.10969104400E+03 0.  0.
        -11    1    4    4    0    0  0.45737497752E+02 -0.50536012268E+02 -0.60267083341E+02  0.90983122453E+02  0.51100000000E-03 0.  1.
         11    1    4    4    0    0  0.10226513428E+03 -0.21434666497E+03 -0.13692653760E+01  0.23749636916E+03  0.51100000000E-03 0. -1.
    9000005    1    3    3    0    0  0.21025304634E+02  0.49977207617E+02 -0.38600000021E+01  0.54366205644E+02  0.10000000000E+01 0.  0.
    9000005    1    3    3    0    0 -0.16902793667E+03  0.21490546962E+03  0.22035508182E+02  0.27430160019E+03  0.10000000000E+01 0.  0.
<mgrwt>
<rscale>  0 0.32677608E+03</rscale>
<asrwt>0</asrwt>
<pdfrwt beam="1">  1        2 0.47206651E-01 0.32816486E+03</pdfrwt>
<pdfrwt beam="2">  1       -2 0.53892933E-01 0.32816486E+03</pdfrwt>
<totfact> 0.35348624E+02</totfact>
</mgrwt>
</event>
<event>
 8    2  0.8128359E-004  0.1355457E+03  0.7818608E-02  0.1231314E+00
         -2   -1    0    0    0  501 -0.00000000000E+00  0.00000000000E+00  0.13807784390E+02  0.13807784626E+02  0.25500000000E-02 0.  1.
          2   -1    0    0  501    0  0.00000000000E+00 -0.00000000000E+00 -0.10591690967E+04  0.10591690967E+04  0.25500000000E-02 0. -1.
         25    2    1    2    0    0 -0.29264893078E+01  0.52335587642E+02 -0.55511860601E+03  0.57142742806E+03  0.12500024289E+03 0.  0.
         23    2    1    2    0    0  0.29264893078E+01 -0.52335587642E+02 -0.49024270629E+03  0.50154945326E+03  0.92012851955E+02 0.  0.
        -11    1    4    4    0    0 -0.15715168526E+02 -0.72213906660E+02 -0.28167466594E+03  0.29120857176E+03  0.51100000000E-03 0.  1.
         11    1    4    4    0    0  0.18641657834E+02  0.19878319018E+02 -0.20856804035E+03  0.21034088150E+03  0.51100000000E-03 0. -1.
    9000005    1    3    3    0    0  0.57281398648E+02  0.43220992911E+02 -0.35771294765E+03  0.36484074029E+03  0.10000000000E+01 0.  0.
    9000005    1    3    3    0    0 -0.60207887956E+02  0.91145947308E+01 -0.19740565836E+03  0.20658668776E+03  0.10000000000E+01 0.  0.
<mgrwt>
<rscale>  0 0.12743365E+03</rscale>
<asrwt>0</asrwt>
<pdfrwt beam="2">  1        2 0.16294903E+00 0.13554571E+03</pdfrwt>
<pdfrwt beam="1">  1       -2 0.21242754E-02 0.13554571E+03</pdfrwt>
<totfact> 0.16372229E+04</totfact>
</mgrwt>
</event>
<event>
 8    2  0.8128359E-004  0.1257783E+03  0.7818608E-02  0.1247588E+00
          2   -1    0    0  501    0  0.00000000000E+00  0.00000000000E+00  0.72171590766E+03  0.72171590766E+03  0.25500000000E-02 0.  1.
         -2   -1    0    0    0  501 -0.00000000000E+00 -0.00000000000E+00 -0.17464612773E+02  0.17464612959E+02  0.25500000000E-02 0. -1.
         25    2    1    2    0    0  0.13140098661E+02 -0.40672170454E+01  0.46425061741E+03  0.48098732361E+03  0.12502385876E+03 0.  0.
         23    2    1    2    0    0 -0.13140098661E+02  0.40672170454E+01  0.24000067747E+03  0.25819319701E+03  0.94202958277E+02 0.  0.
        -11    1    4    4    0    0 -0.78252435597E+01 -0.45063214148E+02  0.11130170593E+03  0.12033286105E+03  0.51100000000E-03 0. -1.
         11    1    4    4    0    0 -0.53148551014E+01  0.49130431193E+02  0.12869897155E+03  0.13786033596E+03  0.51100000000E-03 0.  1.
    9000005    1    3    3    0    0  0.59536345327E+02 -0.19308349460E+02  0.14377784669E+03  0.15681344959E+03  0.10000000000E+01 0.  0.
    9000005    1    3    3    0    0 -0.46396246666E+02  0.15241132414E+02  0.32047277072E+03  0.32417387402E+03  0.10000000000E+01 0.  0.
<mgrwt>
<rscale>  0 0.11731825E+03</rscale>
<asrwt>0</asrwt>
<pdfrwt beam="1">  1        2 0.11103324E+00 0.12577826E+03</pdfrwt>
<pdfrwt beam="2">  1       -2 0.26868630E-02 0.12577826E+03</pdfrwt>
<totfact> 0.18990853E+04</totfact>
</mgrwt>
</event>
<event>
 8    2  0.8128359E-004  0.1331539E+03  0.7818608E-02  0.1226470E+00
          2   -1    0    0  501    0  0.00000000000E+00  0.00000000000E+00  0.20938833191E+04  0.20938833191E+04  0.25500000000E-02 0. -1.
         -2   -1    0    0    0  501 -0.00000000000E+00 -0.00000000000E+00 -0.87210060315E+01  0.87210064043E+01  0.25500000000E-02 0.  1.
         25    2    1    2    0    0  0.16912191796E+02 -0.42670335805E+02  0.74856453957E+03  0.76031495908E+03  0.12499274907E+03 0.  0.
         23    2    1    2    0    0 -0.16912191796E+02  0.42670335805E+02  0.13365977735E+04  0.13422893664E+04  0.11463138877E+03 0.  0.
        -11    1    4    4    0    0 -0.36389154941E+01  0.18135741776E+02  0.29017976753E+02  0.34412059091E+02  0.51100000000E-03 0.  1.
         11    1    4    4    0    0 -0.13273276302E+02  0.24534594029E+02  0.13075797967E+04  0.13078773073E+04  0.51100000000E-03 0. -1.
    9000005    1    3    3    0    0  0.34720289864E+02  0.37389491271E+02  0.27310839825E+03  0.27783568846E+03  0.10000000000E+01 0.  0.
    9000005    1    3    3    0    0 -0.17808098069E+02 -0.80059827076E+02  0.47545614132E+03  0.48247927063E+03  0.10000000000E+01 0.  0.
<mgrwt>
<rscale>  0 0.13066642E+03</rscale>
<asrwt>0</asrwt>
<pdfrwt beam="1">  1        2 0.32213644E+00 0.13315392E+03</pdfrwt>
<pdfrwt beam="2">  1       -2 0.13416910E-02 0.13315392E+03</pdfrwt>
<totfact> 0.90702458E+03</totfact>
</mgrwt>
</event>
<event>
 8    2  0.8128359E-004  0.1255558E+03  0.7818608E-02  0.1249421E+00
         -2   -1    0    0    0  501 -0.00000000000E+00  0.00000000000E+00  0.14464398373E+03  0.14464398375E+03  0.25500000000E-02 0.  1.
          2   -1    0    0  501    0  0.00000000000E+00 -0.00000000000E+00 -0.14120885621E+03  0.14120885623E+03  0.25500000000E-02 0. -1.
         25    2    1    2    0    0  0.11766201105E+02 -0.10335815443E+01 -0.90049628416E+02  0.15450955886E+03  0.12499902568E+03 0.  0.
         23    2    1    2    0    0 -0.11766201105E+02  0.10335815443E+01  0.93484755933E+02  0.13134328113E+03  0.91499432379E+02 0.  0.
        -11    1    4    4    0    0  0.15571518807E+02  0.21597510529E+02 -0.49959891375E+01  0.27090303925E+02  0.51100000000E-03 0. -1.
         11    1    4    4    0    0 -0.27337719913E+02 -0.20563928985E+02  0.98480745071E+02  0.10425297720E+03  0.51100000000E-03 0.  1.
    9000005    1    3    3    0    0  0.61416441627E+02  0.58100958089E+01 -0.13744969655E+02  0.63211238765E+02  0.10000000000E+01 0.  0.
    9000005    1    3    3    0    0 -0.49650240521E+02 -0.68436773532E+01 -0.76304658761E+02  0.91298320095E+02  0.10000000000E+01 0.  0.
<mgrwt>
<rscale>  0 0.11624638E+03</rscale>
<asrwt>0</asrwt>
<pdfrwt beam="2">  1        2 0.21724439E-01 0.12555584E+03</pdfrwt>
<pdfrwt beam="1">  1       -2 0.22252920E-01 0.12555584E+03</pdfrwt>
<totfact> 0.42001260E+03</totfact>
</mgrwt>
</event>
<event>
 8    2  0.8128359E-004  0.1526190E+03  0.7818608E-02  0.1206295E+00
         -2   -1    0    0    0  501 -0.00000000000E+00  0.00000000000E+00  0.70317666601E+01  0.70317671225E+01  0.25500000000E-02 0.  1.
          2   -1    0    0  501    0  0.00000000000E+00 -0.00000000000E+00 -0.27628681945E+04  0.27628681945E+04  0.25500000000E-02 0. -1.
         25    2    1    2    0    0  0.75603675451E+02 -0.44175909296E+02 -0.15987677337E+04  0.16060357490E+04  0.12500053630E+03 0.  0.
         23    2    1    2    0    0 -0.75603675451E+02  0.44175909296E+02 -0.11570686942E+04  0.11638642127E+04  0.90025083952E+02 0.  0.
        -11    1    4    4    0    0 -0.59166672069E+02  0.23518276424E+02 -0.31440046742E+03  0.32078257173E+03  0.51100000000E-03 0.  1.
         11    1    4    4    0    0 -0.16437003382E+02  0.20657632872E+02 -0.84266822676E+03  0.84308164093E+03  0.51100000000E-03 0. -1.
    9000005    1    3    3    0    0 -0.32347765895E+02 -0.16132715716E+02 -0.59313637169E+03  0.59423766113E+03  0.10000000000E+01 0.  0.
    9000005    1    3    3    0    0  0.10795144135E+03 -0.28043193580E+02 -0.10056313620E+04  0.10117980879E+04  0.10000000000E+01 0.  0.
<mgrwt>
<rscale>  0 0.14535906E+03</rscale>
<asrwt>0</asrwt>
<pdfrwt beam="2">  1        2 0.42505578E+00 0.15261901E+03</pdfrwt>
<pdfrwt beam="1">  1       -2 0.10818125E-02 0.15261901E+03</pdfrwt>
<totfact> 0.54560224E+03</totfact>
</mgrwt>
</event>
<event>
 8    2  0.8128359E-004  0.1749597E+03  0.7818608E-02  0.1178670E+00
         -2   -1    0    0    0  501 -0.00000000000E+00  0.00000000000E+00  0.13565548156E+02  0.13565548395E+02  0.25500000000E-02 0.  1.
          2   -1    0    0  501    0  0.00000000000E+00 -0.00000000000E+00 -0.24722947863E+04  0.24722947863E+04  0.25500000000E-02 0. -1.
         25    2    1    2    0    0  0.43980593383E+02 -0.11424330506E+03 -0.18469654136E+04  0.18552337109E+04  0.12500023005E+03 0.  0.
         23    2    1    2    0    0 -0.43980593383E+02  0.11424330506E+03 -0.61176382455E+03  0.63062662384E+03  0.91919183699E+02 0.  0.
        -11    1    4    4    0    0  0.19770520302E+02  0.49732732856E+02 -0.13329455311E+03  0.14363723779E+03  0.51100000000E-03 0.  1.
         11    1    4    4    0    0 -0.63751113685E+02  0.64510572204E+02 -0.47846927143E+03  0.48698938605E+03  0.51100000000E-03 0. -1.
    9000005    1    3    3    0    0 -0.23986155483E+02  0.15375402200E+02 -0.32377008298E+03  0.32502277656E+03  0.10000000000E+01 0.  0.
    9000005    1    3    3    0    0  0.67966748866E+02 -0.12961870726E+03 -0.15231953307E+04  0.15302109343E+04  0.10000000000E+01 0.  0.
<mgrwt>
<rscale>  0 0.16921407E+03</rscale>
<asrwt>0</asrwt>
<pdfrwt beam="2">  1        2 0.38035269E+00 0.17495966E+03</pdfrwt>
<pdfrwt beam="1">  1       -2 0.20870094E-02 0.17495966E+03</pdfrwt>
<totfact> 0.30329525E+03</totfact>
</mgrwt>
</event>
<event>
 8    2  0.8128359E-004  0.1264834E+03  0.7818608E-02  0.1246723E+00
         -2   -1    0    0    0  501 -0.00000000000E+00  0.00000000000E+00  0.25501721481E+02  0.25501721609E+02  0.25500000000E-02 0. -1.
          2   -1    0    0  501    0  0.00000000000E+00 -0.00000000000E+00 -0.52548664453E+03  0.52548664454E+03  0.25500000000E-02 0.  1.
         25    2    1    2    0    0  0.47822782173E+01 -0.18737381507E+02 -0.20377115637E+03  0.23983480834E+03  0.12499636584E+03 0.  0.
         23    2    1    2    0    0 -0.47822782173E+01  0.18737381507E+02 -0.29621376668E+03  0.31115355780E+03  0.93273690367E+02 0.  0.
        -11    1    4    4    0    0 -0.35470128897E+02  0.24952348473E+02 -0.66997264631E+02  0.79808415638E+02  0.51100000000E-03 0. -1.
         11    1    4    4    0    0  0.30687850679E+02 -0.62149669665E+01 -0.22921650204E+03  0.23134514217E+03  0.51100000000E-03 0.  1.
    9000005    1    3    3    0    0  0.34969963700E+02 -0.51839702032E+02 -0.51218552641E+02  0.80836830731E+02  0.10000000000E+01 0.  0.
    9000005    1    3    3    0    0 -0.30187685483E+02  0.33102320525E+02 -0.15255260373E+03  0.15899797761E+03  0.10000000000E+01 0.  0.
<mgrwt>
<rscale>  0 0.11782831E+03</rscale>
<asrwt>0</asrwt>
<pdfrwt beam="2">  1        2 0.80844091E-01 0.12648340E+03</pdfrwt>
<pdfrwt beam="1">  1       -2 0.39233422E-02 0.12648340E+03</pdfrwt>
<totfact> 0.15650798E+04</totfact>
</mgrwt>
</event>
<event>
 8    2  0.8128359E-004  0.2192536E+03  0.7818608E-02  0.1137800E+00
          2   -1    0    0  501    0  0.00000000000E+00  0.00000000000E+00  0.88417450627E+03  0.88417450627E+03  0.25500000000E-02 0. -1.
         -2   -1    0    0    0  501 -0.00000000000E+00 -0.00000000000E+00 -0.53969660127E+02  0.53969660188E+02  0.25500000000E-02 0.  1.
         25    2    1    2    0    0 -0.17467090133E+03  0.44015458242E+02  0.55484057519E+03  0.59659047198E+03  0.12499937220E+03 0.  0.
         23    2    1    2    0    0  0.17467090133E+03 -0.44015458242E+02  0.27536427095E+03  0.34155369447E+03  0.91575980231E+02 0.  0.
        -11    1    4    4    0    0  0.10760666330E+03 -0.62007628153E+02  0.12641128216E+03  0.17721160288E+03  0.51100000000E-03 0. -1.
         11    1    4    4    0    0  0.67064238029E+02  0.17992169911E+02  0.14895298879E+03  0.16434209159E+03  0.51100000000E-03 0.  1.
    9000005    1    3    3    0    0 -0.93683990583E+02  0.26403165712E+01  0.44115400807E+03  0.45100057671E+03  0.10000000000E+01 0.  0.
    9000005    1    3    3    0    0 -0.80986910749E+02  0.41375141671E+02  0.11368656712E+03  0.14558989527E+03  0.10000000000E+01 0.  0.
<mgrwt>
<rscale>  0 0.21482608E+03</rscale>
<asrwt>0</asrwt>
<pdfrwt beam="1">  1        2 0.13602686E+00 0.21925357E+03</pdfrwt>
<pdfrwt beam="2">  1       -2 0.83030237E-02 0.21925357E+03</pdfrwt>
<totfact> 0.27596811E+03</totfact>
</mgrwt>
</event>
<event>
 8    2  0.8128359E-004  0.1262129E+03  0.7818608E-02  0.1248450E+00
         -2   -1    0    0    0  501 -0.00000000000E+00  0.00000000000E+00  0.10249352972E+04  0.10249352972E+04  0.25500000000E-02 0.  1.
          2   -1    0    0  501    0  0.00000000000E+00 -0.00000000000E+00 -0.15393601760E+02  0.15393601971E+02  0.25500000000E-02 0. -1.
         25    2    1    2    0    0 -0.97760466656E+01  0.14500188240E+02  0.81680197365E+03  0.82649571439E+03  0.12499550072E+03 0.  0.
         23    2    1    2    0    0  0.97760466656E+01 -0.14500188240E+02  0.19273972184E+03  0.21383318483E+03  0.90940662048E+02 0.  0.
        -11    1    4    4    0    0  0.19927407323E+02  0.20067676601E+02  0.14108059296E+02  0.31604596883E+02  0.51100000000E-03 0. -1.
         11    1    4    4    0    0 -0.10151360658E+02 -0.34567864841E+02  0.17863166254E+03  0.18222858795E+03  0.51100000000E-03 0.  1.
    9000005    1    3    3    0    0  0.51170160110E+02  0.32256566640E+02  0.32160952634E+03  0.32724999436E+03  0.10000000000E+01 0.  0.
    9000005    1    3    3    0    0 -0.60946206776E+02 -0.17756378400E+02  0.49519244731E+03  0.49924572003E+03  0.10000000000E+01 0.  0.
<mgrwt>
<rscale>  0 0.11681232E+03</rscale>
<asrwt>0</asrwt>
<pdfrwt beam="2">  1        2 0.23682466E-02 0.12621292E+03</pdfrwt>
<pdfrwt beam="1">  1       -2 0.15768234E+00 0.12621292E+03</pdfrwt>
<totfact> 0.11593200E+03</totfact>
</mgrwt>
</event>
<event>
 8    2  0.8128359E-004  0.1610687E+03  0.7818608E-02  0.1195063E+00
         -2   -1    0    0    0  501 -0.00000000000E+00  0.00000000000E+00  0.23256758328E+02  0.23256758468E+02  0.25500000000E-02 0. -1.
          2   -1    0    0  501    0  0.00000000000E+00 -0.00000000000E+00 -0.98171600806E+03  0.98171600807E+03  0.25500000000E-02 0.  1.
         25    2    1    2    0    0 -0.60217378367E+02  0.81814437837E+02 -0.42882679654E+03  0.45807809151E+03  0.12499352622E+03 0.  0.
         23    2    1    2    0    0  0.60217378367E+02 -0.81814437837E+02 -0.52963245320E+03  0.54689467502E+03  0.90903878870E+02 0.  0.
        -11    1    4    4    0    0 -0.12339253712E+02 -0.57921075446E+02 -0.25928909990E+03  0.26596606079E+03  0.51100000000E-03 0. -1.
         11    1    4    4    0    0  0.72556632079E+02 -0.23893362391E+02 -0.27034335330E+03  0.28092861424E+03  0.51100000000E-03 0.  1.
    9000005    1    3    3    0    0 -0.78306420951E+02  0.52011203283E+02 -0.40517186350E+03  0.41593545148E+03  0.10000000000E+01 0.  0.
    9000005    1    3    3    0    0  0.18089042584E+02  0.29803234554E+02 -0.23654933041E+02  0.42142640030E+02  0.10000000000E+01 0.  0.
<mgrwt>
<rscale>  0 0.15448934E+03</rscale>
<asrwt>0</asrwt>
<pdfrwt beam="2">  1        2 0.15103320E+00 0.16106867E+03</pdfrwt>
<pdfrwt beam="1">  1       -2 0.35779636E-02 0.16106867E+03</pdfrwt>
<totfact> 0.85457591E+03</totfact>
</mgrwt>
</event>
<event>
 8    2  0.8128359E-004  0.1257046E+03  0.7818608E-02  0.1248430E+00
          2   -1    0    0  501    0  0.00000000000E+00  0.00000000000E+00  0.18055837672E+04  0.18055837672E+04  0.25500000000E-02 0. -1.
         -2   -1    0    0    0  501 -0.00000000000E+00 -0.00000000000E+00 -0.66715318771E+01  0.66715323644E+01  0.25500000000E-02 0.  1.
         25    2    1    2    0    0 -0.11442410008E+02  0.66128047439E+01  0.10150376695E+04  0.10227918300E+04  0.12500799598E+03 0.  0.
         23    2    1    2    0    0  0.11442410008E+02 -0.66128047439E+01  0.78387456581E+03  0.78946346956E+03  0.92836290949E+02 0.  0.
        -11    1    4    4    0    0  0.36739425363E+02 -0.30277585816E+02  0.25171116962E+03  0.25617382866E+03  0.51100000000E-03 0.  1.
         11    1    4    4    0    0 -0.25297015355E+02  0.23664781072E+02  0.53216339619E+03  0.53328964090E+03  0.51100000000E-03 0. -1.
    9000005    1    3    3    0    0 -0.60735944282E+02 -0.24707867264E+02  0.45196275403E+03  0.45669537403E+03  0.10000000000E+01 0.  0.
    9000005    1    3    3    0    0  0.49293534274E+02  0.31320672008E+02  0.56307491551E+03  0.56609645599E+03  0.10000000000E+01 0.  0.
<mgrwt>
<rscale>  0 0.11682400E+03</rscale>
<asrwt>0</asrwt>
<pdfrwt beam="1">  1        2 0.27778236E+00 0.12570464E+03</pdfrwt>
<pdfrwt beam="2">  1       -2 0.10263887E-02 0.12570464E+03</pdfrwt>
<totfact> 0.18642954E+04</totfact>
</mgrwt>
</event>
<event>
 8    2  0.8128359E-004  0.1295122E+03  0.7818608E-02  0.1241780E+00
         -2   -1    0    0    0  501 -0.00000000000E+00  0.00000000000E+00  0.29389369763E+03  0.29389369764E+03  0.25500000000E-02 0.  1.
          2   -1    0    0  501    0  0.00000000000E+00 -0.00000000000E+00 -0.11687317206E+03  0.11687317209E+03  0.25500000000E-02 0. -1.
         25    2    1    2    0    0  0.11572103778E+02  0.31851100308E+02 -0.68419543188E+02  0.14647404859E+03  0.12500002737E+03 0.  0.
         23    2    1    2    0    0 -0.11572103778E+02 -0.31851100308E+02  0.24544006876E+03  0.26429282115E+03  0.91986204302E+02 0.  0.
        -11    1    4    4    0    0  0.24142826102E+02  0.13664312149E+02  0.28506767214E+02  0.39777195174E+02  0.51100000000E-03 0. -1.
         11    1    4    4    0    0 -0.35714929880E+02 -0.45515412457E+02  0.21693330154E+03  0.22451562597E+03  0.51100000000E-03 0.  1.
    9000005    1    3    3    0    0 -0.18738747718E+02  0.24651402725E+02 -0.98438746256E+02  0.10319892968E+03  0.10000000000E+01 0.  0.
    9000005    1    3    3    0    0  0.30310851496E+02  0.71996975837E+01  0.30019203068E+02  0.43275118909E+02  0.10000000000E+01 0.  0.
<mgrwt>
<rscale>  0 0.12080161E+03</rscale>
<asrwt>0</asrwt>
<pdfrwt beam="2">  1        2 0.17980488E-01 0.12951221E+03</pdfrwt>
<pdfrwt beam="1">  1       -2 0.45214415E-01 0.12951221E+03</pdfrwt>
<totfact> 0.14370789E+03</totfact>
</mgrwt>
</event>
<event>
 8    2  0.8128359E-004  0.2861843E+03  0.7818608E-02  0.1094089E+00
          2   -1    0    0  501    0  0.00000000000E+00  0.00000000000E+00  0.14877536628E+04  0.14877536628E+04  0.25500000000E-02 0.  1.
         -2   -1    0    0    0  501 -0.00000000000E+00 -0.00000000000E+00 -0.73306163658E+02  0.73306163702E+02  0.25500000000E-02 0. -1.
         25    2    1    2    0    0  0.24390236801E+03 -0.82393586401E+02  0.30431960795E+03  0.41774621323E+03  0.12499762671E+03 0.  0.
         23    2    1    2    0    0 -0.24390236801E+03  0.82393586401E+02  0.11101278912E+04  0.11433136133E+04  0.92222639816E+02 0.  0.
        -11    1    4    4    0    0 -0.12338546912E+03  0.52558375475E+02  0.76193117285E+03  0.77364427807E+03  0.51100000000E-03 0.  1.
         11    1    4    4    0    0 -0.12051689889E+03  0.29835210926E+02  0.34819671833E+03  0.36966933520E+03  0.51100000000E-03 0. -1.
    9000005    1    3    3    0    0 -0.53653971392E+01 -0.80643118466E+01 -0.70509338460E+01  0.12022324240E+02  0.10000000000E+01 0.  0.
    9000005    1    3    3    0    0  0.24926776515E+03 -0.74329274555E+02  0.31137054180E+03  0.40572388899E+03  0.10000000000E+01 0.  0.
<mgrwt>
<rscale>  0 0.28294960E+03</rscale>
<asrwt>0</asrwt>
<pdfrwt beam="1">  1        2 0.22888518E+00 0.28618434E+03</pdfrwt>
<pdfrwt beam="2">  1       -2 0.11277871E-01 0.28618434E+03</pdfrwt>
<totfact> 0.75827323E+02</totfact>
</mgrwt>
</event>
<event>
 8    2  0.8128359E-004  0.1346653E+03  0.7818608E-02  0.1233472E+00
          2   -1    0    0  501    0  0.00000000000E+00  0.00000000000E+00  0.51820085460E+03  0.51820085460E+03  0.25500000000E-02 0.  1.
         -2   -1    0    0    0  501 -0.00000000000E+00 -0.00000000000E+00 -0.27364069284E+02  0.27364069403E+02  0.25500000000E-02 0. -1.
         25    2    1    2    0    0 -0.71779472834E+01 -0.49560483245E+02  0.28868013155E+03  0.31854506788E+03  0.12500790973E+03 0.  0.
         23    2    1    2    0    0  0.71779472834E+01  0.49560483245E+02  0.20215665376E+03  0.22701985612E+03  0.90348978892E+02 0.  0.
        -11    1    4    4    0    0 -0.15959816697E+02  0.12879226606E+02  0.17423967550E+03  0.17544245423E+03  0.51100000000E-03 0.  1.
         11    1    4    4    0    0  0.23137763980E+02  0.36681256639E+02  0.27916978262E+02  0.51577401895E+02  0.51100000000E-03 0. -1.
    9000005    1    3    3    0    0  0.31164303663E+02 -0.45388855381E+02  0.43034290663E+02  0.69887854370E+02  0.10000000000E+01 0.  0.
    9000005    1    3    3    0    0 -0.38342250947E+02 -0.41716278640E+01  0.24564584089E+03  0.24865721351E+03  0.10000000000E+01 0.  0.
<mgrwt>
<rscale>  0 0.12602767E+03</rscale>
<asrwt>0</asrwt>
<pdfrwt beam="1">  1        2 0.79723208E-01 0.13466530E+03</pdfrwt>
<pdfrwt beam="2">  1       -2 0.42098568E-02 0.13466530E+03</pdfrwt>
<totfact> 0.14386097E+04</totfact>
</mgrwt>
</event>
<event>
 8    2  0.8128359E-004  0.1577350E+03  0.7818608E-02  0.1198103E+00
          2   -1    0    0  501    0  0.00000000000E+00  0.00000000000E+00  0.61151893413E+02  0.61151893466E+02  0.25500000000E-02 0. -1.
         -2   -1    0    0    0  501 -0.00000000000E+00 -0.00000000000E+00 -0.37449658669E+03  0.37449658669E+03  0.25500000000E-02 0.  1.
         25    2    1    2    0    0 -0.90395242803E+02  0.32937614155E+02 -0.22057210843E+03  0.27116854145E+03  0.12499654597E+03 0.  0.
         23    2    1    2    0    0  0.90395242803E+02 -0.32937614155E+02 -0.92772584838E+02  0.16447993871E+03  0.95868198030E+02 0.  0.
        -11    1    4    4    0    0  0.75851299939E+02 -0.17986106886E+02 -0.11176807156E+03  0.13626819719E+03  0.51100000000E-03 0.  1.
         11    1    4    4    0    0  0.14543942864E+02 -0.14951507269E+02  0.18995486726E+02  0.28211741524E+02  0.51100000000E-03 0. -1.
    9000005    1    3    3    0    0 -0.72216504357E+02  0.74735982648E+02 -0.10883594885E+03  0.15048905065E+03  0.10000000000E+01 0.  0.
    9000005    1    3    3    0    0 -0.18178738446E+02 -0.41798368493E+02 -0.11173615958E+03  0.12067949080E+03  0.10000000000E+01 0.  0.
<mgrwt>
<rscale>  0 0.15194500E+03</rscale>
<asrwt>0</asrwt>
<pdfrwt beam="1">  1        2 0.94079839E-02 0.15773498E+03</pdfrwt>
<pdfrwt beam="2">  1       -2 0.57614858E-01 0.15773498E+03</pdfrwt>
<totfact> 0.19382186E+03</totfact>
</mgrwt>
</event>
<event>
 8    2  0.8128359E-004  0.1351467E+03  0.7818608E-02  0.1231412E+00
         -2   -1    0    0    0  501 -0.00000000000E+00  0.00000000000E+00  0.90394566729E+02  0.90394566765E+02  0.25500000000E-02 0.  1.
          2   -1    0    0  501    0  0.00000000000E+00 -0.00000000000E+00 -0.16169395108E+03  0.16169395110E+03  0.25500000000E-02 0. -1.
         25    2    1    2    0    0  0.33972157373E+01 -0.51267889738E+02 -0.37990938428E+02  0.14038496310E+03  0.12499875547E+03 0.  0.
         23    2    1    2    0    0 -0.33972157373E+01  0.51267889738E+02 -0.33308445926E+02  0.11170355476E+03  0.93425339090E+02 0.  0.
        -11    1    4    4    0    0 -0.47715524637E+02  0.31826529819E+02 -0.25141588034E+02  0.62624266390E+02  0.51100000000E-03 0.  1.
         11    1    4    4    0    0  0.44318308900E+02  0.19441359919E+02 -0.81668578919E+01  0.49079288374E+02  0.51100000000E-03 0. -1.
    9000005    1    3    3    0    0  0.53994016190E+02 -0.10860508715E+01 -0.42855614341E+02  0.68950249974E+02  0.10000000000E+01 0.  0.
    9000005    1    3    3    0    0 -0.50596800453E+02 -0.50181838867E+02  0.48646759132E+01  0.71434713129E+02  0.10000000000E+01 0.  0.
<mgrwt>
<rscale>  0 0.12736956E+03</rscale>
<asrwt>0</asrwt>
<pdfrwt beam="2">  1        2 0.24875992E-01 0.13514668E+03</pdfrwt>
<pdfrwt beam="1">  1       -2 0.13906856E-01 0.13514668E+03</pdfrwt>
<totfact> 0.79414961E+03</totfact>
</mgrwt>
</event>
<event>
 8    2  0.8128359E-004  0.1366425E+03  0.7818608E-02  0.1229856E+00
         -2   -1    0    0    0  501 -0.00000000000E+00  0.00000000000E+00  0.94556612549E+01  0.94556615987E+01  0.25500000000E-02 0. -1.
          2   -1    0    0  501    0  0.00000000000E+00 -0.00000000000E+00 -0.15680116643E+04  0.15680116643E+04  0.25500000000E-02 0.  1.
         25    2    1    2    0    0  0.41008642660E+02  0.36928905596E+02 -0.91831436046E+03  0.92842471266E+03  0.12500291838E+03 0.  0.
         23    2    1    2    0    0 -0.41008642660E+02 -0.36928905596E+02 -0.64024164256E+03  0.64904261322E+03  0.91112568090E+02 0.  0.
        -11    1    4    4    0    0  0.22414894338E+02 -0.14310796196E+02 -0.35357890183E+03  0.35457758840E+03  0.51100000000E-03 0.  1.
         11    1    4    4    0    0 -0.63423536999E+02 -0.22618109400E+02 -0.28666274074E+03  0.29446502482E+03  0.51100000000E-03 0. -1.
    9000005    1    3    3    0    0  0.76511514628E+02  0.39617418772E+02 -0.80612181238E+03  0.81071383863E+03  0.10000000000E+01 0.  0.
    9000005    1    3    3    0    0 -0.35502871968E+02 -0.26885131758E+01 -0.11219254807E+03  0.11771087403E+03  0.10000000000E+01 0.  0.
<mgrwt>
<rscale>  0 0.12839536E+03</rscale>
<asrwt>0</asrwt>
<pdfrwt beam="2">  1        2 0.24123236E+00 0.13664254E+03</pdfrwt>
<pdfrwt beam="1">  1       -2 0.14547184E-02 0.13664254E+03</pdfrwt>
<totfact> 0.15024295E+04</totfact>
</mgrwt>
</event>
<event>
 8    2  0.8128359E-004  0.1640776E+03  0.7818608E-02  0.1190873E+00
         -2   -1    0    0    0  501 -0.00000000000E+00  0.00000000000E+00  0.69489037017E+02  0.69489037064E+02  0.25500000000E-02 0.  1.
          2   -1    0    0  501    0  0.00000000000E+00 -0.00000000000E+00 -0.33630083437E+03  0.33630083438E+03  0.25500000000E-02 0. -1.
         25    2    1    2    0    0 -0.17075307455E+02  0.10492585658E+03 -0.13488553579E+03  0.21240422357E+03  0.12498177836E+03 0.  0.
         23    2    1    2    0    0  0.17075307455E+02 -0.10492585658E+03 -0.13192626156E+03  0.19338564787E+03  0.93233410375E+02 0.  0.
        -11    1    4    4    0    0  0.28214001451E+02 -0.29251735851E+02 -0.10450519546E+03  0.11212952245E+03  0.51100000000E-03 0. -1.
         11    1    4    4    0    0 -0.11138693995E+02 -0.75674120727E+02 -0.27421066109E+02  0.81256125422E+02  0.51100000000E-03 0.  1.
    9000005    1    3    3    0    0 -0.45482849620E+02 -0.87209290833E+01 -0.46675716415E+02  0.65759917248E+02  0.10000000000E+01 0.  0.
    9000005    1    3    3    0    0  0.28407542165E+02  0.11364678566E+03 -0.88209819377E+02  0.14664430632E+03  0.10000000000E+01 0.  0.
<mgrwt>
<rscale>  0 0.15808764E+03</rscale>
<asrwt>0</asrwt>
<pdfrwt beam="2">  1        2 0.51738589E-01 0.16407756E+03</pdfrwt>
<pdfrwt beam="1">  1       -2 0.10690621E-01 0.16407756E+03</pdfrwt>
<totfact> 0.55728378E+03</totfact>
</mgrwt>
</event>
<event>
 8    2  0.8128359E-004  0.1311617E+03  0.7818608E-02  0.1239587E+00
          2   -1    0    0  501    0  0.00000000000E+00  0.00000000000E+00  0.11009544716E+04  0.11009544716E+04  0.25500000000E-02 0. -1.
         -2   -1    0    0    0  501 -0.00000000000E+00 -0.00000000000E+00 -0.15032388958E+02  0.15032389174E+02  0.25500000000E-02 0.  1.
         25    2    1    2    0    0 -0.39529890611E+02 -0.40474819724E+01  0.35538769553E+03  0.37881897017E+03  0.12499761464E+03 0.  0.
         23    2    1    2    0    0  0.39529890611E+02  0.40474819724E+01  0.73053438714E+03  0.73716789064E+03  0.90316188047E+02 0.  0.
        -11    1    4    4    0    0  0.42595872400E+02 -0.30207816017E+02  0.59686284745E+03  0.59914287041E+03  0.51100000000E-03 0.  1.
         11    1    4    4    0    0 -0.30659817888E+01  0.34255297989E+02  0.13367153969E+03  0.13802502023E+03  0.51100000000E-03 0. -1.
    9000005    1    3    3    0    0  0.29335492136E+02 -0.18143678373E+02  0.24850289390E+03  0.25088733017E+03  0.10000000000E+01 0.  0.
    9000005    1    3    3    0    0 -0.68865382747E+02  0.14096196401E+02  0.10688480163E+03  0.12793164000E+03  0.10000000000E+01 0.  0.
<mgrwt>
<rscale>  0 0.12215267E+03</rscale>
<asrwt>0</asrwt>
<pdfrwt beam="1">  1        2 0.16937760E+00 0.13116172E+03</pdfrwt>
<pdfrwt beam="2">  1       -2 0.23126755E-02 0.13116172E+03</pdfrwt>
<totfact> 0.13658727E+04</totfact>
</mgrwt>
</event>
<event>
 8    2  0.8128359E-004  0.1278941E+03  0.7818608E-02  0.1245186E+00
          2   -1    0    0  501    0  0.00000000000E+00  0.00000000000E+00  0.71405047527E+02  0.71405047573E+02  0.25500000000E-02 0. -1.
         -2   -1    0    0    0  501 -0.00000000000E+00 -0.00000000000E+00 -0.24901043627E+03  0.24901043629E+03  0.25500000000E-02 0.  1.
         25    2    1    2    0    0 -0.40328500715E+01  0.26744503223E+02 -0.18521167947E+03  0.22507835428E+03  0.12500146807E+03 0.  0.
         23    2    1    2    0    0  0.40328500715E+01 -0.26744503223E+02  0.76062907244E+01  0.95337129582E+02  0.91103129946E+02 0.  0.
        -11    1    4    4    0    0  0.44348694263E+02  0.31084335588E+01  0.79927252093E+01  0.45170263433E+02  0.51100000000E-03 0. -1.
         11    1    4    4    0    0 -0.40315844192E+02 -0.29852936782E+02 -0.38643448497E+00  0.50166866149E+02  0.51100000000E-03 0.  1.
    9000005    1    3    3    0    0 -0.32939195930E+02  0.70280949613E+01 -0.18701611442E+03  0.19002739750E+03  0.10000000000E+01 0.  0.
    9000005    1    3    3    0    0  0.28906345859E+02  0.19716408261E+02  0.18044349488E+01  0.35050956779E+02  0.10000000000E+01 0.  0.
<mgrwt>
<rscale>  0 0.11874265E+03</rscale>
<asrwt>0</asrwt>
<pdfrwt beam="1">  1        2 0.10985392E-01 0.12789409E+03</pdfrwt>
<pdfrwt beam="2">  1       -2 0.38309297E-01 0.12789409E+03</pdfrwt>
<totfact> 0.35186450E+03</totfact>
</mgrwt>
</event>
<event>
 8    2  0.8128359E-004  0.1295519E+03  0.7818608E-02  0.1243681E+00
         -2   -1    0    0    0  501 -0.00000000000E+00  0.00000000000E+00  0.21813807207E+02  0.21813807356E+02  0.25500000000E-02 0. -1.
          2   -1    0    0  501    0  0.00000000000E+00 -0.00000000000E+00 -0.57409793845E+03  0.57409793846E+03  0.25500000000E-02 0.  1.
         25    2    1    2    0    0 -0.13789046614E+02  0.31126641478E+02 -0.32302251349E+03  0.34803339382E+03  0.12499877350E+03 0.  0.
         23    2    1    2    0    0  0.13789046614E+02 -0.31126641478E+02 -0.22926161775E+03  0.24787835200E+03  0.87885052178E+02 0.  0.
        -11    1    4    4    0    0 -0.25254694477E+02  0.16416955770E+02 -0.10478765666E+03  0.10903104612E+03  0.51100000000E-03 0.  1.
         11    1    4    4    0    0  0.39043741090E+02 -0.47543597247E+02 -0.12447396109E+03  0.13884730587E+03  0.51100000000E-03 0. -1.
    9000005    1    3    3    0    0  0.21667580793E+02 -0.29625082296E+02 -0.32241128263E+02  0.48863277726E+02  0.10000000000E+01 0.  0.
    9000005    1    3    3    0    0 -0.35456627406E+02  0.60751723773E+02 -0.29078138523E+03  0.29917011610E+03  0.10000000000E+01 0.  0.
<mgrwt>
<rscale>  0 0.11964693E+03</rscale>
<asrwt>0</asrwt>
<pdfrwt beam="2">  1        2 0.88322749E-01 0.12955192E+03</pdfrwt>
<pdfrwt beam="1">  1       -2 0.33559708E-02 0.12955192E+03</pdfrwt>
<totfact> 0.17900471E+04</totfact>
</mgrwt>
</event>
<event>
 8    2  0.8128359E-004  0.1257217E+03  0.7818608E-02  0.1249213E+00
         -2   -1    0    0    0  501 -0.00000000000E+00  0.00000000000E+00  0.13375889612E+02  0.13375889855E+02  0.25500000000E-02 0.  1.
          2   -1    0    0  501    0  0.00000000000E+00 -0.00000000000E+00 -0.11448732897E+04  0.11448732897E+04  0.25500000000E-02 0. -1.
         25    2    1    2    0    0 -0.43497263857E+01 -0.12734342975E+02 -0.90476905156E+03  0.91346208905E+03  0.12499947143E+03 0.  0.
         23    2    1    2    0    0  0.43497263857E+01  0.12734342975E+02 -0.22672834849E+03  0.24478709047E+03  0.91290153037E+02 0.  0.
        -11    1    4    4    0    0 -0.10981811951E+02 -0.13147918447E+02 -0.11043200643E+01  0.17166463709E+02  0.51100000000E-03 0.  1.
         11    1    4    4    0    0  0.15331538336E+02  0.25882261422E+02 -0.22562402842E+03  0.22762062676E+03  0.51100000000E-03 0. -1.
    9000005    1    3    3    0    0  0.11133828656E+02 -0.62365900481E+02 -0.67071866267E+03  0.67370467724E+03  0.10000000000E+01 0.  0.
    9000005    1    3    3    0    0 -0.15483555042E+02  0.49631557506E+02 -0.23405038889E+03  0.23975741181E+03  0.10000000000E+01 0.  0.
<mgrwt>
<rscale>  0 0.11636722E+03</rscale>
<asrwt>0</asrwt>
<pdfrwt beam="2">  1        2 0.17613428E+00 0.12572172E+03</pdfrwt>
<pdfrwt beam="1">  1       -2 0.20578301E-02 0.12572172E+03</pdfrwt>
<totfact> 0.15243006E+04</totfact>
</mgrwt>
</event>
<event>
 8    2  0.8128359E-004  0.1324934E+03  0.7818608E-02  0.1237353E+00
          2   -1    0    0  501    0  0.00000000000E+00  0.00000000000E+00  0.12909771892E+04  0.12909771892E+04  0.25500000000E-02 0. -1.
         -2   -1    0    0    0  501 -0.00000000000E+00 -0.00000000000E+00 -0.10514099190E+02  0.10514099499E+02  0.25500000000E-02 0.  1.
         25    2    1    2    0    0  0.42969939502E+02  0.90653327499E+01  0.69429778536E+03  0.70682665968E+03  0.12500366445E+03 0.  0.
         23    2    1    2    0    0 -0.42969939502E+02 -0.90653327499E+01  0.58616530466E+03  0.59466462902E+03  0.90042549221E+02 0.  0.
        -11    1    4    4    0    0 -0.57226948513E+02  0.11286419227E+02  0.53059737751E+03  0.53379385901E+03  0.51100000000E-03 0. -1.
         11    1    4    4    0    0  0.14257009012E+02 -0.20351751977E+02  0.55567927142E+02  0.60870770010E+02  0.51100000000E-03 0.  1.
    9000005    1    3    3    0    0 -0.20064737112E+02  0.51160767959E+02  0.34938322280E+03  0.35368015809E+03  0.10000000000E+01 0.  0.
    9000005    1    3    3    0    0  0.63034676614E+02 -0.42095435209E+02  0.34491456256E+03  0.35314650159E+03  0.10000000000E+01 0.  0.
<mgrwt>
<rscale>  0 0.12354986E+03</rscale>
<asrwt>0</asrwt>
<pdfrwt beam="1">  1        2 0.19861179E+00 0.13249344E+03</pdfrwt>
<pdfrwt beam="2">  1       -2 0.16175544E-02 0.13249344E+03</pdfrwt>
<totfact> 0.18007846E+04</totfact>
</mgrwt>
</event>
<event>
 8    2  0.8128359E-004  0.1321104E+03  0.7818608E-02  0.1237564E+00
         -2   -1    0    0    0  501 -0.00000000000E+00  0.00000000000E+00  0.71050962797E+01  0.71050967373E+01  0.25500000000E-02 0.  1.
          2   -1    0    0  501    0  0.00000000000E+00 -0.00000000000E+00 -0.19239890303E+04  0.19239890303E+04  0.25500000000E-02 0. -1.
         25    2    1    2    0    0 -0.28765513583E+02  0.31643852390E+02 -0.99392795987E+03  0.10026694045E+04  0.12499742827E+03 0.  0.
         23    2    1    2    0    0  0.28765513583E+02 -0.31643852390E+02 -0.92295597418E+03  0.92842472260E+03  0.91082089896E+02 0.  0.
        -11    1    4    4    0    0  0.53418480586E+02 -0.46159417944E+02 -0.72181877271E+03  0.72526310162E+03  0.51100000000E-03 0. -1.
         11    1    4    4    0    0 -0.24652967002E+02  0.14515565554E+02 -0.20113720147E+03  0.20316162098E+03  0.51100000000E-03 0.  1.
    9000005    1    3    3    0    0 -0.57949483473E+02  0.12957605424E+02 -0.90900091089E+03  0.91093891023E+03  0.10000000000E+01 0.  0.
    9000005    1    3    3    0    0  0.29183969890E+02  0.18686246967E+02 -0.84927048982E+02  0.91730494238E+02  0.10000000000E+01 0.  0.
<mgrwt>
<rscale>  0 0.12341717E+03</rscale>
<asrwt>0</asrwt>
<pdfrwt beam="2">  1        2 0.29599790E+00 0.13211035E+03</pdfrwt>
<pdfrwt beam="1">  1       -2 0.10930933E-02 0.13211035E+03</pdfrwt>
<totfact> 0.14863517E+04</totfact>
</mgrwt>
</event>
<event>
 8    2  0.8128359E-004  0.1699932E+03  0.7818608E-02  0.1184475E+00
         -2   -1    0    0    0  501 -0.00000000000E+00  0.00000000000E+00  0.16937842270E+02  0.16937842461E+02  0.25500000000E-02 0.  1.
          2   -1    0    0  501    0  0.00000000000E+00 -0.00000000000E+00 -0.14816243894E+04  0.14816243894E+04  0.25500000000E-02 0. -1.
         25    2    1    2    0    0  0.21369661528E+02 -0.11321181365E+03 -0.81924589589E+03  0.83669678634E+03  0.12499638859E+03 0.  0.
         23    2    1    2    0    0 -0.21369661528E+02  0.11321181365E+03 -0.64544065124E+03  0.66186544552E+03  0.90546432934E+02 0.  0.
        -11    1    4    4    0    0  0.32754950970E+02  0.37731326507E+02 -0.16003900541E+03  0.16765745753E+03  0.51100000000E-03 0.  1.
         11    1    4    4    0    0 -0.54124612498E+02  0.75480487140E+02 -0.48540164583E+03  0.49420798799E+03  0.51100000000E-03 0. -1.
    9000005    1    3    3    0    0  0.33710088892E+02 -0.11924428303E+03 -0.43774905063E+03  0.45495142647E+03  0.10000000000E+01 0.  0.
    9000005    1    3    3    0    0 -0.12340427364E+02  0.60324693814E+01 -0.38149684526E+03  0.38174535986E+03  0.10000000000E+01 0.  0.
<mgrwt>
<rscale>  0 0.16379787E+03</rscale>
<asrwt>0</asrwt>
<pdfrwt beam="2">  1        2 0.22794211E+00 0.16999316E+03</pdfrwt>
<pdfrwt beam="1">  1       -2 0.26058231E-02 0.16999316E+03</pdfrwt>
<totfact> 0.71990843E+03</totfact>
</mgrwt>
</event>
<event>
 8    2  0.8128359E-004  0.2257919E+03  0.7818608E-02  0.1133123E+00
          2   -1    0    0  501    0  0.00000000000E+00  0.00000000000E+00  0.17344560852E+03  0.17344560854E+03  0.25500000000E-02 0.  1.
         -2   -1    0    0    0  501 -0.00000000000E+00 -0.00000000000E+00 -0.27709158487E+03  0.27709158488E+03  0.25500000000E-02 0. -1.
         25    2    1    2    0    0  0.48601429737E+02  0.18164495687E+03 -0.89037819881E+02  0.24271327349E+03  0.12500004172E+03 0.  0.
         23    2    1    2    0    0 -0.48601429737E+02 -0.18164495687E+03 -0.14608156470E+02  0.20782391993E+03  0.87294868872E+02 0.  0.
        -11    1    4    4    0    0  0.38579909338E+01 -0.54711817005E+02  0.31124920607E+02  0.63063679698E+02  0.51100000000E-03 0.  1.
         11    1    4    4    0    0 -0.52459420671E+02 -0.12693313987E+03 -0.45733077077E+02  0.14476024023E+03  0.51100000000E-03 0. -1.
    9000005    1    3    3    0    0  0.58874131075E+02  0.97118319291E+02 -0.10660204876E+03  0.15576626095E+03  0.10000000000E+01 0.  0.
    9000005    1    3    3    0    0 -0.10272701338E+02  0.84526637581E+02  0.17564228876E+02  0.86947012539E+02  0.10000000000E+01 0.  0.
<mgrwt>
<rscale>  0 0.22102242E+03</rscale>
<asrwt>0</asrwt>
<pdfrwt beam="1">  1        2 0.26683940E-01 0.22579194E+03</pdfrwt>
<pdfrwt beam="2">  1       -2 0.42629474E-01 0.22579194E+03</pdfrwt>
<totfact> 0.10493335E+03</totfact>
</mgrwt>
</event>
<event>
 8    2  0.8128359E-004  0.1287370E+03  0.7818608E-02  0.1243090E+00
         -2   -1    0    0    0  501 -0.00000000000E+00  0.00000000000E+00  0.56922998738E+01  0.56923004450E+01  0.25500000000E-02 0.  1.
          2   -1    0    0  501    0  0.00000000000E+00 -0.00000000000E+00 -0.22621837547E+04  0.22621837547E+04  0.25500000000E-02 0. -1.
         25    2    1    2    0    0  0.21962008947E+02  0.21581507410E+02 -0.13904104376E+04  0.13963575506E+04  0.12500053074E+03 0.  0.
         23    2    1    2    0    0 -0.21962008947E+02 -0.21581507410E+02 -0.86608101720E+03  0.87151850457E+03  0.92195900988E+02 0.  0.
        -11    1    4    4    0    0 -0.20854405667E+02  0.24151399788E+02 -0.64320938125E+03  0.64400039167E+03  0.51100000000E-03 0. -1.
         11    1    4    4    0    0 -0.11076032795E+01 -0.45732907198E+02 -0.22287163595E+03  0.22751811290E+03  0.51100000000E-03 0.  1.
    9000005    1    3    3    0    0 -0.13237927574E+02  0.38127557140E+02 -0.15003340927E+03  0.15537045163E+03  0.10000000000E+01 0.  0.
    9000005    1    3    3    0    0  0.35199936521E+02 -0.16546049730E+02 -0.12403770284E+04  0.12409870990E+04  0.10000000000E+01 0.  0.
<mgrwt>
<rscale>  0 0.12000411E+03</rscale>
<asrwt>0</asrwt>
<pdfrwt beam="2">  1        2 0.34802755E+00 0.12873703E+03</pdfrwt>
<pdfrwt beam="1">  1       -2 0.87574029E-03 0.12873703E+03</pdfrwt>
<totfact> 0.13661550E+04</totfact>
</mgrwt>
</event>
<event>
 8    2  0.8128359E-004  0.1534969E+03  0.7818608E-02  0.1205235E+00
          2   -1    0    0  501    0  0.00000000000E+00  0.00000000000E+00  0.10290845501E+04  0.10290845501E+04  0.25500000000E-02 0. -1.
         -2   -1    0    0    0  501 -0.00000000000E+00 -0.00000000000E+00 -0.20700461081E+02  0.20700461238E+02  0.25500000000E-02 0.  1.
         25    2    1    2    0    0  0.88728768070E+02  0.73110278138E+01  0.69826788559E+03  0.71494010475E+03  0.12504026517E+03 0.  0.
         23    2    1    2    0    0 -0.88728768070E+02 -0.73110278138E+01  0.31011620344E+03  0.33484490661E+03  0.89570120210E+02 0.  0.
        -11    1    4    4    0    0 -0.10528270703E+02  0.94680274004E+01 -0.42878491747E+00  0.14165870380E+02  0.51100000000E-03 0.  1.
         11    1    4    4    0    0 -0.78200497367E+02 -0.16779055214E+02  0.31054498836E+03  0.32067903623E+03  0.51100000000E-03 0. -1.
    9000005    1    3    3    0    0  0.66771601218E+02 -0.22971962821E+02  0.15436872135E+03  0.16975529428E+03  0.10000000000E+01 0.  0.
    9000005    1    3    3    0    0  0.21957166852E+02  0.30282990635E+02  0.54389916425E+03  0.54518481047E+03  0.10000000000E+01 0.  0.
<mgrwt>
<rscale>  0 0.14618966E+03</rscale>
<asrwt>0</asrwt>
<pdfrwt beam="1">  1        2 0.15832075E+00 0.15349695E+03</pdfrwt>
<pdfrwt beam="2">  1       -2 0.31846854E-02 0.15349695E+03</pdfrwt>
<totfact> 0.94891160E+03</totfact>
</mgrwt>
</event>
<event>
 8    2  0.8128359E-004  0.1297071E+03  0.7818608E-02  0.1238813E+00
         -2   -1    0    0    0  501 -0.00000000000E+00  0.00000000000E+00  0.10230565919E+02  0.10230566237E+02  0.25500000000E-02 0.  1.
          2   -1    0    0  501    0  0.00000000000E+00 -0.00000000000E+00 -0.14632061449E+04  0.14632061449E+04  0.25500000000E-02 0. -1.
         25    2    1    2    0    0  0.16641706255E+02 -0.30348932130E+02 -0.10207264880E+04  0.10289346419E+04  0.12500371955E+03 0.  0.
         23    2    1    2    0    0 -0.16641706255E+02  0.30348932130E+02 -0.43224909094E+03  0.44450206921E+03  0.97697537568E+02 0.  0.
        -11    1    4    4    0    0 -0.17332605855E+02 -0.12679795617E+02 -0.35829717755E+03  0.35894019541E+03  0.51100000000E-03 0. -1.
         11    1    4    4    0    0  0.69089959954E+00  0.43028727747E+02 -0.73951913393E+02  0.85561873802E+02  0.51100000000E-03 0.  1.
    9000005    1    3    3    0    0  0.67511607340E+02 -0.38132938553E+02 -0.66439810918E+03  0.66890790518E+03  0.10000000000E+01 0.  0.
    9000005    1    3    3    0    0 -0.50869901085E+02  0.77840064227E+01 -0.35632837885E+03  0.36002673674E+03  0.10000000000E+01 0.  0.
<mgrwt>
<rscale>  0 0.12263448E+03</rscale>
<asrwt>0</asrwt>
<pdfrwt beam="2">  1        2 0.22510847E+00 0.12970711E+03</pdfrwt>
<pdfrwt beam="1">  1       -2 0.15739344E-02 0.12970711E+03</pdfrwt>
<totfact> 0.15160949E+04</totfact>
</mgrwt>
</event>
<event>
 8    2  0.8128359E-004  0.1714792E+03  0.7818608E-02  0.1182698E+00
          2   -1    0    0  501    0  0.00000000000E+00  0.00000000000E+00  0.50743159457E+03  0.50743159457E+03  0.25500000000E-02 0.  1.
         -2   -1    0    0    0  501 -0.00000000000E+00 -0.00000000000E+00 -0.52120323236E+02  0.52120323298E+02  0.25500000000E-02 0. -1.
         25    2    1    2    0    0 -0.11334190279E+03 -0.30559171341E+02  0.29332951675E+03  0.33977541590E+03  0.12499951190E+03 0.  0.
         23    2    1    2    0    0  0.11334190279E+03  0.30559171341E+02  0.16198175458E+03  0.21977650197E+03  0.91013032690E+02 0.  0.
        -11    1    4    4    0    0  0.87627294140E+02 -0.10873480701E+02  0.14170652011E+03  0.16696560455E+03  0.51100000000E-03 0.  1.
         11    1    4    4    0    0  0.25714608649E+02  0.41432652042E+02  0.20275234475E+02  0.52810897421E+02  0.51100000000E-03 0. -1.
    9000005    1    3    3    0    0 -0.10926511838E+03 -0.70900495348E+02  0.21035891276E+03  0.24742194428E+03  0.10000000000E+01 0.  0.
    9000005    1    3    3    0    0 -0.40767844089E+01  0.40341324007E+02  0.82970603988E+02  0.92353471618E+02  0.10000000000E+01 0.  0.
<mgrwt>
<rscale>  0 0.16543152E+03</rscale>
<asrwt>0</asrwt>
<pdfrwt beam="1">  1        2 0.78066398E-01 0.17147923E+03</pdfrwt>
<pdfrwt beam="2">  1       -2 0.80185114E-02 0.17147923E+03</pdfrwt>
<totfact> 0.56187002E+03</totfact>
</mgrwt>
</event>
<event>
 8    2  0.8128359E-004  0.1413566E+03  0.7818608E-02  0.1222678E+00
         -2   -1    0    0    0  501 -0.00000000000E+00  0.00000000000E+00  0.32855538464E+02  0.32855538563E+02  0.25500000000E-02 0.  1.
          2   -1    0    0  501    0  0.00000000000E+00 -0.00000000000E+00 -0.52379006415E+03  0.52379006416E+03  0.25500000000E-02 0. -1.
         25    2    1    2    0    0 -0.49525235110E+02  0.43563086566E+02 -0.19918453025E+03  0.24424614431E+03  0.12502483951E+03 0.  0.
         23    2    1    2    0    0  0.49525235110E+02 -0.43563086566E+02 -0.29174999544E+03  0.31239945841E+03  0.90138062739E+02 0.  0.
        -11    1    4    4    0    0  0.78078643290E+00 -0.58735888460E+02 -0.18437320015E+03  0.19350449905E+03  0.51100000000E-03 0.  1.
         11    1    4    4    0    0  0.48744448677E+02  0.15172801893E+02 -0.10737679529E+03  0.11889495936E+03  0.51100000000E-03 0. -1.
    9000005    1    3    3    0    0  0.27479264453E+02 -0.23450704089E+02 -0.31548577471E+02  0.47972473749E+02  0.10000000000E+01 0.  0.
    9000005    1    3    3    0    0 -0.77004499563E+02  0.67013790656E+02 -0.16763595278E+03  0.19627367056E+03  0.10000000000E+01 0.  0.
<mgrwt>
<rscale>  0 0.13327351E+03</rscale>
<asrwt>0</asrwt>
<pdfrwt beam="2">  1        2 0.80583081E-01 0.14135665E+03</pdfrwt>
<pdfrwt beam="1">  1       -2 0.50546986E-02 0.14135665E+03</pdfrwt>
<totfact> 0.10850864E+04</totfact>
</mgrwt>
</event>
<event>
 8    2  0.8128359E-004  0.1318304E+03  0.7818608E-02  0.1236655E+00
          2   -1    0    0  501    0  0.00000000000E+00  0.00000000000E+00  0.16572698774E+04  0.16572698774E+04  0.25500000000E-02 0. -1.
         -2   -1    0    0    0  501 -0.00000000000E+00 -0.00000000000E+00 -0.88365494378E+01  0.88365498057E+01  0.25500000000E-02 0.  1.
         25    2    1    2    0    0 -0.37666662778E+02 -0.18340130832E+02  0.72096864975E+03  0.73292227102E+03  0.12499649417E+03 0.  0.
         23    2    1    2    0    0  0.37666662778E+02  0.18340130832E+02  0.92746467822E+03  0.93318415620E+03  0.94269836848E+02 0.  0.
        -11    1    4    4    0    0 -0.88057013525E+01 -0.10066743651E+02  0.66466452284E+03  0.66479907312E+03  0.51100000000E-03 0. -1.
         11    1    4    4    0    0  0.46472364131E+02  0.28406874483E+02  0.26280015539E+03  0.26838508307E+03  0.51100000000E-03 0.  1.
    9000005    1    3    3    0    0  0.45784452526E+02 -0.56423858096E+01  0.30541177549E+03  0.30887765413E+03  0.10000000000E+01 0.  0.
    9000005    1    3    3    0    0 -0.83451115304E+02 -0.12697745022E+02  0.41555687426E+03  0.42404461689E+03  0.10000000000E+01 0.  0.
<mgrwt>
<rscale>  0 0.12399077E+03</rscale>
<asrwt>0</asrwt>
<pdfrwt beam="1">  1        2 0.25496465E+00 0.13183043E+03</pdfrwt>
<pdfrwt beam="2">  1       -2 0.13594689E-02 0.13183043E+03</pdfrwt>
<totfact> 0.14872641E+04</totfact>
</mgrwt>
</event>
<event>
 8    2  0.8128359E-004  0.1549035E+03  0.7818608E-02  0.1203302E+00
         -2   -1    0    0    0  501 -0.00000000000E+00  0.00000000000E+00  0.54334400443E+02  0.54334400503E+02  0.25500000000E-02 0.  1.
          2   -1    0    0  501    0  0.00000000000E+00 -0.00000000000E+00 -0.56379727275E+03  0.56379727276E+03  0.25500000000E-02 0. -1.
         25    2    1    2    0    0  0.29968982904E+02  0.86443698846E+02 -0.45184891968E+03  0.47766362718E+03  0.12499776599E+03 0.  0.
         23    2    1    2    0    0 -0.29968982904E+02 -0.86443698846E+02 -0.57613952629E+02  0.14046804609E+03  0.89673025081E+02 0.  0.
        -11    1    4    4    0    0 -0.50926825514E+02 -0.56464889551E+02 -0.47545518666E+01  0.76186816922E+02  0.51100000000E-03 0. -1.
         11    1    4    4    0    0  0.20957842610E+02 -0.29978809295E+02 -0.52859400763E+02  0.64281229164E+02  0.51100000000E-03 0.  1.
    9000005    1    3    3    0    0 -0.41342855319E+02  0.12001877634E+02 -0.21626641808E+03  0.22051176917E+03  0.10000000000E+01 0.  0.
    9000005    1    3    3    0    0  0.71311838223E+02  0.74441821211E+02 -0.23558250160E+03  0.25715185801E+03  0.10000000000E+01 0.  0.
<mgrwt>
<rscale>  0 0.14772051E+03</rscale>
<asrwt>0</asrwt>
<pdfrwt beam="2">  1        2 0.86738038E-01 0.15490350E+03</pdfrwt>
<pdfrwt beam="1">  1       -2 0.83591389E-02 0.15490350E+03</pdfrwt>
<totfact> 0.46592463E+03</totfact>
</mgrwt>
</event>
<event>
 8    2  0.8128359E-004  0.5596307E+03  0.7818608E-02  0.9996645E-01
          2   -1    0    0  501    0  0.00000000000E+00  0.00000000000E+00  0.11951871756E+04  0.11951871756E+04  0.25500000000E-02 0. -1.
         -2   -1    0    0    0  501 -0.00000000000E+00 -0.00000000000E+00 -0.28317475102E+03  0.28317475103E+03  0.25500000000E-02 0.  1.
         25    2    1    2    0    0 -0.45588592456E+03 -0.29954961132E+03  0.67461110791E+03  0.87651960222E+03  0.12499808121E+03 0.  0.
         23    2    1    2    0    0  0.45588592456E+03  0.29954961132E+03  0.23740131669E+03  0.60184232443E+03  0.91065100057E+02 0.  0.
        -11    1    4    4    0    0  0.11598843480E+03  0.68448663099E+02  0.10250702447E+03  0.16925196174E+03  0.51100000000E-03 0. -1.
         11    1    4    4    0    0  0.33989748976E+03  0.23110094822E+03  0.13489429223E+03  0.43259036269E+03  0.51100000000E-03 0.  1.
    9000005    1    3    3    0    0 -0.15830655444E+03 -0.17567505193E+03  0.30899146788E+03  0.38910077907E+03  0.10000000000E+01 0.  0.
    9000005    1    3    3    0    0 -0.29757937012E+03 -0.12387455938E+03  0.36561964003E+03  0.48741882315E+03  0.10000000000E+01 0.  0.
<mgrwt>
<rscale>  0 0.55797602E+03</rscale>
<asrwt>0</asrwt>
<pdfrwt beam="1">  1        2 0.18387495E+00 0.55963065E+03</pdfrwt>
<pdfrwt beam="2">  1       -2 0.43565347E-01 0.55963065E+03</pdfrwt>
<totfact> 0.98447161E+01</totfact>
</mgrwt>
</event>
<event>
 8    2  0.8128359E-004  0.2037868E+03  0.7818608E-02  0.1150934E+00
         -2   -1    0    0    0  501 -0.00000000000E+00  0.00000000000E+00  0.68440659251E+03  0.68440659251E+03  0.25500000000E-02 0. -1.
          2   -1    0    0  501    0  0.00000000000E+00 -0.00000000000E+00 -0.60250545243E+02  0.60250545297E+02  0.25500000000E-02 0.  1.
         25    2    1    2    0    0  0.15463707218E+03 -0.44614760384E+02  0.43789383316E+03  0.48299075013E+03  0.12500381856E+03 0.  0.
         23    2    1    2    0    0 -0.15463707218E+03  0.44614760384E+02  0.18626221411E+03  0.26166638768E+03  0.88727589288E+02 0.  0.
        -11    1    4    4    0    0 -0.69468885525E+02  0.58795993041E+02  0.12970957141E+03  0.15845336149E+03  0.51100000000E-03 0. -1.
         11    1    4    4    0    0 -0.85168186660E+02 -0.14181232657E+02  0.56552642702E+02  0.10321302619E+03  0.51100000000E-03 0.  1.
    9000005    1    3    3    0    0  0.17031803709E+03 -0.53464529316E+02  0.34592832852E+03  0.38927380868E+03  0.10000000000E+01 0.  0.
    9000005    1    3    3    0    0 -0.15680964907E+02  0.88497689318E+01  0.91965504636E+02  0.93716941444E+02  0.10000000000E+01 0.  0.
<mgrwt>
<rscale>  0 0.19859008E+03</rscale>
<asrwt>0</asrwt>
<pdfrwt beam="2">  1        2 0.92693146E-02 0.20378679E+03</pdfrwt>
<pdfrwt beam="1">  1       -2 0.10529332E+00 0.20378679E+03</pdfrwt>
<totfact> 0.53256491E+02</totfact>
</mgrwt>
</event>
<event>
 8    2  0.8128359E-004  0.1313886E+03  0.7818608E-02  0.1239032E+00
         -2   -1    0    0    0  501 -0.00000000000E+00  0.00000000000E+00  0.52717437169E+01  0.52717443336E+01  0.25500000000E-02 0. -1.
          2   -1    0    0  501    0  0.00000000000E+00 -0.00000000000E+00 -0.25901770950E+04  0.25901770950E+04  0.25500000000E-02 0.  1.
         25    2    1    2    0    0 -0.35585725418E+02 -0.19266453730E+02 -0.12609688258E+04  0.12677954709E+04  0.12500174544E+03 0.  0.
         23    2    1    2    0    0  0.35585725418E+02  0.19266453730E+02 -0.13239365255E+04  0.13276533684E+04  0.90653202105E+02 0.  0.
        -11    1    4    4    0    0  0.49317689832E+02 -0.22584607156E+02 -0.82210885234E+03  0.82389639161E+03  0.51100000000E-03 0. -1.
         11    1    4    4    0    0 -0.13731964414E+02  0.41851060885E+02 -0.50182767312E+03  0.50375697678E+03  0.51100000000E-03 0.  1.
    9000005    1    3    3    0    0  0.79066132189E+01  0.45089965435E+02 -0.27641075694E+03  0.28017766876E+03  0.10000000000E+01 0.  0.
    9000005    1    3    3    0    0 -0.43492338637E+02 -0.64356419165E+02 -0.98455806884E+03  0.98761780215E+03  0.10000000000E+01 0.  0.
<mgrwt>
<rscale>  0 0.12249785E+03</rscale>
<asrwt>0</asrwt>
<pdfrwt beam="2">  1        2 0.39848777E+00 0.13138865E+03</pdfrwt>
<pdfrwt beam="1">  1       -2 0.81103961E-03 0.13138865E+03</pdfrwt>
<totfact> 0.10229033E+04</totfact>
</mgrwt>
</event>
<event>
 8    2  0.8128359E-004  0.1292869E+03  0.7818608E-02  0.1240375E+00
          2   -1    0    0  501    0  0.00000000000E+00  0.00000000000E+00  0.59615020433E+02  0.59615020487E+02  0.25500000000E-02 0. -1.
         -2   -1    0    0    0  501 -0.00000000000E+00 -0.00000000000E+00 -0.22431238099E+03  0.22431238100E+03  0.25500000000E-02 0.  1.
         25    2    1    2    0    0 -0.24907925274E+02 -0.21720489958E+02 -0.82113705677E+02  0.15315930915E+03  0.12499171530E+03 0.  0.
         23    2    1    2    0    0  0.24907925274E+02  0.21720489958E+02 -0.82583654880E+02  0.13076809234E+03  0.95854313913E+02 0.  0.
        -11    1    4    4    0    0  0.27418757552E+02 -0.16650970234E+02 -0.86364027989E+02  0.92129194103E+02  0.51100000000E-03 0.  1.
         11    1    4    4    0    0 -0.25108322777E+01  0.38371460192E+02  0.37803731083E+01  0.38638898238E+02  0.51100000000E-03 0. -1.
    9000005    1    3    3    0    0 -0.95677301586E+01 -0.71943350915E+02 -0.28139303943E+02  0.77847335392E+02  0.10000000000E+01 0.  0.
    9000005    1    3    3    0    0 -0.15340195115E+02  0.50222860957E+02 -0.53974401734E+02  0.75311973758E+02  0.10000000000E+01 0.  0.
<mgrwt>
<rscale>  0 0.12166520E+03</rscale>
<asrwt>0</asrwt>
<pdfrwt beam="1">  1        2 0.91715417E-02 0.12928694E+03</pdfrwt>
<pdfrwt beam="2">  1       -2 0.34509597E-01 0.12928694E+03</pdfrwt>
<totfact> 0.53321191E+03</totfact>
</mgrwt>
</event>
<event>
 8    2  0.8128359E-004  0.1743780E+03  0.7818608E-02  0.1179328E+00
         -2   -1    0    0    0  501 -0.00000000000E+00  0.00000000000E+00  0.10236598418E+03  0.10236598421E+03  0.25500000000E-02 0.  1.
          2   -1    0    0  501    0  0.00000000000E+00 -0.00000000000E+00 -0.26221885442E+03  0.26221885444E+03  0.25500000000E-02 0. -1.
         25    2    1    2    0    0  0.76414028451E+02  0.94571400234E+02 -0.71461582337E+02  0.18845278297E+03  0.12499936068E+03 0.  0.
         23    2    1    2    0    0 -0.76414028451E+02 -0.94571400234E+02 -0.88391287902E+02  0.17613205568E+03  0.91796665385E+02 0.  0.
        -11    1    4    4    0    0 -0.67359960047E+01  0.18143779063E+02 -0.16146499427E+02  0.25204757584E+02  0.51100000000E-03 0.  1.
         11    1    4    4    0    0 -0.69678032447E+02 -0.11271517930E+03 -0.72244788475E+02  0.15092729810E+03  0.51100000000E-03 0. -1.
    9000005    1    3    3    0    0  0.11681844808E+02 -0.23473227499E+02 -0.43724757015E+02  0.50993257234E+02  0.10000000000E+01 0.  0.
    9000005    1    3    3    0    0  0.64732183643E+02  0.11804462773E+03 -0.27736825322E+02  0.13745952573E+03  0.10000000000E+01 0.  0.
<mgrwt>
<rscale>  0 0.16858813E+03</rscale>
<asrwt>0</asrwt>
<pdfrwt beam="2">  1        2 0.40341362E-01 0.17437802E+03</pdfrwt>
<pdfrwt beam="1">  1       -2 0.15748613E-01 0.17437802E+03</pdfrwt>
<totfact> 0.38953392E+03</totfact>
</mgrwt>
</event>
<event>
 8    2  0.8128359E-004  0.1252658E+03  0.7818608E-02  0.1248844E+00
          2   -1    0    0  501    0  0.00000000000E+00  0.00000000000E+00  0.19524068784E+04  0.19524068784E+04  0.25500000000E-02 0.  1.
         -2   -1    0    0    0  501 -0.00000000000E+00 -0.00000000000E+00 -0.63933487227E+01  0.63933492313E+01  0.25500000000E-02 0. -1.
         25    2    1    2    0    0 -0.67570997638E+01 -0.45743424956E+01  0.91945825231E+03  0.92795204493E+03  0.12499974778E+03 0.  0.
         23    2    1    2    0    0  0.67570997638E+01  0.45743424956E+01  0.10265552774E+04  0.10308481827E+04  0.93625078266E+02 0.  0.
        -11    1    4    4    0    0  0.35314990715E+02  0.17472965119E+02  0.20833723697E+03  0.21203032186E+03  0.51100000000E-03 0.  1.
         11    1    4    4    0    0 -0.28557890951E+02 -0.12898622623E+02  0.81821804040E+03  0.81881786084E+03  0.51100000000E-03 0. -1.
    9000005    1    3    3    0    0 -0.54356609209E+02  0.63531673365E+00  0.21153095963E+03  0.21840648222E+03  0.10000000000E+01 0.  0.
    9000005    1    3    3    0    0  0.47599509446E+02 -0.52096592293E+01  0.70792729267E+03  0.70954556271E+03  0.10000000000E+01 0.  0.
<mgrwt>
<rscale>  0 0.11658246E+03</rscale>
<asrwt>0</asrwt>
<pdfrwt beam="1">  1        2 0.30037024E+00 0.12526580E+03</pdfrwt>
<pdfrwt beam="2">  1       -2 0.98359230E-03 0.12526580E+03</pdfrwt>
<totfact> 0.16677570E+04</totfact>
</mgrwt>
</event>
<event>
 8    2  0.8128359E-004  0.2177021E+03  0.7818608E-02  0.1139053E+00
         -2   -1    0    0    0  501 -0.00000000000E+00  0.00000000000E+00  0.39460216859E+02  0.39460216942E+02  0.25500000000E-02 0.  1.
          2   -1    0    0  501    0  0.00000000000E+00 -0.00000000000E+00 -0.11798270037E+04  0.11798270037E+04  0.25500000000E-02 0. -1.
         25    2    1    2    0    0 -0.15729606519E+03 -0.83824325940E+02 -0.74407501347E+03  0.77526886328E+03  0.12500245982E+03 0.  0.
         23    2    1    2    0    0  0.15729606519E+03  0.83824325940E+02 -0.39629177335E+03  0.44401835734E+03  0.91304776921E+02 0.  0.
        -11    1    4    4    0    0  0.68673442107E+02  0.45878142918E+02 -0.28525719677E+03  0.29697224443E+03  0.51100000000E-03 0. -1.
         11    1    4    4    0    0  0.88622623082E+02  0.37946183022E+02 -0.11103457658E+03  0.14704611292E+03  0.51100000000E-03 0.  1.
    9000005    1    3    3    0    0 -0.41672837351E+01 -0.63002280869E+02 -0.21970500094E+03  0.22859995864E+03  0.10000000000E+01 0.  0.
    9000005    1    3    3    0    0 -0.15312878145E+03 -0.20822045071E+02 -0.52437001253E+03  0.54666890465E+03  0.10000000000E+01 0.  0.
<mgrwt>
<rscale>  0 0.21320476E+03</rscale>
<asrwt>0</asrwt>
<pdfrwt beam="2">  1        2 0.18151182E+00 0.21770205E+03</pdfrwt>
<pdfrwt beam="1">  1       -2 0.60708035E-02 0.21770205E+03</pdfrwt>
<totfact> 0.29726870E+03</totfact>
</mgrwt>
</event>
<event>
 8    2  0.8128359E-004  0.1297519E+03  0.7818608E-02  0.1242916E+00
          2   -1    0    0  501    0  0.00000000000E+00  0.00000000000E+00  0.50791686367E+03  0.50791686368E+03  0.25500000000E-02 0.  1.
         -2   -1    0    0    0  501 -0.00000000000E+00 -0.00000000000E+00 -0.27780623452E+02  0.27780623569E+02  0.25500000000E-02 0. -1.
         25    2    1    2    0    0  0.29111881318E+02  0.19081171238E+02  0.18808256799E+03  0.22849641817E+03  0.12499587195E+03 0.  0.
         23    2    1    2    0    0 -0.29111881318E+02 -0.19081171238E+02  0.29205367223E+03  0.30720106908E+03  0.88687973542E+02 0.  0.
        -11    1    4    4    0    0  0.29513037586E+02 -0.21354071325E+02  0.12109864738E+03  0.12645907697E+03  0.51100000000E-03 0.  1.
         11    1    4    4    0    0 -0.58624918904E+02  0.22729000864E+01  0.17095502485E+03  0.18074199211E+03  0.51100000000E-03 0. -1.
    9000005    1    3    3    0    0  0.42736697731E+02 -0.24953199824E+02  0.17306955043E+03  0.18000876867E+03  0.10000000000E+01 0.  0.
    9000005    1    3    3    0    0 -0.13624816413E+02  0.44034371062E+02  0.15013017564E+02  0.48487649494E+02  0.10000000000E+01 0.  0.
<mgrwt>
<rscale>  0 0.12010996E+03</rscale>
<asrwt>0</asrwt>
<pdfrwt beam="1">  1        2 0.78141051E-01 0.12975192E+03</pdfrwt>
<pdfrwt beam="2">  1       -2 0.42739424E-02 0.12975192E+03</pdfrwt>
<totfact> 0.14338251E+04</totfact>
</mgrwt>
</event>
<event>
 8    2  0.8128359E-004  0.1355603E+03  0.7818608E-02  0.1231816E+00
          2   -1    0    0  501    0  0.00000000000E+00  0.00000000000E+00  0.15916200924E+04  0.15916200924E+04  0.25500000000E-02 0. -1.
         -2   -1    0    0    0  501 -0.00000000000E+00 -0.00000000000E+00 -0.11638144594E+02  0.11638144873E+02  0.25500000000E-02 0.  1.
         25    2    1    2    0    0 -0.16193564121E+01 -0.52432476890E+02  0.49491793156E+03  0.51314750853E+03  0.12499927834E+03 0.  0.
         23    2    1    2    0    0  0.16193564121E+01  0.52432476890E+02  0.10850640162E+04  0.10901107287E+04  0.90695615215E+02 0.  0.
        -11    1    4    4    0    0 -0.34031820232E+02  0.46760407569E+02  0.40723425149E+03  0.41132035701E+03  0.51100000000E-03 0.  1.
         11    1    4    4    0    0  0.35651176644E+02  0.56720693208E+01  0.67782976475E+03  0.67879037172E+03  0.51100000000E-03 0. -1.
    9000005    1    3    3    0    0  0.11432236410E+02  0.33819332784E+02  0.62205133398E+02  0.71728111088E+02  0.10000000000E+01 0.  0.
    9000005    1    3    3    0    0 -0.13051592822E+02 -0.86251809673E+02  0.43271279816E+03  0.44141939745E+03  0.10000000000E+01 0.  0.
<mgrwt>
<rscale>  0 0.12710491E+03</rscale>
<asrwt>0</asrwt>
<pdfrwt beam="1">  1        2 0.24486446E+00 0.13556034E+03</pdfrwt>
<pdfrwt beam="2">  1       -2 0.17904850E-02 0.13556034E+03</pdfrwt>
<totfact> 0.10818499E+04</totfact>
</mgrwt>
</event>
<event>
 8    2  0.8128359E-004  0.1767904E+03  0.7818608E-02  0.1177533E+00
          2   -1    0    0  501    0  0.00000000000E+00  0.00000000000E+00  0.11599568201E+04  0.11599568201E+04  0.25500000000E-02 0.  1.
         -2   -1    0    0    0  501 -0.00000000000E+00 -0.00000000000E+00 -0.35864515568E+02  0.35864515659E+02  0.25500000000E-02 0. -1.
         25    2    1    2    0    0 -0.68176552221E+01 -0.12483418255E+03  0.94214228494E+03  0.95858590593E+03  0.12499920169E+03 0.  0.
         23    2    1    2    0    0  0.68176552221E+01  0.12483418255E+03  0.18195001964E+03  0.23723542987E+03  0.86860727528E+02 0.  0.
        -11    1    4    4    0    0  0.22862082384E+02  0.11085376403E+03  0.18381983792E+03  0.21587256571E+03  0.51100000000E-03 0.  1.
         11    1    4    4    0    0 -0.16044427162E+02  0.13980418516E+02 -0.18698182832E+01  0.21362864169E+02  0.51100000000E-03 0. -1.
    9000005    1    3    3    0    0  0.49537907890E+02 -0.10239678998E+03  0.53603156706E+03  0.54796892959E+03  0.10000000000E+01 0.  0.
    9000005    1    3    3    0    0 -0.56355563112E+02 -0.22437392567E+02  0.40611071788E+03  0.41061697634E+03  0.10000000000E+01 0.  0.
<mgrwt>
<rscale>  0 0.17030255E+03</rscale>
<asrwt>0</asrwt>
<pdfrwt beam="1">  1        2 0.17845487E+00 0.17679042E+03</pdfrwt>
<pdfrwt beam="2">  1       -2 0.55176185E-02 0.17679042E+03</pdfrwt>
<totfact> 0.35181550E+03</totfact>
</mgrwt>
</event>
<event>
 8    2  0.8128359E-004  0.1273614E+03  0.7818608E-02  0.1246378E+00
          2   -1    0    0  501    0  0.00000000000E+00  0.00000000000E+00  0.10547153022E+03  0.10547153025E+03  0.25500000000E-02 0. -1.
         -2   -1    0    0    0  501 -0.00000000000E+00 -0.00000000000E+00 -0.12886608721E+03  0.12886608723E+03  0.25500000000E-02 0.  1.
         25    2    1    2    0    0  0.21297074610E+02  0.11906350644E+02  0.23217197808E+02  0.12946026259E+03  0.12500237895E+03 0.  0.
         23    2    1    2    0    0 -0.21297074610E+02 -0.11906350644E+02 -0.46611754800E+02  0.10487735489E+03  0.90726387072E+02 0.  0.
        -11    1    4    4    0    0  0.15783291299E+01  0.12980619939E+02  0.23584037321E+02  0.26966542853E+02  0.51100000000E-03 0. -1.
         11    1    4    4    0    0 -0.22875403740E+02 -0.24886970582E+02 -0.70195792120E+02  0.77910812040E+02  0.51100000000E-03 0.  1.
    9000005    1    3    3    0    0 -0.34920304276E+02  0.41089407756E+01  0.54334213880E+02  0.64726484865E+02  0.10000000000E+01 0.  0.
    9000005    1    3    3    0    0  0.56217378886E+02  0.77974098680E+01 -0.31117016072E+02  0.64733777726E+02  0.10000000000E+01 0.  0.
<mgrwt>
<rscale>  0 0.11803275E+03</rscale>
<asrwt>0</asrwt>
<pdfrwt beam="1">  1        2 0.16226389E-01 0.12736138E+03</pdfrwt>
<pdfrwt beam="2">  1       -2 0.19825552E-01 0.12736138E+03</pdfrwt>
<totfact> 0.71302369E+03</totfact>
</mgrwt>
</event>
<event>
 8    2  0.8128359E-004  0.1532549E+03  0.7818608E-02  0.1204899E+00
          2   -1    0    0  501    0  0.00000000000E+00  0.00000000000E+00  0.49895629217E+03  0.49895629217E+03  0.25500000000E-02 0.  1.
         -2   -1    0    0    0  501 -0.00000000000E+00 -0.00000000000E+00 -0.43803250813E+02  0.43803250887E+02  0.25500000000E-02 0. -1.
         25    2    1    2    0    0  0.36178090438E+01 -0.88598168977E+02  0.16225172224E+03  0.22318756705E+03  0.12499737848E+03 0.  0.
         23    2    1    2    0    0 -0.36178090438E+01  0.88598168977E+02  0.29290131912E+03  0.31957197601E+03  0.92045320487E+02 0.  0.
        -11    1    4    4    0    0 -0.34341004156E+02  0.37080749104E+02  0.57068865931E+02  0.76230846640E+02  0.51100000000E-03 0.  1.
         11    1    4    4    0    0  0.30723195112E+02  0.51517419873E+02  0.23583245318E+03  0.24334112937E+03  0.51100000000E-03 0. -1.
    9000005    1    3    3    0    0  0.47131501480E+02 -0.60924682915E+02  0.15227851755E+03  0.17065445300E+03  0.10000000000E+01 0.  0.
    9000005    1    3    3    0    0 -0.43513692437E+02 -0.27673486062E+02  0.99732046872E+01  0.52533114052E+02  0.10000000000E+01 0.  0.
<mgrwt>
<rscale>  0 0.14645389E+03</rscale>
<asrwt>0</asrwt>
<pdfrwt beam="1">  1        2 0.76762507E-01 0.15325491E+03</pdfrwt>
<pdfrwt beam="2">  1       -2 0.67389616E-02 0.15325491E+03</pdfrwt>
<totfact> 0.74395453E+03</totfact>
</mgrwt>
</event>
<event>
 8    2  0.8128359E-004  0.1659158E+03  0.7818608E-02  0.1189169E+00
          2   -1    0    0  501    0  0.00000000000E+00  0.00000000000E+00  0.33997556022E+04  0.33997556022E+04  0.25500000000E-02 0. -1.
         -2   -1    0    0    0  501 -0.00000000000E+00 -0.00000000000E+00 -0.80192757675E+01  0.80192761729E+01  0.25500000000E-02 0.  1.
         25    2    1    2    0    0 -0.61284130689E+02  0.90264794046E+02  0.11962204936E+04  0.12076719430E+04  0.12499829887E+03 0.  0.
         23    2    1    2    0    0  0.61284130689E+02 -0.90264794046E+02  0.21955158328E+04  0.22001029354E+04  0.90882762939E+02 0.  0.
        -11    1    4    4    0    0  0.32182784759E+02 -0.37032880494E+02  0.33257158667E+03  0.33617112627E+03  0.51100000000E-03 0.  1.
         11    1    4    4    0    0  0.29101345931E+02 -0.53231913552E+02  0.18629442461E+04  0.18639318092E+04  0.51100000000E-03 0. -1.
    9000005    1    3    3    0    0 -0.82830884036E+02  0.69423634200E+02  0.53696107530E+03  0.54773058406E+03  0.10000000000E+01 0.  0.
    9000005    1    3    3    0    0  0.21546753347E+02  0.20841159846E+02  0.65925941833E+03  0.65994135890E+03  0.10000000000E+01 0.  0.
<mgrwt>
<rscale>  0 0.15958263E+03</rscale>
<asrwt>0</asrwt>
<pdfrwt beam="1">  1        2 0.52303808E+00 0.16591580E+03</pdfrwt>
<pdfrwt beam="2">  1       -2 0.12337377E-02 0.16591580E+03</pdfrwt>
<totfact> 0.18895530E+03</totfact>
</mgrwt>
</event>
<event>
 8    2  0.8128359E-004  0.1476306E+03  0.7818608E-02  0.1211573E+00
         -2   -1    0    0    0  501 -0.00000000000E+00  0.00000000000E+00  0.63229277842E+01  0.63229282984E+01  0.25500000000E-02 0.  1.
          2   -1    0    0  501    0  0.00000000000E+00 -0.00000000000E+00 -0.29349752774E+04  0.29349752774E+04  0.25500000000E-02 0. -1.
         25    2    1    2    0    0  0.74157208063E+02 -0.25906865059E+02 -0.17092702935E+04  0.17156339145E+04  0.12499734168E+03 0.  0.
         23    2    1    2    0    0 -0.74157208063E+02  0.25906865059E+02 -0.12193820561E+04  0.12256642911E+04  0.95863958817E+02 0.  0.
        -11    1    4    4    0    0 -0.41535121170E+02  0.58267076508E+02 -0.91976530532E+03  0.92254454384E+03  0.51100000000E-03 0.  1.
         11    1    4    4    0    0 -0.32622086893E+02 -0.32360211449E+02 -0.29961675081E+03  0.30311974731E+03  0.51100000000E-03 0. -1.
    9000005    1    3    3    0    0  0.15940843069E+02  0.49157691517E+02 -0.51291287676E+03  0.51551062865E+03  0.10000000000E+01 0.  0.
    9000005    1    3    3    0    0  0.58216364994E+02 -0.75064556576E+02 -0.11963574167E+04  0.12001232859E+04  0.10000000000E+01 0.  0.
<mgrwt>
<rscale>  0 0.14131310E+03</rscale>
<asrwt>0</asrwt>
<pdfrwt beam="2">  1        2 0.45153357E+00 0.14763060E+03</pdfrwt>
<pdfrwt beam="1">  1       -2 0.97276050E-03 0.14763060E+03</pdfrwt>
<totfact> 0.50806404E+03</totfact>
</mgrwt>
</event>
<event>
 8    2  0.8128359E-004  0.1371770E+03  0.7818608E-02  0.1228705E+00
          2   -1    0    0  501    0  0.00000000000E+00  0.00000000000E+00  0.23457769439E+03  0.23457769441E+03  0.25500000000E-02 0. -1.
         -2   -1    0    0    0  501 -0.00000000000E+00 -0.00000000000E+00 -0.67244493406E+02  0.67244493454E+02  0.25500000000E-02 0.  1.
         25    2    1    2    0    0  0.38242860542E+02  0.41589493180E+02  0.12628540946E+03  0.18645521150E+03  0.12500135570E+03 0.  0.
         23    2    1    2    0    0 -0.38242860542E+02 -0.41589493180E+02  0.41047791533E+02  0.11536697637E+03  0.91828185875E+02 0.  0.
        -11    1    4    4    0    0  0.26662972438E+02 -0.65810917560E+01 -0.57063237059E+01  0.28049723678E+02  0.51100000000E-03 0. -1.
         11    1    4    4    0    0 -0.64905832980E+02 -0.35008401424E+02  0.46754115239E+02  0.87317252689E+02  0.51100000000E-03 0.  1.
    9000005    1    3    3    0    0  0.31285435311E+02  0.83114637756E+02  0.10981243233E+03  0.14123240339E+03  0.10000000000E+01 0.  0.
    9000005    1    3    3    0    0  0.69574252314E+01 -0.41525144576E+02  0.16472977127E+02  0.45222808110E+02  0.10000000000E+01 0.  0.
<mgrwt>
<rscale>  0 0.12916160E+03</rscale>
<asrwt>0</asrwt>
<pdfrwt beam="1">  1        2 0.36088876E-01 0.13717704E+03</pdfrwt>
<pdfrwt beam="2">  1       -2 0.10345307E-01 0.13717704E+03</pdfrwt>
<totfact> 0.85182903E+03</totfact>
</mgrwt>
</event>
<event>
 8    2  0.8128359E-004  0.1504482E+03  0.7818608E-02  0.1207840E+00
         -2   -1    0    0    0  501 -0.00000000000E+00  0.00000000000E+00  0.17328458608E+02  0.17328458795E+02  0.25500000000E-02 0.  1.
          2   -1    0    0  501    0  0.00000000000E+00 -0.00000000000E+00 -0.11641103335E+04  0.11641103335E+04  0.25500000000E-02 0. -1.
         25    2    1    2    0    0  0.49353067623E+02  0.67628685362E+02 -0.49203350141E+03  0.51452078241E+03  0.12500121862E+03 0.  0.
         23    2    1    2    0    0 -0.49353067623E+02 -0.67628685362E+02 -0.65474837344E+03  0.66691800984E+03  0.95261928205E+02 0.  0.
        -11    1    4    4    0    0 -0.43319821656E+02 -0.40758917949E+02 -0.61870846668E+03  0.62156098903E+03  0.51100000000E-03 0. -1.
         11    1    4    4    0    0 -0.60332459672E+01 -0.26869767414E+02 -0.36039906759E+02  0.45357020815E+02  0.51100000000E-03 0.  1.
    9000005    1    3    3    0    0  0.32160536424E+02 -0.15441333628E+01 -0.21756802640E+02  0.38872135419E+02  0.10000000000E+01 0.  0.
    9000005    1    3    3    0    0  0.17192531200E+02  0.69172818725E+02 -0.47027669877E+03  0.47564864699E+03  0.10000000000E+01 0.  0.
<mgrwt>
<rscale>  0 0.14415849E+03</rscale>
<asrwt>0</asrwt>
<pdfrwt beam="2">  1        2 0.17909384E+00 0.15044823E+03</pdfrwt>
<pdfrwt beam="1">  1       -2 0.26659176E-02 0.15044823E+03</pdfrwt>
<totfact> 0.10295788E+04</totfact>
</mgrwt>
</event>
<event>
 8    2  0.8128359E-004  0.1663735E+03  0.7818608E-02  0.1188142E+00
          2   -1    0    0  501    0  0.00000000000E+00  0.00000000000E+00  0.15398902497E+04  0.15398902497E+04  0.25500000000E-02 0. -1.
         -2   -1    0    0    0  501 -0.00000000000E+00 -0.00000000000E+00 -0.16043723530E+02  0.16043723733E+02  0.25500000000E-02 0.  1.
         25    2    1    2    0    0  0.34419558866E+02  0.10426152849E+03  0.93745070569E+03  0.95209975990E+03  0.12499981937E+03 0.  0.
         23    2    1    2    0    0 -0.34419558866E+02 -0.10426152849E+03  0.58639582046E+03  0.60383421352E+03  0.93276614465E+02 0.  0.
        -11    1    4    4    0    0 -0.40332799702E+02 -0.22521008678E+02  0.36210429577E+03  0.36503897269E+03  0.51100000000E-03 0. -1.
         11    1    4    4    0    0  0.59132408362E+01 -0.81740519811E+02  0.22429152469E+03  0.23879524083E+03  0.51100000000E-03 0.  1.
    9000005    1    3    3    0    0 -0.17262506233E+01  0.90616986340E+02  0.29793328302E+03  0.31141557329E+03  0.10000000000E+01 0.  0.
    9000005    1    3    3    0    0  0.36145809489E+02  0.13644542148E+02  0.63951742267E+03  0.64068418661E+03  0.10000000000E+01 0.  0.
<mgrwt>
<rscale>  0 0.16049267E+03</rscale>
<asrwt>0</asrwt>
<pdfrwt beam="1">  1        2 0.23690611E+00 0.16637346E+03</pdfrwt>
<pdfrwt beam="2">  1       -2 0.24682660E-02 0.16637346E+03</pdfrwt>
<totfact> 0.72612508E+03</totfact>
</mgrwt>
</event>
<event>
 8    2  0.8128359E-004  0.1559617E+03  0.7818608E-02  0.1200952E+00
         -2   -1    0    0    0  501 -0.00000000000E+00  0.00000000000E+00  0.28736999423E+02  0.28736999536E+02  0.25500000000E-02 0.  1.
          2   -1    0    0  501    0  0.00000000000E+00 -0.00000000000E+00 -0.94716831651E+03  0.94716831651E+03  0.25500000000E-02 0. -1.
         25    2    1    2    0    0  0.92734546784E+01 -0.92812168478E+02 -0.25081229867E+03  0.29534872567E+03  0.12499585997E+03 0.  0.
         23    2    1    2    0    0 -0.92734546784E+01  0.92812168478E+02 -0.66761901841E+03  0.68055659038E+03  0.93498788138E+02 0.  0.
        -11    1    4    4    0    0 -0.20053617306E+02  0.10928770539E+03 -0.52873101070E+03  0.54027995686E+03  0.51100000000E-03 0.  1.
         11    1    4    4    0    0  0.10780162628E+02 -0.16475536912E+02 -0.13888800771E+03  0.14027663351E+03  0.51100000000E-03 0. -1.
    9000005    1    3    3    0    0 -0.14814223907E+02 -0.97856867374E+01  0.10124050892E+02  0.20462582959E+02  0.10000000000E+01 0.  0.
    9000005    1    3    3    0    0  0.24087678585E+02 -0.83026481741E+02 -0.26093634957E+03  0.27488614271E+03  0.10000000000E+01 0.  0.
<mgrwt>
<rscale>  0 0.14961097E+03</rscale>
<asrwt>0</asrwt>
<pdfrwt beam="2">  1        2 0.14571818E+00 0.15596173E+03</pdfrwt>
<pdfrwt beam="1">  1       -2 0.44210776E-02 0.15596173E+03</pdfrwt>
<totfact> 0.65343741E+03</totfact>
</mgrwt>
</event>
<event>
 8    2  0.8128359E-004  0.1271599E+03  0.7818608E-02  0.1247275E+00
         -2   -1    0    0    0  501 -0.00000000000E+00  0.00000000000E+00  0.86608403168E+01  0.86608406922E+01  0.25500000000E-02 0.  1.
          2   -1    0    0  501    0  0.00000000000E+00 -0.00000000000E+00 -0.16220024929E+04  0.16220024929E+04  0.25500000000E-02 0. -1.
         25    2    1    2    0    0  0.56215926508E+01 -0.22660005021E+02 -0.61393673720E+03  0.62696726993E+03  0.12499824855E+03 0.  0.
         23    2    1    2    0    0 -0.56215926508E+01  0.22660005021E+02 -0.99940491542E+03  0.10036960637E+04  0.89724719016E+02 0.  0.
        -11    1    4    4    0    0  0.28108216558E+02 -0.98962435610E+00 -0.11711255330E+03  0.12044252295E+03  0.51100000000E-03 0.  1.
         11    1    4    4    0    0 -0.33729809209E+02  0.23649629377E+02 -0.88229236212E+03  0.88325354076E+03  0.51100000000E-03 0. -1.
    9000005    1    3    3    0    0 -0.14372111426E+02 -0.30758416202E+02 -0.60065597244E+03  0.60161552089E+03  0.10000000000E+01 0.  0.
    9000005    1    3    3    0    0  0.19993704077E+02  0.80984111806E+01 -0.13280764765E+02  0.25351749035E+02  0.10000000000E+01 0.  0.
<mgrwt>
<rscale>  0 0.11750252E+03</rscale>
<asrwt>0</asrwt>
<pdfrwt beam="2">  1        2 0.24953860E+00 0.12715990E+03</pdfrwt>
<pdfrwt beam="1">  1       -2 0.13324383E-02 0.12715990E+03</pdfrwt>
<totfact> 0.15929739E+04</totfact>
</mgrwt>
</event>
<event>
 8    2  0.8128359E-004  0.1574885E+03  0.7818608E-02  0.1199832E+00
          2   -1    0    0  501    0  0.00000000000E+00  0.00000000000E+00  0.86874343735E+02  0.86874343772E+02  0.25500000000E-02 0. -1.
         -2   -1    0    0    0  501 -0.00000000000E+00 -0.00000000000E+00 -0.27591666123E+03  0.27591666125E+03  0.25500000000E-02 0.  1.
         25    2    1    2    0    0  0.92012572532E+02 -0.26674288182E+02 -0.16697737210E+03  0.22953010958E+03  0.12499918902E+03 0.  0.
         23    2    1    2    0    0 -0.92012572532E+02  0.26674288182E+02 -0.22064945400E+02  0.13326089544E+03  0.89965400480E+02 0.  0.
        -11    1    4    4    0    0 -0.90478104402E+02 -0.13123478430E+02 -0.18467276665E+02  0.93271396312E+02  0.51100000000E-03 0. -1.
         11    1    4    4    0    0 -0.15344681301E+01  0.39797766613E+02 -0.35976687347E+01  0.39989499127E+02  0.51100000000E-03 0.  1.
    9000005    1    3    3    0    0  0.18186124843E+02 -0.60740364070E+02 -0.11973247586E+03  0.13548798005E+03  0.10000000000E+01 0.  0.
    9000005    1    3    3    0    0  0.73826447689E+02  0.34066075888E+02 -0.47244896242E+02  0.94042129526E+02  0.10000000000E+01 0.  0.
<mgrwt>
<rscale>  0 0.15052312E+03</rscale>
<asrwt>0</asrwt>
<pdfrwt beam="1">  1        2 0.13365284E-01 0.15748850E+03</pdfrwt>
<pdfrwt beam="2">  1       -2 0.42448717E-01 0.15748850E+03</pdfrwt>
<totfact> 0.23147921E+03</totfact>
</mgrwt>
</event>
<event>
 8    2  0.8128359E-004  0.1450951E+03  0.7818608E-02  0.1216500E+00
         -2   -1    0    0    0  501 -0.00000000000E+00  0.00000000000E+00  0.87754137992E+02  0.87754138029E+02  0.25500000000E-02 0.  1.
          2   -1    0    0  501    0  0.00000000000E+00 -0.00000000000E+00 -0.23284655080E+03  0.23284655081E+03  0.25500000000E-02 0. -1.
         25    2    1    2    0    0 -0.73209018649E+02  0.84558410368E+01 -0.14192091438E+03  0.20296338652E+03  0.12498611391E+03 0.  0.
         23    2    1    2    0    0  0.73209018649E+02 -0.84558410368E+01 -0.31714984245E+01  0.11763730232E+03  0.91637409585E+02 0.  0.
        -11    1    4    4    0    0  0.34659420507E+02 -0.49225469795E+02 -0.10297421157E+02  0.61077485125E+02  0.51100000000E-03 0.  1.
         11    1    4    4    0    0  0.38549598142E+02  0.40769628758E+02  0.71259227326E+01  0.56559817194E+02  0.51100000000E-03 0. -1.
    9000005    1    3    3    0    0 -0.10079271352E+03  0.34671701427E+02 -0.11128400252E+03  0.15409875793E+03  0.10000000000E+01 0.  0.
    9000005    1    3    3    0    0  0.27583694872E+02 -0.26215860390E+02 -0.30636911857E+02  0.48864628587E+02  0.10000000000E+01 0.  0.
<mgrwt>
<rscale>  0 0.13766907E+03</rscale>
<asrwt>0</asrwt>
<pdfrwt beam="2">  1        2 0.35822546E-01 0.14509511E+03</pdfrwt>
<pdfrwt beam="1">  1       -2 0.13500637E-01 0.14509511E+03</pdfrwt>
<totfact> 0.56345119E+03</totfact>
</mgrwt>
</event>
<event>
 8    2  0.8128359E-004  0.1562365E+03  0.7818608E-02  0.1208557E+00
          2   -1    0    0  501    0  0.00000000000E+00  0.00000000000E+00  0.20690855176E+04  0.20690855176E+04  0.25500000000E-02 0. -1.
         -2   -1    0    0    0  501 -0.00000000000E+00 -0.00000000000E+00 -0.90699322259E+01  0.90699325843E+01  0.25500000000E-02 0.  1.
         25    2    1    2    0    0 -0.84056636899E+02 -0.41459155551E+02  0.14116145808E+04  0.14202343411E+04  0.12500191549E+03 0.  0.
         23    2    1    2    0    0  0.84056636899E+02  0.41459155551E+02  0.64840100450E+03  0.65792110910E+03  0.60431311232E+02 0.  0.
        -11    1    4    4    0    0  0.13170486949E+01  0.27592726235E+02  0.15965946002E+03  0.16203159054E+03  0.51100000000E-03 0.  1.
         11    1    4    4    0    0  0.82739588205E+02  0.13866429316E+02  0.48874154448E+03  0.49588951856E+03  0.51100000000E-03 0. -1.
    9000005    1    3    3    0    0 -0.11723651827E+03 -0.31024673227E+02  0.10689862039E+04  0.10758435925E+04  0.10000000000E+01 0.  0.
    9000005    1    3    3    0    0  0.33179881369E+02 -0.10434482324E+02  0.34262837697E+03  0.34439074851E+03  0.10000000000E+01 0.  0.
<mgrwt>
<rscale>  0 0.14360629E+03</rscale>
<asrwt>0</asrwt>
<pdfrwt beam="1">  1        2 0.31832098E+00 0.15623655E+03</pdfrwt>
<pdfrwt beam="2">  1       -2 0.13953736E-02 0.15623655E+03</pdfrwt>
<totfact> 0.88639093E+03</totfact>
</mgrwt>
</event>
<event>
 8    2  0.8128359E-004  0.1261956E+03  0.7818608E-02  0.1247511E+00
         -2   -1    0    0    0  501 -0.00000000000E+00  0.00000000000E+00  0.21219177861E+02  0.21219178015E+02  0.25500000000E-02 0.  1.
          2   -1    0    0  501    0  0.00000000000E+00 -0.00000000000E+00 -0.57452706947E+03  0.57452706948E+03  0.25500000000E-02 0. -1.
         25    2    1    2    0    0  0.13890940354E+02 -0.10509040754E+02 -0.32970377232E+03  0.35302962655E+03  0.12498776573E+03 0.  0.
         23    2    1    2    0    0 -0.13890940354E+02  0.10509040754E+02 -0.22360411929E+03  0.24271662094E+03  0.92785547113E+02 0.  0.
        -11    1    4    4    0    0 -0.19488998641E+01 -0.17281817058E+01  0.90590047081E+01  0.94260484430E+01  0.51100000000E-03 0.  1.
         11    1    4    4    0    0 -0.11942040490E+02  0.12237222460E+02 -0.23266312400E+03  0.23329057250E+03  0.51100000000E-03 0. -1.
    9000005    1    3    3    0    0  0.69262523762E+02 -0.33902242029E+01 -0.16024431410E+03  0.17460822151E+03  0.10000000000E+01 0.  0.
    9000005    1    3    3    0    0 -0.55371583408E+02 -0.71188165516E+01 -0.16945945822E+03  0.17842140504E+03  0.10000000000E+01 0.  0.
<mgrwt>
<rscale>  0 0.11736363E+03</rscale>
<asrwt>0</asrwt>
<pdfrwt beam="2">  1        2 0.88388768E-01 0.12619564E+03</pdfrwt>
<pdfrwt beam="1">  1       -2 0.32644894E-02 0.12619564E+03</pdfrwt>
<totfact> 0.18587074E+04</totfact>
</mgrwt>
</event>
<event>
 8    2  0.8128359E-004  0.1611252E+03  0.7818608E-02  0.1194925E+00
         -2   -1    0    0    0  501 -0.00000000000E+00  0.00000000000E+00  0.14303944096E+03  0.14303944099E+03  0.25500000000E-02 0.  1.
          2   -1    0    0  501    0  0.00000000000E+00 -0.00000000000E+00 -0.17901503859E+03  0.17901503861E+03  0.25500000000E-02 0. -1.
         25    2    1    2    0    0  0.51069471040E+02  0.87909925324E+02 -0.78185997373E+02  0.17909317856E+03  0.12500028232E+03 0.  0.
         23    2    1    2    0    0 -0.51069471040E+02 -0.87909925324E+02  0.42210399748E+02  0.14296130103E+03  0.91213869032E+02 0.  0.
        -11    1    4    4    0    0 -0.28303838185E+01 -0.63558549151E+02  0.58596755545E+02  0.86494392902E+02  0.51100000000E-03 0.  1.
         11    1    4    4    0    0 -0.48239087221E+02 -0.24351376173E+02 -0.16386355797E+02  0.56466908132E+02  0.51100000000E-03 0. -1.
    9000005    1    3    3    0    0  0.77026441000E+02  0.85373505039E+01 -0.40873276579E+02  0.87621822083E+02  0.10000000000E+01 0.  0.
    9000005    1    3    3    0    0 -0.25956969960E+02  0.79372574820E+02 -0.37312720793E+02  0.91471356479E+02  0.10000000000E+01 0.  0.
<mgrwt>
<rscale>  0 0.15460569E+03</rscale>
<asrwt>0</asrwt>
<pdfrwt beam="2">  1        2 0.27540775E-01 0.16112516E+03</pdfrwt>
<pdfrwt beam="1">  1       -2 0.22006068E-01 0.16112516E+03</pdfrwt>
<totfact> 0.33381100E+03</totfact>
</mgrwt>
</event>
<event>
 8    2  0.8128359E-004  0.1407699E+03  0.7818608E-02  0.1221171E+00
          2   -1    0    0  501    0  0.00000000000E+00  0.00000000000E+00  0.80509285034E+03  0.80509285035E+03  0.25500000000E-02 0. -1.
         -2   -1    0    0    0  501 -0.00000000000E+00 -0.00000000000E+00 -0.20662432624E+02  0.20662432782E+02  0.25500000000E-02 0.  1.
         25    2    1    2    0    0 -0.41149334710E+02  0.49975027933E+02  0.40398818952E+03  0.42781142650E+03  0.12500155282E+03 0.  0.
         23    2    1    2    0    0  0.41149334710E+02 -0.49975027933E+02  0.38044222820E+03  0.39794385663E+03  0.97119786190E+02 0.  0.
        -11    1    4    4    0    0 -0.25186968728E+02 -0.29405097135E+02  0.71694709349E+02  0.81481129596E+02  0.51100000000E-03 0.  1.
         11    1    4    4    0    0  0.66336303438E+02 -0.20569930798E+02  0.30874751885E+03  0.31646272703E+03  0.51100000000E-03 0. -1.
    9000005    1    3    3    0    0  0.27834552256E+02 -0.56078306675E+01  0.23772189372E+03  0.23941367718E+03  0.10000000000E+01 0.  0.
    9000005    1    3    3    0    0 -0.68983886966E+02  0.55582858600E+02  0.16626629580E+03  0.18839774932E+03  0.10000000000E+01 0.  0.
<mgrwt>
<rscale>  0 0.13432798E+03</rscale>
<asrwt>0</asrwt>
<pdfrwt beam="1">  1        2 0.12386044E+00 0.14076988E+03</pdfrwt>
<pdfrwt beam="2">  1       -2 0.31788358E-02 0.14076988E+03</pdfrwt>
<totfact> 0.13092020E+04</totfact>
</mgrwt>
</event>
<event>
 8    2  0.8128359E-004  0.1319988E+03  0.7818608E-02  0.1246547E+00
          2   -1    0    0  501    0  0.00000000000E+00  0.00000000000E+00  0.13218473939E+04  0.13218473939E+04  0.25500000000E-02 0. -1.
         -2   -1    0    0    0  501 -0.00000000000E+00 -0.00000000000E+00 -0.13699272206E+02  0.13699272443E+02  0.25500000000E-02 0.  1.
         25    2    1    2    0    0 -0.41472809163E+02 -0.88871795397E+01  0.11391951758E+04  0.11468170460E+04  0.12499884973E+03 0.  0.
         23    2    1    2    0    0  0.41472809163E+02  0.88871795397E+01  0.16895294590E+03  0.18872962041E+03  0.72627789669E+02 0.  0.
        -11    1    4    4    0    0  0.32721641667E+02  0.35489197084E+02  0.14152452281E+03  0.14953053033E+03  0.51100000000E-03 0. -1.
         11    1    4    4    0    0  0.87511674964E+01 -0.26602017544E+02  0.27428423089E+02  0.39199090083E+02  0.51100000000E-03 0.  1.
    9000005    1    3    3    0    0  0.13498812725E+02 -0.51749482236E+02  0.70848978403E+03  0.71050615827E+03  0.10000000000E+01 0.  0.
    9000005    1    3    3    0    0 -0.54971621888E+02  0.42862302696E+02  0.43070539180E+03  0.43631088771E+03  0.10000000000E+01 0.  0.
<mgrwt>
<rscale>  0 0.11793261E+03</rscale>
<asrwt>0</asrwt>
<pdfrwt beam="1">  1        2 0.20336122E+00 0.13199882E+03</pdfrwt>
<pdfrwt beam="2">  1       -2 0.21075795E-02 0.13199882E+03</pdfrwt>
<totfact> 0.11813080E+04</totfact>
</mgrwt>
</event>
<event>
 8    2  0.8128359E-004  0.1842330E+03  0.7818608E-02  0.1169186E+00
         -2   -1    0    0    0  501 -0.00000000000E+00  0.00000000000E+00  0.62484218619E+02  0.62484218671E+02  0.25500000000E-02 0.  1.
          2   -1    0    0  501    0  0.00000000000E+00 -0.00000000000E+00 -0.48299217318E+03  0.48299217319E+03  0.25500000000E-02 0. -1.
         25    2    1    2    0    0  0.98860848692E+01 -0.13497769323E+03 -0.23897648234E+03  0.30174748035E+03  0.12500028177E+03 0.  0.
         23    2    1    2    0    0 -0.98860848692E+01  0.13497769323E+03 -0.18153147223E+03  0.24372891151E+03  0.90185334481E+02 0.  0.
        -11    1    4    4    0    0  0.56401565935E+01  0.14167142857E+03 -0.17585694799E+03  0.22589438061E+03  0.51100000000E-03 0. -1.
         11    1    4    4    0    0 -0.15526241463E+02 -0.66937353385E+01 -0.56745242414E+01  0.17834530898E+02  0.51100000000E-03 0.  1.
    9000005    1    3    3    0    0 -0.34993613684E+02 -0.29292193455E+02 -0.14910128711E+03  0.15593197047E+03  0.10000000000E+01 0.  0.
    9000005    1    3    3    0    0  0.44879698553E+02 -0.10568549977E+03 -0.89875195226E+02  0.14581550988E+03  0.10000000000E+01 0.  0.
<mgrwt>
<rscale>  0 0.17857840E+03</rscale>
<asrwt>0</asrwt>
<pdfrwt beam="2">  1        2 0.74306486E-01 0.18423296E+03</pdfrwt>
<pdfrwt beam="1">  1       -2 0.96129570E-02 0.18423296E+03</pdfrwt>
<totfact> 0.44827003E+03</totfact>
</mgrwt>
</event>
<event>
 8    2  0.8128359E-004  0.1345575E+03  0.7818608E-02  0.1239091E+00
          2   -1    0    0  501    0  0.00000000000E+00  0.00000000000E+00  0.95565932838E+02  0.95565932872E+02  0.25500000000E-02 0. -1.
         -2   -1    0    0    0  501 -0.00000000000E+00 -0.00000000000E+00 -0.21654815347E+03  0.21654815348E+03  0.25500000000E-02 0.  1.
         25    2    1    2    0    0 -0.15006892147E+02  0.47521589734E+02 -0.16242669452E+03  0.21092216320E+03  0.12498887765E+03 0.  0.
         23    2    1    2    0    0  0.15006892147E+02 -0.47521589734E+02  0.41444473888E+02  0.10119192315E+03  0.77708767798E+02 0.  0.
        -11    1    4    4    0    0 -0.11242035390E+01 -0.14628150763E+02 -0.22871973132E+02  0.27173034125E+02  0.51100000000E-03 0.  1.
         11    1    4    4    0    0  0.16131095686E+02 -0.32893438972E+02  0.64316447019E+02  0.74018889028E+02  0.51100000000E-03 0. -1.
    9000005    1    3    3    0    0  0.72160476106E+01  0.86360591980E+02 -0.12741428062E+03  0.15409614562E+03  0.10000000000E+01 0.  0.
    9000005    1    3    3    0    0 -0.22222939758E+02 -0.38839002245E+02 -0.35012413898E+02  0.56826017579E+02  0.10000000000E+01 0.  0.
<mgrwt>
<rscale>  0 0.12246154E+03</rscale>
<asrwt>0</asrwt>
<pdfrwt beam="1">  1        2 0.14702451E-01 0.13455753E+03</pdfrwt>
<pdfrwt beam="2">  1       -2 0.33315101E-01 0.13455753E+03</pdfrwt>
<totfact> 0.32292326E+03</totfact>
</mgrwt>
</event>
<event>
 8    2  0.8128359E-004  0.1320716E+03  0.7818608E-02  0.1237727E+00
         -2   -1    0    0    0  501 -0.00000000000E+00  0.00000000000E+00  0.21889915325E+02  0.21889915473E+02  0.25500000000E-02 0.  1.
          2   -1    0    0  501    0  0.00000000000E+00 -0.00000000000E+00 -0.62403290283E+03  0.62403290283E+03  0.25500000000E-02 0. -1.
         25    2    1    2    0    0  0.21832668543E+01  0.42553818213E+02 -0.37542642401E+03  0.39797977123E+03  0.12500921712E+03 0.  0.
         23    2    1    2    0    0 -0.21832668543E+01 -0.42553818213E+02 -0.22671656350E+03  0.24794304708E+03  0.90883223606E+02 0.  0.
        -11    1    4    4    0    0  0.16181649318E+02  0.24174195109E+02 -0.45991186752E+02  0.54418992483E+02  0.51100000000E-03 0.  1.
         11    1    4    4    0    0 -0.18364916172E+02 -0.66728013321E+02 -0.18072537675E+03  0.19352405460E+03  0.51100000000E-03 0. -1.
    9000005    1    3    3    0    0 -0.59428450531E+02  0.29306002312E+02 -0.23278576569E+03  0.24203469836E+03  0.10000000000E+01 0.  0.
    9000005    1    3    3    0    0  0.61611717385E+02  0.13247815901E+02 -0.14264065831E+03  0.15594507286E+03  0.10000000000E+01 0.  0.
<mgrwt>
<rscale>  0 0.12331461E+03</rscale>
<asrwt>0</asrwt>
<pdfrwt beam="2">  1        2 0.96005049E-01 0.13207157E+03</pdfrwt>
<pdfrwt beam="1">  1       -2 0.33676798E-02 0.13207157E+03</pdfrwt>
<totfact> 0.16224914E+04</totfact>
</mgrwt>
</event>
<event>
 8    2  0.8128359E-004  0.1299527E+03  0.7818608E-02  0.1239205E+00
         -2   -1    0    0    0  501 -0.00000000000E+00  0.00000000000E+00  0.10150262376E+02  0.10150262696E+02  0.25500000000E-02 0. -1.
          2   -1    0    0  501    0  0.00000000000E+00 -0.00000000000E+00 -0.13476072327E+04  0.13476072327E+04  0.25500000000E-02 0.  1.
         25    2    1    2    0    0  0.28426327571E+02 -0.21334346750E+02 -0.66586776250E+03  0.67843022868E+03  0.12499795038E+03 0.  0.
         23    2    1    2    0    0 -0.28426327571E+02  0.21334346750E+02 -0.67158920782E+03  0.67932726671E+03  0.95865847880E+02 0.  0.
        -11    1    4    4    0    0  0.70030428638E+01  0.34963829551E+02 -0.56599284311E+03  0.56711498873E+03  0.51100000000E-03 0.  1.
         11    1    4    4    0    0 -0.35429370435E+02 -0.13629482800E+02 -0.10559636471E+03  0.11221227798E+03  0.51100000000E-03 0. -1.
    9000005    1    3    3    0    0 -0.12317036580E+02  0.14116992822E+02 -0.11860812989E+02  0.22196345672E+02  0.10000000000E+01 0.  0.
    9000005    1    3    3    0    0  0.40743364150E+02 -0.35451339572E+02 -0.65400694951E+03  0.65623388301E+03  0.10000000000E+01 0.  0.
<mgrwt>
<rscale>  0 0.12239016E+03</rscale>
<asrwt>0</asrwt>
<pdfrwt beam="2">  1        2 0.20732405E+00 0.12995268E+03</pdfrwt>
<pdfrwt beam="1">  1       -2 0.15615799E-02 0.12995268E+03</pdfrwt>
<totfact> 0.17645744E+04</totfact>
</mgrwt>
</event>
<event>
 8    2  0.8128359E-004  0.1264372E+03  0.7818608E-02  0.1247598E+00
         -2   -1    0    0    0  501 -0.00000000000E+00  0.00000000000E+00  0.59357096017E+01  0.59357101495E+01  0.25500000000E-02 0.  1.
          2   -1    0    0  501    0  0.00000000000E+00 -0.00000000000E+00 -0.20419807539E+04  0.20419807539E+04  0.25500000000E-02 0. -1.
         25    2    1    2    0    0 -0.11790539651E+02  0.14900254809E+02 -0.11906292248E+04  0.11973238176E+04  0.12500135522E+03 0.  0.
         23    2    1    2    0    0  0.11790539651E+02 -0.14900254809E+02 -0.84541581950E+03  0.85059264646E+03  0.91754607153E+02 0.  0.
        -11    1    4    4    0    0  0.35278772433E+02 -0.66522080545E+01 -0.77630985506E+03  0.77713952075E+03  0.51100000000E-03 0. -1.
         11    1    4    4    0    0 -0.23488232782E+02 -0.82480467546E+01 -0.69105964441E+02  0.73453125707E+02  0.51100000000E-03 0.  1.
    9000005    1    3    3    0    0 -0.21049609589E+02 -0.16157746726E+02 -0.53455516362E+02  0.59687947466E+02  0.10000000000E+01 0.  0.
    9000005    1    3    3    0    0  0.92590699380E+01  0.31058001535E+02 -0.11371737084E+04  0.11376358701E+04  0.10000000000E+01 0.  0.
<mgrwt>
<rscale>  0 0.11731207E+03</rscale>
<asrwt>0</asrwt>
<pdfrwt beam="2">  1        2 0.31415033E+00 0.12643723E+03</pdfrwt>
<pdfrwt beam="1">  1       -2 0.91318776E-03 0.12643723E+03</pdfrwt>
<totfact> 0.16696783E+04</totfact>
</mgrwt>
</event>
<event>
 8    2  0.8128359E-004  0.1710601E+03  0.7818608E-02  0.1183299E+00
         -2   -1    0    0    0  501 -0.00000000000E+00  0.00000000000E+00  0.10793794478E+02  0.10793794779E+02  0.25500000000E-02 0. -1.
          2   -1    0    0  501    0  0.00000000000E+00 -0.00000000000E+00 -0.23600888897E+04  0.23600888897E+04  0.25500000000E-02 0.  1.
         25    2    1    2    0    0 -0.25589470143E+02  0.11393917330E+03 -0.11933285917E+04  0.12055267225E+04  0.12499837889E+03 0.  0.
         23    2    1    2    0    0  0.25589470143E+02 -0.11393917330E+03 -0.11559665035E+04  0.11653559620E+04  0.90327208729E+02 0.  0.
        -11    1    4    4    0    0 -0.12763319095E+02 -0.35155214020E+02 -0.70288384420E+03  0.70387817826E+03  0.51100000000E-03 0.  1.
         11    1    4    4    0    0  0.38352789238E+02 -0.78783959279E+02 -0.45308265932E+03  0.46147778372E+03  0.51100000000E-03 0. -1.
    9000005    1    3    3    0    0  0.39865110501E+02  0.54589859668E+02 -0.77639967975E+03  0.77933737401E+03  0.10000000000E+01 0.  0.
    9000005    1    3    3    0    0 -0.65454580644E+02  0.59349313631E+02 -0.41692891194E+03  0.42618934850E+03  0.10000000000E+01 0.  0.
<mgrwt>
<rscale>  0 0.16487640E+03</rscale>
<asrwt>0</asrwt>
<pdfrwt beam="2">  1        2 0.36309019E+00 0.17106008E+03</pdfrwt>
<pdfrwt beam="1">  1       -2 0.16605857E-02 0.17106008E+03</pdfrwt>
<totfact> 0.48587582E+03</totfact>
</mgrwt>
</event>
<event>
 8    2  0.8128359E-004  0.1267759E+03  0.7818608E-02  0.1248080E+00
          2   -1    0    0  501    0  0.00000000000E+00  0.00000000000E+00  0.38331162575E+03  0.38331162576E+03  0.25500000000E-02 0.  1.
         -2   -1    0    0    0  501 -0.00000000000E+00 -0.00000000000E+00 -0.31842998321E+02  0.31842998423E+02  0.25500000000E-02 0. -1.
         25    2    1    2    0    0 -0.82000409899E+01  0.19476131134E+02  0.17471536592E+03  0.21586476841E+03  0.12500231515E+03 0.  0.
         23    2    1    2    0    0  0.82000409899E+01 -0.19476131134E+02  0.17675326151E+03  0.19928985578E+03  0.89600060296E+02 0.  0.
        -11    1    4    4    0    0  0.41841535925E+02  0.14208147428E+02  0.77572601088E+02  0.89275383067E+02  0.51100000000E-03 0.  1.
         11    1    4    4    0    0 -0.33641494935E+02 -0.33684278562E+02  0.99180660421E+02  0.11001447271E+03  0.51100000000E-03 0. -1.
    9000005    1    3    3    0    0 -0.34656916851E+02 -0.49169293150E+01 -0.24261569274E+01  0.35102198178E+02  0.10000000000E+01 0.  0.
    9000005    1    3    3    0    0  0.26456875861E+02  0.24393060449E+02  0.17714152285E+03  0.18076257023E+03  0.10000000000E+01 0.  0.
<mgrwt>
<rscale>  0 0.11702897E+03</rscale>
<asrwt>0</asrwt>
<pdfrwt beam="1">  1        2 0.58971017E-01 0.12677594E+03</pdfrwt>
<pdfrwt beam="2">  1       -2 0.48989230E-02 0.12677594E+03</pdfrwt>
<totfact> 0.15811362E+04</totfact>
</mgrwt>
</event>
<event>
 8    2  0.8128359E-004  0.1382045E+03  0.7818608E-02  0.1227896E+00
          2   -1    0    0  501    0  0.00000000000E+00  0.00000000000E+00  0.36681866758E+04  0.36681866758E+04  0.25500000000E-02 0. -1.
         -2   -1    0    0    0  501 -0.00000000000E+00 -0.00000000000E+00 -0.49305802391E+01  0.49305808985E+01  0.25500000000E-02 0.  1.
         25    2    1    2    0    0 -0.11056778742E+02  0.57913810727E+02  0.12776137606E+04  0.12850670799E+04  0.12499686648E+03 0.  0.
         23    2    1    2    0    0  0.11056778742E+02 -0.57913810727E+02  0.23856423349E+04  0.23880501768E+04  0.89543480670E+02 0.  0.
        -11    1    4    4    0    0  0.32178813691E+02  0.11110880667E+02  0.62149887660E+03  0.62243054338E+03  0.51100000000E-03 0.  1.
         11    1    4    4    0    0 -0.21122034950E+02 -0.69024691394E+02  0.17641434583E+04  0.17656196334E+04  0.51100000000E-03 0. -1.
    9000005    1    3    3    0    0 -0.20202791522E+02  0.84953775862E+02  0.54973412392E+03  0.55662725752E+03  0.10000000000E+01 0.  0.
    9000005    1    3    3    0    0  0.91460127805E+01 -0.27039965135E+02  0.72787963672E+03  0.72843982237E+03  0.10000000000E+01 0.  0.
<mgrwt>
<rscale>  0 0.12970356E+03</rscale>
<asrwt>0</asrwt>
<pdfrwt beam="1">  1        2 0.56433546E+00 0.13820448E+03</pdfrwt>
<pdfrwt beam="2">  1       -2 0.75855214E-03 0.13820448E+03</pdfrwt>
<totfact> 0.25466906E+03</totfact>
</mgrwt>
</event>
<event>
 8    2  0.8128359E-004  0.1472214E+03  0.7818608E-02  0.1212602E+00
          2   -1    0    0  501    0  0.00000000000E+00  0.00000000000E+00  0.77879055706E+02  0.77879055747E+02  0.25500000000E-02 0. -1.
         -2   -1    0    0    0  501 -0.00000000000E+00 -0.00000000000E+00 -0.23681731661E+03  0.23681731662E+03  0.25500000000E-02 0.  1.
         25    2    1    2    0    0 -0.57268473926E+02  0.52624678881E+02 -0.10627085774E+03  0.18156990384E+03  0.12500039938E+03 0.  0.
         23    2    1    2    0    0  0.57268473926E+02 -0.52624678881E+02 -0.52667403170E+02  0.13312646853E+03  0.94338572883E+02 0.  0.
        -11    1    4    4    0    0  0.21770278332E+02 -0.69218164365E+01  0.26548710789E+02  0.35024143191E+02  0.51100000000E-03 0. -1.
         11    1    4    4    0    0  0.35498195594E+02 -0.45702862445E+02 -0.79216113959E+02  0.98102325339E+02  0.51100000000E-03 0.  1.
    9000005    1    3    3    0    0 -0.42017065018E+02  0.29037159139E+02 -0.13319081299E+03  0.14265126368E+03  0.10000000000E+01 0.  0.
    9000005    1    3    3    0    0 -0.15251408907E+02  0.23587519742E+02  0.26919955256E+02  0.38918640164E+02  0.10000000000E+01 0.  0.
<mgrwt>
<rscale>  0 0.14054130E+03</rscale>
<asrwt>0</asrwt>
<pdfrwt beam="1">  1        2 0.11981393E-01 0.14722138E+03</pdfrwt>
<pdfrwt beam="2">  1       -2 0.36433433E-01 0.14722138E+03</pdfrwt>
<totfact> 0.35099167E+03</totfact>
</mgrwt>
</event>
<event>
 8    2  0.8128359E-004  0.1736884E+03  0.7818608E-02  0.1179157E+00
         -2   -1    0    0    0  501 -0.00000000000E+00  0.00000000000E+00  0.31337199679E+02  0.31337199783E+02  0.25500000000E-02 0. -1.
          2   -1    0    0  501    0  0.00000000000E+00 -0.00000000000E+00 -0.12534066274E+04  0.12534066274E+04  0.25500000000E-02 0.  1.
         25    2    1    2    0    0 -0.10553290612E+03 -0.58336649481E+02 -0.99438063485E+03  0.10094357308E+04  0.12500915484E+03 0.  0.
         23    2    1    2    0    0  0.10553290612E+03  0.58336649481E+02 -0.22768879283E+03  0.27530809630E+03  0.97015475885E+02 0.  0.
        -11    1    4    4    0    0  0.61175557089E+02  0.56179052550E+01 -0.18337083161E+03  0.19338787845E+03  0.51100000000E-03 0.  1.
         11    1    4    4    0    0  0.44357349031E+02  0.52718744226E+02 -0.44317961214E+02  0.81920217848E+02  0.51100000000E-03 0. -1.
    9000005    1    3    3    0    0 -0.96341982140E+02 -0.43620764087E+02 -0.37014624066E+03  0.38495946288E+03  0.10000000000E+01 0.  0.
    9000005    1    3    3    0    0 -0.91909239791E+01 -0.14715885394E+02 -0.62423439419E+03  0.62447626797E+03  0.10000000000E+01 0.  0.
<mgrwt>
<rscale>  0 0.16875109E+03</rscale>
<asrwt>0</asrwt>
<pdfrwt beam="2">  1        2 0.19283175E+00 0.17368836E+03</pdfrwt>
<pdfrwt beam="1">  1       -2 0.48211086E-02 0.17368836E+03</pdfrwt>
<totfact> 0.38250122E+03</totfact>
</mgrwt>
</event>
<event>
 8    2  0.8128359E-004  0.1287539E+03  0.7818608E-02  0.1243845E+00
         -2   -1    0    0    0  501 -0.00000000000E+00  0.00000000000E+00  0.22697997692E+02  0.22697997836E+02  0.25500000000E-02 0.  1.
          2   -1    0    0  501    0  0.00000000000E+00 -0.00000000000E+00 -0.58431182235E+03  0.58431182235E+03  0.25500000000E-02 0. -1.
         25    2    1    2    0    0 -0.29150663550E+02 -0.10120021784E+02 -0.38752093460E+03  0.40835037937E+03  0.12500152621E+03 0.  0.
         23    2    1    2    0    0  0.29150663550E+02  0.10120021784E+02 -0.17409289006E+03  0.19865944082E+03  0.90581802978E+02 0.  0.
        -11    1    4    4    0    0 -0.27228958798E+02  0.20622707482E+02 -0.38679595652E+02  0.51602552080E+02  0.51100000000E-03 0. -1.
         11    1    4    4    0    0  0.56379622348E+02 -0.10502685698E+02 -0.13541329440E+03  0.14705688874E+03  0.51100000000E-03 0.  1.
    9000005    1    3    3    0    0 -0.42310303934E+02 -0.56609040495E+02 -0.30160039477E+03  0.30977176019E+03  0.10000000000E+01 0.  0.
    9000005    1    3    3    0    0  0.13159640384E+02  0.46489018711E+02 -0.85920539825E+02  0.98578619180E+02  0.10000000000E+01 0.  0.
<mgrwt>
<rscale>  0 0.11954758E+03</rscale>
<asrwt>0</asrwt>
<pdfrwt beam="2">  1        2 0.89894115E-01 0.12875386E+03</pdfrwt>
<pdfrwt beam="1">  1       -2 0.34920001E-02 0.12875386E+03</pdfrwt>
<totfact> 0.16541113E+04</totfact>
</mgrwt>
</event>
<event>
 8    2  0.8128359E-004  0.1852961E+03  0.7818608E-02  0.1167864E+00
          2   -1    0    0  501    0  0.00000000000E+00  0.00000000000E+00  0.15518956323E+04  0.15518956323E+04  0.25500000000E-02 0. -1.
         -2   -1    0    0    0  501 -0.00000000000E+00 -0.00000000000E+00 -0.19769549700E+02  0.19769549864E+02  0.25500000000E-02 0.  1.
         25    2    1    2    0    0 -0.64868474334E+02 -0.12041985827E+03  0.84042020592E+03  0.86060489315E+03  0.12500319346E+03 0.  0.
         23    2    1    2    0    0  0.64868474334E+02  0.12041985827E+03  0.69170587668E+03  0.71106028901E+03  0.91874117952E+02 0.  0.
        -11    1    4    4    0    0 -0.19074732169E+02  0.17279478783E+01  0.68903692878E+02  0.71516082832E+02  0.51100000000E-03 0.  1.
         11    1    4    4    0    0  0.83943206504E+02  0.11869191039E+03  0.62280218380E+03  0.63954420618E+03  0.51100000000E-03 0. -1.
    9000005    1    3    3    0    0 -0.67201404705E+02 -0.11471852288E+03  0.84331062380E+03  0.85372722605E+03  0.10000000000E+01 0.  0.
    9000005    1    3    3    0    0  0.23329303709E+01 -0.57013353828E+01 -0.28904178799E+01  0.68776671032E+01  0.10000000000E+01 0.  0.
<mgrwt>
<rscale>  0 0.17993698E+03</rscale>
<asrwt>0</asrwt>
<pdfrwt beam="1">  1        2 0.23875318E+00 0.18529614E+03</pdfrwt>
<pdfrwt beam="2">  1       -2 0.30414691E-02 0.18529614E+03</pdfrwt>
<totfact> 0.52738313E+03</totfact>
</mgrwt>
</event>
<event>
 8    2  0.8128359E-004  0.2277219E+03  0.7818608E-02  0.1131339E+00
          2   -1    0    0  501    0  0.00000000000E+00  0.00000000000E+00  0.62091133770E+03  0.62091133771E+03  0.25500000000E-02 0. -1.
         -2   -1    0    0    0  501 -0.00000000000E+00 -0.00000000000E+00 -0.77552379498E+02  0.77552379540E+02  0.25500000000E-02 0.  1.
         25    2    1    2    0    0  0.12831386375E+03 -0.14059713784E+03  0.27632047402E+03  0.35806463710E+03  0.12500110871E+03 0.  0.
         23    2    1    2    0    0 -0.12831386375E+03  0.14059713784E+03  0.26703848418E+03  0.34039908015E+03  0.91268718242E+02 0.  0.
        -11    1    4    4    0    0 -0.12739112972E+03  0.90835501139E+02  0.16808905508E+03  0.22963779880E+03  0.51100000000E-03 0.  1.
         11    1    4    4    0    0 -0.92273402842E+00  0.49761636702E+02  0.98949429106E+02  0.11076128135E+03  0.51100000000E-03 0. -1.
    9000005    1    3    3    0    0  0.20993093653E+02 -0.87636199721E+02  0.52613012566E+02  0.10435488764E+03  0.10000000000E+01 0.  0.
    9000005    1    3    3    0    0  0.10732077010E+03 -0.52960938120E+02  0.22370746146E+03  0.25370974947E+03  0.10000000000E+01 0.  0.
<mgrwt>
<rscale>  0 0.22344684E+03</rscale>
<asrwt>0</asrwt>
<pdfrwt beam="1">  1        2 0.95524822E-01 0.22772194E+03</pdfrwt>
<pdfrwt beam="2">  1       -2 0.11931135E-01 0.22772194E+03</pdfrwt>
<totfact> 0.24044849E+03</totfact>
</mgrwt>
</event>
<event>
 8    2  0.8128359E-004  0.2225513E+03  0.7818608E-02  0.1134391E+00
         -2   -1    0    0    0  501 -0.00000000000E+00  0.00000000000E+00  0.13457622682E+03  0.13457622684E+03  0.25500000000E-02 0.  1.
          2   -1    0    0  501    0  0.00000000000E+00 -0.00000000000E+00 -0.35158152058E+03  0.35158152059E+03  0.25500000000E-02 0. -1.
         25    2    1    2    0    0  0.93138441217E+02  0.15883647802E+03 -0.85197880142E+02  0.23830185246E+03  0.12500119248E+03 0.  0.
         23    2    1    2    0    0 -0.93138441217E+02 -0.15883647802E+03 -0.13180741362E+03  0.24785589497E+03  0.10077477068E+03 0.  0.
        -11    1    4    4    0    0 -0.10754700682E+03 -0.15071408692E+03 -0.13721511404E+03  0.23045407828E+03  0.51100000000E-03 0. -1.
         11    1    4    4    0    0  0.14408565608E+02 -0.81223910966E+01  0.54077004260E+01  0.17401816691E+02  0.51100000000E-03 0.  1.
    9000005    1    3    3    0    0  0.10259833324E+03  0.54155595021E+02 -0.31247065508E+02  0.12015250958E+03  0.10000000000E+01 0.  0.
    9000005    1    3    3    0    0 -0.94598920223E+01  0.10468088300E+03 -0.53950814634E+02  0.11814934288E+03  0.10000000000E+01 0.  0.
<mgrwt>
<rscale>  0 0.21931958E+03</rscale>
<asrwt>0</asrwt>
<pdfrwt beam="2">  1        2 0.54089464E-01 0.22255133E+03</pdfrwt>
<pdfrwt beam="1">  1       -2 0.20704035E-01 0.22255133E+03</pdfrwt>
<totfact> 0.18094565E+03</totfact>
</mgrwt>
</event>
<event>
 8    2  0.8128359E-004  0.1335037E+03  0.7818608E-02  0.1234784E+00
          2   -1    0    0  501    0  0.00000000000E+00  0.00000000000E+00  0.38172765748E+03  0.38172765749E+03  0.25500000000E-02 0. -1.
         -2   -1    0    0    0  501 -0.00000000000E+00 -0.00000000000E+00 -0.67165062148E+02  0.67165062196E+02  0.25500000000E-02 0.  1.
         25    2    1    2    0    0  0.42852916489E+02 -0.19059039727E+02  0.31877453710E+03  0.34560156421E+03  0.12499446482E+03 0.  0.
         23    2    1    2    0    0 -0.42852916489E+02  0.19059039727E+02 -0.42119417666E+01  0.10329115548E+03  0.91933143637E+02 0.  0.
        -11    1    4    4    0    0 -0.52468588122E+02  0.28160931567E+02  0.29948091046E+02  0.66654924528E+02  0.51100000000E-03 0. -1.
         11    1    4    4    0    0  0.96156716328E+01 -0.91018918396E+01 -0.34160032813E+02  0.36636230947E+02  0.51100000000E-03 0.  1.
    9000005    1    3    3    0    0  0.53646885271E+02 -0.53091689643E+02  0.10765044810E+03  0.13147750676E+03  0.10000000000E+01 0.  0.
    9000005    1    3    3    0    0 -0.10793968781E+02  0.34032649916E+02  0.21112408900E+03  0.21412405745E+03  0.10000000000E+01 0.  0.
<mgrwt>
<rscale>  0 0.12518301E+03</rscale>
<asrwt>0</asrwt>
<pdfrwt beam="1">  1        2 0.58727333E-01 0.13350369E+03</pdfrwt>
<pdfrwt beam="2">  1       -2 0.10333086E-01 0.13350369E+03</pdfrwt>
<totfact> 0.50794097E+03</totfact>
</mgrwt>
</event>
<event>
 8    2  0.8128359E-004  0.1663762E+03  0.7818608E-02  0.1188518E+00
          2   -1    0    0  501    0  0.00000000000E+00  0.00000000000E+00  0.15516469112E+03  0.15516469114E+03  0.25500000000E-02 0. -1.
         -2   -1    0    0    0  501 -0.00000000000E+00 -0.00000000000E+00 -0.15441727294E+03  0.15441727296E+03  0.25500000000E-02 0.  1.
         25    2    1    2    0    0  0.23877395859E+02  0.10717324023E+03  0.76223979240E+01  0.16655072453E+03  0.12499923775E+03 0.  0.
         23    2    1    2    0    0 -0.23877395859E+02 -0.10717324023E+03 -0.68749797411E+01  0.14303123957E+03  0.91402607688E+02 0.  0.
        -11    1    4    4    0    0 -0.56054819010E+02 -0.78136691496E+02  0.96483860088E+01  0.96646658737E+02  0.51100000000E-03 0. -1.
         11    1    4    4    0    0  0.32177423151E+02 -0.29036548729E+02 -0.16523365750E+02  0.46384580829E+02  0.51100000000E-03 0.  1.
    9000005    1    3    3    0    0  0.72442312350E+02  0.83804141546E+02  0.16236002036E+02  0.11196263002E+03  0.10000000000E+01 0.  0.
    9000005    1    3    3    0    0 -0.48564916491E+02  0.23369098679E+02 -0.86136041117E+01  0.54588094514E+02  0.10000000000E+01 0.  0.
<mgrwt>
<rscale>  0 0.16015872E+03</rscale>
<asrwt>0</asrwt>
<pdfrwt beam="1">  1        2 0.23871491E-01 0.16637621E+03</pdfrwt>
<pdfrwt beam="2">  1       -2 0.23756504E-01 0.16637621E+03</pdfrwt>
<totfact> 0.34303838E+03</totfact>
</mgrwt>
</event>
<event>
 8    2  0.8128359E-004  0.1528879E+03  0.7818608E-02  0.1205394E+00
         -2   -1    0    0    0  501 -0.00000000000E+00  0.00000000000E+00  0.24044985287E+02  0.24044985422E+02  0.25500000000E-02 0.  1.
          2   -1    0    0  501    0  0.00000000000E+00 -0.00000000000E+00 -0.82354781850E+03  0.82354781851E+03  0.25500000000E-02 0. -1.
         25    2    1    2    0    0 -0.87802802417E+02 -0.64802565499E+01 -0.39716670740E+03  0.42557738598E+03  0.12499356845E+03 0.  0.
         23    2    1    2    0    0  0.87802802417E+02  0.64802565499E+01 -0.40233612582E+03  0.42201541795E+03  0.92039822961E+02 0.  0.
        -11    1    4    4    0    0  0.20566374625E+02 -0.38500238730E+02 -0.10138869090E+03  0.11038528339E+03  0.51100000000E-03 0.  1.
         11    1    4    4    0    0  0.67236427792E+02  0.44980495280E+02 -0.30094743492E+03  0.31163013456E+03  0.51100000000E-03 0. -1.
    9000005    1    3    3    0    0 -0.10515342792E+03  0.10213313296E+02 -0.38368221399E+03  0.39796305923E+03  0.10000000000E+01 0.  0.
    9000005    1    3    3    0    0  0.17350625506E+02 -0.16693569846E+02 -0.13484493401E+02  0.27614326752E+02  0.10000000000E+01 0.  0.
<mgrwt>
<rscale>  0 0.14606465E+03</rscale>
<asrwt>0</asrwt>
<pdfrwt beam="2">  1        2 0.12669964E+00 0.15288793E+03</pdfrwt>
<pdfrwt beam="1">  1       -2 0.36992291E-02 0.15288793E+03</pdfrwt>
<totfact> 0.10219409E+04</totfact>
</mgrwt>
</event>
<event>
 8    2  0.8128359E-004  0.1418002E+03  0.7818608E-02  0.1221112E+00
          2   -1    0    0  501    0  0.00000000000E+00  0.00000000000E+00  0.20928539726E+03  0.20928539728E+03  0.25500000000E-02 0.  1.
         -2   -1    0    0    0  501 -0.00000000000E+00 -0.00000000000E+00 -0.82682784071E+02  0.82682784110E+02  0.25500000000E-02 0. -1.
         25    2    1    2    0    0  0.52559856772E+02 -0.41505328631E+02  0.36569917250E+02  0.14643998384E+03  0.12498831613E+03 0.  0.
         23    2    1    2    0    0 -0.52559856772E+02  0.41505328631E+02  0.90032695941E+02  0.14552819755E+03  0.92667896791E+02 0.  0.
        -11    1    4    4    0    0 -0.25874808026E+02 -0.19943564242E+02  0.67253821756E+02  0.74768495947E+02  0.51100000000E-03 0.  1.
         11    1    4    4    0    0 -0.26685048746E+02  0.61448892873E+02  0.22778874185E+02  0.70759701606E+02  0.51100000000E-03 0. -1.
    9000005    1    3    3    0    0  0.89575006785E+02 -0.47047652939E+02  0.40084142115E+02  0.10883428659E+03  0.10000000000E+01 0.  0.
    9000005    1    3    3    0    0 -0.37015150013E+02  0.55423243079E+01 -0.35142248654E+01  0.37605697249E+02  0.10000000000E+01 0.  0.
<mgrwt>
<rscale>  0 0.13437017E+03</rscale>
<asrwt>0</asrwt>
<pdfrwt beam="1">  1        2 0.32197753E-01 0.14180025E+03</pdfrwt>
<pdfrwt beam="2">  1       -2 0.12720428E-01 0.14180025E+03</pdfrwt>
<totfact> 0.69458365E+03</totfact>
</mgrwt>
</event>
<event>
 8    2  0.8128359E-004  0.1435583E+03  0.7818608E-02  0.1218792E+00
         -2   -1    0    0    0  501 -0.00000000000E+00  0.00000000000E+00  0.24188791770E+02  0.24188791904E+02  0.25500000000E-02 0.  1.
          2   -1    0    0  501    0  0.00000000000E+00 -0.00000000000E+00 -0.70324784884E+03  0.70324784884E+03  0.25500000000E-02 0. -1.
         25    2    1    2    0    0  0.26000385690E+01  0.70549872096E+02 -0.33550633442E+03  0.36492944379E+03  0.12499981543E+03 0.  0.
         23    2    1    2    0    0 -0.26000385690E+01 -0.70549872096E+02 -0.34355272265E+03  0.36250719695E+03  0.91645785229E+02 0.  0.
        -11    1    4    4    0    0 -0.72887545136E+01 -0.47814147660E+02 -0.33386912060E+03  0.33735427721E+03  0.51100000000E-03 0. -1.
         11    1    4    4    0    0  0.46887159447E+01 -0.22735724436E+02 -0.96836020461E+01  0.25152919744E+02  0.51100000000E-03 0.  1.
    9000005    1    3    3    0    0  0.37467087924E+02  0.48392741855E+02 -0.57872077400E+02  0.84236675412E+02  0.10000000000E+01 0.  0.
    9000005    1    3    3    0    0 -0.34867049355E+02  0.22157130241E+02 -0.27763425702E+03  0.28069276838E+03  0.10000000000E+01 0.  0.
<mgrwt>
<rscale>  0 0.13601616E+03</rscale>
<asrwt>0</asrwt>
<pdfrwt beam="2">  1        2 0.10819196E+00 0.14355835E+03</pdfrwt>
<pdfrwt beam="1">  1       -2 0.37213531E-02 0.14355835E+03</pdfrwt>
<totfact> 0.12245215E+04</totfact>
</mgrwt>
</event>
<event>
 8    2  0.8128359E-004  0.1507713E+03  0.7818608E-02  0.1208470E+00
          2   -1    0    0  501    0  0.00000000000E+00  0.00000000000E+00  0.95356516767E+02  0.95356516801E+02  0.25500000000E-02 0. -1.
         -2   -1    0    0    0  501 -0.00000000000E+00 -0.00000000000E+00 -0.20750679416E+03  0.20750679418E+03  0.25500000000E-02 0.  1.
         25    2    1    2    0    0 -0.80646571264E+02 -0.24533591369E+02 -0.92809217392E+02  0.17704670526E+03  0.12500487370E+03 0.  0.
         23    2    1    2    0    0  0.80646571264E+02  0.24533591369E+02 -0.19341060003E+02  0.12581660571E+03  0.91378198218E+02 0.  0.
        -11    1    4    4    0    0 -0.13056384390E+02  0.27637645879E+02 -0.46352357202E+01  0.30915919096E+02  0.51100000000E-03 0.  1.
         11    1    4    4    0    0  0.93702955654E+02 -0.31040545107E+01 -0.14705824283E+02  0.94900686619E+02  0.51100000000E-03 0. -1.
    9000005    1    3    3    0    0 -0.85729355541E+02 -0.70295092805E+01 -0.37165338310E+01  0.86103130175E+02  0.10000000000E+01 0.  0.
    9000005    1    3    3    0    0  0.50827842770E+01 -0.17504082088E+02 -0.89092683561E+02  0.90943575088E+02  0.10000000000E+01 0.  0.
<mgrwt>
<rscale>  0 0.14367303E+03</rscale>
<asrwt>0</asrwt>
<pdfrwt beam="1">  1        2 0.14670233E-01 0.15077130E+03</pdfrwt>
<pdfrwt beam="2">  1       -2 0.31924122E-01 0.15077130E+03</pdfrwt>
<totfact> 0.35223607E+03</totfact>
</mgrwt>
</event>
<event>
 8    2  0.8128359E-004  0.1757373E+03  0.7818608E-02  0.1177784E+00
          2   -1    0    0  501    0  0.00000000000E+00  0.00000000000E+00  0.16933452157E+04  0.16933452157E+04  0.25500000000E-02 0. -1.
         -2   -1    0    0    0  501 -0.00000000000E+00 -0.00000000000E+00 -0.17016974867E+02  0.17016975058E+02  0.25500000000E-02 0.  1.
         25    2    1    2    0    0  0.96674364006E+02 -0.76896105728E+02  0.10921551407E+04  0.11062036178E+04  0.12499859566E+03 0.  0.
         23    2    1    2    0    0 -0.96674364006E+02  0.76896105728E+02  0.58417310014E+03  0.60415857298E+03  0.92143511142E+02 0.  0.
        -11    1    4    4    0    0 -0.93433218475E+02  0.37614872093E+02  0.51306062231E+03  0.52285356180E+03  0.51100000000E-03 0. -1.
         11    1    4    4    0    0 -0.32411455314E+01  0.39281233635E+02  0.71112477829E+02  0.81305011183E+02  0.51100000000E-03 0.  1.
    9000005    1    3    3    0    0 -0.20846703298E+02  0.15698528238E+02  0.16427837681E+03  0.16634125741E+03  0.10000000000E+01 0.  0.
    9000005    1    3    3    0    0  0.11752106730E+03 -0.92594633967E+02  0.92787676386E+03  0.93986236035E+03  0.10000000000E+01 0.  0.
<mgrwt>
<rscale>  0 0.17006089E+03</rscale>
<asrwt>0</asrwt>
<pdfrwt beam="1">  1        2 0.26051460E+00 0.17573728E+03</pdfrwt>
<pdfrwt beam="2">  1       -2 0.26179966E-02 0.17573728E+03</pdfrwt>
<totfact> 0.55479450E+03</totfact>
</mgrwt>
</event>
<event>
 8    2  0.8128359E-004  0.1525861E+03  0.7818608E-02  0.1203671E+00
          2   -1    0    0  501    0  0.00000000000E+00  0.00000000000E+00  0.31088125537E+03  0.31088125538E+03  0.25500000000E-02 0. -1.
         -2   -1    0    0    0  501 -0.00000000000E+00 -0.00000000000E+00 -0.66563894993E+02  0.66563895042E+02  0.25500000000E-02 0.  1.
         25    2    1    2    0    0 -0.68746164631E+02 -0.54089406161E+02  0.15337796944E+03  0.21635001016E+03  0.12502330334E+03 0.  0.
         23    2    1    2    0    0  0.68746164631E+02  0.54089406161E+02  0.90939390939E+02  0.16109514026E+03  0.10014974978E+03 0.  0.
        -11    1    4    4    0    0  0.27797334750E+02  0.76958927780E+02  0.37549387357E+02  0.90029577781E+02  0.51100000000E-03 0.  1.
         11    1    4    4    0    0  0.40948829881E+02 -0.22869521620E+02  0.53390003582E+02  0.71065562479E+02  0.51100000000E-03 0. -1.
    9000005    1    3    3    0    0 -0.29787976695E+02 -0.66043817540E+02  0.17571585058E+02  0.74557829853E+02  0.10000000000E+01 0.  0.
    9000005    1    3    3    0    0 -0.38958187936E+02  0.11954411380E+02  0.13580638438E+03  0.14179218031E+03  0.10000000000E+01 0.  0.
<mgrwt>
<rscale>  0 0.14742689E+03</rscale>
<asrwt>0</asrwt>
<pdfrwt beam="1">  1        2 0.47827885E-01 0.15258612E+03</pdfrwt>
<pdfrwt beam="2">  1       -2 0.10240599E-01 0.15258612E+03</pdfrwt>
<totfact> 0.64592690E+03</totfact>
</mgrwt>
</event>
<event>
 8    2  0.8128359E-004  0.1340175E+03  0.7818608E-02  0.1233278E+00
          2   -1    0    0  501    0  0.00000000000E+00  0.00000000000E+00  0.75475104356E+02  0.75475104399E+02  0.25500000000E-02 0. -1.
         -2   -1    0    0    0  501 -0.00000000000E+00 -0.00000000000E+00 -0.20199448646E+03  0.20199448648E+03  0.25500000000E-02 0.  1.
         25    2    1    2    0    0 -0.35005472136E+02 -0.33358508732E+02 -0.36251656501E+02  0.13883401384E+03  0.12499011007E+03 0.  0.
         23    2    1    2    0    0  0.35005472136E+02  0.33358508732E+02 -0.90267725607E+02  0.13863557704E+03  0.93452596278E+02 0.  0.
        -11    1    4    4    0    0 -0.17799128956E+02 -0.98990161030E+01 -0.61098505280E+02  0.64403624581E+02  0.51100000000E-03 0.  1.
         11    1    4    4    0    0  0.52804601093E+02  0.43257524835E+02 -0.29169220327E+02  0.74231952461E+02  0.51100000000E-03 0. -1.
    9000005    1    3    3    0    0 -0.97399683027E+01  0.41396450657E+02 -0.41910158453E+02  0.59715948381E+02  0.10000000000E+01 0.  0.
    9000005    1    3    3    0    0 -0.25265503834E+02 -0.74754959389E+02  0.56585019516E+01  0.79118065456E+02  0.10000000000E+01 0.  0.
<mgrwt>
<rscale>  0 0.12615293E+03</rscale>
<asrwt>0</asrwt>
<pdfrwt beam="1">  1        2 0.11611555E-01 0.13401754E+03</pdfrwt>
<pdfrwt beam="2">  1       -2 0.31076075E-01 0.13401754E+03</pdfrwt>
<totfact> 0.48517833E+03</totfact>
</mgrwt>
</event>
<event>
 8    2  0.8128359E-004  0.1359830E+03  0.7818608E-02  0.1230829E+00
         -2   -1    0    0    0  501 -0.00000000000E+00  0.00000000000E+00  0.13414838132E+02  0.13414838374E+02  0.25500000000E-02 0.  1.
          2   -1    0    0  501    0  0.00000000000E+00 -0.00000000000E+00 -0.15825979146E+04  0.15825979146E+04  0.25500000000E-02 0. -1.
         25    2    1    2    0    0  0.18137813515E+02 -0.50392744506E+02 -0.12943187793E+04  0.13014424658E+04  0.12499192164E+03 0.  0.
         23    2    1    2    0    0 -0.18137813515E+02  0.50392744506E+02 -0.27486429715E+03  0.29457028711E+03  0.91393999940E+02 0.  0.
        -11    1    4    4    0    0 -0.36493095674E+02  0.41836834953E+02 -0.26721706263E+03  0.27292311253E+03  0.51100000000E-03 0. -1.
         11    1    4    4    0    0  0.18355282159E+02  0.85559095529E+01 -0.76472345154E+01  0.21647174583E+02  0.51100000000E-03 0.  1.
    9000005    1    3    3    0    0 -0.12627111711E+02 -0.85899028682E+02 -0.72317808913E+03  0.72837190753E+03  0.10000000000E+01 0.  0.
    9000005    1    3    3    0    0  0.30764925226E+02  0.35506284176E+02 -0.57114069016E+03  0.57307055831E+03  0.10000000000E+01 0.  0.
<mgrwt>
<rscale>  0 0.12775233E+03</rscale>
<asrwt>0</asrwt>
<pdfrwt beam="2">  1        2 0.24347645E+00 0.13598305E+03</pdfrwt>
<pdfrwt beam="1">  1       -2 0.20638225E-02 0.13598305E+03</pdfrwt>
<totfact> 0.89000173E+03</totfact>
</mgrwt>
</event>
<event>
 8    2  0.8128359E-004  0.1376277E+03  0.7818608E-02  0.1228940E+00
          2   -1    0    0  501    0  0.00000000000E+00  0.00000000000E+00  0.18400549841E+03  0.18400549843E+03  0.25500000000E-02 0. -1.
         -2   -1    0    0    0  501 -0.00000000000E+00 -0.00000000000E+00 -0.90996962091E+02  0.90996962127E+02  0.25500000000E-02 0.  1.
         25    2    1    2    0    0  0.21007160663E+02  0.53621752583E+02  0.97498763632E+02  0.16866358551E+03  0.12499921207E+03 0.  0.
         23    2    1    2    0    0 -0.21007160663E+02 -0.53621752583E+02 -0.44902273092E+01  0.10633887504E+03  0.89281582957E+02 0.  0.
        -11    1    4    4    0    0  0.12831556501E+02  0.11307000148E+02  0.22537603328E+02  0.28292059993E+02  0.51100000000E-03 0. -1.
         11    1    4    4    0    0 -0.33838717164E+02 -0.64928752731E+02 -0.27027830637E+02  0.78046815052E+02  0.51100000000E-03 0.  1.
    9000005    1    3    3    0    0  0.34252301815E+01 -0.41104290321E+02  0.30548650607E+02  0.51337266566E+02  0.10000000000E+01 0.  0.
    9000005    1    3    3    0    0  0.17581930481E+02  0.94726042904E+02  0.66950113025E+02  0.11732631895E+03  0.10000000000E+01 0.  0.
<mgrwt>
<rscale>  0 0.12900473E+03</rscale>
<asrwt>0</asrwt>
<pdfrwt beam="1">  1        2 0.28308538E-01 0.13762774E+03</pdfrwt>
<pdfrwt beam="2">  1       -2 0.13999533E-01 0.13762774E+03</pdfrwt>
<totfact> 0.68269886E+03</totfact>
</mgrwt>
</event>
<event>
 8    2  0.8128359E-004  0.1296586E+03  0.7818608E-02  0.1242902E+00
          2   -1    0    0  501    0  0.00000000000E+00  0.00000000000E+00  0.45340450944E+03  0.45340450945E+03  0.25500000000E-02 0. -1.
         -2   -1    0    0    0  501 -0.00000000000E+00 -0.00000000000E+00 -0.39697616926E+02  0.39697617008E+02  0.25500000000E-02 0.  1.
         25    2    1    2    0    0  0.27238291091E+02  0.21100020537E+02  0.95942827534E+02  0.16129589858E+03  0.12499682145E+03 0.  0.
         23    2    1    2    0    0 -0.27238291091E+02 -0.21100020537E+02  0.31776406498E+03  0.33180622788E+03  0.89074331314E+02 0.  0.
        -11    1    4    4    0    0 -0.37372449543E+01  0.32368977931E+02  0.69421378345E+02  0.76687974962E+02  0.51100000000E-03 0.  1.
         11    1    4    4    0    0 -0.23501046136E+02 -0.53468998468E+02  0.24834268664E+03  0.25511825292E+03  0.51100000000E-03 0. -1.
    9000005    1    3    3    0    0  0.33836842115E+02 -0.43706651030E+02  0.74372196032E+02  0.92668369853E+02  0.10000000000E+01 0.  0.
    9000005    1    3    3    0    0 -0.65985510241E+01  0.64806671567E+02  0.21570631502E+02  0.68627528723E+02  0.10000000000E+01 0.  0.
<mgrwt>
<rscale>  0 0.12011809E+03</rscale>
<asrwt>0</asrwt>
<pdfrwt beam="1">  1        2 0.69754532E-01 0.12965855E+03</pdfrwt>
<pdfrwt beam="2">  1       -2 0.61073264E-02 0.12965855E+03</pdfrwt>
<totfact> 0.94929347E+03</totfact>
</mgrwt>
</event>
<event>
 8    2  0.8128359E-004  0.1956912E+03  0.7818608E-02  0.1157878E+00
         -2   -1    0    0    0  501 -0.00000000000E+00  0.00000000000E+00  0.46119418114E+02  0.46119418184E+02  0.25500000000E-02 0.  1.
          2   -1    0    0  501    0  0.00000000000E+00 -0.00000000000E+00 -0.87583274155E+03  0.87583274155E+03  0.25500000000E-02 0. -1.
         25    2    1    2    0    0  0.14925699530E+03  0.19747012360E+02 -0.25889954797E+03  0.32453664891E+03  0.12500986123E+03 0.  0.
         23    2    1    2    0    0 -0.14925699530E+03 -0.19747012360E+02 -0.57081377547E+03  0.59741551083E+03  0.91702405466E+02 0.  0.
        -11    1    4    4    0    0 -0.38538475914E+02 -0.47928989786E+02 -0.22248488485E+03  0.23082878108E+03  0.51100000000E-03 0. -1.
         11    1    4    4    0    0 -0.11071851939E+03  0.28181977426E+02 -0.34832889061E+03  0.36658672974E+03  0.51100000000E-03 0.  1.
    9000005    1    3    3    0    0  0.80885855753E+02 -0.46859544696E+02 -0.17043807001E+03  0.19439257779E+03  0.10000000000E+01 0.  0.
    9000005    1    3    3    0    0  0.68371139549E+02  0.66606557056E+02 -0.88461477956E+02  0.13014407112E+03  0.10000000000E+01 0.  0.
<mgrwt>
<rscale>  0 0.19064846E+03</rscale>
<asrwt>0</asrwt>
<pdfrwt beam="2">  1        2 0.13474349E+00 0.19569124E+03</pdfrwt>
<pdfrwt beam="1">  1       -2 0.70952957E-02 0.19569124E+03</pdfrwt>
<totfact> 0.35595680E+03</totfact>
</mgrwt>
</event>
<event>
 8    2  0.8128359E-004  0.1332700E+03  0.7818608E-02  0.1235042E+00
          2   -1    0    0  501    0  0.00000000000E+00  0.00000000000E+00  0.32594216667E+02  0.32594216766E+02  0.25500000000E-02 0. -1.
         -2   -1    0    0    0  501 -0.00000000000E+00 -0.00000000000E+00 -0.43958090359E+03  0.43958090359E+03  0.25500000000E-02 0.  1.
         25    2    1    2    0    0  0.28901426171E+02 -0.36056126991E+02 -0.19223619257E+03  0.23391374429E+03  0.12500219720E+03 0.  0.
         23    2    1    2    0    0 -0.28901426171E+02  0.36056126991E+02 -0.21475049435E+03  0.23826137607E+03  0.92278772077E+02 0.  0.
        -11    1    4    4    0    0 -0.48591284149E+02  0.13008315405E+02 -0.50649823656E+02  0.71384408673E+02  0.51100000000E-03 0. -1.
         11    1    4    4    0    0  0.19689857978E+02  0.23047811586E+02 -0.16410067069E+03  0.16687696740E+03  0.51100000000E-03 0.  1.
    9000005    1    3    3    0    0  0.16990692073E+02 -0.34859722695E+02  0.24379292088E+01  0.38869363029E+02  0.10000000000E+01 0.  0.
    9000005    1    3    3    0    0  0.11910734099E+02 -0.11964042960E+01 -0.19467412178E+03  0.19504438126E+03  0.10000000000E+01 0.  0.
<mgrwt>
<rscale>  0 0.12501771E+03</rscale>
<asrwt>0</asrwt>
<pdfrwt beam="1">  1        2 0.50144952E-02 0.13326997E+03</pdfrwt>
<pdfrwt beam="2">  1       -2 0.67627827E-01 0.13326997E+03</pdfrwt>
<totfact> 0.30691232E+03</totfact>
</mgrwt>
</event>
<event>
 8    2  0.8128359E-004  0.2833609E+03  0.7818608E-02  0.1095588E+00
         -2   -1    0    0    0  501 -0.00000000000E+00  0.00000000000E+00  0.14072519709E+03  0.14072519711E+03  0.25500000000E-02 0.  1.
          2   -1    0    0  501    0  0.00000000000E+00 -0.00000000000E+00 -0.64930865938E+03  0.64930865938E+03  0.25500000000E-02 0. -1.
         25    2    1    2    0    0  0.25313501749E+03  0.24325809644E+02 -0.10134469989E+03  0.30093878136E+03  0.12499727932E+03 0.  0.
         23    2    1    2    0    0 -0.25313501749E+03 -0.24325809644E+02 -0.40723876240E+03  0.48909507514E+03  0.93281835467E+02 0.  0.
        -11    1    4    4    0    0 -0.10011635710E+03 -0.34479765341E+02 -0.99684433128E+02  0.14542738870E+03  0.51100000000E-03 0.  1.
         11    1    4    4    0    0 -0.15301866039E+03  0.10153955697E+02 -0.30755432927E+03  0.34366768643E+03  0.51100000000E-03 0. -1.
    9000005    1    3    3    0    0  0.43879030136E+01  0.29876749728E+02  0.45056065824E+01  0.30547902675E+02  0.10000000000E+01 0.  0.
    9000005    1    3    3    0    0  0.24874711447E+03 -0.55509400835E+01 -0.10585030647E+03  0.27039087868E+03  0.10000000000E+01 0.  0.
<mgrwt>
<rscale>  0 0.28018520E+03</rscale>
<asrwt>0</asrwt>
<pdfrwt beam="2">  1        2 0.99893638E-01 0.28336090E+03</pdfrwt>
<pdfrwt beam="1">  1       -2 0.21650031E-01 0.28336090E+03</pdfrwt>
<totfact> 0.84384231E+02</totfact>
</mgrwt>
</event>
<event>
 8    2  0.8128359E-004  0.1543884E+03  0.7818608E-02  0.1204062E+00
         -2   -1    0    0    0  501 -0.00000000000E+00  0.00000000000E+00  0.39042951985E+02  0.39042952068E+02  0.25500000000E-02 0.  1.
          2   -1    0    0  501    0  0.00000000000E+00 -0.00000000000E+00 -0.53557904597E+03  0.53557904598E+03  0.25500000000E-02 0. -1.
         25    2    1    2    0    0  0.22695788150E+02  0.87721991292E+02 -0.20607626428E+03  0.25749410460E+03  0.12500216256E+03 0.  0.
         23    2    1    2    0    0 -0.22695788150E+02 -0.87721991292E+02 -0.29045982971E+03  0.31712789345E+03  0.89403252599E+02 0.  0.
        -11    1    4    4    0    0  0.30865954056E+02 -0.58461357528E+02 -0.15868638598E+03  0.17190638888E+03  0.51100000000E-03 0. -1.
         11    1    4    4    0    0 -0.53561742207E+02 -0.29260633764E+02 -0.13177344373E+03  0.14522150457E+03  0.51100000000E-03 0.  1.
    9000005    1    3    3    0    0 -0.32817448793E+01  0.56944563025E+01  0.17076929295E+02  0.18325343003E+02  0.10000000000E+01 0.  0.
    9000005    1    3    3    0    0  0.25977533030E+02  0.82027534989E+02 -0.22315319358E+03  0.23916876159E+03  0.10000000000E+01 0.  0.
<mgrwt>
<rscale>  0 0.14711641E+03</rscale>
<asrwt>0</asrwt>
<pdfrwt beam="2">  1        2 0.82396771E-01 0.15438843E+03</pdfrwt>
<pdfrwt beam="1">  1       -2 0.60066084E-02 0.15438843E+03</pdfrwt>
<totfact> 0.82009909E+03</totfact>
</mgrwt>
</event>
<event>
 8    2  0.8128359E-004  0.1449713E+03  0.7818608E-02  0.1215875E+00
         -2   -1    0    0    0  501 -0.00000000000E+00  0.00000000000E+00  0.18707260576E+02  0.18707260750E+02  0.25500000000E-02 0.  1.
          2   -1    0    0  501    0  0.00000000000E+00 -0.00000000000E+00 -0.93472057324E+03  0.93472057324E+03  0.25500000000E-02 0. -1.
         25    2    1    2    0    0 -0.36620522476E+02  0.63645168500E+02 -0.50983538573E+03  0.53004603384E+03  0.12499962923E+03 0.  0.
         23    2    1    2    0    0  0.36620522476E+02 -0.63645168500E+02 -0.40617792693E+03  0.42338180015E+03  0.94233063377E+02 0.  0.
        -11    1    4    4    0    0  0.60042071098E+01 -0.60807407924E+02 -0.37368238137E+03  0.37864510231E+03  0.51100000000E-03 0. -1.
         11    1    4    4    0    0  0.30616315366E+02 -0.28377605759E+01 -0.32495545566E+02  0.44736697840E+02  0.51100000000E-03 0.  1.
    9000005    1    3    3    0    0  0.77959791601E+01  0.57809503842E+02 -0.86440055311E+02  0.10428614092E+03  0.10000000000E+01 0.  0.
    9000005    1    3    3    0    0 -0.44416501636E+02  0.58356646581E+01 -0.42339533042E+03  0.42575989292E+03  0.10000000000E+01 0.  0.
<mgrwt>
<rscale>  0 0.13812451E+03</rscale>
<asrwt>0</asrwt>
<pdfrwt beam="2">  1        2 0.14380313E+00 0.14497130E+03</pdfrwt>
<pdfrwt beam="1">  1       -2 0.28780408E-02 0.14497130E+03</pdfrwt>
<totfact> 0.12525017E+04</totfact>
</mgrwt>
</event>
<event>
 8    2  0.8128359E-004  0.1561029E+03  0.7818608E-02  0.1201647E+00
          2   -1    0    0  501    0  0.00000000000E+00  0.00000000000E+00  0.18502162614E+04  0.18502162614E+04  0.25500000000E-02 0. -1.
         -2   -1    0    0    0  501 -0.00000000000E+00 -0.00000000000E+00 -0.13770799249E+02  0.13770799486E+02  0.25500000000E-02 0.  1.
         25    2    1    2    0    0  0.78014213602E+02  0.51547590728E+02  0.57252034933E+03  0.59342032426E+03  0.12499903683E+03 0.  0.
         23    2    1    2    0    0 -0.78014213602E+02 -0.51547590728E+02  0.12639251128E+04  0.12705667366E+04  0.89943147500E+02 0.  0.
        -11    1    4    4    0    0 -0.53947510061E+02 -0.64652165102E+02  0.57870244596E+03  0.58479633827E+03  0.51100000000E-03 0.  1.
         11    1    4    4    0    0 -0.24066703541E+02  0.13104574374E+02  0.68522266681E+03  0.68577039831E+03  0.51100000000E-03 0. -1.
    9000005    1    3    3    0    0  0.90310470507E+02  0.81927829352E+02  0.48055018047E+03  0.49577981631E+03  0.10000000000E+01 0.  0.
    9000005    1    3    3    0    0 -0.12296256905E+02 -0.30380238624E+02  0.91970168858E+02  0.97640507949E+02  0.10000000000E+01 0.  0.
<mgrwt>
<rscale>  0 0.14904897E+03</rscale>
<asrwt>0</asrwt>
<pdfrwt beam="1">  1        2 0.28464883E+00 0.15610295E+03</pdfrwt>
<pdfrwt beam="2">  1       -2 0.21185832E-02 0.15610295E+03</pdfrwt>
<totfact> 0.62659388E+03</totfact>
</mgrwt>
</event>
<event>
 8    2  0.8128359E-004  0.2914853E+03  0.7818608E-02  0.1091282E+00
         -2   -1    0    0    0  501 -0.00000000000E+00  0.00000000000E+00  0.14780359018E+03  0.14780359020E+03  0.25500000000E-02 0. -1.
          2   -1    0    0  501    0  0.00000000000E+00 -0.00000000000E+00 -0.73280930266E+03  0.73280930267E+03  0.25500000000E-02 0.  1.
         25    2    1    2    0    0  0.87677068302E+02 -0.24830066109E+03 -0.51744585758E+03  0.59389722085E+03  0.12499282701E+03 0.  0.
         23    2    1    2    0    0 -0.87677068302E+02  0.24830066109E+03 -0.67559854902E+02  0.28671567202E+03  0.91110131046E+02 0.  0.
        -11    1    4    4    0    0 -0.22621443676E+02  0.92531823892E+02 -0.69467916557E+02  0.11789681750E+03  0.51100000000E-03 0.  1.
         11    1    4    4    0    0 -0.65055624626E+02  0.15576883720E+03  0.19080616548E+01  0.16881885451E+03  0.51100000000E-03 0. -1.
    9000005    1    3    3    0    0 -0.23973176092E+02 -0.97705900664E+02 -0.22572325405E+03  0.24712981126E+03  0.10000000000E+01 0.  0.
    9000005    1    3    3    0    0  0.11165024439E+03 -0.15059476043E+03 -0.29172260353E+03  0.34676740959E+03  0.10000000000E+01 0.  0.
<mgrwt>
<rscale>  0 0.28822012E+03</rscale>
<asrwt>0</asrwt>
<pdfrwt beam="2">  1        2 0.11273989E+00 0.29148532E+03</pdfrwt>
<pdfrwt beam="1">  1       -2 0.22739014E-01 0.29148532E+03</pdfrwt>
<totfact> 0.66841927E+02</totfact>
</mgrwt>
</event>
<event>
 8    2  0.8128359E-004  0.1340522E+03  0.7818608E-02  0.1236706E+00
         -2   -1    0    0    0  501 -0.00000000000E+00  0.00000000000E+00  0.19889507973E+02  0.19889508136E+02  0.25500000000E-02 0. -1.
          2   -1    0    0  501    0  0.00000000000E+00 -0.00000000000E+00 -0.76894589369E+03  0.76894589369E+03  0.25500000000E-02 0.  1.
         25    2    1    2    0    0  0.46394132499E+01  0.48205532061E+02 -0.56072282346E+03  0.57652414073E+03  0.12499881045E+03 0.  0.
         23    2    1    2    0    0 -0.46394132499E+01 -0.48205532061E+02 -0.18833356226E+03  0.21231126110E+03  0.85212930018E+02 0.  0.
        -11    1    4    4    0    0 -0.32114608134E+02 -0.42532033700E+02 -0.17150820346E+03  0.17959784464E+03  0.51100000000E-03 0.  1.
         11    1    4    4    0    0  0.27475194884E+02 -0.56734983614E+01 -0.16825358798E+02  0.32713416461E+02  0.51100000000E-03 0. -1.
    9000005    1    3    3    0    0 -0.56822589387E+01  0.15236100706E+02 -0.16402349284E+01  0.16374284778E+02  0.10000000000E+01 0.  0.
    9000005    1    3    3    0    0  0.10321672189E+02  0.32969431355E+02 -0.55908258853E+03  0.56014985595E+03  0.10000000000E+01 0.  0.
<mgrwt>
<rscale>  0 0.12395853E+03</rscale>
<asrwt>0</asrwt>
<pdfrwt beam="2">  1        2 0.11829935E+00 0.13405223E+03</pdfrwt>
<pdfrwt beam="1">  1       -2 0.30599249E-02 0.13405223E+03</pdfrwt>
<totfact> 0.14608558E+04</totfact>
</mgrwt>
</event>
<event>
 8    2  0.8128359E-004  0.1268740E+03  0.7818608E-02  0.1248186E+00
          2   -1    0    0  501    0  0.00000000000E+00  0.00000000000E+00  0.32895350306E+04  0.32895350306E+04  0.25500000000E-02 0. -1.
         -2   -1    0    0    0  501 -0.00000000000E+00 -0.00000000000E+00 -0.37100067767E+01  0.37100076530E+01  0.25500000000E-02 0.  1.
         25    2    1    2    0    0 -0.21195054775E+02 -0.50366681257E+01  0.21419042280E+04  0.21456585795E+04  0.12498967728E+03 0.  0.
         23    2    1    2    0    0  0.21195054775E+02  0.50366681257E+01  0.11439207958E+04  0.11475864588E+04  0.89024125144E+02 0.  0.
        -11    1    4    4    0    0  0.45377016628E+02  0.24091920978E+02  0.93488282018E+03  0.93629342717E+03  0.51100000000E-03 0. -1.
         11    1    4    4    0    0 -0.24181961854E+02 -0.19055252852E+02  0.20903797565E+03  0.21129303160E+03  0.51100000000E-03 0.  1.
    9000005    1    3    3    0    0  0.93407853151E+01 -0.11974893690E+02  0.20109907593E+04  0.20110483541E+04  0.10000000000E+01 0.  0.
    9000005    1    3    3    0    0 -0.30535840090E+02  0.69382255638E+01  0.13091346868E+03  0.13461022541E+03  0.10000000000E+01 0.  0.
<mgrwt>
<rscale>  0 0.11696711E+03</rscale>
<asrwt>0</asrwt>
<pdfrwt beam="1">  1        2 0.50608378E+00 0.12687402E+03</pdfrwt>
<pdfrwt beam="2">  1       -2 0.57076869E-03 0.12687402E+03</pdfrwt>
<totfact> 0.66971838E+03</totfact>
</mgrwt>
</event>
<event>
 8    2  0.8128359E-004  0.1386719E+03  0.7818608E-02  0.1228595E+00
          2   -1    0    0  501    0  0.00000000000E+00  0.00000000000E+00  0.20859980526E+04  0.20859980526E+04  0.25500000000E-02 0. -1.
         -2   -1    0    0    0  501 -0.00000000000E+00 -0.00000000000E+00 -0.71234223926E+01  0.71234228490E+01  0.25500000000E-02 0.  1.
         25    2    1    2    0    0  0.21865838306E+02  0.55919612677E+02  0.12519997353E+04  0.12596560024E+04  0.12499915723E+03 0.  0.
         23    2    1    2    0    0 -0.21865838306E+02 -0.55919612677E+02  0.82687489487E+03  0.83346547298E+03  0.85659120449E+02 0.  0.
        -11    1    4    4    0    0 -0.45932687322E+02 -0.90312799833E+01  0.26306890250E+03  0.26720146565E+03  0.51100000000E-03 0.  1.
         11    1    4    4    0    0  0.24066849016E+02 -0.46888332693E+02  0.56380599236E+03  0.56626400732E+03  0.51100000000E-03 0. -1.
    9000005    1    3    3    0    0  0.14825982054E+02  0.76927971711E+02  0.41317542868E+03  0.42053853264E+03  0.10000000000E+01 0.  0.
    9000005    1    3    3    0    0  0.70398562525E+01 -0.21008359035E+02  0.83882430664E+03  0.83911746980E+03  0.10000000000E+01 0.  0.
<mgrwt>
<rscale>  0 0.12923541E+03</rscale>
<asrwt>0</asrwt>
<pdfrwt beam="1">  1        2 0.32092314E+00 0.13867194E+03</pdfrwt>
<pdfrwt beam="2">  1       -2 0.10959099E-02 0.13867194E+03</pdfrwt>
<totfact> 0.12257147E+04</totfact>
</mgrwt>
</event>
<event>
 8    2  0.8128359E-004  0.1476460E+03  0.7818608E-02  0.1211307E+00
          2   -1    0    0  501    0  0.00000000000E+00  0.00000000000E+00  0.64611742926E+03  0.64611742926E+03  0.25500000000E-02 0. -1.
         -2   -1    0    0    0  501 -0.00000000000E+00 -0.00000000000E+00 -0.32767500008E+02  0.32767500108E+02  0.25500000000E-02 0.  1.
         25    2    1    2    0    0 -0.78272669541E+02 -0.68897526200E+01  0.20986119794E+03  0.25659514559E+03  0.12500106739E+03 0.  0.
         23    2    1    2    0    0  0.78272669541E+02  0.68897526200E+01  0.40348873131E+03  0.42228978379E+03  0.96702769900E+02 0.  0.
        -11    1    4    4    0    0  0.37577253546E+02  0.30186622626E+02  0.33979414962E+03  0.34319578419E+03  0.51100000000E-03 0. -1.
         11    1    4    4    0    0  0.40695415995E+02 -0.23296870006E+02  0.63694581696E+02  0.79093999600E+02  0.51100000000E-03 0.  1.
    9000005    1    3    3    0    0  0.10303072848E+00  0.50323264386E+02  0.64424665544E+02  0.81755605828E+02  0.10000000000E+01 0.  0.
    9000005    1    3    3    0    0 -0.78375700269E+02 -0.57213017006E+02  0.14543653239E+03  0.17483953976E+03  0.10000000000E+01 0.  0.
<mgrwt>
<rscale>  0 0.14151322E+03</rscale>
<asrwt>0</asrwt>
<pdfrwt beam="1">  1        2 0.99402671E-01 0.14764602E+03</pdfrwt>
<pdfrwt beam="2">  1       -2 0.50411544E-02 0.14764602E+03</pdfrwt>
<totfact> 0.86117140E+03</totfact>
</mgrwt>
</event>
<event>
 8    2  0.8128359E-004  0.1319237E+03  0.7818608E-02  0.1237686E+00
          2   -1    0    0  501    0  0.00000000000E+00  0.00000000000E+00  0.91818746915E+03  0.91818746915E+03  0.25500000000E-02 0. -1.
         -2   -1    0    0    0  501 -0.00000000000E+00 -0.00000000000E+00 -0.26855213234E+02  0.26855213355E+02  0.25500000000E-02 0.  1.
         25    2    1    2    0    0 -0.20708139821E+02 -0.36740608283E+02  0.79412571957E+03  0.80500902405E+03  0.12500068387E+03 0.  0.
         23    2    1    2    0    0  0.20708139821E+02  0.36740608283E+02  0.97206536346E+02  0.14003365846E+03  0.91551162969E+02 0.  0.
        -11    1    4    4    0    0  0.46652865234E+02  0.30114859625E+02  0.98664112891E+02  0.11321661441E+03  0.51100000000E-03 0. -1.
         11    1    4    4    0    0 -0.25944725413E+02  0.66257486580E+01 -0.14575765447E+01  0.26817044052E+02  0.51100000000E-03 0.  1.
    9000005    1    3    3    0    0  0.21604798939E+01 -0.50669952399E+02  0.11910896562E+03  0.12946064050E+03  0.10000000000E+01 0.  0.
    9000005    1    3    3    0    0 -0.22868619715E+02  0.13929344115E+02  0.67501675395E+03  0.67554838355E+03  0.10000000000E+01 0.  0.
<mgrwt>
<rscale>  0 0.12334047E+03</rscale>
<asrwt>0</asrwt>
<pdfrwt beam="1">  1        2 0.14125960E+00 0.13192373E+03</pdfrwt>
<pdfrwt beam="2">  1       -2 0.41315716E-02 0.13192373E+03</pdfrwt>
<totfact> 0.74764117E+03</totfact>
</mgrwt>
</event>
<event>
 8    2  0.8128359E-004  0.1369552E+03  0.7818608E-02  0.1229554E+00
          2   -1    0    0  501    0  0.00000000000E+00  0.00000000000E+00  0.52081607794E+03  0.52081607795E+03  0.25500000000E-02 0. -1.
         -2   -1    0    0    0  501 -0.00000000000E+00 -0.00000000000E+00 -0.29652116736E+02  0.29652116846E+02  0.25500000000E-02 0.  1.
         25    2    1    2    0    0 -0.67123402143E+01 -0.55554173746E+02  0.21988468305E+03  0.25904823980E+03  0.12500157988E+03 0.  0.
         23    2    1    2    0    0  0.67123402143E+01  0.55554173746E+02  0.27127927816E+03  0.29141995500E+03  0.90563909365E+02 0.  0.
        -11    1    4    4    0    0 -0.88657339599E+01  0.75252777048E+02  0.15589812201E+03  0.17333726125E+03  0.51100000000E-03 0.  1.
         11    1    4    4    0    0  0.15578074174E+02 -0.19698603302E+02  0.11538115615E+03  0.11808269374E+03  0.51100000000E-03 0. -1.
    9000005    1    3    3    0    0 -0.46145376430E+02 -0.64296289459E+02  0.76484159402E+02  0.11006468663E+03  0.10000000000E+01 0.  0.
    9000005    1    3    3    0    0  0.39433036216E+02  0.87421157125E+01  0.14340052364E+03  0.14898355316E+03  0.10000000000E+01 0.  0.
<mgrwt>
<rscale>  0 0.12859604E+03</rscale>
<asrwt>0</asrwt>
<pdfrwt beam="1">  1        2 0.80125540E-01 0.13695516E+03</pdfrwt>
<pdfrwt beam="2">  1       -2 0.45618647E-02 0.13695516E+03</pdfrwt>
<totfact> 0.12706765E+04</totfact>
</mgrwt>
</event>
<event>
 8    2  0.8128359E-004  0.1514848E+03  0.7818608E-02  0.1206851E+00
         -2   -1    0    0    0  501 -0.00000000000E+00  0.00000000000E+00  0.21260197630E+03  0.21260197631E+03  0.25500000000E-02 0.  1.
          2   -1    0    0  501    0  0.00000000000E+00 -0.00000000000E+00 -0.99766749856E+02  0.99766749888E+02  0.25500000000E-02 0. -1.
         25    2    1    2    0    0 -0.21449261601E+02  0.82840254321E+02  0.10674981218E+03  0.18531910151E+03  0.12500027370E+03 0.  0.
         23    2    1    2    0    0  0.21449261601E+02 -0.82840254321E+02  0.60854142601E+01  0.12704962469E+03  0.93712306064E+02 0.  0.
        -11    1    4    4    0    0 -0.33411550852E+02 -0.19049143713E+02  0.17293497910E+02  0.42169499366E+02  0.51100000000E-03 0.  1.
         11    1    4    4    0    0  0.54860812453E+02 -0.63791110608E+02 -0.11208083650E+02  0.84880125324E+02  0.51100000000E-03 0. -1.
    9000005    1    3    3    0    0 -0.18024479132E+02  0.17753242676E+02 -0.26702478028E+02  0.36797850567E+02  0.10000000000E+01 0.  0.
    9000005    1    3    3    0    0 -0.34247824689E+01  0.65087011645E+02  0.13345229021E+03  0.14852125094E+03  0.10000000000E+01 0.  0.
<mgrwt>
<rscale>  0 0.14492572E+03</rscale>
<asrwt>0</asrwt>
<pdfrwt beam="2">  1        2 0.15348731E-01 0.15148481E+03</pdfrwt>
<pdfrwt beam="1">  1       -2 0.32707996E-01 0.15148481E+03</pdfrwt>
<totfact> 0.31964487E+03</totfact>
</mgrwt>
</event>
<event>
 8    2  0.8128359E-004  0.1374471E+03  0.7818608E-02  0.1231679E+00
         -2   -1    0    0    0  501 -0.00000000000E+00  0.00000000000E+00  0.33551283815E+02  0.33551283912E+02  0.25500000000E-02 0.  1.
          2   -1    0    0  501    0  0.00000000000E+00 -0.00000000000E+00 -0.42310584109E+03  0.42310584110E+03  0.25500000000E-02 0. -1.
         25    2    1    2    0    0  0.56172745434E+02 -0.10546063165E+02 -0.22906726719E+03  0.26713949005E+03  0.12500038988E+03 0.  0.
         23    2    1    2    0    0 -0.56172745434E+02  0.10546063165E+02 -0.16048729009E+03  0.18951763496E+03  0.83031120084E+02 0.  0.
        -11    1    4    4    0    0 -0.14290595558E+02  0.14639933671E+02  0.30215503576E+01  0.20680390376E+02  0.51100000000E-03 0.  1.
         11    1    4    4    0    0 -0.41882149877E+02 -0.40938705058E+01 -0.16350884044E+03  0.16883724458E+03  0.51100000000E-03 0. -1.
    9000005    1    3    3    0    0  0.78889771795E+02 -0.22453753633E+02 -0.75641456694E+02  0.11158134753E+03  0.10000000000E+01 0.  0.
    9000005    1    3    3    0    0 -0.22717026360E+02  0.11907690468E+02 -0.15342581050E+03  0.15555814252E+03  0.10000000000E+01 0.  0.
<mgrwt>
<rscale>  0 0.12719422E+03</rscale>
<asrwt>0</asrwt>
<pdfrwt beam="2">  1        2 0.65093203E-01 0.13744706E+03</pdfrwt>
<pdfrwt beam="1">  1       -2 0.51617363E-02 0.13744706E+03</pdfrwt>
<totfact> 0.13241755E+04</totfact>
</mgrwt>
</event>
<event>
 8    2  0.8128359E-004  0.1700891E+03  0.7818608E-02  0.1184293E+00
          2   -1    0    0  501    0  0.00000000000E+00  0.00000000000E+00  0.83840379706E+02  0.83840379745E+02  0.25500000000E-02 0. -1.
         -2   -1    0    0    0  501 -0.00000000000E+00 -0.00000000000E+00 -0.36935537561E+03  0.36935537561E+03  0.25500000000E-02 0.  1.
         25    2    1    2    0    0  0.60590387761E+02  0.98153753503E+02 -0.24950656260E+03  0.30196659507E+03  0.12499978137E+03 0.  0.
         23    2    1    2    0    0 -0.60590387761E+02 -0.98153753503E+02 -0.36008433298E+02  0.15122916029E+03  0.90930177808E+02 0.  0.
        -11    1    4    4    0    0 -0.34831440410E+02 -0.95832707505E+02 -0.57975666616E+02  0.11729584387E+03  0.51100000000E-03 0.  1.
         11    1    4    4    0    0 -0.25758947351E+02 -0.23210459980E+01  0.21967233318E+02  0.33933316418E+02  0.51100000000E-03 0. -1.
    9000005    1    3    3    0    0 -0.43678981081E+01 -0.16229214953E+02  0.31390316866E+01  0.17126572097E+02  0.10000000000E+01 0.  0.
    9000005    1    3    3    0    0  0.64958285869E+02  0.11438296846E+03 -0.25264559429E+03  0.28484002298E+03  0.10000000000E+01 0.  0.
<mgrwt>
<rscale>  0 0.16396374E+03</rscale>
<asrwt>0</asrwt>
<pdfrwt beam="1">  1        2 0.12898520E-01 0.17008909E+03</pdfrwt>
<pdfrwt beam="2">  1       -2 0.56823903E-01 0.17008909E+03</pdfrwt>
<totfact> 0.13608869E+03</totfact>
</mgrwt>
</event>
<event>
 8    2  0.8128359E-004  0.1467917E+03  0.7818608E-02  0.1214576E+00
         -2   -1    0    0    0  501 -0.00000000000E+00  0.00000000000E+00  0.11941052639E+02  0.11941052912E+02  0.25500000000E-02 0.  1.
          2   -1    0    0  501    0  0.00000000000E+00 -0.00000000000E+00 -0.15678367601E+04  0.15678367601E+04  0.25500000000E-02 0. -1.
         25    2    1    2    0    0 -0.52541247246E+02  0.56234512465E+02 -0.10516297180E+04  0.10618252520E+04  0.12499959649E+03 0.  0.
         23    2    1    2    0    0  0.52541247246E+02 -0.56234512465E+02 -0.50426598946E+03  0.51795256093E+03  0.89820733660E+02 0.  0.
        -11    1    4    4    0    0 -0.83703181601E+01 -0.47725331835E+02 -0.32113336429E+03  0.32476823611E+03  0.51100000000E-03 0. -1.
         11    1    4    4    0    0  0.60911565406E+02 -0.85091806298E+01 -0.18313262517E+03  0.19318432482E+03  0.51100000000E-03 0.  1.
    9000005    1    3    3    0    0 -0.26337177168E+02  0.44280390749E+02 -0.10093096731E+04  0.10106242705E+04  0.10000000000E+01 0.  0.
    9000005    1    3    3    0    0 -0.26204070078E+02  0.11954121716E+02 -0.42320044890E+02  0.51200981574E+02  0.10000000000E+01 0.  0.
<mgrwt>
<rscale>  0 0.13907719E+03</rscale>
<asrwt>0</asrwt>
<pdfrwt beam="2">  1        2 0.24120549E+00 0.14679170E+03</pdfrwt>
<pdfrwt beam="1">  1       -2 0.18370863E-02 0.14679170E+03</pdfrwt>
<totfact> 0.10758221E+04</totfact>
</mgrwt>
</event>
<event>
 8    2  0.8128359E-004  0.1690523E+03  0.7818608E-02  0.1186360E+00
         -2   -1    0    0    0  501 -0.00000000000E+00  0.00000000000E+00  0.71695306739E+01  0.71695311273E+01  0.25500000000E-02 0. -1.
          2   -1    0    0  501    0  0.00000000000E+00 -0.00000000000E+00 -0.33927186541E+04  0.33927186541E+04  0.25500000000E-02 0.  1.
         25    2    1    2    0    0 -0.10052362728E+02 -0.11337176297E+03 -0.18276009050E+04  0.18354028800E+04  0.12499782944E+03 0.  0.
         23    2    1    2    0    0  0.10052362728E+02  0.11337176297E+03 -0.15579482184E+04  0.15644853052E+04  0.86356310151E+02 0.  0.
        -11    1    4    4    0    0  0.39172555988E+02  0.29177555064E+02 -0.37153927651E+03  0.37473624438E+03  0.51100000000E-03 0. -1.
         11    1    4    4    0    0 -0.29120193260E+02  0.84194207909E+02 -0.11864089419E+04  0.11897490608E+04  0.51100000000E-03 0.  1.
    9000005    1    3    3    0    0  0.47909159110E+02 -0.39529594439E+02 -0.11026993212E+04  0.11044476762E+04  0.10000000000E+01 0.  0.
    9000005    1    3    3    0    0 -0.57961521838E+02 -0.73842168534E+02 -0.72490158378E+03  0.73095520385E+03  0.10000000000E+01 0.  0.
<mgrwt>
<rscale>  0 0.16208783E+03</rscale>
<asrwt>0</asrwt>
<pdfrwt beam="2">  1        2 0.52195543E+00 0.16905225E+03</pdfrwt>
<pdfrwt beam="1">  1       -2 0.11030075E-02 0.16905225E+03</pdfrwt>
<totfact> 0.22423409E+03</totfact>
</mgrwt>
</event>
<event>
 8    2  0.8128359E-004  0.1922822E+03  0.7818608E-02  0.1161068E+00
         -2   -1    0    0    0  501 -0.00000000000E+00  0.00000000000E+00  0.88727698340E+02  0.88727698377E+02  0.25500000000E-02 0.  1.
          2   -1    0    0  501    0  0.00000000000E+00 -0.00000000000E+00 -0.42662055298E+03  0.42662055298E+03  0.25500000000E-02 0. -1.
         25    2    1    2    0    0  0.81335897632E+01 -0.14585983558E+03 -0.87445898323E+02  0.21123263461E+03  0.12502477303E+03 0.  0.
         23    2    1    2    0    0 -0.81335897632E+01  0.14585983558E+03 -0.25044695631E+03  0.30411561675E+03  0.91768096343E+02 0.  0.
        -11    1    4    4    0    0 -0.11605555475E+01  0.11747983852E+03 -0.24844483435E+03  0.27482302499E+03  0.51100000000E-03 0. -1.
         11    1    4    4    0    0 -0.69730342158E+01  0.28379997059E+02 -0.20021219586E+01  0.29292591757E+02  0.51100000000E-03 0.  1.
    9000005    1    3    3    0    0 -0.58318556196E+02 -0.67043008811E+02 -0.34406550559E+02  0.95292338352E+02  0.10000000000E+01 0.  0.
    9000005    1    3    3    0    0  0.66452145960E+02 -0.78816826772E+02 -0.53039347764E+02  0.11594029626E+03  0.10000000000E+01 0.  0.
<mgrwt>
<rscale>  0 0.18713853E+03</rscale>
<asrwt>0</asrwt>
<pdfrwt beam="2">  1        2 0.65633930E-01 0.19228219E+03</pdfrwt>
<pdfrwt beam="1">  1       -2 0.13650415E-01 0.19228219E+03</pdfrwt>
<totfact> 0.29326685E+03</totfact>
</mgrwt>
</event>
<event>
 8    2  0.8128359E-004  0.1391851E+03  0.7818608E-02  0.1224351E+00
         -2   -1    0    0    0  501 -0.00000000000E+00  0.00000000000E+00  0.12101802154E+02  0.12101802422E+02  0.25500000000E-02 0. -1.
          2   -1    0    0  501    0  0.00000000000E+00 -0.00000000000E+00 -0.14741076407E+04  0.14741076407E+04  0.25500000000E-02 0.  1.
         25    2    1    2    0    0 -0.21450885996E+02 -0.57327637481E+02 -0.55469704883E+03  0.57189274081E+03  0.12500356987E+03 0.  0.
         23    2    1    2    0    0  0.21450885996E+02  0.57327637481E+02 -0.90730878977E+03  0.91431670237E+03  0.94969435646E+02 0.  0.
        -11    1    4    4    0    0  0.67063614083E+01  0.72957937754E+02 -0.40667245941E+03  0.41321946373E+03  0.51100000000E-03 0. -1.
         11    1    4    4    0    0  0.14744524588E+02 -0.15630300273E+02 -0.50063633036E+03  0.50109723864E+03  0.51100000000E-03 0.  1.
    9000005    1    3    3    0    0 -0.13931210943E+02 -0.81904783028E+02 -0.52917446761E+03  0.53565762319E+03  0.10000000000E+01 0.  0.
    9000005    1    3    3    0    0 -0.75196750530E+01  0.24577145547E+02 -0.25522581221E+02  0.36235117611E+02  0.10000000000E+01 0.  0.
<mgrwt>
<rscale>  0 0.13211451E+03</rscale>
<asrwt>0</asrwt>
<pdfrwt beam="2">  1        2 0.22678565E+00 0.13918510E+03</pdfrwt>
<pdfrwt beam="1">  1       -2 0.18618169E-02 0.13918510E+03</pdfrwt>
<totfact> 0.11779161E+04</totfact>
</mgrwt>
</event>
<event>
 8    2  0.8128359E-004  0.1279241E+03  0.7818608E-02  0.1244893E+00
          2   -1    0    0  501    0  0.00000000000E+00  0.00000000000E+00  0.10198421040E+03  0.10198421044E+03  0.25500000000E-02 0. -1.
         -2   -1    0    0    0  501 -0.00000000000E+00 -0.00000000000E+00 -0.12761756373E+03  0.12761756375E+03  0.25500000000E-02 0.  1.
         25    2    1    2    0    0  0.22064263171E+02 -0.15906336501E+02  0.83798895620E+01  0.12819823149E+03  0.12499888303E+03 0.  0.
         23    2    1    2    0    0 -0.22064263171E+02  0.15906336501E+02 -0.34013242884E+02  0.10140354269E+03  0.91574748317E+02 0.  0.
        -11    1    4    4    0    0 -0.69103394644E+01 -0.26996355433E+02 -0.46509040081E+02  0.54218509826E+02  0.51100000000E-03 0.  1.
         11    1    4    4    0    0 -0.15153923706E+02  0.42902691935E+02  0.12495797197E+02  0.47185032868E+02  0.51100000000E-03 0. -1.
    9000005    1    3    3    0    0  0.69656557022E+02 -0.32899232393E+02  0.96087491548E+01  0.77638415031E+02  0.10000000000E+01 0.  0.
    9000005    1    3    3    0    0 -0.47592293852E+02  0.16992895891E+02 -0.12288595928E+01  0.50559816463E+02  0.10000000000E+01 0.  0.
<mgrwt>
<rscale>  0 0.11891808E+03</rscale>
<asrwt>0</asrwt>
<pdfrwt beam="1">  1        2 0.15689879E-01 0.12792406E+03</pdfrwt>
<pdfrwt beam="2">  1       -2 0.19633471E-01 0.12792406E+03</pdfrwt>
<totfact> 0.75391537E+03</totfact>
</mgrwt>
</event>
<event>
 8    2  0.8128359E-004  0.2480592E+03  0.7818608E-02  0.1117335E+00
         -2   -1    0    0    0  501 -0.00000000000E+00  0.00000000000E+00  0.25815072616E+02  0.25815072742E+02  0.25500000000E-02 0.  1.
          2   -1    0    0  501    0  0.00000000000E+00 -0.00000000000E+00 -0.22274765468E+04  0.22274765468E+04  0.25500000000E-02 0. -1.
         25    2    1    2    0    0  0.21425520293E+03 -0.17140767577E+01 -0.10959615228E+04  0.11236836777E+04  0.12500047154E+03 0.  0.
         23    2    1    2    0    0 -0.21425520293E+03  0.17140767577E+01 -0.11056999513E+04  0.11296079419E+04  0.86795678964E+02 0.  0.
        -11    1    4    4    0    0 -0.25550692713E+02  0.43755679829E+01 -0.34025306434E+03  0.34123911160E+03  0.51100000000E-03 0. -1.
         11    1    4    4    0    0 -0.18870451022E+03 -0.26614912252E+01 -0.76544688700E+03  0.78836883027E+03  0.51100000000E-03 0.  1.
    9000005    1    3    3    0    0  0.15885052131E+02  0.28513223354E+02 -0.58521514956E+02  0.67015718306E+02  0.10000000000E+01 0.  0.
    9000005    1    3    3    0    0  0.19837015080E+03 -0.30227300111E+02 -0.10374400079E+04  0.10566679594E+04  0.10000000000E+01 0.  0.
<mgrwt>
<rscale>  0 0.24372580E+03</rscale>
<asrwt>0</asrwt>
<pdfrwt beam="2">  1        2 0.34268855E+00 0.24805916E+03</pdfrwt>
<pdfrwt beam="1">  1       -2 0.39715514E-02 0.24805916E+03</pdfrwt>
<totfact> 0.15671374E+03</totfact>
</mgrwt>
</event>
<event>
 8    2  0.8128359E-004  0.1484639E+03  0.7818608E-02  0.1211301E+00
          2   -1    0    0  501    0  0.00000000000E+00  0.00000000000E+00  0.41446082779E+02  0.41446082857E+02  0.25500000000E-02 0. -1.
         -2   -1    0    0    0  501 -0.00000000000E+00 -0.00000000000E+00 -0.45474981468E+03  0.45474981469E+03  0.25500000000E-02 0.  1.
         25    2    1    2    0    0 -0.31040973165E+02  0.73844280797E+02 -0.18636428118E+03  0.23827122109E+03  0.12500003872E+03 0.  0.
         23    2    1    2    0    0  0.31040973165E+02 -0.73844280797E+02 -0.22693945072E+03  0.25792467645E+03  0.92774482527E+02 0.  0.
        -11    1    4    4    0    0  0.42289206987E+02 -0.11826868777E+02 -0.16027406286E+03  0.16618070610E+03  0.51100000000E-03 0.  1.
         11    1    4    4    0    0 -0.11248233823E+02 -0.62017412020E+02 -0.66665387861E+02  0.91743970356E+02  0.51100000000E-03 0. -1.
    9000005    1    3    3    0    0  0.23796032848E+02 -0.13951498288E+01  0.59631166884E+01  0.24591795034E+02  0.10000000000E+01 0.  0.
    9000005    1    3    3    0    0 -0.54837006013E+02  0.75239430625E+02 -0.19232739787E+03  0.21367942606E+03  0.10000000000E+01 0.  0.
<mgrwt>
<rscale>  0 0.14151826E+03</rscale>
<asrwt>0</asrwt>
<pdfrwt beam="1">  1        2 0.63763207E-02 0.14846390E+03</pdfrwt>
<pdfrwt beam="2">  1       -2 0.69961507E-01 0.14846390E+03</pdfrwt>
<totfact> 0.21069447E+03</totfact>
</mgrwt>
</event>
<event>
 8    2  0.8128359E-004  0.1744237E+03  0.7818608E-02  0.1178832E+00
          2   -1    0    0  501    0  0.00000000000E+00  0.00000000000E+00  0.24054394093E+02  0.24054394228E+02  0.25500000000E-02 0. -1.
         -2   -1    0    0    0  501 -0.00000000000E+00 -0.00000000000E+00 -0.12055933213E+04  0.12055933213E+04  0.25500000000E-02 0.  1.
         25    2    1    2    0    0 -0.44355744422E+02 -0.11327618173E+03 -0.78797714751E+03  0.80705119036E+03  0.12499885376E+03 0.  0.
         23    2    1    2    0    0  0.44355744422E+02  0.11327618173E+03 -0.39356177969E+03  0.42259652517E+03  0.94329333952E+02 0.  0.
        -11    1    4    4    0    0  0.54024736951E+02  0.93188209413E+02 -0.19487899510E+03  0.22266687519E+03  0.51100000000E-03 0. -1.
         11    1    4    4    0    0 -0.96689925285E+01  0.20087972314E+02 -0.19868278459E+03  0.19992964998E+03  0.51100000000E-03 0.  1.
    9000005    1    3    3    0    0 -0.62084022447E+02 -0.12463647381E+03 -0.75622975407E+03  0.76894285703E+03  0.10000000000E+01 0.  0.
    9000005    1    3    3    0    0  0.17728278025E+02  0.11360292083E+02 -0.31747393445E+02  0.38108333321E+02  0.10000000000E+01 0.  0.
<mgrwt>
<rscale>  0 0.16905995E+03</rscale>
<asrwt>0</asrwt>
<pdfrwt beam="1">  1        2 0.37006770E-02 0.17442373E+03</pdfrwt>
<pdfrwt beam="2">  1       -2 0.18547585E+00 0.17442373E+03</pdfrwt>
<totfact> 0.41680166E+02</totfact>
</mgrwt>
</event>
<event>
 8    2  0.8128359E-004  0.1250847E+03  0.7818608E-02  0.1262830E+00
          2   -1    0    0  501    0  0.00000000000E+00  0.00000000000E+00  0.92164009170E+03  0.92164009170E+03  0.25500000000E-02 0. -1.
         -2   -1    0    0    0  501 -0.00000000000E+00 -0.00000000000E+00 -0.17716703147E+02  0.17716703331E+02  0.25500000000E-02 0.  1.
         25    2    1    2    0    0  0.43272160505E+01 -0.17357476561E+01  0.23146951326E+03  0.26310514233E+03  0.12499777090E+03 0.  0.
         23    2    1    2    0    0 -0.43272160505E+01  0.17357476561E+01  0.67245387529E+03  0.67625165271E+03  0.71416705162E+02 0.  0.
        -11    1    4    4    0    0 -0.16759304011E+02  0.33346413222E+02  0.32206034403E+03  0.32421554981E+03  0.51100000000E-03 0.  1.
         11    1    4    4    0    0  0.12432087961E+02 -0.31610665565E+02  0.35039353126E+03  0.35203610289E+03  0.51100000000E-03 0. -1.
    9000005    1    3    3    0    0 -0.54723915859E+02  0.95000869135E+01  0.16186356081E+03  0.17113085910E+03  0.10000000000E+01 0.  0.
    9000005    1    3    3    0    0  0.59051131910E+02 -0.11235834570E+02  0.69605952447E+02  0.91974283223E+02  0.10000000000E+01 0.  0.
<mgrwt>
<rscale>  0 0.10878874E+03</rscale>
<asrwt>0</asrwt>
<pdfrwt beam="1">  1        2 0.14179079E+00 0.12508469E+03</pdfrwt>
<pdfrwt beam="2">  1       -2 0.27256465E-02 0.12508469E+03</pdfrwt>
<totfact> 0.13690358E+04</totfact>
</mgrwt>
</event>
<event>
 8    2  0.8128359E-004  0.1285004E+03  0.7818608E-02  0.1243861E+00
         -2   -1    0    0    0  501 -0.00000000000E+00  0.00000000000E+00  0.39065343382E+02  0.39065343465E+02  0.25500000000E-02 0. -1.
          2   -1    0    0  501    0  0.00000000000E+00 -0.00000000000E+00 -0.32323038253E+03  0.32323038254E+03  0.25500000000E-02 0.  1.
         25    2    1    2    0    0 -0.60910390052E+01  0.29153105057E+02 -0.16415550735E+03  0.20846913239E+03  0.12500137710E+03 0.  0.
         23    2    1    2    0    0  0.60910390052E+01 -0.29153105057E+02 -0.12000953180E+03  0.15382659362E+03  0.91505895382E+02 0.  0.
        -11    1    4    4    0    0  0.31810430462E+02 -0.89774617436E+01 -0.39934880848E+01  0.33293336463E+02  0.51100000000E-03 0. -1.
         11    1    4    4    0    0 -0.25719391457E+02 -0.20175643313E+02 -0.11601604372E+03  0.12053325715E+03  0.51100000000E-03 0.  1.
    9000005    1    3    3    0    0 -0.52778100667E+02  0.42707417632E+02 -0.49800274796E+02  0.84205218369E+02  0.10000000000E+01 0.  0.
    9000005    1    3    3    0    0  0.46687061661E+02 -0.13554312576E+02 -0.11435523255E+03  0.12426391402E+03  0.10000000000E+01 0.  0.
<mgrwt>
<rscale>  0 0.11953818E+03</rscale>
<asrwt>0</asrwt>
<pdfrwt beam="2">  1        2 0.49727749E-01 0.12850038E+03</pdfrwt>
<pdfrwt beam="1">  1       -2 0.60100531E-02 0.12850038E+03</pdfrwt>
<totfact> 0.13942158E+04</totfact>
</mgrwt>
</event>
<event>
 8    2  0.8128359E-004  0.1464002E+03  0.7818608E-02  0.1214923E+00
          2   -1    0    0  501    0  0.00000000000E+00  0.00000000000E+00  0.37009538006E+03  0.37009538007E+03  0.25500000000E-02 0. -1.
         -2   -1    0    0    0  501 -0.00000000000E+00 -0.00000000000E+00 -0.47756505467E+02  0.47756505535E+02  0.25500000000E-02 0.  1.
         25    2    1    2    0    0  0.64946235589E+02 -0.39865301839E+02  0.15896640774E+03  0.21610956668E+03  0.12500308081E+03 0.  0.
         23    2    1    2    0    0 -0.64946235589E+02  0.39865301839E+02  0.16337246686E+03  0.20174231893E+03  0.90565691688E+02 0.  0.
        -11    1    4    4    0    0  0.18849563221E+02 -0.21353860303E+00  0.74920839742E+01  0.20285042640E+02  0.51100000000E-03 0. -1.
         11    1    4    4    0    0 -0.83795798811E+02  0.40078840442E+02  0.15588038288E+03  0.18145727629E+03  0.51100000000E-03 0.  1.
    9000005    1    3    3    0    0  0.26509271402E+02  0.41846878223E+02  0.27655722441E+02  0.56742767565E+02  0.10000000000E+01 0.  0.
    9000005    1    3    3    0    0  0.38436964188E+02 -0.81712180062E+02  0.13131068530E+03  0.15936679912E+03  0.10000000000E+01 0.  0.
<mgrwt>
<rscale>  0 0.13882215E+03</rscale>
<asrwt>0</asrwt>
<pdfrwt beam="1">  1        2 0.56937751E-01 0.14640023E+03</pdfrwt>
<pdfrwt beam="2">  1       -2 0.73471546E-02 0.14640023E+03</pdfrwt>
<totfact> 0.89740586E+03</totfact>
</mgrwt>
</event>
<event>
 8    2  0.8128359E-004  0.1729526E+03  0.7818608E-02  0.1180687E+00
         -2   -1    0    0    0  501 -0.00000000000E+00  0.00000000000E+00  0.14266221735E+02  0.14266221962E+02  0.25500000000E-02 0.  1.
          2   -1    0    0  501    0  0.00000000000E+00 -0.00000000000E+00 -0.19789122732E+04  0.19789122732E+04  0.25500000000E-02 0. -1.
         25    2    1    2    0    0  0.57770267764E+02 -0.10464535145E+03 -0.78346990810E+03  0.80233266735E+03  0.12499823509E+03 0.  0.
         23    2    1    2    0    0 -0.57770267764E+02  0.10464535145E+03 -0.11811761433E+04  0.11908458278E+04  0.92998121252E+02 0.  0.
        -11    1    4    4    0    0 -0.47537421177E+02  0.88680848735E+02 -0.11497324836E+04  0.11541268921E+04  0.51100000000E-03 0. -1.
         11    1    4    4    0    0 -0.10232846587E+02  0.15964502715E+02 -0.31443659722E+02  0.36718935622E+02  0.51100000000E-03 0.  1.
    9000005    1    3    3    0    0  0.27251190299E+02 -0.12043089562E+03 -0.71643571451E+03  0.72699887277E+03  0.10000000000E+01 0.  0.
    9000005    1    3    3    0    0  0.30519077465E+02  0.15785544171E+02 -0.67034193592E+02  0.75333794572E+02  0.10000000000E+01 0.  0.
<mgrwt>
<rscale>  0 0.16730609E+03</rscale>
<asrwt>0</asrwt>
<pdfrwt beam="2">  1        2 0.30444782E+00 0.17295263E+03</pdfrwt>
<pdfrwt beam="1">  1       -2 0.21948049E-02 0.17295263E+03</pdfrwt>
<totfact> 0.51162368E+03</totfact>
</mgrwt>
</event>
<event>
 8    2  0.8128359E-004  0.2370503E+03  0.7818608E-02  0.1124622E+00
         -2   -1    0    0    0  501 -0.00000000000E+00  0.00000000000E+00  0.17268828036E+02  0.17268828225E+02  0.25500000000E-02 0.  1.
          2   -1    0    0  501    0  0.00000000000E+00 -0.00000000000E+00 -0.30475331020E+04  0.30475331020E+04  0.25500000000E-02 0. -1.
         25    2    1    2    0    0  0.19377465246E+03 -0.54944757434E+02 -0.14715855730E+04  0.14905559134E+04  0.12500116062E+03 0.  0.
         23    2    1    2    0    0 -0.19377465246E+03  0.54944757434E+02 -0.15586787010E+04  0.15742460168E+04  0.90574202639E+02 0.  0.
        -11    1    4    4    0    0 -0.77332830851E+02 -0.83838148706E+01 -0.82768747699E+03  0.83133459849E+03  0.51100000000E-03 0. -1.
         11    1    4    4    0    0 -0.11644182161E+03  0.63328572305E+02 -0.73099122397E+03  0.74291141828E+03  0.51100000000E-03 0.  1.
    9000005    1    3    3    0    0  0.11541124124E+02  0.93852927138E+01 -0.14800610688E+02  0.21008078021E+02  0.10000000000E+01 0.  0.
    9000005    1    3    3    0    0  0.18223352834E+03 -0.64330050148E+02 -0.14567849623E+04  0.14695478354E+04  0.10000000000E+01 0.  0.
<mgrwt>
<rscale>  0 0.23288998E+03</rscale>
<asrwt>0</asrwt>
<pdfrwt beam="2">  1        2 0.46885082E+00 0.23705027E+03</pdfrwt>
<pdfrwt beam="1">  1       -2 0.26567452E-02 0.23705027E+03</pdfrwt>
<totfact> 0.99737614E+02</totfact>
</mgrwt>
</event>
<event>
 8    2  0.8128359E-004  0.1319067E+03  0.7818608E-02  0.1239845E+00
          2   -1    0    0  501    0  0.00000000000E+00  0.00000000000E+00  0.91190242319E+03  0.91190242319E+03  0.25500000000E-02 0.  1.
         -2   -1    0    0    0  501 -0.00000000000E+00 -0.00000000000E+00 -0.25975849906E+02  0.25975850031E+02  0.25500000000E-02 0. -1.
         25    2    1    2    0    0  0.41120900248E+02 -0.90813283486E+01  0.79304269200E+03  0.80393786065E+03  0.12500389391E+03 0.  0.
         23    2    1    2    0    0 -0.41120900248E+02  0.90813283486E+01  0.92883881282E+02  0.13394041257E+03  0.86828680491E+02 0.  0.
        -11    1    4    4    0    0 -0.43824412910E+02  0.43410201337E+02  0.53794438882E+02  0.81846602873E+02  0.51100000000E-03 0. -1.
         11    1    4    4    0    0  0.27035126628E+01 -0.34328872988E+02  0.39089442400E+02  0.52093809697E+02  0.51100000000E-03 0.  1.
    9000005    1    3    3    0    0  0.82804488660E+02  0.18729674924E+01  0.39656721259E+03  0.40512546878E+03  0.10000000000E+01 0.  0.
    9000005    1    3    3    0    0 -0.41683588412E+02 -0.10954295841E+02  0.39647547941E+03  0.39881239187E+03  0.10000000000E+01 0.  0.
<mgrwt>
<rscale>  0 0.12199276E+03</rscale>
<asrwt>0</asrwt>
<pdfrwt beam="1">  1        2 0.14029266E+00 0.13190668E+03</pdfrwt>
<pdfrwt beam="2">  1       -2 0.39962851E-02 0.13190668E+03</pdfrwt>
<totfact> 0.79267752E+03</totfact>
</mgrwt>
</event>
<event>
 8    2  0.8128359E-004  0.1263820E+03  0.7818608E-02  0.1247098E+00
          2   -1    0    0  501    0  0.00000000000E+00  0.00000000000E+00  0.36339081577E+04  0.36339081577E+04  0.25500000000E-02 0. -1.
         -2   -1    0    0    0  501 -0.00000000000E+00 -0.00000000000E+00 -0.33706131501E+01  0.33706141147E+01  0.25500000000E-02 0.  1.
         25    2    1    2    0    0  0.84905097455E+01 -0.16566097842E+02  0.21495874897E+04  0.21532995135E+04  0.12500357902E+03 0.  0.
         23    2    1    2    0    0 -0.84905097455E+01  0.16566097842E+02  0.14809500548E+04  0.14839792582E+04  0.92923891916E+02 0.  0.
        -11    1    4    4    0    0 -0.66884223807E+01 -0.91724245711E+01  0.13708257394E+04  0.13708727425E+04  0.51100000000E-03 0. -1.
         11    1    4    4    0    0 -0.18020873648E+01  0.25738522413E+02  0.11012431545E+03  0.11310651576E+03  0.51100000000E-03 0.  1.
    9000005    1    3    3    0    0  0.61549196226E+02 -0.31553643299E+02  0.13847835104E+04  0.13865101177E+04  0.10000000000E+01 0.  0.
    9000005    1    3    3    0    0 -0.53058686480E+02  0.14987545457E+02  0.76480397933E+03  0.76678939582E+03  0.10000000000E+01 0.  0.
<mgrwt>
<rscale>  0 0.11760664E+03</rscale>
<asrwt>0</asrwt>
<pdfrwt beam="1">  1        2 0.55906079E+00 0.12638204E+03</pdfrwt>
<pdfrwt beam="2">  1       -2 0.51855781E-03 0.12638204E+03</pdfrwt>
<totfact> 0.46183669E+03</totfact>
</mgrwt>
</event>
<event>
 8    2  0.8128359E-004  0.1412037E+03  0.7818608E-02  0.1222647E+00
         -2   -1    0    0    0  501 -0.00000000000E+00  0.00000000000E+00  0.38723270082E+03  0.38723270083E+03  0.25500000000E-02 0.  1.
          2   -1    0    0  501    0  0.00000000000E+00 -0.00000000000E+00 -0.41456726471E+02  0.41456726549E+02  0.25500000000E-02 0. -1.
         25    2    1    2    0    0 -0.65603499587E+02  0.25243767937E+01  0.18763403899E+03  0.23482979090E+03  0.12501322519E+03 0.  0.
         23    2    1    2    0    0  0.65603499587E+02 -0.25243767937E+01  0.15814193537E+03  0.19385963648E+03  0.90898268948E+02 0.  0.
        -11    1    4    4    0    0  0.68319160076E+02 -0.16270663550E+02  0.53506960059E+02  0.88290638807E+02  0.51100000000E-03 0. -1.
         11    1    4    4    0    0 -0.27156604894E+01  0.13746286756E+02  0.10463497531E+03  0.10556899767E+03  0.51100000000E-03 0.  1.
    9000005    1    3    3    0    0 -0.85881345948E+02  0.24282728448E+02  0.18443833619E+03  0.20489938102E+03  0.10000000000E+01 0.  0.
    9000005    1    3    3    0    0  0.20277846361E+02 -0.21758351654E+02  0.31957027937E+01  0.29930409888E+02  0.10000000000E+01 0.  0.
<mgrwt>
<rscale>  0 0.13329479E+03</rscale>
<asrwt>0</asrwt>
<pdfrwt beam="2">  1        2 0.63779580E-02 0.14120375E+03</pdfrwt>
<pdfrwt beam="1">  1       -2 0.59574261E-01 0.14120375E+03</pdfrwt>
<totfact> 0.29377496E+03</totfact>
</mgrwt>
</event>
<event>
 8    2  0.8128359E-004  0.1328330E+03  0.7818608E-02  0.1236342E+00
         -2   -1    0    0    0  501 -0.00000000000E+00  0.00000000000E+00  0.65989630844E+03  0.65989630844E+03  0.25500000000E-02 0.  1.
          2   -1    0    0  501    0  0.00000000000E+00 -0.00000000000E+00 -0.26047859092E+02  0.26047859217E+02  0.25500000000E-02 0. -1.
         25    2    1    2    0    0 -0.37268794805E+02 -0.25118924227E+02  0.19795480229E+03  0.23839193956E+03  0.12499875871E+03 0.  0.
         23    2    1    2    0    0  0.37268794805E+02  0.25118924227E+02  0.43589364706E+03  0.44755222810E+03  0.90993416849E+02 0.  0.
        -11    1    4    4    0    0 -0.28409170507E+01  0.46290089438E+02  0.31566125153E+03  0.31904994735E+03  0.51100000000E-03 0.  1.
         11    1    4    4    0    0  0.40109711855E+02 -0.21171165210E+02  0.12023239553E+03  0.12850228074E+03  0.51100000000E-03 0. -1.
    9000005    1    3    3    0    0  0.95778423383E-01 -0.43987685068E+02  0.90729131787E+01  0.44924863546E+02  0.10000000000E+01 0.  0.
    9000005    1    3    3    0    0 -0.37364573228E+02  0.18868760840E+02  0.18888188911E+03  0.19346707601E+03  0.10000000000E+01 0.  0.
<mgrwt>
<rscale>  0 0.12418889E+03</rscale>
<asrwt>0</asrwt>
<pdfrwt beam="2">  1        2 0.40073633E-02 0.13283303E+03</pdfrwt>
<pdfrwt beam="1">  1       -2 0.10152250E+00 0.13283303E+03</pdfrwt>
<totfact> 0.16820798E+03</totfact>
</mgrwt>
</event>
<event>
 8    2  0.8128359E-004  0.1936078E+03  0.7818608E-02  0.1159758E+00
          2   -1    0    0  501    0  0.00000000000E+00  0.00000000000E+00  0.38914166216E+03  0.38914166217E+03  0.25500000000E-02 0. -1.
         -2   -1    0    0    0  501 -0.00000000000E+00 -0.00000000000E+00 -0.93516691387E+02  0.93516691422E+02  0.25500000000E-02 0.  1.
         25    2    1    2    0    0 -0.32475202928E+01  0.14781197065E+03  0.91059792351E+02  0.21395296460E+03  0.12500024088E+03 0.  0.
         23    2    1    2    0    0  0.32475202928E+01 -0.14781197065E+03  0.20456517842E+03  0.26870538899E+03  0.92177810748E+02 0.  0.
        -11    1    4    4    0    0 -0.31340763837E+02 -0.97949190838E+02  0.80524456490E+02  0.13061575539E+03  0.51100000000E-03 0. -1.
         11    1    4    4    0    0  0.34588284129E+02 -0.49862779815E+02  0.12404072193E+03  0.13808963360E+03  0.51100000000E-03 0.  1.
    9000005    1    3    3    0    0 -0.47064467271E+02  0.10575419124E+02  0.33877978779E+02  0.58954397761E+02  0.10000000000E+01 0.  0.
    9000005    1    3    3    0    0  0.43816946978E+02  0.13723655153E+03  0.57181813572E+02  0.15499856684E+03  0.10000000000E+01 0.  0.
<mgrwt>
<rscale>  0 0.18856980E+03</rscale>
<asrwt>0</asrwt>
<pdfrwt beam="1">  1        2 0.59867948E-01 0.19360781E+03</pdfrwt>
<pdfrwt beam="2">  1       -2 0.14387183E-01 0.19360781E+03</pdfrwt>
<totfact> 0.29738183E+03</totfact>
</mgrwt>
</event>
<event>
 8    2  0.8128359E-004  0.1722489E+03  0.7818608E-02  0.1181554E+00
          2   -1    0    0  501    0  0.00000000000E+00  0.00000000000E+00  0.60667349458E+02  0.60667349512E+02  0.25500000000E-02 0. -1.
         -2   -1    0    0    0  501 -0.00000000000E+00 -0.00000000000E+00 -0.51374533952E+03  0.51374533952E+03  0.25500000000E-02 0.  1.
         25    2    1    2    0    0  0.11726891256E+03  0.17106228755E+02 -0.12286369924E+03  0.21157778522E+03  0.12500019877E+03 0.  0.
         23    2    1    2    0    0 -0.11726891256E+03 -0.17106228755E+02 -0.33021429082E+03  0.36283490382E+03  0.92536850223E+02 0.  0.
        -11    1    4    4    0    0 -0.40945138454E+02  0.32564286924E+02 -0.71747040904E+02  0.88795129509E+02  0.51100000000E-03 0. -1.
         11    1    4    4    0    0 -0.76323774104E+02 -0.49670515679E+02 -0.25846724992E+03  0.27403977431E+03  0.51100000000E-03 0.  1.
    9000005    1    3    3    0    0  0.54398009484E+02 -0.54380439529E+02 -0.58823399410E+02  0.96837843622E+02  0.10000000000E+01 0.  0.
    9000005    1    3    3    0    0  0.62870903074E+02  0.71486668284E+02 -0.64040299826E+02  0.11473994160E+03  0.10000000000E+01 0.  0.
<mgrwt>
<rscale>  0 0.16649427E+03</rscale>
<asrwt>0</asrwt>
<pdfrwt beam="1">  1        2 0.93334387E-02 0.17224886E+03</pdfrwt>
<pdfrwt beam="2">  1       -2 0.79037742E-01 0.17224886E+03</pdfrwt>
<totfact> 0.10067332E+03</totfact>
</mgrwt>
</event>
<event>
 8    2  0.8128359E-004  0.1984281E+03  0.7818608E-02  0.1155450E+00
          2   -1    0    0  501    0  0.00000000000E+00  0.00000000000E+00  0.11233004007E+04  0.11233004007E+04  0.25500000000E-02 0. -1.
         -2   -1    0    0    0  501 -0.00000000000E+00 -0.00000000000E+00 -0.32107532746E+02  0.32107532847E+02  0.25500000000E-02 0.  1.
         25    2    1    2    0    0 -0.14055165566E+03 -0.63193380678E+02  0.63825691269E+03  0.66839029341E+03  0.12500210583E+03 0.  0.
         23    2    1    2    0    0  0.14055165566E+03  0.63193380678E+02  0.45293595523E+03  0.48701764011E+03  0.91033131124E+02 0.  0.
        -11    1    4    4    0    0  0.90323959442E+02  0.46541045428E+02  0.16141904194E+03  0.19073697507E+03  0.51100000000E-03 0.  1.
         11    1    4    4    0    0  0.50227696216E+02  0.16652335250E+02  0.29151691330E+03  0.29628066504E+03  0.51100000000E-03 0. -1.
    9000005    1    3    3    0    0 -0.10992246764E+03  0.14481543617E+02  0.42878652865E+03  0.44288999893E+03  0.10000000000E+01 0.  0.
    9000005    1    3    3    0    0 -0.30629188015E+02 -0.77674924295E+02  0.20947038403E+03  0.22550029448E+03  0.10000000000E+01 0.  0.
<mgrwt>
<rscale>  0 0.19337742E+03</rscale>
<asrwt>0</asrwt>
<pdfrwt beam="1">  1        2 0.17281544E+00 0.19842807E+03</pdfrwt>
<pdfrwt beam="2">  1       -2 0.49396207E-02 0.19842807E+03</pdfrwt>
<totfact> 0.43780474E+03</totfact>
</mgrwt>
</event>
<event>
 8    2  0.8128359E-004  0.1611853E+03  0.7818608E-02  0.1194871E+00
         -2   -1    0    0    0  501 -0.00000000000E+00  0.00000000000E+00  0.68340271148E+01  0.68340275905E+01  0.25500000000E-02 0.  1.
          2   -1    0    0  501    0  0.00000000000E+00 -0.00000000000E+00 -0.33620169383E+04  0.33620169383E+04  0.25500000000E-02 0. -1.
         25    2    1    2    0    0 -0.66887105240E+02 -0.76692761002E+02 -0.14964908185E+04  0.15051463235E+04  0.12500008347E+03 0.  0.
         23    2    1    2    0    0  0.66887105240E+02  0.76692761002E+02 -0.18586920927E+04  0.18637046424E+04  0.91120986631E+02 0.  0.
        -11    1    4    4    0    0  0.10459605074E+02  0.29632953740E+02 -0.12775027002E+04  0.12778891440E+04  0.51100000000E-03 0. -1.
         11    1    4    4    0    0  0.56427500166E+02  0.47059807262E+02 -0.58118939250E+03  0.58581549842E+03  0.51100000000E-03 0.  1.
    9000005    1    3    3    0    0 -0.63449935168E+02 -0.92565757884E+02 -0.73832765374E+03  0.74680856857E+03  0.10000000000E+01 0.  0.
    9000005    1    3    3    0    0 -0.34371700727E+01  0.15872996882E+02 -0.75816316473E+03  0.75833775491E+03  0.10000000000E+01 0.  0.
<mgrwt>
<rscale>  0 0.15465150E+03</rscale>
<asrwt>0</asrwt>
<pdfrwt beam="2">  1        2 0.51723205E+00 0.16118525E+03</pdfrwt>
<pdfrwt beam="1">  1       -2 0.10513915E-02 0.16118525E+03</pdfrwt>
<totfact> 0.25158150E+03</totfact>
</mgrwt>
</event>
<event>
 8    2  0.8128359E-004  0.1268774E+03  0.7818608E-02  0.1247317E+00
         -2   -1    0    0    0  501 -0.00000000000E+00  0.00000000000E+00  0.59204728877E+03  0.59204728877E+03  0.25500000000E-02 0.  1.
          2   -1    0    0  501    0  0.00000000000E+00 -0.00000000000E+00 -0.20639814839E+02  0.20639814997E+02  0.25500000000E-02 0. -1.
         25    2    1    2    0    0  0.10214945546E+02 -0.19234923924E+02  0.30087272307E+03  0.32653066312E+03  0.12499420412E+03 0.  0.
         23    2    1    2    0    0 -0.10214945546E+02  0.19234923924E+02  0.27053475086E+03  0.28615644065E+03  0.90675959811E+02 0.  0.
        -11    1    4    4    0    0 -0.28879158983E+02  0.49566399350E+02  0.17740444225E+03  0.18644883990E+03  0.51100000000E-03 0. -1.
         11    1    4    4    0    0  0.18664213436E+02 -0.30331475426E+02  0.93130308608E+02  0.99707600746E+02  0.51100000000E-03 0.  1.
    9000005    1    3    3    0    0  0.61047767006E+02  0.58679215073E+01  0.95721090713E+02  0.11368724452E+03  0.10000000000E+01 0.  0.
    9000005    1    3    3    0    0 -0.50832821460E+02 -0.25102845431E+02  0.20515163235E+03  0.21284341860E+03  0.10000000000E+01 0.  0.
<mgrwt>
<rscale>  0 0.11747786E+03</rscale>
<asrwt>0</asrwt>
<pdfrwt beam="2">  1        2 0.31753558E-02 0.12687742E+03</pdfrwt>
<pdfrwt beam="1">  1       -2 0.91084209E-01 0.12687742E+03</pdfrwt>
<totfact> 0.29262268E+03</totfact>
</mgrwt>
</event>
<event>
 8    2  0.8128359E-004  0.1263397E+03  0.7818608E-02  0.1247967E+00
         -2   -1    0    0    0  501 -0.00000000000E+00  0.00000000000E+00  0.72162021187E+01  0.72162025693E+01  0.25500000000E-02 0.  1.
          2   -1    0    0  501    0  0.00000000000E+00 -0.00000000000E+00 -0.17023824014E+04  0.17023824014E+04  0.25500000000E-02 0. -1.
         25    2    1    2    0    0  0.17319071192E+02  0.65005240706E+01 -0.85674974016E+03  0.86601491126E+03  0.12497800696E+03 0.  0.
         23    2    1    2    0    0 -0.17319071192E+02 -0.65005240706E+01 -0.83841645909E+03  0.84358369268E+03  0.91373303752E+02 0.  0.
        -11    1    4    4    0    0  0.36798167403E+01 -0.35254263137E+02 -0.69174049398E+03  0.69264804564E+03  0.51100000000E-03 0. -1.
         11    1    4    4    0    0 -0.20998887932E+02  0.28753739067E+02 -0.14667596511E+03  0.15093564704E+03  0.51100000000E-03 0.  1.
    9000005    1    3    3    0    0 -0.32608066874E+02 -0.16075039159E+02 -0.67981814986E+03  0.68079028326E+03  0.10000000000E+01 0.  0.
    9000005    1    3    3    0    0  0.49927138066E+02  0.22575563230E+02 -0.17693159030E+03  0.18522462800E+03  0.10000000000E+01 0.  0.
<mgrwt>
<rscale>  0 0.11709552E+03</rscale>
<asrwt>0</asrwt>
<pdfrwt beam="2">  1        2 0.26190466E+00 0.12633966E+03</pdfrwt>
<pdfrwt beam="1">  1       -2 0.11101863E-02 0.12633966E+03</pdfrwt>
<totfact> 0.18814927E+04</totfact>
</mgrwt>
</event>
<event>
 8    2  0.8128359E-004  0.1548045E+03  0.7818608E-02  0.1202974E+00
          2   -1    0    0  501    0  0.00000000000E+00  0.00000000000E+00  0.20335435584E+03  0.20335435586E+03  0.25500000000E-02 0. -1.
         -2   -1    0    0    0  501 -0.00000000000E+00 -0.00000000000E+00 -0.12759933909E+03  0.12759933911E+03  0.25500000000E-02 0.  1.
         25    2    1    2    0    0  0.90187632307E+02 -0.14371338358E+02  0.11833649196E+03  0.19485372019E+03  0.12499641017E+03 0.  0.
         23    2    1    2    0    0 -0.90187632307E+02  0.14371338358E+02 -0.42581475207E+02  0.13609997477E+03  0.91485937256E+02 0.  0.
        -11    1    4    4    0    0 -0.53260679398E+02  0.49737113703E+02 -0.43673046945E+02  0.84957727601E+02  0.51100000000E-03 0.  1.
         11    1    4    4    0    0 -0.36926952909E+02 -0.35365775345E+02  0.10915717376E+01  0.51142247174E+02  0.51100000000E-03 0. -1.
    9000005    1    3    3    0    0  0.18153389835E+02  0.34373552828E+02  0.98131550414E+02  0.10555514143E+03  0.10000000000E+01 0.  0.
    9000005    1    3    3    0    0  0.72034242472E+02 -0.48744891186E+02  0.20204941546E+02  0.89298578758E+02  0.10000000000E+01 0.  0.
<mgrwt>
<rscale>  0 0.14798234E+03</rscale>
<asrwt>0</asrwt>
<pdfrwt beam="1">  1        2 0.31285285E-01 0.15480454E+03</pdfrwt>
<pdfrwt beam="2">  1       -2 0.19630668E-01 0.15480454E+03</pdfrwt>
<totfact> 0.35232768E+03</totfact>
</mgrwt>
</event>
<event>
 8    2  0.8128359E-004  0.2325494E+03  0.7818608E-02  0.1126944E+00
          2   -1    0    0  501    0  0.00000000000E+00  0.00000000000E+00  0.11638766843E+04  0.11638766843E+04  0.25500000000E-02 0. -1.
         -2   -1    0    0    0  501 -0.00000000000E+00 -0.00000000000E+00 -0.48740892868E+02  0.48740892935E+02  0.25500000000E-02 0.  1.
         25    2    1    2    0    0  0.16448214112E+03  0.10677281874E+03  0.75649209375E+03  0.79142878263E+03  0.12499768198E+03 0.  0.
         23    2    1    2    0    0 -0.16448214112E+03 -0.10677281874E+03  0.35864369772E+03  0.42118879464E+03  0.10158685569E+03 0.  0.
        -11    1    4    4    0    0 -0.12786426283E+03 -0.11699261587E+03  0.23608921251E+03  0.29287310928E+03  0.51100000000E-03 0.  1.
         11    1    4    4    0    0 -0.36617878293E+02  0.10219797131E+02  0.12255448521E+03  0.12831568536E+03  0.51100000000E-03 0. -1.
    9000005    1    3    3    0    0  0.45697602930E+02  0.10316752082E+03  0.40262906104E+03  0.41814228327E+03  0.10000000000E+01 0.  0.
    9000005    1    3    3    0    0  0.11878453819E+03  0.36052979268E+01  0.35386303271E+03  0.37328649936E+03  0.10000000000E+01 0.  0.
<mgrwt>
<rscale>  0 0.22956769E+03</rscale>
<asrwt>0</asrwt>
<pdfrwt beam="1">  1        2 0.17905794E+00 0.23254941E+03</pdfrwt>
<pdfrwt beam="2">  1       -2 0.74985994E-02 0.23254941E+03</pdfrwt>
<totfact> 0.21913815E+03</totfact>
</mgrwt>
</event>
<event>
 8    2  0.8128359E-004  0.1271003E+03  0.7818608E-02  0.1246513E+00
         -2   -1    0    0    0  501 -0.00000000000E+00  0.00000000000E+00  0.82130995889E+01  0.82130999847E+01  0.25500000000E-02 0.  1.
          2   -1    0    0  501    0  0.00000000000E+00 -0.00000000000E+00 -0.19315187218E+04  0.19315187218E+04  0.25500000000E-02 0. -1.
         25    2    1    2    0    0 -0.12398713415E+00 -0.23061660665E+02 -0.61293337719E+03  0.62597269484E+03  0.12499053661E+03 0.  0.
         23    2    1    2    0    0  0.12398713415E+00  0.23061660665E+02 -0.13103722450E+04  0.13137591270E+04  0.91409887624E+02 0.  0.
        -11    1    4    4    0    0  0.25474001156E+02  0.82387702091E+01 -0.11694140559E+03  0.11996705553E+03  0.51100000000E-03 0.  1.
         11    1    4    4    0    0 -0.25350014022E+02  0.14822890456E+02 -0.11934308395E+04  0.11937920714E+04  0.51100000000E-03 0. -1.
    9000005    1    3    3    0    0 -0.11231886883E+02  0.50612605546E+02 -0.28517369050E+03  0.28984965909E+03  0.10000000000E+01 0.  0.
    9000005    1    3    3    0    0  0.11107899749E+02 -0.73674266211E+02 -0.32775968669E+03  0.33612303574E+03  0.10000000000E+01 0.  0.
<mgrwt>
<rscale>  0 0.11795278E+03</rscale>
<asrwt>0</asrwt>
<pdfrwt beam="2">  1        2 0.29715636E+00 0.12710031E+03</pdfrwt>
<pdfrwt beam="1">  1       -2 0.12635554E-02 0.12710031E+03</pdfrwt>
<totfact> 0.11951140E+04</totfact>
</mgrwt>
</event>
<event>
 8    2  0.8128359E-004  0.2166671E+03  0.7818608E-02  0.1139713E+00
         -2   -1    0    0    0  501 -0.00000000000E+00  0.00000000000E+00  0.18700389611E+03  0.18700389613E+03  0.25500000000E-02 0.  1.
          2   -1    0    0  501    0  0.00000000000E+00 -0.00000000000E+00 -0.23966016115E+03  0.23966016117E+03  0.25500000000E-02 0. -1.
         25    2    1    2    0    0 -0.55457826408E+02  0.16805959865E+03 -0.65402445855E+02  0.22632303060E+03  0.12500014019E+03 0.  0.
         23    2    1    2    0    0  0.55457826408E+02 -0.16805959865E+03  0.12746180813E+02  0.20034102669E+03  0.93029364402E+02 0.  0.
        -11    1    4    4    0    0 -0.94268959078E+01 -0.11163536020E+02  0.26227892042E+02  0.30023211423E+02  0.51100000000E-03 0.  1.
         11    1    4    4    0    0  0.64884722316E+02 -0.15689606263E+03 -0.13481711229E+02  0.17031781527E+03  0.51100000000E-03 0. -1.
    9000005    1    3    3    0    0 -0.82838869577E+02  0.11480893477E+03 -0.55977195489E+01  0.14168875848E+03  0.10000000000E+01 0.  0.
    9000005    1    3    3    0    0  0.27381043169E+02  0.53250663880E+02 -0.59804726306E+02  0.84634272120E+02  0.10000000000E+01 0.  0.
<mgrwt>
<rscale>  0 0.21235721E+03</rscale>
<asrwt>0</asrwt>
<pdfrwt beam="2">  1        2 0.36870794E-01 0.21666710E+03</pdfrwt>
<pdfrwt beam="1">  1       -2 0.28769830E-01 0.21666710E+03</pdfrwt>
<totfact> 0.15321838E+03</totfact>
</mgrwt>
</event>
<event>
 8    2  0.8128359E-004  0.1302375E+03  0.7818608E-02  0.1240697E+00
         -2   -1    0    0    0  501 -0.00000000000E+00  0.00000000000E+00  0.13985276910E+03  0.13985276912E+03  0.25500000000E-02 0.  1.
          2   -1    0    0  501    0  0.00000000000E+00 -0.00000000000E+00 -0.96893813883E+02  0.96893813917E+02  0.25500000000E-02 0. -1.
         25    2    1    2    0    0 -0.35510328696E+02 -0.86297308226E+01  0.46097086552E+02  0.13815477454E+03  0.12500537845E+03 0.  0.
         23    2    1    2    0    0  0.35510328696E+02  0.86297308226E+01 -0.31381313354E+01  0.98591808501E+02  0.91515250844E+02 0.  0.
        -11    1    4    4    0    0  0.31106467102E+02  0.39590874292E+02 -0.28918047867E+02  0.58062923759E+02  0.51100000000E-03 0. -1.
         11    1    4    4    0    0  0.44038615947E+01 -0.30961143469E+02  0.25779916532E+02  0.40528884743E+02  0.51100000000E-03 0.  1.
    9000005    1    3    3    0    0 -0.30535874119E+02  0.42166289384E+02  0.65382880406E+02  0.83584428088E+02  0.10000000000E+01 0.  0.
    9000005    1    3    3    0    0 -0.49744545773E+01 -0.50796020207E+02 -0.19285793853E+02  0.54570346451E+02  0.10000000000E+01 0.  0.
<mgrwt>
<rscale>  0 0.12146668E+03</rscale>
<asrwt>0</asrwt>
<pdfrwt beam="2">  1        2 0.14906741E-01 0.13023748E+03</pdfrwt>
<pdfrwt beam="1">  1       -2 0.21515811E-01 0.13023748E+03</pdfrwt>
<totfact> 0.68612499E+03</totfact>
</mgrwt>
</event>
<event>
 8    2  0.8128359E-004  0.1268474E+03  0.7818608E-02  0.1248527E+00
          2   -1    0    0  501    0  0.00000000000E+00  0.00000000000E+00  0.13764274533E+04  0.13764274533E+04  0.25500000000E-02 0. -1.
         -2   -1    0    0    0  501 -0.00000000000E+00 -0.00000000000E+00 -0.10188898072E+02  0.10188898391E+02  0.25500000000E-02 0.  1.
         25    2    1    2    0    0 -0.11906643407E+01  0.21543927970E+02  0.50963500988E+03  0.52518387638E+03  0.12499880878E+03 0.  0.
         23    2    1    2    0    0  0.11906643407E+01 -0.21543927970E+02  0.85660354534E+03  0.86143247531E+03  0.88491339199E+02 0.  0.
        -11    1    4    4    0    0 -0.30273797805E+02 -0.41798335117E+02  0.58336313180E+03  0.58564165426E+03  0.51100000000E-03 0. -1.
         11    1    4    4    0    0  0.31464462145E+02  0.20254407146E+02  0.27324041354E+03  0.27579082106E+03  0.51100000000E-03 0.  1.
    9000005    1    3    3    0    0  0.42857948197E+02  0.54101794063E+02  0.33948952651E+03  0.34643606402E+03  0.10000000000E+01 0.  0.
    9000005    1    3    3    0    0 -0.44048612538E+02 -0.32557866093E+02  0.17014548337E+03  0.17874781236E+03  0.10000000000E+01 0.  0.
<mgrwt>
<rscale>  0 0.11676738E+03</rscale>
<asrwt>0</asrwt>
<pdfrwt beam="1">  1        2 0.21175811E+00 0.12684739E+03</pdfrwt>
<pdfrwt beam="2">  1       -2 0.15675225E-02 0.12684739E+03</pdfrwt>
<totfact> 0.16916822E+04</totfact>
</mgrwt>
</event>
<event>
 8    2  0.8128359E-004  0.2446970E+03  0.7818608E-02  0.1119235E+00
         -2   -1    0    0    0  501 -0.00000000000E+00  0.00000000000E+00  0.39110636648E+02  0.39110636731E+02  0.25500000000E-02 0.  1.
          2   -1    0    0  501    0  0.00000000000E+00 -0.00000000000E+00 -0.14483408545E+04  0.14483408545E+04  0.25500000000E-02 0. -1.
         25    2    1    2    0    0 -0.20965941905E+03 -0.17162324232E+02 -0.78928308034E+03  0.82634398475E+03  0.12499993144E+03 0.  0.
         23    2    1    2    0    0  0.20965941905E+03  0.17162324232E+02 -0.61994713750E+03  0.66110750646E+03  0.92070975039E+02 0.  0.
        -11    1    4    4    0    0  0.10327175544E+03  0.24790250647E+02 -0.18543264305E+03  0.21369341849E+03  0.51100000000E-03 0. -1.
         11    1    4    4    0    0  0.10638766361E+03 -0.76279264152E+01 -0.43451449445E+03  0.44741408797E+03  0.51100000000E-03 0.  1.
    9000005    1    3    3    0    0 -0.17054177355E+03  0.98779031553E+01 -0.41109464895E+03  0.44517623465E+03  0.10000000000E+01 0.  0.
    9000005    1    3    3    0    0 -0.39117645497E+02 -0.27040227387E+02 -0.37818843138E+03  0.38116775010E+03  0.10000000000E+01 0.  0.
<mgrwt>
<rscale>  0 0.24083926E+03</rscale>
<asrwt>0</asrwt>
<pdfrwt beam="2">  1        2 0.22282163E+00 0.24469696E+03</pdfrwt>
<pdfrwt beam="1">  1       -2 0.60170222E-02 0.24469696E+03</pdfrwt>
<totfact> 0.21446954E+03</totfact>
</mgrwt>
</event>
<event>
 8    2  0.8128359E-004  0.1290764E+03  0.7818608E-02  0.1243306E+00
          2   -1    0    0  501    0  0.00000000000E+00  0.00000000000E+00  0.15708633712E+04  0.15708633712E+04  0.25500000000E-02 0. -1.
         -2   -1    0    0    0  501 -0.00000000000E+00 -0.00000000000E+00 -0.10166000112E+02  0.10166000432E+02  0.25500000000E-02 0.  1.
         25    2    1    2    0    0  0.13203079236E+02  0.29363564147E+02  0.51485225876E+03  0.53078580631E+03  0.12499673447E+03 0.  0.
         23    2    1    2    0    0 -0.13203079236E+02 -0.29363564147E+02  0.10458451123E+04  0.10502435653E+04  0.90459976382E+02 0.  0.
        -11    1    4    4    0    0  0.21114807676E+02 -0.38155112901E+02  0.26247835438E+03  0.26607618132E+03  0.51100000000E-03 0.  1.
         11    1    4    4    0    0 -0.34317886912E+02  0.87915487541E+01  0.78336675793E+03  0.78416738399E+03  0.51100000000E-03 0. -1.
    9000005    1    3    3    0    0 -0.52878777964E+02  0.33803620627E+02  0.24178550823E+03  0.24980008390E+03  0.10000000000E+01 0.  0.
    9000005    1    3    3    0    0  0.66081857200E+02 -0.44400564801E+01  0.27306675053E+03  0.28098572241E+03  0.10000000000E+01 0.  0.
<mgrwt>
<rscale>  0 0.11987370E+03</rscale>
<asrwt>0</asrwt>
<pdfrwt beam="1">  1        2 0.24167149E+00 0.12907643E+03</pdfrwt>
<pdfrwt beam="2">  1       -2 0.15639987E-02 0.12907643E+03</pdfrwt>
<totfact> 0.13450354E+04</totfact>
</mgrwt>
</event>
<event>
 8    2  0.8128359E-004  0.2791728E+03  0.7818608E-02  0.1098022E+00
          2   -1    0    0  501    0  0.00000000000E+00  0.00000000000E+00  0.10421423949E+04  0.10421423949E+04  0.25500000000E-02 0. -1.
         -2   -1    0    0    0  501 -0.00000000000E+00 -0.00000000000E+00 -0.71398718496E+02  0.71398718541E+02  0.25500000000E-02 0.  1.
         25    2    1    2    0    0 -0.22111968920E+03 -0.11583424967E+03  0.52284104425E+03  0.59270586016E+03  0.12500395500E+03 0.  0.
         23    2    1    2    0    0  0.22111968920E+03  0.11583424967E+03  0.44790263213E+03  0.52083525326E+03  0.91329638239E+02 0.  0.
        -11    1    4    4    0    0  0.11431672637E+03  0.10465684378E+03  0.22250743017E+03  0.27116586318E+03  0.51100000000E-03 0. -1.
         11    1    4    4    0    0  0.10680296283E+03  0.11177405891E+02  0.22539520196E+03  0.24966939007E+03  0.51100000000E-03 0.  1.
    9000005    1    3    3    0    0 -0.11909333018E+03 -0.75073182548E+02  0.41709076953E+03  0.44021007946E+03  0.10000000000E+01 0.  0.
    9000005    1    3    3    0    0 -0.10202635902E+03 -0.40761067120E+02  0.10575027472E+03  0.15249578070E+03  0.10000000000E+01 0.  0.
<mgrwt>
<rscale>  0 0.27576929E+03</rscale>
<asrwt>0</asrwt>
<pdfrwt beam="1">  1        2 0.16032959E+00 0.27917285E+03</pdfrwt>
<pdfrwt beam="2">  1       -2 0.10984419E-01 0.27917285E+03</pdfrwt>
<totfact> 0.14123124E+03</totfact>
</mgrwt>
</event>
<event>
 8    2  0.8128359E-004  0.1256766E+03  0.7818608E-02  0.1242417E+00
         -2   -1    0    0    0  501 -0.00000000000E+00  0.00000000000E+00  0.16134909068E+02  0.16134909270E+02  0.25500000000E-02 0.  1.
          2   -1    0    0  501    0  0.00000000000E+00 -0.00000000000E+00 -0.83127740936E+03  0.83127740936E+03  0.25500000000E-02 0. -1.
         25    2    1    2    0    0  0.12828261547E+02 -0.22618348830E+01 -0.45028704355E+03  0.46749656852E+03  0.12499975921E+03 0.  0.
         23    2    1    2    0    0 -0.12828261547E+02  0.22618348830E+01 -0.36485545674E+03  0.37991575011E+03  0.10510372341E+03 0.  0.
        -11    1    4    4    0    0 -0.31785010499E+02 -0.19973004299E+01 -0.35784645681E+03  0.35926085614E+03  0.51100000000E-03 0. -1.
         11    1    4    4    0    0  0.18956748952E+02  0.42591353129E+01 -0.70089999264E+01  0.20654893965E+02  0.51100000000E-03 0.  1.
    9000005    1    3    3    0    0  0.57816325388E+02  0.10594242456E+02 -0.36938297344E+03  0.37403174534E+03  0.10000000000E+01 0.  0.
    9000005    1    3    3    0    0 -0.44988063841E+02 -0.12856077339E+02 -0.80904070107E+02  0.93464823183E+02  0.10000000000E+01 0.  0.
<mgrwt>
<rscale>  0 0.12041289E+03</rscale>
<asrwt>0</asrwt>
<pdfrwt beam="2">  1        2 0.12788880E+00 0.12567665E+03</pdfrwt>
<pdfrwt beam="1">  1       -2 0.24822944E-02 0.12567665E+03</pdfrwt>
<totfact> 0.17926943E+04</totfact>
</mgrwt>
</event>
<event>
 8    2  0.8128359E-004  0.1533519E+03  0.7818608E-02  0.1208077E+00
         -2   -1    0    0    0  501 -0.00000000000E+00  0.00000000000E+00  0.10835947593E+02  0.10835947893E+02  0.25500000000E-02 0.  1.
          2   -1    0    0  501    0  0.00000000000E+00 -0.00000000000E+00 -0.17837128718E+04  0.17837128718E+04  0.25500000000E-02 0. -1.
         25    2    1    2    0    0 -0.22021145757E+02  0.86061236647E+02 -0.81626808911E+03  0.83054825193E+03  0.12500135267E+03 0.  0.
         23    2    1    2    0    0  0.22021145757E+02 -0.86061236647E+02 -0.95660883506E+03  0.96400056773E+03  0.79405062514E+02 0.  0.
        -11    1    4    4    0    0 -0.23164391054E+02 -0.52907654959E+02 -0.34208169927E+03  0.34692318738E+03  0.51100000000E-03 0.  1.
         11    1    4    4    0    0  0.45185536812E+02 -0.33153581688E+02 -0.61452713578E+03  0.61707738034E+03  0.51100000000E-03 0. -1.
    9000005    1    3    3    0    0 -0.51059990479E+02 -0.10783718234E+02 -0.26833555922E+03  0.27336492743E+03  0.10000000000E+01 0.  0.
    9000005    1    3    3    0    0  0.29038844721E+02  0.96844954881E+02 -0.54793252989E+03  0.55718332450E+03  0.10000000000E+01 0.  0.
<mgrwt>
<rscale>  0 0.14397598E+03</rscale>
<asrwt>0</asrwt>
<pdfrwt beam="2">  1        2 0.27441713E+00 0.15335190E+03</pdfrwt>
<pdfrwt beam="1">  1       -2 0.16670703E-02 0.15335190E+03</pdfrwt>
<totfact> 0.96012099E+03</totfact>
</mgrwt>
</event>
<event>
 8    2  0.8128359E-004  0.1345023E+03  0.7818608E-02  0.1232073E+00
          2   -1    0    0  501    0  0.00000000000E+00  0.00000000000E+00  0.15379921572E+04  0.15379921572E+04  0.25500000000E-02 0. -1.
         -2   -1    0    0    0  501 -0.00000000000E+00 -0.00000000000E+00 -0.94645147404E+01  0.94645150839E+01  0.25500000000E-02 0.  1.
         25    2    1    2    0    0  0.11678720415E+00 -0.49664443020E+02  0.87412535882E+03  0.88441280313E+03  0.12499717144E+03 0.  0.
         23    2    1    2    0    0 -0.11678720415E+00  0.49664443020E+02  0.65440228361E+03  0.66304386912E+03  0.94436502758E+02 0.  0.
        -11    1    4    4    0    0 -0.43208283369E+02  0.17980389888E+02  0.42091398239E+03  0.42350776940E+03  0.51100000000E-03 0. -1.
         11    1    4    4    0    0  0.43091496164E+02  0.31684053131E+02  0.23348830121E+03  0.23953609972E+03  0.51100000000E-03 0.  1.
    9000005    1    3    3    0    0 -0.61369039213E+01 -0.71870248889E+02  0.84068602995E+03  0.84377544123E+03  0.10000000000E+01 0.  0.
    9000005    1    3    3    0    0  0.62536911255E+01  0.22205805869E+02  0.33439328862E+02  0.40637361895E+02  0.10000000000E+01 0.  0.
<mgrwt>
<rscale>  0 0.12693694E+03</rscale>
<asrwt>0</asrwt>
<pdfrwt beam="1">  1        2 0.23661437E+00 0.13450228E+03</pdfrwt>
<pdfrwt beam="2">  1       -2 0.14560780E-02 0.13450228E+03</pdfrwt>
<totfact> 0.15537890E+04</totfact>
</mgrwt>
</event>
<event>
 8    2  0.8128359E-004  0.1281081E+03  0.7818608E-02  0.1244925E+00
         -2   -1    0    0    0  501 -0.00000000000E+00  0.00000000000E+00  0.16187177846E+02  0.16187178047E+02  0.25500000000E-02 0.  1.
          2   -1    0    0  501    0  0.00000000000E+00 -0.00000000000E+00 -0.78544485964E+03  0.78544485964E+03  0.25500000000E-02 0. -1.
         25    2    1    2    0    0 -0.28005651952E+02  0.87165981686E+00 -0.38332050314E+03  0.40416121116E+03  0.12500640044E+03 0.  0.
         23    2    1    2    0    0  0.28005651952E+02 -0.87165981686E+00 -0.38593717866E+03  0.39747082653E+03  0.90832129446E+02 0.  0.
        -11    1    4    4    0    0  0.21327555613E+02  0.31214466867E+02 -0.67616248305E+02  0.77467184055E+02  0.51100000000E-03 0. -1.
         11    1    4    4    0    0  0.66780963391E+01 -0.32086126684E+02 -0.31832093035E+03  0.32000364247E+03  0.51100000000E-03 0.  1.
    9000005    1    3    3    0    0 -0.10606937377E+02  0.14404435418E+02 -0.38160995068E+03  0.38203029898E+03  0.10000000000E+01 0.  0.
    9000005    1    3    3    0    0 -0.17398714575E+02 -0.13532775601E+02 -0.17105524563E+01  0.22130912183E+02  0.10000000000E+01 0.  0.
<mgrwt>
<rscale>  0 0.11889859E+03</rscale>
<asrwt>0</asrwt>
<pdfrwt beam="2">  1        2 0.12083764E+00 0.12810807E+03</pdfrwt>
<pdfrwt beam="1">  1       -2 0.24903357E-02 0.12810807E+03</pdfrwt>
<totfact> 0.19176814E+04</totfact>
</mgrwt>
</event>
<event>
 8    2  0.8128359E-004  0.1990118E+03  0.7818608E-02  0.1155147E+00
          2   -1    0    0  501    0  0.00000000000E+00  0.00000000000E+00  0.78136262622E+03  0.78136262622E+03  0.25500000000E-02 0. -1.
         -2   -1    0    0    0  501 -0.00000000000E+00 -0.00000000000E+00 -0.45670981655E+02  0.45670981726E+02  0.25500000000E-02 0.  1.
         25    2    1    2    0    0  0.30374114760E+02 -0.15185087547E+03  0.37714664584E+03  0.42643323493E+03  0.12499774458E+03 0.  0.
         23    2    1    2    0    0 -0.30374114760E+02  0.15185087547E+03  0.35854499872E+03  0.40060037302E+03  0.89133986369E+02 0.  0.
        -11    1    4    4    0    0  0.24106908731E+02  0.10179875242E+03  0.21597988172E+03  0.23998216257E+03  0.51100000000E-03 0.  1.
         11    1    4    4    0    0 -0.54481023491E+02  0.50052123051E+02  0.14256511700E+03  0.16061821045E+03  0.51100000000E-03 0. -1.
    9000005    1    3    3    0    0  0.22448711581E+02  0.11324690687E+02  0.15387419260E+02  0.29495185069E+02  0.10000000000E+01 0.  0.
    9000005    1    3    3    0    0  0.79254031788E+01 -0.16317556616E+03  0.36175922658E+03  0.39693804986E+03  0.10000000000E+01 0.  0.
<mgrwt>
<rscale>  0 0.19372135E+03</rscale>
<asrwt>0</asrwt>
<pdfrwt beam="1">  1        2 0.12020963E+00 0.19901184E+03</pdfrwt>
<pdfrwt beam="2">  1       -2 0.70263052E-02 0.19901184E+03</pdfrwt>
<totfact> 0.41844592E+03</totfact>
</mgrwt>
</event>
<event>
 8    2  0.8128359E-004  0.2151426E+03  0.7818608E-02  0.1141263E+00
         -2   -1    0    0    0  501 -0.00000000000E+00  0.00000000000E+00  0.31274582783E+02  0.31274582887E+02  0.25500000000E-02 0. -1.
          2   -1    0    0  501    0  0.00000000000E+00 -0.00000000000E+00 -0.16020739845E+04  0.16020739845E+04  0.25500000000E-02 0.  1.
         25    2    1    2    0    0  0.10557785176E+03 -0.13969007101E+03 -0.11349009970E+04  0.11551132377E+04  0.12500528040E+03 0.  0.
         23    2    1    2    0    0 -0.10557785176E+03  0.13969007101E+03 -0.43589840477E+03  0.47823532977E+03  0.89675039112E+02 0.  0.
        -11    1    4    4    0    0 -0.53134914569E+02  0.80165779900E+01 -0.96934182415E+02  0.11083239774E+03  0.51100000000E-03 0.  1.
         11    1    4    4    0    0 -0.52442937188E+02  0.13167349302E+03 -0.33896422236E+03  0.36740293203E+03  0.51100000000E-03 0. -1.
    9000005    1    3    3    0    0  0.56866796328E+02  0.85293821693E+01 -0.37225158006E+03  0.37666805246E+03  0.10000000000E+01 0.  0.
    9000005    1    3    3    0    0  0.48711055429E+02 -0.14821945318E+03 -0.76264941693E+03  0.77844518520E+03  0.10000000000E+01 0.  0.
<mgrwt>
<rscale>  0 0.21038311E+03</rscale>
<asrwt>0</asrwt>
<pdfrwt beam="2">  1        2 0.24647286E+00 0.21514255E+03</pdfrwt>
<pdfrwt beam="1">  1       -2 0.48114755E-02 0.21514255E+03</pdfrwt>
<totfact> 0.25003431E+03</totfact>
</mgrwt>
</event>
<event>
 8    2  0.8128359E-004  0.1718550E+03  0.7818608E-02  0.1182311E+00
          2   -1    0    0  501    0  0.00000000000E+00  0.00000000000E+00  0.12911346173E+03  0.12911346175E+03  0.25500000000E-02 0. -1.
         -2   -1    0    0    0  501 -0.00000000000E+00 -0.00000000000E+00 -0.19932196545E+03  0.19932196547E+03  0.25500000000E-02 0.  1.
         25    2    1    2    0    0  0.64019817960E+02  0.99066444127E+02 -0.42487046633E+02  0.17702905709E+03  0.12498576110E+03 0.  0.
         23    2    1    2    0    0 -0.64019817960E+02 -0.99066444127E+02 -0.27721457087E+02  0.15140637013E+03  0.90789384233E+02 0.  0.
        -11    1    4    4    0    0 -0.10815660245E+01 -0.83235571986E+02 -0.22867396474E+02  0.86326404133E+02  0.51100000000E-03 0.  1.
         11    1    4    4    0    0 -0.62938251936E+02 -0.15830872141E+02 -0.48540606130E+01  0.65079965997E+02  0.51100000000E-03 0. -1.
    9000005    1    3    3    0    0 -0.37780291423E+02  0.33974566389E+02 -0.86999254570E+01  0.51558804139E+02  0.10000000000E+01 0.  0.
    9000005    1    3    3    0    0  0.10180010938E+03  0.65091877738E+02 -0.33787121176E+02  0.12547025295E+03  0.10000000000E+01 0.  0.
<mgrwt>
<rscale>  0 0.16578933E+03</rscale>
<asrwt>0</asrwt>
<pdfrwt beam="1">  1        2 0.19863610E-01 0.17185499E+03</pdfrwt>
<pdfrwt beam="2">  1       -2 0.30664918E-01 0.17185499E+03</pdfrwt>
<totfact> 0.26856715E+03</totfact>
</mgrwt>
</event>
<event>
 8    2  0.8128359E-004  0.2202879E+03  0.7818608E-02  0.1137102E+00
          2   -1    0    0  501    0  0.00000000000E+00  0.00000000000E+00  0.12681027644E+04  0.12681027644E+04  0.25500000000E-02 0. -1.
         -2   -1    0    0    0  501 -0.00000000000E+00 -0.00000000000E+00 -0.35403096374E+02  0.35403096465E+02  0.25500000000E-02 0.  1.
         25    2    1    2    0    0  0.16217293291E+03  0.81241359847E+02  0.60103682827E+03  0.64013437995E+03  0.12500614678E+03 0.  0.
         23    2    1    2    0    0 -0.16217293291E+03 -0.81241359847E+02  0.63166283976E+03  0.66337148092E+03  0.90352420295E+02 0.  0.
        -11    1    4    4    0    0 -0.76357387320E+02 -0.48229308366E+02  0.16857019502E+03  0.19123918906E+03  0.51100000000E-03 0.  1.
         11    1    4    4    0    0 -0.85815545592E+02 -0.33012051481E+02  0.46309264473E+03  0.47213229186E+03  0.51100000000E-03 0. -1.
    9000005    1    3    3    0    0  0.10476307294E+03  0.74178206181E+02  0.54382788764E+03  0.55877319111E+03  0.10000000000E+01 0.  0.
    9000005    1    3    3    0    0  0.57409859969E+02  0.70631536660E+01  0.57208940632E+02  0.81361188841E+02  0.10000000000E+01 0.  0.
<mgrwt>
<rscale>  0 0.21573735E+03</rscale>
<asrwt>0</asrwt>
<pdfrwt beam="1">  1        2 0.19509273E+00 0.22028789E+03</pdfrwt>
<pdfrwt beam="2">  1       -2 0.54466302E-02 0.22028789E+03</pdfrwt>
<totfact> 0.31314791E+03</totfact>
</mgrwt>
</event>
<event>
 8    2  0.8128359E-004  0.1326713E+03  0.7818608E-02  0.1235656E+00
          2   -1    0    0  501    0  0.00000000000E+00  0.00000000000E+00  0.42938754300E+03  0.42938754301E+03  0.25500000000E-02 0. -1.
         -2   -1    0    0    0  501 -0.00000000000E+00 -0.00000000000E+00 -0.34877569204E+02  0.34877569298E+02  0.25500000000E-02 0.  1.
         25    2    1    2    0    0 -0.43213079072E+02 -0.10464995834E+02  0.28125994491E+03  0.31098043823E+03  0.12499916005E+03 0.  0.
         23    2    1    2    0    0  0.43213079072E+02  0.10464995834E+02  0.11325002888E+03  0.15328467407E+03  0.93240205502E+02 0.  0.
        -11    1    4    4    0    0  0.44066290531E+02 -0.51153508592E+01  0.58374120263E+01  0.44744610346E+02  0.51100000000E-03 0.  1.
         11    1    4    4    0    0 -0.85321145884E+00  0.15580346694E+02  0.10741261686E+03  0.10854006372E+03  0.51100000000E-03 0. -1.
    9000005    1    3    3    0    0  0.38632626495E+01 -0.28766244977E+02  0.41897889894E+01  0.29342392202E+02  0.10000000000E+01 0.  0.
    9000005    1    3    3    0    0 -0.47076341722E+02  0.18301249143E+02  0.27707015592E+03  0.28163804603E+03  0.10000000000E+01 0.  0.
<mgrwt>
<rscale>  0 0.12462538E+03</rscale>
<asrwt>0</asrwt>
<pdfrwt beam="1">  1        2 0.66059622E-01 0.13267131E+03</pdfrwt>
<pdfrwt beam="2">  1       -2 0.53657799E-02 0.13267131E+03</pdfrwt>
<totfact> 0.12261927E+04</totfact>
</mgrwt>
</event>
<event>
 8    2  0.8128359E-004  0.1274016E+03  0.7818608E-02  0.1249662E+00
         -2   -1    0    0    0  501 -0.00000000000E+00  0.00000000000E+00  0.54246537391E+02  0.54246537451E+02  0.25500000000E-02 0.  1.
          2   -1    0    0  501    0  0.00000000000E+00 -0.00000000000E+00 -0.23995369793E+03  0.23995369794E+03  0.25500000000E-02 0. -1.
         25    2    1    2    0    0 -0.24497366906E+02  0.24992150354E+01 -0.15604339740E+03  0.20144656472E+03  0.12499923802E+03 0.  0.
         23    2    1    2    0    0  0.24497366906E+02 -0.24992150354E+01 -0.29663763142E+02  0.92753670672E+02  0.84361943542E+02 0.  0.
        -11    1    4    4    0    0  0.15235864667E+02 -0.41683938225E+02 -0.30440208394E+01  0.44485372217E+02  0.51100000000E-03 0.  1.
         11    1    4    4    0    0  0.92615022387E+01  0.39184723190E+02 -0.26619742303E+02  0.48268298455E+02  0.51100000000E-03 0. -1.
    9000005    1    3    3    0    0 -0.22260596360E+02 -0.84709967340E+01  0.16209206507E+02  0.28827596354E+02  0.10000000000E+01 0.  0.
    9000005    1    3    3    0    0 -0.22367705461E+01  0.10970211769E+02 -0.17225260391E+03  0.17261896837E+03  0.10000000000E+01 0.  0.
<mgrwt>
<rscale>  0 0.11610653E+03</rscale>
<asrwt>0</asrwt>
<pdfrwt beam="2">  1        2 0.36915953E-01 0.12740163E+03</pdfrwt>
<pdfrwt beam="1">  1       -2 0.83456213E-02 0.12740163E+03</pdfrwt>
<totfact> 0.11560793E+04</totfact>
</mgrwt>
</event>
<event>
 8    2  0.8128359E-004  0.1373896E+03  0.7818608E-02  0.1228789E+00
         -2   -1    0    0    0  501 -0.00000000000E+00  0.00000000000E+00  0.91640603856E+02  0.91640603892E+02  0.25500000000E-02 0.  1.
          2   -1    0    0  501    0  0.00000000000E+00 -0.00000000000E+00 -0.19778580942E+03  0.19778580943E+03  0.25500000000E-02 0. -1.
         25    2    1    2    0    0  0.34750686045E+02 -0.45204247113E+02  0.17200058035E+01  0.13740036149E+03  0.12499946711E+03 0.  0.
         23    2    1    2    0    0 -0.34750686045E+02  0.45204247113E+02 -0.10786521136E+03  0.15202605184E+03  0.90697202148E+02 0.  0.
        -11    1    4    4    0    0  0.28390047811E+02  0.15794274920E+02 -0.14590918127E+02  0.35613885312E+02  0.51100000000E-03 0.  1.
         11    1    4    4    0    0 -0.63140733857E+02  0.29409972193E+02 -0.93274293236E+02  0.11641216653E+03  0.51100000000E-03 0. -1.
    9000005    1    3    3    0    0  0.25339606952E+02  0.34584234872E+02 -0.28572242032E+02  0.51531912413E+02  0.10000000000E+01 0.  0.
    9000005    1    3    3    0    0  0.94110790935E+01 -0.79788481985E+02  0.30292247836E+02  0.85868449073E+02  0.10000000000E+01 0.  0.
<mgrwt>
<rscale>  0 0.12910528E+03</rscale>
<asrwt>0</asrwt>
<pdfrwt beam="2">  1        2 0.30428586E-01 0.13738960E+03</pdfrwt>
<pdfrwt beam="1">  1       -2 0.14098554E-01 0.13738960E+03</pdfrwt>
<totfact> 0.62397215E+03</totfact>
</mgrwt>
</event>
<event>
 8    2  0.8128359E-004  0.1475523E+03  0.7818608E-02  0.1211819E+00
         -2   -1    0    0    0  501 -0.00000000000E+00  0.00000000000E+00  0.19802387997E+02  0.19802388161E+02  0.25500000000E-02 0.  1.
          2   -1    0    0  501    0  0.00000000000E+00 -0.00000000000E+00 -0.10608581975E+04  0.10608581975E+04  0.25500000000E-02 0. -1.
         25    2    1    2    0    0 -0.19460955918E+02  0.75945007467E+02 -0.75189431536E+03  0.76623543271E+03  0.12500121560E+03 0.  0.
         23    2    1    2    0    0  0.19460955918E+02 -0.75945007467E+02 -0.28916149417E+03  0.31442515299E+03  0.95406677724E+02 0.  0.
        -11    1    4    4    0    0  0.29139894664E+02 -0.56170665960E+02 -0.70803431817E+02  0.94960008071E+02  0.51100000000E-03 0.  1.
         11    1    4    4    0    0 -0.96789387455E+01 -0.19774341507E+02 -0.21835806236E+03  0.21946514492E+03  0.51100000000E-03 0. -1.
    9000005    1    3    3    0    0  0.42474167320E+02  0.52684313586E+02 -0.54068312439E+03  0.54490268194E+03  0.10000000000E+01 0.  0.
    9000005    1    3    3    0    0 -0.61935123239E+02  0.23260693882E+02 -0.21121119098E+03  0.22133275077E+03  0.10000000000E+01 0.  0.
<mgrwt>
<rscale>  0 0.14112824E+03</rscale>
<asrwt>0</asrwt>
<pdfrwt beam="2">  1        2 0.16320891E+00 0.14755229E+03</pdfrwt>
<pdfrwt beam="1">  1       -2 0.30465221E-02 0.14755229E+03</pdfrwt>
<totfact> 0.96849425E+03</totfact>
</mgrwt>
</event>
<event>
 8    2  0.8128359E-004  0.1554412E+03  0.7818608E-02  0.1203797E+00
          2   -1    0    0  501    0  0.00000000000E+00  0.00000000000E+00  0.24911559091E+03  0.24911559093E+03  0.25500000000E-02 0.  1.
         -2   -1    0    0    0  501 -0.00000000000E+00 -0.00000000000E+00 -0.89844119439E+02  0.89844119475E+02  0.25500000000E-02 0. -1.
         25    2    1    2    0    0  0.92385657823E+02 -0.15780218007E+01  0.29016246438E+02  0.15812626591E+03  0.12499749393E+03 0.  0.
         23    2    1    2    0    0 -0.92385657823E+02  0.15780218007E+01  0.13025522504E+03  0.18083344450E+03  0.84833431348E+02 0.  0.
        -11    1    4    4    0    0 -0.87276365847E+02  0.29619246967E+02  0.75649504710E+02  0.11923636773E+03  0.51100000000E-03 0. -1.
         11    1    4    4    0    0 -0.51092919765E+01 -0.28041225166E+02  0.54605720327E+02  0.61597076765E+02  0.51100000000E-03 0.  1.
    9000005    1    3    3    0    0  0.28989280594E+02 -0.61247755030E+02  0.57962515287E+01  0.68016633387E+02  0.10000000000E+01 0.  0.
    9000005    1    3    3    0    0  0.63396377229E+02  0.59669733229E+02  0.23219994909E+02  0.90109632520E+02  0.10000000000E+01 0.  0.
<mgrwt>
<rscale>  0 0.14732641E+03</rscale>
<asrwt>0</asrwt>
<pdfrwt beam="1">  1        2 0.38325475E-01 0.15544122E+03</pdfrwt>
<pdfrwt beam="2">  1       -2 0.13822172E-01 0.15544122E+03</pdfrwt>
<totfact> 0.50656640E+03</totfact>
</mgrwt>
</event>
<event>
 8    2  0.8128359E-004  0.1694944E+03  0.7818608E-02  0.1185020E+00
          2   -1    0    0  501    0  0.00000000000E+00  0.00000000000E+00  0.12488718623E+04  0.12488718623E+04  0.25500000000E-02 0. -1.
         -2   -1    0    0    0  501 -0.00000000000E+00 -0.00000000000E+00 -0.19939352985E+02  0.19939353148E+02  0.25500000000E-02 0.  1.
         25    2    1    2    0    0  0.34208961472E+02 -0.10921488761E+03  0.64707055014E+03  0.66890106867E+03  0.12502079066E+03 0.  0.
         23    2    1    2    0    0 -0.34208961472E+02  0.10921488761E+03  0.58186195915E+03  0.59991014675E+03  0.90723205111E+02 0.  0.
        -11    1    4    4    0    0 -0.49434725010E+02  0.18013506355E+02  0.17893825290E+03  0.18651320811E+03  0.51100000000E-03 0. -1.
         11    1    4    4    0    0  0.15225763538E+02  0.91201381252E+02  0.40292370625E+03  0.41339693864E+03  0.51100000000E-03 0.  1.
    9000005    1    3    3    0    0  0.40286187761E+02 -0.72775895314E+02  0.15912452813E+03  0.17955757660E+03  0.10000000000E+01 0.  0.
    9000005    1    3    3    0    0 -0.60772262888E+01 -0.36438992294E+02  0.48794602201E+03  0.48934349207E+03  0.10000000000E+01 0.  0.
<mgrwt>
<rscale>  0 0.16330045E+03</rscale>
<asrwt>0</asrwt>
<pdfrwt beam="1">  1        2 0.19213412E+00 0.16949437E+03</pdfrwt>
<pdfrwt beam="2">  1       -2 0.30675929E-02 0.16949437E+03</pdfrwt>
<totfact> 0.75494988E+03</totfact>
</mgrwt>
</event>
<event>
 8    2  0.8128359E-004  0.1807830E+03  0.7818608E-02  0.1172812E+00
         -2   -1    0    0    0  501 -0.00000000000E+00  0.00000000000E+00  0.26317749242E+03  0.26317749243E+03  0.25500000000E-02 0.  1.
          2   -1    0    0  501    0  0.00000000000E+00 -0.00000000000E+00 -0.11006402126E+03  0.11006402128E+03  0.25500000000E-02 0. -1.
         25    2    1    2    0    0  0.36228541461E+02 -0.12546543500E+03  0.96911270707E+02  0.20512016070E+03  0.12501361262E+03 0.  0.
         23    2    1    2    0    0 -0.36228541461E+02  0.12546543500E+03  0.56202200456E+02  0.16812135302E+03  0.89733045248E+02 0.  0.
        -11    1    4    4    0    0  0.10275000132E+02  0.60395212763E+01  0.36573327954E+02  0.38466345848E+02  0.51100000000E-03 0.  1.
         11    1    4    4    0    0 -0.46503541593E+02  0.11942591372E+03  0.19628872502E+02  0.12965500717E+03  0.51100000000E-03 0. -1.
    9000005    1    3    3    0    0  0.50160750998E+02 -0.41820168260E+01  0.58400347142E+02  0.77105063075E+02  0.10000000000E+01 0.  0.
    9000005    1    3    3    0    0 -0.13932209537E+02 -0.12128341817E+03  0.38510923566E+02  0.12801509762E+03  0.10000000000E+01 0.  0.
<mgrwt>
<rscale>  0 0.17492044E+03</rscale>
<asrwt>0</asrwt>
<pdfrwt beam="2">  1        2 0.16932926E-01 0.18078298E+03</pdfrwt>
<pdfrwt beam="1">  1       -2 0.40488845E-01 0.18078298E+03</pdfrwt>
<totfact> 0.19293778E+03</totfact>
</mgrwt>
</event>
<event>
 8    2  0.8128359E-004  0.1327708E+03  0.7818608E-02  0.1236511E+00
          2   -1    0    0  501    0  0.00000000000E+00  0.00000000000E+00  0.92073551632E+03  0.92073551632E+03  0.25500000000E-02 0. -1.
         -2   -1    0    0    0  501 -0.00000000000E+00 -0.00000000000E+00 -0.14880496823E+02  0.14880497041E+02  0.25500000000E-02 0.  1.
         25    2    1    2    0    0  0.36435710853E+01  0.44598767844E+02  0.52348398784E+03  0.54005885844E+03  0.12500303736E+03 0.  0.
         23    2    1    2    0    0 -0.36435710853E+01 -0.44598767844E+02  0.38237103165E+03  0.39555715492E+03  0.90859954102E+02 0.  0.
        -11    1    4    4    0    0 -0.32769532633E+02  0.13041134503E+02  0.10492382841E+03  0.11069292311E+03  0.51100000000E-03 0.  1.
         11    1    4    4    0    0  0.29125961548E+02 -0.57639902346E+02  0.27744720324E+03  0.28486423181E+03  0.51100000000E-03 0. -1.
    9000005    1    3    3    0    0 -0.38325212794E+02 -0.18268208534E+02  0.32329251105E+03  0.32606992667E+03  0.10000000000E+01 0.  0.
    9000005    1    3    3    0    0  0.41968783879E+02  0.62866976378E+02  0.20019147679E+03  0.21398893177E+03  0.10000000000E+01 0.  0.
<mgrwt>
<rscale>  0 0.12408206E+03</rscale>
<asrwt>0</asrwt>
<pdfrwt beam="1">  1        2 0.14165162E+00 0.13277080E+03</pdfrwt>
<pdfrwt beam="2">  1       -2 0.22893072E-02 0.13277080E+03</pdfrwt>
<totfact> 0.17756170E+04</totfact>
</mgrwt>
</event>
<event>
 8    2  0.8128359E-004  0.1415600E+03  0.7818608E-02  0.1229207E+00
          2   -1    0    0  501    0  0.00000000000E+00  0.00000000000E+00  0.17742302666E+03  0.17742302668E+03  0.25500000000E-02 0. -1.
         -2   -1    0    0    0  501 -0.00000000000E+00 -0.00000000000E+00 -0.91737133044E+02  0.91737133079E+02  0.25500000000E-02 0.  1.
         25    2    1    2    0    0 -0.80222654941E+01 -0.65956626048E+02  0.96708578725E+02  0.17144033461E+03  0.12499842346E+03 0.  0.
         23    2    1    2    0    0  0.80222654941E+01  0.65956626048E+02 -0.11022685109E+02  0.97719825151E+02  0.70802763910E+02 0.  0.
        -11    1    4    4    0    0  0.32426326342E+02  0.14475460397E+02 -0.18864115134E+02  0.40210203105E+02  0.51100000000E-03 0.  1.
         11    1    4    4    0    0 -0.24404060848E+02  0.51481165652E+02  0.78414300253E+01  0.57509622046E+02  0.51100000000E-03 0. -1.
    9000005    1    3    3    0    0 -0.48231289746E+02 -0.83653973322E+02  0.56522226273E+02  0.11189283545E+03  0.10000000000E+01 0.  0.
    9000005    1    3    3    0    0  0.40209024252E+02  0.17697347273E+02  0.40186352452E+02  0.59547499152E+02  0.10000000000E+01 0.  0.
<mgrwt>
<rscale>  0 0.12882673E+03</rscale>
<asrwt>0</asrwt>
<pdfrwt beam="1">  1        2 0.27295850E-01 0.14156002E+03</pdfrwt>
<pdfrwt beam="2">  1       -2 0.14113405E-01 0.14156002E+03</pdfrwt>
<totfact> 0.70244561E+03</totfact>
</mgrwt>
</event>
<event>
 8    2  0.8128359E-004  0.1652018E+03  0.7818608E-02  0.1189316E+00
         -2   -1    0    0    0  501 -0.00000000000E+00  0.00000000000E+00  0.31888844237E+02  0.31888844339E+02  0.25500000000E-02 0.  1.
          2   -1    0    0  501    0  0.00000000000E+00 -0.00000000000E+00 -0.10628642191E+04  0.10628642191E+04  0.25500000000E-02 0. -1.
         25    2    1    2    0    0  0.60501230679E+01  0.10784450549E+03 -0.24299025621E+03  0.29382969922E+03  0.12499834468E+03 0.  0.
         23    2    1    2    0    0 -0.60501230679E+01 -0.10784450549E+03 -0.78798511867E+03  0.80092336424E+03  0.94290226387E+02 0.  0.
        -11    1    4    4    0    0  0.32223194475E+02 -0.96473219633E+02 -0.61784450901E+03  0.62616072512E+03  0.51100000000E-03 0.  1.
         11    1    4    4    0    0 -0.38273317543E+02 -0.11371285860E+02 -0.17014060965E+03  0.17476263912E+03  0.51100000000E-03 0. -1.
    9000005    1    3    3    0    0  0.60237820894E+02  0.38125639340E+02 -0.71686349374E+02  0.10110436255E+03  0.10000000000E+01 0.  0.
    9000005    1    3    3    0    0 -0.54187697826E+02  0.69718866153E+02 -0.17130390684E+03  0.19272533666E+03  0.10000000000E+01 0.  0.
<mgrwt>
<rscale>  0 0.15945305E+03</rscale>
<asrwt>0</asrwt>
<pdfrwt beam="2">  1        2 0.16351755E+00 0.16520178E+03</pdfrwt>
<pdfrwt beam="1">  1       -2 0.49059769E-02 0.16520178E+03</pdfrwt>
<totfact> 0.47720129E+03</totfact>
</mgrwt>
</event>
<event>
 8    2  0.8128359E-004  0.1385217E+03  0.7818608E-02  0.1226916E+00
          2   -1    0    0  501    0  0.00000000000E+00  0.00000000000E+00  0.19721274268E+04  0.19721274268E+04  0.25500000000E-02 0. -1.
         -2   -1    0    0    0  501 -0.00000000000E+00 -0.00000000000E+00 -0.12342945166E+02  0.12342945430E+02  0.25500000000E-02 0.  1.
         25    2    1    2    0    0  0.55801811236E+02  0.21198797812E+02  0.16569583015E+04  0.16627384275E+04  0.12500013635E+03 0.  0.
         23    2    1    2    0    0 -0.55801811236E+02 -0.21198797812E+02  0.30282618005E+03  0.32173194468E+03  0.90799326765E+02 0.  0.
        -11    1    4    4    0    0 -0.55924874762E+02  0.21425080019E+02  0.12143056447E+03  0.13539574461E+03  0.51100000000E-03 0.  1.
         11    1    4    4    0    0  0.12306352613E+00 -0.42623877831E+02  0.18139561558E+03  0.18633620008E+03  0.51100000000E-03 0. -1.
    9000005    1    3    3    0    0 -0.20828196013E+02  0.43646888737E+02  0.34791360392E+03  0.35126021756E+03  0.10000000000E+01 0.  0.
    9000005    1    3    3    0    0  0.76630007248E+02 -0.22448090925E+02  0.13090446976E+04  0.13114782100E+04  0.10000000000E+01 0.  0.
<mgrwt>
<rscale>  0 0.13036448E+03</rscale>
<asrwt>0</asrwt>
<pdfrwt beam="1">  1        2 0.30340438E+00 0.13852171E+03</pdfrwt>
<pdfrwt beam="2">  1       -2 0.18989136E-02 0.13852171E+03</pdfrwt>
<totfact> 0.63478346E+03</totfact>
</mgrwt>
</event>
<event>
 8    2  0.8128359E-004  0.1267267E+03  0.7818608E-02  0.1244897E+00
         -2   -1    0    0    0  501 -0.00000000000E+00  0.00000000000E+00  0.84486332328E+01  0.84486336176E+01  0.25500000000E-02 0.  1.
          2   -1    0    0  501    0  0.00000000000E+00 -0.00000000000E+00 -0.16014058698E+04  0.16014058698E+04  0.25500000000E-02 0. -1.
         25    2    1    2    0    0 -0.14294388523E+02 -0.15188950250E+02 -0.10939999042E+04  0.11013153229E+04  0.12499846454E+03 0.  0.
         23    2    1    2    0    0  0.14294388523E+02  0.15188950250E+02 -0.49895733234E+03  0.50853918057E+03  0.96013774676E+02 0.  0.
        -11    1    4    4    0    0  0.15312699348E+02  0.46815726038E+02 -0.14434361220E+03  0.15251645599E+03  0.51100000000E-03 0.  1.
         11    1    4    4    0    0 -0.10183108249E+01 -0.31626775788E+02 -0.35461372014E+03  0.35602272458E+03  0.51100000000E-03 0. -1.
    9000005    1    3    3    0    0 -0.48196391361E+02 -0.54480722993E+02 -0.53760292651E+03  0.54250248655E+03  0.10000000000E+01 0.  0.
    9000005    1    3    3    0    0  0.33902002838E+02  0.39291772743E+02 -0.55639697773E+03  0.55881283631E+03  0.10000000000E+01 0.  0.
<mgrwt>
<rscale>  0 0.11891527E+03</rscale>
<asrwt>0</asrwt>
<pdfrwt beam="2">  1        2 0.24636989E+00 0.12672667E+03</pdfrwt>
<pdfrwt beam="1">  1       -2 0.12997910E-02 0.12672667E+03</pdfrwt>
<totfact> 0.16910979E+04</totfact>
</mgrwt>
</event>
<event>
 8    2  0.8128359E-004  0.1383254E+03  0.7818608E-02  0.1226883E+00
          2   -1    0    0  501    0  0.00000000000E+00  0.00000000000E+00  0.10478386203E+04  0.10478386203E+04  0.25500000000E-02 0.  1.
         -2   -1    0    0    0  501 -0.00000000000E+00 -0.00000000000E+00 -0.14946359946E+02  0.14946360164E+02  0.25500000000E-02 0. -1.
         25    2    1    2    0    0 -0.95472866718E+00  0.59231666550E+02  0.49764950063E+03  0.51651614961E+03  0.12499842197E+03 0.  0.
         23    2    1    2    0    0  0.95472866718E+00 -0.59231666550E+02  0.53524275973E+03  0.54626883087E+03  0.91736153758E+02 0.  0.
        -11    1    4    4    0    0 -0.16472179686E+02 -0.33072843002E+02  0.48876973086E+03  0.49016425355E+03  0.51100000000E-03 0.  1.
         11    1    4    4    0    0  0.17426908353E+02 -0.26158823548E+02  0.46473028872E+02  0.56104577327E+02  0.51100000000E-03 0. -1.
    9000005    1    3    3    0    0  0.31673634513E+02 -0.12054043665E+02  0.41083494623E+02  0.53266993742E+02  0.10000000000E+01 0.  0.
    9000005    1    3    3    0    0 -0.32628363180E+02  0.71285710215E+02  0.45656600601E+03  0.46324915587E+03  0.10000000000E+01 0.  0.
<mgrwt>
<rscale>  0 0.13038657E+03</rscale>
<asrwt>0</asrwt>
<pdfrwt beam="1">  1        2 0.16120596E+00 0.13832537E+03</pdfrwt>
<pdfrwt beam="2">  1       -2 0.22994397E-02 0.13832537E+03</pdfrwt>
<totfact> 0.14831211E+04</totfact>
</mgrwt>
</event>
<event>
 8    2  0.8128359E-004  0.1273639E+03  0.7818608E-02  0.1245478E+00
         -2   -1    0    0    0  501 -0.00000000000E+00  0.00000000000E+00  0.13507303003E+03  0.13507303005E+03  0.25500000000E-02 0.  1.
          2   -1    0    0  501    0  0.00000000000E+00 -0.00000000000E+00 -0.12798102363E+03  0.12798102366E+03  0.25500000000E-02 0. -1.
         25    2    1    2    0    0 -0.13281923880E+02 -0.20500565489E+02  0.73080621197E+02  0.14684118113E+03  0.12499949038E+03 0.  0.
         23    2    1    2    0    0  0.13281923880E+02  0.20500565489E+02 -0.65988614799E+02  0.11621287257E+03  0.92489198188E+02 0.  0.
        -11    1    4    4    0    0  0.20014819246E+02  0.68800126788E+01 -0.87418103555E+02  0.89943606740E+02  0.51100000000E-03 0. -1.
         11    1    4    4    0    0 -0.67328953656E+01  0.13620552810E+02  0.21429488756E+02  0.26269265834E+02  0.51100000000E-03 0.  1.
    9000005    1    3    3    0    0 -0.66174756568E+02 -0.31524630775E+02  0.43296711185E+02  0.85138158025E+02  0.10000000000E+01 0.  0.
    9000005    1    3    3    0    0  0.52892832688E+02  0.11024065286E+02  0.29783910011E+02  0.61703023109E+02  0.10000000000E+01 0.  0.
<mgrwt>
<rscale>  0 0.11856810E+03</rscale>
<asrwt>0</asrwt>
<pdfrwt beam="2">  1        2 0.19689388E-01 0.12736387E+03</pdfrwt>
<pdfrwt beam="1">  1       -2 0.20780466E-01 0.12736387E+03</pdfrwt>
<totfact> 0.52771527E+03</totfact>
</mgrwt>
</event>
<event>
 8    2  0.8128359E-004  0.1966218E+03  0.7818608E-02  0.1157188E+00
         -2   -1    0    0    0  501 -0.00000000000E+00  0.00000000000E+00  0.44434444433E+02  0.44434444506E+02  0.25500000000E-02 0.  1.
          2   -1    0    0  501    0  0.00000000000E+00 -0.00000000000E+00 -0.83477982182E+03  0.83477982183E+03  0.25500000000E-02 0. -1.
         25    2    1    2    0    0  0.12290342134E+03 -0.89049466842E+02 -0.30656401763E+03  0.36419998733E+03  0.12500030139E+03 0.  0.
         23    2    1    2    0    0 -0.12290342134E+03  0.89049466842E+02 -0.48378135977E+03  0.51501427900E+03  0.90334074389E+02 0.  0.
        -11    1    4    4    0    0 -0.30278137703E+02  0.20984660126E+02 -0.31862970547E+02  0.48706985902E+02  0.51100000000E-03 0.  1.
         11    1    4    4    0    0 -0.92625283640E+02  0.68064806715E+02 -0.45191838922E+03  0.46630729310E+03  0.51100000000E-03 0. -1.
    9000005    1    3    3    0    0  0.13620400927E+03 -0.10025700751E+03 -0.30209249730E+03  0.34621362859E+03  0.10000000000E+01 0.  0.
    9000005    1    3    3    0    0 -0.13300587922E+02  0.11207540667E+02 -0.44715203227E+01  0.17986358744E+02  0.10000000000E+01 0.  0.
<mgrwt>
<rscale>  0 0.19141894E+03</rscale>
<asrwt>0</asrwt>
<pdfrwt beam="2">  1        2 0.12842765E+00 0.19662180E+03</pdfrwt>
<pdfrwt beam="1">  1       -2 0.68360690E-02 0.19662180E+03</pdfrwt>
<totfact> 0.40129214E+03</totfact>
</mgrwt>
</event>
<event>
 8    2  0.8128359E-004  0.1410645E+03  0.7818608E-02  0.1222440E+00
         -2   -1    0    0    0  501 -0.00000000000E+00  0.00000000000E+00  0.46315894786E+02  0.46315894857E+02  0.25500000000E-02 0.  1.
          2   -1    0    0  501    0  0.00000000000E+00 -0.00000000000E+00 -0.36638311333E+03  0.36638311334E+03  0.25500000000E-02 0. -1.
         25    2    1    2    0    0  0.18245780250E+02  0.62681416832E+02 -0.13126678812E+03  0.19269189276E+03  0.12504929971E+03 0.  0.
         23    2    1    2    0    0 -0.18245780250E+02 -0.62681416832E+02 -0.18880043043E+03  0.22000711544E+03  0.92171903538E+02 0.  0.
        -11    1    4    4    0    0 -0.22851262124E+02 -0.57898313496E+02 -0.46860942292E+02  0.77912404655E+02  0.51100000000E-03 0.  1.
         11    1    4    4    0    0  0.46054818741E+01 -0.47831033363E+01 -0.14193948814E+03  0.14209471079E+03  0.51100000000E-03 0. -1.
    9000005    1    3    3    0    0 -0.28270617050E+02  0.81251370280E+02 -0.57346204840E+02  0.10339535855E+03  0.10000000000E+01 0.  0.
    9000005    1    3    3    0    0  0.46516397299E+02 -0.18569953448E+02 -0.73920583279E+02  0.89296534206E+02  0.10000000000E+01 0.  0.
<mgrwt>
<rscale>  0 0.13343942E+03</rscale>
<asrwt>0</asrwt>
<pdfrwt beam="2">  1        2 0.56366631E-01 0.14106451E+03</pdfrwt>
<pdfrwt beam="1">  1       -2 0.71255225E-02 0.14106451E+03</pdfrwt>
<totfact> 0.94838109E+03</totfact>
</mgrwt>
</event>
<event>
 8    2  0.8128359E-004  0.1733694E+03  0.7818608E-02  0.1184570E+00
         -2   -1    0    0    0  501 -0.00000000000E+00  0.00000000000E+00  0.24686899705E+03  0.24686899706E+03  0.25500000000E-02 0.  1.
          2   -1    0    0  501    0  0.00000000000E+00 -0.00000000000E+00 -0.99414685548E+02  0.99414685581E+02  0.25500000000E-02 0. -1.
         25    2    1    2    0    0  0.10784641403E+03 -0.52931856972E+02  0.62111870356E+02  0.18415978504E+03  0.12499724591E+03 0.  0.
         23    2    1    2    0    0 -0.10784641403E+03  0.52931856972E+02  0.85342441144E+02  0.16212389760E+03  0.67588426613E+02 0.  0.
        -11    1    4    4    0    0 -0.62029087542E+02  0.77957747947E+01  0.10414931944E+02  0.63378644776E+02  0.51100000000E-03 0. -1.
         11    1    4    4    0    0 -0.45817326488E+02  0.45136082177E+02  0.74927509200E+02  0.98745252828E+02  0.51100000000E-03 0.  1.
    9000005    1    3    3    0    0  0.28335452086E+02 -0.62976452266E+02 -0.17440743523E+02  0.71232793849E+02  0.10000000000E+01 0.  0.
    9000005    1    3    3    0    0  0.79510961944E+02  0.10044595294E+02  0.79552613879E+02  0.11292699119E+03  0.10000000000E+01 0.  0.
<mgrwt>
<rscale>  0 0.16371024E+03</rscale>
<asrwt>0</asrwt>
<pdfrwt beam="2">  1        2 0.15294567E-01 0.17336938E+03</pdfrwt>
<pdfrwt beam="1">  1       -2 0.37979845E-01 0.17336938E+03</pdfrwt>
<totfact> 0.24489430E+03</totfact>
</mgrwt>
</event>
<event>
 8    2  0.8128359E-004  0.1329855E+03  0.7818608E-02  0.1233772E+00
         -2   -1    0    0    0  501 -0.00000000000E+00  0.00000000000E+00  0.64995875380E+02  0.64995875430E+02  0.25500000000E-02 0.  1.
          2   -1    0    0  501    0  0.00000000000E+00 -0.00000000000E+00 -0.65130541903E+03  0.65130541903E+03  0.25500000000E-02 0. -1.
         25    2    1    2    0    0  0.40584722623E+02  0.20339568027E+02 -0.13514447305E+02  0.13367044084E+03  0.12499731490E+03 0.  0.
         23    2    1    2    0    0 -0.40584722623E+02 -0.20339568027E+02 -0.57279509634E+03  0.58263085362E+03  0.96455541343E+02 0.  0.
        -11    1    4    4    0    0 -0.57708092803E+02  0.11968434823E+02 -0.46680480734E+03  0.47051056902E+03  0.51100000000E-03 0. -1.
         11    1    4    4    0    0  0.17123370180E+02 -0.32308002850E+02 -0.10599028900E+03  0.11212028460E+03  0.51100000000E-03 0.  1.
    9000005    1    3    3    0    0  0.66925455602E+02  0.41342538245E+02 -0.42321800451E+02  0.89332843174E+02  0.10000000000E+01 0.  0.
    9000005    1    3    3    0    0 -0.26340732979E+02 -0.21002970218E+02  0.28807353146E+02  0.44337597670E+02  0.10000000000E+01 0.  0.
<mgrwt>
<rscale>  0 0.12583371E+03</rscale>
<asrwt>0</asrwt>
<pdfrwt beam="2">  1        2 0.10020083E+00 0.13298551E+03</pdfrwt>
<pdfrwt beam="1">  1       -2 0.99993659E-02 0.13298551E+03</pdfrwt>
<totfact> 0.29680645E+03</totfact>
</mgrwt>
</event>
<event>
 8    2  0.8128359E-004  0.1278588E+03  0.7818608E-02  0.1245149E+00
         -2   -1    0    0    0  501 -0.00000000000E+00  0.00000000000E+00  0.11366614226E+03  0.11366614229E+03  0.25500000000E-02 0.  1.
          2   -1    0    0  501    0  0.00000000000E+00 -0.00000000000E+00 -0.13786119138E+03  0.13786119141E+03  0.25500000000E-02 0. -1.
         25    2    1    2    0    0  0.22426926749E+02  0.14802747740E+02 -0.70142857658E+02  0.14583517280E+03  0.12500315500E+03 0.  0.
         23    2    1    2    0    0 -0.22426926749E+02 -0.14802747740E+02  0.45947808540E+02  0.10569216090E+03  0.91310149398E+02 0.  0.
        -11    1    4    4    0    0  0.29481533055E+02  0.78186432425E+01  0.37665326350E+02  0.48466161213E+02  0.51100000000E-03 0.  1.
         11    1    4    4    0    0 -0.51908459804E+02 -0.22621390983E+02  0.82824821900E+01  0.57225999692E+02  0.51100000000E-03 0. -1.
    9000005    1    3    3    0    0 -0.14397528356E+02 -0.37811894651E+02 -0.70858438802E+02  0.81602368527E+02  0.10000000000E+01 0.  0.
    9000005    1    3    3    0    0  0.36824455105E+02  0.52614642392E+02  0.71558114311E+00  0.64232804268E+02  0.10000000000E+01 0.  0.
<mgrwt>
<rscale>  0 0.11876455E+03</rscale>
<asrwt>0</asrwt>
<pdfrwt beam="2">  1        2 0.21209414E-01 0.12785882E+03</pdfrwt>
<pdfrwt beam="1">  1       -2 0.17487099E-01 0.12785882E+03</pdfrwt>
<totfact> 0.64863276E+03</totfact>
</mgrwt>
</event>
<event>
 8    2  0.8128359E-004  0.1492848E+03  0.7818608E-02  0.1210998E+00
          2   -1    0    0  501    0  0.00000000000E+00  0.00000000000E+00  0.11721718102E+03  0.11721718104E+03  0.25500000000E-02 0. -1.
         -2   -1    0    0    0  501 -0.00000000000E+00 -0.00000000000E+00 -0.16198429736E+03  0.16198429738E+03  0.25500000000E-02 0.  1.
         25    2    1    2    0    0  0.78563422246E+02  0.22053111845E+02  0.16277957986E+01  0.14929368541E+03  0.12500961454E+03 0.  0.
         23    2    1    2    0    0 -0.78563422246E+02 -0.22053111845E+02 -0.46394912143E+02  0.12990779302E+03  0.89805321426E+02 0.  0.
        -11    1    4    4    0    0 -0.12479156155E+02 -0.48470557072E+02 -0.22014267329E+02  0.54678626605E+02  0.51100000000E-03 0.  1.
         11    1    4    4    0    0 -0.66084266091E+02  0.26417445226E+02 -0.24380644814E+02  0.75229166411E+02  0.51100000000E-03 0. -1.
    9000005    1    3    3    0    0  0.10077416964E+03  0.50486110658E+02 -0.38677735400E+01  0.11278404279E+03  0.10000000000E+01 0.  0.
    9000005    1    3    3    0    0 -0.22210747398E+02 -0.28432998813E+02  0.54955693386E+01  0.36509642614E+02  0.10000000000E+01 0.  0.
<mgrwt>
<rscale>  0 0.14174680E+03</rscale>
<asrwt>0</asrwt>
<pdfrwt beam="1">  1        2 0.18033412E-01 0.14928481E+03</pdfrwt>
<pdfrwt beam="2">  1       -2 0.24920661E-01 0.14928481E+03</pdfrwt>
<totfact> 0.43077909E+03</totfact>
</mgrwt>
</event>
<event>
 8    2  0.8128359E-004  0.1272322E+03  0.7818608E-02  0.1246222E+00
         -2   -1    0    0    0  501 -0.00000000000E+00  0.00000000000E+00  0.98388456575E+01  0.98388459879E+01  0.25500000000E-02 0.  1.
          2   -1    0    0  501    0  0.00000000000E+00 -0.00000000000E+00 -0.12635582482E+04  0.12635582482E+04  0.25500000000E-02 0. -1.
         25    2    1    2    0    0 -0.21730816031E+02 -0.95120526692E+01 -0.78441305957E+03  0.79466463720E+03  0.12500132032E+03 0.  0.
         23    2    1    2    0    0  0.21730816031E+02  0.95120526692E+01 -0.46930634293E+03  0.47873245695E+03  0.91507454937E+02 0.  0.
        -11    1    4    4    0    0  0.19432553824E+02 -0.39726121890E+02 -0.18725953418E+03  0.19241081583E+03  0.51100000000E-03 0. -1.
         11    1    4    4    0    0  0.22982622070E+01  0.49238174559E+02 -0.28204680875E+03  0.28632164112E+03  0.51100000000E-03 0.  1.
    9000005    1    3    3    0    0 -0.42079348131E+02 -0.59570332180E+02 -0.47478977391E+03  0.48035989157E+03  0.10000000000E+01 0.  0.
    9000005    1    3    3    0    0  0.20348532099E+02  0.50058279510E+02 -0.30962328566E+03  0.31430474564E+03  0.10000000000E+01 0.  0.
<mgrwt>
<rscale>  0 0.11812523E+03</rscale>
<asrwt>0</asrwt>
<pdfrwt beam="2">  1        2 0.19439345E+00 0.12723222E+03</pdfrwt>
<pdfrwt beam="1">  1       -2 0.15136696E-02 0.12723222E+03</pdfrwt>
<totfact> 0.20449788E+04</totfact>
</mgrwt>
</event>
<event>
 8    2  0.8128359E-004  0.1488889E+03  0.7818608E-02  0.1210593E+00
          2   -1    0    0  501    0  0.00000000000E+00  0.00000000000E+00  0.98737230753E+02  0.98737230786E+02  0.25500000000E-02 0. -1.
         -2   -1    0    0    0  501 -0.00000000000E+00 -0.00000000000E+00 -0.18832576123E+03  0.18832576125E+03  0.25500000000E-02 0.  1.
         25    2    1    2    0    0 -0.22865463778E+02  0.77586547998E+02 -0.40628954136E+02  0.15433276337E+03  0.12500155228E+03 0.  0.
         23    2    1    2    0    0  0.22865463778E+02 -0.77586547998E+02 -0.48959576346E+02  0.13273022867E+03  0.93154557710E+02 0.  0.
        -11    1    4    4    0    0  0.89491854340E+01  0.15343925322E+02  0.11345426189E+02  0.21077064783E+02  0.51100000000E-03 0. -1.
         11    1    4    4    0    0  0.13916278344E+02 -0.92930473320E+02 -0.60305002535E+02  0.11165316388E+03  0.51100000000E-03 0.  1.
    9000005    1    3    3    0    0  0.11991980657E+02 -0.28072359114E+02  0.99343011336E+01  0.32117834381E+02  0.10000000000E+01 0.  0.
    9000005    1    3    3    0    0 -0.34857444435E+02  0.10565890711E+03 -0.50563255269E+02  0.12221492899E+03  0.10000000000E+01 0.  0.
<mgrwt>
<rscale>  0 0.14205268E+03</rscale>
<asrwt>0</asrwt>
<pdfrwt beam="1">  1        2 0.15190343E-01 0.14888885E+03</pdfrwt>
<pdfrwt beam="2">  1       -2 0.28973194E-01 0.14888885E+03</pdfrwt>
<totfact> 0.40254867E+03</totfact>
</mgrwt>
</event>
<event>
 8    2  0.8128359E-004  0.1385915E+03  0.7818608E-02  0.1233729E+00
          2   -1    0    0  501    0  0.00000000000E+00  0.00000000000E+00  0.87040019618E+02  0.87040019656E+02  0.25500000000E-02 0. -1.
         -2   -1    0    0    0  501 -0.00000000000E+00 -0.00000000000E+00 -0.15662582608E+03  0.15662582610E+03  0.25500000000E-02 0.  1.
         25    2    1    2    0    0  0.58286958857E+02 -0.13606208588E+02 -0.50363898555E+02  0.14745893097E+03  0.12500046224E+03 0.  0.
         23    2    1    2    0    0 -0.58286958857E+02  0.13606208588E+02 -0.19221907903E+02  0.96206914782E+02  0.72827125603E+02 0.  0.
        -11    1    4    4    0    0 -0.48843571107E+02  0.16671603859E+02 -0.45068715792E+02  0.68518800027E+02  0.51100000000E-03 0.  1.
         11    1    4    4    0    0 -0.94433877492E+01 -0.30653952713E+01  0.25846807889E+02  0.27688114755E+02  0.51100000000E-03 0. -1.
    9000005    1    3    3    0    0  0.15990686568E+02  0.14350522029E+02  0.39098159471E+02  0.44624047479E+02  0.10000000000E+01 0.  0.
    9000005    1    3    3    0    0  0.42296272289E+02 -0.27956730617E+02 -0.89462058026E+02  0.10283488349E+03  0.10000000000E+01 0.  0.
<mgrwt>
<rscale>  0 0.12586141E+03</rscale>
<asrwt>0</asrwt>
<pdfrwt beam="1">  1        2 0.13390772E-01 0.13859154E+03</pdfrwt>
<pdfrwt beam="2">  1       -2 0.24096281E-01 0.13859154E+03</pdfrwt>
<totfact> 0.64350503E+03</totfact>
</mgrwt>
</event>
<event>
 8    2  0.8128359E-004  0.1887594E+03  0.7818608E-02  0.1165571E+00
         -2   -1    0    0    0  501 -0.00000000000E+00  0.00000000000E+00  0.19026409981E+02  0.19026410152E+02  0.25500000000E-02 0.  1.
          2   -1    0    0  501    0  0.00000000000E+00 -0.00000000000E+00 -0.17132626688E+04  0.17132626688E+04  0.25500000000E-02 0. -1.
         25    2    1    2    0    0 -0.12950602730E+03  0.56859703186E+02 -0.72203157929E+03  0.74629732607E+03  0.12500104177E+03 0.  0.
         23    2    1    2    0    0  0.12950602730E+03 -0.56859703186E+02 -0.97220467956E+03  0.98599175292E+03  0.83623925510E+02 0.  0.
        -11    1    4    4    0    0  0.65726727756E+02 -0.70528648236E+02 -0.48984751216E+03  0.49924430706E+03  0.51100000000E-03 0.  1.
         11    1    4    4    0    0  0.63779299548E+02  0.13668945050E+02 -0.48235716740E+03  0.48674744586E+03  0.51100000000E-03 0. -1.
    9000005    1    3    3    0    0 -0.46452535978E+02 -0.39895445521E+02 -0.23276587468E+03  0.24068742611E+03  0.10000000000E+01 0.  0.
    9000005    1    3    3    0    0 -0.83053491327E+02  0.96755148707E+02 -0.48926570462E+03  0.50560989996E+03  0.10000000000E+01 0.  0.
<mgrwt>
<rscale>  0 0.18232550E+03</rscale>
<asrwt>0</asrwt>
<pdfrwt beam="2">  1        2 0.26357875E+00 0.18875936E+03</pdfrwt>
<pdfrwt beam="1">  1       -2 0.29271414E-02 0.18875936E+03</pdfrwt>
<totfact> 0.45994850E+03</totfact>
</mgrwt>
</event>
<event>
 8    2  0.8128359E-004  0.1525268E+03  0.7818608E-02  0.1206086E+00
         -2   -1    0    0    0  501 -0.00000000000E+00  0.00000000000E+00  0.22923988333E+02  0.22923988475E+02  0.25500000000E-02 0. -1.
          2   -1    0    0  501    0  0.00000000000E+00 -0.00000000000E+00 -0.99650737986E+03  0.99650737986E+03  0.25500000000E-02 0.  1.
         25    2    1    2    0    0  0.83022240008E+02 -0.27330576846E+02 -0.72146030892E+03  0.73740722004E+03  0.12499911219E+03 0.  0.
         23    2    1    2    0    0 -0.83022240008E+02  0.27330576846E+02 -0.25212308260E+03  0.28202414830E+03  0.91279344187E+02 0.  0.
        -11    1    4    4    0    0 -0.36111392695E+02  0.21589335452E+02 -0.22206286489E+03  0.22601338025E+03  0.51100000000E-03 0.  1.
         11    1    4    4    0    0 -0.46910847314E+02  0.57412413944E+01 -0.30060217714E+02  0.56010768051E+02  0.51100000000E-03 0. -1.
    9000005    1    3    3    0    0  0.75496042821E+02  0.12891132859E+02 -0.65421707410E+03  0.65868567150E+03  0.10000000000E+01 0.  0.
    9000005    1    3    3    0    0  0.75261971873E+01 -0.40221709705E+02 -0.67243234818E+02  0.78721548540E+02  0.10000000000E+01 0.  0.
<mgrwt>
<rscale>  0 0.14552182E+03</rscale>
<asrwt>0</asrwt>
<pdfrwt beam="2">  1        2 0.15330879E+00 0.15252682E+03</pdfrwt>
<pdfrwt beam="1">  1       -2 0.35267682E-02 0.15252682E+03</pdfrwt>
<totfact> 0.85300396E+03</totfact>
</mgrwt>
</event>
<event>
 8    2  0.8128359E-004  0.1371547E+03  0.7818608E-02  0.1229283E+00
          2   -1    0    0  501    0  0.00000000000E+00  0.00000000000E+00  0.27749555041E+03  0.27749555042E+03  0.25500000000E-02 0.  1.
         -2   -1    0    0    0  501 -0.00000000000E+00 -0.00000000000E+00 -0.63804262939E+02  0.63804262990E+02  0.25500000000E-02 0. -1.
         25    2    1    2    0    0  0.45289597531E+02 -0.33663488101E+02  0.50040159971E+02  0.14599803834E+03  0.12500812579E+03 0.  0.
         23    2    1    2    0    0 -0.45289597531E+02  0.33663488101E+02  0.16365112750E+03  0.19530177507E+03  0.90425183097E+02 0.  0.
        -11    1    4    4    0    0 -0.84130583128E+01 -0.12749066767E+02  0.12176100992E+03  0.12271536901E+03  0.51100000000E-03 0.  1.
         11    1    4    4    0    0 -0.36876539219E+02  0.46412554868E+02  0.41890117581E+02  0.72586406064E+02  0.51100000000E-03 0. -1.
    9000005    1    3    3    0    0 -0.68012001872E+01 -0.71513569777E+02  0.17969751210E+02  0.74056457820E+02  0.10000000000E+01 0.  0.
    9000005    1    3    3    0    0  0.52090797719E+02  0.37850081676E+02  0.32070408761E+02  0.71941580522E+02  0.10000000000E+01 0.  0.
<mgrwt>
<rscale>  0 0.12877617E+03</rscale>
<asrwt>0</asrwt>
<pdfrwt beam="1">  1        2 0.42691623E-01 0.13715469E+03</pdfrwt>
<pdfrwt beam="2">  1       -2 0.98160404E-02 0.13715469E+03</pdfrwt>
<totfact> 0.77362252E+03</totfact>
</mgrwt>
</event>
<event>
 8    2  0.8128359E-004  0.1357056E+03  0.7818608E-02  0.1231091E+00
          2   -1    0    0  501    0  0.00000000000E+00  0.00000000000E+00  0.19451910962E+04  0.19451910962E+04  0.25500000000E-02 0. -1.
         -2   -1    0    0    0  501 -0.00000000000E+00 -0.00000000000E+00 -0.80527417595E+01  0.80527421632E+01  0.25500000000E-02 0.  1.
         25    2    1    2    0    0 -0.44965385978E+02  0.27789070884E+02  0.13315010986E+04  0.13383987346E+04  0.12498751494E+03 0.  0.
         23    2    1    2    0    0  0.44965385978E+02 -0.27789070884E+02  0.60563725584E+03  0.61484510373E+03  0.91890682485E+02 0.  0.
        -11    1    4    4    0    0 -0.16506267779E+02  0.20960432639E+02  0.19052338727E+03  0.19238232172E+03  0.51100000000E-03 0. -1.
         11    1    4    4    0    0  0.61471653758E+02 -0.48749503524E+02  0.41511386857E+03  0.42246278201E+03  0.51100000000E-03 0.  1.
    9000005    1    3    3    0    0  0.18222756612E+02 -0.37588503754E+02  0.29970354653E+03  0.30260234677E+03  0.10000000000E+01 0.  0.
    9000005    1    3    3    0    0 -0.63188142590E+02  0.65377574639E+02  0.10317975521E+04  0.10357963878E+04  0.10000000000E+01 0.  0.
<mgrwt>
<rscale>  0 0.12758054E+03</rscale>
<asrwt>0</asrwt>
<pdfrwt beam="1">  1        2 0.29926100E+00 0.13570555E+03</pdfrwt>
<pdfrwt beam="2">  1       -2 0.12388800E-02 0.13570555E+03</pdfrwt>
<totfact> 0.12128277E+04</totfact>
</mgrwt>
</event>
<event>
 8    2  0.8128359E-004  0.1288592E+03  0.7818608E-02  0.1244213E+00
         -2   -1    0    0    0  501 -0.00000000000E+00  0.00000000000E+00  0.12134287558E+03  0.12134287561E+03  0.25500000000E-02 0.  1.
          2   -1    0    0  501    0  0.00000000000E+00 -0.00000000000E+00 -0.10302382004E+03  0.10302382008E+03  0.25500000000E-02 0. -1.
         25    2    1    2    0    0  0.23207003720E+02 -0.20997475346E+02  0.11293096108E+02  0.12935307740E+03  0.12500090247E+03 0.  0.
         23    2    1    2    0    0 -0.23207003720E+02  0.20997475346E+02  0.70259594318E+01  0.95013618290E+02  0.89435812525E+02 0.  0.
        -11    1    4    4    0    0 -0.69275875081E+01  0.25844972107E+02  0.45596989094E+02  0.52868132808E+02  0.51100000000E-03 0.  1.
         11    1    4    4    0    0 -0.16279416212E+02 -0.48474967608E+01 -0.38571029662E+02  0.42145485482E+02  0.51100000000E-03 0. -1.
    9000005    1    3    3    0    0  0.32127352781E+02  0.46941677258E+02 -0.96287700783E+01  0.57700962503E+02  0.10000000000E+01 0.  0.
    9000005    1    3    3    0    0 -0.89203490608E+01 -0.67939152604E+02  0.20921866186E+02  0.71652114893E+02  0.10000000000E+01 0.  0.
<mgrwt>
<rscale>  0 0.11932606E+03</rscale>
<asrwt>0</asrwt>
<pdfrwt beam="2">  1        2 0.15849818E-01 0.12885917E+03</pdfrwt>
<pdfrwt beam="1">  1       -2 0.18668135E-01 0.12885917E+03</pdfrwt>
<totfact> 0.81143062E+03</totfact>
</mgrwt>
</event>
<event>
 8    2  0.8128359E-004  0.1343439E+03  0.7818608E-02  0.1235165E+00
         -2   -1    0    0    0  501 -0.00000000000E+00  0.00000000000E+00  0.13598345612E+02  0.13598345851E+02  0.25500000000E-02 0.  1.
          2   -1    0    0  501    0  0.00000000000E+00 -0.00000000000E+00 -0.12376623041E+04  0.12376623041E+04  0.25500000000E-02 0. -1.
         25    2    1    2    0    0  0.36561982024E+02 -0.32960985498E+02 -0.94805334258E+03  0.95752463597E+03  0.12500033211E+03 0.  0.
         23    2    1    2    0    0 -0.36561982024E+02  0.32960985498E+02 -0.27601061592E+03  0.29373601399E+03  0.87611533031E+02 0.  0.
        -11    1    4    4    0    0 -0.37661459631E+02  0.11110290340E+02 -0.26733021901E+03  0.27019857529E+03  0.51100000000E-03 0. -1.
         11    1    4    4    0    0  0.10994776069E+01  0.21850695158E+02 -0.86803969145E+01  0.23537438704E+02  0.51100000000E-03 0.  1.
    9000005    1    3    3    0    0  0.53523143792E+02 -0.73058497237E+02 -0.61382424688E+03  0.62047036755E+03  0.10000000000E+01 0.  0.
    9000005    1    3    3    0    0 -0.16961161768E+02  0.40097511739E+02 -0.33422909569E+03  0.33705426842E+03  0.10000000000E+01 0.  0.
<mgrwt>
<rscale>  0 0.12493906E+03</rscale>
<asrwt>0</asrwt>
<pdfrwt beam="2">  1        2 0.19040950E+00 0.13434392E+03</pdfrwt>
<pdfrwt beam="1">  1       -2 0.20920542E-02 0.13434392E+03</pdfrwt>
<totfact> 0.13274402E+04</totfact>
</mgrwt>
</event>
<event>
 8    2  0.8128359E-004  0.1448073E+03  0.7818608E-02  0.1217220E+00
         -2   -1    0    0    0  501 -0.00000000000E+00  0.00000000000E+00  0.47757427133E+02  0.47757427201E+02  0.25500000000E-02 0.  1.
          2   -1    0    0  501    0  0.00000000000E+00 -0.00000000000E+00 -0.45352209826E+03  0.45352209827E+03  0.25500000000E-02 0. -1.
         25    2    1    2    0    0  0.27113658296E+02 -0.67906418534E+02 -0.33500395313E+03  0.36496138743E+03  0.12499093388E+03 0.  0.
         23    2    1    2    0    0 -0.27113658296E+02  0.67906418534E+02 -0.70760717992E+02  0.13631813804E+03  0.90714515948E+02 0.  0.
        -11    1    4    4    0    0 -0.34654754781E+02 -0.71744656672E+00  0.36026071547E+01  0.34848895780E+02  0.51100000000E-03 0.  1.
         11    1    4    4    0    0  0.75410964854E+01  0.68623865101E+02 -0.74363325147E+02  0.10146924226E+03  0.51100000000E-03 0. -1.
    9000005    1    3    3    0    0  0.50933061779E+02 -0.92121149105E+02 -0.29037902324E+03  0.30887126774E+03  0.10000000000E+01 0.  0.
    9000005    1    3    3    0    0 -0.23819403483E+02  0.24214730571E+02 -0.44624929889E+02  0.56090119687E+02  0.10000000000E+01 0.  0.
<mgrwt>
<rscale>  0 0.13714742E+03</rscale>
<asrwt>0</asrwt>
<pdfrwt beam="2">  1        2 0.69772628E-01 0.14480734E+03</pdfrwt>
<pdfrwt beam="1">  1       -2 0.73472968E-02 0.14480734E+03</pdfrwt>
<totfact> 0.72080985E+03</totfact>
</mgrwt>
</event>
<event>
 8    2  0.8128359E-004  0.1308483E+03  0.7818608E-02  0.1240110E+00
         -2   -1    0    0    0  501 -0.00000000000E+00  0.00000000000E+00  0.79546719763E+01  0.79546723851E+01  0.25500000000E-02 0.  1.
          2   -1    0    0  501    0  0.00000000000E+00 -0.00000000000E+00 -0.16825727185E+04  0.16825727185E+04  0.25500000000E-02 0. -1.
         25    2    1    2    0    0 -0.38192544493E+02  0.60483714248E+01 -0.83872929850E+03  0.84887462035E+03  0.12500412658E+03 0.  0.
         23    2    1    2    0    0  0.38192544493E+02 -0.60483714248E+01 -0.83588874799E+03  0.84165277050E+03  0.90410916524E+02 0.  0.
        -11    1    4    4    0    0  0.24678507471E+02  0.30441959477E+02 -0.67456652451E+03  0.67570388309E+03  0.51100000000E-03 0. -1.
         11    1    4    4    0    0  0.13514037022E+02 -0.36490330902E+02 -0.16132222347E+03  0.16594888741E+03  0.51100000000E-03 0.  1.
    9000005    1    3    3    0    0  0.43677961052E+02  0.93753984433E+01 -0.20130092924E+03  0.20620069469E+03  0.10000000000E+01 0.  0.
    9000005    1    3    3    0    0 -0.81870505545E+02 -0.33270270185E+01 -0.63742836926E+03  0.64267392566E+03  0.10000000000E+01 0.  0.
<mgrwt>
<rscale>  0 0.12182909E+03</rscale>
<asrwt>0</asrwt>
<pdfrwt beam="2">  1        2 0.25885706E+00 0.13084833E+03</pdfrwt>
<pdfrwt beam="1">  1       -2 0.12237971E-02 0.13084833E+03</pdfrwt>
<totfact> 0.16781560E+04</totfact>
</mgrwt>
</event>
<event>
 8    2  0.8128359E-004  0.1828895E+03  0.7818608E-02  0.1169734E+00
         -2   -1    0    0    0  501 -0.00000000000E+00  0.00000000000E+00  0.14705263617E+03  0.14705263619E+03  0.25500000000E-02 0.  1.
          2   -1    0    0  501    0  0.00000000000E+00 -0.00000000000E+00 -0.21053422091E+03  0.21053422093E+03  0.25500000000E-02 0. -1.
         25    2    1    2    0    0 -0.12961537138E+03 -0.32023789609E+02 -0.38792539408E+01  0.18293066820E+03  0.12499165235E+03 0.  0.
         23    2    1    2    0    0  0.12961537138E+03  0.32023789609E+02 -0.59602330805E+02  0.17465618892E+03  0.95533653186E+02 0.  0.
        -11    1    4    4    0    0  0.75427776552E+02  0.39390493815E+02  0.10508211786E+02  0.85740206402E+02  0.51100000000E-03 0.  1.
         11    1    4    4    0    0  0.54187594828E+02 -0.73667042069E+01 -0.70110542591E+02  0.88915982516E+02  0.51100000000E-03 0. -1.
    9000005    1    3    3    0    0 -0.10923790690E+03  0.23248787943E+02  0.29090759723E+02  0.11541533150E+03  0.10000000000E+01 0.  0.
    9000005    1    3    3    0    0 -0.20377464481E+02 -0.55272577551E+02 -0.32970013663E+02  0.67515336693E+02  0.10000000000E+01 0.  0.
<mgrwt>
<rscale>  0 0.17801894E+03</rscale>
<asrwt>0</asrwt>
<pdfrwt beam="2">  1        2 0.32389880E-01 0.18288953E+03</pdfrwt>
<pdfrwt beam="1">  1       -2 0.22623482E-01 0.18288953E+03</pdfrwt>
<totfact> 0.26812045E+03</totfact>
</mgrwt>
</event>
<event>
 8    2  0.8128359E-004  0.1273949E+03  0.7818608E-02  0.1246249E+00
          2   -1    0    0  501    0  0.00000000000E+00  0.00000000000E+00  0.24500040000E+04  0.24500040000E+04  0.25500000000E-02 0. -1.
         -2   -1    0    0    0  501 -0.00000000000E+00 -0.00000000000E+00 -0.66389256076E+01  0.66389260973E+01  0.25500000000E-02 0.  1.
         25    2    1    2    0    0  0.19387207186E+02 -0.15106785489E+02  0.75630169239E+03  0.76695613624E+03  0.12500154495E+03 0.  0.
         23    2    1    2    0    0 -0.19387207186E+02  0.15106785489E+02  0.16870633820E+04  0.16896867899E+04  0.90854356771E+02 0.  0.
        -11    1    4    4    0    0 -0.34424320858E+02 -0.30510830259E+02  0.86197407652E+03  0.86320058690E+03  0.51100000000E-03 0. -1.
         11    1    4    4    0    0  0.15037113672E+02  0.45617615747E+02  0.82508930551E+03  0.82648620298E+03  0.51100000000E-03 0.  1.
    9000005    1    3    3    0    0 -0.18322179829E+01  0.33235344732E+02  0.61831727203E+03  0.61921336714E+03  0.10000000000E+01 0.  0.
    9000005    1    3    3    0    0  0.21219425169E+02 -0.48342130220E+02  0.13798442036E+03  0.14774276910E+03  0.10000000000E+01 0.  0.
<mgrwt>
<rscale>  0 0.11810946E+03</rscale>
<asrwt>0</asrwt>
<pdfrwt beam="1">  1        2 0.37692438E+00 0.12739492E+03</pdfrwt>
<pdfrwt beam="2">  1       -2 0.10213714E-02 0.12739492E+03</pdfrwt>
<totfact> 0.87419929E+03</totfact>
</mgrwt>
</event>
<event>
 8    2  0.8128359E-004  0.1405730E+03  0.7818608E-02  0.1225815E+00
          2   -1    0    0  501    0  0.00000000000E+00  0.00000000000E+00  0.42876099680E+03  0.42876099681E+03  0.25500000000E-02 0. -1.
         -2   -1    0    0    0  501 -0.00000000000E+00 -0.00000000000E+00 -0.39028275458E+02  0.39028275541E+02  0.25500000000E-02 0.  1.
         25    2    1    2    0    0 -0.21441124121E+02  0.60576351979E+02  0.28856662258E+03  0.32098516151E+03  0.12502624532E+03 0.  0.
         23    2    1    2    0    0  0.21441124121E+02 -0.60576351979E+02  0.10116609877E+03  0.14680411084E+03  0.84780016504E+02 0.  0.
        -11    1    4    4    0    0  0.36284753199E+02 -0.18878319053E+02  0.93269615719E+02  0.10184397607E+03  0.51100000000E-03 0. -1.
         11    1    4    4    0    0 -0.14843629078E+02 -0.41698032926E+02  0.78964830462E+01  0.44960134773E+02  0.51100000000E-03 0.  1.
    9000005    1    3    3    0    0  0.87545634953E+01  0.85243166931E+02  0.25667608389E+03  0.27060423488E+03  0.10000000000E+01 0.  0.
    9000005    1    3    3    0    0 -0.30195687616E+02 -0.24666814952E+02  0.31890538682E+02  0.50380926628E+02  0.10000000000E+01 0.  0.
<mgrwt>
<rscale>  0 0.13111196E+03</rscale>
<asrwt>0</asrwt>
<pdfrwt beam="1">  1        2 0.65963227E-01 0.14057304E+03</pdfrwt>
<pdfrwt beam="2">  1       -2 0.60043503E-02 0.14057304E+03</pdfrwt>
<totfact> 0.10405103E+04</totfact>
</mgrwt>
</event>
<event>
 8    2  0.8128359E-004  0.1928358E+03  0.7818608E-02  0.1160727E+00
          2   -1    0    0  501    0  0.00000000000E+00  0.00000000000E+00  0.84720300480E+03  0.84720300480E+03  0.25500000000E-02 0.  1.
         -2   -1    0    0    0  501 -0.00000000000E+00 -0.00000000000E+00 -0.40149700832E+02  0.40149700913E+02  0.25500000000E-02 0. -1.
         25    2    1    2    0    0  0.49841137075E+01  0.14674680614E+03  0.48765711690E+03  0.52439974501E+03  0.12500464952E+03 0.  0.
         23    2    1    2    0    0 -0.49841137075E+01 -0.14674680614E+03  0.31939618707E+03  0.36295296071E+03  0.90340804021E+02 0.  0.
        -11    1    4    4    0    0  0.98994377339E+01 -0.15331474461E+03  0.30369257247E+03  0.34034186982E+03  0.51100000000E-03 0.  1.
         11    1    4    4    0    0 -0.14883551441E+02  0.65679384700E+01  0.15703614604E+02  0.22611090888E+02  0.51100000000E-03 0. -1.
    9000005    1    3    3    0    0  0.11899147090E+01  0.16283666242E+03  0.35327009813E+03  0.38899608836E+03  0.10000000000E+01 0.  0.
    9000005    1    3    3    0    0  0.37941989986E+01 -0.16089856281E+02  0.13438701877E+03  0.13540365665E+03  0.10000000000E+01 0.  0.
<mgrwt>
<rscale>  0 0.18750958E+03</rscale>
<asrwt>0</asrwt>
<pdfrwt beam="1">  1        2 0.13033892E+00 0.19283576E+03</pdfrwt>
<pdfrwt beam="2">  1       -2 0.61768774E-02 0.19283576E+03</pdfrwt>
<totfact> 0.45985547E+03</totfact>
</mgrwt>
</event>
<event>
 8    2  0.8128359E-004  0.1941564E+03  0.7818608E-02  0.1159286E+00
          2   -1    0    0  501    0  0.00000000000E+00  0.00000000000E+00  0.10398178958E+04  0.10398178958E+04  0.25500000000E-02 0.  1.
         -2   -1    0    0    0  501 -0.00000000000E+00 -0.00000000000E+00 -0.32822056595E+02  0.32822056694E+02  0.25500000000E-02 0. -1.
         25    2    1    2    0    0  0.14749163776E+03 -0.17831629349E+02  0.49804055283E+03  0.53454757339E+03  0.12499986295E+03 0.  0.
         23    2    1    2    0    0 -0.14749163776E+03  0.17831629349E+02  0.50895528640E+03  0.53809237913E+03  0.91848651108E+02 0.  0.
        -11    1    4    4    0    0 -0.62608806000E+02 -0.32311354580E+02  0.14797558842E+03  0.16389222371E+03  0.51100000000E-03 0.  1.
         11    1    4    4    0    0 -0.84882831763E+02  0.50142983929E+02  0.36097969798E+03  0.37420015542E+03  0.51100000000E-03 0. -1.
    9000005    1    3    3    0    0  0.19904905979E+02  0.38292118270E+02  0.21201940980E+03  0.21636941035E+03  0.10000000000E+01 0.  0.
    9000005    1    3    3    0    0  0.12758673178E+03 -0.56123747619E+02  0.28602114302E+03  0.31817816303E+03  0.10000000000E+01 0.  0.
<mgrwt>
<rscale>  0 0.18908862E+03</rscale>
<asrwt>0</asrwt>
<pdfrwt beam="1">  1        2 0.15997201E+00 0.19415642E+03</pdfrwt>
<pdfrwt beam="2">  1       -2 0.50495463E-02 0.19415642E+03</pdfrwt>
<totfact> 0.47366947E+03</totfact>
</mgrwt>
</event>
<event>
 8    2  0.8128359E-004  0.1379834E+03  0.7818608E-02  0.1227754E+00
         -2   -1    0    0    0  501 -0.00000000000E+00  0.00000000000E+00  0.35433332190E+03  0.35433332191E+03  0.25500000000E-02 0.  1.
          2   -1    0    0  501    0  0.00000000000E+00 -0.00000000000E+00 -0.43985880108E+02  0.43985880182E+02  0.25500000000E-02 0. -1.
         25    2    1    2    0    0  0.11524551372E+02 -0.57290601981E+02  0.13979075894E+03  0.19642016204E+03  0.12499758162E+03 0.  0.
         23    2    1    2    0    0 -0.11524551372E+02  0.57290601981E+02  0.17055668285E+03  0.20189904005E+03  0.90876905481E+02 0.  0.
        -11    1    4    4    0    0  0.31079084744E+02  0.17783674706E+02  0.21137644097E+02  0.41580868110E+02  0.51100000000E-03 0. -1.
         11    1    4    4    0    0 -0.42603636116E+02  0.39506927275E+02  0.14941903875E+03  0.16031817194E+03  0.51100000000E-03 0.  1.
    9000005    1    3    3    0    0 -0.41241612378E+02 -0.17088267462E+02  0.34394382382E+01  0.44785144990E+02  0.10000000000E+01 0.  0.
    9000005    1    3    3    0    0  0.52766163750E+02 -0.40202334519E+02  0.13635132071E+03  0.15163501705E+03  0.10000000000E+01 0.  0.
<mgrwt>
<rscale>  0 0.12979889E+03</rscale>
<asrwt>0</asrwt>
<pdfrwt beam="2">  1        2 0.67670584E-02 0.13798342E+03</pdfrwt>
<pdfrwt beam="1">  1       -2 0.54512819E-01 0.13798342E+03</pdfrwt>
<totfact> 0.32573696E+03</totfact>
</mgrwt>
</event>
<event>
 8    2  0.8128359E-004  0.1360250E+03  0.7818608E-02  0.1231084E+00
          2   -1    0    0  501    0  0.00000000000E+00  0.00000000000E+00  0.13737086024E+04  0.13737086024E+04  0.25500000000E-02 0. -1.
         -2   -1    0    0    0  501 -0.00000000000E+00 -0.00000000000E+00 -0.10898333131E+02  0.10898333430E+02  0.25500000000E-02 0.  1.
         25    2    1    2    0    0  0.42132346426E+02  0.33198640694E+02  0.65157072336E+03  0.66561792386E+03  0.12500211461E+03 0.  0.
         23    2    1    2    0    0 -0.42132346426E+02 -0.33198640694E+02  0.71123954590E+03  0.71898901197E+03  0.90588207410E+02 0.  0.
        -11    1    4    4    0    0 -0.57690051358E+02 -0.36379343815E+02  0.30905322277E+03  0.31648932555E+03  0.51100000000E-03 0.  1.
         11    1    4    4    0    0  0.15557704932E+02  0.31807031203E+01  0.40218632313E+03  0.40249968642E+03  0.51100000000E-03 0. -1.
    9000005    1    3    3    0    0  0.81681294105E+02  0.46773798970E+02  0.46072867516E+03  0.47024624846E+03  0.10000000000E+01 0.  0.
    9000005    1    3    3    0    0 -0.39548947678E+02 -0.13575158275E+02  0.19084204820E+03  0.19537167539E+03  0.10000000000E+01 0.  0.
<mgrwt>
<rscale>  0 0.12758476E+03</rscale>
<asrwt>0</asrwt>
<pdfrwt beam="1">  1        2 0.21133982E+00 0.13602505E+03</pdfrwt>
<pdfrwt beam="2">  1       -2 0.16766664E-02 0.13602505E+03</pdfrwt>
<totfact> 0.15465112E+04</totfact>
</mgrwt>
</event>
<event>
 8    2  0.8128359E-004  0.1438122E+03  0.7818608E-02  0.1217987E+00
         -2   -1    0    0    0  501 -0.00000000000E+00  0.00000000000E+00  0.82708941028E+02  0.82708941068E+02  0.25500000000E-02 0.  1.
          2   -1    0    0  501    0  0.00000000000E+00 -0.00000000000E+00 -0.21757077119E+03  0.21757077121E+03  0.25500000000E-02 0. -1.
         25    2    1    2    0    0 -0.48498585291E+02  0.51997835924E+02 -0.10890626294E+03  0.18039545108E+03  0.12500422771E+03 0.  0.
         23    2    1    2    0    0  0.48498585291E+02 -0.51997835924E+02 -0.25955567222E+02  0.11988426120E+03  0.92965891038E+02 0.  0.
        -11    1    4    4    0    0  0.36328682113E+02 -0.49263260890E+02  0.25962905503E+02  0.66488453735E+02  0.51100000000E-03 0.  1.
         11    1    4    4    0    0  0.12169903177E+02 -0.27345750341E+01 -0.51918472725E+02  0.53395807460E+02  0.51100000000E-03 0. -1.
    9000005    1    3    3    0    0 -0.45399497791E+01 -0.12289341703E+02 -0.10128940789E+03  0.10213805958E+03  0.10000000000E+01 0.  0.
    9000005    1    3    3    0    0 -0.43958635511E+02  0.64287177627E+02 -0.76168550475E+01  0.78257391498E+02  0.10000000000E+01 0.  0.
<mgrwt>
<rscale>  0 0.13659383E+03</rscale>
<asrwt>0</asrwt>
<pdfrwt beam="2">  1        2 0.33472426E-01 0.14381219E+03</pdfrwt>
<pdfrwt beam="1">  1       -2 0.12724453E-01 0.14381219E+03</pdfrwt>
<totfact> 0.66641429E+03</totfact>
</mgrwt>
</event>
<event>
 8    2  0.8128359E-004  0.1360699E+03  0.7818608E-02  0.1230446E+00
         -2   -1    0    0    0  501 -0.00000000000E+00  0.00000000000E+00  0.22015354561E+03  0.22015354562E+03  0.25500000000E-02 0.  1.
          2   -1    0    0  501    0  0.00000000000E+00 -0.00000000000E+00 -0.90019681636E+02  0.90019681672E+02  0.25500000000E-02 0. -1.
         25    2    1    2    0    0  0.32826342441E+02  0.42568950943E+02  0.14918145629E+03  0.20191615228E+03  0.12500136522E+03 0.  0.
         23    2    1    2    0    0 -0.32826342441E+02 -0.42568950943E+02 -0.19047592320E+02  0.10825707502E+03  0.92016841805E+02 0.  0.
        -11    1    4    4    0    0 -0.48686142190E+02 -0.63559602110E+02 -0.11484530664E+02  0.80882988981E+02  0.51100000000E-03 0.  1.
         11    1    4    4    0    0  0.15859799749E+02  0.20990651167E+02 -0.75630616557E+01  0.27374086036E+02  0.51100000000E-03 0. -1.
    9000005    1    3    3    0    0 -0.62607765149E+01 -0.52819030345E+01 -0.20089661064E+02  0.21718432354E+02  0.10000000000E+01 0.  0.
    9000005    1    3    3    0    0  0.39087118956E+02  0.47850853978E+02  0.16927111735E+03  0.18019771992E+03  0.10000000000E+01 0.  0.
<mgrwt>
<rscale>  0 0.12800547E+03</rscale>
<asrwt>0</asrwt>
<pdfrwt beam="2">  1        2 0.13849182E-01 0.13606993E+03</pdfrwt>
<pdfrwt beam="1">  1       -2 0.33869776E-01 0.13606993E+03</pdfrwt>
<totfact> 0.33635993E+03</totfact>
</mgrwt>
</event>
<event>
 8    2  0.8128359E-004  0.1862643E+03  0.7818608E-02  0.1166924E+00
          2   -1    0    0  501    0  0.00000000000E+00  0.00000000000E+00  0.23759301885E+03  0.23759301887E+03  0.25500000000E-02 0. -1.
         -2   -1    0    0    0  501 -0.00000000000E+00 -0.00000000000E+00 -0.13039312539E+03  0.13039312542E+03  0.25500000000E-02 0.  1.
         25    2    1    2    0    0 -0.12600736051E+03 -0.56496658290E+02  0.57645181710E+02  0.19498036926E+03  0.12499860049E+03 0.  0.
         23    2    1    2    0    0  0.12600736051E+03  0.56496658290E+02  0.49554711751E+02  0.17300577502E+03  0.91682067129E+02 0.  0.
        -11    1    4    4    0    0  0.19928585058E+02 -0.21375663152E+02  0.26415633286E+02  0.39393567492E+02  0.51100000000E-03 0. -1.
         11    1    4    4    0    0  0.10607877545E+03  0.77872321442E+02  0.23139078466E+02  0.13361220753E+03  0.51100000000E-03 0.  1.
    9000005    1    3    3    0    0 -0.27874715681E+02 -0.80413969592E+02  0.30130341458E+02  0.90289776588E+02  0.10000000000E+01 0.  0.
    9000005    1    3    3    0    0 -0.98132644828E+02  0.23917311302E+02  0.27514840252E+02  0.10469059268E+03  0.10000000000E+01 0.  0.
<mgrwt>
<rscale>  0 0.18091102E+03</rscale>
<asrwt>0</asrwt>
<pdfrwt beam="1">  1        2 0.36552772E-01 0.18626427E+03</pdfrwt>
<pdfrwt beam="2">  1       -2 0.20060481E-01 0.18626427E+03</pdfrwt>
<totfact> 0.28943650E+03</totfact>
</mgrwt>
</event>
<event>
 8    2  0.8128359E-004  0.1414943E+03  0.7818608E-02  0.1222387E+00
         -2   -1    0    0    0  501 -0.00000000000E+00  0.00000000000E+00  0.41414835734E+02  0.41414835813E+02  0.25500000000E-02 0.  1.
          2   -1    0    0  501    0  0.00000000000E+00 -0.00000000000E+00 -0.61951318339E+03  0.61951318339E+03  0.25500000000E-02 0. -1.
         25    2    1    2    0    0 -0.54360950585E+02 -0.37951452918E+02 -0.10893483967E+03  0.17857053031E+03  0.12500083709E+03 0.  0.
         23    2    1    2    0    0  0.54360950585E+02  0.37951452918E+02 -0.46916350799E+03  0.48235748890E+03  0.90326763150E+02 0.  0.
        -11    1    4    4    0    0 -0.46910548916E+01  0.13327616836E+02 -0.31668186740E+03  0.31699690300E+03  0.51100000000E-03 0. -1.
         11    1    4    4    0    0  0.59052005477E+02  0.24623836083E+02 -0.15248164058E+03  0.16536058590E+03  0.51100000000E-03 0.  1.
    9000005    1    3    3    0    0  0.32918540724E+02 -0.34543359088E+02 -0.65422522426E+02  0.80981358479E+02  0.10000000000E+01 0.  0.
    9000005    1    3    3    0    0 -0.87279491309E+02 -0.34080938305E+01 -0.43512317239E+02  0.97589171829E+02  0.10000000000E+01 0.  0.
<mgrwt>
<rscale>  0 0.13347609E+03</rscale>
<asrwt>0</asrwt>
<pdfrwt beam="2">  1        2 0.95309714E-01 0.14149429E+03</pdfrwt>
<pdfrwt beam="1">  1       -2 0.63715136E-02 0.14149429E+03</pdfrwt>
<totfact> 0.63269102E+03</totfact>
</mgrwt>
</event>
<event>
 8    2  0.8128359E-004  0.1574476E+03  0.7818608E-02  0.1193194E+00
         -2   -1    0    0    0  501 -0.00000000000E+00  0.00000000000E+00  0.39517073378E+02  0.39517073460E+02  0.25500000000E-02 0.  1.
          2   -1    0    0  501    0  0.00000000000E+00 -0.00000000000E+00 -0.70808514467E+03  0.70808514467E+03  0.25500000000E-02 0. -1.
         25    2    1    2    0    0  0.57130259580E+02 -0.76815778363E+02 -0.19735911031E+03  0.25246851398E+03  0.12500080705E+03 0.  0.
         23    2    1    2    0    0 -0.57130259580E+02  0.76815778363E+02 -0.47120896098E+03  0.49513370415E+03  0.11813115472E+03 0.  0.
        -11    1    4    4    0    0 -0.30616405100E+02  0.47941670449E+01 -0.18767933155E+02  0.36229595831E+02  0.51100000000E-03 0.  1.
         11    1    4    4    0    0 -0.26513854480E+02  0.72021611318E+02 -0.45244102782E+03  0.45890410832E+03  0.51100000000E-03 0. -1.
    9000005    1    3    3    0    0  0.10444928323E+02 -0.81685325930E+02 -0.18708270584E+03  0.20440774894E+03  0.10000000000E+01 0.  0.
    9000005    1    3    3    0    0  0.46685331257E+02  0.48695475675E+01 -0.10276404473E+02  0.48060765048E+02  0.10000000000E+01 0.  0.
<mgrwt>
<rscale>  0 0.15608071E+03</rscale>
<asrwt>0</asrwt>
<pdfrwt beam="2">  1        2 0.10893617E+00 0.15744755E+03</pdfrwt>
<pdfrwt beam="1">  1       -2 0.60795503E-02 0.15744755E+03</pdfrwt>
<totfact> 0.58408121E+03</totfact>
</mgrwt>
</event>
<event>
 8    2  0.8128359E-004  0.1421791E+03  0.7818608E-02  0.1222046E+00
          2   -1    0    0  501    0  0.00000000000E+00  0.00000000000E+00  0.26702236669E+04  0.26702236669E+04  0.25500000000E-02 0. -1.
         -2   -1    0    0    0  501 -0.00000000000E+00 -0.00000000000E+00 -0.77837065003E+01  0.77837069180E+01  0.25500000000E-02 0.  1.
         25    2    1    2    0    0  0.47387451225E+02 -0.48422467604E+02  0.20919527431E+04  0.20967787587E+04  0.12499831154E+03 0.  0.
         23    2    1    2    0    0 -0.47387451225E+02  0.48422467604E+02  0.57048721731E+03  0.58122861507E+03  0.88208457464E+02 0.  0.
        -11    1    4    4    0    0 -0.45654512120E+02  0.73254778339E+02  0.43868683102E+03  0.44709812429E+03  0.51100000000E-03 0. -1.
         11    1    4    4    0    0 -0.17329391048E+01 -0.24832310735E+02  0.13180038628E+03  0.13413049079E+03  0.51100000000E-03 0.  1.
    9000005    1    3    3    0    0  0.29782960668E+02  0.17633721058E+02  0.15682346149E+04  0.15686168367E+04  0.10000000000E+01 0.  0.
    9000005    1    3    3    0    0  0.17604490557E+02 -0.66056188662E+02  0.52371812815E+03  0.52816192205E+03  0.10000000000E+01 0.  0.
<mgrwt>
<rscale>  0 0.13371419E+03</rscale>
<asrwt>0</asrwt>
<pdfrwt beam="1">  1        2 0.41080388E+00 0.14217906E+03</pdfrwt>
<pdfrwt beam="2">  1       -2 0.11974926E-02 0.14217906E+03</pdfrwt>
<totfact> 0.53044041E+03</totfact>
</mgrwt>
</event>
<event>
 8    2  0.8128359E-004  0.1359210E+03  0.7818608E-02  0.1240815E+00
          2   -1    0    0  501    0  0.00000000000E+00  0.00000000000E+00  0.93840920715E+03  0.93840920715E+03  0.25500000000E-02 0. -1.
         -2   -1    0    0    0  501 -0.00000000000E+00 -0.00000000000E+00 -0.14777194613E+02  0.14777194833E+02  0.25500000000E-02 0.  1.
         25    2    1    2    0    0  0.51681221370E+02 -0.13333381026E+02  0.40004308526E+03  0.42250322605E+03  0.12500311303E+03 0.  0.
         23    2    1    2    0    0 -0.51681221370E+02  0.13333381026E+02  0.52358892728E+03  0.53068317593E+03  0.68048076836E+02 0.  0.
        -11    1    4    4    0    0  0.57487097042E+01  0.26254577160E+02  0.13359504598E+03  0.13627173880E+03  0.51100000000E-03 0. -1.
         11    1    4    4    0    0 -0.57429931075E+02 -0.12921196134E+02  0.38999388130E+03  0.39441143713E+03  0.51100000000E-03 0.  1.
    9000005    1    3    3    0    0 -0.15908731766E+02  0.99761165362E+01  0.29629479757E+01  0.19036536141E+02  0.10000000000E+01 0.  0.
    9000005    1    3    3    0    0  0.67589953137E+02 -0.23309497562E+02  0.39708013729E+03  0.40346668991E+03  0.10000000000E+01 0.  0.
<mgrwt>
<rscale>  0 0.12139399E+03</rscale>
<asrwt>0</asrwt>
<pdfrwt beam="1">  1        2 0.14437063E+00 0.13592095E+03</pdfrwt>
<pdfrwt beam="2">  1       -2 0.22734148E-02 0.13592095E+03</pdfrwt>
<totfact> 0.17519922E+04</totfact>
</mgrwt>
</event>
<event>
 8    2  0.8128359E-004  0.1484934E+03  0.7818608E-02  0.1211780E+00
         -2   -1    0    0    0  501 -0.00000000000E+00  0.00000000000E+00  0.11122518558E+03  0.11122518561E+03  0.25500000000E-02 0.  1.
          2   -1    0    0  501    0  0.00000000000E+00 -0.00000000000E+00 -0.19390231685E+03  0.19390231686E+03  0.25500000000E-02 0. -1.
         25    2    1    2    0    0 -0.80137290108E+02 -0.19900288115E+01 -0.10496224224E+03  0.18184431691E+03  0.12499735124E+03 0.  0.
         23    2    1    2    0    0  0.80137290108E+02  0.19900288115E+01  0.22285110973E+02  0.12328318556E+03  0.90973469707E+02 0.  0.
        -11    1    4    4    0    0  0.48885946159E+02  0.37494440116E+02 -0.14584464070E+02  0.63311731645E+02  0.51100000000E-03 0. -1.
         11    1    4    4    0    0  0.31251343949E+02 -0.35504411304E+02  0.36869575043E+02  0.59971453916E+02  0.51100000000E-03 0.  1.
    9000005    1    3    3    0    0 -0.91146008886E+02  0.26933049713E+02 -0.11509255344E+03  0.14926580305E+03  0.10000000000E+01 0.  0.
    9000005    1    3    3    0    0  0.11008718778E+02 -0.28923078524E+02  0.10130311198E+02  0.32578513861E+02  0.10000000000E+01 0.  0.
<mgrwt>
<rscale>  0 0.14115712E+03</rscale>
<asrwt>0</asrwt>
<pdfrwt beam="2">  1        2 0.29831126E-01 0.14849338E+03</pdfrwt>
<pdfrwt beam="1">  1       -2 0.17111567E-01 0.14849338E+03</pdfrwt>
<totfact> 0.46604499E+03</totfact>
</mgrwt>
</event>
<event>
 8    2  0.8128359E-004  0.1632117E+03  0.7818608E-02  0.1192117E+00
         -2   -1    0    0    0  501 -0.00000000000E+00  0.00000000000E+00  0.31791500668E+02  0.31791500770E+02  0.25500000000E-02 0.  1.
          2   -1    0    0  501    0  0.00000000000E+00 -0.00000000000E+00 -0.81051828890E+03  0.81051828890E+03  0.25500000000E-02 0. -1.
         25    2    1    2    0    0  0.70809644553E+02  0.77454920169E+02 -0.55507212596E+03  0.57856990758E+03  0.12499921008E+03 0.  0.
         23    2    1    2    0    0 -0.70809644553E+02 -0.77454920169E+02 -0.22365466227E+03  0.26373988209E+03  0.92325765798E+02 0.  0.
        -11    1    4    4    0    0 -0.47412803740E+02 -0.96670085484E+02 -0.19064205639E+03  0.21894627891E+03  0.51100000000E-03 0.  1.
         11    1    4    4    0    0 -0.23396840814E+02  0.19215165316E+02 -0.33012605877E+02  0.44793603173E+02  0.51100000000E-03 0. -1.
    9000005    1    3    3    0    0  0.36130567534E+02  0.52731904953E+02 -0.51849241528E+03  0.52241885151E+03  0.10000000000E+01 0.  0.
    9000005    1    3    3    0    0  0.34679077020E+02  0.24723015216E+02 -0.36579710679E+02  0.56151056069E+02  0.10000000000E+01 0.  0.
<mgrwt>
<rscale>  0 0.15700796E+03</rscale>
<asrwt>0</asrwt>
<pdfrwt beam="2">  1        2 0.12469511E+00 0.16321174E+03</pdfrwt>
<pdfrwt beam="1">  1       -2 0.48910007E-02 0.16321174E+03</pdfrwt>
<totfact> 0.68901044E+03</totfact>
</mgrwt>
</event>
<event>
 8    2  0.8128359E-004  0.1341541E+03  0.7818608E-02  0.1234195E+00
         -2   -1    0    0    0  501 -0.00000000000E+00  0.00000000000E+00  0.91120115912E+02  0.91120115948E+02  0.25500000000E-02 0.  1.
          2   -1    0    0  501    0  0.00000000000E+00 -0.00000000000E+00 -0.16503879170E+03  0.16503879172E+03  0.25500000000E-02 0. -1.
         25    2    1    2    0    0 -0.23645542825E+02  0.42580874125E+02 -0.74005055366E+02  0.15321253690E+03  0.12500036283E+03 0.  0.
         23    2    1    2    0    0  0.23645542825E+02 -0.42580874125E+02  0.86379579521E-01  0.10294637077E+03  0.90695673855E+02 0.  0.
        -11    1    4    4    0    0 -0.28848476107E+02 -0.23017865864E+02 -0.21729176870E+02  0.42827722918E+02  0.51100000000E-03 0. -1.
         11    1    4    4    0    0  0.52494018931E+02 -0.19563008262E+02  0.21815556450E+02  0.60118647850E+02  0.51100000000E-03 0.  1.
    9000005    1    3    3    0    0  0.35670256951E+02  0.23885797041E+01  0.15140740511E+02  0.38837025725E+02  0.10000000000E+01 0.  0.
    9000005    1    3    3    0    0 -0.59315799775E+02  0.40192294421E+02 -0.89145795877E+02  0.11437551117E+03  0.10000000000E+01 0.  0.
<mgrwt>
<rscale>  0 0.12556129E+03</rscale>
<asrwt>0</asrwt>
<pdfrwt beam="2">  1        2 0.25390583E-01 0.13415414E+03</pdfrwt>
<pdfrwt beam="1">  1       -2 0.14018479E-01 0.13415414E+03</pdfrwt>
<totfact> 0.76602484E+03</totfact>
</mgrwt>
</event>
<event>
 8    2  0.8128359E-004  0.1774287E+03  0.7818608E-02  0.1176163E+00
          2   -1    0    0  501    0  0.00000000000E+00  0.00000000000E+00  0.27291766678E+02  0.27291766797E+02  0.25500000000E-02 0. -1.
         -2   -1    0    0    0  501 -0.00000000000E+00 -0.00000000000E+00 -0.10192988039E+04  0.10192988039E+04  0.25500000000E-02 0.  1.
         25    2    1    2    0    0 -0.56957101967E+02  0.11230657233E+03 -0.49221500547E+03  0.52321749553E+03  0.12499623343E+03 0.  0.
         23    2    1    2    0    0  0.56957101967E+02 -0.11230657233E+03 -0.49979203177E+03  0.52337307518E+03  0.90941866890E+02 0.  0.
        -11    1    4    4    0    0  0.33773127777E+02 -0.73768006528E+02 -0.14853337069E+03  0.16924687636E+03  0.51100000000E-03 0. -1.
         11    1    4    4    0    0  0.23183974189E+02 -0.38538565799E+02 -0.35125866107E+03  0.35412619882E+03  0.51100000000E-03 0.  1.
    9000005    1    3    3    0    0 -0.68918976009E+02  0.84290462072E+02 -0.18628233530E+03  0.21577028455E+03  0.10000000000E+01 0.  0.
    9000005    1    3    3    0    0  0.11961874043E+02  0.28016110256E+02 -0.30593267017E+03  0.30744721098E+03  0.10000000000E+01 0.  0.
<mgrwt>
<rscale>  0 0.17162536E+03</rscale>
<asrwt>0</asrwt>
<pdfrwt beam="1">  1        2 0.41987341E-02 0.17742868E+03</pdfrwt>
<pdfrwt beam="2">  1       -2 0.15681517E+00 0.17742868E+03</pdfrwt>
<totfact> 0.55356547E+02</totfact>
</mgrwt>
</event>
<event>
 8    2  0.8128359E-004  0.1866567E+03  0.7818608E-02  0.1167071E+00
         -2   -1    0    0    0  501 -0.00000000000E+00  0.00000000000E+00  0.47635971743E+02  0.47635971811E+02  0.25500000000E-02 0.  1.
          2   -1    0    0  501    0  0.00000000000E+00 -0.00000000000E+00 -0.14457251241E+04  0.14457251241E+04  0.25500000000E-02 0. -1.
         25    2    1    2    0    0 -0.50861419599E+00 -0.13861901350E+03 -0.16420239907E+03  0.24860242204E+03  0.12500098717E+03 0.  0.
         23    2    1    2    0    0  0.50861419599E+00  0.13861901350E+03 -0.12338867533E+04  0.12447586738E+04  0.87932625588E+02 0.  0.
        -11    1    4    4    0    0 -0.39435312222E+02  0.98277850150E+02 -0.72000390224E+03  0.72774947538E+03  0.51100000000E-03 0.  1.
         11    1    4    4    0    0  0.39943926418E+02  0.40341163351E+02 -0.51388285101E+03  0.51700919845E+03  0.51100000000E-03 0. -1.
    9000005    1    3    3    0    0  0.27499016224E+02 -0.59819169226E+02 -0.17301762382E+01  0.65867460934E+02  0.10000000000E+01 0.  0.
    9000005    1    3    3    0    0 -0.28007630420E+02 -0.78799844275E+02 -0.16247222283E+03  0.18273496111E+03  0.10000000000E+01 0.  0.
<mgrwt>
<rscale>  0 0.18075813E+03</rscale>
<asrwt>0</asrwt>
<pdfrwt beam="2">  1        2 0.22241922E+00 0.18665673E+03</pdfrwt>
<pdfrwt beam="1">  1       -2 0.73286122E-02 0.18665673E+03</pdfrwt>
<totfact> 0.15894269E+03</totfact>
</mgrwt>
</event>
<event>
 8    2  0.8128359E-004  0.1631507E+03  0.7818608E-02  0.1192253E+00
          2   -1    0    0  501    0  0.00000000000E+00  0.00000000000E+00  0.69903610266E+03  0.69903610267E+03  0.25500000000E-02 0. -1.
         -2   -1    0    0    0  501 -0.00000000000E+00 -0.00000000000E+00 -0.37878295980E+02  0.37878296066E+02  0.25500000000E-02 0.  1.
         25    2    1    2    0    0  0.92397009712E+02 -0.49558803647E+02  0.21784536995E+03  0.27216680197E+03  0.12499952186E+03 0.  0.
         23    2    1    2    0    0 -0.92397009712E+02  0.49558803647E+02  0.44331243673E+03  0.46474759676E+03  0.92038740263E+02 0.  0.
        -11    1    4    4    0    0 -0.43533809004E+02 -0.25121141566E+02  0.16207707884E+03  0.16969161371E+03  0.51100000000E-03 0. -1.
         11    1    4    4    0    0 -0.48863200708E+02  0.74679945213E+02  0.28123535790E+03  0.29505598305E+03  0.51100000000E-03 0.  1.
    9000005    1    3    3    0    0  0.64455084432E+01 -0.73598222595E+02  0.97280478253E+02  0.12215864438E+03  0.10000000000E+01 0.  0.
    9000005    1    3    3    0    0  0.85951501269E+02  0.24039418949E+02  0.12056489169E+03  0.15000815759E+03  0.10000000000E+01 0.  0.
<mgrwt>
<rscale>  0 0.15689061E+03</rscale>
<asrwt>0</asrwt>
<pdfrwt beam="1">  1        2 0.10754401E+00 0.16315074E+03</pdfrwt>
<pdfrwt beam="2">  1       -2 0.58274303E-02 0.16315074E+03</pdfrwt>
<totfact> 0.63368714E+03</totfact>
</mgrwt>
</event>
<event>
 8    2  0.8128359E-004  0.2153847E+03  0.7818608E-02  0.1140320E+00
          2   -1    0    0  501    0  0.00000000000E+00  0.00000000000E+00  0.74595920974E+03  0.74595920974E+03  0.25500000000E-02 0. -1.
         -2   -1    0    0    0  501 -0.00000000000E+00 -0.00000000000E+00 -0.61353362477E+02  0.61353362530E+02  0.25500000000E-02 0.  1.
         25    2    1    2    0    0  0.16253125646E+03 -0.65947547121E+02  0.44835192876E+03  0.49740327729E+03  0.12500031976E+03 0.  0.
         23    2    1    2    0    0 -0.16253125646E+03  0.65947547121E+02  0.23625391850E+03  0.30990929498E+03  0.97274707965E+02 0.  0.
        -11    1    4    4    0    0 -0.13914660174E+03  0.81123499113E+02  0.15315681720E+03  0.22226067925E+03  0.51100000000E-03 0.  1.
         11    1    4    4    0    0 -0.23384654726E+02 -0.15175951992E+02  0.83097101301E+02  0.87648615735E+02  0.51100000000E-03 0. -1.
    9000005    1    3    3    0    0  0.36021641822E+02  0.29862583246E+02  0.49417050213E+02  0.68061570724E+02  0.10000000000E+01 0.  0.
    9000005    1    3    3    0    0  0.12650961464E+03 -0.95810130367E+02  0.39893487854E+03  0.42934170657E+03  0.10000000000E+01 0.  0.
<mgrwt>
<rscale>  0 0.21158116E+03</rscale>
<asrwt>0</asrwt>
<pdfrwt beam="1">  1        2 0.11476296E+00 0.21538470E+03</pdfrwt>
<pdfrwt beam="2">  1       -2 0.94389781E-02 0.21538470E+03</pdfrwt>
<totfact> 0.28010857E+03</totfact>
</mgrwt>
</event>
<event>
 8    2  0.8128359E-004  0.2099385E+03  0.7818608E-02  0.1145290E+00
          2   -1    0    0  501    0  0.00000000000E+00  0.00000000000E+00  0.45924919974E+03  0.45924919975E+03  0.25500000000E-02 0. -1.
         -2   -1    0    0    0  501 -0.00000000000E+00 -0.00000000000E+00 -0.10094882819E+03  0.10094882823E+03  0.25500000000E-02 0.  1.
         25    2    1    2    0    0 -0.16485591175E+03  0.35659408461E+02  0.28607725298E+03  0.35484416754E+03  0.12500049405E+03 0.  0.
         23    2    1    2    0    0  0.16485591175E+03 -0.35659408461E+02  0.72223118566E+02  0.20535386044E+03  0.92222362205E+02 0.  0.
        -11    1    4    4    0    0  0.51292829365E+02  0.41930248912E+01 -0.18445988422E+02  0.54669829807E+02  0.51100000000E-03 0.  1.
         11    1    4    4    0    0  0.11356308238E+03 -0.39852433352E+02  0.90669106988E+02  0.15068403063E+03  0.51100000000E-03 0. -1.
    9000005    1    3    3    0    0 -0.56151890026E+02  0.24682959912E+02  0.15844601405E+02  0.63358777270E+02  0.10000000000E+01 0.  0.
    9000005    1    3    3    0    0 -0.10870402172E+03  0.10976448549E+02  0.27023265158E+03  0.29148539027E+03  0.10000000000E+01 0.  0.
<mgrwt>
<rscale>  0 0.20536520E+03</rscale>
<asrwt>0</asrwt>
<pdfrwt beam="1">  1        2 0.70653723E-01 0.20993854E+03</pdfrwt>
<pdfrwt beam="2">  1       -2 0.15530589E-01 0.20993854E+03</pdfrwt>
<totfact> 0.21940129E+03</totfact>
</mgrwt>
</event>
<event>
 8    2  0.8128359E-004  0.1382970E+03  0.7818608E-02  0.1230696E+00
         -2   -1    0    0    0  501 -0.00000000000E+00  0.00000000000E+00  0.16710793210E+03  0.16710793212E+03  0.25500000000E-02 0.  1.
          2   -1    0    0  501    0  0.00000000000E+00 -0.00000000000E+00 -0.87409686897E+02  0.87409686935E+02  0.25500000000E-02 0. -1.
         25    2    1    2    0    0 -0.18528898482E+02 -0.56175873980E+02  0.28111686716E+02  0.14112519349E+03  0.12500801739E+03 0.  0.
         23    2    1    2    0    0  0.18528898482E+02  0.56175873980E+02  0.51586558485E+02  0.11339242556E+03  0.81838989867E+02 0.  0.
        -11    1    4    4    0    0  0.33350137062E+02  0.59284539001E+02  0.64313057988E+02  0.93611204643E+02  0.51100000000E-03 0.  1.
         11    1    4    4    0    0 -0.14821238580E+02 -0.31086650208E+01 -0.12726499503E+02  0.19781220921E+02  0.51100000000E-03 0. -1.
    9000005    1    3    3    0    0 -0.16249487135E+00 -0.90944851810E+02  0.40956068745E+02  0.99746639253E+02  0.10000000000E+01 0.  0.
    9000005    1    3    3    0    0 -0.18366403611E+02  0.34768977829E+02 -0.12844382029E+02  0.41378554235E+02  0.10000000000E+01 0.  0.
<mgrwt>
<rscale>  0 0.12784001E+03</rscale>
<asrwt>0</asrwt>
<pdfrwt beam="2">  1        2 0.13447644E-01 0.13829698E+03</pdfrwt>
<pdfrwt beam="1">  1       -2 0.25708912E-01 0.13829698E+03</pdfrwt>
<totfact> 0.57172335E+03</totfact>
</mgrwt>
</event>
<event>
 8    2  0.8128359E-004  0.1482593E+03  0.7818608E-02  0.1213896E+00
          2   -1    0    0  501    0  0.00000000000E+00  0.00000000000E+00  0.17118837552E+04  0.17118837552E+04  0.25500000000E-02 0. -1.
         -2   -1    0    0    0  501 -0.00000000000E+00 -0.00000000000E+00 -0.10627452517E+02  0.10627452823E+02  0.25500000000E-02 0.  1.
         25    2    1    2    0    0  0.30771146596E+02  0.73538481763E+02  0.11134060061E+04  0.11232336097E+04  0.12500414314E+03 0.  0.
         23    2    1    2    0    0 -0.30771146596E+02 -0.73538481763E+02  0.58785029663E+03  0.59927759836E+03  0.84916999982E+02 0.  0.
        -11    1    4    4    0    0 -0.58080300331E+02 -0.47221981561E+02  0.31318708883E+03  0.32200836858E+03  0.51100000000E-03 0.  1.
         11    1    4    4    0    0  0.27309153735E+02 -0.26316500201E+02  0.27466320781E+03  0.27726922978E+03  0.51100000000E-03 0. -1.
    9000005    1    3    3    0    0  0.17347711529E+02  0.92509922142E+02  0.46608326613E+03  0.47549304911E+03  0.10000000000E+01 0.  0.
    9000005    1    3    3    0    0  0.13423435067E+02 -0.18971440380E+02  0.64732273993E+03  0.64774056056E+03  0.10000000000E+01 0.  0.
<mgrwt>
<rscale>  0 0.13957946E+03</rscale>
<asrwt>0</asrwt>
<pdfrwt beam="1">  1        2 0.26336663E+00 0.14825926E+03</pdfrwt>
<pdfrwt beam="2">  1       -2 0.16349933E-02 0.14825926E+03</pdfrwt>
<totfact> 0.10738449E+04</totfact>
</mgrwt>
</event>
<event>
 8    2  0.8128359E-004  0.1514211E+03  0.7818608E-02  0.1207746E+00
          2   -1    0    0  501    0  0.00000000000E+00  0.00000000000E+00  0.68645203340E+03  0.68645203340E+03  0.25500000000E-02 0. -1.
         -2   -1    0    0    0  501 -0.00000000000E+00 -0.00000000000E+00 -0.38835564276E+02  0.38835564360E+02  0.25500000000E-02 0.  1.
         25    2    1    2    0    0  0.36368887427E+02  0.77347303249E+02  0.15320939682E+03  0.21540998377E+03  0.12499216192E+03 0.  0.
         23    2    1    2    0    0 -0.36368887427E+02 -0.77347303249E+02  0.49440707231E+03  0.50987761399E+03  0.90727762088E+02 0.  0.
        -11    1    4    4    0    0  0.15479580840E+02 -0.70590942202E+02  0.27714884198E+03  0.28641609444E+03  0.51100000000E-03 0.  1.
         11    1    4    4    0    0 -0.51848468266E+02 -0.67563610471E+01  0.21725823033E+03  0.22346151956E+03  0.51100000000E-03 0. -1.
    9000005    1    3    3    0    0  0.12437494970E+01  0.10335877674E+03  0.82413190296E+02  0.13220256267E+03  0.10000000000E+01 0.  0.
    9000005    1    3    3    0    0  0.35125137930E+02 -0.26011473493E+02  0.70796206522E+02  0.83207421098E+02  0.10000000000E+01 0.  0.
<mgrwt>
<rscale>  0 0.14423147E+03</rscale>
<asrwt>0</asrwt>
<pdfrwt beam="1">  1        2 0.10560800E+00 0.15142107E+03</pdfrwt>
<pdfrwt beam="2">  1       -2 0.59747023E-02 0.15142107E+03</pdfrwt>
<totfact> 0.62116732E+03</totfact>
</mgrwt>
</event>
<event>
 8    2  0.8128359E-004  0.1669381E+03  0.7818608E-02  0.1186046E+00
          2   -1    0    0  501    0  0.00000000000E+00  0.00000000000E+00  0.17630980872E+04  0.17630980872E+04  0.25500000000E-02 0. -1.
         -2   -1    0    0    0  501 -0.00000000000E+00 -0.00000000000E+00 -0.14327997014E+02  0.14327997240E+02  0.25500000000E-02 0.  1.
         25    2    1    2    0    0  0.10963731857E+03  0.14923225820E+02  0.10094491808E+04  0.10231597978E+04  0.12500111562E+03 0.  0.
         23    2    1    2    0    0 -0.10963731857E+03 -0.14923225820E+02  0.73932090937E+03  0.75426628663E+03  0.10039511856E+03 0.  0.
        -11    1    4    4    0    0 -0.75942603608E+02 -0.54322339684E+02  0.55474782324E+03  0.56255074706E+03  0.51100000000E-03 0. -1.
         11    1    4    4    0    0 -0.33694714962E+02  0.39399113863E+02  0.18457308613E+03  0.19171553957E+03  0.51100000000E-03 0.  1.
    9000005    1    3    3    0    0 -0.93025359064E+01  0.31444654734E+02  0.87961381833E+02  0.93880286426E+02  0.10000000000E+01 0.  0.
    9000005    1    3    3    0    0  0.11893985448E+03 -0.16521428913E+02  0.92148779900E+03  0.92927951140E+03  0.10000000000E+01 0.  0.
<mgrwt>
<rscale>  0 0.16237111E+03</rscale>
<asrwt>0</asrwt>
<pdfrwt beam="1">  1        2 0.27124591E+00 0.16693808E+03</pdfrwt>
<pdfrwt beam="2">  1       -2 0.22043069E-02 0.16693808E+03</pdfrwt>
<totfact> 0.65653932E+03</totfact>
</mgrwt>
</event>
<event>
 8    2  0.8128359E-004  0.1347150E+03  0.7818608E-02  0.1233443E+00
          2   -1    0    0  501    0  0.00000000000E+00  0.00000000000E+00  0.89873228928E+03  0.89873228929E+03  0.25500000000E-02 0. -1.
         -2   -1    0    0    0  501 -0.00000000000E+00 -0.00000000000E+00 -0.16229905436E+02  0.16229905636E+02  0.25500000000E-02 0.  1.
         25    2    1    2    0    0 -0.45798502974E+02 -0.20622003544E+02  0.57576908980E+03  0.59131902005E+03  0.12500147515E+03 0.  0.
         23    2    1    2    0    0  0.45798502974E+02  0.20622003544E+02  0.30673329404E+03  0.32364317487E+03  0.90204329523E+02 0.  0.
        -11    1    4    4    0    0  0.42686377253E+02 -0.11682788279E+02  0.27398925988E+03  0.27754049952E+03  0.51100000000E-03 0. -1.
         11    1    4    4    0    0  0.31121257209E+01  0.32304791822E+02  0.32744034158E+02  0.46102675350E+02  0.51100000000E-03 0.  1.
    9000005    1    3    3    0    0 -0.61532855677E+02  0.29665097317E+02  0.18885041138E+03  0.20082775755E+03  0.10000000000E+01 0.  0.
    9000005    1    3    3    0    0  0.15734352704E+02 -0.50287100861E+02  0.38691867843E+03  0.39049126249E+03  0.10000000000E+01 0.  0.
<mgrwt>
<rscale>  0 0.12604615E+03</rscale>
<asrwt>0</asrwt>
<pdfrwt beam="1">  1        2 0.13826655E+00 0.13471503E+03</pdfrwt>
<pdfrwt beam="2">  1       -2 0.24969077E-02 0.13471503E+03</pdfrwt>
<totfact> 0.16165717E+04</totfact>
</mgrwt>
</event>
<event>
 8    2  0.8128359E-004  0.1286104E+03  0.7818608E-02  0.1243496E+00
          2   -1    0    0  501    0  0.00000000000E+00  0.00000000000E+00  0.53096920803E+03  0.53096920804E+03  0.25500000000E-02 0. -1.
         -2   -1    0    0    0  501 -0.00000000000E+00 -0.00000000000E+00 -0.24693271927E+02  0.24693272059E+02  0.25500000000E-02 0.  1.
         25    2    1    2    0    0  0.29939980678E+02  0.43360720118E+01  0.33714439091E+03  0.36084202876E+03  0.12500170171E+03 0.  0.
         23    2    1    2    0    0 -0.29939980678E+02 -0.43360720118E+01  0.16913154520E+03  0.19482045134E+03  0.91838579677E+02 0.  0.
        -11    1    4    4    0    0 -0.11628638817E+02  0.14416658942E+02 -0.46310738786E+01  0.19092201060E+02  0.51100000000E-03 0.  1.
         11    1    4    4    0    0 -0.18311341861E+02 -0.18752730954E+02  0.17376261907E+03  0.17572825028E+03  0.51100000000E-03 0. -1.
    9000005    1    3    3    0    0  0.32579957304E+02  0.24427953089E+02  0.33808601158E+03  0.34053095268E+03  0.10000000000E+01 0.  0.
    9000005    1    3    3    0    0 -0.26399766263E+01 -0.20091881078E+02 -0.94162066712E+00  0.20311076074E+02  0.10000000000E+01 0.  0.
<mgrwt>
<rscale>  0 0.11975833E+03</rscale>
<asrwt>0</asrwt>
<pdfrwt beam="1">  1        2 0.81687558E-01 0.12861038E+03</pdfrwt>
<pdfrwt beam="2">  1       -2 0.37989655E-02 0.12861038E+03</pdfrwt>
<totfact> 0.16250843E+04</totfact>
</mgrwt>
</event>
<event>
 8    2  0.8128359E-004  0.1472288E+03  0.7818608E-02  0.1214249E+00
          2   -1    0    0  501    0  0.00000000000E+00  0.00000000000E+00  0.66478267835E+02  0.66478267884E+02  0.25500000000E-02 0. -1.
         -2   -1    0    0    0  501 -0.00000000000E+00 -0.00000000000E+00 -0.27111531520E+03  0.27111531521E+03  0.25500000000E-02 0.  1.
         25    2    1    2    0    0  0.69548196276E+01  0.77480510544E+02 -0.13923484302E+03  0.20263926948E+03  0.12499893197E+03 0.  0.
         23    2    1    2    0    0 -0.69548196276E+01 -0.77480510544E+02 -0.65402204344E+02  0.13495431362E+03  0.88789748290E+02 0.  0.
        -11    1    4    4    0    0  0.87097357896E+01  0.17969354608E+02 -0.19417792174E+02  0.27853327552E+02  0.51100000000E-03 0.  1.
         11    1    4    4    0    0 -0.15664555417E+02 -0.95449865152E+02 -0.45984412169E+02  0.10710098607E+03  0.51100000000E-03 0. -1.
    9000005    1    3    3    0    0 -0.41075905842E+02  0.69764419873E+01 -0.28571619733E+01  0.41773965075E+02  0.10000000000E+01 0.  0.
    9000005    1    3    3    0    0  0.48030725470E+02  0.70504068557E+02 -0.13637768105E+03  0.16086530440E+03  0.10000000000E+01 0.  0.
<mgrwt>
<rscale>  0 0.13931853E+03</rscale>
<asrwt>0</asrwt>
<pdfrwt beam="1">  1        2 0.10227426E-01 0.14722884E+03</pdfrwt>
<pdfrwt beam="2">  1       -2 0.41710048E-01 0.14722884E+03</pdfrwt>
<totfact> 0.32966962E+03</totfact>
</mgrwt>
</event>
<event>
 8    2  0.8128359E-004  0.1272864E+03  0.7818608E-02  0.1247522E+00
          2   -1    0    0  501    0  0.00000000000E+00  0.00000000000E+00  0.56272634280E+01  0.56272640058E+01  0.25500000000E-02 0. -1.
         -2   -1    0    0    0  501 -0.00000000000E+00 -0.00000000000E+00 -0.21590739547E+04  0.21590739547E+04  0.25500000000E-02 0.  1.
         25    2    1    2    0    0 -0.73663201878E+01 -0.22958632973E+02 -0.11376264550E+04  0.11447251959E+04  0.12498184452E+03 0.  0.
         23    2    1    2    0    0  0.73663201878E+01  0.22958632973E+02 -0.10158202363E+04  0.10199760228E+04  0.88763580517E+02 0.  0.
        -11    1    4    4    0    0 -0.14583512206E+02  0.64936652012E+00 -0.89652193678E+03  0.89664077736E+03  0.51100000000E-03 0.  1.
         11    1    4    4    0    0  0.21949832394E+02  0.22309266453E+02 -0.11929829948E+03  0.12333524545E+03  0.51100000000E-03 0. -1.
    9000005    1    3    3    0    0  0.40176774356E+02 -0.51964390430E+02 -0.78299116017E+03  0.78574208744E+03  0.10000000000E+01 0.  0.
    9000005    1    3    3    0    0 -0.47543094543E+02  0.29005757456E+02 -0.35463529482E+03  0.35898310842E+03  0.10000000000E+01 0.  0.
<mgrwt>
<rscale>  0 0.11735724E+03</rscale>
<asrwt>0</asrwt>
<pdfrwt beam="1">  1        2 0.86573460E-03 0.12728638E+03</pdfrwt>
<pdfrwt beam="2">  1       -2 0.33216456E+00 0.12728638E+03</pdfrwt>
<totfact> 0.41302085E+02</totfact>
</mgrwt>
</event>
<event>
 8    2  0.8128359E-004  0.1434242E+03  0.7818608E-02  0.1216855E+00
          2   -1    0    0  501    0  0.00000000000E+00  0.00000000000E+00  0.23940815025E+02  0.23940815161E+02  0.25500000000E-02 0. -1.
         -2   -1    0    0    0  501 -0.00000000000E+00 -0.00000000000E+00 -0.75207365504E+03  0.75207365505E+03  0.25500000000E-02 0.  1.
         25    2    1    2    0    0 -0.70089189829E+02  0.58569648177E+01 -0.32690590243E+03  0.35698454476E+03  0.12499479023E+03 0.  0.
         23    2    1    2    0    0  0.70089189829E+02 -0.58569648177E+01 -0.40122693759E+03  0.41902992545E+03  0.98266089823E+02 0.  0.
        -11    1    4    4    0    0  0.64140064789E+02 -0.26204472264E+02 -0.13298963466E+03  0.14995621096E+03  0.51100000000E-03 0. -1.
         11    1    4    4    0    0  0.59491250399E+01  0.20347507446E+02 -0.26823730293E+03  0.26907371450E+03  0.51100000000E-03 0.  1.
    9000005    1    3    3    0    0 -0.24206106215E+02  0.15701856265E+02 -0.30288371638E+03  0.30425651926E+03  0.10000000000E+01 0.  0.
    9000005    1    3    3    0    0 -0.45883083615E+02 -0.98448914473E+01 -0.24022186050E+02  0.52728025491E+02  0.10000000000E+01 0.  0.
<mgrwt>
<rscale>  0 0.13741120E+03</rscale>
<asrwt>0</asrwt>
<pdfrwt beam="1">  1        2 0.36832029E-02 0.14342418E+03</pdfrwt>
<pdfrwt beam="2">  1       -2 0.11570362E+00 0.14342418E+03</pdfrwt>
<totfact> 0.13907088E+03</totfact>
</mgrwt>
</event>
<event>
 8    2  0.8128359E-004  0.1381414E+03  0.7818608E-02  0.1227272E+00
          2   -1    0    0  501    0  0.00000000000E+00  0.00000000000E+00  0.56014793467E+03  0.56014793467E+03  0.25500000000E-02 0. -1.
         -2   -1    0    0    0  501 -0.00000000000E+00 -0.00000000000E+00 -0.27259109733E+02  0.27259109852E+02  0.25500000000E-02 0.  1.
         25    2    1    2    0    0 -0.31829467303E+02  0.49448053332E+02  0.28528704952E+03  0.31697277448E+03  0.12499925669E+03 0.  0.
         23    2    1    2    0    0  0.31829467303E+02 -0.49448053332E+02  0.24760177542E+03  0.27043427005E+03  0.91486776410E+02 0.  0.
        -11    1    4    4    0    0  0.52791605047E+01 -0.22436840202E+02  0.33835949241E+01  0.23296567317E+02  0.51100000000E-03 0.  1.
         11    1    4    4    0    0  0.26550306798E+02 -0.27011213130E+02  0.24421818049E+03  0.24713770273E+03  0.51100000000E-03 0. -1.
    9000005    1    3    3    0    0 -0.21224066898E+02 -0.33493380133E+02  0.34355723908E+02  0.52474596651E+02  0.10000000000E+01 0.  0.
    9000005    1    3    3    0    0 -0.10605400405E+02  0.82941433465E+02  0.25093132561E+03  0.26449817783E+03  0.10000000000E+01 0.  0.
<mgrwt>
<rscale>  0 0.13012388E+03</rscale>
<asrwt>0</asrwt>
<pdfrwt beam="1">  1        2 0.86176598E-01 0.13814137E+03</pdfrwt>
<pdfrwt beam="2">  1       -2 0.41937095E-02 0.13814137E+03</pdfrwt>
<totfact> 0.13293786E+04</totfact>
</mgrwt>
</event>
<event>
 8    2  0.8128359E-004  0.1302770E+03  0.7818608E-02  0.1240762E+00
          2   -1    0    0  501    0  0.00000000000E+00  0.00000000000E+00  0.16239692596E+04  0.16239692596E+04  0.25500000000E-02 0. -1.
         -2   -1    0    0    0  501 -0.00000000000E+00 -0.00000000000E+00 -0.80470787243E+01  0.80470791283E+01  0.25500000000E-02 0.  1.
         25    2    1    2    0    0  0.11369359461E+02  0.34801298422E+02  0.93480583685E+03  0.94384005199E+03  0.12502679083E+03 0.  0.
         23    2    1    2    0    0 -0.11369359461E+02 -0.34801298422E+02  0.68111634404E+03  0.68817628675E+03  0.91250944248E+02 0.  0.
        -11    1    4    4    0    0 -0.42080956094E+02  0.85339202302E+01  0.23301311512E+03  0.23693616541E+03  0.51100000000E-03 0.  1.
         11    1    4    4    0    0  0.30711596633E+02 -0.43335218652E+02  0.44810322892E+03  0.45124012134E+03  0.51100000000E-03 0. -1.
    9000005    1    3    3    0    0  0.12973041051E+01  0.80421934113E+02  0.68444003135E+03  0.68915058369E+03  0.10000000000E+01 0.  0.
    9000005    1    3    3    0    0  0.10072055356E+02 -0.45620635691E+02  0.25036580550E+03  0.25468946830E+03  0.10000000000E+01 0.  0.
<mgrwt>
<rscale>  0 0.12142635E+03</rscale>
<asrwt>0</asrwt>
<pdfrwt beam="1">  1        2 0.24984134E+00 0.13027698E+03</pdfrwt>
<pdfrwt beam="2">  1       -2 0.12380125E-02 0.13027698E+03</pdfrwt>
<totfact> 0.17684027E+04</totfact>
</mgrwt>
</event>
<event>
 8    2  0.8128359E-004  0.1278633E+03  0.7818608E-02  0.1248310E+00
         -2   -1    0    0    0  501 -0.00000000000E+00  0.00000000000E+00  0.65537136685E+02  0.65537136735E+02  0.25500000000E-02 0.  1.
          2   -1    0    0  501    0  0.00000000000E+00 -0.00000000000E+00 -0.18116797674E+03  0.18116797676E+03  0.25500000000E-02 0. -1.
         25    2    1    2    0    0  0.26922838753E+02  0.10852763857E+01 -0.78056726785E+02  0.14980612373E+03  0.12499201990E+03 0.  0.
         23    2    1    2    0    0 -0.26922838753E+02 -0.10852763857E+01 -0.37574113273E+02  0.96898989767E+02  0.85156227947E+02 0.  0.
        -11    1    4    4    0    0 -0.67030865769E+01 -0.39997920718E+02 -0.23010674899E+01  0.40620929867E+02  0.51100000000E-03 0.  1.
         11    1    4    4    0    0 -0.20219752176E+02  0.38912644332E+02 -0.35273045783E+02  0.56278059899E+02  0.51100000000E-03 0. -1.
    9000005    1    3    3    0    0  0.67218068944E+01  0.30925227777E+02 -0.10182013395E+03  0.10662969605E+03  0.10000000000E+01 0.  0.
    9000005    1    3    3    0    0  0.20201031859E+02 -0.29839951391E+02  0.23763407167E+02  0.43176427682E+02  0.10000000000E+01 0.  0.
<mgrwt>
<rscale>  0 0.11689433E+03</rscale>
<asrwt>0</asrwt>
<pdfrwt beam="2">  1        2 0.27871996E-01 0.12786329E+03</pdfrwt>
<pdfrwt beam="1">  1       -2 0.10082637E-01 0.12786329E+03</pdfrwt>
<totfact> 0.11654279E+04</totfact>
</mgrwt>
</event>
<event>
 8    2  0.8128359E-004  0.1486052E+03  0.7818608E-02  0.1212064E+00
          2   -1    0    0  501    0  0.00000000000E+00  0.00000000000E+00  0.69925422240E+02  0.69925422287E+02  0.25500000000E-02 0. -1.
         -2   -1    0    0    0  501 -0.00000000000E+00 -0.00000000000E+00 -0.37584820369E+03  0.37584820370E+03  0.25500000000E-02 0.  1.
         25    2    1    2    0    0 -0.31680501801E+02  0.73853802934E+02 -0.28815639335E+03  0.32421848079E+03  0.12500191142E+03 0.  0.
         23    2    1    2    0    0  0.31680501801E+02 -0.73853802934E+02 -0.17766388105E+02  0.12155514519E+03  0.89453733152E+02 0.  0.
        -11    1    4    4    0    0  0.19600442527E+02 -0.40059628946E+01 -0.42098759147E+02  0.46610413085E+02  0.51100000000E-03 0.  1.
         11    1    4    4    0    0  0.12080059274E+02 -0.69847840039E+02  0.24332371042E+02  0.74944732110E+02  0.51100000000E-03 0. -1.
    9000005    1    3    3    0    0  0.35770128360E+02 -0.11108047001E+02 -0.49674692435E+02  0.62221104616E+02  0.10000000000E+01 0.  0.
    9000005    1    3    3    0    0 -0.67450630162E+02  0.84961849935E+02 -0.23848170091E+03  0.26199737617E+03  0.10000000000E+01 0.  0.
<mgrwt>
<rscale>  0 0.14094402E+03</rscale>
<asrwt>0</asrwt>
<pdfrwt beam="1">  1        2 0.10757757E-01 0.14860524E+03</pdfrwt>
<pdfrwt beam="2">  1       -2 0.57822800E-01 0.14860524E+03</pdfrwt>
<totfact> 0.16268170E+03</totfact>
</mgrwt>
</event>
<event>
 8    2  0.8128359E-004  0.1840296E+03  0.7818608E-02  0.1168905E+00
         -2   -1    0    0    0  501 -0.00000000000E+00  0.00000000000E+00  0.14635772504E+03  0.14635772506E+03  0.25500000000E-02 0. -1.
          2   -1    0    0  501    0  0.00000000000E+00 -0.00000000000E+00 -0.20737738564E+03  0.20737738565E+03  0.25500000000E-02 0.  1.
         25    2    1    2    0    0  0.24730956902E+02 -0.13276894867E+03 -0.26632169852E+02  0.18594664211E+03  0.12501066866E+03 0.  0.
         23    2    1    2    0    0 -0.24730956902E+02  0.13276894867E+03 -0.34387490746E+02  0.16778846861E+03  0.93441193904E+02 0.  0.
        -11    1    4    4    0    0 -0.36550917079E+02  0.65947636175E+01 -0.31873259900E+01  0.37277600429E+02  0.51100000000E-03 0. -1.
         11    1    4    4    0    0  0.11819960177E+02  0.12617418505E+03 -0.31200164756E+02  0.13051086818E+03  0.51100000000E-03 0.  1.
    9000005    1    3    3    0    0 -0.37240288717E+02 -0.44882324286E+02 -0.48908993030E+02  0.76120639357E+02  0.10000000000E+01 0.  0.
    9000005    1    3    3    0    0  0.61971245619E+02 -0.87886624383E+02  0.22276823178E+02  0.10982600275E+03  0.10000000000E+01 0.  0.
<mgrwt>
<rscale>  0 0.17886558E+03</rscale>
<asrwt>0</asrwt>
<pdfrwt beam="2">  1        2 0.31904213E-01 0.18402957E+03</pdfrwt>
<pdfrwt beam="1">  1       -2 0.22516573E-01 0.18402957E+03</pdfrwt>
<totfact> 0.27487575E+03</totfact>
</mgrwt>
</event>
<event>
 8    2  0.8128359E-004  0.1461989E+03  0.7818608E-02  0.1215149E+00
          2   -1    0    0  501    0  0.00000000000E+00  0.00000000000E+00  0.60796512576E+03  0.60796512576E+03  0.25500000000E-02 0. -1.
         -2   -1    0    0    0  501 -0.00000000000E+00 -0.00000000000E+00 -0.33110983305E+02  0.33110983403E+02  0.25500000000E-02 0.  1.
         25    2    1    2    0    0  0.73998128920E+02  0.16521202772E+02  0.42935349077E+03  0.45356205647E+03  0.12500178324E+03 0.  0.
         23    2    1    2    0    0 -0.73998128920E+02 -0.16521202772E+02  0.14550065168E+03  0.18751405269E+03  0.90787703420E+02 0.  0.
        -11    1    4    4    0    0  0.11689376474E+02 -0.18449617029E+02  0.41855542569E+01  0.22238452185E+02  0.51100000000E-03 0.  1.
         11    1    4    4    0    0 -0.85687505394E+02  0.19284142576E+01  0.14131509742E+03  0.16527560051E+03  0.51100000000E-03 0. -1.
    9000005    1    3    3    0    0 -0.25795358560E+02 -0.10996558718E+02  0.30289159393E+02  0.41288715209E+02  0.10000000000E+01 0.  0.
    9000005    1    3    3    0    0  0.99793487480E+02  0.27517761489E+02  0.39906433138E+03  0.41227334126E+03  0.10000000000E+01 0.  0.
<mgrwt>
<rscale>  0 0.13865626E+03</rscale>
<asrwt>0</asrwt>
<pdfrwt beam="1">  1        2 0.93533094E-01 0.14619890E+03</pdfrwt>
<pdfrwt beam="2">  1       -2 0.50939976E-02 0.14619890E+03</pdfrwt>
<totfact> 0.90890851E+03</totfact>
</mgrwt>
</event>
<event>
 8    2  0.8128359E-004  0.1316443E+03  0.7818608E-02  0.1242397E+00
         -2   -1    0    0    0  501 -0.00000000000E+00  0.00000000000E+00  0.31555759324E+02  0.31555759427E+02  0.25500000000E-02 0. -1.
          2   -1    0    0  501    0  0.00000000000E+00 -0.00000000000E+00 -0.10970989213E+04  0.10970989213E+04  0.25500000000E-02 0.  1.
         25    2    1    2    0    0  0.11028760708E+02  0.39788431138E+02 -0.10150403822E+04  0.10235414959E+04  0.12500185361E+03 0.  0.
         23    2    1    2    0    0 -0.11028760708E+02 -0.39788431138E+02 -0.50502779786E+02  0.10511318489E+03  0.82422679265E+02 0.  0.
        -11    1    4    4    0    0  0.22574941183E+02  0.30623715096E+01 -0.44926953361E+02  0.50372981123E+02  0.51100000000E-03 0.  1.
         11    1    4    4    0    0 -0.33603701891E+02 -0.42850802647E+02 -0.55758264251E+01  0.54740203771E+02  0.51100000000E-03 0. -1.
    9000005    1    3    3    0    0  0.41934350857E+02 -0.11195920945E+02 -0.77466767032E+03  0.77588326304E+03  0.10000000000E+01 0.  0.
    9000005    1    3    3    0    0 -0.30905590150E+02  0.50984352083E+02 -0.24037271189E+03  0.24765823282E+03  0.10000000000E+01 0.  0.
<mgrwt>
<rscale>  0 0.12042529E+03</rscale>
<asrwt>0</asrwt>
<pdfrwt beam="2">  1        2 0.16878442E+00 0.13164428E+03</pdfrwt>
<pdfrwt beam="1">  1       -2 0.48547330E-02 0.13164428E+03</pdfrwt>
<totfact> 0.45980122E+03</totfact>
</mgrwt>
</event>
<event>
 8    2  0.8128359E-004  0.1361486E+03  0.7818608E-02  0.1229902E+00
         -2   -1    0    0    0  501 -0.00000000000E+00  0.00000000000E+00  0.29433221175E+02  0.29433221286E+02  0.25500000000E-02 0.  1.
          2   -1    0    0  501    0  0.00000000000E+00 -0.00000000000E+00 -0.53233659933E+03  0.53233659933E+03  0.25500000000E-02 0. -1.
         25    2    1    2    0    0 -0.83377041703E+01  0.53310843290E+02 -0.34310925891E+03  0.36913467366E+03  0.12499952169E+03 0.  0.
         23    2    1    2    0    0  0.83377041703E+01 -0.53310843290E+02 -0.15979411924E+03  0.19263514696E+03  0.93072960511E+02 0.  0.
        -11    1    4    4    0    0  0.44518425371E+02 -0.35499867029E+02 -0.13171464449E+03  0.14349522058E+03  0.51100000000E-03 0. -1.
         11    1    4    4    0    0 -0.36180721201E+02 -0.17810976260E+02 -0.28079474746E+02  0.49139926376E+02  0.51100000000E-03 0.  1.
    9000005    1    3    3    0    0 -0.21100809485E+02  0.79297089305E+02 -0.12775481961E+03  0.15184059558E+03  0.10000000000E+01 0.  0.
    9000005    1    3    3    0    0  0.12763105314E+02 -0.25986246015E+02 -0.21535443931E+03  0.21729407808E+03  0.10000000000E+01 0.  0.
<mgrwt>
<rscale>  0 0.12836481E+03</rscale>
<asrwt>0</asrwt>
<pdfrwt beam="2">  1        2 0.81897931E-01 0.13614861E+03</pdfrwt>
<pdfrwt beam="1">  1       -2 0.45281883E-02 0.13614861E+03</pdfrwt>
<totfact> 0.12535146E+04</totfact>
</mgrwt>
</event>
<event>
 8    2  0.8128359E-004  0.1300562E+03  0.7818608E-02  0.1255266E+00
         -2   -1    0    0    0  501 -0.00000000000E+00  0.00000000000E+00  0.85318798415E+01  0.85318802225E+01  0.25500000000E-02 0.  1.
          2   -1    0    0  501    0  0.00000000000E+00 -0.00000000000E+00 -0.15511016230E+04  0.15511016230E+04  0.25500000000E-02 0. -1.
         25    2    1    2    0    0 -0.14047281284E+01  0.35872120782E+02 -0.12881938834E+04  0.12947424797E+04  0.12500330106E+03 0.  0.
         23    2    1    2    0    0  0.14047281284E+01 -0.35872120782E+02 -0.25437585980E+03  0.26489102354E+03  0.64586329751E+02 0.  0.
        -11    1    4    4    0    0 -0.27489370536E+02 -0.12973087692E+02 -0.17166471505E+03  0.17433513958E+03  0.51100000000E-03 0. -1.
         11    1    4    4    0    0  0.28894098665E+02 -0.22899033090E+02 -0.82711144747E+02  0.90555883959E+02  0.51100000000E-03 0.  1.
    9000005    1    3    3    0    0  0.58303509730E+02  0.39168246659E+02 -0.70018462886E+03  0.70369948507E+03  0.10000000000E+01 0.  0.
    9000005    1    3    3    0    0 -0.59708237859E+02 -0.32961258774E+01 -0.58800925454E+03  0.59104299466E+03  0.10000000000E+01 0.  0.
<mgrwt>
<rscale>  0 0.11291433E+03</rscale>
<asrwt>0</asrwt>
<pdfrwt beam="2">  1        2 0.23863079E+00 0.13005617E+03</pdfrwt>
<pdfrwt beam="1">  1       -2 0.13125982E-02 0.13005617E+03</pdfrwt>
<totfact> 0.17725947E+04</totfact>
</mgrwt>
</event>
<event>
 8    2  0.8128359E-004  0.1292743E+03  0.7818608E-02  0.1242187E+00
          2   -1    0    0  501    0  0.00000000000E+00  0.00000000000E+00  0.60652952946E+02  0.60652952999E+02  0.25500000000E-02 0. -1.
         -2   -1    0    0    0  501 -0.00000000000E+00 -0.00000000000E+00 -0.25475444465E+03  0.25475444467E+03  0.25500000000E-02 0.  1.
         25    2    1    2    0    0 -0.31407799542E+02 -0.99999364390E+01 -0.44549522350E+02  0.13673519572E+03  0.12500162081E+03 0.  0.
         23    2    1    2    0    0  0.31407799542E+02  0.99999364390E+01 -0.14955196936E+03  0.17867220195E+03  0.92040836642E+02 0.  0.
        -11    1    4    4    0    0 -0.15706886438E+02  0.42324489664E+01  0.49817789843E+01  0.17012878297E+02  0.51100000000E-03 0. -1.
         11    1    4    4    0    0  0.47114685980E+02  0.57674874726E+01 -0.15453374834E+03  0.16165932365E+03  0.51100000000E-03 0.  1.
    9000005    1    3    3    0    0 -0.66840573525E+02  0.31784235762E+02 -0.31277605661E+02  0.80356633379E+02  0.10000000000E+01 0.  0.
    9000005    1    3    3    0    0  0.35432773983E+02 -0.41784172201E+02 -0.13271916689E+02  0.56378562337E+02  0.10000000000E+01 0.  0.
<mgrwt>
<rscale>  0 0.12055352E+03</rscale>
<asrwt>0</asrwt>
<pdfrwt beam="1">  1        2 0.93312236E-02 0.12927434E+03</pdfrwt>
<pdfrwt beam="2">  1       -2 0.39192991E-01 0.12927434E+03</pdfrwt>
<totfact> 0.41188317E+03</totfact>
</mgrwt>
</event>
<event>
 8    2  0.8128359E-004  0.1351747E+03  0.7818608E-02  0.1235598E+00
         -2   -1    0    0    0  501 -0.00000000000E+00  0.00000000000E+00  0.19929190535E+02  0.19929190698E+02  0.25500000000E-02 0.  1.
          2   -1    0    0  501    0  0.00000000000E+00 -0.00000000000E+00 -0.76641422132E+03  0.76641422132E+03  0.25500000000E-02 0. -1.
         25    2    1    2    0    0 -0.44301087893E+02 -0.26163247663E+02 -0.55637816720E+03  0.57256341684E+03  0.12500039782E+03 0.  0.
         23    2    1    2    0    0  0.44301087893E+02  0.26163247663E+02 -0.19010686358E+03  0.21377999518E+03  0.83151457226E+02 0.  0.
        -11    1    4    4    0    0  0.12397322165E+02 -0.11209471554E+02  0.71893574020E+00  0.16729097951E+02  0.51100000000E-03 0.  1.
         11    1    4    4    0    0  0.31903765728E+02  0.37372719216E+02 -0.19082579932E+03  0.19705089723E+03  0.51100000000E-03 0. -1.
    9000005    1    3    3    0    0 -0.26296321999E+02 -0.59764197623E+02 -0.14042485037E+03  0.15486573046E+03  0.10000000000E+01 0.  0.
    9000005    1    3    3    0    0 -0.18004765894E+02  0.33600949961E+02 -0.41595331683E+03  0.41769768639E+03  0.10000000000E+01 0.  0.
<mgrwt>
<rscale>  0 0.12466255E+03</rscale>
<asrwt>0</asrwt>
<pdfrwt beam="2">  1        2 0.11790986E+00 0.13517471E+03</pdfrwt>
<pdfrwt beam="1">  1       -2 0.30660299E-02 0.13517471E+03</pdfrwt>
<totfact> 0.14633299E+04</totfact>
</mgrwt>
</event>
<event>
 8    2  0.8128359E-004  0.1860966E+03  0.7818608E-02  0.1167121E+00
         -2   -1    0    0    0  501 -0.00000000000E+00  0.00000000000E+00  0.20919010622E+02  0.20919010777E+02  0.25500000000E-02 0. -1.
          2   -1    0    0  501    0  0.00000000000E+00 -0.00000000000E+00 -0.15657694878E+04  0.15657694878E+04  0.25500000000E-02 0.  1.
         25    2    1    2    0    0  0.29876057830E+02  0.13458641969E+03 -0.10038060920E+04  0.10209106831E+04  0.12500347671E+03 0.  0.
         23    2    1    2    0    0 -0.29876057830E+02 -0.13458641969E+03 -0.54104438513E+03  0.56577781550E+03  0.91484570503E+02 0.  0.
        -11    1    4    4    0    0 -0.36491695375E+02 -0.74663462714E+02 -0.16306110435E+03  0.18301693979E+03  0.51100000000E-03 0. -1.
         11    1    4    4    0    0  0.66156375448E+01 -0.59922956972E+02 -0.37798328077E+03  0.38276087571E+03  0.51100000000E-03 0.  1.
    9000005    1    3    3    0    0  0.47887390151E+01  0.26789970772E+02 -0.64144473100E+03  0.64202256773E+03  0.10000000000E+01 0.  0.
    9000005    1    3    3    0    0  0.25087318815E+02  0.10779644891E+03 -0.36236136103E+03  0.37888811532E+03  0.10000000000E+01 0.  0.
<mgrwt>
<rscale>  0 0.18070665E+03</rscale>
<asrwt>0</asrwt>
<pdfrwt beam="2">  1        2 0.24088752E+00 0.18609662E+03</pdfrwt>
<pdfrwt beam="1">  1       -2 0.32183106E-02 0.18609662E+03</pdfrwt>
<totfact> 0.47694935E+03</totfact>
</mgrwt>
</event>
<event>
 8    2  0.8128359E-004  0.1338815E+03  0.7818608E-02  0.1234800E+00
          2   -1    0    0  501    0  0.00000000000E+00  0.00000000000E+00  0.27306560563E+03  0.27306560564E+03  0.25500000000E-02 0. -1.
         -2   -1    0    0    0  501 -0.00000000000E+00 -0.00000000000E+00 -0.61432019913E+02  0.61432019966E+02  0.25500000000E-02 0.  1.
         25    2    1    2    0    0 -0.13031625205E+02  0.46148523178E+02  0.49402149139E+02  0.14270541432E+03  0.12499901396E+03 0.  0.
         23    2    1    2    0    0  0.13031625205E+02 -0.46148523178E+02  0.16223143657E+03  0.19179221128E+03  0.90364284140E+02 0.  0.
        -11    1    4    4    0    0  0.83943650867E+01 -0.23495968589E+02 -0.28378546870E+01  0.25111338568E+02  0.51100000000E-03 0.  1.
         11    1    4    4    0    0  0.46372601182E+01 -0.22652554588E+02  0.16506929126E+03  0.16668087271E+03  0.51100000000E-03 0. -1.
    9000005    1    3    3    0    0  0.28025947281E+00  0.67687604290E+01  0.86626406987E+02  0.86896657304E+02  0.10000000000E+01 0.  0.
    9000005    1    3    3    0    0 -0.13311884678E+02  0.39379762749E+02 -0.37224257848E+02  0.55808757020E+02  0.10000000000E+01 0.  0.
<mgrwt>
<rscale>  0 0.12517252E+03</rscale>
<asrwt>0</asrwt>
<pdfrwt beam="1">  1        2 0.42010094E-01 0.13388153E+03</pdfrwt>
<pdfrwt beam="2">  1       -2 0.94510798E-02 0.13388153E+03</pdfrwt>
<totfact> 0.83367436E+03</totfact>
</mgrwt>
</event>
<event>
 8    2  0.8128359E-004  0.1480684E+03  0.7818608E-02  0.1210178E+00
         -2   -1    0    0    0  501 -0.00000000000E+00  0.00000000000E+00  0.10679224294E+02  0.10679224599E+02  0.25500000000E-02 0.  1.
          2   -1    0    0  501    0  0.00000000000E+00 -0.00000000000E+00 -0.17658229123E+04  0.17658229123E+04  0.25500000000E-02 0. -1.
         25    2    1    2    0    0 -0.26504010399E+01  0.79325464639E+02 -0.93346411502E+03  0.94513465052E+03  0.12499879853E+03 0.  0.
         23    2    1    2    0    0  0.26504010399E+01 -0.79325464639E+02 -0.82167957301E+03  0.83136748640E+03  0.98564815072E+02 0.  0.
        -11    1    4    4    0    0  0.26559549196E+02 -0.57636233264E+02 -0.22398169675E+03  0.23279850841E+03  0.51100000000E-03 0.  1.
         11    1    4    4    0    0 -0.23909148156E+02 -0.21689231374E+02 -0.59769787625E+03  0.59856897798E+03  0.51100000000E-03 0. -1.
    9000005    1    3    3    0    0  0.26788894455E+01 -0.32884638291E+02 -0.14514611372E+03  0.14885217571E+03  0.10000000000E+01 0.  0.
    9000005    1    3    3    0    0 -0.53292904854E+01  0.11221010293E+03 -0.78831800129E+03  0.79628247481E+03  0.10000000000E+01 0.  0.
<mgrwt>
<rscale>  0 0.14236762E+03</rscale>
<asrwt>0</asrwt>
<pdfrwt beam="2">  1        2 0.27166483E+00 0.14806841E+03</pdfrwt>
<pdfrwt beam="1">  1       -2 0.16429590E-02 0.14806841E+03</pdfrwt>
<totfact> 0.10003888E+04</totfact>
</mgrwt>
</event>
<event>
 8    2  0.8128359E-004  0.1293278E+03  0.7818608E-02  0.1242151E+00
          2   -1    0    0  501    0  0.00000000000E+00  0.00000000000E+00  0.82419460166E+02  0.82419460205E+02  0.25500000000E-02 0.  1.
         -2   -1    0    0    0  501 -0.00000000000E+00 -0.00000000000E+00 -0.22389391688E+03  0.22389391689E+03  0.25500000000E-02 0. -1.
         25    2    1    2    0    0 -0.28261232167E+02  0.17409056950E+02 -0.16115961152E+03  0.20663515916E+03  0.12499558436E+03 0.  0.
         23    2    1    2    0    0  0.28261232167E+02 -0.17409056950E+02  0.19685154804E+02  0.99678217938E+02  0.91904675094E+02 0.  0.
        -11    1    4    4    0    0 -0.33956840424E+01 -0.50739476320E+02  0.17047679641E+02  0.53634396694E+02  0.51100000000E-03 0. -1.
         11    1    4    4    0    0  0.31656916210E+02  0.33330419370E+02  0.26374751628E+01  0.46043821244E+02  0.51100000000E-03 0.  1.
    9000005    1    3    3    0    0 -0.44378517752E+02 -0.12242773713E+02 -0.16623256433E+03  0.17249232966E+03  0.10000000000E+01 0.  0.
    9000005    1    3    3    0    0  0.16117285584E+02  0.29651830663E+02  0.50729528146E+01  0.34142829504E+02  0.10000000000E+01 0.  0.
<mgrwt>
<rscale>  0 0.12057555E+03</rscale>
<asrwt>0</asrwt>
<pdfrwt beam="1">  1        2 0.12679917E-01 0.12932776E+03</pdfrwt>
<pdfrwt beam="2">  1       -2 0.34445218E-01 0.12932776E+03</pdfrwt>
<totfact> 0.36099828E+03</totfact>
</mgrwt>
</event>
<event>
 8    2  0.8128359E-004  0.1293127E+03  0.7818608E-02  0.1242556E+00
          2   -1    0    0  501    0  0.00000000000E+00  0.00000000000E+00  0.29595263064E+03  0.29595263065E+03  0.25500000000E-02 0.  1.
         -2   -1    0    0    0  501 -0.00000000000E+00 -0.00000000000E+00 -0.51449875507E+02  0.51449875570E+02  0.25500000000E-02 0. -1.
         25    2    1    2    0    0  0.34809915434E+01 -0.32918200412E+02  0.20571054536E+03  0.24297858305E+03  0.12500415244E+03 0.  0.
         23    2    1    2    0    0 -0.34809915434E+01  0.32918200412E+02  0.38792209774E+02  0.10442392317E+03  0.91125161022E+02 0.  0.
        -11    1    4    4    0    0  0.25504511008E+02  0.15602331290E+02  0.58235348427E+02  0.65461963231E+02  0.51100000000E-03 0.  1.
         11    1    4    4    0    0 -0.28985502551E+02  0.17315869122E+02 -0.19443138653E+02  0.38961959942E+02  0.51100000000E-03 0. -1.
    9000005    1    3    3    0    0  0.21479022439E+02 -0.72208074688E+02  0.79312154353E+02  0.10939274328E+03  0.10000000000E+01 0.  0.
    9000005    1    3    3    0    0 -0.17998030896E+02  0.39289874275E+02  0.12639839101E+03  0.13358583976E+03  0.10000000000E+01 0.  0.
<mgrwt>
<rscale>  0 0.12032863E+03</rscale>
<asrwt>0</asrwt>
<pdfrwt beam="1">  1        2 0.45531174E-01 0.12931266E+03</pdfrwt>
<pdfrwt beam="2">  1       -2 0.79153654E-02 0.12931266E+03</pdfrwt>
<totfact> 0.10055211E+04</totfact>
</mgrwt>
</event>
<event>
 8    2  0.8128359E-004  0.1290939E+03  0.7818608E-02  0.1240868E+00
         -2   -1    0    0    0  501 -0.00000000000E+00  0.00000000000E+00  0.33331086605E+01  0.33331096360E+01  0.25500000000E-02 0.  1.
          2   -1    0    0  501    0  0.00000000000E+00 -0.00000000000E+00 -0.40549309907E+04  0.40549309907E+04  0.25500000000E-02 0. -1.
         25    2    1    2    0    0  0.26542039604E+02  0.18328063140E+02 -0.25687925221E+04  0.25720342626E+04  0.12499931359E+03 0.  0.
         23    2    1    2    0    0 -0.26542039604E+02 -0.18328063140E+02 -0.14828053598E+04  0.14862298377E+04  0.95535320591E+02 0.  0.
        -11    1    4    4    0    0 -0.11931038553E+02 -0.52478169609E+02 -0.11682536568E+04  0.11694925885E+04  0.51100000000E-03 0.  1.
         11    1    4    4    0    0 -0.14611001051E+02  0.34150106469E+02 -0.31455170302E+03  0.31673724915E+03  0.51100000000E-03 0. -1.
    9000005    1    3    3    0    0 -0.13395269337E+02 -0.17279280048E+02 -0.88555600265E+02  0.91220069600E+02  0.10000000000E+01 0.  0.
    9000005    1    3    3    0    0  0.39937308941E+02  0.35607343188E+02 -0.24802369219E+04  0.24808141930E+04  0.10000000000E+01 0.  0.
<mgrwt>
<rscale>  0 0.12136136E+03</rscale>
<asrwt>0</asrwt>
<pdfrwt beam="2">  1        2 0.62383159E+00 0.12909387E+03</pdfrwt>
<pdfrwt beam="1">  1       -2 0.51278927E-03 0.12909387E+03</pdfrwt>
<totfact> 0.23484308E+03</totfact>
</mgrwt>
</event>
<event>
 8    2  0.8128359E-004  0.1376868E+03  0.7818608E-02  0.1229082E+00
         -2   -1    0    0    0  501 -0.00000000000E+00  0.00000000000E+00  0.13006067895E+02  0.13006068145E+02  0.25500000000E-02 0.  1.
          2   -1    0    0  501    0  0.00000000000E+00 -0.00000000000E+00 -0.13570098746E+04  0.13570098746E+04  0.25500000000E-02 0. -1.
         25    2    1    2    0    0 -0.51592648583E+02 -0.25856536511E+02 -0.10181476601E+04  0.10274153540E+04  0.12500916007E+03 0.  0.
         23    2    1    2    0    0  0.51592648583E+02  0.25856536511E+02 -0.32585614663E+03  0.34260058872E+03  0.88671152175E+02 0.  0.
        -11    1    4    4    0    0  0.70864143173E+02  0.74414498415E+01 -0.28534335833E+03  0.29410531126E+03  0.51100000000E-03 0. -1.
         11    1    4    4    0    0 -0.19271494590E+02  0.18415086669E+02 -0.40512788297E+02  0.48495277467E+02  0.51100000000E-03 0.  1.
    9000005    1    3    3    0    0 -0.91192695848E+01  0.42050623785E+02 -0.16519594106E+03  0.17071061765E+03  0.10000000000E+01 0.  0.
    9000005    1    3    3    0    0 -0.42473378998E+02 -0.67907160296E+02 -0.85295171901E+03  0.85670473636E+03  0.10000000000E+01 0.  0.
<mgrwt>
<rscale>  0 0.12891018E+03</rscale>
<asrwt>0</asrwt>
<pdfrwt beam="2">  1        2 0.20877064E+00 0.13768679E+03</pdfrwt>
<pdfrwt beam="1">  1       -2 0.20009346E-02 0.13768679E+03</pdfrwt>
<totfact> 0.12225554E+04</totfact>
</mgrwt>
</event>
<event>
 8    2  0.8128359E-004  0.1263384E+03  0.7818608E-02  0.1248251E+00
          2   -1    0    0  501    0  0.00000000000E+00  0.00000000000E+00  0.78224475300E+03  0.78224475301E+03  0.25500000000E-02 0.  1.
         -2   -1    0    0    0  501 -0.00000000000E+00 -0.00000000000E+00 -0.26336784059E+02  0.26336784183E+02  0.25500000000E-02 0. -1.
         25    2    1    2    0    0 -0.31935324748E+01  0.17794896605E+02  0.67126533537E+03  0.68305089912E+03  0.12503808750E+03 0.  0.
         23    2    1    2    0    0  0.31935324748E+01 -0.17794896605E+02  0.84642633578E+02  0.12553063807E+03  0.90921442362E+02 0.  0.
        -11    1    4    4    0    0  0.32508661031E+02 -0.19184059733E+02  0.88228742411E+02  0.95964327630E+02  0.51100000000E-03 0.  1.
         11    1    4    4    0    0 -0.29315128556E+02  0.13891631275E+01 -0.35861088324E+01  0.29566310444E+02  0.51100000000E-03 0. -1.
    9000005    1    3    3    0    0 -0.50342687612E+02  0.44568891585E+02  0.27551932712E+03  0.28360654420E+03  0.10000000000E+01 0.  0.
    9000005    1    3    3    0    0  0.47149155137E+02 -0.26773994979E+02  0.39574600824E+03  0.39944435492E+03  0.10000000000E+01 0.  0.
<mgrwt>
<rscale>  0 0.11692923E+03</rscale>
<asrwt>0</asrwt>
<pdfrwt beam="1">  1        2 0.12034533E+00 0.12633836E+03</pdfrwt>
<pdfrwt beam="2">  1       -2 0.40518134E-02 0.12633836E+03</pdfrwt>
<totfact> 0.94114923E+03</totfact>
</mgrwt>
</event>
<event>
 8    2  0.8128359E-004  0.2855206E+03  0.7818608E-02  0.1094547E+00
          2   -1    0    0  501    0  0.00000000000E+00  0.00000000000E+00  0.19531618669E+04  0.19531618669E+04  0.25500000000E-02 0. -1.
         -2   -1    0    0    0  501 -0.00000000000E+00 -0.00000000000E+00 -0.40381664482E+02  0.40381664562E+02  0.25500000000E-02 0.  1.
         25    2    1    2    0    0 -0.24140712562E+03  0.87290914773E+02  0.85923469961E+03  0.90543153528E+03  0.12499956785E+03 0.  0.
         23    2    1    2    0    0  0.24140712562E+03 -0.87290914773E+02  0.10535455028E+04  0.10881119962E+04  0.90180295231E+02 0.  0.
        -11    1    4    4    0    0  0.11291097262E+03 -0.82082593147E+02  0.45617569842E+03  0.47705629402E+03  0.51100000000E-03 0.  1.
         11    1    4    4    0    0  0.12849615300E+03 -0.52083216252E+01  0.59736980436E+03  0.61105570214E+03  0.51100000000E-03 0. -1.
    9000005    1    3    3    0    0 -0.20871384118E+03  0.91699556406E+02  0.83191945934E+03  0.86258985792E+03  0.10000000000E+01 0.  0.
    9000005    1    3    3    0    0 -0.32693284439E+02 -0.44086416338E+01  0.27315240265E+02  0.42841677362E+02  0.10000000000E+01 0.  0.
<mgrwt>
<rscale>  0 0.28210041E+03</rscale>
<asrwt>0</asrwt>
<pdfrwt beam="1">  1        2 0.30048641E+00 0.28552057E+03</pdfrwt>
<pdfrwt beam="2">  1       -2 0.62125645E-02 0.28552057E+03</pdfrwt>
<totfact> 0.11013612E+03</totfact>
</mgrwt>
</event>
<event>
 8    2  0.8128359E-004  0.1377792E+03  0.7818608E-02  0.1228609E+00
         -2   -1    0    0    0  501 -0.00000000000E+00  0.00000000000E+00  0.16901489627E+04  0.16901489627E+04  0.25500000000E-02 0.  1.
          2   -1    0    0  501    0  0.00000000000E+00 -0.00000000000E+00 -0.13796704348E+02  0.13796704584E+02  0.25500000000E-02 0. -1.
         25    2    1    2    0    0  0.52151589270E+02 -0.25266375212E+02  0.14148420717E+04  0.14215348053E+04  0.12499974814E+03 0.  0.
         23    2    1    2    0    0 -0.52151589270E+02  0.25266375212E+02  0.26151018673E+03  0.28241086200E+03  0.89499381178E+02 0.  0.
        -11    1    4    4    0    0 -0.15648341026E+02  0.45208775333E+02  0.21392258822E+03  0.21920670085E+03  0.51100000000E-03 0.  1.
         11    1    4    4    0    0 -0.36503248243E+02 -0.19942400121E+02  0.47587598509E+02  0.63204161153E+02  0.51100000000E-03 0. -1.
    9000005    1    3    3    0    0  0.34178730997E+02  0.49591514304E+02  0.68473722311E+03  0.68738167611E+03  0.10000000000E+01 0.  0.
    9000005    1    3    3    0    0  0.17972858273E+02 -0.74857889516E+02  0.73010484855E+03  0.73415312922E+03  0.10000000000E+01 0.  0.
<mgrwt>
<rscale>  0 0.12922598E+03</rscale>
<asrwt>0</asrwt>
<pdfrwt beam="2">  1        2 0.21225689E-02 0.13777923E+03</pdfrwt>
<pdfrwt beam="1">  1       -2 0.26002305E+00 0.13777923E+03</pdfrwt>
<totfact> 0.31265268E+02</totfact>
</mgrwt>
</event>
<event>
 8    2  0.8128359E-004  0.1340070E+03  0.7818608E-02  0.1233479E+00
          2   -1    0    0  501    0  0.00000000000E+00  0.00000000000E+00  0.21790838815E+04  0.21790838815E+04  0.25500000000E-02 0.  1.
         -2   -1    0    0    0  501 -0.00000000000E+00 -0.00000000000E+00 -0.66137780984E+01  0.66137785900E+01  0.25500000000E-02 0. -1.
         25    2    1    2    0    0 -0.48214485110E+02  0.28633547017E+01  0.11058194544E+04  0.11139095804E+04  0.12500020939E+03 0.  0.
         23    2    1    2    0    0  0.48214485110E+02 -0.28633547017E+01  0.10666506490E+04  0.10717880796E+04  0.93022821065E+02 0.  0.
        -11    1    4    4    0    0 -0.14500621041E+02  0.68234948953E+01  0.38786933074E+02  0.41967300017E+02  0.51100000000E-03 0.  1.
         11    1    4    4    0    0  0.62715106151E+02 -0.96868495969E+01  0.10278637159E+04  0.10298207796E+04  0.51100000000E-03 0. -1.
    9000005    1    3    3    0    0 -0.57827521462E+02 -0.46360170452E+02  0.84949275231E+03  0.85272048402E+03  0.10000000000E+01 0.  0.
    9000005    1    3    3    0    0  0.96130363525E+01  0.49223525154E+02  0.25632670207E+03  0.26118909642E+03  0.10000000000E+01 0.  0.
<mgrwt>
<rscale>  0 0.12602336E+03</rscale>
<asrwt>0</asrwt>
<pdfrwt beam="1">  1        2 0.33524448E+00 0.13400704E+03</pdfrwt>
<pdfrwt beam="2">  1       -2 0.10175019E-02 0.13400704E+03</pdfrwt>
<totfact> 0.12191803E+04</totfact>
</mgrwt>
</event>
<event>
 8    2  0.8128359E-004  0.1533944E+03  0.7818608E-02  0.1204623E+00
         -2   -1    0    0    0  501 -0.00000000000E+00  0.00000000000E+00  0.63488827141E+02  0.63488827193E+02  0.25500000000E-02 0.  1.
          2   -1    0    0  501    0  0.00000000000E+00 -0.00000000000E+00 -0.34039572229E+03  0.34039572230E+03  0.25500000000E-02 0. -1.
         25    2    1    2    0    0  0.80822494882E+02 -0.37025893614E+02 -0.20762237390E+03  0.25814119710E+03  0.12500653992E+03 0.  0.
         23    2    1    2    0    0 -0.80822494882E+02  0.37025893614E+02 -0.69284521253E+02  0.14574335239E+03  0.92399066033E+02 0.  0.
        -11    1    4    4    0    0  0.30759811002E+01 -0.19876781282E+02 -0.31866724760E+02  0.37683368228E+02  0.51100000000E-03 0.  1.
         11    1    4    4    0    0 -0.83898475982E+02  0.56902674895E+02 -0.37417796493E+02  0.10805998416E+03  0.51100000000E-03 0. -1.
    9000005    1    3    3    0    0  0.90841810980E+02  0.18906670359E+02 -0.15519377937E+03  0.18081981628E+03  0.10000000000E+01 0.  0.
    9000005    1    3    3    0    0 -0.10019316098E+02 -0.55932563973E+02 -0.52428594530E+02  0.77321380821E+02  0.10000000000E+01 0.  0.
<mgrwt>
<rscale>  0 0.14667204E+03</rscale>
<asrwt>0</asrwt>
<pdfrwt beam="2">  1        2 0.52368571E-01 0.15339435E+03</pdfrwt>
<pdfrwt beam="1">  1       -2 0.97675121E-02 0.15339435E+03</pdfrwt>
<totfact> 0.63206639E+03</totfact>
</mgrwt>
</event>
<event>
 8    2  0.8128359E-004  0.1390125E+03  0.7818608E-02  0.1226220E+00
          2   -1    0    0  501    0  0.00000000000E+00  0.00000000000E+00  0.10478702872E+04  0.10478702872E+04  0.25500000000E-02 0. -1.
         -2   -1    0    0    0  501 -0.00000000000E+00 -0.00000000000E+00 -0.14884792571E+02  0.14884792790E+02  0.25500000000E-02 0.  1.
         25    2    1    2    0    0 -0.42403139432E+02  0.43653741430E+02  0.63912171082E+03  0.65406501899E+03  0.12498324867E+03 0.  0.
         23    2    1    2    0    0  0.42403139432E+02 -0.43653741430E+02  0.39386378382E+03  0.40869006102E+03  0.90527401344E+02 0.  0.
        -11    1    4    4    0    0 -0.22600668453E+02 -0.32248863586E+02  0.20172302045E+03  0.20553091348E+03  0.51100000000E-03 0. -1.
         11    1    4    4    0    0  0.65003807885E+02 -0.11404877844E+02  0.19214076337E+03  0.20315914753E+03  0.51100000000E-03 0.  1.
    9000005    1    3    3    0    0 -0.22612828334E+02  0.87664863656E+02  0.43356460474E+03  0.44291730019E+03  0.10000000000E+01 0.  0.
    9000005    1    3    3    0    0 -0.19790311098E+02 -0.44011122226E+02  0.20555710608E+03  0.21114771879E+03  0.10000000000E+01 0.  0.
<mgrwt>
<rscale>  0 0.13083646E+03</rscale>
<asrwt>0</asrwt>
<pdfrwt beam="1">  1        2 0.16121087E+00 0.13901255E+03</pdfrwt>
<pdfrwt beam="2">  1       -2 0.22899673E-02 0.13901255E+03</pdfrwt>
<totfact> 0.14924776E+04</totfact>
</mgrwt>
</event>
<event>
 8    2  0.8128359E-004  0.1445762E+03  0.7818608E-02  0.1221352E+00
         -2   -1    0    0    0  501 -0.00000000000E+00  0.00000000000E+00  0.85491499157E+01  0.85491502960E+01  0.25500000000E-02 0.  1.
          2   -1    0    0  501    0  0.00000000000E+00 -0.00000000000E+00 -0.19165410383E+04  0.19165410383E+04  0.25500000000E-02 0. -1.
         25    2    1    2    0    0  0.35245326956E+02  0.63520915860E+02 -0.92087413361E+03  0.93215419629E+03  0.12500054351E+03 0.  0.
         23    2    1    2    0    0 -0.35245326956E+02 -0.63520915860E+02 -0.98711775479E+03  0.99293599232E+03  0.79014449389E+02 0.  0.
        -11    1    4    4    0    0 -0.27994742736E+02 -0.21271157303E+02 -0.80782794594E+03  0.80859270216E+03  0.51100000000E-03 0. -1.
         11    1    4    4    0    0 -0.72505842199E+01 -0.42249758557E+02 -0.17928980885E+03  0.18434329016E+03  0.51100000000E-03 0.  1.
    9000005    1    3    3    0    0 -0.18925191089E+02  0.82636907713E+02 -0.62808804168E+03  0.63378435565E+03  0.10000000000E+01 0.  0.
    9000005    1    3    3    0    0  0.54170518045E+02 -0.19115991853E+02 -0.29278609194E+03  0.29836984064E+03  0.10000000000E+01 0.  0.
<mgrwt>
<rscale>  0 0.13420112E+03</rscale>
<asrwt>0</asrwt>
<pdfrwt beam="2">  1        2 0.29485213E+00 0.14457619E+03</pdfrwt>
<pdfrwt beam="1">  1       -2 0.13152554E-02 0.14457619E+03</pdfrwt>
<totfact> 0.11537346E+04</totfact>
</mgrwt>
</event>
<event>
 8    2  0.8128359E-004  0.1255281E+03  0.7818608E-02  0.1249095E+00
         -2   -1    0    0    0  501 -0.00000000000E+00  0.00000000000E+00  0.10243928619E+02  0.10243928936E+02  0.25500000000E-02 0.  1.
          2   -1    0    0  501    0  0.00000000000E+00 -0.00000000000E+00 -0.12049459084E+04  0.12049459084E+04  0.25500000000E-02 0. -1.
         25    2    1    2    0    0 -0.35442216609E+01 -0.10933778933E+02 -0.57357448201E+03  0.58714987918E+03  0.12500074070E+03 0.  0.
         23    2    1    2    0    0  0.35442216609E+01  0.10933778933E+02 -0.62112749776E+03  0.62803995816E+03  0.92210148744E+02 0.  0.
        -11    1    4    4    0    0 -0.19745070122E+01 -0.33157468069E+02 -0.45044937372E+03  0.45167239749E+03  0.51100000000E-03 0. -1.
         11    1    4    4    0    0  0.55187286731E+01  0.44091247002E+02 -0.17067812404E+03  0.17636756067E+03  0.51100000000E-03 0.  1.
    9000005    1    3    3    0    0 -0.25074637318E+02 -0.45463466836E+02 -0.10838636001E+03  0.12018430551E+03  0.10000000000E+01 0.  0.
    9000005    1    3    3    0    0  0.21530415657E+02  0.34529687903E+02 -0.46518812200E+03  0.46696557368E+03  0.10000000000E+01 0.  0.
<mgrwt>
<rscale>  0 0.11643600E+03</rscale>
<asrwt>0</asrwt>
<pdfrwt beam="2">  1        2 0.18537618E+00 0.12552806E+03</pdfrwt>
<pdfrwt beam="1">  1       -2 0.15759900E-02 0.12552806E+03</pdfrwt>
<totfact> 0.20752293E+04</totfact>
</mgrwt>
</event>
<event>
 8    2  0.8128359E-004  0.1271291E+03  0.7818608E-02  0.1245999E+00
         -2   -1    0    0    0  501 -0.00000000000E+00  0.00000000000E+00  0.56304208941E+01  0.56304214715E+01  0.25500000000E-02 0.  1.
          2   -1    0    0  501    0  0.00000000000E+00 -0.00000000000E+00 -0.27528675290E+04  0.27528675290E+04  0.25500000000E-02 0. -1.
         25    2    1    2    0    0 -0.23161014178E+02 -0.62771579179E+00 -0.91494089043E+03  0.92373082414E+03  0.12499990348E+03 0.  0.
         23    2    1    2    0    0  0.23161014178E+02  0.62771579179E+00 -0.18322962176E+04  0.18347671263E+04  0.92326334158E+02 0.  0.
        -11    1    4    4    0    0 -0.28047288486E+02  0.23961227844E+02 -0.91788951966E+03  0.91863048127E+03  0.51100000000E-03 0. -1.
         11    1    4    4    0    0  0.51208302664E+02 -0.23333512053E+02 -0.91440669797E+03  0.91613664501E+03  0.51100000000E-03 0.  1.
    9000005    1    3    3    0    0 -0.34925149214E+02 -0.58414820009E+02 -0.47363742325E+03  0.47850336043E+03  0.10000000000E+01 0.  0.
    9000005    1    3    3    0    0  0.11764135036E+02  0.57787104217E+02 -0.44130346718E+03  0.44522746370E+03  0.10000000000E+01 0.  0.
<mgrwt>
<rscale>  0 0.11825801E+03</rscale>
<asrwt>0</asrwt>
<pdfrwt beam="2">  1        2 0.42351701E+00 0.12712908E+03</pdfrwt>
<pdfrwt beam="1">  1       -2 0.86622084E-03 0.12712908E+03</pdfrwt>
<totfact> 0.75878720E+03</totfact>
</mgrwt>
</event>
<event>
 8    2  0.8128359E-004  0.1304348E+03  0.7818608E-02  0.1239691E+00
          2   -1    0    0  501    0  0.00000000000E+00  0.00000000000E+00  0.91739645915E+03  0.91739645915E+03  0.25500000000E-02 0. -1.
         -2   -1    0    0    0  501 -0.00000000000E+00 -0.00000000000E+00 -0.15840494813E+02  0.15840495018E+02  0.25500000000E-02 0.  1.
         25    2    1    2    0    0 -0.82546123144E+01  0.36339202130E+02  0.36958064225E+03  0.39192231337E+03  0.12499828939E+03 0.  0.
         23    2    1    2    0    0  0.82546123144E+01 -0.36339202130E+02  0.53197532208E+03  0.54131464081E+03  0.92925350726E+02 0.  0.
        -11    1    4    4    0    0 -0.18666876251E+00 -0.44319645202E+02  0.52669148229E+03  0.52855291439E+03  0.51100000000E-03 0. -1.
         11    1    4    4    0    0  0.84412810769E+01  0.79804430725E+01  0.52838397985E+01  0.12761726417E+02  0.51100000000E-03 0.  1.
    9000005    1    3    3    0    0 -0.85704723301E+01 -0.45403932802E+02  0.17191016680E+03  0.17801425662E+03  0.10000000000E+01 0.  0.
    9000005    1    3    3    0    0  0.31586001572E+00  0.81743134932E+02  0.19767047545E+03  0.21390805675E+03  0.10000000000E+01 0.  0.
<mgrwt>
<rscale>  0 0.12208836E+03</rscale>
<asrwt>0</asrwt>
<pdfrwt beam="1">  1        2 0.14113792E+00 0.13043484E+03</pdfrwt>
<pdfrwt beam="2">  1       -2 0.24369992E-02 0.13043484E+03</pdfrwt>
<totfact> 0.16266723E+04</totfact>
</mgrwt>
</event>
<event>
 8    2  0.8128359E-004  0.1593055E+03  0.7818608E-02  0.1196483E+00
          2   -1    0    0  501    0  0.00000000000E+00  0.00000000000E+00  0.22470434541E+04  0.22470434541E+04  0.25500000000E-02 0. -1.
         -2   -1    0    0    0  501 -0.00000000000E+00 -0.00000000000E+00 -0.10630995383E+02  0.10630995689E+02  0.25500000000E-02 0.  1.
         25    2    1    2    0    0  0.10692088437E+01 -0.98756325145E+02  0.87110293629E+03  0.88554986716E+03  0.12499714655E+03 0.  0.
         23    2    1    2    0    0 -0.10692088437E+01  0.98756325145E+02  0.13653095224E+04  0.13721245826E+04  0.94349474139E+02 0.  0.
        -11    1    4    4    0    0  0.17845743530E+02  0.10299319770E+03  0.84303515229E+03  0.84949063404E+03  0.51100000000E-03 0.  1.
         11    1    4    4    0    0 -0.18914952374E+02 -0.42368725579E+01  0.52227437016E+03  0.52263394861E+03  0.51100000000E-03 0. -1.
    9000005    1    3    3    0    0  0.47027599367E+02 -0.20975755600E+02  0.53640156484E+03  0.53886845908E+03  0.10000000000E+01 0.  0.
    9000005    1    3    3    0    0 -0.45958390523E+02 -0.77780569545E+02  0.33470137145E+03  0.34668140808E+03  0.10000000000E+01 0.  0.
<mgrwt>
<rscale>  0 0.15329385E+03</rscale>
<asrwt>0</asrwt>
<pdfrwt beam="1">  1        2 0.34569932E+00 0.15930550E+03</pdfrwt>
<pdfrwt beam="2">  1       -2 0.16355362E-02 0.15930550E+03</pdfrwt>
<totfact> 0.56943990E+03</totfact>
</mgrwt>
</event>
<event>
 8    2  0.8128359E-004  0.1281107E+03  0.7818608E-02  0.1243392E+00
         -2   -1    0    0    0  501 -0.00000000000E+00  0.00000000000E+00  0.36427453675E+02  0.36427453764E+02  0.25500000000E-02 0.  1.
          2   -1    0    0  501    0  0.00000000000E+00 -0.00000000000E+00 -0.36740381216E+03  0.36740381217E+03  0.25500000000E-02 0. -1.
         25    2    1    2    0    0 -0.11076976453E+02 -0.25770125257E+02 -0.22883557873E+03  0.26225575160E+03  0.12500223355E+03 0.  0.
         23    2    1    2    0    0  0.11076976453E+02  0.25770125257E+02 -0.10214077976E+03  0.14157551434E+03  0.93936620158E+02 0.  0.
        -11    1    4    4    0    0 -0.31960231527E+02  0.66421720703E+01 -0.42164609389E+01  0.32914334144E+02  0.51100000000E-03 0.  1.
         11    1    4    4    0    0  0.43037207980E+02  0.19127953187E+02 -0.97924318824E+02  0.10866118019E+03  0.51100000000E-03 0. -1.
    9000005    1    3    3    0    0 -0.42285708424E+02 -0.63724384888E+02 -0.16343702258E+03  0.18044816074E+03  0.10000000000E+01 0.  0.
    9000005    1    3    3    0    0  0.31208731971E+02  0.37954259631E+02 -0.65398556151E+02  0.81807590858E+02  0.10000000000E+01 0.  0.
<mgrwt>
<rscale>  0 0.11982144E+03</rscale>
<asrwt>0</asrwt>
<pdfrwt beam="2">  1        2 0.56523661E-01 0.12811072E+03</pdfrwt>
<pdfrwt beam="1">  1       -2 0.56042239E-02 0.12811072E+03</pdfrwt>
<totfact> 0.13524832E+04</totfact>
</mgrwt>
</event>
<event>
 8    2  0.8128359E-004  0.1698532E+03  0.7818608E-02  0.1185228E+00
          2   -1    0    0  501    0  0.00000000000E+00  0.00000000000E+00  0.16215547096E+03  0.16215547098E+03  0.25500000000E-02 0. -1.
         -2   -1    0    0    0  501 -0.00000000000E+00 -0.00000000000E+00 -0.19362040000E+03  0.19362040001E+03  0.25500000000E-02 0.  1.
         25    2    1    2    0    0  0.98459704215E+02  0.59421000102E+02 -0.98696203611E+02  0.19644602002E+03  0.12499971827E+03 0.  0.
         23    2    1    2    0    0 -0.98459704215E+02 -0.59421000102E+02  0.67231274577E+02  0.15932985098E+03  0.87411604059E+02 0.  0.
        -11    1    4    4    0    0 -0.33581821890E+02  0.50824791556E+01  0.58216728241E+02  0.67399983703E+02  0.51100000000E-03 0. -1.
         11    1    4    4    0    0 -0.64877882325E+02 -0.64503479257E+02  0.90145463358E+01  0.91929867275E+02  0.51100000000E-03 0.  1.
    9000005    1    3    3    0    0  0.30774722233E+02  0.22067142116E+02 -0.11178665616E+03  0.11803092300E+03  0.10000000000E+01 0.  0.
    9000005    1    3    3    0    0  0.67684981983E+02  0.37353857985E+02  0.13090452548E+02  0.78415097018E+02  0.10000000000E+01 0.  0.
<mgrwt>
<rscale>  0 0.16311167E+03</rscale>
<asrwt>0</asrwt>
<pdfrwt beam="1">  1        2 0.24946996E-01 0.16985317E+03</pdfrwt>
<pdfrwt beam="2">  1       -2 0.29787754E-01 0.16985317E+03</pdfrwt>
<totfact> 0.21895648E+03</totfact>
</mgrwt>
</event>
<event>
 8    2  0.8128359E-004  0.1799924E+03  0.7818608E-02  0.1173378E+00
          2   -1    0    0  501    0  0.00000000000E+00  0.00000000000E+00  0.13099357050E+03  0.13099357053E+03  0.25500000000E-02 0. -1.
         -2   -1    0    0    0  501 -0.00000000000E+00 -0.00000000000E+00 -0.22512479042E+03  0.22512479044E+03  0.25500000000E-02 0.  1.
         25    2    1    2    0    0 -0.10876812172E+03 -0.70297270351E+02 -0.80086338656E+02  0.19700525575E+03  0.12500015454E+03 0.  0.
         23    2    1    2    0    0  0.10876812172E+03  0.70297270351E+02 -0.14044881263E+02  0.15911310521E+03  0.91364714415E+02 0.  0.
        -11    1    4    4    0    0  0.86177042547E+02  0.34393321742E+01  0.37690463535E+01  0.86327964059E+02  0.51100000000E-03 0. -1.
         11    1    4    4    0    0  0.22591079169E+02  0.66857938177E+02 -0.17813927617E+02  0.72785141153E+02  0.51100000000E-03 0.  1.
    9000005    1    3    3    0    0 -0.26987901309E+00 -0.22903740947E+02  0.28343839075E+02  0.36455828033E+02  0.10000000000E+01 0.  0.
    9000005    1    3    3    0    0 -0.10849824270E+03 -0.47393529404E+02 -0.10843017773E+03  0.16054942772E+03  0.10000000000E+01 0.  0.
<mgrwt>
<rscale>  0 0.17435821E+03</rscale>
<asrwt>0</asrwt>
<pdfrwt beam="1">  1        2 0.20152857E-01 0.17999236E+03</pdfrwt>
<pdfrwt beam="2">  1       -2 0.34634583E-01 0.17999236E+03</pdfrwt>
<totfact> 0.21175726E+03</totfact>
</mgrwt>
</event>
<event>
 8    2  0.8128359E-004  0.1447567E+03  0.7818608E-02  0.1217185E+00
         -2   -1    0    0    0  501 -0.00000000000E+00  0.00000000000E+00  0.11382227496E+02  0.11382227782E+02  0.25500000000E-02 0.  1.
          2   -1    0    0  501    0  0.00000000000E+00 -0.00000000000E+00 -0.15690879214E+04  0.15690879214E+04  0.25500000000E-02 0. -1.
         25    2    1    2    0    0 -0.30589467737E+02  0.66286973294E+02 -0.10216078225E+04  0.10318124984E+04  0.12499924205E+03 0.  0.
         23    2    1    2    0    0  0.30589467737E+02 -0.66286973294E+02 -0.53609787146E+03  0.54865765083E+03  0.91074758675E+02 0.  0.
        -11    1    4    4    0    0  0.25802639504E+02 -0.12722821439E+01 -0.35897113176E+02  0.44226662115E+02  0.51100000000E-03 0.  1.
         11    1    4    4    0    0  0.47868282332E+01 -0.65014691150E+02 -0.50020075828E+03  0.50443098871E+03  0.51100000000E-03 0. -1.
    9000005    1    3    3    0    0 -0.54523281709E+02 -0.42407804946E+01 -0.67909864420E+03  0.68129783576E+03  0.10000000000E+01 0.  0.
    9000005    1    3    3    0    0  0.23933813972E+02  0.70527753788E+02 -0.34250917829E+03  0.35051466263E+03  0.10000000000E+01 0.  0.
<mgrwt>
<rscale>  0 0.13717284E+03</rscale>
<asrwt>0</asrwt>
<pdfrwt beam="2">  1        2 0.24139797E+00 0.14475665E+03</pdfrwt>
<pdfrwt beam="1">  1       -2 0.17511132E-02 0.14475665E+03</pdfrwt>
<totfact> 0.11508722E+04</totfact>
</mgrwt>
</event>
<event>
 8    2  0.8128359E-004  0.1303504E+03  0.7818608E-02  0.1240208E+00
         -2   -1    0    0    0  501 -0.00000000000E+00  0.00000000000E+00  0.14070222216E+02  0.14070222447E+02  0.25500000000E-02 0.  1.
          2   -1    0    0  501    0  0.00000000000E+00 -0.00000000000E+00 -0.96489789513E+03  0.96489789513E+03  0.25500000000E-02 0. -1.
         25    2    1    2    0    0  0.36925592371E+02 -0.15310717907E+01 -0.45511434276E+03  0.47341344890E+03  0.12500154023E+03 0.  0.
         23    2    1    2    0    0 -0.36925592371E+02  0.15310717907E+01 -0.49571333016E+03  0.50555466868E+03  0.92130200154E+02 0.  0.
        -11    1    4    4    0    0 -0.55020541401E+02  0.73309330299E+01 -0.16094975617E+03  0.17025224394E+03  0.51100000000E-03 0.  1.
         11    1    4    4    0    0  0.18094949030E+02 -0.57998612392E+01 -0.33476357398E+03  0.33530242474E+03  0.51100000000E-03 0. -1.
    9000005    1    3    3    0    0 -0.42233225471E+02 -0.22460722456E+02 -0.14614723014E+03  0.15377952486E+03  0.10000000000E+01 0.  0.
    9000005    1    3    3    0    0  0.79158817842E+02  0.20929650665E+02 -0.30896711261E+03  0.31963392404E+03  0.10000000000E+01 0.  0.
<mgrwt>
<rscale>  0 0.12176847E+03</rscale>
<asrwt>0</asrwt>
<pdfrwt beam="2">  1        2 0.14844578E+00 0.13035041E+03</pdfrwt>
<pdfrwt beam="1">  1       -2 0.21646503E-02 0.13035041E+03</pdfrwt>
<totfact> 0.18072271E+04</totfact>
</mgrwt>
</event>
<event>
 8    2  0.8128359E-004  0.1347352E+03  0.7818608E-02  0.1232532E+00
         -2   -1    0    0    0  501 -0.00000000000E+00  0.00000000000E+00  0.24424995072E+03  0.24424995073E+03  0.25500000000E-02 0.  1.
          2   -1    0    0  501    0  0.00000000000E+00 -0.00000000000E+00 -0.60724208687E+02  0.60724208741E+02  0.25500000000E-02 0. -1.
         25    2    1    2    0    0 -0.50282090943E+02 -0.13802285801E+01  0.12898038916E+03  0.18651947261E+03  0.12499351654E+03 0.  0.
         23    2    1    2    0    0  0.50282090943E+02  0.13802285801E+01  0.54545352875E+02  0.11845468686E+03  0.92337011095E+02 0.  0.
        -11    1    4    4    0    0  0.49313659332E+02  0.32099757982E+02  0.63372718948E+02  0.86477355223E+02  0.51100000000E-03 0.  1.
         11    1    4    4    0    0  0.96843161130E+00 -0.30719529402E+02 -0.88273660733E+01  0.31977331636E+02  0.51100000000E-03 0. -1.
    9000005    1    3    3    0    0 -0.12372019386E+02 -0.36901372030E+02  0.12880285534E+03  0.13455836528E+03  0.10000000000E+01 0.  0.
    9000005    1    3    3    0    0 -0.37910071556E+02  0.35521143450E+02  0.17753381254E+00  0.51961107337E+02  0.10000000000E+01 0.  0.
<mgrwt>
<rscale>  0 0.12663743E+03</rscale>
<asrwt>0</asrwt>
<pdfrwt beam="2">  1        2 0.93421861E-02 0.13473520E+03</pdfrwt>
<pdfrwt beam="1">  1       -2 0.37576915E-01 0.13473520E+03</pdfrwt>
<totfact> 0.44637243E+03</totfact>
</mgrwt>
</event>
<event>
 8    2  0.8128359E-004  0.1467734E+03  0.7818608E-02  0.1210049E+00
          2   -1    0    0  501    0  0.00000000000E+00  0.00000000000E+00  0.38048053805E+04  0.38048053805E+04  0.25500000000E-02 0. -1.
         -2   -1    0    0    0  501 -0.00000000000E+00 -0.00000000000E+00 -0.59860096392E+01  0.59860101824E+01  0.25500000000E-02 0.  1.
         25    2    1    2    0    0  0.25247588504E+02  0.72663420719E+02  0.27494772278E+04  0.27533919908E+04  0.12500006224E+03 0.  0.
         23    2    1    2    0    0 -0.25247588504E+02 -0.72663420719E+02  0.10493421430E+04  0.10573993998E+04  0.10515295604E+03 0.  0.
        -11    1    4    4    0    0 -0.17269476066E+02 -0.32351262186E+02  0.93798729637E+03  0.93870389747E+03  0.51100000000E-03 0. -1.
         11    1    4    4    0    0 -0.79781124382E+01 -0.40312158533E+02  0.11135484667E+03  0.11869550236E+03  0.51100000000E-03 0.  1.
    9000005    1    3    3    0    0  0.73454287392E+02  0.35412411221E+02  0.18894407214E+04  0.18911998336E+04  0.10000000000E+01 0.  0.
    9000005    1    3    3    0    0 -0.48206698888E+02  0.37251009498E+02  0.86003650641E+03  0.86219215717E+03  0.10000000000E+01 0.  0.
<mgrwt>
<rscale>  0 0.14246570E+03</rscale>
<asrwt>0</asrwt>
<pdfrwt beam="1">  1        2 0.58535510E+00 0.14677339E+03</pdfrwt>
<pdfrwt beam="2">  1       -2 0.92092394E-03 0.14677339E+03</pdfrwt>
<totfact> 0.15492666E+03</totfact>
</mgrwt>
</event>
<event>
 8    2  0.8128359E-004  0.1462048E+03  0.7818608E-02  0.1215130E+00
         -2   -1    0    0    0  501 -0.00000000000E+00  0.00000000000E+00  0.30742812533E+02  0.30742812639E+02  0.25500000000E-02 0.  1.
          2   -1    0    0  501    0  0.00000000000E+00 -0.00000000000E+00 -0.56997712958E+03  0.56997712958E+03  0.25500000000E-02 0. -1.
         25    2    1    2    0    0 -0.75687116440E+02 -0.29209421035E+01 -0.28566836227E+03  0.32090849378E+03  0.12505509460E+03 0.  0.
         23    2    1    2    0    0  0.75687116440E+02  0.29209421035E+01 -0.25356595478E+03  0.27981144844E+03  0.90893793826E+02 0.  0.
        -11    1    4    4    0    0  0.37787673090E+02  0.16981122065E+02 -0.26506856326E+02  0.49182112365E+02  0.51100000000E-03 0.  1.
         11    1    4    4    0    0  0.37899443350E+02 -0.14060179962E+02 -0.22705909845E+03  0.23062933607E+03  0.51100000000E-03 0. -1.
    9000005    1    3    3    0    0 -0.10105934643E+02 -0.57480425420E+02 -0.14611509150E+03  0.15734277608E+03  0.10000000000E+01 0.  0.
    9000005    1    3    3    0    0 -0.65581181797E+02  0.54559483316E+02 -0.13955327076E+03  0.16356571770E+03  0.10000000000E+01 0.  0.
<mgrwt>
<rscale>  0 0.13866997E+03</rscale>
<asrwt>0</asrwt>
<pdfrwt beam="2">  1        2 0.87688781E-01 0.14620482E+03</pdfrwt>
<pdfrwt beam="1">  1       -2 0.47296639E-02 0.14620482E+03</pdfrwt>
<totfact> 0.10934433E+04</totfact>
</mgrwt>
</event>
<event>
 8    2  0.8128359E-004  0.1517614E+03  0.7818608E-02  0.1206309E+00
          2   -1    0    0  501    0  0.00000000000E+00  0.00000000000E+00  0.30508273901E+03  0.30508273902E+03  0.25500000000E-02 0. -1.
         -2   -1    0    0    0  501 -0.00000000000E+00 -0.00000000000E+00 -0.66518207584E+02  0.66518207633E+02  0.25500000000E-02 0.  1.
         25    2    1    2    0    0  0.68946608014E+02 -0.51511806351E+02  0.16524192466E+03  0.22435777101E+03  0.12499765917E+03 0.  0.
         23    2    1    2    0    0 -0.68946608014E+02  0.51511806351E+02  0.73322606773E+02  0.14724317565E+03  0.94325220170E+02 0.  0.
        -11    1    4    4    0    0 -0.79800559014E+02  0.69032393942E+02  0.52165015922E+02  0.11770636992E+03  0.51100000000E-03 0.  1.
         11    1    4    4    0    0  0.10853951000E+02 -0.17520587591E+02  0.21157590851E+02  0.29536805730E+02  0.51100000000E-03 0. -1.
    9000005    1    3    3    0    0  0.29870050231E+02 -0.87475831057E+02  0.72491432903E+02  0.11747446005E+03  0.10000000000E+01 0.  0.
    9000005    1    3    3    0    0  0.39076557783E+02  0.35964024706E+02  0.92750491754E+02  0.10688331096E+03  0.10000000000E+01 0.  0.
<mgrwt>
<rscale>  0 0.14534794E+03</rscale>
<asrwt>0</asrwt>
<pdfrwt beam="1">  1        2 0.46935806E-01 0.15176138E+03</pdfrwt>
<pdfrwt beam="2">  1       -2 0.10233570E-01 0.15176138E+03</pdfrwt>
<totfact> 0.65948349E+03</totfact>
</mgrwt>
</event>
<event>
 8    2  0.8128359E-004  0.1438518E+03  0.7818608E-02  0.1218763E+00
          2   -1    0    0  501    0  0.00000000000E+00  0.00000000000E+00  0.46898022273E+03  0.46898022274E+03  0.25500000000E-02 0. -1.
         -2   -1    0    0    0  501 -0.00000000000E+00 -0.00000000000E+00 -0.21709143239E+03  0.21709143240E+03  0.25500000000E-02 0.  1.
         25    2    1    2    0    0 -0.29858582404E+02  0.64632400158E+02  0.44146805545E+03  0.46431389573E+03  0.12499787076E+03 0.  0.
         23    2    1    2    0    0  0.29858582404E+02 -0.64632400158E+02 -0.18957926511E+03  0.22175775941E+03  0.90373248293E+02 0.  0.
        -11    1    4    4    0    0  0.43901604894E+02 -0.71989172530E+02 -0.10008143929E+03  0.13086667400E+03  0.51100000000E-03 0.  1.
         11    1    4    4    0    0 -0.14043022490E+02  0.73567723724E+01 -0.89497825817E+02  0.90891085408E+02  0.51100000000E-03 0. -1.
    9000005    1    3    3    0    0 -0.74630268371E+02  0.64210795751E+02  0.32256267748E+03  0.33725418330E+03  0.10000000000E+01 0.  0.
    9000005    1    3    3    0    0  0.44771685966E+02  0.42160440712E+00  0.11890537797E+03  0.12705971244E+03  0.10000000000E+01 0.  0.
<mgrwt>
<rscale>  0 0.13603698E+03</rscale>
<asrwt>0</asrwt>
<pdfrwt beam="1">  1        2 0.72150804E-01 0.14385183E+03</pdfrwt>
<pdfrwt beam="2">  1       -2 0.33398682E-01 0.14385183E+03</pdfrwt>
<totfact> 0.56443910E+02</totfact>
</mgrwt>
</event>
<event>
 8    2  0.8128359E-004  0.1483153E+03  0.7818608E-02  0.1211960E+00
         -2   -1    0    0    0  501 -0.00000000000E+00  0.00000000000E+00  0.89523949074E+01  0.89523952705E+01  0.25500000000E-02 0.  1.
          2   -1    0    0  501    0  0.00000000000E+00 -0.00000000000E+00 -0.21680605616E+04  0.21680605616E+04  0.25500000000E-02 0. -1.
         25    2    1    2    0    0  0.29641267293E+02 -0.74125928394E+02 -0.14556205197E+04  0.14631570413E+04  0.12499668856E+03 0.  0.
         23    2    1    2    0    0 -0.29641267293E+02  0.74125928394E+02 -0.70348764700E+03  0.71385591558E+03  0.91225767945E+02 0.  0.
        -11    1    4    4    0    0  0.23973116695E+02 -0.44046610498E+01 -0.19881372389E+03  0.20030229197E+03  0.51100000000E-03 0.  1.
         11    1    4    4    0    0 -0.53614383988E+02  0.78530589444E+02 -0.50467392311E+03  0.51355362361E+03  0.51100000000E-03 0. -1.
    9000005    1    3    3    0    0  0.43736275137E+02 -0.93114453989E+02 -0.73690060682E+03  0.74404749018E+03  0.10000000000E+01 0.  0.
    9000005    1    3    3    0    0 -0.14095007844E+02  0.18988525595E+02 -0.71871991289E+03  0.71910955114E+03  0.10000000000E+01 0.  0.
<mgrwt>
<rscale>  0 0.14102209E+03</rscale>
<asrwt>0</asrwt>
<pdfrwt beam="2">  1        2 0.33354736E+00 0.14831531E+03</pdfrwt>
<pdfrwt beam="1">  1       -2 0.13772933E-02 0.14831531E+03</pdfrwt>
<totfact> 0.80186469E+03</totfact>
</mgrwt>
</event>
<event>
 8    2  0.8128359E-004  0.1303927E+03  0.7818608E-02  0.1239532E+00
          2   -1    0    0  501    0  0.00000000000E+00  0.00000000000E+00  0.21047028680E+04  0.21047028680E+04  0.25500000000E-02 0.  1.
         -2   -1    0    0    0  501 -0.00000000000E+00 -0.00000000000E+00 -0.67107678960E+01  0.67107683805E+01  0.25500000000E-02 0. -1.
         25    2    1    2    0    0  0.36979455798E+02 -0.32369850435E+01  0.14249323147E+04  0.14308858604E+04  0.12499714210E+03 0.  0.
         23    2    1    2    0    0 -0.36979455798E+02  0.32369850435E+01  0.67305978532E+03  0.68052777598E+03  0.93437792426E+02 0.  0.
        -11    1    4    4    0    0  0.21049815235E+02  0.27999479050E+02  0.31611961948E+03  0.31805452264E+03  0.51100000000E-03 0. -1.
         11    1    4    4    0    0 -0.58029271033E+02 -0.24762494006E+02  0.35694016583E+03  0.36247325335E+03  0.51100000000E-03 0.  1.
    9000005    1    3    3    0    0  0.49778539330E+02 -0.54797483121E+02  0.97982347978E+03  0.98261677100E+03  0.10000000000E+01 0.  0.
    9000005    1    3    3    0    0 -0.12799083532E+02  0.51560498078E+02  0.44510883496E+03  0.44826908935E+03  0.10000000000E+01 0.  0.
<mgrwt>
<rscale>  0 0.12218731E+03</rscale>
<asrwt>0</asrwt>
<pdfrwt beam="1">  1        2 0.32380024E+00 0.13039265E+03</pdfrwt>
<pdfrwt beam="2">  1       -2 0.10324265E-02 0.13039265E+03</pdfrwt>
<totfact> 0.13029539E+04</totfact>
</mgrwt>
</event>
<event>
 8    2  0.8128359E-004  0.1698008E+03  0.7818608E-02  0.1184487E+00
          2   -1    0    0  501    0  0.00000000000E+00  0.00000000000E+00  0.43108025602E+03  0.43108025603E+03  0.25500000000E-02 0. -1.
         -2   -1    0    0    0  501 -0.00000000000E+00 -0.00000000000E+00 -0.10499053633E+03  0.10499053636E+03  0.25500000000E-02 0.  1.
         25    2    1    2    0    0 -0.11477089060E+03 -0.59211289907E+01  0.34822868925E+03  0.38742164841E+03  0.12499958615E+03 0.  0.
         23    2    1    2    0    0  0.11477089060E+03  0.59211289907E+01 -0.22138969561E+02  0.14864914398E+03  0.91646150680E+02 0.  0.
        -11    1    4    4    0    0  0.94104941873E+02 -0.20429228390E+02 -0.46794035202E+02  0.10706435069E+03  0.51100000000E-03 0.  1.
         11    1    4    4    0    0  0.20665948727E+02  0.26350357381E+02  0.24655065641E+02  0.41584793289E+02  0.51100000000E-03 0. -1.
    9000005    1    3    3    0    0 -0.44845211652E+02  0.55654386427E+02  0.19946167378E+03  0.21188313534E+03  0.10000000000E+01 0.  0.
    9000005    1    3    3    0    0 -0.69925678948E+02 -0.61575515418E+02  0.14876701548E+03  0.17553851306E+03  0.10000000000E+01 0.  0.
<mgrwt>
<rscale>  0 0.16378635E+03</rscale>
<asrwt>0</asrwt>
<pdfrwt beam="1">  1        2 0.66320041E-01 0.16980081E+03</pdfrwt>
<pdfrwt beam="2">  1       -2 0.16152390E-01 0.16980081E+03</pdfrwt>
<totfact> 0.21903266E+03</totfact>
</mgrwt>
</event>
<event>
 8    2  0.8128359E-004  0.1381998E+03  0.7818608E-02  0.1226988E+00
         -2   -1    0    0    0  501 -0.00000000000E+00  0.00000000000E+00  0.75608702116E+01  0.75608706416E+01  0.25500000000E-02 0.  1.
          2   -1    0    0  501    0  0.00000000000E+00 -0.00000000000E+00 -0.25245034155E+04  0.25245034155E+04  0.25500000000E-02 0. -1.
         25    2    1    2    0    0 -0.27742311748E+02  0.51994900367E+02 -0.19366818512E+04  0.19416064963E+04  0.12500435288E+03 0.  0.
         23    2    1    2    0    0  0.27742311748E+02 -0.51994900367E+02 -0.58026069409E+03  0.59045778983E+03  0.92004472386E+02 0.  0.
        -11    1    4    4    0    0 -0.10997795955E+02 -0.13494195025E+01 -0.58707123034E+01  0.12539446243E+02  0.51100000000E-03 0.  1.
         11    1    4    4    0    0  0.38740107703E+02 -0.50645480864E+02 -0.57438998178E+03  0.57791834358E+03  0.51100000000E-03 0. -1.
    9000005    1    3    3    0    0  0.25025067608E+02 -0.29277314162E+02 -0.74268723678E+03  0.74368591947E+03  0.10000000000E+01 0.  0.
    9000005    1    3    3    0    0 -0.52767379356E+02  0.81272214529E+02 -0.11939946144E+04  0.11979205768E+04  0.10000000000E+01 0.  0.
<mgrwt>
<rscale>  0 0.13031571E+03</rscale>
<asrwt>0</asrwt>
<pdfrwt beam="2">  1        2 0.38838447E+00 0.13819983E+03</pdfrwt>
<pdfrwt beam="1">  1       -2 0.11632129E-02 0.13819983E+03</pdfrwt>
<totfact> 0.66313038E+03</totfact>
</mgrwt>
</event>
<event>
 8    2  0.8128359E-004  0.1490844E+03  0.7818608E-02  0.1211897E+00
          2   -1    0    0  501    0  0.00000000000E+00  0.00000000000E+00  0.11036456583E+04  0.11036456583E+04  0.25500000000E-02 0. -1.
         -2   -1    0    0    0  501 -0.00000000000E+00 -0.00000000000E+00 -0.20731599752E+02  0.20731599909E+02  0.25500000000E-02 0.  1.
         25    2    1    2    0    0 -0.76819909602E+02  0.26454848432E+02  0.84585320302E+03  0.85889102017E+03  0.12499994386E+03 0.  0.
         23    2    1    2    0    0  0.76819909602E+02 -0.26454848432E+02  0.23706085556E+03  0.26548623807E+03  0.87658062078E+02 0.  0.
        -11    1    4    4    0    0  0.20284318477E+02  0.20048070661E+02  0.16177716164E+02  0.32788675085E+02  0.51100000000E-03 0.  1.
         11    1    4    4    0    0  0.56535591125E+02 -0.46502919093E+02  0.22088313940E+03  0.23269756298E+03  0.51100000000E-03 0. -1.
    9000005    1    3    3    0    0  0.32468381567E+02  0.32239503881E+01  0.29638805110E+03  0.29818025839E+03  0.10000000000E+01 0.  0.
    9000005    1    3    3    0    0 -0.10928829117E+03  0.23230898044E+02  0.54946515191E+03  0.56071076178E+03  0.10000000000E+01 0.  0.
<mgrwt>
<rscale>  0 0.14106992E+03</rscale>
<asrwt>0</asrwt>
<pdfrwt beam="1">  1        2 0.16979167E+00 0.14908435E+03</pdfrwt>
<pdfrwt beam="2">  1       -2 0.31894764E-02 0.14908435E+03</pdfrwt>
<totfact> 0.85542358E+03</totfact>
</mgrwt>
</event>
<event>
 8    2  0.8128359E-004  0.1441468E+03  0.7818608E-02  0.1218080E+00
         -2   -1    0    0    0  501 -0.00000000000E+00  0.00000000000E+00  0.97289222198E+01  0.97289225539E+01  0.25500000000E-02 0.  1.
          2   -1    0    0  501    0  0.00000000000E+00 -0.00000000000E+00 -0.24628711340E+04  0.24628711340E+04  0.25500000000E-02 0. -1.
         25    2    1    2    0    0 -0.57490736763E+02 -0.42988509103E+02 -0.65283317974E+03  0.66855774886E+03  0.12500042505E+03 0.  0.
         23    2    1    2    0    0  0.57490736763E+02  0.42988509103E+02 -0.18003090320E+04  0.18040423077E+04  0.91119923090E+02 0.  0.
        -11    1    4    4    0    0  0.47616899330E+02  0.66952864469E+02 -0.10202115855E+04  0.10235144036E+04  0.51100000000E-03 0.  1.
         11    1    4    4    0    0  0.98738374325E+01 -0.23964355366E+02 -0.78009744646E+03  0.78052790402E+03  0.51100000000E-03 0. -1.
    9000005    1    3    3    0    0  0.30236657575E+02  0.16801257376E+02 -0.10575618127E+03  0.11127402027E+03  0.10000000000E+01 0.  0.
    9000005    1    3    3    0    0 -0.87727394338E+02 -0.59789766478E+02 -0.54707699847E+03  0.55728372859E+03  0.10000000000E+01 0.  0.
<mgrwt>
<rscale>  0 0.13652696E+03</rscale>
<asrwt>0</asrwt>
<pdfrwt beam="2">  1        2 0.37890276E+00 0.14414681E+03</pdfrwt>
<pdfrwt beam="1">  1       -2 0.14967592E-02 0.14414681E+03</pdfrwt>
<totfact> 0.49779999E+03</totfact>
</mgrwt>
</event>
<event>
 8    2  0.8128359E-004  0.1251240E+03  0.7818608E-02  0.1251409E+00
         -2   -1    0    0    0  501 -0.00000000000E+00  0.00000000000E+00  0.10483220292E+03  0.10483220295E+03  0.25500000000E-02 0.  1.
          2   -1    0    0  501    0  0.00000000000E+00 -0.00000000000E+00 -0.11771727727E+03  0.11771727730E+03  0.25500000000E-02 0. -1.
         25    2    1    2    0    0 -0.54467846569E+01 -0.10744599496E+01  0.20789089604E+02  0.12683930508E+03  0.12500080456E+03 0.  0.
         23    2    1    2    0    0  0.54467846569E+01  0.10744599496E+01 -0.33674163962E+02  0.95710175165E+02  0.89418490169E+02 0.  0.
        -11    1    4    4    0    0  0.19373687591E+02 -0.40216628677E+02 -0.86845635407E+01  0.45476792292E+02  0.51100000000E-03 0. -1.
         11    1    4    4    0    0 -0.13926902934E+02  0.41291088627E+02 -0.24989600422E+02  0.50233382872E+02  0.51100000000E-03 0.  1.
    9000005    1    3    3    0    0  0.44829439702E+02 -0.26419898206E+02  0.41781626940E+02  0.66741246879E+02  0.10000000000E+01 0.  0.
    9000005    1    3    3    0    0 -0.50276224359E+02  0.25345438256E+02 -0.20992537336E+02  0.60098058205E+02  0.10000000000E+01 0.  0.
<mgrwt>
<rscale>  0 0.11509892E+03</rscale>
<asrwt>0</asrwt>
<pdfrwt beam="2">  1        2 0.18110350E-01 0.12512403E+03</pdfrwt>
<pdfrwt beam="1">  1       -2 0.16128031E-01 0.12512403E+03</pdfrwt>
<totfact> 0.88495247E+03</totfact>
</mgrwt>
</event>
<event>
 8    2  0.8128359E-004  0.1317207E+03  0.7818608E-02  0.1238311E+00
         -2   -1    0    0    0  501 -0.00000000000E+00  0.00000000000E+00  0.39871035469E+02  0.39871035551E+02  0.25500000000E-02 0.  1.
          2   -1    0    0  501    0  0.00000000000E+00 -0.00000000000E+00 -0.39293635899E+03  0.39293635900E+03  0.25500000000E-02 0. -1.
         25    2    1    2    0    0  0.23766150426E+02 -0.34063848286E+02 -0.11598893576E+03  0.17551006000E+03  0.12500068911E+03 0.  0.
         23    2    1    2    0    0 -0.23766150426E+02  0.34063848286E+02 -0.23707638776E+03  0.25729733455E+03  0.90947947006E+02 0.  0.
        -11    1    4    4    0    0 -0.40851253601E+02 -0.16360109918E+02 -0.78115687442E+02  0.89657898381E+02  0.51100000000E-03 0.  1.
         11    1    4    4    0    0  0.17085103175E+02  0.50423958204E+02 -0.15896070032E+03  0.16763943617E+03  0.51100000000E-03 0. -1.
    9000005    1    3    3    0    0 -0.10319255731E+02 -0.70970895302E+02 -0.99436936833E+02  0.12260529934E+03  0.10000000000E+01 0.  0.
    9000005    1    3    3    0    0  0.34085406158E+02  0.36907047016E+02 -0.16551998924E+02  0.52904760663E+02  0.10000000000E+01 0.  0.
<mgrwt>
<rscale>  0 0.12294834E+03</rscale>
<asrwt>0</asrwt>
<pdfrwt beam="2">  1        2 0.60451745E-01 0.13172072E+03</pdfrwt>
<pdfrwt beam="1">  1       -2 0.61340057E-02 0.13172072E+03</pdfrwt>
<totfact> 0.11008546E+04</totfact>
</mgrwt>
</event>
<event>
 8    2  0.8128359E-004  0.1376950E+03  0.7818608E-02  0.1228470E+00
         -2   -1    0    0    0  501 -0.00000000000E+00  0.00000000000E+00  0.97397943450E+01  0.97397946788E+01  0.25500000000E-02 0. -1.
          2   -1    0    0  501    0  0.00000000000E+00 -0.00000000000E+00 -0.15437499381E+04  0.15437499381E+04  0.25500000000E-02 0.  1.
         25    2    1    2    0    0  0.48599070514E+02  0.31188846074E+02 -0.81734091904E+03  0.82885831121E+03  0.12500123341E+03 0.  0.
         23    2    1    2    0    0 -0.48599070514E+02 -0.31188846074E+02 -0.71666922472E+03  0.72463142157E+03  0.90229184288E+02 0.  0.
        -11    1    4    4    0    0 -0.40568037822E+02  0.21806134164E+02 -0.46744523516E+03  0.46970876195E+03  0.51100000000E-03 0.  1.
         11    1    4    4    0    0 -0.80310326923E+01 -0.52994980238E+02 -0.24922398956E+03  0.25492265962E+03  0.51100000000E-03 0. -1.
    9000005    1    3    3    0    0  0.29311266525E+02  0.77613102663E+02 -0.40110272227E+03  0.40959411356E+03  0.10000000000E+01 0.  0.
    9000005    1    3    3    0    0  0.19287803990E+02 -0.46424256590E+02 -0.41623819677E+03  0.41926419765E+03  0.10000000000E+01 0.  0.
<mgrwt>
<rscale>  0 0.12931894E+03</rscale>
<asrwt>0</asrwt>
<pdfrwt beam="2">  1        2 0.23749980E+00 0.13769503E+03</pdfrwt>
<pdfrwt beam="1">  1       -2 0.14984311E-02 0.13769503E+03</pdfrwt>
<totfact> 0.14824844E+04</totfact>
</mgrwt>
</event>
<event>
 8    2  0.8128359E-004  0.1668402E+03  0.7818608E-02  0.1187193E+00
         -2   -1    0    0    0  501 -0.00000000000E+00  0.00000000000E+00  0.26128979326E+02  0.26128979450E+02  0.25500000000E-02 0.  1.
          2   -1    0    0  501    0  0.00000000000E+00 -0.00000000000E+00 -0.12155656325E+04  0.12155656325E+04  0.25500000000E-02 0. -1.
         25    2    1    2    0    0  0.35669666547E+02 -0.10459145877E+03 -0.32804495341E+03  0.36803418005E+03  0.12499587139E+03 0.  0.
         23    2    1    2    0    0 -0.35669666547E+02  0.10459145877E+03 -0.86139169976E+03  0.87366043191E+03  0.95263799522E+02 0.  0.
        -11    1    4    4    0    0 -0.44162192133E+00  0.34402296693E+02 -0.59345665585E+03  0.59445312298E+03  0.51100000000E-03 0. -1.
         11    1    4    4    0    0 -0.35228044626E+02  0.70189162075E+02 -0.26793504391E+03  0.27920730892E+03  0.51100000000E-03 0.  1.
    9000005    1    3    3    0    0 -0.16784362416E+02  0.95974856286E+01 -0.30616969634E+01  0.19601034166E+02  0.10000000000E+01 0.  0.
    9000005    1    3    3    0    0  0.52454028963E+02 -0.11418894440E+03 -0.32498325645E+03  0.34843314588E+03  0.10000000000E+01 0.  0.
<mgrwt>
<rscale>  0 0.16133910E+03</rscale>
<asrwt>0</asrwt>
<pdfrwt beam="2">  1        2 0.18701005E+00 0.16684024E+03</pdfrwt>
<pdfrwt beam="1">  1       -2 0.40198439E-02 0.16684024E+03</pdfrwt>
<totfact> 0.52677956E+03</totfact>
</mgrwt>
</event>
<event>
 8    2  0.8128359E-004  0.1525177E+03  0.7818608E-02  0.1205725E+00
         -2   -1    0    0    0  501 -0.00000000000E+00  0.00000000000E+00  0.71978679381E+02  0.71978679427E+02  0.25500000000E-02 0.  1.
          2   -1    0    0  501    0  0.00000000000E+00 -0.00000000000E+00 -0.28080409662E+03  0.28080409663E+03  0.25500000000E-02 0. -1.
         25    2    1    2    0    0 -0.19199782743E+02 -0.85249044243E+02 -0.14440080899E+03  0.21003155303E+03  0.12500251369E+03 0.  0.
         23    2    1    2    0    0  0.19199782743E+02  0.85249044243E+02 -0.64424608247E+02  0.14275122303E+03  0.92689537311E+02 0.  0.
        -11    1    4    4    0    0  0.28479374872E+02  0.94075468376E+02 -0.25174252506E+02  0.10146433626E+03  0.51100000000E-03 0.  1.
         11    1    4    4    0    0 -0.92795921284E+01 -0.88264241333E+01 -0.39250355741E+02  0.41286886769E+02  0.51100000000E-03 0. -1.
    9000005    1    3    3    0    0 -0.64130910877E+02 -0.39071592018E+02 -0.34532279854E+02  0.82661002805E+02  0.10000000000E+01 0.  0.
    9000005    1    3    3    0    0  0.44931128134E+02 -0.46177452225E+02 -0.10986852914E+03  0.12737055022E+03  0.10000000000E+01 0.  0.
<mgrwt>
<rscale>  0 0.14580463E+03</rscale>
<asrwt>0</asrwt>
<pdfrwt beam="2">  1        2 0.43200630E-01 0.15251774E+03</pdfrwt>
<pdfrwt beam="1">  1       -2 0.11073643E-01 0.15251774E+03</pdfrwt>
<totfact> 0.63586913E+03</totfact>
</mgrwt>
</event>
<event>
 8    2  0.8128359E-004  0.1317461E+03  0.7818608E-02  0.1238261E+00
         -2   -1    0    0    0  501 -0.00000000000E+00  0.00000000000E+00  0.30422131927E+02  0.30422132033E+02  0.25500000000E-02 0. -1.
          2   -1    0    0  501    0  0.00000000000E+00 -0.00000000000E+00 -0.56753526522E+03  0.56753526522E+03  0.25500000000E-02 0.  1.
         25    2    1    2    0    0  0.41043358279E+02 -0.69130581073E+01 -0.15725005363E+03  0.20514533044E+03  0.12499871840E+03 0.  0.
         23    2    1    2    0    0 -0.41043358279E+02  0.69130581073E+01 -0.37986307965E+03  0.39281206682E+03  0.90956104369E+02 0.  0.
        -11    1    4    4    0    0 -0.17823632894E+02  0.22680458356E+02 -0.29262713358E+02  0.41090041057E+02  0.51100000000E-03 0. -1.
         11    1    4    4    0    0 -0.23219725385E+02 -0.15767400248E+02 -0.35060036630E+03  0.35172202576E+03  0.51100000000E-03 0.  1.
    9000005    1    3    3    0    0 -0.30826784528E+02 -0.14375254776E+02 -0.22203479992E+01  0.34100858338E+02  0.10000000000E+01 0.  0.
    9000005    1    3    3    0    0  0.71870142806E+02  0.74621966685E+01 -0.15502970564E+03  0.17104447210E+03  0.10000000000E+01 0.  0.
<mgrwt>
<rscale>  0 0.12297939E+03</rscale>
<asrwt>0</asrwt>
<pdfrwt beam="2">  1        2 0.87313110E-01 0.13174607E+03</pdfrwt>
<pdfrwt beam="1">  1       -2 0.46803284E-02 0.13174607E+03</pdfrwt>
<totfact> 0.11082340E+04</totfact>
</mgrwt>
</event>
<event>
 8    2  0.8128359E-004  0.1420528E+03  0.7818608E-02  0.1221208E+00
         -2   -1    0    0    0  501 -0.00000000000E+00  0.00000000000E+00  0.27227663336E+02  0.27227663455E+02  0.25500000000E-02 0.  1.
          2   -1    0    0  501    0  0.00000000000E+00 -0.00000000000E+00 -0.60044068946E+03  0.60044068946E+03  0.25500000000E-02 0. -1.
         25    2    1    2    0    0  0.62925736580E+02 -0.24359378091E+02 -0.33005788744E+03  0.35932882947E+03  0.12500388395E+03 0.  0.
         23    2    1    2    0    0 -0.62925736580E+02  0.24359378091E+02 -0.24315513868E+03  0.26833952345E+03  0.91261441753E+02 0.  0.
        -11    1    4    4    0    0 -0.55121526427E+02  0.23507471287E+02 -0.25051259710E+03  0.25758017235E+03  0.51100000000E-03 0. -1.
         11    1    4    4    0    0 -0.78042101523E+01  0.85190680485E+00  0.73574584199E+01  0.10759351094E+02  0.51100000000E-03 0.  1.
    9000005    1    3    3    0    0 -0.36049297701E+01 -0.28251805805E+02 -0.68367236684E+01  0.29307010090E+02  0.10000000000E+01 0.  0.
    9000005    1    3    3    0    0  0.66530666350E+02  0.38924277141E+01 -0.32322116377E+03  0.33002181938E+03  0.10000000000E+01 0.  0.
<mgrwt>
<rscale>  0 0.13430244E+03</rscale>
<asrwt>0</asrwt>
<pdfrwt beam="2">  1        2 0.92375481E-01 0.14205280E+03</pdfrwt>
<pdfrwt beam="1">  1       -2 0.41888717E-02 0.14205280E+03</pdfrwt>
<totfact> 0.12335585E+04</totfact>
</mgrwt>
</event>
<event>
 8    2  0.8128359E-004  0.1314725E+03  0.7818608E-02  0.1236020E+00
          2   -1    0    0  501    0  0.00000000000E+00  0.00000000000E+00  0.93958200100E+01  0.93958203560E+01  0.25500000000E-02 0. -1.
         -2   -1    0    0    0  501 -0.00000000000E+00 -0.00000000000E+00 -0.15436956478E+04  0.15436956478E+04  0.25500000000E-02 0.  1.
         25    2    1    2    0    0  0.25172831639E+02 -0.31940152792E+02 -0.70827083258E+03  0.72036976039E+03  0.12502469591E+03 0.  0.
         23    2    1    2    0    0 -0.25172831639E+02  0.31940152792E+02 -0.82602899525E+03  0.83272170780E+03  0.97199263614E+02 0.  0.
        -11    1    4    4    0    0  0.11568842733E+02 -0.59844299960E+00 -0.10250807572E+02  0.15468526509E+02  0.51100000000E-03 0. -1.
         11    1    4    4    0    0 -0.36741674372E+02  0.32538595792E+02 -0.81577818767E+03  0.81725318129E+03  0.51100000000E-03 0.  1.
    9000005    1    3    3    0    0 -0.38122112649E+02 -0.16442068296E+02 -0.95446758766E+02  0.10408996513E+03  0.10000000000E+01 0.  0.
    9000005    1    3    3    0    0  0.63294944288E+02 -0.15498084496E+02 -0.61282407382E+03  0.61627979526E+03  0.10000000000E+01 0.  0.
<mgrwt>
<rscale>  0 0.12439391E+03</rscale>
<asrwt>0</asrwt>
<pdfrwt beam="1">  1        2 0.14455120E-02 0.13147250E+03</pdfrwt>
<pdfrwt beam="2">  1       -2 0.23749144E+00 0.13147250E+03</pdfrwt>
<totfact> 0.71262483E+02</totfact>
</mgrwt>
</event>
<event>
 8    2  0.8128359E-004  0.1407104E+03  0.7818608E-02  0.1223140E+00
         -2   -1    0    0    0  501 -0.00000000000E+00  0.00000000000E+00  0.81328913487E+02  0.81328913527E+02  0.25500000000E-02 0.  1.
          2   -1    0    0  501    0  0.00000000000E+00 -0.00000000000E+00 -0.20076158755E+03  0.20076158756E+03  0.25500000000E-02 0. -1.
         25    2    1    2    0    0 -0.54903911569E+02  0.34052227317E+02 -0.86636094369E+02  0.16524293145E+03  0.12500167941E+03 0.  0.
         23    2    1    2    0    0  0.54903911569E+02 -0.34052227317E+02 -0.32796579690E+02  0.11684756964E+03  0.91671943369E+02 0.  0.
        -11    1    4    4    0    0  0.15776740166E+02 -0.39739718428E+02 -0.56418819540E+02  0.70790069569E+02  0.51100000000E-03 0. -1.
         11    1    4    4    0    0  0.39127171403E+02  0.56874911111E+01  0.23622239850E+02  0.46057500073E+02  0.51100000000E-03 0.  1.
    9000005    1    3    3    0    0 -0.48155896605E+02  0.65725760786E+02 -0.10102490762E+03  0.12979174846E+03  0.10000000000E+01 0.  0.
    9000005    1    3    3    0    0 -0.67480149638E+01 -0.31673533469E+02  0.14388813252E+02  0.35451182987E+02  0.10000000000E+01 0.  0.
<mgrwt>
<rscale>  0 0.13295202E+03</rscale>
<asrwt>0</asrwt>
<pdfrwt beam="2">  1        2 0.30886398E-01 0.14071039E+03</pdfrwt>
<pdfrwt beam="1">  1       -2 0.12512141E-01 0.14071039E+03</pdfrwt>
<totfact> 0.74561570E+03</totfact>
</mgrwt>
</event>
<event>
 8    2  0.8128359E-004  0.1251300E+03  0.7818608E-02  0.1253294E+00
         -2   -1    0    0    0  501 -0.00000000000E+00  0.00000000000E+00  0.52232112682E+01  0.52232118906E+01  0.25500000000E-02 0. -1.
          2   -1    0    0  501    0  0.00000000000E+00 -0.00000000000E+00 -0.25937832525E+04  0.25937832525E+04  0.25500000000E-02 0.  1.
         25    2    1    2    0    0  0.56263006106E+01  0.11338963101E+01 -0.20268532999E+04  0.20307121465E+04  0.12499832636E+03 0.  0.
         23    2    1    2    0    0 -0.56263006106E+01 -0.11338963101E+01 -0.56170674138E+03  0.56829431796E+03  0.86087325007E+02 0.  0.
        -11    1    4    4    0    0 -0.26573349824E+02  0.35045410518E+02 -0.31817779359E+03  0.32120310094E+03  0.51100000000E-03 0.  1.
         11    1    4    4    0    0  0.20947049214E+02 -0.36179306828E+02 -0.24352894780E+03  0.24709121702E+03  0.51100000000E-03 0. -1.
    9000005    1    3    3    0    0  0.57562668344E+02 -0.26555462788E+02 -0.83345857895E+03  0.83586653014E+03  0.10000000000E+01 0.  0.
    9000005    1    3    3    0    0 -0.51936367733E+02  0.27689359098E+02 -0.11933947209E+04  0.11948456163E+04  0.10000000000E+01 0.  0.
<mgrwt>
<rscale>  0 0.11402411E+03</rscale>
<asrwt>0</asrwt>
<pdfrwt beam="2">  1        2 0.39904255E+00 0.12513002E+03</pdfrwt>
<pdfrwt beam="1">  1       -2 0.80357309E-03 0.12513002E+03</pdfrwt>
<totfact> 0.10308267E+04</totfact>
</mgrwt>
</event>
<event>
 8    2  0.8128359E-004  0.1472219E+03  0.7818608E-02  0.1213358E+00
         -2   -1    0    0    0  501 -0.00000000000E+00  0.00000000000E+00  0.51881770236E+01  0.51881776503E+01  0.25500000000E-02 0. -1.
          2   -1    0    0  501    0  0.00000000000E+00 -0.00000000000E+00 -0.34490794202E+04  0.34490794203E+04  0.25500000000E-02 0.  1.
         25    2    1    2    0    0 -0.77135849350E+02 -0.98912235532E+01 -0.18921044622E+04  0.18978233793E+04  0.12500603025E+03 0.  0.
         23    2    1    2    0    0  0.77135849350E+02  0.98912235532E+01 -0.15517867810E+04  0.15564442186E+04  0.91807495760E+02 0.  0.
        -11    1    4    4    0    0 -0.13834039892E+02 -0.18298363525E+02 -0.43479296546E+03  0.43539767292E+03  0.51100000000E-03 0.  1.
         11    1    4    4    0    0  0.90969889242E+02  0.28189587078E+02 -0.11169938155E+04  0.11210465457E+04  0.51100000000E-03 0. -1.
    9000005    1    3    3    0    0 -0.83540132072E+02  0.33356763869E+02 -0.83851975207E+03  0.84333148997E+03  0.10000000000E+01 0.  0.
    9000005    1    3    3    0    0  0.64042827216E+01 -0.43247987422E+02 -0.10535847102E+04  0.10544918894E+04  0.10000000000E+01 0.  0.
<mgrwt>
<rscale>  0 0.13997866E+03</rscale>
<asrwt>0</asrwt>
<pdfrwt beam="2">  1        2 0.53062577E+00 0.14722188E+03</pdfrwt>
<pdfrwt beam="1">  1       -2 0.79818389E-03 0.14722188E+03</pdfrwt>
<totfact> 0.32960928E+03</totfact>
</mgrwt>
</event>
<event>
 8    2  0.8128359E-004  0.1342927E+03  0.7818608E-02  0.1235450E+00
         -2   -1    0    0    0  501 -0.00000000000E+00  0.00000000000E+00  0.24588441430E+02  0.24588441563E+02  0.25500000000E-02 0.  1.
          2   -1    0    0  501    0  0.00000000000E+00 -0.00000000000E+00 -0.59113474428E+03  0.59113474428E+03  0.25500000000E-02 0. -1.
         25    2    1    2    0    0  0.17943716141E+02  0.45774934182E+02 -0.39429639963E+03  0.41653833959E+03  0.12496886026E+03 0.  0.
         23    2    1    2    0    0 -0.17943716141E+02 -0.45774934182E+02 -0.17224990322E+03  0.19918484626E+03  0.87104834956E+02 0.  0.
        -11    1    4    4    0    0  0.22447429253E+02 -0.16381091898E+02 -0.10186532818E+02  0.29597173901E+02  0.51100000000E-03 0.  1.
         11    1    4    4    0    0 -0.40391145394E+02 -0.29393842284E+02 -0.16206337040E+03  0.16958767236E+03  0.51100000000E-03 0. -1.
    9000005    1    3    3    0    0 -0.19647382899E+01  0.67995281169E+02 -0.10129391373E+03  0.12201916004E+03  0.10000000000E+01 0.  0.
    9000005    1    3    3    0    0  0.19908454431E+02 -0.22220346986E+02 -0.29300248590E+03  0.29451917955E+03  0.10000000000E+01 0.  0.
<mgrwt>
<rscale>  0 0.12475679E+03</rscale>
<asrwt>0</asrwt>
<pdfrwt beam="2">  1        2 0.90943796E-01 0.13429273E+03</pdfrwt>
<pdfrwt beam="1">  1       -2 0.37828376E-02 0.13429273E+03</pdfrwt>
<totfact> 0.14551919E+04</totfact>
</mgrwt>
</event>
<event>
 8    2  0.8128359E-004  0.1419663E+03  0.7818608E-02  0.1222843E+00
         -2   -1    0    0    0  501 -0.00000000000E+00  0.00000000000E+00  0.36173658506E+02  0.36173658596E+02  0.25500000000E-02 0.  1.
          2   -1    0    0  501    0  0.00000000000E+00 -0.00000000000E+00 -0.56795456331E+03  0.56795456332E+03  0.25500000000E-02 0. -1.
         25    2    1    2    0    0 -0.43865045562E+01  0.67151371371E+02 -0.14864533966E+03  0.20554771812E+03  0.12500351724E+03 0.  0.
         23    2    1    2    0    0  0.43865045562E+01 -0.67151371371E+02 -0.38313556515E+03  0.39858050379E+03  0.86862009101E+02 0.  0.
        -11    1    4    4    0    0  0.23253980564E+01  0.58843085705E+01  0.19530502680E+01  0.66217043942E+01  0.51100000000E-03 0.  1.
         11    1    4    4    0    0  0.20611064998E+01 -0.73035679941E+02 -0.38508861541E+03  0.39195879940E+03  0.51100000000E-03 0. -1.
    9000005    1    3    3    0    0 -0.23867330530E+02 -0.20086298265E+00  0.14518388448E+02  0.27954846015E+02  0.10000000000E+01 0.  0.
    9000005    1    3    3    0    0  0.19480825974E+02  0.67352234353E+02 -0.16316372811E+03  0.17759287210E+03  0.10000000000E+01 0.  0.
<mgrwt>
<rscale>  0 0.13315833E+03</rscale>
<asrwt>0</asrwt>
<pdfrwt beam="2">  1        2 0.87377618E-01 0.14196629E+03</pdfrwt>
<pdfrwt beam="1">  1       -2 0.55651787E-02 0.14196629E+03</pdfrwt>
<totfact> 0.85769799E+03</totfact>
</mgrwt>
</event>
<event>
 8    2  0.8128359E-004  0.2234103E+03  0.7818608E-02  0.1134501E+00
          2   -1    0    0  501    0  0.00000000000E+00  0.00000000000E+00  0.86255730647E+03  0.86255730647E+03  0.25500000000E-02 0. -1.
         -2   -1    0    0    0  501 -0.00000000000E+00 -0.00000000000E+00 -0.60244808503E+02  0.60244808557E+02  0.25500000000E-02 0.  1.
         25    2    1    2    0    0 -0.96982645504E+02 -0.15773976963E+03  0.26259974218E+03  0.34477643941E+03  0.12499880051E+03 0.  0.
         23    2    1    2    0    0  0.96982645504E+02  0.15773976963E+03  0.53971275578E+03  0.57802567561E+03  0.92392393997E+02 0.  0.
        -11    1    4    4    0    0  0.79033104205E+02  0.67667530716E+02  0.19189209206E+03  0.21828353412E+03  0.51100000000E-03 0.  1.
         11    1    4    4    0    0  0.17949541298E+02  0.90072238909E+02  0.34782066372E+03  0.35974214149E+03  0.51100000000E-03 0. -1.
    9000005    1    3    3    0    0 -0.22660106723E+02 -0.78977892418E+02  0.28728382650E+02  0.87047733441E+02  0.10000000000E+01 0.  0.
    9000005    1    3    3    0    0 -0.74322538780E+02 -0.78761877208E+02  0.23387135953E+03  0.25772870597E+03  0.10000000000E+01 0.  0.
<mgrwt>
<rscale>  0 0.21917353E+03</rscale>
<asrwt>0</asrwt>
<pdfrwt beam="1">  1        2 0.13270113E+00 0.22341031E+03</pdfrwt>
<pdfrwt beam="2">  1       -2 0.92684318E-02 0.22341031E+03</pdfrwt>
<totfact> 0.23988779E+03</totfact>
</mgrwt>
</event>
<event>
 8    2  0.8128359E-004  0.1456398E+03  0.7818608E-02  0.1216854E+00
          2   -1    0    0  501    0  0.00000000000E+00  0.00000000000E+00  0.99029154149E+03  0.99029154149E+03  0.25500000000E-02 0. -1.
         -2   -1    0    0    0  501 -0.00000000000E+00 -0.00000000000E+00 -0.17795285492E+02  0.17795285674E+02  0.25500000000E-02 0.  1.
         25    2    1    2    0    0 -0.25340939422E+02  0.70315346168E+02  0.63193910846E+03  0.64850442835E+03  0.12499818270E+03 0.  0.
         23    2    1    2    0    0  0.25340939422E+02 -0.70315346168E+02  0.34055714754E+03  0.35958239881E+03  0.87942706794E+02 0.  0.
        -11    1    4    4    0    0 -0.92405947419E+01 -0.51345297387E+01 -0.55037948706E+00  0.10585598928E+02  0.51100000000E-03 0.  1.
         11    1    4    4    0    0  0.34581534164E+02 -0.65180816430E+02  0.34110752703E+03  0.34899679989E+03  0.51100000000E-03 0. -1.
    9000005    1    3    3    0    0 -0.10606467354E+01 -0.36279936735E+02  0.15686413966E+03  0.16101154335E+03  0.10000000000E+01 0.  0.
    9000005    1    3    3    0    0 -0.24280292687E+02  0.10659528290E+03  0.47507496880E+03  0.48749288501E+03  0.10000000000E+01 0.  0.
<mgrwt>
<rscale>  0 0.13741194E+03</rscale>
<asrwt>0</asrwt>
<pdfrwt beam="1">  1        2 0.15235258E+00 0.14563982E+03</pdfrwt>
<pdfrwt beam="2">  1       -2 0.27377355E-02 0.14563982E+03</pdfrwt>
<totfact> 0.12469460E+04</totfact>
</mgrwt>
</event>
<event>
 8    2  0.8128359E-004  0.1420516E+03  0.7818608E-02  0.1221531E+00
         -2   -1    0    0    0  501 -0.00000000000E+00  0.00000000000E+00  0.50110928013E+02  0.50110928078E+02  0.25500000000E-02 0.  1.
          2   -1    0    0  501    0  0.00000000000E+00 -0.00000000000E+00 -0.36736934492E+03  0.36736934493E+03  0.25500000000E-02 0. -1.
         25    2    1    2    0    0 -0.31201788930E+02 -0.59838613779E+02 -0.24613816094E+03  0.28418771171E+03  0.12499779952E+03 0.  0.
         23    2    1    2    0    0  0.31201788930E+02  0.59838613779E+02 -0.71120255968E+02  0.13329256130E+03  0.90302850212E+02 0.  0.
        -11    1    4    4    0    0  0.14379102553E+02  0.55616208340E+02  0.26546323604E+01  0.57506245692E+02  0.51100000000E-03 0.  1.
         11    1    4    4    0    0  0.16822686377E+02  0.42224054393E+01 -0.73774888329E+02  0.75786315604E+02  0.51100000000E-03 0. -1.
    9000005    1    3    3    0    0 -0.16571335900E+02 -0.30559608705E+02 -0.24890684680E+03  0.25132472470E+03  0.10000000000E+01 0.  0.
    9000005    1    3    3    0    0 -0.14630453029E+02 -0.29279005074E+02  0.27686858665E+01  0.32862987013E+02  0.10000000000E+01 0.  0.
<mgrwt>
<rscale>  0 0.13407499E+03</rscale>
<asrwt>0</asrwt>
<pdfrwt beam="2">  1        2 0.56518359E-01 0.14205161E+03</pdfrwt>
<pdfrwt beam="1">  1       -2 0.77093738E-02 0.14205161E+03</pdfrwt>
<totfact> 0.83819639E+03</totfact>
</mgrwt>
</event>
<event>
 8    2  0.8128359E-004  0.1367943E+03  0.7818608E-02  0.1227491E+00
         -2   -1    0    0    0  501 -0.00000000000E+00  0.00000000000E+00  0.11729735206E+02  0.11729735483E+02  0.25500000000E-02 0.  1.
          2   -1    0    0  501    0  0.00000000000E+00 -0.00000000000E+00 -0.17891490688E+04  0.17891490688E+04  0.25500000000E-02 0. -1.
         25    2    1    2    0    0  0.30407823347E+02 -0.46507068434E+02 -0.14175193779E+04  0.14241045868E+04  0.12500057749E+03 0.  0.
         23    2    1    2    0    0 -0.30407823347E+02  0.46507068434E+02 -0.35989995570E+03  0.37677421746E+03  0.96660693639E+02 0.  0.
        -11    1    4    4    0    0  0.34376446051E+02  0.25729703979E+02 -0.15734346560E+03  0.16309728347E+03  0.51100000000E-03 0.  1.
         11    1    4    4    0    0 -0.64784269397E+02  0.20777364456E+02 -0.20255649010E+03  0.21367693399E+03  0.51100000000E-03 0. -1.
    9000005    1    3    3    0    0  0.36442674581E+02 -0.73591946121E+02 -0.54591197597E+03  0.55205500502E+03  0.10000000000E+01 0.  0.
    9000005    1    3    3    0    0 -0.60348512337E+01  0.27084877687E+02 -0.87160740192E+03  0.87204958179E+03  0.10000000000E+01 0.  0.
<mgrwt>
<rscale>  0 0.12997613E+03</rscale>
<asrwt>0</asrwt>
<pdfrwt beam="2">  1        2 0.27525349E+00 0.13679433E+03</pdfrwt>
<pdfrwt beam="1">  1       -2 0.18045761E-02 0.13679433E+03</pdfrwt>
<totfact> 0.84737549E+03</totfact>
</mgrwt>
</event>
<event>
 8    2  0.8128359E-004  0.1276847E+03  0.7818608E-02  0.1231482E+00
         -2   -1    0    0    0  501 -0.00000000000E+00  0.00000000000E+00  0.86870852695E+03  0.86870852695E+03  0.25500000000E-02 0.  1.
          2   -1    0    0  501    0  0.00000000000E+00 -0.00000000000E+00 -0.18579158333E+02  0.18579158508E+02  0.25500000000E-02 0. -1.
         25    2    1    2    0    0  0.17238920616E+02 -0.39880345378E+01  0.40715380142E+03  0.42627713048E+03  0.12499955662E+03 0.  0.
         23    2    1    2    0    0 -0.17238920616E+02  0.39880345378E+01  0.44297556719E+03  0.46101055498E+03  0.12645273373E+03 0.  0.
        -11    1    4    4    0    0  0.33595123951E+02  0.20234639062E+02  0.36144723691E+03  0.36356867033E+03  0.51100000000E-03 0.  1.
         11    1    4    4    0    0 -0.50834044567E+02 -0.16246604524E+02  0.81528330279E+02  0.97441884649E+02  0.51100000000E-03 0. -1.
    9000005    1    3    3    0    0 -0.18783497925E+02  0.24639140241E+02  0.21119829593E+02  0.37509388534E+02  0.10000000000E+01 0.  0.
    9000005    1    3    3    0    0  0.36022418541E+02 -0.28627174779E+02  0.38603397183E+03  0.38876774195E+03  0.10000000000E+01 0.  0.
<mgrwt>
<rscale>  0 0.12732341E+03</rscale>
<asrwt>0</asrwt>
<pdfrwt beam="2">  1        2 0.28583321E-02 0.12768468E+03</pdfrwt>
<pdfrwt beam="1">  1       -2 0.13364746E+00 0.12768468E+03</pdfrwt>
<totfact> 0.13670423E+03</totfact>
</mgrwt>
</event>
<event>
 8    2  0.8128359E-004  0.1395322E+03  0.7818608E-02  0.1225131E+00
          2   -1    0    0  501    0  0.00000000000E+00  0.00000000000E+00  0.19771659700E+04  0.19771659700E+04  0.25500000000E-02 0. -1.
         -2   -1    0    0    0  501 -0.00000000000E+00 -0.00000000000E+00 -0.80190497494E+01  0.80190501549E+01  0.25500000000E-02 0.  1.
         25    2    1    2    0    0  0.21889002432E+02  0.58006941526E+02  0.97497868934E+03  0.98491251708E+03  0.12500115181E+03 0.  0.
         23    2    1    2    0    0 -0.21889002432E+02 -0.58006941526E+02  0.99416823096E+03  0.10002725031E+04  0.91272533399E+02 0.  0.
        -11    1    4    4    0    0 -0.36154077682E+01 -0.80136011900E+02  0.79697186807E+03  0.80099875785E+03  0.51100000000E-03 0. -1.
         11    1    4    4    0    0 -0.18273594664E+02  0.22129070374E+02  0.19719636288E+03  0.19927374526E+03  0.51100000000E-03 0.  1.
    9000005    1    3    3    0    0  0.60348416386E+02  0.12497692316E+02  0.24989890134E+03  0.25738800392E+03  0.10000000000E+01 0.  0.
    9000005    1    3    3    0    0 -0.38459413954E+02  0.45509249210E+02  0.72507978800E+03  0.72752451316E+03  0.10000000000E+01 0.  0.
<mgrwt>
<rscale>  0 0.13157931E+03</rscale>
<asrwt>0</asrwt>
<pdfrwt beam="1">  1        2 0.30417957E+00 0.13953215E+03</pdfrwt>
<pdfrwt beam="2">  1       -2 0.12336992E-02 0.13953215E+03</pdfrwt>
<totfact> 0.11762584E+04</totfact>
</mgrwt>
</event>
<event>
 8    2  0.8128359E-004  0.1602092E+03  0.7818608E-02  0.1196482E+00
          2   -1    0    0  501    0  0.00000000000E+00  0.00000000000E+00  0.32806193060E+03  0.32806193061E+03  0.25500000000E-02 0. -1.
         -2   -1    0    0    0  501 -0.00000000000E+00 -0.00000000000E+00 -0.12109723228E+03  0.12109723230E+03  0.25500000000E-02 0.  1.
         25    2    1    2    0    0  0.95125345721E+02 -0.31515676224E+02 -0.42583513470E+02  0.16577194232E+03  0.12499964798E+03 0.  0.
         23    2    1    2    0    0 -0.95125345721E+02  0.31515676224E+02  0.24954821180E+03  0.28338722060E+03  0.89397637220E+02 0.  0.
        -11    1    4    4    0    0 -0.10882970450E+03  0.19733240246E+02  0.23653372628E+03  0.26111589193E+03  0.51100000000E-03 0. -1.
         11    1    4    4    0    0  0.13704358775E+02  0.11782435979E+02  0.13014485519E+02  0.22271328667E+02  0.51100000000E-03 0.  1.
    9000005    1    3    3    0    0  0.12333919437E+03 -0.22311618331E+02 -0.50349168182E+02  0.13507925051E+03  0.10000000000E+01 0.  0.
    9000005    1    3    3    0    0 -0.28213848653E+02 -0.92040578938E+01  0.77656547121E+01  0.30692691812E+02  0.10000000000E+01 0.  0.
<mgrwt>
<rscale>  0 0.15329468E+03</rscale>
<asrwt>0</asrwt>
<pdfrwt beam="1">  1        2 0.50471066E-01 0.16020918E+03</pdfrwt>
<pdfrwt beam="2">  1       -2 0.18630344E-01 0.16020918E+03</pdfrwt>
<totfact> 0.23097853E+03</totfact>
</mgrwt>
</event>
<event>
 8    2  0.8128359E-004  0.1471342E+03  0.7818608E-02  0.1212257E+00
          2   -1    0    0  501    0  0.00000000000E+00  0.00000000000E+00  0.19729254730E+04  0.19729254730E+04  0.25500000000E-02 0.  1.
         -2   -1    0    0    0  501 -0.00000000000E+00 -0.00000000000E+00 -0.11248071764E+02  0.11248072053E+02  0.25500000000E-02 0. -1.
         25    2    1    2    0    0  0.22570637876E+02  0.74261319831E+02  0.63744910161E+03  0.65420930772E+03  0.12499713532E+03 0.  0.
         23    2    1    2    0    0 -0.22570637876E+02 -0.74261319831E+02  0.13242282996E+04  0.13299642373E+04  0.95917181768E+02 0.  0.
        -11    1    4    4    0    0 -0.13182006269E+02  0.14684138927E+02  0.58682461216E+03  0.58715629492E+03  0.51100000000E-03 0.  1.
         11    1    4    4    0    0 -0.93886316061E+01 -0.88945458758E+02  0.73740368744E+03  0.74280794240E+03  0.51100000000E-03 0. -1.
    9000005    1    3    3    0    0 -0.82780794369E+01 -0.27940092248E+02  0.57010739567E+02  0.64034364055E+02  0.10000000000E+01 0.  0.
    9000005    1    3    3    0    0  0.30848717312E+02  0.10220141208E+03  0.58043836205E+03  0.59017494366E+03  0.10000000000E+01 0.  0.
<mgrwt>
<rscale>  0 0.14079987E+03</rscale>
<asrwt>0</asrwt>
<pdfrwt beam="1">  1        2 0.30352728E+00 0.14713416E+03</pdfrwt>
<pdfrwt beam="2">  1       -2 0.17304710E-02 0.14713416E+03</pdfrwt>
<totfact> 0.72655333E+03</totfact>
</mgrwt>
</event>
<event>
 8    2  0.8128359E-004  0.1250194E+03  0.7818608E-02  0.1250808E+00
          2   -1    0    0  501    0  0.00000000000E+00  0.00000000000E+00  0.43956629584E+03  0.43956629585E+03  0.25500000000E-02 0. -1.
         -2   -1    0    0    0  501 -0.00000000000E+00 -0.00000000000E+00 -0.29114117751E+02  0.29114117863E+02  0.25500000000E-02 0.  1.
         25    2    1    2    0    0 -0.16655602329E+01  0.12302878476E+01  0.16554635044E+03  0.20744983257E+03  0.12500220474E+03 0.  0.
         23    2    1    2    0    0  0.16655602329E+01 -0.12302878476E+01  0.24490582765E+03  0.26123058115E+03  0.90874993311E+02 0.  0.
        -11    1    4    4    0    0 -0.21397042842E+02  0.24620990904E+02  0.32601043030E+02  0.46117834320E+02  0.51100000000E-03 0.  1.
         11    1    4    4    0    0  0.23062603075E+02 -0.25851278752E+02  0.21230478462E+03  0.21511274683E+03  0.51100000000E-03 0. -1.
    9000005    1    3    3    0    0 -0.20830289385E+02  0.45391299505E+02  0.14799865327E+03  0.15620138410E+03  0.10000000000E+01 0.  0.
    9000005    1    3    3    0    0  0.19164729152E+02 -0.44161011657E+02  0.17547697174E+02  0.51248448466E+02  0.10000000000E+01 0.  0.
<mgrwt>
<rscale>  0 0.11544423E+03</rscale>
<asrwt>0</asrwt>
<pdfrwt beam="1">  1        2 0.67625580E-01 0.12501935E+03</pdfrwt>
<pdfrwt beam="2">  1       -2 0.44790953E-02 0.12501935E+03</pdfrwt>
<totfact> 0.15596632E+04</totfact>
</mgrwt>
</event>
<event>
 8    2  0.8128359E-004  0.1728002E+03  0.7818608E-02  0.1181506E+00
          2   -1    0    0  501    0  0.00000000000E+00  0.00000000000E+00  0.16624136233E+03  0.16624136235E+03  0.25500000000E-02 0. -1.
         -2   -1    0    0    0  501 -0.00000000000E+00 -0.00000000000E+00 -0.16784115713E+03  0.16784115715E+03  0.25500000000E-02 0.  1.
         25    2    1    2    0    0 -0.11930265891E+03 -0.98678986265E+00  0.43751608615E+02  0.17825296516E+03  0.12500327257E+03 0.  0.
         23    2    1    2    0    0  0.11930265891E+03  0.98678986265E+00 -0.45351403417E+02  0.15582955435E+03  0.89397997954E+02 0.  0.
        -11    1    4    4    0    0  0.68744790122E+02  0.15966717939E+02  0.18558946576E+02  0.72974082721E+02  0.51100000000E-03 0. -1.
         11    1    4    4    0    0  0.50557868789E+02 -0.14979928076E+02 -0.63910349994E+02  0.82855471625E+02  0.51100000000E-03 0.  1.
    9000005    1    3    3    0    0 -0.93361911159E+02  0.54255750804E+02  0.45520987801E+02  0.11718913465E+03  0.10000000000E+01 0.  0.
    9000005    1    3    3    0    0 -0.25940747752E+02 -0.55242540667E+02 -0.17693791865E+01  0.61063830505E+02  0.10000000000E+01 0.  0.
<mgrwt>
<rscale>  0 0.16653907E+03</rscale>
<asrwt>0</asrwt>
<pdfrwt beam="1">  1        2 0.25575594E-01 0.17280022E+03</pdfrwt>
<pdfrwt beam="2">  1       -2 0.25821717E-01 0.17280022E+03</pdfrwt>
<totfact> 0.27502950E+03</totfact>
</mgrwt>
</event>
<event>
 8    2  0.8128359E-004  0.1430263E+03  0.7818608E-02  0.1219084E+00
         -2   -1    0    0    0  501 -0.00000000000E+00  0.00000000000E+00  0.44576492719E+01  0.44576500013E+01  0.25500000000E-02 0.  1.
          2   -1    0    0  501    0  0.00000000000E+00 -0.00000000000E+00 -0.39537734646E+04  0.39537734646E+04  0.25500000000E-02 0. -1.
         25    2    1    2    0    0 -0.54925387000E+02  0.42594378306E+02 -0.25928329469E+04  0.25967747703E+04  0.12500175155E+03 0.  0.
         23    2    1    2    0    0  0.54925387000E+02 -0.42594378306E+02 -0.13564828684E+04  0.13614563443E+04  0.93201533919E+02 0.  0.
        -11    1    4    4    0    0 -0.15266933881E+02 -0.37171378975E+02 -0.71351263107E+03  0.71464331340E+03  0.51100000000E-03 0. -1.
         11    1    4    4    0    0  0.70192320881E+02 -0.54229993311E+01 -0.64297023733E+03  0.64681303088E+03  0.51100000000E-03 0.  1.
    9000005    1    3    3    0    0 -0.75165672283E+02  0.46167199631E+02 -0.10201430395E+04  0.10239502477E+04  0.10000000000E+01 0.  0.
    9000005    1    3    3    0    0  0.20240285283E+02 -0.35728213252E+01 -0.15726899074E+04  0.15728245226E+04  0.10000000000E+01 0.  0.
<mgrwt>
<rscale>  0 0.13580769E+03</rscale>
<asrwt>0</asrwt>
<pdfrwt beam="2">  1        2 0.60827003E+00 0.14302628E+03</pdfrwt>
<pdfrwt beam="1">  1       -2 0.68579542E-03 0.14302628E+03</pdfrwt>
<totfact> 0.18439144E+03</totfact>
</mgrwt>
</event>
<event>
 8    2  0.8128359E-004  0.1332467E+03  0.7818608E-02  0.1235043E+00
         -2   -1    0    0    0  501 -0.00000000000E+00  0.00000000000E+00  0.11994240700E+02  0.11994240971E+02  0.25500000000E-02 0.  1.
          2   -1    0    0  501    0  0.00000000000E+00 -0.00000000000E+00 -0.12448796049E+04  0.12448796049E+04  0.25500000000E-02 0. -1.
         25    2    1    2    0    0 -0.24590104534E+01 -0.46080589107E+02 -0.84683329995E+03  0.85725218683E+03  0.12500082598E+03 0.  0.
         23    2    1    2    0    0  0.24590104534E+01  0.46080589107E+02 -0.38605206429E+03  0.39962165908E+03  0.92367779235E+02 0.  0.
        -11    1    4    4    0    0 -0.10596177277E+02  0.46215104408E+02 -0.38337280730E+03  0.38629370202E+03  0.51100000000E-03 0. -1.
         11    1    4    4    0    0  0.13055187731E+02 -0.13451530176E+00 -0.26792569921E+01  0.13327957058E+02  0.51100000000E-03 0.  1.
    9000005    1    3    3    0    0 -0.27827349604E+02  0.26347363711E+02 -0.11112056975E+03  0.11754712239E+03  0.10000000000E+01 0.  0.
    9000005    1    3    3    0    0  0.25368339150E+02 -0.72427952818E+02 -0.73571273020E+03  0.73970506444E+03  0.10000000000E+01 0.  0.
<mgrwt>
<rscale>  0 0.12501681E+03</rscale>
<asrwt>0</asrwt>
<pdfrwt beam="2">  1        2 0.19151984E+00 0.13324667E+03</pdfrwt>
<pdfrwt beam="1">  1       -2 0.18452688E-02 0.13324667E+03</pdfrwt>
<totfact> 0.15773876E+04</totfact>
</mgrwt>
</event>
<event>
 8    2  0.8128359E-004  0.1319868E+03  0.7818608E-02  0.1243882E+00
          2   -1    0    0  501    0  0.00000000000E+00  0.00000000000E+00  0.10728196044E+04  0.10728196044E+04  0.25500000000E-02 0. -1.
         -2   -1    0    0    0  501 -0.00000000000E+00 -0.00000000000E+00 -0.15938108777E+02  0.15938108981E+02  0.25500000000E-02 0.  1.
         25    2    1    2    0    0  0.40058955929E+02 -0.13829126969E+02  0.89003183981E+03  0.89976507391E+03  0.12499819059E+03 0.  0.
         23    2    1    2    0    0 -0.40058955929E+02  0.13829126969E+02  0.16684965581E+03  0.18899263947E+03  0.77996444965E+02 0.  0.
        -11    1    4    4    0    0 -0.50878593253E+02  0.80196525035E+01  0.50966362770E+02  0.72460445844E+02  0.51100000000E-03 0.  1.
         11    1    4    4    0    0  0.10819637324E+02  0.58094744654E+01  0.11588329304E+03  0.11653219362E+03  0.51100000000E-03 0. -1.
    9000005    1    3    3    0    0 -0.31334051399E+02  0.26801274620E+01  0.73504811222E+02  0.79956007486E+02  0.10000000000E+01 0.  0.
    9000005    1    3    3    0    0  0.71393007328E+02 -0.16509254431E+02  0.81652702859E+03  0.81980906642E+03  0.10000000000E+01 0.  0.
<mgrwt>
<rscale>  0 0.11952522E+03</rscale>
<asrwt>0</asrwt>
<pdfrwt beam="1">  1        2 0.16504927E+00 0.13198679E+03</pdfrwt>
<pdfrwt beam="2">  1       -2 0.24520152E-02 0.13198679E+03</pdfrwt>
<totfact> 0.13022717E+04</totfact>
</mgrwt>
</event>
<event>
 8    2  0.8128359E-004  0.1323225E+03  0.7818608E-02  0.1236732E+00
          2   -1    0    0  501    0  0.00000000000E+00  0.00000000000E+00  0.43911087317E+03  0.43911087318E+03  0.25500000000E-02 0. -1.
         -2   -1    0    0    0  501 -0.00000000000E+00 -0.00000000000E+00 -0.34420057393E+02  0.34420057488E+02  0.25500000000E-02 0.  1.
         25    2    1    2    0    0 -0.22977749330E+02 -0.36824164517E+02  0.15460445179E+03  0.20349887504E+03  0.12500103828E+03 0.  0.
         23    2    1    2    0    0  0.22977749330E+02  0.36824164517E+02  0.25008636399E+03  0.27003205563E+03  0.92141877323E+02 0.  0.
        -11    1    4    4    0    0 -0.35814040571E+02  0.18098252704E+02  0.95683332780E+02  0.10375689098E+03  0.51100000000E-03 0. -1.
         11    1    4    4    0    0  0.58791789901E+02  0.18725911813E+02  0.15440303121E+03  0.16627516465E+03  0.51100000000E-03 0.  1.
    9000005    1    3    3    0    0  0.19617366105E+02 -0.37003092211E+02  0.15533523669E+03  0.16088538045E+03  0.10000000000E+01 0.  0.
    9000005    1    3    3    0    0 -0.42595115434E+02  0.17892769402E+00 -0.73078490364E+00  0.42613494583E+02  0.10000000000E+01 0.  0.
<mgrwt>
<rscale>  0 0.12394223E+03</rscale>
<asrwt>0</asrwt>
<pdfrwt beam="1">  1        2 0.67555512E-01 0.13232254E+03</pdfrwt>
<pdfrwt beam="2">  1       -2 0.52953940E-02 0.13232254E+03</pdfrwt>
<totfact> 0.12207787E+04</totfact>
</mgrwt>
</event>
<event>
 8    2  0.8128359E-004  0.1507596E+03  0.7818608E-02  0.1208684E+00
         -2   -1    0    0    0  501 -0.00000000000E+00  0.00000000000E+00  0.14331866382E+02  0.14331866609E+02  0.25500000000E-02 0.  1.
          2   -1    0    0  501    0  0.00000000000E+00 -0.00000000000E+00 -0.13239300798E+04  0.13239300798E+04  0.25500000000E-02 0. -1.
         25    2    1    2    0    0  0.72224384062E+02 -0.43401198936E+02 -0.77405591827E+03  0.78860066401E+03  0.12501366701E+03 0.  0.
         23    2    1    2    0    0 -0.72224384062E+02  0.43401198936E+02 -0.53554229510E+03  0.54966128235E+03  0.90674967659E+02 0.  0.
        -11    1    4    4    0    0  0.19209188179E+02  0.22147568054E+02 -0.10586173326E+03  0.10984632106E+03  0.51100000000E-03 0.  1.
         11    1    4    4    0    0 -0.91433572241E+02  0.21253630882E+02 -0.42968056183E+03  0.43981496129E+03  0.51100000000E-03 0. -1.
    9000005    1    3    3    0    0 -0.22404377024E+02 -0.34320664317E+02 -0.10325745411E+03  0.11109890161E+03  0.10000000000E+01 0.  0.
    9000005    1    3    3    0    0  0.94628761086E+02 -0.90805346192E+01 -0.67079846417E+03  0.67750176240E+03  0.10000000000E+01 0.  0.
<mgrwt>
<rscale>  0 0.14350862E+03</rscale>
<asrwt>0</asrwt>
<pdfrwt beam="2">  1        2 0.20368146E+00 0.15075955E+03</pdfrwt>
<pdfrwt beam="1">  1       -2 0.22049036E-02 0.15075955E+03</pdfrwt>
<totfact> 0.11105630E+04</totfact>
</mgrwt>
</event>
<event>
 8    2  0.8128359E-004  0.3525977E+03  0.7818608E-02  0.1062558E+00
          2   -1    0    0  501    0  0.00000000000E+00  0.00000000000E+00  0.88248070772E+03  0.88248070772E+03  0.25500000000E-02 0. -1.
         -2   -1    0    0    0  501 -0.00000000000E+00 -0.00000000000E+00 -0.16233104228E+03  0.16233104230E+03  0.25500000000E-02 0.  1.
         25    2    1    2    0    0  0.19449542618E+03 -0.26621845094E+03  0.15806505242E+03  0.38640616216E+03  0.12499770772E+03 0.  0.
         23    2    1    2    0    0 -0.19449542618E+03  0.26621845094E+03  0.56208461302E+03  0.65840558786E+03  0.94117328443E+02 0.  0.
        -11    1    4    4    0    0 -0.83768594160E+02  0.72340078711E+02  0.26161459858E+03  0.28406418737E+03  0.51100000000E-03 0. -1.
         11    1    4    4    0    0 -0.11072683202E+03  0.19387837223E+03  0.30047001444E+03  0.37434140050E+03  0.51100000000E-03 0.  1.
    9000005    1    3    3    0    0  0.96430831993E+02 -0.37240223901E+02  0.51071859901E+02  0.11530426926E+03  0.10000000000E+01 0.  0.
    9000005    1    3    3    0    0  0.98064594183E+02 -0.22897822704E+03  0.10699319252E+03  0.27110189291E+03  0.10000000000E+01 0.  0.
<mgrwt>
<rscale>  0 0.35013984E+03</rscale>
<asrwt>0</asrwt>
<pdfrwt beam="1">  1        2 0.13576626E+00 0.35259773E+03</pdfrwt>
<pdfrwt beam="2">  1       -2 0.24974006E-01 0.35259773E+03</pdfrwt>
<totfact> 0.44413321E+02</totfact>
</mgrwt>
</event>
<event>
 8    2  0.8128359E-004  0.1541412E+03  0.7818608E-02  0.1202915E+00
          2   -1    0    0  501    0  0.00000000000E+00  0.00000000000E+00  0.66253938971E+03  0.66253938971E+03  0.25500000000E-02 0. -1.
         -2   -1    0    0    0  501 -0.00000000000E+00 -0.00000000000E+00 -0.30703289253E+02  0.30703289358E+02  0.25500000000E-02 0.  1.
         25    2    1    2    0    0  0.66984453534E+02  0.60392489995E+02  0.34138229087E+03  0.37456827008E+03  0.12500140226E+03 0.  0.
         23    2    1    2    0    0 -0.66984453534E+02 -0.60392489995E+02  0.29045380959E+03  0.31867440900E+03  0.95161933469E+02 0.  0.
        -11    1    4    4    0    0 -0.33159680806E+02 -0.61696357146E+02  0.83576267504E+02  0.10904585002E+03  0.51100000000E-03 0.  1.
         11    1    4    4    0    0 -0.33824772727E+02  0.13038671507E+01  0.20687754208E+03  0.20962855898E+03  0.51100000000E-03 0. -1.
    9000005    1    3    3    0    0 -0.15253452954E+02  0.54840199045E+02  0.66240005487E+02  0.87343308760E+02  0.10000000000E+01 0.  0.
    9000005    1    3    3    0    0  0.82237906488E+02  0.55522909504E+01  0.27514228538E+03  0.28722496132E+03  0.10000000000E+01 0.  0.
<mgrwt>
<rscale>  0 0.14802958E+03</rscale>
<asrwt>0</asrwt>
<pdfrwt beam="1">  1        2 0.10192913E+00 0.15414124E+03</pdfrwt>
<pdfrwt beam="2">  1       -2 0.47235834E-02 0.15414124E+03</pdfrwt>
<totfact> 0.92460165E+03</totfact>
</mgrwt>
</event>
<event>
 8    2  0.8128359E-004  0.2820229E+03  0.7818608E-02  0.1096478E+00
          2   -1    0    0  501    0  0.00000000000E+00  0.00000000000E+00  0.24130974673E+04  0.24130974673E+04  0.25500000000E-02 0. -1.
         -2   -1    0    0    0  501 -0.00000000000E+00 -0.00000000000E+00 -0.37069297085E+02  0.37069297173E+02  0.25500000000E-02 0.  1.
         25    2    1    2    0    0 -0.23913742983E+03  0.82000708288E+02  0.73348481879E+03  0.78583517385E+03  0.12500445815E+03 0.  0.
         23    2    1    2    0    0  0.23913742983E+03 -0.82000708288E+02  0.16425433514E+04  0.16643315906E+04  0.90222811598E+02 0.  0.
        -11    1    4    4    0    0  0.14407227168E+03 -0.80756860868E+02  0.12260669045E+04  0.12371412790E+04  0.51100000000E-03 0. -1.
         11    1    4    4    0    0  0.95065158156E+02 -0.12438474196E+01  0.41647644698E+03  0.42719031162E+03  0.51100000000E-03 0.  1.
    9000005    1    3    3    0    0 -0.17030240053E+03  0.97683930870E+02  0.40800168696E+03  0.45278188406E+03  0.10000000000E+01 0.  0.
    9000005    1    3    3    0    0 -0.68835029300E+02 -0.15683222582E+02  0.32548313183E+03  0.33305328978E+03  0.10000000000E+01 0.  0.
<mgrwt>
<rscale>  0 0.27855972E+03</rscale>
<asrwt>0</asrwt>
<pdfrwt beam="1">  1        2 0.37124569E+00 0.28202294E+03</pdfrwt>
<pdfrwt beam="2">  1       -2 0.57029699E-02 0.28202294E+03</pdfrwt>
<totfact> 0.71469758E+02</totfact>
</mgrwt>
</event>
<event>
 8    2  0.8128359E-004  0.1436820E+03  0.7818608E-02  0.1218519E+00
         -2   -1    0    0    0  501 -0.00000000000E+00  0.00000000000E+00  0.59415699107E+01  0.59415704579E+01  0.25500000000E-02 0.  1.
          2   -1    0    0  501    0  0.00000000000E+00 -0.00000000000E+00 -0.29240427478E+04  0.29240427478E+04  0.25500000000E-02 0. -1.
         25    2    1    2    0    0 -0.40675554678E+02 -0.58011975205E+02 -0.18588597959E+04  0.18644045311E+04  0.12499849965E+03 0.  0.
         23    2    1    2    0    0  0.40675554678E+02  0.58011975205E+02 -0.10592413820E+04  0.10655797872E+04  0.91913477676E+02 0.  0.
        -11    1    4    4    0    0  0.45927387928E+02 -0.95586652378E+01 -0.51569743111E+03  0.51782674081E+03  0.51100000000E-03 0. -1.
         11    1    4    4    0    0 -0.52518332503E+01  0.67570640443E+02 -0.54354395093E+03  0.54775304635E+03  0.51100000000E-03 0.  1.
    9000005    1    3    3    0    0  0.35705845033E+02 -0.51140211082E+02 -0.10727611413E+04  0.10745732618E+04  0.10000000000E+01 0.  0.
    9000005    1    3    3    0    0 -0.76381399711E+02 -0.68717641227E+01 -0.78609865452E+03  0.78983126932E+03  0.10000000000E+01 0.  0.
<mgrwt>
<rscale>  0 0.13621174E+03</rscale>
<asrwt>0</asrwt>
<pdfrwt beam="2">  1        2 0.44985158E+00 0.14368199E+03</pdfrwt>
<pdfrwt beam="1">  1       -2 0.91409005E-03 0.14368199E+03</pdfrwt>
<totfact> 0.56349738E+03</totfact>
</mgrwt>
</event>
<event>
 8    2  0.8128359E-004  0.1479609E+03  0.7818608E-02  0.1213002E+00
          2   -1    0    0  501    0  0.00000000000E+00  0.00000000000E+00  0.53094566774E+03  0.53094566775E+03  0.25500000000E-02 0.  1.
         -2   -1    0    0    0  501 -0.00000000000E+00 -0.00000000000E+00 -0.34635332001E+02  0.34635332095E+02  0.25500000000E-02 0. -1.
         25    2    1    2    0    0  0.55478031741E+02 -0.56473553500E+02  0.22678604342E+03  0.27078464532E+03  0.12500136159E+03 0.  0.
         23    2    1    2    0    0 -0.55478031741E+02  0.56473553500E+02  0.26952429232E+03  0.29479635452E+03  0.89411812635E+02 0.  0.
        -11    1    4    4    0    0  0.20701411093E+02  0.17726766282E+02  0.11526102816E+03  0.11843939918E+03  0.51100000000E-03 0.  1.
         11    1    4    4    0    0 -0.76179442834E+02  0.38746787218E+02  0.15426326416E+03  0.17635695535E+03  0.51100000000E-03 0. -1.
    9000005    1    3    3    0    0  0.20299344133E+02 -0.70690419644E+01  0.20531430586E+03  0.20643885031E+03  0.10000000000E+01 0.  0.
    9000005    1    3    3    0    0  0.35178687608E+02 -0.49404511535E+02  0.21471737566E+02  0.64345795014E+02  0.10000000000E+01 0.  0.
<mgrwt>
<rscale>  0 0.14024292E+03</rscale>
<asrwt>0</asrwt>
<pdfrwt beam="1">  1        2 0.81683944E-01 0.14796086E+03</pdfrwt>
<pdfrwt beam="2">  1       -2 0.53285130E-02 0.14796086E+03</pdfrwt>
<totfact> 0.99022205E+03</totfact>
</mgrwt>
</event>
<event>
 8    2  0.8128359E-004  0.1416253E+03  0.7818608E-02  0.1221961E+00
         -2   -1    0    0    0  501 -0.00000000000E+00  0.00000000000E+00  0.84863784440E+01  0.84863788271E+01  0.25500000000E-02 0.  1.
          2   -1    0    0  501    0  0.00000000000E+00 -0.00000000000E+00 -0.19061473439E+04  0.19061473439E+04  0.25500000000E-02 0. -1.
         25    2    1    2    0    0 -0.53640504984E+02 -0.39455542560E+02 -0.10476339313E+04  0.10571634655E+04  0.12499478086E+03 0.  0.
         23    2    1    2    0    0  0.53640504984E+02  0.39455542560E+02 -0.85002703415E+03  0.85747025718E+03  0.90968343717E+02 0.  0.
        -11    1    4    4    0    0  0.83945859828E+01  0.54657463015E+02 -0.62472537576E+03  0.62716800178E+03  0.51100000000E-03 0. -1.
         11    1    4    4    0    0  0.45245919001E+02 -0.15201920455E+02 -0.22530165839E+03  0.23030225540E+03  0.51100000000E-03 0.  1.
    9000005    1    3    3    0    0  0.59570266607E+00  0.84557814049E+01 -0.16684751722E+01  0.86970633109E+01  0.10000000000E+01 0.  0.
    9000005    1    3    3    0    0 -0.54236207650E+02 -0.47911323965E+02 -0.10459654561E+04  0.10484664022E+04  0.10000000000E+01 0.  0.
<mgrwt>
<rscale>  0 0.13377374E+03</rscale>
<asrwt>0</asrwt>
<pdfrwt beam="2">  1        2 0.29325310E+00 0.14162535E+03</pdfrwt>
<pdfrwt beam="1">  1       -2 0.13055982E-02 0.14162535E+03</pdfrwt>
<totfact> 0.11795349E+04</totfact>
</mgrwt>
</event>
<event>
 8    2  0.8128359E-004  0.1505067E+03  0.7818608E-02  0.1208944E+00
          2   -1    0    0  501    0  0.00000000000E+00  0.00000000000E+00  0.43164189572E+03  0.43164189573E+03  0.25500000000E-02 0. -1.
         -2   -1    0    0    0  501 -0.00000000000E+00 -0.00000000000E+00 -0.43896797543E+02  0.43896797617E+02  0.25500000000E-02 0.  1.
         25    2    1    2    0    0  0.20746512444E+02  0.81207791365E+02  0.19174334139E+03  0.24375762422E+03  0.12500858868E+03 0.  0.
         23    2    1    2    0    0 -0.20746512444E+02 -0.81207791365E+02  0.19600175679E+03  0.23178106912E+03  0.90998088892E+02 0.  0.
        -11    1    4    4    0    0 -0.53973096485E+02 -0.69850120409E+02  0.14762839627E+03  0.17200662154E+03  0.51100000000E-03 0. -1.
         11    1    4    4    0    0  0.33226584040E+02 -0.11357670956E+02  0.48373360518E+02  0.59774447590E+02  0.51100000000E-03 0.  1.
    9000005    1    3    3    0    0 -0.64280878909E+01  0.41794683582E+02 -0.37703579742E+01  0.42465650694E+02  0.10000000000E+01 0.  0.
    9000005    1    3    3    0    0  0.27174600335E+02  0.39413107783E+02  0.19551369936E+03  0.20129197353E+03  0.10000000000E+01 0.  0.
<mgrwt>
<rscale>  0 0.14330912E+03</rscale>
<asrwt>0</asrwt>
<pdfrwt beam="1">  1        2 0.66406446E-01 0.15050671E+03</pdfrwt>
<pdfrwt beam="2">  1       -2 0.67533534E-02 0.15050671E+03</pdfrwt>
<totfact> 0.86755736E+03</totfact>
</mgrwt>
</event>
<event>
 8    2  0.8128359E-004  0.1564226E+03  0.7818608E-02  0.1201298E+00
          2   -1    0    0  501    0  0.00000000000E+00  0.00000000000E+00  0.35231046127E+03  0.35231046127E+03  0.25500000000E-02 0.  1.
         -2   -1    0    0    0  501 -0.00000000000E+00 -0.00000000000E+00 -0.60192240173E+02  0.60192240227E+02  0.25500000000E-02 0. -1.
         25    2    1    2    0    0 -0.60196989951E+02 -0.72243493600E+02  0.12160697656E+03  0.19813198112E+03  0.12500090091E+03 0.  0.
         23    2    1    2    0    0  0.60196989951E+02  0.72243493600E+02  0.17051124453E+03  0.21437072038E+03  0.89654454871E+02 0.  0.
        -11    1    4    4    0    0 -0.21436743729E+01  0.11583426720E+02  0.10453627506E+03  0.10519792734E+03  0.51100000000E-03 0.  1.
         11    1    4    4    0    0  0.62340664324E+02  0.60660066880E+02  0.65974969478E+02  0.10917279304E+03  0.51100000000E-03 0. -1.
    9000005    1    3    3    0    0 -0.87480967933E+02 -0.12333242291E+02  0.52925104985E+02  0.10299075373E+03  0.10000000000E+01 0.  0.
    9000005    1    3    3    0    0  0.27283977982E+02 -0.59910251309E+02  0.68681871575E+02  0.95141227391E+02  0.10000000000E+01 0.  0.
<mgrwt>
<rscale>  0 0.14933048E+03</rscale>
<asrwt>0</asrwt>
<pdfrwt beam="1">  1        2 0.54201609E-01 0.15642259E+03</pdfrwt>
<pdfrwt beam="2">  1       -2 0.92603447E-02 0.15642259E+03</pdfrwt>
<totfact> 0.66326954E+03</totfact>
</mgrwt>
</event>
<event>
 8    2  0.8128359E-004  0.2716985E+03  0.7818608E-02  0.1102309E+00
          2   -1    0    0  501    0  0.00000000000E+00  0.00000000000E+00  0.53149073693E+03  0.53149073693E+03  0.25500000000E-02 0. -1.
         -2   -1    0    0    0  501 -0.00000000000E+00 -0.00000000000E+00 -0.13321923803E+03  0.13321923806E+03  0.25500000000E-02 0.  1.
         25    2    1    2    0    0  0.24110801772E+03 -0.78955645465E+01  0.23627682366E+03  0.36006504805E+03  0.12499874110E+03 0.  0.
         23    2    1    2    0    0 -0.24110801772E+03  0.78955645465E+01  0.16199467523E+03  0.30464492694E+03  0.91492297804E+02 0.  0.
        -11    1    4    4    0    0 -0.85566672143E+02  0.46588747425E+02  0.54227741410E+02  0.11150253229E+03  0.51100000000E-03 0.  1.
         11    1    4    4    0    0 -0.15554134558E+03 -0.38693182878E+02  0.10776693382E+03  0.19314239465E+03  0.51100000000E-03 0. -1.
    9000005    1    3    3    0    0  0.17461357406E+03  0.11275780048E+02  0.86763626722E+02  0.19530993416E+03  0.10000000000E+01 0.  0.
    9000005    1    3    3    0    0  0.66494443663E+02 -0.19171344595E+02  0.14951319694E+03  0.16475511388E+03  0.10000000000E+01 0.  0.
<mgrwt>
<rscale>  0 0.26820833E+03</rscale>
<asrwt>0</asrwt>
<pdfrwt beam="1">  1        2 0.81767806E-01 0.27169855E+03</pdfrwt>
<pdfrwt beam="2">  1       -2 0.20495267E-01 0.27169855E+03</pdfrwt>
<totfact> 0.11711972E+03</totfact>
</mgrwt>
</event>
<event>
 8    2  0.8128359E-004  0.1281951E+03  0.7818608E-02  0.1244596E+00
          2   -1    0    0  501    0  0.00000000000E+00  0.00000000000E+00  0.11391495815E+03  0.11391495818E+03  0.25500000000E-02 0. -1.
         -2   -1    0    0    0  501 -0.00000000000E+00 -0.00000000000E+00 -0.12055517511E+03  0.12055517514E+03  0.25500000000E-02 0.  1.
         25    2    1    2    0    0  0.15890264145E+02  0.23498584912E+02  0.30893393076E+02  0.13186500443E+03  0.12501717350E+03 0.  0.
         23    2    1    2    0    0 -0.15890264145E+02 -0.23498584912E+02 -0.37533610037E+02  0.10260512889E+03  0.91183093852E+02 0.  0.
        -11    1    4    4    0    0  0.26207384747E+02  0.20780345890E+02 -0.64757745586E+01  0.34067366305E+02  0.51100000000E-03 0.  1.
         11    1    4    4    0    0 -0.42097648891E+02 -0.44278930802E+02 -0.31057835479E+02  0.68537762584E+02  0.51100000000E-03 0. -1.
    9000005    1    3    3    0    0 -0.26123502553E+02 -0.36018549584E+01 -0.38289027657E+02  0.46502262136E+02  0.10000000000E+01 0.  0.
    9000005    1    3    3    0    0  0.42013766698E+02  0.27100439870E+02  0.69182420733E+02  0.85362742294E+02  0.10000000000E+01 0.  0.
<mgrwt>
<rscale>  0 0.11909599E+03</rscale>
<asrwt>0</asrwt>
<pdfrwt beam="1">  1        2 0.17525378E-01 0.12819508E+03</pdfrwt>
<pdfrwt beam="2">  1       -2 0.18546950E-01 0.12819508E+03</pdfrwt>
<totfact> 0.73019399E+03</totfact>
</mgrwt>
</event>
<event>
 8    2  0.8128359E-004  0.1443416E+03  0.7818608E-02  0.1218149E+00
         -2   -1    0    0    0  501 -0.00000000000E+00  0.00000000000E+00  0.15188608119E+02  0.15188608333E+02  0.25500000000E-02 0.  1.
          2   -1    0    0  501    0  0.00000000000E+00 -0.00000000000E+00 -0.12027745145E+04  0.12027745145E+04  0.25500000000E-02 0. -1.
         25    2    1    2    0    0 -0.71887125743E+02 -0.64412627557E+01 -0.82296005674E+03  0.83552245113E+03  0.12500105055E+03 0.  0.
         23    2    1    2    0    0  0.71887125743E+02  0.64412627557E+01 -0.36462584960E+03  0.38244067167E+03  0.89997824611E+02 0.  0.
        -11    1    4    4    0    0  0.56497299808E+02 -0.30417499214E+02 -0.13630877078E+03  0.15065606571E+03  0.51100000000E-03 0.  1.
         11    1    4    4    0    0  0.15389825935E+02  0.36858761970E+02 -0.22831707882E+03  0.23178460596E+03  0.51100000000E-03 0. -1.
    9000005    1    3    3    0    0 -0.73229523939E+02  0.35445181106E+02 -0.29850814731E+03  0.30939786368E+03  0.10000000000E+01 0.  0.
    9000005    1    3    3    0    0  0.13423981963E+01 -0.41886443862E+02 -0.52445190943E+03  0.52612458745E+03  0.10000000000E+01 0.  0.
<mgrwt>
<rscale>  0 0.13647759E+03</rscale>
<asrwt>0</asrwt>
<pdfrwt beam="2">  1        2 0.18504216E+00 0.14434165E+03</pdfrwt>
<pdfrwt beam="1">  1       -2 0.23367099E-02 0.14434165E+03</pdfrwt>
<totfact> 0.11856505E+04</totfact>
</mgrwt>
</event>
<event>
 8    2  0.8128359E-004  0.1298866E+03  0.7818608E-02  0.1241031E+00
         -2   -1    0    0    0  501 -0.00000000000E+00  0.00000000000E+00  0.10260112178E+02  0.10260112495E+02  0.25500000000E-02 0.  1.
          2   -1    0    0  501    0  0.00000000000E+00 -0.00000000000E+00 -0.13982921860E+04  0.13982921860E+04  0.25500000000E-02 0. -1.
         25    2    1    2    0    0 -0.58861849861E+01  0.34802578057E+02 -0.98942186870E+03  0.99791089647E+03  0.12499862565E+03 0.  0.
         23    2    1    2    0    0  0.58861849861E+01 -0.34802578057E+02 -0.39861020516E+03  0.41064140207E+03  0.92143360159E+02 0.  0.
        -11    1    4    4    0    0 -0.17996651773E+02 -0.33489511171E+02 -0.37537334940E+03  0.37729375594E+03  0.51100000000E-03 0. -1.
         11    1    4    4    0    0  0.23882836759E+02 -0.13130668862E+01 -0.23236855765E+02  0.33347646130E+02  0.51100000000E-03 0.  1.
    9000005    1    3    3    0    0  0.81156990505E+01  0.78441183683E+02 -0.48056908657E+03  0.48699746492E+03  0.10000000000E+01 0.  0.
    9000005    1    3    3    0    0 -0.14001884037E+02 -0.43638605626E+02 -0.50885278213E+03  0.51091343155E+03  0.10000000000E+01 0.  0.
<mgrwt>
<rscale>  0 0.12126131E+03</rscale>
<asrwt>0</asrwt>
<pdfrwt beam="2">  1        2 0.21512172E+00 0.12988658E+03</pdfrwt>
<pdfrwt beam="1">  1       -2 0.15784799E-02 0.12988658E+03</pdfrwt>
<totfact> 0.16331377E+04</totfact>
</mgrwt>
</event>
<event>
 8    2  0.8128359E-004  0.1796170E+03  0.7818608E-02  0.1173878E+00
          2   -1    0    0  501    0  0.00000000000E+00  0.00000000000E+00  0.91936936971E+03  0.91936936972E+03  0.25500000000E-02 0. -1.
         -2   -1    0    0    0  501 -0.00000000000E+00 -0.00000000000E+00 -0.47829686978E+02  0.47829687046E+02  0.25500000000E-02 0.  1.
         25    2    1    2    0    0 -0.12146163790E+03  0.43404547284E+02  0.74110336562E+03  0.76255914841E+03  0.12500148833E+03 0.  0.
         23    2    1    2    0    0  0.12146163790E+03 -0.43404547284E+02  0.13043631712E+03  0.20463990835E+03  0.90702673948E+02 0.  0.
        -11    1    4    4    0    0  0.17190106448E+02 -0.49988913970E+02  0.37555128529E+02  0.64844266969E+02  0.51100000000E-03 0. -1.
         11    1    4    4    0    0  0.10427153145E+03  0.65843666866E+01  0.92881188588E+02  0.13979564138E+03  0.51100000000E-03 0.  1.
    9000005    1    3    3    0    0 -0.12161104031E+03 -0.94371237736E+01  0.42868162331E+03  0.44569859614E+03  0.10000000000E+01 0.  0.
    9000005    1    3    3    0    0  0.14940241188E+00  0.52841671057E+02  0.31242174230E+03  0.31686055227E+03  0.10000000000E+01 0.  0.
<mgrwt>
<rscale>  0 0.17386277E+03</rscale>
<asrwt>0</asrwt>
<pdfrwt beam="1">  1        2 0.14144144E+00 0.17961697E+03</pdfrwt>
<pdfrwt beam="2">  1       -2 0.73584136E-02 0.17961697E+03</pdfrwt>
<totfact> 0.31488314E+03</totfact>
</mgrwt>
</event>
<event>
 8    2  0.8128359E-004  0.1344250E+03  0.7818608E-02  0.1233911E+00
          2   -1    0    0  501    0  0.00000000000E+00  0.00000000000E+00  0.15941084563E+04  0.15941084563E+04  0.25500000000E-02 0. -1.
         -2   -1    0    0    0  501 -0.00000000000E+00 -0.00000000000E+00 -0.12722367353E+02  0.12722367608E+02  0.25500000000E-02 0.  1.
         25    2    1    2    0    0  0.28569344447E+01 -0.49354077472E+02  0.42217367763E+03  0.44305833075E+03  0.12500433321E+03 0.  0.
         23    2    1    2    0    0 -0.28569344447E+01  0.49354077472E+02  0.11592124114E+04  0.11637724932E+04  0.90271890743E+02 0.  0.
        -11    1    4    4    0    0  0.37943166144E+02  0.13320888340E+02  0.27955847076E+03  0.28243595468E+03  0.51100000000E-03 0.  1.
         11    1    4    4    0    0 -0.40800100589E+02  0.36033189132E+02  0.87965394060E+03  0.88133653853E+03  0.51100000000E-03 0. -1.
    9000005    1    3    3    0    0 -0.25548708733E+02 -0.14194518265E+02  0.14060884608E+02  0.32448872749E+02  0.10000000000E+01 0.  0.
    9000005    1    3    3    0    0  0.28405643178E+02 -0.35159559207E+02  0.40811279302E+03  0.41060945800E+03  0.10000000000E+01 0.  0.
<mgrwt>
<rscale>  0 0.12574401E+03</rscale>
<asrwt>0</asrwt>
<pdfrwt beam="1">  1        2 0.24524746E+00 0.13442496E+03</pdfrwt>
<pdfrwt beam="2">  1       -2 0.19572873E-02 0.13442496E+03</pdfrwt>
<totfact> 0.94771381E+03</totfact>
</mgrwt>
</event>
<event>
 8    2  0.8128359E-004  0.1497783E+03  0.7818608E-02  0.1210738E+00
          2   -1    0    0  501    0  0.00000000000E+00  0.00000000000E+00  0.28831912618E+03  0.28831912619E+03  0.25500000000E-02 0.  1.
         -2   -1    0    0    0  501 -0.00000000000E+00 -0.00000000000E+00 -0.67488122719E+02  0.67488122767E+02  0.25500000000E-02 0. -1.
         25    2    1    2    0    0  0.49536630826E+02  0.65982551838E+02  0.16461319172E+03  0.22255569599E+03  0.12500383989E+03 0.  0.
         23    2    1    2    0    0 -0.49536630826E+02 -0.65982551838E+02  0.56217811747E+02  0.13325155297E+03  0.88249414003E+02 0.  0.
        -11    1    4    4    0    0  0.16886387973E+02 -0.28095365614E+02  0.45436566163E+02  0.56026611648E+02  0.51100000000E-03 0.  1.
         11    1    4    4    0    0 -0.66423018799E+02 -0.37887186224E+02  0.10781245584E+02  0.77224941327E+02  0.51100000000E-03 0. -1.
    9000005    1    3    3    0    0  0.60218370545E+02  0.11972180725E+02  0.15491703366E+03  0.16664294939E+03  0.10000000000E+01 0.  0.
    9000005    1    3    3    0    0 -0.10681739719E+02  0.54010371113E+02  0.96961580566E+01  0.55912746599E+02  0.10000000000E+01 0.  0.
<mgrwt>
<rscale>  0 0.14194305E+03</rscale>
<asrwt>0</asrwt>
<pdfrwt beam="1">  1        2 0.44356788E-01 0.14977829E+03</pdfrwt>
<pdfrwt beam="2">  1       -2 0.10382788E-01 0.14977829E+03</pdfrwt>
<totfact> 0.68392389E+03</totfact>
</mgrwt>
</event>
<event>
 8    2  0.8128359E-004  0.1531373E+03  0.7818608E-02  0.1205130E+00
         -2   -1    0    0    0  501 -0.00000000000E+00  0.00000000000E+00  0.22480996723E+03  0.22480996725E+03  0.25500000000E-02 0.  1.
          2   -1    0    0  501    0  0.00000000000E+00 -0.00000000000E+00 -0.97412488139E+02  0.97412488173E+02  0.25500000000E-02 0. -1.
         25    2    1    2    0    0 -0.44602834818E+02 -0.76397857105E+02  0.11997565478E+03  0.19453837367E+03  0.12499990258E+03 0.  0.
         23    2    1    2    0    0  0.44602834818E+02  0.76397857105E+02  0.74218243181E+01  0.12768408175E+03  0.91771977276E+02 0.  0.
        -11    1    4    4    0    0 -0.27433655916E+02  0.33655763574E+02  0.65904721556E+01  0.43917538890E+02  0.51100000000E-03 0. -1.
         11    1    4    4    0    0  0.72036490734E+02  0.42742093531E+02  0.83135216245E+00  0.83766542864E+02  0.51100000000E-03 0.  1.
    9000005    1    3    3    0    0  0.94005412189E+01 -0.38928071914E+02 -0.16290026391E+02  0.43244998763E+02  0.10000000000E+01 0.  0.
    9000005    1    3    3    0    0 -0.54003376037E+02 -0.37469785191E+02  0.13626568117E+03  0.15129337490E+03  0.10000000000E+01 0.  0.
<mgrwt>
<rscale>  0 0.14627197E+03</rscale>
<asrwt>0</asrwt>
<pdfrwt beam="2">  1        2 0.14986537E-01 0.15313726E+03</pdfrwt>
<pdfrwt beam="1">  1       -2 0.34586149E-01 0.15313726E+03</pdfrwt>
<totfact> 0.29684050E+03</totfact>
</mgrwt>
</event>
<event>
 8    2  0.8128359E-004  0.2736582E+03  0.7818608E-02  0.1100748E+00
          2   -1    0    0  501    0  0.00000000000E+00  0.00000000000E+00  0.17479310328E+03  0.17479310330E+03  0.25500000000E-02 0. -1.
         -2   -1    0    0    0  501 -0.00000000000E+00 -0.00000000000E+00 -0.42157732664E+03  0.42157732665E+03  0.25500000000E-02 0.  1.
         25    2    1    2    0    0  0.52305042416E+02  0.23775551204E+03 -0.80354760131E+02  0.28521165055E+03  0.12500118866E+03 0.  0.
         23    2    1    2    0    0 -0.52305042416E+02 -0.23775551204E+03 -0.16642946323E+03  0.31115877940E+03  0.99285038134E+02 0.  0.
        -11    1    4    4    0    0  0.11773708211E+02 -0.15437756528E+03 -0.76030804793E+02  0.17248691587E+03  0.51100000000E-03 0. -1.
         11    1    4    4    0    0 -0.64078750626E+02 -0.83377946757E+02 -0.90398658439E+02  0.13867186353E+03  0.51100000000E-03 0.  1.
    9000005    1    3    3    0    0 -0.26835982076E+02  0.59453409144E+02  0.16674143916E+02  0.67334277068E+02  0.10000000000E+01 0.  0.
    9000005    1    3    3    0    0  0.79141024492E+02  0.17830210290E+03 -0.97028904046E+02  0.21787737348E+03  0.10000000000E+01 0.  0.
<mgrwt>
<rscale>  0 0.27093031E+03</rscale>
<asrwt>0</asrwt>
<pdfrwt beam="1">  1        2 0.26891247E-01 0.27365818E+03</pdfrwt>
<pdfrwt beam="2">  1       -2 0.64858050E-01 0.27365818E+03</pdfrwt>
<totfact> 0.44639492E+02</totfact>
</mgrwt>
</event>
<event>
 8    2  0.8128359E-004  0.1309216E+03  0.7818608E-02  0.1239675E+00
          2   -1    0    0  501    0  0.00000000000E+00  0.00000000000E+00  0.59536337730E+02  0.59536337784E+02  0.25500000000E-02 0. -1.
         -2   -1    0    0    0  501 -0.00000000000E+00 -0.00000000000E+00 -0.22441804692E+03  0.22441804694E+03  0.25500000000E-02 0.  1.
         25    2    1    2    0    0 -0.29049570136E+02  0.25904867638E+02 -0.10817279279E+03  0.16982879724E+03  0.12500211030E+03 0.  0.
         23    2    1    2    0    0  0.29049570136E+02 -0.25904867638E+02 -0.56708916396E+02  0.11412558748E+03  0.91070350970E+02 0.  0.
        -11    1    4    4    0    0  0.17872678161E+02  0.22199700112E+02  0.10802665467E+02  0.30478794122E+02  0.51100000000E-03 0. -1.
         11    1    4    4    0    0  0.11176891975E+02 -0.48104567750E+02 -0.67511581864E+02  0.83646793355E+02  0.51100000000E-03 0.  1.
    9000005    1    3    3    0    0  0.46924918258E+02  0.64438965567E+00 -0.60739487036E+02  0.76763588223E+02  0.10000000000E+01 0.  0.
    9000005    1    3    3    0    0 -0.75974488394E+02  0.25260477982E+02 -0.47433305759E+02  0.93065209019E+02  0.10000000000E+01 0.  0.
<mgrwt>
<rscale>  0 0.12209846E+03</rscale>
<asrwt>0</asrwt>
<pdfrwt beam="1">  1        2 0.91594367E-02 0.13092161E+03</pdfrwt>
<pdfrwt beam="2">  1       -2 0.34525853E-01 0.13092161E+03</pdfrwt>
<totfact> 0.53412582E+03</totfact>
</mgrwt>
</event>
<event>
 8    2  0.8128359E-004  0.1281392E+03  0.7818608E-02  0.1244693E+00
         -2   -1    0    0    0  501 -0.00000000000E+00  0.00000000000E+00  0.52628278161E+02  0.52628278223E+02  0.25500000000E-02 0.  1.
          2   -1    0    0  501    0  0.00000000000E+00 -0.00000000000E+00 -0.28564088852E+03  0.28564088853E+03  0.25500000000E-02 0. -1.
         25    2    1    2    0    0 -0.57491203846E+01  0.27389610919E+02 -0.61814803986E+02  0.14226987113E+03  0.12504560395E+03 0.  0.
         23    2    1    2    0    0  0.57491203846E+01 -0.27389610919E+02 -0.17119780637E+03  0.19599929563E+03  0.91234816866E+02 0.  0.
        -11    1    4    4    0    0 -0.11361572379E+01 -0.55845540677E+02 -0.64341039954E+02  0.85204370131E+02  0.51100000000E-03 0.  1.
         11    1    4    4    0    0  0.68852776225E+01  0.28455929759E+02 -0.10685676641E+03  0.11079492549E+03  0.51100000000E-03 0. -1.
    9000005    1    3    3    0    0 -0.57583822676E+02  0.30943574684E+02 -0.54505843357E+01  0.65605718636E+02  0.10000000000E+01 0.  0.
    9000005    1    3    3    0    0  0.51834702291E+02 -0.35539637655E+01 -0.56364219650E+02  0.76664152489E+02  0.10000000000E+01 0.  0.
<mgrwt>
<rscale>  0 0.11903743E+03</rscale>
<asrwt>0</asrwt>
<pdfrwt beam="2">  1        2 0.43944751E-01 0.12813917E+03</pdfrwt>
<pdfrwt beam="1">  1       -2 0.80966584E-02 0.12813917E+03</pdfrwt>
<totfact> 0.10074074E+04</totfact>
</mgrwt>
</event>
<event>
 8    2  0.8128359E-004  0.1422805E+03  0.7818608E-02  0.1220620E+00
          2   -1    0    0  501    0  0.00000000000E+00  0.00000000000E+00  0.15011185936E+04  0.15011185936E+04  0.25500000000E-02 0. -1.
         -2   -1    0    0    0  501 -0.00000000000E+00 -0.00000000000E+00 -0.11042426657E+02  0.11042426951E+02  0.25500000000E-02 0.  1.
         25    2    1    2    0    0  0.66766300140E+02 -0.12678240612E+02  0.88701983956E+03  0.89835846673E+03  0.12500104934E+03 0.  0.
         23    2    1    2    0    0 -0.66766300140E+02  0.12678240612E+02  0.60305632733E+03  0.61380255378E+03  0.91968279718E+02 0.  0.
        -11    1    4    4    0    0 -0.25825791703E+02  0.19389880865E+00  0.31897228068E+02  0.41041957464E+02  0.51100000000E-03 0.  1.
         11    1    4    4    0    0 -0.40940508437E+02  0.12484341804E+02  0.57115909927E+03  0.57276059632E+03  0.51100000000E-03 0. -1.
    9000005    1    3    3    0    0 -0.28054027787E+02 -0.17566877525E+02  0.44626303720E+03  0.44749002450E+03  0.10000000000E+01 0.  0.
    9000005    1    3    3    0    0  0.94820327927E+02  0.48886369128E+01  0.44075680237E+03  0.45086844222E+03  0.10000000000E+01 0.  0.
<mgrwt>
<rscale>  0 0.13471658E+03</rscale>
<asrwt>0</asrwt>
<pdfrwt beam="1">  1        2 0.23094142E+00 0.14228049E+03</pdfrwt>
<pdfrwt beam="2">  1       -2 0.16988342E-02 0.14228049E+03</pdfrwt>
<totfact> 0.13034600E+04</totfact>
</mgrwt>
</event>
<event>
 8    2  0.8128359E-004  0.2167726E+03  0.7818608E-02  0.1139589E+00
         -2   -1    0    0    0  501 -0.00000000000E+00  0.00000000000E+00  0.54651005059E+02  0.54651005118E+02  0.25500000000E-02 0. -1.
          2   -1    0    0  501    0  0.00000000000E+00 -0.00000000000E+00 -0.96400104567E+03  0.96400104567E+03  0.25500000000E-02 0.  1.
         25    2    1    2    0    0  0.17310269792E+03  0.37438453976E+02 -0.25674943918E+03  0.33602179131E+03  0.12499675137E+03 0.  0.
         23    2    1    2    0    0 -0.17310269792E+03 -0.37438453976E+02 -0.65260060143E+03  0.68263025948E+03  0.93436311508E+02 0.  0.
        -11    1    4    4    0    0 -0.15320509312E+03 -0.46703594539E+02 -0.63381810922E+03  0.65374186180E+03  0.51100000000E-03 0.  1.
         11    1    4    4    0    0 -0.19897604799E+02  0.92651405620E+01 -0.18782492210E+02  0.28888397675E+02  0.51100000000E-03 0. -1.
    9000005    1    3    3    0    0  0.17676090855E+03 -0.21418968138E+01 -0.21548003854E+03  0.27871428654E+03  0.10000000000E+01 0.  0.
    9000005    1    3    3    0    0 -0.36582106298E+01  0.39580350790E+02 -0.41269400639E+02  0.57307504769E+02  0.10000000000E+01 0.  0.
<mgrwt>
<rscale>  0 0.21251602E+03</rscale>
<asrwt>0</asrwt>
<pdfrwt beam="2">  1        2 0.14830784E+00 0.21677262E+03</pdfrwt>
<pdfrwt beam="1">  1       -2 0.84078476E-02 0.21677262E+03</pdfrwt>
<totfact> 0.24076783E+03</totfact>
</mgrwt>
</event>
<event>
 8    2  0.8128359E-004  0.1264831E+03  0.7818608E-02  0.1248804E+00
         -2   -1    0    0    0  501 -0.00000000000E+00  0.00000000000E+00  0.50166368586E+01  0.50166375067E+01  0.25500000000E-02 0.  1.
          2   -1    0    0  501    0  0.00000000000E+00 -0.00000000000E+00 -0.27722553959E+04  0.27722553959E+04  0.25500000000E-02 0. -1.
         25    2    1    2    0    0  0.19045763109E+02 -0.32041763950E+01 -0.10476163825E+04  0.10552241770E+04  0.12499988401E+03 0.  0.
         23    2    1    2    0    0 -0.19045763109E+02  0.32041763950E+01 -0.17196223765E+04  0.17220478564E+04  0.89301142337E+02 0.  0.
        -11    1    4    4    0    0  0.92138962927E+01  0.70865234991E+01 -0.15500079653E+04  0.15500515499E+04  0.51100000000E-03 0. -1.
         11    1    4    4    0    0 -0.28259659402E+02 -0.38823471041E+01 -0.16961441119E+03  0.17199630651E+03  0.51100000000E-03 0.  1.
    9000005    1    3    3    0    0  0.16654284990E+02  0.60266627453E+02 -0.56298417111E+03  0.56644647454E+03  0.10000000000E+01 0.  0.
    9000005    1    3    3    0    0  0.23914781192E+01 -0.63470803848E+02 -0.48463221141E+03  0.48877770248E+03  0.10000000000E+01 0.  0.
<mgrwt>
<rscale>  0 0.11660584E+03</rscale>
<asrwt>0</asrwt>
<pdfrwt beam="2">  1        2 0.42649961E+00 0.12648312E+03</pdfrwt>
<pdfrwt beam="1">  1       -2 0.77179255E-03 0.12648312E+03</pdfrwt>
<totfact> 0.87241950E+03</totfact>
</mgrwt>
</event>
<event>
 8    2  0.8128359E-004  0.1959036E+03  0.7818608E-02  0.1157733E+00
         -2   -1    0    0    0  501 -0.00000000000E+00  0.00000000000E+00  0.93655085759E+02  0.93655085794E+02  0.25500000000E-02 0. -1.
          2   -1    0    0  501    0  0.00000000000E+00 -0.00000000000E+00 -0.38830215128E+03  0.38830215129E+03  0.25500000000E-02 0.  1.
         25    2    1    2    0    0 -0.97979632180E+02  0.11468643759E+03 -0.10220191065E+03  0.22096027083E+03  0.12500089382E+03 0.  0.
         23    2    1    2    0    0  0.97979632180E+02 -0.11468643759E+03 -0.19244515487E+03  0.26099696625E+03  0.91275908498E+02 0.  0.
        -11    1    4    4    0    0  0.43348708729E+02 -0.11599564380E+02 -0.10806856068E+03  0.11701484628E+03  0.51100000000E-03 0.  1.
         11    1    4    4    0    0  0.54630923451E+02 -0.10308687321E+03 -0.84376594190E+02  0.14398211997E+03  0.51100000000E-03 0. -1.
    9000005    1    3    3    0    0 -0.27590912926E+01  0.60376286394E+02 -0.93041993731E+02  0.11095368917E+03  0.10000000000E+01 0.  0.
    9000005    1    3    3    0    0 -0.95220540887E+02  0.54310151194E+02 -0.91599169194E+01  0.11000658166E+03  0.10000000000E+01 0.  0.
<mgrwt>
<rscale>  0 0.19080923E+03</rscale>
<asrwt>0</asrwt>
<pdfrwt beam="2">  1        2 0.59738792E-01 0.19590358E+03</pdfrwt>
<pdfrwt beam="1">  1       -2 0.14408475E-01 0.19590358E+03</pdfrwt>
<totfact> 0.29747428E+03</totfact>
</mgrwt>
</event>
<event>
 8    2  0.8128359E-004  0.1301105E+03  0.7818608E-02  0.1240175E+00
          2   -1    0    0  501    0  0.00000000000E+00  0.00000000000E+00  0.24849827078E+04  0.24849827078E+04  0.25500000000E-02 0. -1.
         -2   -1    0    0    0  501 -0.00000000000E+00 -0.00000000000E+00 -0.53282469421E+01  0.53282475523E+01  0.25500000000E-02 0.  1.
         25    2    1    2    0    0  0.25727292878E+02 -0.25308454709E+02  0.13592585296E+04  0.13654715312E+04  0.12500536255E+03 0.  0.
         23    2    1    2    0    0 -0.25727292878E+02  0.25308454709E+02  0.11203959312E+04  0.11248394241E+04  0.93135793013E+02 0.  0.
        -11    1    4    4    0    0  0.14081013842E+02  0.71985254101E+01  0.33302748654E+02  0.36866879269E+02  0.51100000000E-03 0.  1.
         11    1    4    4    0    0 -0.39808306720E+02  0.18109929298E+02  0.10870931825E+04  0.10879725448E+04  0.51100000000E-03 0. -1.
    9000005    1    3    3    0    0  0.29692246446E+02  0.77904677264E+00  0.71346197233E+02  0.77288526137E+02  0.10000000000E+01 0.  0.
    9000005    1    3    3    0    0 -0.39649535685E+01 -0.26087501481E+02  0.12879123324E+04  0.12881830051E+04  0.10000000000E+01 0.  0.
<mgrwt>
<rscale>  0 0.12178888E+03</rscale>
<asrwt>0</asrwt>
<pdfrwt beam="1">  1        2 0.38230524E+00 0.13011054E+03</pdfrwt>
<pdfrwt beam="2">  1       -2 0.81972990E-03 0.13011054E+03</pdfrwt>
<totfact> 0.11468394E+04</totfact>
</mgrwt>
</event>
<event>
 8    2  0.8128359E-004  0.1263213E+03  0.7818608E-02  0.1246883E+00
          2   -1    0    0  501    0  0.00000000000E+00  0.00000000000E+00  0.68874824719E+03  0.68874824719E+03  0.25500000000E-02 0.  1.
         -2   -1    0    0    0  501 -0.00000000000E+00 -0.00000000000E+00 -0.17867988923E+02  0.17867989105E+02  0.25500000000E-02 0. -1.
         25    2    1    2    0    0 -0.16344315915E+02  0.80509590775E+01  0.39822614653E+03  0.41778121805E+03  0.12500051106E+03 0.  0.
         23    2    1    2    0    0  0.16344315915E+02 -0.80509590775E+01  0.27265411173E+03  0.28883501825E+03  0.93559865960E+02 0.  0.
        -11    1    4    4    0    0 -0.25000738144E+02 -0.19714225426E+02  0.21275311055E+03  0.21512222954E+03  0.51100000000E-03 0.  1.
         11    1    4    4    0    0  0.41345054059E+02  0.11663266348E+02  0.59901001184E+02  0.73712788715E+02  0.51100000000E-03 0. -1.
    9000005    1    3    3    0    0  0.28716089041E+02  0.52627813284E+02  0.14882863358E+03  0.16045330372E+03  0.10000000000E+01 0.  0.
    9000005    1    3    3    0    0 -0.45060404956E+02 -0.44576854206E+02  0.24939751295E+03  0.25732791433E+03  0.10000000000E+01 0.  0.
<mgrwt>
<rscale>  0 0.11773364E+03</rscale>
<asrwt>0</asrwt>
<pdfrwt beam="1">  1        2 0.10596126E+00 0.12632135E+03</pdfrwt>
<pdfrwt beam="2">  1       -2 0.27489216E-02 0.12632135E+03</pdfrwt>
<totfact> 0.19421698E+04</totfact>
</mgrwt>
</event>
<event>
 8    2  0.8128359E-004  0.1403954E+03  0.7818608E-02  0.1222788E+00
         -2   -1    0    0    0  501 -0.00000000000E+00  0.00000000000E+00  0.27141251799E+02  0.27141251919E+02  0.25500000000E-02 0.  1.
          2   -1    0    0  501    0  0.00000000000E+00 -0.00000000000E+00 -0.78213282679E+03  0.78213282680E+03  0.25500000000E-02 0. -1.
         25    2    1    2    0    0  0.40340084270E+02 -0.49569362862E+02 -0.21046066848E+03  0.25299122977E+03  0.12500570079E+03 0.  0.
         23    2    1    2    0    0 -0.40340084270E+02  0.49569362862E+02 -0.54453090651E+03  0.55628284894E+03  0.94086427017E+02 0.  0.
        -11    1    4    4    0    0  0.70937102412E+01  0.21999663962E+02 -0.25726387635E+02  0.34585444344E+02  0.51100000000E-03 0.  1.
         11    1    4    4    0    0 -0.47433794511E+02  0.27569698900E+02 -0.51880451888E+03  0.52169740460E+03  0.51100000000E-03 0. -1.
    9000005    1    3    3    0    0  0.11933247561E+02 -0.84402176682E+02 -0.17855739312E+03  0.19786326709E+03  0.10000000000E+01 0.  0.
    9000005    1    3    3    0    0  0.28406836709E+02  0.34832813820E+02 -0.31903275359E+02  0.55127962678E+02  0.10000000000E+01 0.  0.
<mgrwt>
<rscale>  0 0.13319644E+03</rscale>
<asrwt>0</asrwt>
<pdfrwt beam="2">  1        2 0.12032811E+00 0.14039540E+03</pdfrwt>
<pdfrwt beam="1">  1       -2 0.41755778E-02 0.14039540E+03</pdfrwt>
<totfact> 0.90578390E+03</totfact>
</mgrwt>
</event>
<event>
 8    2  0.8128359E-004  0.1673645E+03  0.7818608E-02  0.1187744E+00
          2   -1    0    0  501    0  0.00000000000E+00  0.00000000000E+00  0.20877604366E+04  0.20877604366E+04  0.25500000000E-02 0. -1.
         -2   -1    0    0    0  501 -0.00000000000E+00 -0.00000000000E+00 -0.12416397327E+02  0.12416397589E+02  0.25500000000E-02 0.  1.
         25    2    1    2    0    0 -0.10956690567E+03  0.19498199893E+02  0.83234720038E+03  0.84900691840E+03  0.12500319550E+03 0.  0.
         23    2    1    2    0    0  0.10956690567E+03 -0.19498199893E+02  0.12429968389E+04  0.12511699158E+04  0.89442328198E+02 0.  0.
        -11    1    4    4    0    0  0.82386706138E+02 -0.53908783512E+02  0.81160174900E+03  0.81755190983E+03  0.51100000000E-03 0.  1.
         11    1    4    4    0    0  0.27180199536E+02  0.34410583620E+02  0.43139508991E+03  0.43361800598E+03  0.51100000000E-03 0. -1.
    9000005    1    3    3    0    0 -0.71717406345E+02 -0.49713328529E+02  0.38607534891E+03  0.39581558388E+03  0.10000000000E+01 0.  0.
    9000005    1    3    3    0    0 -0.37849499329E+02  0.69211528421E+02  0.44627185147E+03  0.45319133452E+03  0.10000000000E+01 0.  0.
<mgrwt>
<rscale>  0 0.16084644E+03</rscale>
<asrwt>0</asrwt>
<pdfrwt beam="1">  1        2 0.32119364E+00 0.16736453E+03</pdfrwt>
<pdfrwt beam="2">  1       -2 0.19102166E-02 0.16736453E+03</pdfrwt>
<totfact> 0.55026927E+03</totfact>
</mgrwt>
</event>
<event>
 8    2  0.8128359E-004  0.1313739E+03  0.7818608E-02  0.1238283E+00
          2   -1    0    0  501    0  0.00000000000E+00  0.00000000000E+00  0.17383560927E+03  0.17383560929E+03  0.25500000000E-02 0. -1.
         -2   -1    0    0    0  501 -0.00000000000E+00 -0.00000000000E+00 -0.11135596833E+03  0.11135596836E+03  0.25500000000E-02 0.  1.
         25    2    1    2    0    0  0.86662511771E+01  0.39480619809E+02 -0.43996869866E+02  0.13854536613E+03  0.12500108266E+03 0.  0.
         23    2    1    2    0    0 -0.86662511771E+01 -0.39480619809E+02  0.10647651081E+03  0.14664621152E+03  0.92379871998E+02 0.  0.
        -11    1    4    4    0    0 -0.27482758096E+02 -0.52685259406E+02  0.10835794118E+03  0.12358188366E+03  0.51100000000E-03 0. -1.
         11    1    4    4    0    0  0.18816506918E+02  0.13204639597E+02 -0.18814303705E+01  0.23064327868E+02  0.51100000000E-03 0.  1.
    9000005    1    3    3    0    0 -0.63265547131E+01  0.56849778468E+02 -0.78477162178E+02  0.97116361083E+02  0.10000000000E+01 0.  0.
    9000005    1    3    3    0    0  0.14992805890E+02 -0.17369158659E+02  0.34480292312E+02  0.41429005044E+02  0.10000000000E+01 0.  0.
<mgrwt>
<rscale>  0 0.12296612E+03</rscale>
<asrwt>0</asrwt>
<pdfrwt beam="1">  1        2 0.26743940E-01 0.13137387E+03</pdfrwt>
<pdfrwt beam="2">  1       -2 0.17131687E-01 0.13137387E+03</pdfrwt>
<totfact> 0.52011091E+03</totfact>
</mgrwt>
</event>
<event>
 8    2  0.8128359E-004  0.1803902E+03  0.7818608E-02  0.1172931E+00
         -2   -1    0    0    0  501 -0.00000000000E+00  0.00000000000E+00  0.75712228619E+03  0.75712228620E+03  0.25500000000E-02 0.  1.
          2   -1    0    0  501    0  0.00000000000E+00 -0.00000000000E+00 -0.42970150460E+02  0.42970150535E+02  0.25500000000E-02 0. -1.
         25    2    1    2    0    0 -0.11064488401E+03  0.68363180781E+02  0.51213640656E+03  0.54297727564E+03  0.12499923237E+03 0.  0.
         23    2    1    2    0    0  0.11064488401E+03 -0.68363180781E+02  0.20201572917E+03  0.25711516109E+03  0.91553461895E+02 0.  0.
        -11    1    4    4    0    0  0.55858333637E+02 -0.23762600547E+02  0.16815086707E+03  0.17877228174E+03  0.51100000000E-03 0. -1.
         11    1    4    4    0    0  0.54786550377E+02 -0.44600580234E+02  0.33864862097E+02  0.78342879348E+02  0.51100000000E-03 0.  1.
    9000005    1    3    3    0    0 -0.10261032686E+03  0.97909846654E+02  0.34432237212E+03  0.37238973293E+03  0.10000000000E+01 0.  0.
    9000005    1    3    3    0    0 -0.80345571586E+01 -0.29546665873E+02  0.16781403444E+03  0.17058754271E+03  0.10000000000E+01 0.  0.
<mgrwt>
<rscale>  0 0.17480150E+03</rscale>
<asrwt>0</asrwt>
<pdfrwt beam="2">  1        2 0.66107933E-02 0.18039020E+03</pdfrwt>
<pdfrwt beam="1">  1       -2 0.11648034E+00 0.18039020E+03</pdfrwt>
<totfact> 0.64186118E+02</totfact>
</mgrwt>
</event>
<event>
 8    2  0.8128359E-004  0.1297615E+03  0.7818608E-02  0.1241147E+00
          2   -1    0    0  501    0  0.00000000000E+00  0.00000000000E+00  0.14191732171E+04  0.14191732171E+04  0.25500000000E-02 0. -1.
         -2   -1    0    0    0  501 -0.00000000000E+00 -0.00000000000E+00 -0.10468920159E+02  0.10468920469E+02  0.25500000000E-02 0.  1.
         25    2    1    2    0    0  0.31785519730E+02 -0.14518535400E+02  0.10355808466E+04  0.10436789439E+04  0.12496776013E+03 0.  0.
         23    2    1    2    0    0 -0.31785519730E+02  0.14518535400E+02  0.37312345040E+03  0.38596319368E+03  0.92332932913E+02 0.  0.
        -11    1    4    4    0    0 -0.53720892809E+02 -0.78071450699E+01  0.13066351350E+03  0.14149148242E+03  0.51100000000E-03 0.  1.
         11    1    4    4    0    0  0.21935373079E+02  0.22325680470E+02  0.24245993690E+03  0.24447171126E+03  0.51100000000E-03 0. -1.
    9000005    1    3    3    0    0  0.21514204006E+02  0.46453589493E+02  0.22545578132E+03  0.23119711564E+03  0.10000000000E+01 0.  0.
    9000005    1    3    3    0    0  0.10271315724E+02 -0.60972124892E+02  0.81012506523E+03  0.81248182826E+03  0.10000000000E+01 0.  0.
<mgrwt>
<rscale>  0 0.12118960E+03</rscale>
<asrwt>0</asrwt>
<pdfrwt beam="1">  1        2 0.21833441E+00 0.12976151E+03</pdfrwt>
<pdfrwt beam="2">  1       -2 0.16106026E-02 0.12976151E+03</pdfrwt>
<totfact> 0.15466174E+04</totfact>
</mgrwt>
</event>
<event>
 8    2  0.8128359E-004  0.1668610E+03  0.7818608E-02  0.1187799E+00
          2   -1    0    0  501    0  0.00000000000E+00  0.00000000000E+00  0.16321220998E+03  0.16321221000E+03  0.25500000000E-02 0.  1.
         -2   -1    0    0    0  501 -0.00000000000E+00 -0.00000000000E+00 -0.18532537056E+03  0.18532537058E+03  0.25500000000E-02 0. -1.
         25    2    1    2    0    0  0.89224311029E+02  0.65258151082E+02  0.66410279592E+02  0.17959101393E+03  0.12499201210E+03 0.  0.
         23    2    1    2    0    0 -0.89224311029E+02 -0.65258151082E+02 -0.88523440171E+02  0.16894656665E+03  0.92124583910E+02 0.  0.
        -11    1    4    4    0    0 -0.81352606717E+02 -0.63099544925E+01 -0.67403951729E+02  0.10583645333E+03  0.51100000000E-03 0.  1.
         11    1    4    4    0    0 -0.78717043122E+01 -0.58948196590E+02 -0.21119488442E+02  0.63110113312E+02  0.51100000000E-03 0. -1.
    9000005    1    3    3    0    0  0.26922069492E+02  0.59608852730E+00 -0.34977361622E+02  0.44153923645E+02  0.10000000000E+01 0.  0.
    9000005    1    3    3    0    0  0.62302241537E+02  0.64662062555E+02  0.10138764121E+03  0.13543709029E+03  0.10000000000E+01 0.  0.
<mgrwt>
<rscale>  0 0.16079764E+03</rscale>
<asrwt>0</asrwt>
<pdfrwt beam="1">  1        2 0.25109571E-01 0.16686104E+03</pdfrwt>
<pdfrwt beam="2">  1       -2 0.28511596E-01 0.16686104E+03</pdfrwt>
<totfact> 0.23502009E+03</totfact>
</mgrwt>
</event>
<event>
 8    2  0.8128359E-004  0.1507589E+03  0.7818608E-02  0.1208786E+00
         -2   -1    0    0    0  501 -0.00000000000E+00  0.00000000000E+00  0.75885619906E+02  0.75885619949E+02  0.25500000000E-02 0.  1.
          2   -1    0    0  501    0  0.00000000000E+00 -0.00000000000E+00 -0.38733749309E+03  0.38733749310E+03  0.25500000000E-02 0. -1.
         25    2    1    2    0    0 -0.38859186912E+02 -0.74787431725E+02 -0.30418403159E+03  0.33949400962E+03  0.12500024457E+03 0.  0.
         23    2    1    2    0    0  0.38859186912E+02  0.74787431725E+02 -0.72678416004E+01  0.12372910343E+03  0.90293262002E+02 0.  0.
        -11    1    4    4    0    0  0.58481340010E+02  0.24108745482E+02  0.14982115137E+02  0.65005865215E+02  0.51100000000E-03 0. -1.
         11    1    4    4    0    0 -0.19622153098E+02  0.50678686243E+02 -0.22249956737E+02  0.58723238216E+02  0.51100000000E-03 0.  1.
    9000005    1    3    3    0    0 -0.39197670142E+01 -0.66527113563E+02 -0.51390588292E+02  0.84161832071E+02  0.10000000000E+01 0.  0.
    9000005    1    3    3    0    0 -0.34939419898E+02 -0.82603181614E+01 -0.25279344329E+03  0.25533217755E+03  0.10000000000E+01 0.  0.
<mgrwt>
<rscale>  0 0.14343087E+03</rscale>
<asrwt>0</asrwt>
<pdfrwt beam="2">  1        2 0.59590383E-01 0.15075894E+03</pdfrwt>
<pdfrwt beam="1">  1       -2 0.11674711E-01 0.15075894E+03</pdfrwt>
<totfact> 0.41466987E+03</totfact>
</mgrwt>
</event>
<event>
 8    2  0.8128359E-004  0.1327343E+03  0.7818608E-02  0.1235995E+00
         -2   -1    0    0    0  501 -0.00000000000E+00  0.00000000000E+00  0.12948050080E+03  0.12948050082E+03  0.25500000000E-02 0.  1.
          2   -1    0    0  501    0  0.00000000000E+00 -0.00000000000E+00 -0.13123695907E+03  0.13123695909E+03  0.25500000000E-02 0. -1.
         25    2    1    2    0    0  0.32144607037E+02  0.30979543292E+02 -0.56857489565E+02  0.14439937796E+03  0.12500159347E+03 0.  0.
         23    2    1    2    0    0 -0.32144607037E+02 -0.30979543292E+02  0.55101031295E+02  0.11631808196E+03  0.92199591523E+02 0.  0.
        -11    1    4    4    0    0 -0.10669915456E+02  0.11508418700E+02 -0.21204084408E+02  0.26379992279E+02  0.51100000000E-03 0. -1.
         11    1    4    4    0    0 -0.21474691581E+02 -0.42487961992E+02  0.76305115703E+02  0.89938089681E+02  0.51100000000E-03 0.  1.
    9000005    1    3    3    0    0  0.23926508651E+02 -0.26949356624E+02  0.24931061192E+02  0.43832675607E+02  0.10000000000E+01 0.  0.
    9000005    1    3    3    0    0  0.82180983853E+01  0.57928899916E+02 -0.81788550757E+02  0.10056670235E+03  0.10000000000E+01 0.  0.
<mgrwt>
<rscale>  0 0.12440961E+03</rscale>
<asrwt>0</asrwt>
<pdfrwt beam="2">  1        2 0.20190301E-01 0.13273434E+03</pdfrwt>
<pdfrwt beam="1">  1       -2 0.19920077E-01 0.13273434E+03</pdfrwt>
<totfact> 0.55261814E+03</totfact>
</mgrwt>
</event>
<event>
 8    2  0.8128359E-004  0.2099132E+03  0.7818608E-02  0.1145213E+00
          2   -1    0    0  501    0  0.00000000000E+00  0.00000000000E+00  0.10107299707E+04  0.10107299707E+04  0.25500000000E-02 0. -1.
         -2   -1    0    0    0  501 -0.00000000000E+00 -0.00000000000E+00 -0.46347514276E+02  0.46347514346E+02  0.25500000000E-02 0.  1.
         25    2    1    2    0    0 -0.56962284966E+02  0.15872471184E+03  0.30594294406E+03  0.37103184382E+03  0.12500123220E+03 0.  0.
         23    2    1    2    0    0  0.56962284966E+02 -0.15872471184E+03  0.65843951233E+03  0.68604564120E+03  0.93154679697E+02 0.  0.
        -11    1    4    4    0    0  0.71850018443E+02 -0.11572502890E+03  0.37492861827E+03  0.39890622490E+03  0.51100000000E-03 0.  1.
         11    1    4    4    0    0 -0.14887733477E+02 -0.42999682937E+02  0.28351089406E+03  0.28713941629E+03  0.51100000000E-03 0. -1.
    9000005    1    3    3    0    0 -0.65068937925E+02  0.41702390789E+02  0.57654954809E+02  0.96426914781E+02  0.10000000000E+01 0.  0.
    9000005    1    3    3    0    0  0.81066529599E+01  0.11702232105E+03  0.24828798926E+03  0.27460492904E+03  0.10000000000E+01 0.  0.
<mgrwt>
<rscale>  0 0.20545891E+03</rscale>
<asrwt>0</asrwt>
<pdfrwt beam="1">  1        2 0.15549691E+00 0.20991318E+03</pdfrwt>
<pdfrwt beam="2">  1       -2 0.71303873E-02 0.20991318E+03</pdfrwt>
<totfact> 0.29122468E+03</totfact>
</mgrwt>
</event>
<event>
 8    2  0.8128359E-004  0.1346441E+03  0.7818608E-02  0.1233403E+00
         -2   -1    0    0    0  501 -0.00000000000E+00  0.00000000000E+00  0.36776724296E+02  0.36776724384E+02  0.25500000000E-02 0. -1.
          2   -1    0    0  501    0  0.00000000000E+00 -0.00000000000E+00 -0.39034439024E+03  0.39034439025E+03  0.25500000000E-02 0.  1.
         25    2    1    2    0    0  0.26766585661E+02  0.42285011914E+02 -0.22320043144E+03  0.26066736350E+03  0.12499827782E+03 0.  0.
         23    2    1    2    0    0 -0.26766585661E+02 -0.42285011914E+02 -0.13036723451E+03  0.16645375114E+03  0.90591186625E+02 0.  0.
        -11    1    4    4    0    0 -0.50903156417E+02 -0.26003499447E+02 -0.35658502923E+02  0.67370929545E+02  0.51100000000E-03 0. -1.
         11    1    4    4    0    0  0.24136570756E+02 -0.16281512467E+02 -0.94708731586E+02  0.99082821594E+02  0.51100000000E-03 0.  1.
    9000005    1    3    3    0    0  0.17252711258E+02  0.86378566073E+02 -0.16481909781E+03  0.18688297870E+03  0.10000000000E+01 0.  0.
    9000005    1    3    3    0    0  0.95138744027E+01 -0.44093554159E+02 -0.58381333625E+02  0.73784384800E+02  0.10000000000E+01 0.  0.
<mgrwt>
<rscale>  0 0.12607254E+03</rscale>
<asrwt>0</asrwt>
<pdfrwt beam="2">  1        2 0.60052980E-01 0.13464413E+03</pdfrwt>
<pdfrwt beam="1">  1       -2 0.56579579E-02 0.13464413E+03</pdfrwt>
<totfact> 0.12549562E+04</totfact>
</mgrwt>
</event>
<event>
 8    2  0.8128359E-004  0.1274518E+03  0.7818608E-02  0.1244448E+00
          2   -1    0    0  501    0  0.00000000000E+00  0.00000000000E+00  0.37279474679E+02  0.37279474766E+02  0.25500000000E-02 0.  1.
         -2   -1    0    0    0  501 -0.00000000000E+00 -0.00000000000E+00 -0.36421640983E+03  0.36421640984E+03  0.25500000000E-02 0. -1.
         25    2    1    2    0    0  0.46076899942E+01  0.24403722675E+02 -0.23590128463E+03  0.26812940045E+03  0.12500874691E+03 0.  0.
         23    2    1    2    0    0 -0.46076899942E+01 -0.24403722675E+02 -0.91035650513E+02  0.13336648416E+03  0.94246256923E+02 0.  0.
        -11    1    4    4    0    0 -0.13368718799E+02 -0.11974914358E+02  0.16728387593E+02  0.24534876563E+02  0.51100000000E-03 0.  1.
         11    1    4    4    0    0  0.87610288053E+01 -0.12428808317E+02 -0.10776403811E+03  0.10883160759E+03  0.51100000000E-03 0. -1.
    9000005    1    3    3    0    0 -0.52867820072E+02 -0.18150954636E+02 -0.10089954730E+03  0.11535242606E+03  0.10000000000E+01 0.  0.
    9000005    1    3    3    0    0  0.57475510066E+02  0.42554677310E+02 -0.13500173734E+03  0.15277697438E+03  0.10000000000E+01 0.  0.
<mgrwt>
<rscale>  0 0.11918454E+03</rscale>
<asrwt>0</asrwt>
<pdfrwt beam="1">  1        2 0.57353040E-02 0.12745179E+03</pdfrwt>
<pdfrwt beam="2">  1       -2 0.56033291E-01 0.12745179E+03</pdfrwt>
<totfact> 0.37889223E+03</totfact>
</mgrwt>
</event>
<event>
 8    2  0.8128359E-004  0.2091905E+03  0.7818608E-02  0.1146060E+00
          2   -1    0    0  501    0  0.00000000000E+00  0.00000000000E+00  0.41783828318E+03  0.41783828319E+03  0.25500000000E-02 0. -1.
         -2   -1    0    0    0  501 -0.00000000000E+00 -0.00000000000E+00 -0.11917737438E+03  0.11917737440E+03  0.25500000000E-02 0.  1.
         25    2    1    2    0    0  0.15887346371E+03 -0.53808918825E+02  0.27390513498E+03  0.34465151843E+03  0.12499787586E+03 0.  0.
         23    2    1    2    0    0 -0.15887346371E+03  0.53808918825E+02  0.24755773824E+02  0.19236413916E+03  0.90856681000E+02 0.  0.
        -11    1    4    4    0    0 -0.14350352745E+02  0.36895397011E+01 -0.27067011323E+02  0.30857226533E+02  0.51100000000E-03 0.  1.
         11    1    4    4    0    0 -0.14452311096E+03  0.50119379124E+02  0.51822785147E+02  0.16150691263E+03  0.51100000000E-03 0. -1.
    9000005    1    3    3    0    0 -0.28731363062E+01 -0.31106722409E+02  0.74692512073E+01  0.32135226853E+02  0.10000000000E+01 0.  0.
    9000005    1    3    3    0    0  0.16174660001E+03 -0.22702196416E+02  0.26643588377E+03  0.31251629157E+03  0.10000000000E+01 0.  0.
<mgrwt>
<rscale>  0 0.20442350E+03</rscale>
<asrwt>0</asrwt>
<pdfrwt beam="1">  1        2 0.64282815E-01 0.20919045E+03</pdfrwt>
<pdfrwt beam="2">  1       -2 0.18334980E-01 0.20919045E+03</pdfrwt>
<totfact> 0.18432582E+03</totfact>
</mgrwt>
</event>
<event>
 8    2  0.8128359E-004  0.1252364E+03  0.7818608E-02  0.1250400E+00
          2   -1    0    0  501    0  0.00000000000E+00  0.00000000000E+00  0.19703602445E+04  0.19703602445E+04  0.25500000000E-02 0.  1.
         -2   -1    0    0    0  501 -0.00000000000E+00 -0.00000000000E+00 -0.59531893124E+01  0.59531898585E+01  0.25500000000E-02 0. -1.
         25    2    1    2    0    0  0.91652074249E+00  0.76603783527E+01  0.11792040737E+04  0.11858357447E+04  0.12499857837E+03 0.  0.
         23    2    1    2    0    0 -0.91652074249E+00 -0.76603783527E+01  0.78520298149E+03  0.79047768966E+03  0.90839057079E+02 0.  0.
        -11    1    4    4    0    0 -0.42371399044E+02 -0.21287115755E+02  0.38939203565E+03  0.39226857404E+03  0.51100000000E-03 0.  1.
         11    1    4    4    0    0  0.41454878302E+02  0.13626737402E+02  0.39581094584E+03  0.39820911561E+03  0.51100000000E-03 0. -1.
    9000005    1    3    3    0    0  0.41238148462E+02  0.28090586053E+02  0.99179660497E+03  0.99305144456E+03  0.10000000000E+01 0.  0.
    9000005    1    3    3    0    0 -0.40321627719E+02 -0.20430207701E+02  0.18740746875E+03  0.19278430017E+03  0.10000000000E+01 0.  0.
<mgrwt>
<rscale>  0 0.11567949E+03</rscale>
<asrwt>0</asrwt>
<pdfrwt beam="1">  1        2 0.30313302E+00 0.12523644E+03</pdfrwt>
<pdfrwt beam="2">  1       -2 0.91587329E-03 0.12523644E+03</pdfrwt>
<totfact> 0.18078726E+04</totfact>
</mgrwt>
</event>
<event>
 8    2  0.8128359E-004  0.1762942E+03  0.7818608E-02  0.1177375E+00
          2   -1    0    0  501    0  0.00000000000E+00  0.00000000000E+00  0.45410723740E+03  0.45410723741E+03  0.25500000000E-02 0. -1.
         -2   -1    0    0    0  501 -0.00000000000E+00 -0.00000000000E+00 -0.60634991830E+02  0.60634991884E+02  0.25500000000E-02 0.  1.
         25    2    1    2    0    0 -0.11910097821E+03  0.35628829656E+02  0.23430006612E+03  0.29321691580E+03  0.12500072885E+03 0.  0.
         23    2    1    2    0    0  0.11910097821E+03 -0.35628829656E+02  0.15917217945E+03  0.22152531349E+03  0.91012226062E+02 0.  0.
        -11    1    4    4    0    0  0.58966349462E+02 -0.55244577299E+02  0.49034843675E+02  0.94516715899E+02  0.51100000000E-03 0.  1.
         11    1    4    4    0    0  0.60134628752E+02  0.19615747643E+02  0.11013733578E+03  0.12700859759E+03  0.51100000000E-03 0. -1.
    9000005    1    3    3    0    0 -0.37208733953E+02  0.23841642051E+02 -0.56123376382E+00  0.44206659695E+02  0.10000000000E+01 0.  0.
    9000005    1    3    3    0    0 -0.81892244262E+02  0.11787187605E+02  0.23486129989E+03  0.24901025611E+03  0.10000000000E+01 0.  0.
<mgrwt>
<rscale>  0 0.17045442E+03</rscale>
<asrwt>0</asrwt>
<pdfrwt beam="1">  1        2 0.69862652E-01 0.17629418E+03</pdfrwt>
<pdfrwt beam="2">  1       -2 0.93284603E-02 0.17629418E+03</pdfrwt>
<totfact> 0.50192616E+03</totfact>
</mgrwt>
</event>
<event>
 8    2  0.8128359E-004  0.4707898E+03  0.7818608E-02  0.1022251E+00
         -2   -1    0    0    0  501 -0.00000000000E+00  0.00000000000E+00  0.18268074983E+03  0.18268074985E+03  0.25500000000E-02 0.  1.
          2   -1    0    0  501    0  0.00000000000E+00 -0.00000000000E+00 -0.12163696253E+04  0.12163696253E+04  0.25500000000E-02 0. -1.
         25    2    1    2    0    0  0.27712974592E+03  0.35946785312E+03 -0.61745897855E+03  0.77646546408E+03  0.12499997287E+03 0.  0.
         23    2    1    2    0    0 -0.27712974592E+03 -0.35946785312E+03 -0.41622989693E+03  0.62258491108E+03  0.91359788246E+02 0.  0.
        -11    1    4    4    0    0 -0.15211164736E+03 -0.19123852824E+03 -0.28448339558E+03  0.37502123981E+03  0.51100000000E-03 0. -1.
         11    1    4    4    0    0 -0.12501809855E+03 -0.16822932488E+03 -0.13174650136E+03  0.24756367128E+03  0.51100000000E-03 0.  1.
    9000005    1    3    3    0    0  0.19768555904E+03  0.16450464339E+03 -0.38322457060E+03  0.46152294576E+03  0.10000000000E+01 0.  0.
    9000005    1    3    3    0    0  0.79444186873E+02  0.19496320974E+03 -0.23423440795E+03  0.31494251832E+03  0.10000000000E+01 0.  0.
<mgrwt>
<rscale>  0 0.46882895E+03</rscale>
<asrwt>0</asrwt>
<pdfrwt beam="2">  1        2 0.18713378E+00 0.47078979E+03</pdfrwt>
<pdfrwt beam="1">  1       -2 0.28104731E-01 0.47078979E+03</pdfrwt>
<totfact> 0.22156933E+02</totfact>
</mgrwt>
</event>
<event>
 8    2  0.8128359E-004  0.1407636E+03  0.7818608E-02  0.1223407E+00
          2   -1    0    0  501    0  0.00000000000E+00  0.00000000000E+00  0.70954318713E+03  0.70954318714E+03  0.25500000000E-02 0.  1.
         -2   -1    0    0    0  501 -0.00000000000E+00 -0.00000000000E+00 -0.27142289539E+02  0.27142289659E+02  0.25500000000E-02 0. -1.
         25    2    1    2    0    0  0.35321492608E+02 -0.54210245124E+02  0.22095955962E+03  0.26198763084E+03  0.12501213226E+03 0.  0.
         23    2    1    2    0    0 -0.35321492608E+02  0.54210245124E+02  0.46144133798E+03  0.47469784595E+03  0.90683945894E+02 0.  0.
        -11    1    4    4    0    0 -0.62727158114E+02  0.38220113088E+02  0.38480244358E+03  0.39175042309E+03  0.51100000000E-03 0.  1.
         11    1    4    4    0    0  0.27405665506E+02  0.15990132035E+02  0.76638894399E+02  0.82947422861E+02  0.51100000000E-03 0. -1.
    9000005    1    3    3    0    0  0.52986195608E+02 -0.37617168140E+02  0.33781915447E+02  0.73244836509E+02  0.10000000000E+01 0.  0.
    9000005    1    3    3    0    0 -0.17664703000E+02 -0.16593076983E+02  0.18717764417E+03  0.18874279433E+03  0.10000000000E+01 0.  0.
<mgrwt>
<rscale>  0 0.13276664E+03</rscale>
<asrwt>0</asrwt>
<pdfrwt beam="1">  1        2 0.10916050E+00 0.14076360E+03</pdfrwt>
<pdfrwt beam="2">  1       -2 0.41757367E-02 0.14076360E+03</pdfrwt>
<totfact> 0.10195575E+04</totfact>
</mgrwt>
</event>
<event>
 8    2  0.8128359E-004  0.1794541E+03  0.7818608E-02  0.1173796E+00
         -2   -1    0    0    0  501 -0.00000000000E+00  0.00000000000E+00  0.15729703153E+03  0.15729703155E+03  0.25500000000E-02 0.  1.
          2   -1    0    0  501    0  0.00000000000E+00 -0.00000000000E+00 -0.21140324309E+03  0.21140324310E+03  0.25500000000E-02 0. -1.
         25    2    1    2    0    0 -0.37831498468E+02 -0.12307671376E+03 -0.97803703841E+02  0.20437548698E+03  0.12499870179E+03 0.  0.
         23    2    1    2    0    0  0.37831498468E+02  0.12307671376E+03  0.43697492283E+02  0.16432478767E+03  0.92271692651E+02 0.  0.
        -11    1    4    4    0    0  0.23326142843E+02  0.30523729160E+02 -0.27003560164E+02  0.46957419473E+02  0.51100000000E-03 0. -1.
         11    1    4    4    0    0  0.14505355625E+02  0.92552984600E+02  0.70701052446E+02  0.11736736820E+03  0.51100000000E-03 0.  1.
    9000005    1    3    3    0    0  0.33468624993E+02 -0.66338843816E+01 -0.48284391148E+02  0.59131545807E+02  0.10000000000E+01 0.  0.
    9000005    1    3    3    0    0 -0.71300123461E+02 -0.11644282938E+03 -0.49519312693E+02  0.14524394118E+03  0.10000000000E+01 0.  0.
<mgrwt>
<rscale>  0 0.17394401E+03</rscale>
<asrwt>0</asrwt>
<pdfrwt beam="2">  1        2 0.32523576E-01 0.17945410E+03</pdfrwt>
<pdfrwt beam="1">  1       -2 0.24199543E-01 0.17945410E+03</pdfrwt>
<totfact> 0.23722561E+03</totfact>
</mgrwt>
</event>
<event>
 8    2  0.8128359E-004  0.1288662E+03  0.7818608E-02  0.1242914E+00
          2   -1    0    0  501    0  0.00000000000E+00  0.00000000000E+00  0.39924198831E+02  0.39924198913E+02  0.25500000000E-02 0. -1.
         -2   -1    0    0    0  501 -0.00000000000E+00 -0.00000000000E+00 -0.37605461217E+03  0.37605461218E+03  0.25500000000E-02 0.  1.
         25    2    1    2    0    0  0.24884076777E+02 -0.19035046915E+02 -0.10856410389E+03  0.16850120418E+03  0.12499976348E+03 0.  0.
         23    2    1    2    0    0 -0.24884076777E+02  0.19035046915E+02 -0.22756630945E+03  0.24747760691E+03  0.92071659250E+02 0.  0.
        -11    1    4    4    0    0  0.26298512766E+01  0.45501900855E+02 -0.58525711358E+02  0.74179498444E+02  0.51100000000E-03 0. -1.
         11    1    4    4    0    0 -0.27513928054E+02 -0.26466853940E+02 -0.16904059809E+03  0.17329810847E+03  0.51100000000E-03 0.  1.
    9000005    1    3    3    0    0 -0.28135650195E+02 -0.55642517278E+02 -0.68455886592E+02  0.92600825861E+02  0.10000000000E+01 0.  0.
    9000005    1    3    3    0    0  0.53019726972E+02  0.36607470363E+02 -0.40108217297E+02  0.75900378321E+02  0.10000000000E+01 0.  0.
<mgrwt>
<rscale>  0 0.12011116E+03</rscale>
<asrwt>0</asrwt>
<pdfrwt beam="1">  1        2 0.61421847E-02 0.12886618E+03</pdfrwt>
<pdfrwt beam="2">  1       -2 0.57854553E-01 0.12886618E+03</pdfrwt>
<totfact> 0.32536841E+03</totfact>
</mgrwt>
</event>
<event>
 8    2  0.8128359E-004  0.1327758E+03  0.7818608E-02  0.1236014E+00
         -2   -1    0    0    0  501 -0.00000000000E+00  0.00000000000E+00  0.45447354790E+02  0.45447354862E+02  0.25500000000E-02 0.  1.
          2   -1    0    0  501    0  0.00000000000E+00 -0.00000000000E+00 -0.32041372113E+03  0.32041372114E+03  0.25500000000E-02 0. -1.
         25    2    1    2    0    0  0.23348181455E+02 -0.38197175177E+02 -0.19547864894E+03  0.23630764916E+03  0.12500096436E+03 0.  0.
         23    2    1    2    0    0 -0.23348181455E+02  0.38197175177E+02 -0.79487717398E+02  0.12955342684E+03  0.91987126383E+02 0.  0.
        -11    1    4    4    0    0  0.17980621487E+02  0.44223018966E+02 -0.10455918690E+02  0.48870281270E+02  0.51100000000E-03 0. -1.
         11    1    4    4    0    0 -0.41328802942E+02 -0.60258437892E+01 -0.69031798707E+02  0.80683145570E+02  0.51100000000E-03 0.  1.
    9000005    1    3    3    0    0  0.14133838416E+02 -0.77852609827E+02 -0.17192727169E+03  0.18926378680E+03  0.10000000000E+01 0.  0.
    9000005    1    3    3    0    0  0.92143430388E+01  0.39655434650E+02 -0.23551377255E+02  0.47043862358E+02  0.10000000000E+01 0.  0.
<mgrwt>
<rscale>  0 0.12439720E+03</rscale>
<asrwt>0</asrwt>
<pdfrwt beam="2">  1        2 0.49294417E-01 0.13277576E+03</pdfrwt>
<pdfrwt beam="1">  1       -2 0.69919009E-02 0.13277576E+03</pdfrwt>
<totfact> 0.11207471E+04</totfact>
</mgrwt>
</event>
<event>
 8    2  0.8128359E-004  0.1264812E+03  0.7818608E-02  0.1247632E+00
         -2   -1    0    0    0  501 -0.00000000000E+00  0.00000000000E+00  0.62389688529E+02  0.62389688581E+02  0.25500000000E-02 0. -1.
          2   -1    0    0  501    0  0.00000000000E+00 -0.00000000000E+00 -0.20150849852E+03  0.20150849853E+03  0.25500000000E-02 0.  1.
         25    2    1    2    0    0 -0.24419476330E+01  0.19139347602E+02 -0.10480876168E+03  0.16426311848E+03  0.12500087133E+03 0.  0.
         23    2    1    2    0    0  0.24419476330E+01 -0.19139347602E+02 -0.34310048305E+02  0.99635068635E+02  0.91529720596E+02 0.  0.
        -11    1    4    4    0    0 -0.54175571415E+01 -0.22443650290E+02  0.28256841805E+02  0.36489950298E+02  0.51100000000E-03 0. -1.
         11    1    4    4    0    0  0.78595047745E+01  0.33043026883E+01 -0.62566890110E+02  0.63145118337E+02  0.51100000000E-03 0.  1.
    9000005    1    3    3    0    0 -0.50315477539E+02 -0.28899966931E+02 -0.56463084511E+02  0.80968730267E+02  0.10000000000E+01 0.  0.
    9000005    1    3    3    0    0  0.47873529906E+02  0.48039314533E+02 -0.48345677172E+02  0.83294388212E+02  0.10000000000E+01 0.  0.
<mgrwt>
<rscale>  0 0.11729252E+03</rscale>
<asrwt>0</asrwt>
<pdfrwt beam="2">  1        2 0.31001307E-01 0.12648121E+03</pdfrwt>
<pdfrwt beam="1">  1       -2 0.95984137E-02 0.12648121E+03</pdfrwt>
<totfact> 0.11208202E+04</totfact>
</mgrwt>
</event>
<event>
 8    2  0.8128359E-004  0.1559336E+03  0.7818608E-02  0.1201561E+00
         -2   -1    0    0    0  501 -0.00000000000E+00  0.00000000000E+00  0.12653152095E+03  0.12653152097E+03  0.25500000000E-02 0.  1.
          2   -1    0    0  501    0  0.00000000000E+00 -0.00000000000E+00 -0.21399020232E+03  0.21399020234E+03  0.25500000000E-02 0. -1.
         25    2    1    2    0    0  0.62993277123E+02 -0.68720036790E+02 -0.13035213081E+03  0.20324115519E+03  0.12499877094E+03 0.  0.
         23    2    1    2    0    0 -0.62993277123E+02  0.68720036790E+02  0.42893449439E+02  0.13728056812E+03  0.91189418030E+02 0.  0.
        -11    1    4    4    0    0 -0.42769913835E+02  0.85391273568E+02  0.52959928223E+02  0.10920480360E+03  0.51100000000E-03 0.  1.
         11    1    4    4    0    0 -0.20223363288E+02 -0.16671236778E+02 -0.10066478785E+02  0.28075764527E+02  0.51100000000E-03 0. -1.
    9000005    1    3    3    0    0  0.24319803007E+01  0.23147751411E+02  0.96113846023E+01  0.25201421339E+02  0.10000000000E+01 0.  0.
    9000005    1    3    3    0    0  0.60561296823E+02 -0.91867788201E+02 -0.13996351542E+03  0.17803973385E+03  0.10000000000E+01 0.  0.
<mgrwt>
<rscale>  0 0.14911811E+03</rscale>
<asrwt>0</asrwt>
<pdfrwt beam="2">  1        2 0.32921570E-01 0.15593360E+03</pdfrwt>
<pdfrwt beam="1">  1       -2 0.19466388E-01 0.15593360E+03</pdfrwt>
<totfact> 0.33832264E+03</totfact>
</mgrwt>
</event>
<event>
 8    2  0.8128359E-004  0.1269004E+03  0.7818608E-02  0.1247270E+00
          2   -1    0    0  501    0  0.00000000000E+00  0.00000000000E+00  0.26809695485E+03  0.26809695486E+03  0.25500000000E-02 0. -1.
         -2   -1    0    0    0  501 -0.00000000000E+00 -0.00000000000E+00 -0.53432912738E+02  0.53432912798E+02  0.25500000000E-02 0.  1.
         25    2    1    2    0    0  0.27362477308E+01 -0.21742644351E+02  0.18362783098E+03  0.22321044054E+03  0.12499396314E+03 0.  0.
         23    2    1    2    0    0 -0.27362477308E+01  0.21742644351E+02  0.31036211129E+02  0.98319427115E+02  0.90682047352E+02 0.  0.
        -11    1    4    4    0    0 -0.14929371299E+00 -0.24751703312E+02 -0.18068984441E+02  0.30645673503E+02  0.51100000000E-03 0.  1.
         11    1    4    4    0    0 -0.25869540178E+01  0.46494347663E+02  0.49105195570E+02  0.67673753612E+02  0.51100000000E-03 0. -1.
    9000005    1    3    3    0    0  0.38576160475E+02 -0.48490139197E+01  0.17915080591E+03  0.18332387829E+03  0.10000000000E+01 0.  0.
    9000005    1    3    3    0    0 -0.35839912744E+02 -0.16893630431E+02  0.44770250667E+01  0.39886562249E+02  0.10000000000E+01 0.  0.
<mgrwt>
<rscale>  0 0.11750568E+03</rscale>
<asrwt>0</asrwt>
<pdfrwt beam="1">  1        2 0.41245686E-01 0.12690044E+03</pdfrwt>
<pdfrwt beam="2">  1       -2 0.82204480E-02 0.12690044E+03</pdfrwt>
<totfact> 0.10515454E+04</totfact>
</mgrwt>
</event>
<event>
 8    2  0.8128359E-004  0.1717287E+03  0.7818608E-02  0.1182284E+00
         -2   -1    0    0    0  501 -0.00000000000E+00  0.00000000000E+00  0.84587972837E+02  0.84587972875E+02  0.25500000000E-02 0.  1.
          2   -1    0    0  501    0  0.00000000000E+00 -0.00000000000E+00 -0.31103498122E+03  0.31103498123E+03  0.25500000000E-02 0. -1.
         25    2    1    2    0    0  0.10247490618E+02 -0.11730459015E+03 -0.92441566690E+02  0.19502866264E+03  0.12500143225E+03 0.  0.
         23    2    1    2    0    0 -0.10247490618E+02  0.11730459015E+03 -0.13400544169E+03  0.20059429147E+03  0.91734581446E+02 0.  0.
        -11    1    4    4    0    0 -0.11988072858E+02 -0.85919178419E+00  0.90459540714E+01  0.15042652249E+02  0.51100000000E-03 0.  1.
         11    1    4    4    0    0  0.17405822401E+01  0.11816378193E+03 -0.14305139576E+03  0.18555163922E+03  0.51100000000E-03 0. -1.
    9000005    1    3    3    0    0 -0.20812564408E+02 -0.79616479053E+02 -0.11484512124E+03  0.14128817518E+03  0.10000000000E+01 0.  0.
    9000005    1    3    3    0    0  0.31060055026E+02 -0.37688111093E+02  0.22403554545E+02  0.53740487458E+02  0.10000000000E+01 0.  0.
<mgrwt>
<rscale>  0 0.16581469E+03</rscale>
<asrwt>0</asrwt>
<pdfrwt beam="2">  1        2 0.47851535E-01 0.17172867E+03</pdfrwt>
<pdfrwt beam="1">  1       -2 0.13013535E-01 0.17172867E+03</pdfrwt>
<totfact> 0.44307312E+03</totfact>
</mgrwt>
</event>
<event>
 8    2  0.8128359E-004  0.1365278E+03  0.7818608E-02  0.1233703E+00
          2   -1    0    0  501    0  0.00000000000E+00  0.00000000000E+00  0.55083817233E+03  0.55083817233E+03  0.25500000000E-02 0.  1.
         -2   -1    0    0    0  501 -0.00000000000E+00 -0.00000000000E+00 -0.28068195061E+02  0.28068195177E+02  0.25500000000E-02 0. -1.
         25    2    1    2    0    0 -0.51632617710E+02  0.18679624900E+02  0.20606169256E+03  0.24718668624E+03  0.12499992446E+03 0.  0.
         23    2    1    2    0    0  0.51632617710E+02 -0.18679624900E+02  0.31670828470E+03  0.33171968127E+03  0.81969224373E+02 0.  0.
        -11    1    4    4    0    0  0.40260649526E+02 -0.50295656877E+02  0.18964982828E+03  0.20029386003E+03  0.51100000000E-03 0.  1.
         11    1    4    4    0    0  0.11371968185E+02  0.31616031977E+02  0.12705845642E+03  0.13142582124E+03  0.51100000000E-03 0. -1.
    9000005    1    3    3    0    0 -0.67933659005E+02 -0.22164926350E+01  0.39693081336E+02  0.78717441341E+02  0.10000000000E+01 0.  0.
    9000005    1    3    3    0    0  0.16301041294E+02  0.20896117535E+02  0.16636861123E+03  0.16846924490E+03  0.10000000000E+01 0.  0.
<mgrwt>
<rscale>  0 0.12587838E+03</rscale>
<asrwt>0</asrwt>
<pdfrwt beam="1">  1        2 0.84744326E-01 0.13652779E+03</pdfrwt>
<pdfrwt beam="2">  1       -2 0.43181843E-02 0.13652779E+03</pdfrwt>
<totfact> 0.12956477E+04</totfact>
</mgrwt>
</event>
<event>
 8    2  0.8128359E-004  0.1538943E+03  0.7818608E-02  0.1207539E+00
         -2   -1    0    0    0  501 -0.00000000000E+00  0.00000000000E+00  0.18200281893E+03  0.18200281894E+03  0.25500000000E-02 0.  1.
          2   -1    0    0  501    0  0.00000000000E+00 -0.00000000000E+00 -0.10676994783E+03  0.10676994786E+03  0.25500000000E-02 0. -1.
         25    2    1    2    0    0 -0.89302605310E+02 -0.91966833216E+01  0.13509962529E+02  0.15448619450E+03  0.12499572355E+03 0.  0.
         23    2    1    2    0    0  0.89302605310E+02  0.91966833216E+01  0.61722908571E+02  0.13428657230E+03  0.78508800513E+02 0.  0.
        -11    1    4    4    0    0  0.46945127431E+02 -0.13164873401E+02 -0.82914584227E+01  0.49456113517E+02  0.51100000000E-03 0. -1.
         11    1    4    4    0    0  0.42357477879E+02  0.22361556723E+02  0.70014366994E+02  0.84830458782E+02  0.51100000000E-03 0.  1.
    9000005    1    3    3    0    0 -0.53387432547E+02 -0.64917388898E+02  0.23873763081E+02  0.87381015667E+02  0.10000000000E+01 0.  0.
    9000005    1    3    3    0    0 -0.35915172763E+02  0.55720705576E+02 -0.10363800552E+02  0.67105178835E+02  0.10000000000E+01 0.  0.
<mgrwt>
<rscale>  0 0.14439146E+03</rscale>
<asrwt>0</asrwt>
<pdfrwt beam="2">  1        2 0.16426146E-01 0.15389433E+03</pdfrwt>
<pdfrwt beam="1">  1       -2 0.28000433E-01 0.15389433E+03</pdfrwt>
<totfact> 0.39132030E+03</totfact>
</mgrwt>
</event>
<event>
 8    2  0.8128359E-004  0.2762815E+03  0.7818608E-02  0.1099640E+00
         -2   -1    0    0    0  501 -0.00000000000E+00  0.00000000000E+00  0.50648151557E+02  0.50648151621E+02  0.25500000000E-02 0. -1.
          2   -1    0    0  501    0  0.00000000000E+00 -0.00000000000E+00 -0.14943456863E+04  0.14943456863E+04  0.25500000000E-02 0.  1.
         25    2    1    2    0    0 -0.73474204983E+02  0.23517726008E+03 -0.58535817424E+03  0.64728329518E+03  0.12499867845E+03 0.  0.
         23    2    1    2    0    0  0.73474204983E+02 -0.23517726008E+03 -0.85833936047E+03  0.89771054271E+03  0.91820249975E+02 0.  0.
        -11    1    4    4    0    0  0.77335191446E+02 -0.22010609705E+03 -0.68427074842E+03  0.72294804996E+03  0.51100000000E-03 0. -1.
         11    1    4    4    0    0 -0.38609864629E+01 -0.15071163025E+02 -0.17406861205E+03  0.17476249275E+03  0.51100000000E-03 0.  1.
    9000005    1    3    3    0    0 -0.54127218542E+02  0.24632964197E+03 -0.55466399282E+03  0.60931206555E+03  0.10000000000E+01 0.  0.
    9000005    1    3    3    0    0 -0.19346986441E+02 -0.11152381892E+02 -0.30694181424E+02  0.37971229628E+02  0.10000000000E+01 0.  0.
<mgrwt>
<rscale>  0 0.27288413E+03</rscale>
<asrwt>0</asrwt>
<pdfrwt beam="2">  1        2 0.22989930E+00 0.27628151E+03</pdfrwt>
<pdfrwt beam="1">  1       -2 0.77920245E-02 0.27628151E+03</pdfrwt>
<totfact> 0.13548672E+03</totfact>
</mgrwt>
</event>
<event>
 8    2  0.8128359E-004  0.1306305E+03  0.7818608E-02  0.1240903E+00
          2   -1    0    0  501    0  0.00000000000E+00  0.00000000000E+00  0.75337630907E+03  0.75337630908E+03  0.25500000000E-02 0. -1.
         -2   -1    0    0    0  501 -0.00000000000E+00 -0.00000000000E+00 -0.18342858180E+02  0.18342858357E+02  0.25500000000E-02 0.  1.
         25    2    1    2    0    0  0.81640730460E+01  0.37030203749E+02  0.32410095584E+03  0.34943633761E+03  0.12500574542E+03 0.  0.
         23    2    1    2    0    0 -0.81640730460E+01 -0.37030203749E+02  0.41093249505E+03  0.42228282982E+03  0.89551017829E+02 0.  0.
        -11    1    4    4    0    0 -0.22740114660E+02 -0.85511325941E+01  0.36769231346E+03  0.36849405974E+03  0.51100000000E-03 0. -1.
         11    1    4    4    0    0  0.14576041614E+02 -0.28479071154E+02  0.43240181595E+02  0.53788770088E+02  0.51100000000E-03 0.  1.
    9000005    1    3    3    0    0  0.29607944736E+01  0.35189860664E+02  0.12038027102E+02  0.37323004889E+02  0.10000000000E+01 0.  0.
    9000005    1    3    3    0    0  0.52032785724E+01  0.18403430850E+01  0.31206292874E+03  0.31211333272E+03  0.10000000000E+01 0.  0.
<mgrwt>
<rscale>  0 0.12134005E+03</rscale>
<asrwt>0</asrwt>
<pdfrwt beam="1">  1        2 0.11590406E+00 0.13063049E+03</pdfrwt>
<pdfrwt beam="2">  1       -2 0.28219779E-02 0.13063049E+03</pdfrwt>
<totfact> 0.16834968E+04</totfact>
</mgrwt>
</event>
<event>
 8    2  0.8128359E-004  0.1512090E+03  0.7818608E-02  0.1207976E+00
          2   -1    0    0  501    0  0.00000000000E+00  0.00000000000E+00  0.40236665886E+03  0.40236665887E+03  0.25500000000E-02 0.  1.
         -2   -1    0    0    0  501 -0.00000000000E+00 -0.00000000000E+00 -0.53152186753E+02  0.53152186815E+02  0.25500000000E-02 0. -1.
         25    2    1    2    0    0  0.49708050393E+02 -0.69060247830E+02  0.11402427340E+03  0.18938238489E+03  0.12499577864E+03 0.  0.
         23    2    1    2    0    0 -0.49708050393E+02  0.69060247830E+02  0.23519019871E+03  0.26613646080E+03  0.90961409909E+02 0.  0.
        -11    1    4    4    0    0 -0.52709304960E+02  0.17826122183E+02  0.18923729267E+03  0.19724805297E+03  0.51100000000E-03 0. -1.
         11    1    4    4    0    0  0.30012545663E+01  0.51234125647E+02  0.45952906035E+02  0.68888407828E+02  0.51100000000E-03 0.  1.
    9000005    1    3    3    0    0  0.58657621874E+02  0.14053122982E+02  0.19971530395E+02  0.63545801559E+02  0.10000000000E+01 0.  0.
    9000005    1    3    3    0    0 -0.89495714807E+01 -0.83113370811E+02  0.94052743009E+02  0.12583658333E+03  0.10000000000E+01 0.  0.
<mgrwt>
<rscale>  0 0.14405366E+03</rscale>
<asrwt>0</asrwt>
<pdfrwt beam="1">  1        2 0.61902563E-01 0.15120897E+03</pdfrwt>
<pdfrwt beam="2">  1       -2 0.81772595E-02 0.15120897E+03</pdfrwt>
<totfact> 0.69704390E+03</totfact>
</mgrwt>
</event>
<event>
 8    2  0.8128359E-004  0.1770526E+03  0.7818608E-02  0.1176578E+00
          2   -1    0    0  501    0  0.00000000000E+00  0.00000000000E+00  0.48133127705E+03  0.48133127705E+03  0.25500000000E-02 0. -1.
         -2   -1    0    0    0  501 -0.00000000000E+00 -0.00000000000E+00 -0.58901073568E+02  0.58901073623E+02  0.25500000000E-02 0.  1.
         25    2    1    2    0    0  0.57980592428E+02  0.11117987771E+03  0.27047027144E+03  0.32326737131E+03  0.12499964526E+03 0.  0.
         23    2    1    2    0    0 -0.57980592428E+02 -0.11117987771E+03  0.15195993203E+03  0.21696497936E+03  0.90880509579E+02 0.  0.
        -11    1    4    4    0    0  0.80005305415E+01  0.12170607023E+02  0.10032618515E+02  0.17685745638E+02  0.51100000000E-03 0.  1.
         11    1    4    4    0    0 -0.65981122969E+02 -0.12335048473E+03  0.14192731352E+03  0.19927923372E+03  0.51100000000E-03 0. -1.
    9000005    1    3    3    0    0 -0.44570234248E+01 -0.57336912290E+01  0.12973560472E+03  0.12994255425E+03  0.10000000000E+01 0.  0.
    9000005    1    3    3    0    0  0.62437615852E+02  0.11691356893E+03  0.14073466672E+03  0.19332481706E+03  0.10000000000E+01 0.  0.
<mgrwt>
<rscale>  0 0.17122311E+03</rscale>
<asrwt>0</asrwt>
<pdfrwt beam="1">  1        2 0.74050963E-01 0.17705261E+03</pdfrwt>
<pdfrwt beam="2">  1       -2 0.90617040E-02 0.17705261E+03</pdfrwt>
<totfact> 0.49290411E+03</totfact>
</mgrwt>
</event>
<event>
 8    2  0.8128359E-004  0.1269734E+03  0.7818608E-02  0.1245925E+00
         -2   -1    0    0    0  501 -0.00000000000E+00  0.00000000000E+00  0.10069261906E+03  0.10069261910E+03  0.25500000000E-02 0.  1.
          2   -1    0    0  501    0  0.00000000000E+00 -0.00000000000E+00 -0.12402559897E+03  0.12402559899E+03  0.25500000000E-02 0. -1.
         25    2    1    2    0    0 -0.20453817394E+02  0.88636366302E+01 -0.36115088295E+01  0.12702477533E+03  0.12500131140E+03 0.  0.
         23    2    1    2    0    0  0.20453817394E+02 -0.88636366302E+01 -0.19721471076E+02  0.97693442756E+02  0.93049178587E+02 0.  0.
        -11    1    4    4    0    0  0.11753885181E+02 -0.10192437803E+02 -0.57157426112E+02  0.59236905433E+02  0.51100000000E-03 0. -1.
         11    1    4    4    0    0  0.86999322131E+01  0.13288011732E+01  0.37435955037E+02  0.38456537322E+02  0.51100000000E-03 0.  1.
    9000005    1    3    3    0    0  0.37513827882E+02  0.24245229474E+02 -0.37325026931E+02  0.58217489383E+02  0.10000000000E+01 0.  0.
    9000005    1    3    3    0    0 -0.57967645277E+02 -0.15381592844E+02  0.33713518102E+02  0.68807285952E+02  0.10000000000E+01 0.  0.
<mgrwt>
<rscale>  0 0.11830207E+03</rscale>
<asrwt>0</asrwt>
<pdfrwt beam="2">  1        2 0.19080861E-01 0.12697342E+03</pdfrwt>
<pdfrwt beam="1">  1       -2 0.15491172E-01 0.12697342E+03</pdfrwt>
<totfact> 0.89193943E+03</totfact>
</mgrwt>
</event>
<event>
 8    2  0.8128359E-004  0.1258075E+03  0.7818608E-02  0.1248416E+00
          2   -1    0    0  501    0  0.00000000000E+00  0.00000000000E+00  0.47651427855E+03  0.47651427856E+03  0.25500000000E-02 0. -1.
         -2   -1    0    0    0  501 -0.00000000000E+00 -0.00000000000E+00 -0.25305409818E+02  0.25305409947E+02  0.25500000000E-02 0.  1.
         25    2    1    2    0    0  0.36777435461E+01  0.14139581207E+02  0.27039302450E+03  0.29822794031E+03  0.12495624485E+03 0.  0.
         23    2    1    2    0    0 -0.36777435461E+01 -0.14139581207E+02  0.18081584423E+03  0.20359174820E+03  0.92421733670E+02 0.  0.
        -11    1    4    4    0    0  0.20209365584E+02 -0.27225549043E+02  0.17758902618E+02  0.38275678968E+02  0.51100000000E-03 0.  1.
         11    1    4    4    0    0 -0.23887109130E+02  0.13085967836E+02  0.16305694161E+03  0.16531606923E+03  0.51100000000E-03 0. -1.
    9000005    1    3    3    0    0 -0.24528687119E+02  0.35372651828E+02  0.23955201387E+02  0.49272027182E+02  0.10000000000E+01 0.  0.
    9000005    1    3    3    0    0  0.28206430665E+02 -0.21233070621E+02  0.24643782311E+03  0.24895591313E+03  0.10000000000E+01 0.  0.
<mgrwt>
<rscale>  0 0.11683238E+03</rscale>
<asrwt>0</asrwt>
<pdfrwt beam="1">  1        2 0.73309886E-01 0.12580746E+03</pdfrwt>
<pdfrwt beam="2">  1       -2 0.38931401E-02 0.12580746E+03</pdfrwt>
<totfact> 0.17613600E+04</totfact>
</mgrwt>
</event>
<event>
 8    2  0.8128359E-004  0.1739760E+03  0.7818608E-02  0.1179709E+00
          2   -1    0    0  501    0  0.00000000000E+00  0.00000000000E+00  0.73152185665E+03  0.73152185665E+03  0.25500000000E-02 0. -1.
         -2   -1    0    0    0  501 -0.00000000000E+00 -0.00000000000E+00 -0.44178086617E+02  0.44178086691E+02  0.25500000000E-02 0.  1.
         25    2    1    2    0    0 -0.70495160163E+02  0.98354772132E+02  0.19953779777E+03  0.26473188153E+03  0.12499763019E+03 0.  0.
         23    2    1    2    0    0  0.70495160163E+02 -0.98354772132E+02  0.48780597226E+03  0.51096806181E+03  0.92143718244E+02 0.  0.
        -11    1    4    4    0    0  0.66426919666E+02 -0.95588694829E+02  0.49132098277E+03  0.50492181805E+03  0.51100000000E-03 0. -1.
         11    1    4    4    0    0  0.40682404974E+01 -0.27660773024E+01 -0.35150105132E+01  0.60462437560E+01  0.51100000000E-03 0.  1.
    9000005    1    3    3    0    0 -0.26351155168E+02  0.33575907033E+02  0.17853800705E+03  0.18357163418E+03  0.10000000000E+01 0.  0.
    9000005    1    3    3    0    0 -0.44144004995E+02  0.64778865098E+02  0.20999790718E+02  0.81160247355E+02  0.10000000000E+01 0.  0.
<mgrwt>
<rscale>  0 0.16822772E+03</rscale>
<asrwt>0</asrwt>
<pdfrwt beam="1">  1        2 0.11254183E+00 0.17397596E+03</pdfrwt>
<pdfrwt beam="2">  1       -2 0.67966286E-02 0.17397596E+03</pdfrwt>
<totfact> 0.47548369E+03</totfact>
</mgrwt>
</event>
<event>
 8    2  0.8128359E-004  0.1805809E+03  0.7818608E-02  0.1172660E+00
          2   -1    0    0  501    0  0.00000000000E+00  0.00000000000E+00  0.19344368583E+03  0.19344368585E+03  0.25500000000E-02 0. -1.
         -2   -1    0    0    0  501 -0.00000000000E+00 -0.00000000000E+00 -0.17729452209E+03  0.17729452211E+03  0.25500000000E-02 0.  1.
         25    2    1    2    0    0  0.16870756937E+02  0.12922865570E+03 -0.64785081755E+02  0.19185039100E+03  0.12499919127E+03 0.  0.
         23    2    1    2    0    0 -0.16870756937E+02 -0.12922865570E+03  0.80934245492E+02  0.17888781696E+03  0.92009950923E+02 0.  0.
        -11    1    4    4    0    0 -0.22842664332E+02 -0.35701097504E+02 -0.14823061631E+02  0.44900766510E+02  0.51100000000E-03 0.  1.
         11    1    4    4    0    0  0.59719073951E+01 -0.93527558193E+02  0.95757307123E+02  0.13398705045E+03  0.51100000000E-03 0. -1.
    9000005    1    3    3    0    0 -0.13733456247E+02  0.40017847292E+02 -0.85393855348E+02  0.95305542617E+02  0.10000000000E+01 0.  0.
    9000005    1    3    3    0    0  0.30604213185E+02  0.89210808405E+02  0.20608773593E+02  0.96544848386E+02  0.10000000000E+01 0.  0.
<mgrwt>
<rscale>  0 0.17507169E+03</rscale>
<asrwt>0</asrwt>
<pdfrwt beam="1">  1        2 0.29760567E-01 0.18058091E+03</pdfrwt>
<pdfrwt beam="2">  1       -2 0.27276080E-01 0.18058091E+03</pdfrwt>
<totfact> 0.21162224E+03</totfact>
</mgrwt>
</event>
<event>
 8    2  0.8128359E-004  0.1346714E+03  0.7818608E-02  0.1232713E+00
         -2   -1    0    0    0  501 -0.00000000000E+00  0.00000000000E+00  0.15066788700E+02  0.15066788916E+02  0.25500000000E-02 0.  1.
          2   -1    0    0  501    0  0.00000000000E+00 -0.00000000000E+00 -0.96576080737E+03  0.96576080737E+03  0.25500000000E-02 0. -1.
         25    2    1    2    0    0  0.31343285909E+01 -0.50015496675E+02 -0.47634152185E+03  0.49501277213E+03  0.12500010084E+03 0.  0.
         23    2    1    2    0    0 -0.31343285909E+01  0.50015496675E+02 -0.47435249682E+03  0.48581482416E+03  0.92164951094E+02 0.  0.
        -11    1    4    4    0    0 -0.46188560762E+02  0.30427535615E+02 -0.20447829139E+03  0.21182679178E+03  0.51100000000E-03 0.  1.
         11    1    4    4    0    0  0.43054232171E+02  0.19587961060E+02 -0.26987420543E+03  0.27398803237E+03  0.51100000000E-03 0. -1.
    9000005    1    3    3    0    0  0.62368711641E+02 -0.36982950258E+02 -0.29555214713E+03  0.30431836369E+03  0.10000000000E+01 0.  0.
    9000005    1    3    3    0    0 -0.59234383050E+02 -0.13032546417E+02 -0.18078937472E+03  0.19069440845E+03  0.10000000000E+01 0.  0.
<mgrwt>
<rscale>  0 0.12651998E+03</rscale>
<asrwt>0</asrwt>
<pdfrwt beam="2">  1        2 0.14857854E+00 0.13467145E+03</pdfrwt>
<pdfrwt beam="1">  1       -2 0.23179683E-02 0.13467145E+03</pdfrwt>
<totfact> 0.16376942E+04</totfact>
</mgrwt>
</event>
<event>
 8    2  0.8128359E-004  0.1490807E+03  0.7818608E-02  0.1212445E+00
          2   -1    0    0  501    0  0.00000000000E+00  0.00000000000E+00  0.63563475814E+03  0.63563475814E+03  0.25500000000E-02 0. -1.
         -2   -1    0    0    0  501 -0.00000000000E+00 -0.00000000000E+00 -0.28193411954E+02  0.28193412069E+02  0.25500000000E-02 0.  1.
         25    2    1    2    0    0  0.19337443354E+02  0.78905239037E+02  0.31835904142E+03  0.35153598460E+03  0.12500038301E+03 0.  0.
         23    2    1    2    0    0 -0.19337443354E+02 -0.78905239037E+02  0.28908230477E+03  0.31229218561E+03  0.85777950570E+02 0.  0.
        -11    1    4    4    0    0  0.78497343404E+00 -0.56225916273E+02  0.64069767005E+02  0.85246142953E+02  0.51100000000E-03 0.  1.
         11    1    4    4    0    0 -0.20122416788E+02 -0.22679322765E+02  0.22501253776E+03  0.22704604266E+03  0.51100000000E-03 0. -1.
    9000005    1    3    3    0    0  0.19736041627E+02  0.62155916976E+02  0.48806209102E+02  0.81461128160E+02  0.10000000000E+01 0.  0.
    9000005    1    3    3    0    0 -0.39859827337E+00  0.16749322061E+02  0.26955283232E+03  0.27007485644E+03  0.10000000000E+01 0.  0.
<mgrwt>
<rscale>  0 0.14065929E+03</rscale>
<asrwt>0</asrwt>
<pdfrwt beam="1">  1        2 0.97789963E-01 0.14908075E+03</pdfrwt>
<pdfrwt beam="2">  1       -2 0.43374480E-02 0.14908075E+03</pdfrwt>
<totfact> 0.11003896E+04</totfact>
</mgrwt>
</event>
<event>
 8    2  0.8128359E-004  0.1290016E+03  0.7818608E-02  0.1242663E+00
         -2   -1    0    0    0  501 -0.00000000000E+00  0.00000000000E+00  0.18257757047E+02  0.18257757225E+02  0.25500000000E-02 0.  1.
          2   -1    0    0  501    0  0.00000000000E+00 -0.00000000000E+00 -0.16245790521E+04  0.16245790521E+04  0.25500000000E-02 0. -1.
         25    2    1    2    0    0  0.29792775160E+02 -0.11316410945E+02 -0.14678996697E+04  0.14735572099E+04  0.12500296020E+03 0.  0.
         23    2    1    2    0    0 -0.29792775160E+02  0.11316410945E+02 -0.13842162543E+03  0.16927959946E+03  0.92083471909E+02 0.  0.
        -11    1    4    4    0    0 -0.48372178038E+02 -0.19759860341E+02 -0.11456887524E+03  0.12592198721E+03  0.51100000000E-03 0. -1.
         11    1    4    4    0    0  0.18579402878E+02  0.31076271286E+02 -0.23852750193E+02  0.43357612254E+02  0.51100000000E-03 0.  1.
    9000005    1    3    3    0    0  0.17270508274E+01 -0.39920867726E+02 -0.13112770888E+04  0.13118861468E+04  0.10000000000E+01 0.  0.
    9000005    1    3    3    0    0  0.28065724333E+02  0.28604456781E+02 -0.15662258084E+03  0.16167106315E+03  0.10000000000E+01 0.  0.
<mgrwt>
<rscale>  0 0.12026337E+03</rscale>
<asrwt>0</asrwt>
<pdfrwt beam="2">  1        2 0.24993513E+00 0.12900159E+03</pdfrwt>
<pdfrwt beam="1">  1       -2 0.28088870E-02 0.12900159E+03</pdfrwt>
<totfact> 0.53928394E+03</totfact>
</mgrwt>
</event>
<event>
 8    2  0.8128359E-004  0.1559793E+03  0.7818608E-02  0.1201244E+00
         -2   -1    0    0    0  501 -0.00000000000E+00  0.00000000000E+00  0.10338350411E+02  0.10338350725E+02  0.25500000000E-02 0.  1.
          2   -1    0    0  501    0  0.00000000000E+00 -0.00000000000E+00 -0.26532125469E+04  0.26532125469E+04  0.25500000000E-02 0. -1.
         25    2    1    2    0    0 -0.35891121137E+02  0.86119386246E+02 -0.74529918500E+03  0.76144627640E+03  0.12499934169E+03 0.  0.
         23    2    1    2    0    0  0.35891121137E+02 -0.86119386246E+02 -0.18975750115E+04  0.19021046212E+04  0.92229846496E+02 0.  0.
        -11    1    4    4    0    0  0.17463942324E+02 -0.65428317539E+01 -0.62757634033E+02  0.65469982118E+02  0.51100000000E-03 0.  1.
         11    1    4    4    0    0  0.18427178813E+02 -0.79576554492E+02 -0.18348173775E+04  0.18366346391E+04  0.51100000000E-03 0. -1.
    9000005    1    3    3    0    0 -0.42157943628E+02  0.76851702608E+02 -0.74507261970E+03  0.75021176013E+03  0.10000000000E+01 0.  0.
    9000005    1    3    3    0    0  0.62668224913E+01  0.92676836379E+01 -0.22656529936E+00  0.11234516277E+02  0.10000000000E+01 0.  0.
<mgrwt>
<rscale>  0 0.14937444E+03</rscale>
<asrwt>0</asrwt>
<pdfrwt beam="2">  1        2 0.40818600E+00 0.15597935E+03</pdfrwt>
<pdfrwt beam="1">  1       -2 0.15905176E-02 0.15597935E+03</pdfrwt>
<totfact> 0.35969985E+03</totfact>
</mgrwt>
</event>
<event>
 8    2  0.8128359E-004  0.1460571E+03  0.7818608E-02  0.1215337E+00
          2   -1    0    0  501    0  0.00000000000E+00  0.00000000000E+00  0.14340502561E+04  0.14340502561E+04  0.25500000000E-02 0. -1.
         -2   -1    0    0    0  501 -0.00000000000E+00 -0.00000000000E+00 -0.15465303016E+02  0.15465303226E+02  0.25500000000E-02 0.  1.
         25    2    1    2    0    0  0.23543572769E+02 -0.71785791848E+02  0.11013142510E+04  0.11109571390E+04  0.12500074232E+03 0.  0.
         23    2    1    2    0    0 -0.23543572769E+02  0.71785791848E+02  0.31727070212E+03  0.33855842033E+03  0.90849357862E+02 0.  0.
        -11    1    4    4    0    0 -0.10466118441E+02  0.86945624935E+02  0.29862065085E+03  0.31119668128E+03  0.51100000000E-03 0. -1.
         11    1    4    4    0    0 -0.13077454328E+02 -0.15159833087E+02  0.18650051277E+02  0.27361739050E+02  0.51100000000E-03 0.  1.
    9000005    1    3    3    0    0 -0.10184310507E+02 -0.26271379565E+02  0.93176976936E+03  0.93219622862E+03  0.10000000000E+01 0.  0.
    9000005    1    3    3    0    0  0.33727883276E+02 -0.45514412283E+02  0.16954448164E+03  0.17876091041E+03  0.10000000000E+01 0.  0.
<mgrwt>
<rscale>  0 0.13851827E+03</rscale>
<asrwt>0</asrwt>
<pdfrwt beam="1">  1        2 0.22062312E+00 0.14605713E+03</pdfrwt>
<pdfrwt beam="2">  1       -2 0.23792774E-02 0.14605713E+03</pdfrwt>
<totfact> 0.86697008E+03</totfact>
</mgrwt>
</event>
<event>
 8    2  0.8128359E-004  0.1315828E+03  0.7818608E-02  0.1238452E+00
         -2   -1    0    0    0  501 -0.00000000000E+00  0.00000000000E+00  0.82832185109E+01  0.82832189034E+01  0.25500000000E-02 0.  1.
          2   -1    0    0  501    0  0.00000000000E+00 -0.00000000000E+00 -0.18090880911E+04  0.18090880911E+04  0.25500000000E-02 0. -1.
         25    2    1    2    0    0 -0.17576897183E+02 -0.37140567708E+02 -0.13024868149E+04  0.13091164685E+04  0.12500262435E+03 0.  0.
         23    2    1    2    0    0  0.17576897183E+02  0.37140567708E+02 -0.49831805767E+03  0.50825484146E+03  0.91179647853E+02 0.  0.
        -11    1    4    4    0    0  0.48841407497E+02  0.46007392505E+02 -0.31331002173E+03  0.32041431455E+03  0.51100000000E-03 0. -1.
         11    1    4    4    0    0 -0.31264510314E+02 -0.88668247974E+01 -0.18500803594E+03  0.18784052691E+03  0.51100000000E-03 0.  1.
    9000005    1    3    3    0    0  0.28338165208E+02  0.29463776355E+02 -0.23195222554E+03  0.23552919280E+03  0.10000000000E+01 0.  0.
    9000005    1    3    3    0    0 -0.45915062392E+02 -0.66604344063E+02 -0.10705345893E+04  0.10735872757E+04  0.10000000000E+01 0.  0.
<mgrwt>
<rscale>  0 0.12286004E+03</rscale>
<asrwt>0</asrwt>
<pdfrwt beam="2">  1        2 0.27832093E+00 0.13158277E+03</pdfrwt>
<pdfrwt beam="1">  1       -2 0.12743428E-02 0.13158277E+03</pdfrwt>
<totfact> 0.13649265E+04</totfact>
</mgrwt>
</event>
<event>
 8    2  0.8128359E-004  0.1438650E+03  0.7818608E-02  0.1219603E+00
         -2   -1    0    0    0  501 -0.00000000000E+00  0.00000000000E+00  0.10305957847E+03  0.10305957850E+03  0.25500000000E-02 0.  1.
          2   -1    0    0  501    0  0.00000000000E+00 -0.00000000000E+00 -0.16222637761E+03  0.16222637763E+03  0.25500000000E-02 0. -1.
         25    2    1    2    0    0 -0.58591471419E+02 -0.40477118792E+02 -0.48317899831E+02  0.15176220376E+03  0.12500315747E+03 0.  0.
         23    2    1    2    0    0  0.58591471419E+02  0.40477118792E+02 -0.10848899307E+02  0.11352375237E+03  0.87741586880E+02 0.  0.
        -11    1    4    4    0    0  0.43993281589E+02  0.36954630444E+02  0.33633218359E+02  0.66575122333E+02  0.51100000000E-03 0.  1.
         11    1    4    4    0    0  0.14598189829E+02  0.35224883478E+01 -0.44482117665E+02  0.46948630041E+02  0.51100000000E-03 0. -1.
    9000005    1    3    3    0    0 -0.25249164149E+01 -0.75843077720E+02 -0.37277953802E+02  0.84552903443E+02  0.10000000000E+01 0.  0.
    9000005    1    3    3    0    0 -0.56066555004E+02  0.35365958928E+02 -0.11039946029E+02  0.67209300318E+02  0.10000000000E+01 0.  0.
<mgrwt>
<rscale>  0 0.13543785E+03</rscale>
<asrwt>0</asrwt>
<pdfrwt beam="2">  1        2 0.24957904E-01 0.14386503E+03</pdfrwt>
<pdfrwt beam="1">  1       -2 0.15855320E-01 0.14386503E+03</pdfrwt>
<totfact> 0.64151042E+03</totfact>
</mgrwt>
</event>
<event>
 8    2  0.8128359E-004  0.1418713E+03  0.7818608E-02  0.1220831E+00
          2   -1    0    0  501    0  0.00000000000E+00  0.00000000000E+00  0.12251302231E+03  0.12251302233E+03  0.25500000000E-02 0. -1.
         -2   -1    0    0    0  501 -0.00000000000E+00 -0.00000000000E+00 -0.17846242366E+03  0.17846242368E+03  0.25500000000E-02 0.  1.
         25    2    1    2    0    0 -0.26224563327E+02 -0.61763298552E+02 -0.10459424120E+03  0.17625956650E+03  0.12500018688E+03 0.  0.
         23    2    1    2    0    0  0.26224563327E+02  0.61763298552E+02  0.48644839844E+02  0.12471587951E+03  0.93194942935E+02 0.  0.
        -11    1    4    4    0    0  0.58872600465E+02  0.53851474763E+02  0.43049888728E+02  0.90660119896E+02  0.51100000000E-03 0. -1.
         11    1    4    4    0    0 -0.32648037138E+02  0.79118237889E+01  0.55949511155E+01  0.34055759614E+02  0.51100000000E-03 0.  1.
    9000005    1    3    3    0    0 -0.17011706295E+02  0.25091593115E+02  0.10210378231E+02  0.32003718842E+02  0.10000000000E+01 0.  0.
    9000005    1    3    3    0    0 -0.92128570322E+01 -0.86854891667E+02 -0.11480461943E+03  0.14425584766E+03  0.10000000000E+01 0.  0.
<mgrwt>
<rscale>  0 0.13456815E+03</rscale>
<asrwt>0</asrwt>
<pdfrwt beam="1">  1        2 0.18848157E-01 0.14187135E+03</pdfrwt>
<pdfrwt beam="2">  1       -2 0.27455757E-01 0.14187135E+03</pdfrwt>
<totfact> 0.34429139E+03</totfact>
</mgrwt>
</event>
<event>
 8    2  0.8128359E-004  0.1601229E+03  0.7818608E-02  0.1195906E+00
          2   -1    0    0  501    0  0.00000000000E+00  0.00000000000E+00  0.97260170797E+03  0.97260170797E+03  0.25500000000E-02 0. -1.
         -2   -1    0    0    0  501 -0.00000000000E+00 -0.00000000000E+00 -0.29003984607E+02  0.29003984719E+02  0.25500000000E-02 0.  1.
         25    2    1    2    0    0  0.99860325831E+02 -0.65566156200E+01  0.73665805232E+03  0.75385968585E+03  0.12499706399E+03 0.  0.
         23    2    1    2    0    0 -0.99860325831E+02  0.65566156200E+01  0.20693967104E+03  0.24774600684E+03  0.92406615430E+02 0.  0.
        -11    1    4    4    0    0 -0.26333310376E+02  0.44682799272E+02  0.98210691272E+02  0.11106455630E+03  0.51100000000E-03 0. -1.
         11    1    4    4    0    0 -0.73527015455E+02 -0.38126183652E+02  0.10872897976E+03  0.13668145054E+03  0.51100000000E-03 0.  1.
    9000005    1    3    3    0    0  0.12989463321E+03 -0.53675965754E+01  0.59164469359E+03  0.60576057175E+03  0.10000000000E+01 0.  0.
    9000005    1    3    3    0    0 -0.30034307374E+02 -0.11890190445E+01  0.14501335873E+03  0.14809911410E+03  0.10000000000E+01 0.  0.
<mgrwt>
<rscale>  0 0.15377825E+03</rscale>
<asrwt>0</asrwt>
<pdfrwt beam="1">  1        2 0.14963103E+00 0.16012289E+03</pdfrwt>
<pdfrwt beam="2">  1       -2 0.44621517E-02 0.16012289E+03</pdfrwt>
<totfact> 0.62238832E+03</totfact>
</mgrwt>
</event>
<event>
 8    2  0.8128359E-004  0.1323499E+03  0.7818608E-02  0.1236049E+00
         -2   -1    0    0    0  501 -0.00000000000E+00  0.00000000000E+00  0.17782796199E+02  0.17782796382E+02  0.25500000000E-02 0.  1.
          2   -1    0    0  501    0  0.00000000000E+00 -0.00000000000E+00 -0.86138004356E+03  0.86138004357E+03  0.25500000000E-02 0. -1.
         25    2    1    2    0    0 -0.36415148939E+02  0.23751582094E+02 -0.60308365849E+03  0.61743532856E+03  0.12500514024E+03 0.  0.
         23    2    1    2    0    0  0.36415148939E+02 -0.23751582094E+02 -0.24051358887E+03  0.26172751139E+03  0.93617856540E+02 0.  0.
        -11    1    4    4    0    0 -0.53473439326E+01 -0.25664367239E+02 -0.10987194231E+02  0.28424853039E+02  0.51100000000E-03 0.  1.
         11    1    4    4    0    0  0.41762492871E+02  0.19127851447E+01 -0.22952639464E+03  0.23330265835E+03  0.51100000000E-03 0. -1.
    9000005    1    3    3    0    0 -0.81290849261E+02 -0.25599712573E+00 -0.38495123740E+03  0.39344214681E+03  0.10000000000E+01 0.  0.
    9000005    1    3    3    0    0  0.44875700322E+02  0.24007579220E+02 -0.21813242109E+03  0.22399318175E+03  0.10000000000E+01 0.  0.
<mgrwt>
<rscale>  0 0.12437534E+03</rscale>
<asrwt>0</asrwt>
<pdfrwt beam="2">  1        2 0.13251997E+00 0.13234986E+03</pdfrwt>
<pdfrwt beam="1">  1       -2 0.27358155E-02 0.13234986E+03</pdfrwt>
<totfact> 0.14923119E+04</totfact>
</mgrwt>
</event>
<event>
 8    2  0.8128359E-004  0.1483740E+03  0.7818608E-02  0.1211763E+00
          2   -1    0    0  501    0  0.00000000000E+00  0.00000000000E+00  0.10888250349E+03  0.10888250352E+03  0.25500000000E-02 0. -1.
         -2   -1    0    0    0  501 -0.00000000000E+00 -0.00000000000E+00 -0.16899376127E+03  0.16899376128E+03  0.25500000000E-02 0.  1.
         25    2    1    2    0    0 -0.72129947780E+02 -0.34448496271E+02 -0.46687275090E+02  0.15554594609E+03  0.12500164570E+03 0.  0.
         23    2    1    2    0    0  0.72129947780E+02  0.34448496271E+02 -0.13423982690E+02  0.12233031871E+03  0.91624643533E+02 0.  0.
        -11    1    4    4    0    0  0.45809130709E+02  0.64148902566E+02 -0.21770248106E+02  0.81777147539E+02  0.51100000000E-03 0. -1.
         11    1    4    4    0    0  0.26320817071E+02 -0.29700406296E+02  0.83462654159E+01  0.40553171172E+02  0.51100000000E-03 0.  1.
    9000005    1    3    3    0    0 -0.98036373709E+02 -0.39389238506E+02 -0.64421502482E+02  0.12374882893E+03  0.10000000000E+01 0.  0.
    9000005    1    3    3    0    0  0.25906425929E+02  0.49407422356E+01  0.17734227392E+02  0.31797117156E+02  0.10000000000E+01 0.  0.
<mgrwt>
<rscale>  0 0.14117057E+03</rscale>
<asrwt>0</asrwt>
<pdfrwt beam="1">  1        2 0.16751154E-01 0.14837399E+03</pdfrwt>
<pdfrwt beam="2">  1       -2 0.25999040E-01 0.14837399E+03</pdfrwt>
<totfact> 0.43527056E+03</totfact>
</mgrwt>
</event>
<event>
 8    2  0.8128359E-004  0.1933685E+03  0.7818608E-02  0.1160284E+00
          2   -1    0    0  501    0  0.00000000000E+00  0.00000000000E+00  0.51964463416E+02  0.51964463478E+02  0.25500000000E-02 0. -1.
         -2   -1    0    0    0  501 -0.00000000000E+00 -0.00000000000E+00 -0.67878320923E+03  0.67878320923E+03  0.25500000000E-02 0.  1.
         25    2    1    2    0    0 -0.14746436596E+03 -0.43982505773E+01 -0.41172316644E+03  0.45487070720E+03  0.12500524249E+03 0.  0.
         23    2    1    2    0    0  0.14746436596E+03  0.43982505773E+01 -0.21509557938E+03  0.27587696552E+03  0.89871619537E+02 0.  0.
        -11    1    4    4    0    0  0.10464444950E+03  0.12189292143E+02 -0.75387587157E+02  0.12954662463E+03  0.51100000000E-03 0. -1.
         11    1    4    4    0    0  0.42819916458E+02 -0.77910415654E+01 -0.13970799222E+03  0.14633034089E+03  0.51100000000E-03 0.  1.
    9000005    1    3    3    0    0 -0.11012837837E+03  0.52606465477E+02 -0.22294404631E+03  0.25416677147E+03  0.10000000000E+01 0.  0.
    9000005    1    3    3    0    0 -0.37335987585E+02 -0.57004716055E+02 -0.18877912013E+03  0.20070393573E+03  0.10000000000E+01 0.  0.
<mgrwt>
<rscale>  0 0.18799351E+03</rscale>
<asrwt>0</asrwt>
<pdfrwt beam="1">  1        2 0.79945333E-02 0.19336855E+03</pdfrwt>
<pdfrwt beam="2">  1       -2 0.10442818E+00 0.19336855E+03</pdfrwt>
<totfact> 0.65337282E+02</totfact>
</mgrwt>
</event>
<event>
 8    2  0.8128359E-004  0.1425677E+03  0.7818608E-02  0.1220587E+00
         -2   -1    0    0    0  501 -0.00000000000E+00  0.00000000000E+00  0.63296744079E+03  0.63296744080E+03  0.25500000000E-02 0.  1.
          2   -1    0    0  501    0  0.00000000000E+00 -0.00000000000E+00 -0.26434851501E+02  0.26434851624E+02  0.25500000000E-02 0. -1.
         25    2    1    2    0    0 -0.67948764112E+02  0.90779821886E+01  0.29224396789E+03  0.32516470405E+03  0.12500441468E+03 0.  0.
         23    2    1    2    0    0  0.67948764112E+02 -0.90779821886E+01  0.31428862140E+03  0.33423758837E+03  0.90763338582E+02 0.  0.
        -11    1    4    4    0    0  0.12410664441E+02  0.11488974143E+02  0.23326196935E+03  0.23387425567E+03  0.51100000000E-03 0.  1.
         11    1    4    4    0    0  0.55538099671E+02 -0.20566956331E+02  0.81026652053E+02  0.10036333270E+03  0.51100000000E-03 0. -1.
    9000005    1    3    3    0    0  0.10833046290E+02  0.13792954449E+02 -0.44744065826E+01  0.18127901109E+02  0.10000000000E+01 0.  0.
    9000005    1    3    3    0    0 -0.78781810402E+02 -0.47149722600E+01  0.29671837447E+03  0.30703680294E+03  0.10000000000E+01 0.  0.
<mgrwt>
<rscale>  0 0.13474009E+03</rscale>
<asrwt>0</asrwt>
<pdfrwt beam="2">  1        2 0.40669001E-02 0.14256770E+03</pdfrwt>
<pdfrwt beam="1">  1       -2 0.97379609E-01 0.14256770E+03</pdfrwt>
<totfact> 0.18233541E+03</totfact>
</mgrwt>
</event>
<event>
 8    2  0.8128359E-004  0.1656169E+03  0.7818608E-02  0.1189427E+00
          2   -1    0    0  501    0  0.00000000000E+00  0.00000000000E+00  0.81261534908E+02  0.81261534948E+02  0.25500000000E-02 0. -1.
         -2   -1    0    0    0  501 -0.00000000000E+00 -0.00000000000E+00 -0.29453809939E+03  0.29453809941E+03  0.25500000000E-02 0.  1.
         25    2    1    2    0    0  0.47370030176E+02  0.97774587469E+02 -0.94313933742E+02  0.19058877519E+03  0.12500069366E+03 0.  0.
         23    2    1    2    0    0 -0.47370030176E+02 -0.97774587469E+02 -0.11896263074E+03  0.18521085917E+03  0.91362821354E+02 0.  0.
        -11    1    4    4    0    0 -0.33673754685E+02 -0.11478554244E+03 -0.10589513839E+03  0.15976051716E+03  0.51100000000E-03 0.  1.
         11    1    4    4    0    0 -0.13696275490E+02  0.17010954975E+02 -0.13067492352E+02  0.25450342003E+02  0.51100000000E-03 0. -1.
    9000005    1    3    3    0    0  0.19197040952E+02  0.91138889822E+01 -0.95201896089E+02  0.97549937840E+02  0.10000000000E+01 0.  0.
    9000005    1    3    3    0    0  0.28172989224E+02  0.88660698487E+02  0.88796234691E+00  0.93038837348E+02  0.10000000000E+01 0.  0.
<mgrwt>
<rscale>  0 0.15935492E+03</rscale>
<asrwt>0</asrwt>
<pdfrwt beam="1">  1        2 0.12501775E-01 0.16561692E+03</pdfrwt>
<pdfrwt beam="2">  1       -2 0.45313553E-01 0.16561692E+03</pdfrwt>
<totfact> 0.22154369E+03</totfact>
</mgrwt>
</event>
<event>
 8    2  0.8128359E-004  0.1662915E+03  0.7818608E-02  0.1188811E+00
         -2   -1    0    0    0  501 -0.00000000000E+00  0.00000000000E+00  0.45859692862E+02  0.45859692933E+02  0.25500000000E-02 0.  1.
          2   -1    0    0  501    0  0.00000000000E+00 -0.00000000000E+00 -0.51870732073E+03  0.51870732074E+03  0.25500000000E-02 0. -1.
         25    2    1    2    0    0 -0.10813474001E+03 -0.18366062110E+02 -0.25207654533E+03  0.30198582963E+03  0.12498968900E+03 0.  0.
         23    2    1    2    0    0  0.10813474001E+03  0.18366062110E+02 -0.22077108254E+03  0.26258118404E+03  0.90435463678E+02 0.  0.
        -11    1    4    4    0    0  0.32888642572E+02  0.12315876184E+02 -0.16507532546E+03  0.16876968535E+03  0.51100000000E-03 0. -1.
         11    1    4    4    0    0  0.75246097442E+02  0.60501859266E+01 -0.55695757080E+02  0.93811498693E+02  0.51100000000E-03 0.  1.
    9000005    1    3    3    0    0 -0.10671074444E+03 -0.61366136342E+02 -0.19237374029E+03  0.22838923272E+03  0.10000000000E+01 0.  0.
    9000005    1    3    3    0    0 -0.14239955689E+01  0.43000074231E+02 -0.59702805041E+02  0.73596596912E+02  0.10000000000E+01 0.  0.
<mgrwt>
<rscale>  0 0.15989895E+03</rscale>
<asrwt>0</asrwt>
<pdfrwt beam="2">  1        2 0.79801122E-01 0.16629148E+03</pdfrwt>
<pdfrwt beam="1">  1       -2 0.70553377E-02 0.16629148E+03</pdfrwt>
<totfact> 0.66721670E+03</totfact>
</mgrwt>
</event>
<event>
 8    2  0.8128359E-004  0.1357552E+03  0.7818608E-02  0.1231411E+00
         -2   -1    0    0    0  501 -0.00000000000E+00  0.00000000000E+00  0.55928790962E+03  0.55928790963E+03  0.25500000000E-02 0. -1.
          2   -1    0    0  501    0  0.00000000000E+00 -0.00000000000E+00 -0.28067210534E+02  0.28067210649E+02  0.25500000000E-02 0.  1.
         25    2    1    2    0    0  0.41563337336E+02  0.32819423961E+02  0.21672915417E+03  0.25573621640E+03  0.12499944204E+03 0.  0.
         23    2    1    2    0    0 -0.41563337336E+02 -0.32819423961E+02  0.31449154492E+03  0.33161890388E+03  0.90893013951E+02 0.  0.
        -11    1    4    4    0    0 -0.13960495554E+02  0.17013231699E+02  0.22132334418E+03  0.22241485600E+03  0.51100000000E-03 0. -1.
         11    1    4    4    0    0 -0.27602841782E+02 -0.49832655660E+02  0.93168200735E+02  0.10920404788E+03  0.51100000000E-03 0.  1.
    9000005    1    3    3    0    0  0.66992757963E+02  0.34747590192E+02  0.58579591604E+02  0.95540531693E+02  0.10000000000E+01 0.  0.
    9000005    1    3    3    0    0 -0.25429420627E+02 -0.19281662301E+01  0.15814956257E+03  0.16019568471E+03  0.10000000000E+01 0.  0.
<mgrwt>
<rscale>  0 0.12736999E+03</rscale>
<asrwt>0</asrwt>
<pdfrwt beam="2">  1        2 0.43180326E-02 0.13575524E+03</pdfrwt>
<pdfrwt beam="1">  1       -2 0.86044291E-01 0.13575524E+03</pdfrwt>
<totfact> 0.22197829E+03</totfact>
</mgrwt>
</event>
<event>
 8    2  0.8128359E-004  0.1291399E+03  0.7818608E-02  0.1239729E+00
          2   -1    0    0  501    0  0.00000000000E+00  0.00000000000E+00  0.19347858403E+03  0.19347858405E+03  0.25500000000E-02 0. -1.
         -2   -1    0    0    0  501 -0.00000000000E+00 -0.00000000000E+00 -0.76147619056E+02  0.76147619098E+02  0.25500000000E-02 0.  1.
         25    2    1    2    0    0 -0.39280232802E+01  0.32189451902E+02  0.25627973757E+02  0.13165830123E+03  0.12500210023E+03 0.  0.
         23    2    1    2    0    0  0.39280232802E+01 -0.32189451902E+02  0.91702991220E+02  0.13796790192E+03  0.97847397418E+02 0.  0.
        -11    1    4    4    0    0 -0.45941697123E+02 -0.63851557998E+01  0.48598733903E+02  0.67180701741E+02  0.51100000000E-03 0. -1.
         11    1    4    4    0    0  0.49869720403E+02 -0.25804296102E+02  0.43104257317E+02  0.70787200182E+02  0.51100000000E-03 0.  1.
    9000005    1    3    3    0    0  0.19790007187E+02 -0.38725329279E+02 -0.15661842108E+02  0.46234065476E+02  0.10000000000E+01 0.  0.
    9000005    1    3    3    0    0 -0.23718030468E+02  0.70914781181E+02  0.41289815865E+02  0.85424235749E+02  0.10000000000E+01 0.  0.
<mgrwt>
<rscale>  0 0.12206469E+03</rscale>
<asrwt>0</asrwt>
<pdfrwt beam="1">  1        2 0.29765936E-01 0.12913991E+03</pdfrwt>
<pdfrwt beam="2">  1       -2 0.11715018E-01 0.12913991E+03</pdfrwt>
<totfact> 0.85677205E+03</totfact>
</mgrwt>
</event>
<event>
 8    2  0.8128359E-004  0.1306417E+03  0.7818608E-02  0.1240212E+00
          2   -1    0    0  501    0  0.00000000000E+00  0.00000000000E+00  0.17376540959E+04  0.17376540959E+04  0.25500000000E-02 0. -1.
         -2   -1    0    0    0  501 -0.00000000000E+00 -0.00000000000E+00 -0.90476153588E+01  0.90476157181E+01  0.25500000000E-02 0.  1.
         25    2    1    2    0    0  0.37927647439E+02 -0.20159440938E+01  0.13164392607E+04  0.13229057355E+04  0.12499874999E+03 0.  0.
         23    2    1    2    0    0 -0.37927647439E+02  0.20159440938E+01  0.41216721987E+03  0.42379597613E+03  0.90987041786E+02 0.  0.
        -11    1    4    4    0    0  0.19451674364E+02  0.25314323887E+02  0.20823435413E+03  0.21066734173E+03  0.51100000000E-03 0. -1.
         11    1    4    4    0    0 -0.57379321803E+02 -0.23298379793E+02  0.20393286574E+03  0.21312863440E+03  0.51100000000E-03 0.  1.
    9000005    1    3    3    0    0  0.27249770397E+02 -0.99551273482E+01  0.62681268203E+02  0.69076739434E+02  0.10000000000E+01 0.  0.
    9000005    1    3    3    0    0  0.10677877042E+02  0.79391832544E+01  0.12537579924E+04  0.12538289960E+04  0.10000000000E+01 0.  0.
<mgrwt>
<rscale>  0 0.12176612E+03</rscale>
<asrwt>0</asrwt>
<pdfrwt beam="1">  1        2 0.26733127E+00 0.13064172E+03</pdfrwt>
<pdfrwt beam="2">  1       -2 0.13919415E-02 0.13064172E+03</pdfrwt>
<totfact> 0.13071816E+04</totfact>
</mgrwt>
</event>
<event>
 8    2  0.8128359E-004  0.1281733E+03  0.7818608E-02  0.1244730E+00
          2   -1    0    0  501    0  0.00000000000E+00  0.00000000000E+00  0.88953988706E+03  0.88953988706E+03  0.25500000000E-02 0. -1.
         -2   -1    0    0    0  501 -0.00000000000E+00 -0.00000000000E+00 -0.16813441797E+02  0.16813441990E+02  0.25500000000E-02 0.  1.
         25    2    1    2    0    0 -0.20210412403E+02  0.19907990013E+02  0.30737248817E+03  0.33302588370E+03  0.12499441546E+03 0.  0.
         23    2    1    2    0    0  0.20210412403E+02 -0.19907990013E+02  0.56535395709E+03  0.57332744535E+03  0.90964135554E+02 0.  0.
        -11    1    4    4    0    0  0.84686754493E+01 -0.55086229785E+02  0.27302684870E+03  0.27865726491E+03  0.51100000000E-03 0.  1.
         11    1    4    4    0    0  0.11741736954E+02  0.35178239771E+02  0.29232710839E+03  0.29467018044E+03  0.51100000000E-03 0. -1.
    9000005    1    3    3    0    0 -0.17819368780E+02  0.46933726147E+01  0.31518681176E+03  0.31572659685E+03  0.10000000000E+01 0.  0.
    9000005    1    3    3    0    0 -0.23910436229E+01  0.15214617399E+02 -0.78143235948E+01  0.17299286848E+02  0.10000000000E+01 0.  0.
<mgrwt>
<rscale>  0 0.11901576E+03</rscale>
<asrwt>0</asrwt>
<pdfrwt beam="1">  1        2 0.13685233E+00 0.12817329E+03</pdfrwt>
<pdfrwt beam="2">  1       -2 0.25866827E-02 0.12817329E+03</pdfrwt>
<totfact> 0.15504851E+04</totfact>
</mgrwt>
</event>
<event>
 8    2  0.8128359E-004  0.1575072E+03  0.7818608E-02  0.1199365E+00
          2   -1    0    0  501    0  0.00000000000E+00  0.00000000000E+00  0.21302713655E+03  0.21302713657E+03  0.25500000000E-02 0. -1.
         -2   -1    0    0    0  501 -0.00000000000E+00 -0.00000000000E+00 -0.12636734932E+03  0.12636734935E+03  0.25500000000E-02 0.  1.
         25    2    1    2    0    0  0.48288237073E+01  0.95717251008E+02  0.12519126082E+03  0.20119981359E+03  0.12499361393E+03 0.  0.
         23    2    1    2    0    0 -0.48288237073E+01 -0.95717251008E+02 -0.38531473593E+02  0.13819467233E+03  0.91804048511E+02 0.  0.
        -11    1    4    4    0    0 -0.10137231088E+02 -0.34080007059E+02 -0.62453296532E+02  0.71865322536E+02  0.51100000000E-03 0.  1.
         11    1    4    4    0    0  0.53084073808E+01 -0.61637243949E+02  0.23921822939E+02  0.66329349790E+02  0.51100000000E-03 0. -1.
    9000005    1    3    3    0    0 -0.92148757878E+01  0.80077892490E+02  0.14900955849E+03  0.16941732888E+03  0.10000000000E+01 0.  0.
    9000005    1    3    3    0    0  0.14043699495E+02  0.15639358518E+02 -0.23818297673E+02  0.31782484711E+02  0.10000000000E+01 0.  0.
<mgrwt>
<rscale>  0 0.15090538E+03</rscale>
<asrwt>0</asrwt>
<pdfrwt beam="1">  1        2 0.32773406E-01 0.15750718E+03</pdfrwt>
<pdfrwt beam="2">  1       -2 0.19441131E-01 0.15750718E+03</pdfrwt>
<totfact> 0.34089311E+03</totfact>
</mgrwt>
</event>
<event>
 8    2  0.8128359E-004  0.1302749E+03  0.7818608E-02  0.1237030E+00
         -2   -1    0    0    0  501 -0.00000000000E+00  0.00000000000E+00  0.54857389053E+02  0.54857389112E+02  0.25500000000E-02 0.  1.
          2   -1    0    0  501    0  0.00000000000E+00 -0.00000000000E+00 -0.47377165336E+03  0.47377165336E+03  0.25500000000E-02 0. -1.
         25    2    1    2    0    0  0.31245585097E+02 -0.19240247141E+02 -0.41706894921E+02  0.13678820847E+03  0.12500030078E+03 0.  0.
         23    2    1    2    0    0 -0.31245585097E+02  0.19240247141E+02 -0.37720736938E+03  0.39184083401E+03  0.99535752270E+02 0.  0.
        -11    1    4    4    0    0  0.15990951710E+02 -0.19499566653E+02 -0.24392181952E+03  0.24522193555E+03  0.51100000000E-03 0. -1.
         11    1    4    4    0    0 -0.47236536807E+02  0.38739813794E+02 -0.13328554986E+03  0.14661889846E+03  0.51100000000E-03 0.  1.
    9000005    1    3    3    0    0 -0.38589449368E+02 -0.27797251915E+02 -0.46158585612E+02  0.66283088659E+02  0.10000000000E+01 0.  0.
    9000005    1    3    3    0    0  0.69835034465E+02  0.85570047740E+01  0.44516906915E+01  0.70505119810E+02  0.10000000000E+01 0.  0.
<mgrwt>
<rscale>  0 0.12375369E+03</rscale>
<asrwt>0</asrwt>
<pdfrwt beam="2">  1        2 0.72887944E-01 0.13027490E+03</pdfrwt>
<pdfrwt beam="1">  1       -2 0.84395986E-02 0.13027490E+03</pdfrwt>
<totfact> 0.55167602E+03</totfact>
</mgrwt>
</event>
<event>
 8    2  0.8128359E-004  0.1269416E+03  0.7818608E-02  0.1246777E+00
         -2   -1    0    0    0  501 -0.00000000000E+00  0.00000000000E+00  0.12249446657E+02  0.12249446922E+02  0.25500000000E-02 0.  1.
          2   -1    0    0  501    0  0.00000000000E+00 -0.00000000000E+00 -0.12954407705E+04  0.12954407705E+04  0.25500000000E-02 0. -1.
         25    2    1    2    0    0  0.81792381927E+01 -0.20552903559E+02 -0.10258513467E+04  0.10336755576E+04  0.12499940461E+03 0.  0.
         23    2    1    2    0    0 -0.81792381927E+01  0.20552903559E+02 -0.25733997714E+03  0.27401465978E+03  0.91492339342E+02 0.  0.
        -11    1    4    4    0    0 -0.34968749777E+02 -0.15160020446E+02 -0.55700619894E+02  0.67492212423E+02  0.51100000000E-03 0.  1.
         11    1    4    4    0    0  0.26789511584E+02  0.35712924005E+02 -0.20163935724E+03  0.20652244735E+03  0.51100000000E-03 0. -1.
    9000005    1    3    3    0    0  0.47660473945E+02  0.17646401371E+02 -0.21348969810E+03  0.21945789449E+03  0.10000000000E+01 0.  0.
    9000005    1    3    3    0    0 -0.39481235752E+02 -0.38199304930E+02 -0.81236164858E+03  0.81421766313E+03  0.10000000000E+01 0.  0.
<mgrwt>
<rscale>  0 0.11779674E+03</rscale>
<asrwt>0</asrwt>
<pdfrwt beam="2">  1        2 0.19929847E+00 0.12694161E+03</pdfrwt>
<pdfrwt beam="1">  1       -2 0.18845313E-02 0.12694161E+03</pdfrwt>
<totfact> 0.14323223E+04</totfact>
</mgrwt>
</event>
<event>
 8    2  0.8128359E-004  0.3262856E+03  0.7818608E-02  0.1074038E+00
          2   -1    0    0  501    0  0.00000000000E+00  0.00000000000E+00  0.18370520274E+04  0.18370520274E+04  0.25500000000E-02 0. -1.
         -2   -1    0    0    0  501 -0.00000000000E+00 -0.00000000000E+00 -0.82778077983E+02  0.82778078023E+02  0.25500000000E-02 0.  1.
         25    2    1    2    0    0 -0.24094231601E+03 -0.18106594210E+03  0.14327946750E+04  0.14694770665E+04  0.12499677272E+03 0.  0.
         23    2    1    2    0    0  0.24094231601E+03  0.18106594210E+03  0.32147927444E+03  0.45035303896E+03  0.92902426099E+02 0.  0.
        -11    1    4    4    0    0  0.16504915246E+03  0.17149182527E+03  0.22840645540E+03  0.32987903500E+03  0.51100000000E-03 0.  1.
         11    1    4    4    0    0  0.75893163547E+02  0.95741168259E+01  0.93072819034E+02  0.12047400396E+03  0.51100000000E-03 0. -1.
    9000005    1    3    3    0    0 -0.11905183747E+03 -0.11564769118E+03  0.10370801589E+04  0.10502780511E+04  0.10000000000E+01 0.  0.
    9000005    1    3    3    0    0 -0.12189047853E+03 -0.65418250922E+02  0.39571451607E+03  0.41919901544E+03  0.10000000000E+01 0.  0.
<mgrwt>
<rscale>  0 0.32352610E+03</rscale>
<asrwt>0</asrwt>
<pdfrwt beam="1">  1        2 0.28262337E+00 0.32628556E+03</pdfrwt>
<pdfrwt beam="2">  1       -2 0.12735090E-01 0.32628556E+03</pdfrwt>
<totfact> 0.40366179E+02</totfact>
</mgrwt>
</event>
<event>
 8    2  0.8128359E-004  0.2002062E+03  0.7818608E-02  0.1153724E+00
          2   -1    0    0  501    0  0.00000000000E+00  0.00000000000E+00  0.10784272884E+04  0.10784272884E+04  0.25500000000E-02 0.  1.
         -2   -1    0    0    0  501 -0.00000000000E+00 -0.00000000000E+00 -0.42103228218E+02  0.42103228296E+02  0.25500000000E-02 0. -1.
         25    2    1    2    0    0 -0.15603323760E+03 -0.10555856712E+02  0.28956278800E+03  0.35203571864E+03  0.12499896663E+03 0.  0.
         23    2    1    2    0    0  0.15603323760E+03  0.10555856712E+02  0.74676127218E+03  0.76849479806E+03  0.92054655844E+02 0.  0.
        -11    1    4    4    0    0  0.41188495569E+02 -0.38597569331E+02  0.22059206462E+03  0.22769963438E+03  0.51100000000E-03 0. -1.
         11    1    4    4    0    0  0.11484474203E+03  0.49153426043E+02  0.52616920756E+03  0.54079516367E+03  0.51100000000E-03 0.  1.
    9000005    1    3    3    0    0 -0.17628320370E+03 -0.20175437036E+02  0.26306389030E+03  0.31731124554E+03  0.10000000000E+01 0.  0.
    9000005    1    3    3    0    0  0.20249966102E+02  0.96195803239E+01  0.26498897702E+02  0.34724473101E+02  0.10000000000E+01 0.  0.
<mgrwt>
<rscale>  0 0.19534857E+03</rscale>
<asrwt>0</asrwt>
<pdfrwt beam="1">  1        2 0.16591188E+00 0.20020624E+03</pdfrwt>
<pdfrwt beam="2">  1       -2 0.64774201E-02 0.20020624E+03</pdfrwt>
<totfact> 0.30753929E+03</totfact>
</mgrwt>
</event>
<event>
 8    2  0.8128359E-004  0.1797259E+03  0.7818608E-02  0.1173603E+00
          2   -1    0    0  501    0  0.00000000000E+00  0.00000000000E+00  0.25455285058E+04  0.25455285058E+04  0.25500000000E-02 0. -1.
         -2   -1    0    0    0  501 -0.00000000000E+00 -0.00000000000E+00 -0.11245611430E+02  0.11245611719E+02  0.25500000000E-02 0.  1.
         25    2    1    2    0    0 -0.68332455316E+02 -0.10957890941E+03  0.13981830506E+04  0.14096869248E+04  0.12499808469E+03 0.  0.
         23    2    1    2    0    0  0.68332455316E+02  0.10957890941E+03  0.11360998438E+04  0.11470871927E+04  0.91702294472E+02 0.  0.
        -11    1    4    4    0    0 -0.15336932527E+02  0.50880655164E+02  0.50175968496E+03  0.50456599570E+03  0.51100000000E-03 0. -1.
         11    1    4    4    0    0  0.83669387843E+02  0.58698254247E+02  0.63434015884E+03  0.64252119703E+03  0.51100000000E-03 0.  1.
    9000005    1    3    3    0    0  0.22060076356E+02 -0.38695596009E+02  0.75589639919E+03  0.75720826885E+03  0.10000000000E+01 0.  0.
    9000005    1    3    3    0    0 -0.90392531672E+02 -0.70883313403E+02  0.64228665137E+03  0.65247865592E+03  0.10000000000E+01 0.  0.
<mgrwt>
<rscale>  0 0.17413546E+03</rscale>
<asrwt>0</asrwt>
<pdfrwt beam="1">  1        2 0.39161994E+00 0.17972586E+03</pdfrwt>
<pdfrwt beam="2">  1       -2 0.17300933E-02 0.17972586E+03</pdfrwt>
<totfact> 0.36397367E+03</totfact>
</mgrwt>
</event>
<event>
 8    2  0.8128359E-004  0.1254953E+03  0.7818608E-02  0.1249297E+00
         -2   -1    0    0    0  501 -0.00000000000E+00  0.00000000000E+00  0.15872755898E+02  0.15872756103E+02  0.25500000000E-02 0. -1.
          2   -1    0    0  501    0  0.00000000000E+00 -0.00000000000E+00 -0.81940302387E+03  0.81940302387E+03  0.25500000000E-02 0.  1.
         25    2    1    2    0    0  0.10348143808E+02 -0.42473820298E+01 -0.33627479942E+03  0.35892870425E+03  0.12499579862E+03 0.  0.
         23    2    1    2    0    0 -0.10348143808E+02  0.42473820298E+01 -0.46725546855E+03  0.47634707573E+03  0.91944218589E+02 0.  0.
        -11    1    4    4    0    0  0.10556642526E+02  0.32147472065E+02 -0.71970732796E+02  0.79527913597E+02  0.51100000000E-03 0. -1.
         11    1    4    4    0    0 -0.20904786334E+02 -0.27900090035E+02 -0.39528473575E+03  0.39681916213E+03  0.51100000000E-03 0.  1.
    9000005    1    3    3    0    0 -0.46089855874E+02 -0.12875338028E+02 -0.25587988688E+03  0.26031820077E+03  0.10000000000E+01 0.  0.
    9000005    1    3    3    0    0  0.56437999682E+02  0.86279559984E+01 -0.80394912542E+02  0.98610503474E+02  0.10000000000E+01 0.  0.
<mgrwt>
<rscale>  0 0.11631865E+03</rscale>
<asrwt>0</asrwt>
<pdfrwt beam="2">  1        2 0.12606197E+00 0.12549531E+03</pdfrwt>
<pdfrwt beam="1">  1       -2 0.24419631E-02 0.12549531E+03</pdfrwt>
<totfact> 0.18692443E+04</totfact>
</mgrwt>
</event>
<event>
 8    2  0.8128359E-004  0.1291663E+03  0.7818608E-02  0.1241602E+00
         -2   -1    0    0    0  501 -0.00000000000E+00  0.00000000000E+00  0.24740608799E+03  0.24740608801E+03  0.25500000000E-02 0. -1.
          2   -1    0    0  501    0  0.00000000000E+00 -0.00000000000E+00 -0.15988922522E+03  0.15988922524E+03  0.25500000000E-02 0.  1.
         25    2    1    2    0    0  0.32485084830E+02 -0.18869716803E+01  0.21192969879E+03  0.24818969382E+03  0.12500034196E+03 0.  0.
         23    2    1    2    0    0 -0.32485084830E+02  0.18869716803E+01 -0.12441283602E+03  0.15910561943E+03  0.93686727811E+02 0.  0.
        -11    1    4    4    0    0 -0.24026844457E+02 -0.36369548655E+02 -0.20731592675E+02  0.48268335987E+02  0.51100000000E-03 0. -1.
         11    1    4    4    0    0 -0.84582403732E+01  0.38256520335E+02 -0.10368124334E+03  0.11083728344E+03  0.51100000000E-03 0.  1.
    9000005    1    3    3    0    0 -0.17724352726E+02 -0.31558600804E+02  0.17599044878E+03  0.17967675427E+03  0.10000000000E+01 0.  0.
    9000005    1    3    3    0    0  0.50209437556E+02  0.29671629123E+02  0.35939250015E+02  0.68512939553E+02  0.10000000000E+01 0.  0.
<mgrwt>
<rscale>  0 0.12091061E+03</rscale>
<asrwt>0</asrwt>
<pdfrwt beam="2">  1        2 0.24598342E-01 0.12916628E+03</pdfrwt>
<pdfrwt beam="1">  1       -2 0.38062475E-01 0.12916628E+03</pdfrwt>
<totfact> 0.14028020E+03</totfact>
</mgrwt>
</event>
<event>
 8    2  0.8128359E-004  0.1703613E+03  0.7818608E-02  0.1183983E+00
         -2   -1    0    0    0  501 -0.00000000000E+00  0.00000000000E+00  0.63838383526E+03  0.63838383526E+03  0.25500000000E-02 0.  1.
          2   -1    0    0  501    0  0.00000000000E+00 -0.00000000000E+00 -0.40711675321E+02  0.40711675400E+02  0.25500000000E-02 0. -1.
         25    2    1    2    0    0  0.73333506181E+02  0.89554613515E+02  0.37864149767E+03  0.41520157993E+03  0.12500054513E+03 0.  0.
         23    2    1    2    0    0 -0.73333506181E+02 -0.89554613515E+02  0.21903066226E+03  0.26389393074E+03  0.90927134217E+02 0.  0.
        -11    1    4    4    0    0 -0.37490339158E+02 -0.41798694762E+01  0.13029478195E+03  0.13564559353E+03  0.51100000000E-03 0.  1.
         11    1    4    4    0    0 -0.35843167023E+02 -0.85374744038E+02  0.88735880311E+02  0.12824833721E+03  0.51100000000E-03 0. -1.
    9000005    1    3    3    0    0  0.58880508646E+02  0.12161010735E+03  0.29567060287E+03  0.32508158654E+03  0.10000000000E+01 0.  0.
    9000005    1    3    3    0    0  0.14452997535E+02 -0.32055493838E+02  0.82970894808E+02  0.90119993387E+02  0.10000000000E+01 0.  0.
<mgrwt>
<rscale>  0 0.16424776E+03</rscale>
<asrwt>0</asrwt>
<pdfrwt beam="2">  1        2 0.62633351E-02 0.17036129E+03</pdfrwt>
<pdfrwt beam="1">  1       -2 0.98212891E-01 0.17036129E+03</pdfrwt>
<totfact> 0.10252528E+03</totfact>
</mgrwt>
</event>
<event>
 8    2  0.8128359E-004  0.1486265E+03  0.7818608E-02  0.1210596E+00
         -2   -1    0    0    0  501 -0.00000000000E+00  0.00000000000E+00  0.23828730438E+02  0.23828730574E+02  0.25500000000E-02 0. -1.
          2   -1    0    0  501    0  0.00000000000E+00 -0.00000000000E+00 -0.87525290094E+03  0.87525290095E+03  0.25500000000E-02 0.  1.
         25    2    1    2    0    0 -0.79106521116E+02 -0.14431659453E+02 -0.31210603616E+03  0.34568773648E+03  0.12499487537E+03 0.  0.
         23    2    1    2    0    0  0.79106521116E+02  0.14431659453E+02 -0.53931813435E+03  0.55339389504E+03  0.94417363624E+02 0.  0.
        -11    1    4    4    0    0  0.97117063904E+02 -0.34270043003E+01 -0.38922107779E+03  0.40116893680E+03  0.51100000000E-03 0. -1.
         11    1    4    4    0    0 -0.18010542788E+02  0.17858663753E+02 -0.15009705656E+03  0.15222495824E+03  0.51100000000E-03 0.  1.
    9000005    1    3    3    0    0  0.24197754015E+02 -0.28361867382E+02 -0.42026525656E+02  0.56188572498E+02  0.10000000000E+01 0.  0.
    9000005    1    3    3    0    0 -0.10330427513E+03  0.13930207929E+02 -0.27007951050E+03  0.28949916398E+03  0.10000000000E+01 0.  0.
<mgrwt>
<rscale>  0 0.14205102E+03</rscale>
<asrwt>0</asrwt>
<pdfrwt beam="2">  1        2 0.13465427E+00 0.14862649E+03</pdfrwt>
<pdfrwt beam="1">  1       -2 0.36659592E-02 0.14862649E+03</pdfrwt>
<totfact> 0.95656513E+03</totfact>
</mgrwt>
</event>
<event>
 8    2  0.8128359E-004  0.1339475E+03  0.7818608E-02  0.1233657E+00
         -2   -1    0    0    0  501 -0.00000000000E+00  0.00000000000E+00  0.14240391762E+02  0.14240391990E+02  0.25500000000E-02 0.  1.
          2   -1    0    0  501    0  0.00000000000E+00 -0.00000000000E+00 -0.15358383635E+04  0.15358383636E+04  0.25500000000E-02 0. -1.
         25    2    1    2    0    0  0.31161978150E+02  0.36686048210E+02 -0.36568088551E+03  0.38944120739E+03  0.12500003585E+03 0.  0.
         23    2    1    2    0    0 -0.31161978150E+02 -0.36686048210E+02 -0.11559170863E+04  0.11606375482E+04  0.92834653212E+02 0.  0.
        -11    1    4    4    0    0 -0.24754950515E+02  0.26484560453E+02 -0.26612280495E+03  0.26858068961E+03  0.51100000000E-03 0.  1.
         11    1    4    4    0    0 -0.64070276349E+01 -0.63170608663E+02 -0.88979428132E+03  0.89205685854E+03  0.51100000000E-03 0. -1.
    9000005    1    3    3    0    0 -0.29888903387E+02 -0.30724611482E+02 -0.12492604045E+03  0.13207900620E+03  0.10000000000E+01 0.  0.
    9000005    1    3    3    0    0  0.61050881537E+02  0.67410659692E+02 -0.24075484507E+03  0.25736220119E+03  0.10000000000E+01 0.  0.
<mgrwt>
<rscale>  0 0.12590832E+03</rscale>
<asrwt>0</asrwt>
<pdfrwt beam="2">  1        2 0.23628269E+00 0.13394754E+03</pdfrwt>
<pdfrwt beam="1">  1       -2 0.21908307E-02 0.13394754E+03</pdfrwt>
<totfact> 0.86222156E+03</totfact>
</mgrwt>
</event>
<event>
 8    2  0.8128359E-004  0.1322310E+03  0.7818608E-02  0.1235448E+00
          2   -1    0    0  501    0  0.00000000000E+00  0.00000000000E+00  0.85776144171E+03  0.85776144172E+03  0.25500000000E-02 0. -1.
         -2   -1    0    0    0  501 -0.00000000000E+00 -0.00000000000E+00 -0.16412301658E+02  0.16412301856E+02  0.25500000000E-02 0.  1.
         25    2    1    2    0    0 -0.36604594072E+02 -0.22825749571E+02  0.44781347065E+03  0.46692820838E+03  0.12499654448E+03 0.  0.
         23    2    1    2    0    0  0.36604594072E+02  0.22825749571E+02  0.39353566940E+03  0.40724553519E+03  0.95486604773E+02 0.  0.
        -11    1    4    4    0    0  0.43816061167E+02 -0.24579207264E+02  0.27184862092E+03  0.27645190783E+03  0.51100000000E-03 0. -1.
         11    1    4    4    0    0 -0.72114670946E+01  0.47404956835E+02  0.12168704849E+03  0.13079362737E+03  0.51100000000E-03 0.  1.
    9000005    1    3    3    0    0 -0.64733498944E+00 -0.65068538759E+02  0.14308438451E+03  0.15718929629E+03  0.10000000000E+01 0.  0.
    9000005    1    3    3    0    0 -0.35957259083E+02  0.42242789188E+02  0.30472908614E+03  0.30973891209E+03  0.10000000000E+01 0.  0.
<mgrwt>
<rscale>  0 0.12475801E+03</rscale>
<asrwt>0</asrwt>
<pdfrwt beam="1">  1        2 0.13196335E+00 0.13223104E+03</pdfrwt>
<pdfrwt beam="2">  1       -2 0.25249685E-02 0.13223104E+03</pdfrwt>
<totfact> 0.16869470E+04</totfact>
</mgrwt>
</event>
<event>
 8    2  0.8128359E-004  0.1308418E+03  0.7818608E-02  0.1240494E+00
         -2   -1    0    0    0  501 -0.00000000000E+00  0.00000000000E+00  0.30704384780E+02  0.30704384885E+02  0.25500000000E-02 0. -1.
          2   -1    0    0  501    0  0.00000000000E+00 -0.00000000000E+00 -0.42485347539E+03  0.42485347540E+03  0.25500000000E-02 0.  1.
         25    2    1    2    0    0 -0.35685256466E+02 -0.14908450519E+02 -0.22676885802E+03  0.26180848503E+03  0.12499547369E+03 0.  0.
         23    2    1    2    0    0  0.35685256466E+02  0.14908450519E+02 -0.16738023259E+03  0.19374937525E+03  0.89593407803E+02 0.  0.
        -11    1    4    4    0    0 -0.13746931672E+02  0.87027264946E+01 -0.13113275233E+03  0.13213823940E+03  0.51100000000E-03 0.  1.
         11    1    4    4    0    0  0.49432188137E+02  0.62057240239E+01 -0.36247480260E+02  0.61611135846E+02  0.51100000000E-03 0. -1.
    9000005    1    3    3    0    0 -0.14393930501E+02 -0.68773615024E+02 -0.14991937886E+03  0.16557117960E+03  0.10000000000E+01 0.  0.
    9000005    1    3    3    0    0 -0.21291325965E+02  0.53865164506E+02 -0.76849479161E+02  0.96237305427E+02  0.10000000000E+01 0.  0.
<mgrwt>
<rscale>  0 0.12159191E+03</rscale>
<asrwt>0</asrwt>
<pdfrwt beam="2">  1        2 0.65362069E-01 0.13084177E+03</pdfrwt>
<pdfrwt beam="1">  1       -2 0.47237518E-02 0.13084177E+03</pdfrwt>
<totfact> 0.15000020E+04</totfact>
</mgrwt>
</event>
<event>
 8    2  0.8128359E-004  0.1977843E+03  0.7818608E-02  0.1155842E+00
          2   -1    0    0  501    0  0.00000000000E+00  0.00000000000E+00  0.11026296509E+03  0.11026296512E+03  0.25500000000E-02 0. -1.
         -2   -1    0    0    0  501 -0.00000000000E+00 -0.00000000000E+00 -0.37005133155E+03  0.37005133156E+03  0.25500000000E-02 0.  1.
         25    2    1    2    0    0 -0.70656588339E+02 -0.13602169070E+03 -0.49077436486E+02  0.20378233520E+03  0.12499756617E+03 0.  0.
         23    2    1    2    0    0  0.70656588339E+02  0.13602169070E+03 -0.21071092997E+03  0.27653196148E+03  0.92609804520E+02 0.  0.
        -11    1    4    4    0    0  0.53867108918E+02  0.14580139555E+02 -0.55032124600E+02  0.78375893175E+02  0.51100000000E-03 0. -1.
         11    1    4    4    0    0  0.16789479420E+02  0.12144155114E+03 -0.15567880537E+03  0.19815606830E+03  0.51100000000E-03 0.  1.
    9000005    1    3    3    0    0 -0.50889320472E+02 -0.18926623872E+02  0.29094353413E+02  0.61606991728E+02  0.10000000000E+01 0.  0.
    9000005    1    3    3    0    0 -0.19767267867E+02 -0.11709506683E+03 -0.78171789898E+02  0.14217534347E+03  0.10000000000E+01 0.  0.
<mgrwt>
<rscale>  0 0.19293353E+03</rscale>
<asrwt>0</asrwt>
<pdfrwt beam="1">  1        2 0.16963533E-01 0.19778434E+03</pdfrwt>
<pdfrwt beam="2">  1       -2 0.56930974E-01 0.19778434E+03</pdfrwt>
<totfact> 0.98520306E+02</totfact>
</mgrwt>
</event>
<event>
 8    2  0.8128359E-004  0.1269096E+03  0.7818608E-02  0.1246041E+00
         -2   -1    0    0    0  501 -0.00000000000E+00  0.00000000000E+00  0.33605785715E+03  0.33605785716E+03  0.25500000000E-02 0.  1.
          2   -1    0    0  501    0  0.00000000000E+00 -0.00000000000E+00 -0.79362515769E+02  0.79362515810E+02  0.25500000000E-02 0. -1.
         25    2    1    2    0    0 -0.12847811844E+02  0.17773861748E+02  0.28808229469E+03  0.31479747240E+03  0.12500025474E+03 0.  0.
         23    2    1    2    0    0  0.12847811844E+02 -0.17773861748E+02 -0.31386953314E+02  0.10062290056E+03  0.93052946483E+02 0.  0.
        -11    1    4    4    0    0  0.40751277678E+02  0.22329472284E+02 -0.19140727423E+02  0.50255740084E+02  0.51100000000E-03 0. -1.
         11    1    4    4    0    0 -0.27903465834E+02 -0.40103334032E+02 -0.12246225891E+02  0.50367160481E+02  0.51100000000E-03 0.  1.
    9000005    1    3    3    0    0 -0.49945020623E+02 -0.19443183673E+02  0.23127609175E+03  0.23740718838E+03  0.10000000000E+01 0.  0.
    9000005    1    3    3    0    0  0.37097208779E+02  0.37217045422E+02  0.56806202939E+02  0.77390284025E+02  0.10000000000E+01 0.  0.
<mgrwt>
<rscale>  0 0.11823282E+03</rscale>
<asrwt>0</asrwt>
<pdfrwt beam="2">  1        2 0.12209618E-01 0.12690957E+03</pdfrwt>
<pdfrwt beam="1">  1       -2 0.51701209E-01 0.12690957E+03</pdfrwt>
<totfact> 0.17362091E+03</totfact>
</mgrwt>
</event>
<event>
 8    2  0.8128359E-004  0.1497367E+03  0.7818608E-02  0.1209910E+00
         -2   -1    0    0    0  501 -0.00000000000E+00  0.00000000000E+00  0.15838653842E+03  0.15838653844E+03  0.25500000000E-02 0.  1.
          2   -1    0    0  501    0  0.00000000000E+00 -0.00000000000E+00 -0.12137559061E+03  0.12137559064E+03  0.25500000000E-02 0. -1.
         25    2    1    2    0    0  0.82254930837E+02  0.55661593037E+01  0.45229007086E+02  0.15641852510E+03  0.12499694451E+03 0.  0.
         23    2    1    2    0    0 -0.82254930837E+02 -0.55661593037E+01 -0.82180592760E+01  0.12334360397E+03  0.91374243448E+02 0.  0.
        -11    1    4    4    0    0 -0.36109201515E+02  0.26297818570E+02  0.31469674612E+02  0.54642383879E+02  0.51100000000E-03 0.  1.
         11    1    4    4    0    0 -0.46145729322E+02 -0.31863977873E+02 -0.39687733888E+02  0.68701220091E+02  0.51100000000E-03 0. -1.
    9000005    1    3    3    0    0 -0.13159564993E+02 -0.18901738621E+02  0.52807912265E+02  0.57620529948E+02  0.10000000000E+01 0.  0.
    9000005    1    3    3    0    0  0.95414495830E+02  0.24467897925E+02 -0.75789051793E+01  0.98797995157E+02  0.10000000000E+01 0.  0.
<mgrwt>
<rscale>  0 0.14257189E+03</rscale>
<asrwt>0</asrwt>
<pdfrwt beam="2">  1        2 0.18673168E-01 0.14973674E+03</pdfrwt>
<pdfrwt beam="1">  1       -2 0.24367160E-01 0.14973674E+03</pdfrwt>
<totfact> 0.43054208E+03</totfact>
</mgrwt>
</event>
<event>
 8    2  0.8128359E-004  0.1272465E+03  0.7818608E-02  0.1255967E+00
         -2   -1    0    0    0  501 -0.00000000000E+00  0.00000000000E+00  0.23041329338E+02  0.23041329479E+02  0.25500000000E-02 0.  1.
          2   -1    0    0  501    0  0.00000000000E+00 -0.00000000000E+00 -0.47747450350E+03  0.47747450350E+03  0.25500000000E-02 0. -1.
         25    2    1    2    0    0 -0.44115766427E+01 -0.23391430911E+02 -0.33086334110E+03  0.35448868108E+03  0.12500021392E+03 0.  0.
         23    2    1    2    0    0  0.44115766427E+01  0.23391430911E+02 -0.12356983306E+03  0.14602715190E+03  0.74079716538E+02 0.  0.
        -11    1    4    4    0    0 -0.20474598973E+02 -0.93358058157E+01 -0.88813308095E+01  0.24191827350E+02  0.51100000000E-03 0.  1.
         11    1    4    4    0    0  0.24886175616E+02  0.32727236727E+02 -0.11468850225E+03  0.12183532455E+03  0.51100000000E-03 0. -1.
    9000005    1    3    3    0    0  0.38940808571E+01 -0.71230738617E+02 -0.25169696338E+03  0.26161296483E+03  0.10000000000E+01 0.  0.
    9000005    1    3    3    0    0 -0.83056574998E+01  0.47839307706E+02 -0.79166377714E+02  0.92875716248E+02  0.10000000000E+01 0.  0.
<mgrwt>
<rscale>  0 0.11252358E+03</rscale>
<asrwt>0</asrwt>
<pdfrwt beam="2">  1        2 0.73457609E-01 0.12724651E+03</pdfrwt>
<pdfrwt beam="1">  1       -2 0.35448203E-02 0.12724651E+03</pdfrwt>
<totfact> 0.20208329E+04</totfact>
</mgrwt>
</event>
<event>
 8    2  0.8128359E-004  0.3510416E+03  0.7818608E-02  0.1063227E+00
         -2   -1    0    0    0  501 -0.00000000000E+00  0.00000000000E+00  0.11128510299E+03  0.11128510302E+03  0.25500000000E-02 0. -1.
          2   -1    0    0  501    0  0.00000000000E+00 -0.00000000000E+00 -0.12609952315E+04  0.12609952315E+04  0.25500000000E-02 0.  1.
         25    2    1    2    0    0 -0.22874764520E+03  0.23511644841E+03 -0.84472030848E+03  0.91475821411E+03  0.12499984493E+03 0.  0.
         23    2    1    2    0    0  0.22874764520E+03 -0.23511644841E+03 -0.30498982001E+03  0.45752212038E+03  0.93287034624E+02 0.  0.
        -11    1    4    4    0    0  0.11050874978E+02 -0.61653841115E+02 -0.59034977305E+02  0.86072332998E+02  0.51100000000E-03 0.  1.
         11    1    4    4    0    0  0.21769677023E+03 -0.17346260729E+03 -0.24595484270E+03  0.37144978738E+03  0.51100000000E-03 0. -1.
    9000005    1    3    3    0    0 -0.42291066957E+01  0.74315007038E+01 -0.14701718439E+03  0.14726902272E+03  0.10000000000E+01 0.  0.
    9000005    1    3    3    0    0 -0.22451853851E+03  0.22768494770E+03 -0.69770312409E+03  0.76748919139E+03  0.10000000000E+01 0.  0.
<mgrwt>
<rscale>  0 0.34851380E+03</rscale>
<asrwt>0</asrwt>
<pdfrwt beam="2">  1        2 0.19399926E+00 0.35104158E+03</pdfrwt>
<pdfrwt beam="1">  1       -2 0.17120786E-01 0.35104158E+03</pdfrwt>
<totfact> 0.50420475E+02</totfact>
</mgrwt>
</event>
<event>
 8    2  0.8128359E-004  0.1289173E+03  0.7818608E-02  0.1240816E+00
         -2   -1    0    0    0  501 -0.00000000000E+00  0.00000000000E+00  0.29389992821E+02  0.29389992932E+02  0.25500000000E-02 0.  1.
          2   -1    0    0  501    0  0.00000000000E+00 -0.00000000000E+00 -0.63888502989E+03  0.63888502990E+03  0.25500000000E-02 0. -1.
         25    2    1    2    0    0  0.23003600014E+02  0.21624850031E+02 -0.51075649131E+03  0.52677495436E+03  0.12499143721E+03 0.  0.
         23    2    1    2    0    0 -0.23003600014E+02 -0.21624850031E+02 -0.98738545766E+02  0.14150006847E+03  0.96312871440E+02 0.  0.
        -11    1    4    4    0    0 -0.28114837382E+02  0.30656890244E+02 -0.18337674321E+02  0.45459424768E+02  0.51100000000E-03 0.  1.
         11    1    4    4    0    0  0.51112373673E+01 -0.52281740275E+02 -0.80400871445E+02  0.96040643703E+02  0.51100000000E-03 0. -1.
    9000005    1    3    3    0    0  0.68948058072E+01 -0.41607570579E+02 -0.74089133352E+02  0.85258008172E+02  0.10000000000E+01 0.  0.
    9000005    1    3    3    0    0  0.16108794207E+02  0.63232420610E+02 -0.43666735795E+03  0.44151694619E+03  0.10000000000E+01 0.  0.
<mgrwt>
<rscale>  0 0.12139346E+03</rscale>
<asrwt>0</asrwt>
<pdfrwt beam="2">  1        2 0.98289994E-01 0.12891726E+03</pdfrwt>
<pdfrwt beam="1">  1       -2 0.45215378E-02 0.12891726E+03</pdfrwt>
<totfact> 0.10182994E+04</totfact>
</mgrwt>
</event>
<event>
 8    2  0.8128359E-004  0.1324092E+03  0.7818608E-02  0.1237385E+00
         -2   -1    0    0    0  501 -0.00000000000E+00  0.00000000000E+00  0.53630149745E+03  0.53630149745E+03  0.25500000000E-02 0.  1.
          2   -1    0    0  501    0  0.00000000000E+00 -0.00000000000E+00 -0.25819858412E+02  0.25819858538E+02  0.25500000000E-02 0. -1.
         25    2    1    2    0    0 -0.37489097944E+02  0.22399235026E+02  0.24814286357E+03  0.28125978265E+03  0.12500010559E+03 0.  0.
         23    2    1    2    0    0  0.37489097944E+02 -0.22399235026E+02  0.26233877546E+03  0.28086157335E+03  0.90301894095E+02 0.  0.
        -11    1    4    4    0    0  0.66574261232E+02 -0.13388947545E+02  0.20477069929E+03  0.21573695897E+03  0.51100000000E-03 0.  1.
         11    1    4    4    0    0 -0.29085163288E+02 -0.90102874819E+01  0.57568076168E+02  0.65124614379E+02  0.51100000000E-03 0. -1.
    9000005    1    3    3    0    0 -0.39340211112E+01  0.27117647099E+02 -0.32318125489E+01  0.27609562088E+02  0.10000000000E+01 0.  0.
    9000005    1    3    3    0    0 -0.33555076833E+02 -0.47184120730E+01  0.25137467612E+03  0.25365022056E+03  0.10000000000E+01 0.  0.
<mgrwt>
<rscale>  0 0.12352983E+03</rscale>
<asrwt>0</asrwt>
<pdfrwt beam="2">  1        2 0.39722858E-02 0.13240916E+03</pdfrwt>
<pdfrwt beam="1">  1       -2 0.82507924E-01 0.13240916E+03</pdfrwt>
<totfact> 0.27149267E+03</totfact>
</mgrwt>
</event>
<event>
 8    2  0.8128359E-004  0.1507015E+03  0.7818608E-02  0.1208121E+00
          2   -1    0    0  501    0  0.00000000000E+00  0.00000000000E+00  0.52157810866E+03  0.52157810866E+03  0.25500000000E-02 0. -1.
         -2   -1    0    0    0  501 -0.00000000000E+00 -0.00000000000E+00 -0.39139427155E+02  0.39139427238E+02  0.25500000000E-02 0.  1.
         25    2    1    2    0    0  0.75124566262E+02  0.37977848895E+02  0.33370275900E+03  0.36615360619E+03  0.12499965800E+03 0.  0.
         23    2    1    2    0    0 -0.75124566262E+02 -0.37977848895E+02  0.14873592250E+03  0.19456392971E+03  0.92987798335E+02 0.  0.
        -11    1    4    4    0    0 -0.34662676011E+02 -0.59394278483E+02  0.47854548643E+02  0.83780900275E+02  0.51100000000E-03 0. -1.
         11    1    4    4    0    0 -0.40461890251E+02  0.21416429588E+02  0.10088137386E+03  0.11078302944E+03  0.51100000000E-03 0.  1.
    9000005    1    3    3    0    0  0.85346958001E+02  0.69756570645E+02  0.29560842933E+03  0.31549235471E+03  0.10000000000E+01 0.  0.
    9000005    1    3    3    0    0 -0.10222391739E+02 -0.31778721749E+02  0.38094329669E+02  0.50661251483E+02  0.10000000000E+01 0.  0.
<mgrwt>
<rscale>  0 0.14394238E+03</rscale>
<asrwt>0</asrwt>
<pdfrwt beam="1">  1        2 0.80242785E-01 0.15070147E+03</pdfrwt>
<pdfrwt beam="2">  1       -2 0.60214504E-02 0.15070147E+03</pdfrwt>
<totfact> 0.84024121E+03</totfact>
</mgrwt>
</event>
<event>
 8    2  0.8128359E-004  0.1748227E+03  0.7818608E-02  0.1179163E+00
         -2   -1    0    0    0  501 -0.00000000000E+00  0.00000000000E+00  0.19089894306E+02  0.19089894476E+02  0.25500000000E-02 0.  1.
          2   -1    0    0  501    0  0.00000000000E+00 -0.00000000000E+00 -0.13971408464E+04  0.13971408464E+04  0.25500000000E-02 0. -1.
         25    2    1    2    0    0  0.18853159820E+02 -0.12076147086E+03 -0.75067361177E+03  0.77076186913E+03  0.12499685205E+03 0.  0.
         23    2    1    2    0    0 -0.18853159820E+02  0.12076147086E+03 -0.62737734035E+03  0.64546887177E+03  0.89938661090E+02 0.  0.
        -11    1    4    4    0    0 -0.49980057809E+02  0.10395817370E+03 -0.44602834058E+03  0.46070227768E+03  0.51100000000E-03 0. -1.
         11    1    4    4    0    0  0.31126897990E+02  0.16803297162E+02 -0.18134899977E+03  0.18476659409E+03  0.51100000000E-03 0.  1.
    9000005    1    3    3    0    0 -0.20007171104E+00  0.25781175229E+02 -0.82466932092E+02  0.86408934223E+02  0.10000000000E+01 0.  0.
    9000005    1    3    3    0    0  0.19053231531E+02 -0.14654264609E+03 -0.66820667968E+03  0.68435293491E+03  0.10000000000E+01 0.  0.
<mgrwt>
<rscale>  0 0.16874458E+03</rscale>
<asrwt>0</asrwt>
<pdfrwt beam="2">  1        2 0.21494466E+00 0.17482273E+03</pdfrwt>
<pdfrwt beam="1">  1       -2 0.29369079E-02 0.17482273E+03</pdfrwt>
<totfact> 0.66973342E+03</totfact>
</mgrwt>
</event>
<event>
 8    2  0.8128359E-004  0.1704254E+03  0.7818608E-02  0.1184182E+00
          2   -1    0    0  501    0  0.00000000000E+00  0.00000000000E+00  0.11858761935E+04  0.11858761935E+04  0.25500000000E-02 0. -1.
         -2   -1    0    0    0  501 -0.00000000000E+00 -0.00000000000E+00 -0.25490769232E+02  0.25490769360E+02  0.25500000000E-02 0.  1.
         25    2    1    2    0    0  0.11403253801E+03  0.20406729362E+02  0.86587065150E+03  0.88248331771E+03  0.12499986630E+03 0.  0.
         23    2    1    2    0    0 -0.11403253801E+03 -0.20406729362E+02  0.29451477281E+03  0.32888364519E+03  0.89474277568E+02 0.  0.
        -11    1    4    4    0    0 -0.34258585134E+02 -0.40939985424E+02  0.59937927526E+02  0.80263866206E+02  0.51100000000E-03 0.  1.
         11    1    4    4    0    0 -0.79773952876E+02  0.20533256062E+02  0.23457684528E+03  0.24861977899E+03  0.51100000000E-03 0. -1.
    9000005    1    3    3    0    0  0.99118640915E+02  0.42739035318E+01  0.84896687880E+03  0.85474471776E+03  0.10000000000E+01 0.  0.
    9000005    1    3    3    0    0  0.14913897095E+02  0.16132825831E+02  0.16903772696E+02  0.27738599950E+02  0.10000000000E+01 0.  0.
<mgrwt>
<rscale>  0 0.16406545E+03</rscale>
<asrwt>0</asrwt>
<pdfrwt beam="1">  1        2 0.18244250E+00 0.17042541E+03</pdfrwt>
<pdfrwt beam="2">  1       -2 0.39216566E-02 0.17042541E+03</pdfrwt>
<totfact> 0.56824391E+03</totfact>
</mgrwt>
</event>
<event>
 8    2  0.8128359E-004  0.3050581E+03  0.7818608E-02  0.1084229E+00
          2   -1    0    0  501    0  0.00000000000E+00  0.00000000000E+00  0.86258614341E+03  0.86258614342E+03  0.25500000000E-02 0. -1.
         -2   -1    0    0    0  501 -0.00000000000E+00 -0.00000000000E+00 -0.10871269775E+03  0.10871269778E+03  0.25500000000E-02 0.  1.
         25    2    1    2    0    0  0.27781194397E+03 -0.15973946357E+02  0.48828354224E+03  0.57574407771E+03  0.12500312884E+03 0.  0.
         23    2    1    2    0    0 -0.27781194397E+03  0.15973946357E+02  0.26558990342E+03  0.39555476349E+03  0.92146247615E+02 0.  0.
        -11    1    4    4    0    0 -0.11311412470E+03  0.14282358267E+02  0.50629809767E+02  0.12474842124E+03  0.51100000000E-03 0.  1.
         11    1    4    4    0    0 -0.16469781927E+03  0.16915880903E+01  0.21496009365E+03  0.27080634225E+03  0.51100000000E-03 0. -1.
    9000005    1    3    3    0    0  0.19409947121E+03 -0.60481593417E+02  0.38604707452E+03  0.43630949062E+03  0.10000000000E+01 0.  0.
    9000005    1    3    3    0    0  0.83712472762E+02  0.44507647061E+02  0.10223646773E+03  0.13943458709E+03  0.10000000000E+01 0.  0.
<mgrwt>
<rscale>  0 0.30203147E+03</rscale>
<asrwt>0</asrwt>
<pdfrwt beam="1">  1        2 0.13270556E+00 0.30505807E+03</pdfrwt>
<pdfrwt beam="2">  1       -2 0.16725030E-01 0.30505807E+03</pdfrwt>
<totfact> 0.91829412E+02</totfact>
</mgrwt>
</event>
<event>
 8    2  0.8128359E-004  0.1614801E+03  0.7818608E-02  0.1194668E+00
          2   -1    0    0  501    0  0.00000000000E+00  0.00000000000E+00  0.34344973605E+03  0.34344973606E+03  0.25500000000E-02 0. -1.
         -2   -1    0    0    0  501 -0.00000000000E+00 -0.00000000000E+00 -0.68317171851E+02  0.68317171899E+02  0.25500000000E-02 0.  1.
         25    2    1    2    0    0  0.76162703141E+02  0.68199875094E+02  0.19627410216E+03  0.25416402310E+03  0.12499538850E+03 0.  0.
         23    2    1    2    0    0 -0.76162703141E+02 -0.68199875094E+02  0.78858462035E+02  0.15760288486E+03  0.90377165081E+02 0.  0.
        -11    1    4    4    0    0 -0.37691305771E+01 -0.59045777538E+02  0.55135197656E+02  0.80873359094E+02  0.51100000000E-03 0.  1.
         11    1    4    4    0    0 -0.72393572564E+02 -0.91540975560E+01  0.23723264379E+02  0.76729525763E+02  0.51100000000E-03 0. -1.
    9000005    1    3    3    0    0  0.28681784830E+02  0.63286606971E+02  0.19432871996E+03  0.20637948251E+03  0.10000000000E+01 0.  0.
    9000005    1    3    3    0    0  0.47480918311E+02  0.49132681228E+01  0.19453822080E+01  0.47784540589E+02  0.10000000000E+01 0.  0.
<mgrwt>
<rscale>  0 0.15482346E+03</rscale>
<asrwt>0</asrwt>
<pdfrwt beam="1">  1        2 0.52838422E-01 0.16148011E+03</pdfrwt>
<pdfrwt beam="2">  1       -2 0.10510334E-01 0.16148011E+03</pdfrwt>
<totfact> 0.55932400E+03</totfact>
</mgrwt>
</event>
<event>
 8    2  0.8128359E-004  0.1296572E+03  0.7818608E-02  0.1244177E+00
         -2   -1    0    0    0  501 -0.00000000000E+00  0.00000000000E+00  0.18365687411E+02  0.18365687588E+02  0.25500000000E-02 0.  1.
          2   -1    0    0  501    0  0.00000000000E+00 -0.00000000000E+00 -0.69042084860E+03  0.69042084861E+03  0.25500000000E-02 0. -1.
         25    2    1    2    0    0 -0.21038710125E+02  0.27041761220E+02 -0.33832985065E+03  0.36232315832E+03  0.12504838677E+03 0.  0.
         23    2    1    2    0    0  0.21038710125E+02 -0.27041761220E+02 -0.33372531054E+03  0.34646337788E+03  0.86547126723E+02 0.  0.
        -11    1    4    4    0    0 -0.25539171690E+02  0.44864217683E+01 -0.41955990212E+02  0.49322230138E+02  0.51100000000E-03 0.  1.
         11    1    4    4    0    0  0.46577881815E+02 -0.31528182988E+02 -0.29176932032E+03  0.29714114774E+03  0.51100000000E-03 0. -1.
    9000005    1    3    3    0    0  0.28560166502E+02  0.29689269863E+02 -0.29034107179E+03  0.29325087182E+03  0.10000000000E+01 0.  0.
    9000005    1    3    3    0    0 -0.49598876627E+02 -0.26475086431E+01 -0.47988778863E+02  0.69072286494E+02  0.10000000000E+01 0.  0.
<mgrwt>
<rscale>  0 0.11934770E+03</rscale>
<asrwt>0</asrwt>
<pdfrwt beam="2">  1        2 0.10621857E+00 0.12965718E+03</pdfrwt>
<pdfrwt beam="1">  1       -2 0.28254909E-02 0.12965718E+03</pdfrwt>
<totfact> 0.18642918E+04</totfact>
</mgrwt>
</event>
<event>
 8    2  0.8128359E-004  0.1308603E+03  0.7818608E-02  0.1238330E+00
         -2   -1    0    0    0  501 -0.00000000000E+00  0.00000000000E+00  0.69053740785E+03  0.69053740786E+03  0.25500000000E-02 0.  1.
          2   -1    0    0  501    0  0.00000000000E+00 -0.00000000000E+00 -0.20950690476E+02  0.20950690631E+02  0.25500000000E-02 0. -1.
         25    2    1    2    0    0  0.36466553826E+02  0.13035936044E+02  0.46278865095E+03  0.48093425041E+03  0.12499869037E+03 0.  0.
         23    2    1    2    0    0 -0.36466553826E+02 -0.13035936044E+02  0.20679806643E+03  0.23055384808E+03  0.94286220671E+02 0.  0.
        -11    1    4    4    0    0  0.11646279191E+02  0.31917215021E+02  0.49582567985E+02  0.60106368065E+02  0.51100000000E-03 0. -1.
         11    1    4    4    0    0 -0.48112833018E+02 -0.44953151066E+02  0.15721549844E+03  0.17044748001E+03  0.51100000000E-03 0.  1.
    9000005    1    3    3    0    0 -0.34591794851E+02  0.19059004467E+02  0.59725664833E+02  0.71610006019E+02  0.10000000000E+01 0.  0.
    9000005    1    3    3    0    0  0.71058348678E+02 -0.60230684229E+01  0.40306298612E+03  0.40932424439E+03  0.10000000000E+01 0.  0.
<mgrwt>
<rscale>  0 0.12293654E+03</rscale>
<asrwt>0</asrwt>
<pdfrwt beam="2">  1        2 0.32231832E-02 0.13086030E+03</pdfrwt>
<pdfrwt beam="1">  1       -2 0.10623652E+00 0.13086030E+03</pdfrwt>
<totfact> 0.20204456E+03</totfact>
</mgrwt>
</event>
<event>
 8    2  0.8128359E-004  0.1744398E+03  0.7818608E-02  0.1179421E+00
          2   -1    0    0  501    0  0.00000000000E+00  0.00000000000E+00  0.29870673791E+03  0.29870673792E+03  0.25500000000E-02 0. -1.
         -2   -1    0    0    0  501 -0.00000000000E+00 -0.00000000000E+00 -0.91113438951E+02  0.91113438987E+02  0.25500000000E-02 0.  1.
         25    2    1    2    0    0  0.10656484087E+03  0.58766430738E+02  0.82016950801E+02  0.19275899748E+03  0.12497876699E+03 0.  0.
         23    2    1    2    0    0 -0.10656484087E+03 -0.58766430738E+02  0.12557634816E+03  0.19706117943E+03  0.90852245603E+02 0.  0.
        -11    1    4    4    0    0 -0.85084133547E+02  0.43401864977E+01  0.71586132869E+02  0.11127767710E+03  0.51100000000E-03 0. -1.
         11    1    4    4    0    0 -0.21480707323E+02 -0.63106617236E+02  0.53990215293E+02  0.85783502340E+02  0.51100000000E-03 0.  1.
    9000005    1    3    3    0    0  0.11921659606E+03  0.32235219919E+02  0.99454037696E+02  0.15856800369E+03  0.10000000000E+01 0.  0.
    9000005    1    3    3    0    0 -0.12651755190E+02  0.26531210819E+02 -0.17437086895E+02  0.34190993789E+02  0.10000000000E+01 0.  0.
<mgrwt>
<rscale>  0 0.16850016E+03</rscale>
<asrwt>0</asrwt>
<pdfrwt beam="1">  1        2 0.45954882E-01 0.17443982E+03</pdfrwt>
<pdfrwt beam="2">  1       -2 0.14017452E-01 0.17443982E+03</pdfrwt>
<totfact> 0.41030734E+03</totfact>
</mgrwt>
</event>
<event>
 8    2  0.8128359E-004  0.1582424E+03  0.7818608E-02  0.1198037E+00
          2   -1    0    0  501    0  0.00000000000E+00  0.00000000000E+00  0.25555405771E+04  0.25555405771E+04  0.25500000000E-02 0.  1.
         -2   -1    0    0    0  501 -0.00000000000E+00 -0.00000000000E+00 -0.19816686927E+02  0.19816687091E+02  0.25500000000E-02 0. -1.
         25    2    1    2    0    0  0.96292345490E+02  0.11972801263E+02  0.33478336632E+03  0.37029795104E+03  0.12500042564E+03 0.  0.
         23    2    1    2    0    0 -0.96292345490E+02 -0.11972801263E+02  0.22009405239E+04  0.22050593132E+04  0.93444214432E+02 0.  0.
        -11    1    4    4    0    0  0.10016592951E+02 -0.24173896473E+02  0.58053682273E+03  0.58112624442E+03  0.51100000000E-03 0.  1.
         11    1    4    4    0    0 -0.10630893844E+03  0.12201095211E+02  0.16204037011E+04  0.16239330687E+04  0.51100000000E-03 0. -1.
    9000005    1    3    3    0    0 -0.26637717723E+02  0.76288068447E+01  0.11636204813E+03  0.11961978492E+03  0.10000000000E+01 0.  0.
    9000005    1    3    3    0    0  0.12293006321E+03  0.43439944181E+01  0.21842131818E+03  0.25067816611E+03  0.10000000000E+01 0.  0.
<mgrwt>
<rscale>  0 0.15200014E+03</rscale>
<asrwt>0</asrwt>
<pdfrwt beam="1">  1        2 0.39316028E+00 0.15824244E+03</pdfrwt>
<pdfrwt beam="2">  1       -2 0.30487196E-02 0.15824244E+03</pdfrwt>
<totfact> 0.15704307E+03</totfact>
</mgrwt>
</event>
<event>
 8    2  0.8128359E-004  0.1333749E+03  0.7818608E-02  0.1235090E+00
          2   -1    0    0  501    0  0.00000000000E+00  0.00000000000E+00  0.17683536071E+04  0.17683536071E+04  0.25500000000E-02 0. -1.
         -2   -1    0    0    0  501 -0.00000000000E+00 -0.00000000000E+00 -0.13027568314E+02  0.13027568564E+02  0.25500000000E-02 0.  1.
         25    2    1    2    0    0  0.20931245587E+02  0.41536736726E+02  0.15028650486E+04  0.15087717607E+04  0.12500181591E+03 0.  0.
         23    2    1    2    0    0 -0.20931245587E+02 -0.41536736726E+02  0.25246099017E+03  0.27260941497E+03  0.91738345492E+02 0.  0.
        -11    1    4    4    0    0  0.14451701645E+02  0.17878244019E+01  0.18229256588E+03  0.18287325548E+03  0.51100000000E-03 0. -1.
         11    1    4    4    0    0 -0.35382947232E+02 -0.43324561128E+02  0.70168424295E+02  0.89736159490E+02  0.51100000000E-03 0.  1.
    9000005    1    3    3    0    0  0.16720808005E+02  0.58080911049E+02  0.14738728805E+04  0.14751119434E+04  0.10000000000E+01 0.  0.
    9000005    1    3    3    0    0  0.42104375818E+01 -0.16544174322E+02  0.28992168058E+02  0.33659817251E+02  0.10000000000E+01 0.  0.
<mgrwt>
<rscale>  0 0.12498646E+03</rscale>
<asrwt>0</asrwt>
<pdfrwt beam="1">  1        2 0.27205449E+00 0.13337493E+03</pdfrwt>
<pdfrwt beam="2">  1       -2 0.20042406E-02 0.13337493E+03</pdfrwt>
<totfact> 0.74523222E+03</totfact>
</mgrwt>
</event>
<event>
 8    2  0.8128359E-004  0.1255753E+03  0.7818608E-02  0.1249331E+00
         -2   -1    0    0    0  501 -0.00000000000E+00  0.00000000000E+00  0.15406978436E+02  0.15406978647E+02  0.25500000000E-02 0.  1.
          2   -1    0    0  501    0  0.00000000000E+00 -0.00000000000E+00 -0.89615866714E+03  0.89615866714E+03  0.25500000000E-02 0. -1.
         25    2    1    2    0    0 -0.11591359666E+02  0.32125872183E+01 -0.32933210763E+03  0.35246106556E+03  0.12499794111E+03 0.  0.
         23    2    1    2    0    0  0.11591359666E+02 -0.32125872183E+01 -0.55141958107E+03  0.55910458024E+03  0.91595288712E+02 0.  0.
        -11    1    4    4    0    0  0.73759474749E+01 -0.42761510187E+02 -0.16381547324E+03  0.16946521952E+03  0.51100000000E-03 0.  1.
         11    1    4    4    0    0  0.42154121909E+01  0.39548922968E+02 -0.38760410783E+03  0.38963936071E+03  0.51100000000E-03 0. -1.
    9000005    1    3    3    0    0 -0.55483439677E+02  0.21441717977E+02 -0.86267042513E+02  0.10479103956E+03  0.10000000000E+01 0.  0.
    9000005    1    3    3    0    0  0.43892080011E+02 -0.18229130759E+02 -0.24306506512E+03  0.24767002599E+03  0.10000000000E+01 0.  0.
<mgrwt>
<rscale>  0 0.11629867E+03</rscale>
<asrwt>0</asrwt>
<pdfrwt beam="2">  1        2 0.13787052E+00 0.12557534E+03</pdfrwt>
<pdfrwt beam="1">  1       -2 0.23703051E-02 0.12557534E+03</pdfrwt>
<totfact> 0.17416300E+04</totfact>
</mgrwt>
</event>
<event>
 8    2  0.8128359E-004  0.1723227E+03  0.7818608E-02  0.1181983E+00
          2   -1    0    0  501    0  0.00000000000E+00  0.00000000000E+00  0.44296355072E+03  0.44296355073E+03  0.25500000000E-02 0. -1.
         -2   -1    0    0    0  501 -0.00000000000E+00 -0.00000000000E+00 -0.10719656984E+03  0.10719656987E+03  0.25500000000E-02 0.  1.
         25    2    1    2    0    0  0.54747305779E+02  0.10522812309E+03 -0.11173910081E+02  0.17268460107E+03  0.12499955921E+03 0.  0.
         23    2    1    2    0    0 -0.54747305779E+02 -0.10522812309E+03  0.34694089097E+03  0.37747551952E+03  0.89719343702E+02 0.  0.
        -11    1    4    4    0    0 -0.49703701617E+02 -0.42311411921E+02  0.27089282262E+03  0.27864607459E+03  0.51100000000E-03 0. -1.
         11    1    4    4    0    0 -0.50436041614E+01 -0.62916711170E+02  0.76048068346E+02  0.98829444938E+02  0.51100000000E-03 0.  1.
    9000005    1    3    3    0    0  0.46521195779E+02  0.80179581615E+02 -0.64672981223E+02  0.11303354133E+03  0.10000000000E+01 0.  0.
    9000005    1    3    3    0    0  0.82261099999E+01  0.25048541476E+02  0.53499071142E+02  0.59651059746E+02  0.10000000000E+01 0.  0.
<mgrwt>
<rscale>  0 0.16609421E+03</rscale>
<asrwt>0</asrwt>
<pdfrwt beam="1">  1        2 0.68148239E-01 0.17232271E+03</pdfrwt>
<pdfrwt beam="2">  1       -2 0.16491780E-01 0.17232271E+03</pdfrwt>
<totfact> 0.20553164E+03</totfact>
</mgrwt>
</event>
<event>
 8    2  0.8128359E-004  0.1287846E+03  0.7818608E-02  0.1244583E+00
          2   -1    0    0  501    0  0.00000000000E+00  0.00000000000E+00  0.86903058856E+03  0.86903058856E+03  0.25500000000E-02 0. -1.
         -2   -1    0    0    0  501 -0.00000000000E+00 -0.00000000000E+00 -0.25989328357E+02  0.25989328482E+02  0.25500000000E-02 0.  1.
         25    2    1    2    0    0 -0.29229166579E+02 -0.10315837404E+02  0.15943053286E+03  0.20494772017E+03  0.12499885005E+03 0.  0.
         23    2    1    2    0    0  0.29229166579E+02  0.10315837404E+02  0.68361072734E+03  0.69007219687E+03  0.88967688990E+02 0.  0.
        -11    1    4    4    0    0  0.41668386320E+02  0.31909808087E+02  0.23586898559E+03  0.24163747357E+03  0.51100000000E-03 0.  1.
         11    1    4    4    0    0 -0.12439219741E+02 -0.21593970683E+02  0.44774174175E+03  0.44843472330E+03  0.51100000000E-03 0. -1.
    9000005    1    3    3    0    0  0.34827436718E+02 -0.43698563963E+02  0.59399640653E+02  0.81558765013E+02  0.10000000000E+01 0.  0.
    9000005    1    3    3    0    0 -0.64056603298E+02  0.33382726559E+02  0.10003089221E+03  0.12338895515E+03  0.10000000000E+01 0.  0.
<mgrwt>
<rscale>  0 0.11910368E+03</rscale>
<asrwt>0</asrwt>
<pdfrwt beam="1">  1        2 0.13369701E+00 0.12878460E+03</pdfrwt>
<pdfrwt beam="2">  1       -2 0.39983583E-02 0.12878460E+03</pdfrwt>
<totfact> 0.84205128E+03</totfact>
</mgrwt>
</event>
<event>
 8    2  0.8128359E-004  0.1446230E+03  0.7818608E-02  0.1217296E+00
          2   -1    0    0  501    0  0.00000000000E+00  0.00000000000E+00  0.85954767713E+03  0.85954767714E+03  0.25500000000E-02 0. -1.
         -2   -1    0    0    0  501 -0.00000000000E+00 -0.00000000000E+00 -0.20663547371E+02  0.20663547528E+02  0.25500000000E-02 0.  1.
         25    2    1    2    0    0 -0.59624390556E+02  0.41598189754E+02  0.37680968512E+03  0.40361040758E+03  0.12502137802E+03 0.  0.
         23    2    1    2    0    0  0.59624390556E+02 -0.41598189754E+02  0.46207444464E+03  0.47660081709E+03  0.91378712623E+02 0.  0.
        -11    1    4    4    0    0  0.89253553901E+00 -0.54786711703E+02  0.26195456950E+03  0.26762394677E+03  0.51100000000E-03 0. -1.
         11    1    4    4    0    0  0.58731855017E+02  0.13188521948E+02  0.20011987513E+03  0.20897687032E+03  0.51100000000E-03 0.  1.
    9000005    1    3    3    0    0 -0.55552477225E+02 -0.10399577806E+02  0.32573670256E+03  0.33060494301E+03  0.10000000000E+01 0.  0.
    9000005    1    3    3    0    0 -0.40719133303E+01  0.51997767560E+02  0.51072982562E+02  0.73005464571E+02  0.10000000000E+01 0.  0.
<mgrwt>
<rscale>  0 0.13709202E+03</rscale>
<asrwt>0</asrwt>
<pdfrwt beam="1">  1        2 0.13223811E+00 0.14462304E+03</pdfrwt>
<pdfrwt beam="2">  1       -2 0.31790072E-02 0.14462304E+03</pdfrwt>
<totfact> 0.12070863E+04</totfact>
</mgrwt>
</event>
<event>
 8    2  0.8128359E-004  0.1781491E+03  0.7818608E-02  0.1175461E+00
         -2   -1    0    0    0  501 -0.00000000000E+00  0.00000000000E+00  0.54423450107E+02  0.54423450167E+02  0.25500000000E-02 0.  1.
          2   -1    0    0  501    0  0.00000000000E+00 -0.00000000000E+00 -0.88737397346E+03  0.88737397347E+03  0.25500000000E-02 0. -1.
         25    2    1    2    0    0  0.26309645525E+02  0.12418401595E+03 -0.73810748404E+03  0.75930215073E+03  0.12499292314E+03 0.  0.
         23    2    1    2    0    0 -0.26309645525E+02 -0.12418401595E+03 -0.94843039316E+02  0.18249527291E+03  0.90528753793E+02 0.  0.
        -11    1    4    4    0    0 -0.78898269517E+01  0.12083934647E+02  0.16268557738E+01  0.14522999203E+02  0.51100000000E-03 0.  1.
         11    1    4    4    0    0 -0.18419818573E+02 -0.13626795059E+03 -0.96469895090E+02  0.16797227371E+03  0.51100000000E-03 0. -1.
    9000005    1    3    3    0    0  0.18108306714E+01  0.14526766303E+03 -0.57972145517E+03  0.59764867491E+03  0.10000000000E+01 0.  0.
    9000005    1    3    3    0    0  0.24498814854E+02 -0.21083647084E+02 -0.15838602887E+03  0.16165347582E+03  0.10000000000E+01 0.  0.
<mgrwt>
<rscale>  0 0.17230954E+03</rscale>
<asrwt>0</asrwt>
<pdfrwt beam="2">  1        2 0.13651906E+00 0.17814909E+03</pdfrwt>
<pdfrwt beam="1">  1       -2 0.83728391E-02 0.17814909E+03</pdfrwt>
<totfact> 0.26999797E+03</totfact>
</mgrwt>
</event>
<event>
 8    2  0.8128359E-004  0.1878888E+03  0.7818608E-02  0.1164510E+00
          2   -1    0    0  501    0  0.00000000000E+00  0.00000000000E+00  0.19344491365E+04  0.19344491365E+04  0.25500000000E-02 0. -1.
         -2   -1    0    0    0  501 -0.00000000000E+00 -0.00000000000E+00 -0.19139752381E+02  0.19139752551E+02  0.25500000000E-02 0.  1.
         25    2    1    2    0    0 -0.69969642614E+02  0.12157880356E+03  0.64344239976E+03  0.67031359323E+03  0.12500014043E+03 0.  0.
         23    2    1    2    0    0  0.69969642614E+02 -0.12157880356E+03  0.12718669844E+04  0.12832752958E+04  0.97327809936E+02 0.  0.
        -11    1    4    4    0    0  0.65286168455E+02 -0.67531147737E+02  0.10742021703E+04  0.10783009980E+04  0.51100000000E-03 0. -1.
         11    1    4    4    0    0  0.46834741584E+01 -0.54047655820E+02  0.19766481408E+03  0.20497429779E+03  0.51100000000E-03 0.  1.
    9000005    1    3    3    0    0 -0.21159896958E+02 -0.17669528191E+02  0.22360612827E+03  0.22530125181E+03  0.10000000000E+01 0.  0.
    9000005    1    3    3    0    0 -0.48809745656E+02  0.13924833175E+03  0.41983627148E+03  0.44501234142E+03  0.10000000000E+01 0.  0.
<mgrwt>
<rscale>  0 0.18344471E+03</rscale>
<asrwt>0</asrwt>
<pdfrwt beam="1">  1        2 0.29760757E+00 0.18788877E+03</pdfrwt>
<pdfrwt beam="2">  1       -2 0.29445772E-02 0.18788877E+03</pdfrwt>
<totfact> 0.35016742E+03</totfact>
</mgrwt>
</event>
<event>
 8    2  0.8128359E-004  0.1309913E+03  0.7818608E-02  0.1240192E+00
          2   -1    0    0  501    0  0.00000000000E+00  0.00000000000E+00  0.44556930573E+03  0.44556930574E+03  0.25500000000E-02 0. -1.
         -2   -1    0    0    0  501 -0.00000000000E+00 -0.00000000000E+00 -0.35675489389E+02  0.35675489480E+02  0.25500000000E-02 0.  1.
         25    2    1    2    0    0  0.33867745924E+02  0.19672578773E+02  0.32957807851E+03  0.35465536076E+03  0.12499872207E+03 0.  0.
         23    2    1    2    0    0 -0.33867745924E+02 -0.19672578773E+02  0.80315737840E+02  0.12658943446E+03  0.89667344121E+02 0.  0.
        -11    1    4    4    0    0 -0.54733300724E+01  0.35427396625E+02  0.30485559786E+02  0.47057700001E+02  0.51100000000E-03 0.  1.
         11    1    4    4    0    0 -0.28394415852E+02 -0.55099975398E+02  0.49830178054E+02  0.79531734456E+02  0.51100000000E-03 0. -1.
    9000005    1    3    3    0    0  0.11727096532E+02  0.41772755059E+02  0.28423148287E+02  0.51878350174E+02  0.10000000000E+01 0.  0.
    9000005    1    3    3    0    0  0.22140649392E+02 -0.22100176286E+02  0.30115493022E+03  0.30277701059E+03  0.10000000000E+01 0.  0.
<mgrwt>
<rscale>  0 0.12177832E+03</rscale>
<asrwt>0</asrwt>
<pdfrwt beam="1">  1        2 0.68549127E-01 0.13099128E+03</pdfrwt>
<pdfrwt beam="2">  1       -2 0.54885366E-02 0.13099128E+03</pdfrwt>
<totfact> 0.11377040E+04</totfact>
</mgrwt>
</event>
<event>
 8    2  0.8128359E-004  0.1404178E+03  0.7818608E-02  0.1222738E+00
          2   -1    0    0  501    0  0.00000000000E+00  0.00000000000E+00  0.77477787951E+01  0.77477792147E+01  0.25500000000E-02 0.  1.
         -2   -1    0    0    0  501 -0.00000000000E+00 -0.00000000000E+00 -0.21957802421E+04  0.21957802421E+04  0.25500000000E-02 0. -1.
         25    2    1    2    0    0 -0.48907245727E+02 -0.41232234381E+02 -0.14485000202E+04  0.14552901615E+04  0.12500051958E+03 0.  0.
         23    2    1    2    0    0  0.48907245727E+02  0.41232234381E+02 -0.73953244315E+03  0.74823785983E+03  0.94125684985E+02 0.  0.
        -11    1    4    4    0    0  0.15745278718E+02 -0.14576508947E+02 -0.37455653295E+02  0.43166125364E+02  0.51100000000E-03 0.  1.
         11    1    4    4    0    0  0.33161967009E+02  0.55808743327E+02 -0.70207678986E+03  0.70507173447E+03  0.51100000000E-03 0. -1.
    9000005    1    3    3    0    0 -0.36213798821E+02 -0.67097155405E+02 -0.13615881622E+04  0.13637216692E+04  0.10000000000E+01 0.  0.
    9000005    1    3    3    0    0 -0.12693446906E+02  0.25864921024E+02 -0.86911857928E+02  0.91568492302E+02  0.10000000000E+01 0.  0.
<mgrwt>
<rscale>  0 0.13323159E+03</rscale>
<asrwt>0</asrwt>
<pdfrwt beam="1">  1        2 0.11919677E-02 0.14041775E+03</pdfrwt>
<pdfrwt beam="2">  1       -2 0.33781185E+00 0.14041775E+03</pdfrwt>
<totfact> 0.24626131E+02</totfact>
</mgrwt>
</event>
<event>
 8    2  0.8128359E-004  0.1377959E+03  0.7818608E-02  0.1227518E+00
          2   -1    0    0  501    0  0.00000000000E+00  0.00000000000E+00  0.10872527292E+03  0.10872527295E+03  0.25500000000E-02 0. -1.
         -2   -1    0    0    0  501 -0.00000000000E+00 -0.00000000000E+00 -0.16045868929E+03  0.16045868931E+03  0.25500000000E-02 0.  1.
         25    2    1    2    0    0 -0.57003710126E+02  0.10620787576E+02 -0.76187485888E+02  0.15745552729E+03  0.12500194387E+03 0.  0.
         23    2    1    2    0    0  0.57003710126E+02 -0.10620787576E+02  0.24454069526E+02  0.11172843498E+03  0.92320190473E+02 0.  0.
        -11    1    4    4    0    0  0.30140422218E+02  0.34157287219E+02  0.36223497380E+02  0.58200576323E+02  0.51100000000E-03 0. -1.
         11    1    4    4    0    0  0.26863287909E+02 -0.44778074796E+02 -0.11769427855E+02  0.53527858653E+02  0.51100000000E-03 0.  1.
    9000005    1    3    3    0    0 -0.73050195000E+02  0.49666143129E+02 -0.26458996362E+02  0.92217868395E+02  0.10000000000E+01 0.  0.
    9000005    1    3    3    0    0  0.16046484874E+02 -0.39045355553E+02 -0.49728489526E+02  0.65237658891E+02  0.10000000000E+01 0.  0.
<mgrwt>
<rscale>  0 0.12995806E+03</rscale>
<asrwt>0</asrwt>
<pdfrwt beam="1">  1        2 0.16726965E-01 0.13779590E+03</pdfrwt>
<pdfrwt beam="2">  1       -2 0.24685952E-01 0.13779590E+03</pdfrwt>
<totfact> 0.47524995E+03</totfact>
</mgrwt>
</event>
<event>
 8    2  0.8128359E-004  0.1342332E+03  0.7818608E-02  0.1232820E+00
         -2   -1    0    0    0  501 -0.00000000000E+00  0.00000000000E+00  0.10515994200E+03  0.10515994203E+03  0.25500000000E-02 0.  1.
          2   -1    0    0  501    0  0.00000000000E+00 -0.00000000000E+00 -0.13728353331E+03  0.13728353334E+03  0.25500000000E-02 0. -1.
         25    2    1    2    0    0  0.21751806959E+02 -0.43824188359E+02 -0.11321884357E+02  0.13470979447E+03  0.12499937228E+03 0.  0.
         23    2    1    2    0    0 -0.21751806959E+02  0.43824188359E+02 -0.20801706955E+02  0.10773368089E+03  0.93702371343E+02 0.  0.
        -11    1    4    4    0    0  0.46976275145E+01 -0.16173564474E+02  0.23273241444E+02  0.28727959545E+02  0.51100000000E-03 0.  1.
         11    1    4    4    0    0 -0.26449434474E+02  0.59997752833E+02 -0.44074948399E+02  0.79005721348E+02  0.51100000000E-03 0. -1.
    9000005    1    3    3    0    0  0.41005734175E+02  0.31877439960E+02 -0.20923245444E+02  0.56003782136E+02  0.10000000000E+01 0.  0.
    9000005    1    3    3    0    0 -0.19253927216E+02 -0.75701628318E+02  0.96013610872E+01  0.78706012337E+02  0.10000000000E+01 0.  0.
<mgrwt>
<rscale>  0 0.12645039E+03</rscale>
<asrwt>0</asrwt>
<pdfrwt beam="2">  1        2 0.21120544E-01 0.13423317E+03</pdfrwt>
<pdfrwt beam="1">  1       -2 0.16178453E-01 0.13423317E+03</pdfrwt>
<totfact> 0.74380626E+03</totfact>
</mgrwt>
</event>
<event>
 8    2  0.8128359E-004  0.1450874E+03  0.7818608E-02  0.1213860E+00
         -2   -1    0    0    0  501 -0.00000000000E+00  0.00000000000E+00  0.31009498574E+02  0.31009498679E+02  0.25500000000E-02 0.  1.
          2   -1    0    0  501    0  0.00000000000E+00 -0.00000000000E+00 -0.61207595350E+03  0.61207595350E+03  0.25500000000E-02 0. -1.
         25    2    1    2    0    0 -0.40395591540E+02 -0.61594172991E+02 -0.24492926171E+03  0.28467646545E+03  0.12499880310E+03 0.  0.
         23    2    1    2    0    0  0.40395591540E+02  0.61594172991E+02 -0.33613719321E+03  0.35840898673E+03  0.10021548356E+03 0.  0.
        -11    1    4    4    0    0 -0.65539217349E+01  0.68039690158E+02 -0.25908129454E+03  0.26794676805E+03  0.51100000000E-03 0.  1.
         11    1    4    4    0    0  0.46949513275E+02 -0.64455171676E+01 -0.77055898677E+02  0.90462218685E+02  0.51100000000E-03 0. -1.
    9000005    1    3    3    0    0 -0.69451669738E+02 -0.83466713958E+02 -0.17838835047E+03  0.20883876640E+03  0.10000000000E+01 0.  0.
    9000005    1    3    3    0    0  0.29056078198E+02  0.21872540967E+02 -0.66540911233E+02  0.75837699044E+02  0.10000000000E+01 0.  0.
<mgrwt>
<rscale>  0 0.13960606E+03</rscale>
<asrwt>0</asrwt>
<pdfrwt beam="2">  1        2 0.94165522E-01 0.14508738E+03</pdfrwt>
<pdfrwt beam="1">  1       -2 0.47706925E-02 0.14508738E+03</pdfrwt>
<totfact> 0.99486375E+03</totfact>
</mgrwt>
</event>
<event>
 8    2  0.8128359E-004  0.2065873E+03  0.7818608E-02  0.1148058E+00
          2   -1    0    0  501    0  0.00000000000E+00  0.00000000000E+00  0.11747228063E+04  0.11747228063E+04  0.25500000000E-02 0. -1.
         -2   -1    0    0    0  501 -0.00000000000E+00 -0.00000000000E+00 -0.33350376102E+02  0.33350376199E+02  0.25500000000E-02 0.  1.
         25    2    1    2    0    0 -0.16435456336E+03 -0.63983150071E+01  0.56854291639E+03  0.60491267610E+03  0.12499974797E+03 0.  0.
         23    2    1    2    0    0  0.16435456336E+03  0.63983150071E+01  0.57282951376E+03  0.60316050636E+03  0.92820168408E+02 0.  0.
        -11    1    4    4    0    0  0.16609780170E+03  0.26554309239E+02  0.49777123031E+03  0.52542345664E+03  0.51100000000E-03 0.  1.
         11    1    4    4    0    0 -0.17432383375E+01 -0.20155994232E+02  0.75058283448E+02  0.77737049712E+02  0.51100000000E-03 0. -1.
    9000005    1    3    3    0    0 -0.88778833844E+02 -0.64356110927E+02  0.26547502130E+03  0.28723052986E+03  0.10000000000E+01 0.  0.
    9000005    1    3    3    0    0 -0.75575729516E+02  0.57957795920E+02  0.30306789509E+03  0.31768214623E+03  0.10000000000E+01 0.  0.
<mgrwt>
<rscale>  0 0.20200585E+03</rscale>
<asrwt>0</asrwt>
<pdfrwt beam="1">  1        2 0.18072659E+00 0.20658726E+03</pdfrwt>
<pdfrwt beam="2">  1       -2 0.51308268E-02 0.20658726E+03</pdfrwt>
<totfact> 0.38655194E+03</totfact>
</mgrwt>
</event>
<event>
 8    2  0.8128359E-004  0.1265065E+03  0.7818608E-02  0.1246250E+00
         -2   -1    0    0    0  501 -0.00000000000E+00  0.00000000000E+00  0.57641776153E+01  0.57641781793E+01  0.25500000000E-02 0.  1.
          2   -1    0    0  501    0  0.00000000000E+00 -0.00000000000E+00 -0.33413497653E+04  0.33413497653E+04  0.25500000000E-02 0. -1.
         25    2    1    2    0    0 -0.18785700641E+02  0.51615770840E+01 -0.28077664221E+04  0.28106149086E+04  0.12499735660E+03 0.  0.
         23    2    1    2    0    0  0.18785700641E+02 -0.51615770840E+01 -0.52781916566E+03  0.53649903491E+03  0.94120127514E+02 0.  0.
        -11    1    4    4    0    0  0.55100672501E+02 -0.16589346628E+02 -0.29031805582E+03  0.29596598464E+03  0.51100000000E-03 0.  1.
         11    1    4    4    0    0 -0.36314971861E+02  0.11427769544E+02 -0.23750110984E+03  0.24053305027E+03  0.51100000000E-03 0. -1.
    9000005    1    3    3    0    0 -0.11717964225E+02 -0.19160812545E+02 -0.26925160356E+04  0.26926098955E+04  0.10000000000E+01 0.  0.
    9000005    1    3    3    0    0 -0.70677364154E+01  0.24322389629E+02 -0.11525038649E+03  0.11800501312E+03  0.10000000000E+01 0.  0.
<mgrwt>
<rscale>  0 0.11810889E+03</rscale>
<asrwt>0</asrwt>
<pdfrwt beam="2">  1        2 0.51405226E+00 0.12650646E+03</pdfrwt>
<pdfrwt beam="1">  1       -2 0.88679927E-03 0.12650646E+03</pdfrwt>
<totfact> 0.33275486E+03</totfact>
</mgrwt>
</event>
<event>
 8    2  0.8128359E-004  0.1750948E+03  0.7818608E-02  0.1179010E+00
          2   -1    0    0  501    0  0.00000000000E+00  0.00000000000E+00  0.11071830201E+03  0.11071830204E+03  0.25500000000E-02 0.  1.
         -2   -1    0    0    0  501 -0.00000000000E+00 -0.00000000000E+00 -0.24115675629E+03  0.24115675630E+03  0.25500000000E-02 0. -1.
         25    2    1    2    0    0  0.89998865819E+02  0.83268802414E+02 -0.64687074268E+02  0.18666177003E+03  0.12499883803E+03 0.  0.
         23    2    1    2    0    0 -0.89998865819E+02 -0.83268802414E+02 -0.65751380010E+02  0.16521328831E+03  0.89099367876E+02 0.  0.
        -11    1    4    4    0    0  0.12926980375E+02  0.43535675566E+01 -0.16359849994E+02  0.21300353616E+02  0.51100000000E-03 0. -1.
         11    1    4    4    0    0 -0.10292584619E+03 -0.87622369971E+02 -0.49391530016E+02  0.14391293469E+03  0.51100000000E-03 0.  1.
    9000005    1    3    3    0    0  0.49645301530E+02  0.84557579571E+02  0.13183090430E+02  0.98941569122E+02  0.10000000000E+01 0.  0.
    9000005    1    3    3    0    0  0.40353564289E+02 -0.12887771570E+01 -0.77870164698E+02  0.87720200909E+02  0.10000000000E+01 0.  0.
<mgrwt>
<rscale>  0 0.16889052E+03</rscale>
<asrwt>0</asrwt>
<pdfrwt beam="1">  1        2 0.17033585E-01 0.17509483E+03</pdfrwt>
<pdfrwt beam="2">  1       -2 0.37101039E-01 0.17509483E+03</pdfrwt>
<totfact> 0.22574528E+03</totfact>
</mgrwt>
</event>
<event>
 8    2  0.8128359E-004  0.2099082E+03  0.7818608E-02  0.1145358E+00
         -2   -1    0    0    0  501 -0.00000000000E+00  0.00000000000E+00  0.83278421196E+02  0.83278421235E+02  0.25500000000E-02 0.  1.
          2   -1    0    0  501    0  0.00000000000E+00 -0.00000000000E+00 -0.58385547503E+03  0.58385547504E+03  0.25500000000E-02 0. -1.
         25    2    1    2    0    0  0.95779451325E+02 -0.13879166104E+03 -0.39674190232E+03  0.44884919016E+03  0.12499851991E+03 0.  0.
         23    2    1    2    0    0 -0.95779451325E+02  0.13879166104E+03 -0.10383515152E+03  0.21828470611E+03  0.91813102346E+02 0.  0.
        -11    1    4    4    0    0 -0.38751724944E+02  0.26662898312E+02  0.10607547632E+02  0.48219564490E+02  0.51100000000E-03 0.  1.
         11    1    4    4    0    0 -0.57027726381E+02  0.11212876273E+03 -0.11444269915E+03  0.17006514162E+03  0.51100000000E-03 0. -1.
    9000005    1    3    3    0    0  0.34467538332E+02 -0.45650756165E+02 -0.28155575623E+02  0.63763149042E+02  0.10000000000E+01 0.  0.
    9000005    1    3    3    0    0  0.61311912992E+02 -0.93140904874E+02 -0.36858632670E+03  0.38508604112E+03  0.10000000000E+01 0.  0.
<mgrwt>
<rscale>  0 0.20528207E+03</rscale>
<asrwt>0</asrwt>
<pdfrwt beam="2">  1        2 0.89823917E-01 0.20990821E+03</pdfrwt>
<pdfrwt beam="1">  1       -2 0.12812065E-01 0.20990821E+03</pdfrwt>
<totfact> 0.22968908E+03</totfact>
</mgrwt>
</event>
<event>
 8    2  0.8128359E-004  0.1522882E+03  0.7818608E-02  0.1206526E+00
         -2   -1    0    0    0  501 -0.00000000000E+00  0.00000000000E+00  0.13520566010E+03  0.13520566012E+03  0.25500000000E-02 0.  1.
          2   -1    0    0  501    0  0.00000000000E+00 -0.00000000000E+00 -0.16872043938E+03  0.16872043940E+03  0.25500000000E-02 0. -1.
         25    2    1    2    0    0 -0.18330306542E+02 -0.85031304892E+02  0.41026528109E+02  0.15771765306E+03  0.12500143650E+03 0.  0.
         23    2    1    2    0    0  0.18330306542E+02  0.85031304892E+02 -0.74541307393E+02  0.14620844647E+03  0.90852519839E+02 0.  0.
        -11    1    4    4    0    0  0.33419235127E+01  0.83057430066E+02 -0.14608749523E+02  0.84398582362E+02  0.51100000000E-03 0.  1.
         11    1    4    4    0    0  0.14988383030E+02  0.19738748267E+01 -0.59932557870E+02  0.61809864106E+02  0.51100000000E-03 0. -1.
    9000005    1    3    3    0    0  0.44234860954E+01  0.27552206161E+02 -0.12977830736E+02  0.30791482332E+02  0.10000000000E+01 0.  0.
    9000005    1    3    3    0    0 -0.22753792638E+02 -0.11258351105E+03  0.54004358846E+02  0.12692617072E+03  0.10000000000E+01 0.  0.
<mgrwt>
<rscale>  0 0.14517844E+03</rscale>
<asrwt>0</asrwt>
<pdfrwt beam="2">  1        2 0.25956991E-01 0.15228815E+03</pdfrwt>
<pdfrwt beam="1">  1       -2 0.20800871E-01 0.15228815E+03</pdfrwt>
<totfact> 0.39121875E+03</totfact>
</mgrwt>
</event>
<event>
 8    2  0.8128359E-004  0.1914887E+03  0.7818608E-02  0.1161961E+00
          2   -1    0    0  501    0  0.00000000000E+00  0.00000000000E+00  0.18543637574E+04  0.18543637574E+04  0.25500000000E-02 0. -1.
         -2   -1    0    0    0  501 -0.00000000000E+00 -0.00000000000E+00 -0.19091324822E+02  0.19091324992E+02  0.25500000000E-02 0.  1.
         25    2    1    2    0    0 -0.43846238993E+02 -0.13827362896E+03  0.12159471804E+04  0.12309327583E+04  0.12500328247E+03 0.  0.
         23    2    1    2    0    0  0.43846238993E+02  0.13827362896E+03  0.61932525210E+03  0.64252232408E+03  0.90714276256E+02 0.  0.
        -11    1    4    4    0    0  0.11359078215E+02  0.13160895806E+03  0.55044876417E+03  0.56607754635E+03  0.51100000000E-03 0. -1.
         11    1    4    4    0    0  0.32487160778E+02  0.66646709066E+01  0.68876487924E+02  0.76444777733E+02  0.51100000000E-03 0.  1.
    9000005    1    3    3    0    0  0.21272917919E+01 -0.50131117102E+02  0.11459513026E+03  0.12510275038E+03  0.10000000000E+01 0.  0.
    9000005    1    3    3    0    0 -0.45973530784E+02 -0.88142511862E+02  0.11013520502E+04  0.11058300079E+04  0.10000000000E+01 0.  0.
<mgrwt>
<rscale>  0 0.18617112E+03</rscale>
<asrwt>0</asrwt>
<pdfrwt beam="1">  1        2 0.28528682E+00 0.19148867E+03</pdfrwt>
<pdfrwt beam="2">  1       -2 0.29371260E-02 0.19148867E+03</pdfrwt>
<totfact> 0.38673385E+03</totfact>
</mgrwt>
</event>
<event>
 8    2  0.8128359E-004  0.1317324E+03  0.7818608E-02  0.1234500E+00
         -2   -1    0    0    0  501 -0.00000000000E+00  0.00000000000E+00  0.67966681566E+02  0.67966681613E+02  0.25500000000E-02 0.  1.
          2   -1    0    0  501    0  0.00000000000E+00 -0.00000000000E+00 -0.46348849245E+03  0.46348849246E+03  0.25500000000E-02 0. -1.
         25    2    1    2    0    0 -0.40423647126E+02 -0.96821592471E+01 -0.40217596271E+03  0.42320080675E+03  0.12500240955E+03 0.  0.
         23    2    1    2    0    0  0.40423647126E+02  0.96821592471E+01  0.66541518300E+01  0.10825436732E+03  0.99734221073E+02 0.  0.
        -11    1    4    4    0    0  0.12552153556E+02 -0.41406172223E+02  0.21325531401E+02  0.48236976967E+02  0.51100000000E-03 0.  1.
         11    1    4    4    0    0  0.27871493569E+02  0.51088331470E+02 -0.14671379571E+02  0.60017390355E+02  0.51100000000E-03 0. -1.
    9000005    1    3    3    0    0 -0.13436447654E+02 -0.63399250350E+02 -0.27491373501E+03  0.28245099534E+03  0.10000000000E+01 0.  0.
    9000005    1    3    3    0    0 -0.26987199471E+02  0.53717091103E+02 -0.12726222770E+03  0.14074981141E+03  0.10000000000E+01 0.  0.
<mgrwt>
<rscale>  0 0.12536469E+03</rscale>
<asrwt>0</asrwt>
<pdfrwt beam="2">  1        2 0.71305920E-01 0.13173237E+03</pdfrwt>
<pdfrwt beam="1">  1       -2 0.10456413E-01 0.13173237E+03</pdfrwt>
<totfact> 0.40450802E+03</totfact>
</mgrwt>
</event>
<event>
 8    2  0.8128359E-004  0.1307097E+03  0.7818608E-02  0.1241258E+00
         -2   -1    0    0    0  501 -0.00000000000E+00  0.00000000000E+00  0.40094021287E+02  0.40094021368E+02  0.25500000000E-02 0.  1.
          2   -1    0    0  501    0  0.00000000000E+00 -0.00000000000E+00 -0.32674581249E+03  0.32674581250E+03  0.25500000000E-02 0. -1.
         25    2    1    2    0    0  0.37299468700E+02  0.82952119156E+01 -0.18754122334E+03  0.22859733340E+03  0.12499987792E+03 0.  0.
         23    2    1    2    0    0 -0.37299468700E+02 -0.82952119156E+01 -0.99110567867E+02  0.13824250047E+03  0.88476117498E+02 0.  0.
        -11    1    4    4    0    0 -0.57474016908E+02  0.19488226113E+02 -0.74009080780E+02  0.95709966120E+02  0.51100000000E-03 0.  1.
         11    1    4    4    0    0  0.20174548208E+02 -0.27783438029E+02 -0.25101487086E+02  0.42532534351E+02  0.51100000000E-03 0. -1.
    9000005    1    3    3    0    0 -0.38982909255E+02 -0.16886129236E+02 -0.10566473080E+03  0.11388961282E+03  0.10000000000E+01 0.  0.
    9000005    1    3    3    0    0  0.76282377955E+02  0.25181341152E+02 -0.81876492538E+02  0.11470772057E+03  0.10000000000E+01 0.  0.
<mgrwt>
<rscale>  0 0.12112162E+03</rscale>
<asrwt>0</asrwt>
<pdfrwt beam="2">  1        2 0.50268585E-01 0.13070972E+03</pdfrwt>
<pdfrwt beam="1">  1       -2 0.61683112E-02 0.13070972E+03</pdfrwt>
<totfact> 0.13270055E+04</totfact>
</mgrwt>
</event>
<event>
 8    2  0.8797502E-004  0.1296998E+03  0.7818608E-02  0.1252494E+00
         -2   -1    0    0    0  501 -0.00000000000E+00  0.00000000000E+00  0.27550235936E+02  0.27550236054E+02  0.25500000000E-02 0.  1.
          2   -1    0    0  501    0  0.00000000000E+00 -0.00000000000E+00 -0.39422671492E+03  0.39422671493E+03  0.25500000000E-02 0. -1.
         25    2    1    2    0    0 -0.23471442670E+02  0.25406064356E+02 -0.23057129011E+03  0.26454709182E+03  0.12500266894E+03 0.  0.
         23    2    1    2    0    0  0.23471442670E+02 -0.25406064356E+02 -0.13610518888E+03  0.15722985917E+03  0.70712300527E+02 0.  0.
        -11    1    4    4    0    0  0.23009352907E+02 -0.11277318053E+01 -0.45875783794E+01  0.23489316207E+02  0.51100000000E-03 0.  1.
         11    1    4    4    0    0  0.46208976226E+00 -0.24278332550E+02 -0.13151761050E+03  0.13374054296E+03  0.51100000000E-03 0. -1.
    9000005    1    3    3    0    0 -0.40014735763E+02 -0.18710799442E+02 -0.20735747988E+03  0.21201272970E+03  0.10000000000E+01 0.  0.
    9000005    1    3    3    0    0  0.16543293093E+02  0.44116863797E+02 -0.23213810224E+02  0.52534362115E+02  0.10000000000E+01 0.  0.
<mgrwt>
<rscale>  0 0.11447846E+03</rscale>
<asrwt>0</asrwt>
<pdfrwt beam="2">  1        2 0.60650260E-01 0.12969982E+03</pdfrwt>
<pdfrwt beam="1">  1       -2 0.42384981E-02 0.12969982E+03</pdfrwt>
<totfact> 0.19087248E+04</totfact>
</mgrwt>
</event>
<event>
 8    2  0.8128359E-004  0.1330387E+03  0.7818608E-02  0.1235851E+00
          2   -1    0    0  501    0  0.00000000000E+00  0.00000000000E+00  0.81135448087E+03  0.81135448087E+03  0.25500000000E-02 0. -1.
         -2   -1    0    0    0  501 -0.00000000000E+00 -0.00000000000E+00 -0.20833506177E+02  0.20833506333E+02  0.25500000000E-02 0.  1.
         25    2    1    2    0    0 -0.40973496169E+02 -0.19903903300E+02  0.26128258995E+03  0.29320282501E+03  0.12499724810E+03 0.  0.
         23    2    1    2    0    0  0.40973496169E+02  0.19903903300E+02  0.52923838475E+03  0.53898516219E+03  0.91305774299E+02 0.  0.
        -11    1    4    4    0    0  0.68007044326E+02  0.19700842184E+02  0.44258318576E+03  0.44821084054E+03  0.51100000000E-03 0. -1.
         11    1    4    4    0    0 -0.27033548157E+02  0.20306111630E+00  0.86655198982E+02  0.90774321648E+02  0.51100000000E-03 0.  1.
    9000005    1    3    3    0    0 -0.35208826197E+02 -0.61490726400E+02  0.78918456045E+02  0.10606551551E+03  0.10000000000E+01 0.  0.
    9000005    1    3    3    0    0 -0.57646699725E+01  0.41586823100E+02  0.18236413390E+03  0.18713730951E+03  0.10000000000E+01 0.  0.
<mgrwt>
<rscale>  0 0.12450133E+03</rscale>
<asrwt>0</asrwt>
<pdfrwt beam="1">  1        2 0.12482378E+00 0.13303873E+03</pdfrwt>
<pdfrwt beam="2">  1       -2 0.32051546E-02 0.13303873E+03</pdfrwt>
<totfact> 0.12761808E+04</totfact>
</mgrwt>
</event>
<event>
 8    2  0.8128359E-004  0.2540664E+03  0.7818608E-02  0.1113113E+00
         -2   -1    0    0    0  501 -0.00000000000E+00  0.00000000000E+00  0.26504623165E+02  0.26504623288E+02  0.25500000000E-02 0.  1.
          2   -1    0    0  501    0  0.00000000000E+00 -0.00000000000E+00 -0.23708271695E+04  0.23708271695E+04  0.25500000000E-02 0. -1.
         25    2    1    2    0    0 -0.17084395920E+03 -0.14049035500E+03 -0.14183392239E+04  0.14409149409E+04  0.12499805885E+03 0.  0.
         23    2    1    2    0    0  0.17084395920E+03  0.14049035500E+03 -0.92598332245E+03  0.95641685187E+03  0.91448799017E+02 0.  0.
        -11    1    4    4    0    0  0.16469830517E+03  0.90036620579E+02 -0.75930624118E+03  0.78216244647E+03  0.51100000000E-03 0.  1.
         11    1    4    4    0    0  0.61456540255E+01  0.50453734419E+02 -0.16667708127E+03  0.17425440540E+03  0.51100000000E-03 0. -1.
    9000005    1    3    3    0    0 -0.15356843743E+03 -0.12825684873E+03 -0.13954506326E+04  0.14097221543E+04  0.10000000000E+01 0.  0.
    9000005    1    3    3    0    0 -0.17275521770E+02 -0.12233506263E+02 -0.22888591287E+02  0.31192786650E+02  0.10000000000E+01 0.  0.
<mgrwt>
<rscale>  0 0.25030435E+03</rscale>
<asrwt>0</asrwt>
<pdfrwt beam="2">  1        2 0.36474247E+00 0.25406636E+03</pdfrwt>
<pdfrwt beam="1">  1       -2 0.40776362E-02 0.25406636E+03</pdfrwt>
<totfact> 0.12613138E+03</totfact>
</mgrwt>
</event>
<event>
 8    2  0.8128359E-004  0.1410708E+03  0.7818608E-02  0.1221659E+00
          2   -1    0    0  501    0  0.00000000000E+00  0.00000000000E+00  0.10293974335E+04  0.10293974335E+04  0.25500000000E-02 0. -1.
         -2   -1    0    0    0  501 -0.00000000000E+00 -0.00000000000E+00 -0.16844158674E+02  0.16844158867E+02  0.25500000000E-02 0.  1.
         25    2    1    2    0    0  0.62582714275E+02  0.18962604124E+02  0.43207852749E+03  0.45452482419E+03  0.12499914162E+03 0.  0.
         23    2    1    2    0    0 -0.62582714275E+02 -0.18962604124E+02  0.58047474737E+03  0.59171676822E+03  0.94348423255E+02 0.  0.
        -11    1    4    4    0    0 -0.24861009222E+01  0.12127719850E+01 -0.34156147787E+01  0.43952176580E+01  0.51100000000E-03 0.  1.
         11    1    4    4    0    0 -0.60096613353E+02 -0.20175376109E+02  0.58389036215E+03  0.58732155056E+03  0.51100000000E-03 0. -1.
    9000005    1    3    3    0    0  0.82592893856E+02  0.48610998420E+02  0.37583827147E+03  0.38786598405E+03  0.10000000000E+01 0.  0.
    9000005    1    3    3    0    0 -0.20010179581E+02 -0.29648394296E+02  0.56240256020E+02  0.66658840137E+02  0.10000000000E+01 0.  0.
<mgrwt>
<rscale>  0 0.13398561E+03</rscale>
<asrwt>0</asrwt>
<pdfrwt beam="1">  1        2 0.15836879E+00 0.14107077E+03</pdfrwt>
<pdfrwt beam="2">  1       -2 0.25914098E-02 0.14107077E+03</pdfrwt>
<totfact> 0.12784594E+04</totfact>
</mgrwt>
</event>
<event>
 8    2  0.8128359E-004  0.1333856E+03  0.7818608E-02  0.1235354E+00
          2   -1    0    0  501    0  0.00000000000E+00  0.00000000000E+00  0.17352504545E+04  0.17352504545E+04  0.25500000000E-02 0. -1.
         -2   -1    0    0    0  501 -0.00000000000E+00 -0.00000000000E+00 -0.85769434019E+01  0.85769437810E+01  0.25500000000E-02 0.  1.
         25    2    1    2    0    0  0.40566416747E+02  0.22821203580E+02  0.11936949005E+04  0.12011241509E+04  0.12500107563E+03 0.  0.
         23    2    1    2    0    0 -0.40566416747E+02 -0.22821203580E+02  0.53297861064E+03  0.54270324742E+03  0.91072355078E+02 0.  0.
        -11    1    4    4    0    0  0.29553102927E+02 -0.57102188223E+01  0.15621026102E+03  0.15908374568E+03  0.51100000000E-03 0.  1.
         11    1    4    4    0    0 -0.70119519674E+02 -0.17110984758E+02  0.37676834963E+03  0.38361950175E+03  0.51100000000E-03 0. -1.
    9000005    1    3    3    0    0 -0.28060087642E+02 -0.53499030471E+01  0.79935834086E+03  0.79986920623E+03  0.10000000000E+01 0.  0.
    9000005    1    3    3    0    0  0.68626504389E+02  0.28171106627E+02  0.39433655964E+03  0.40125494467E+03  0.10000000000E+01 0.  0.
<mgrwt>
<rscale>  0 0.12481773E+03</rscale>
<asrwt>0</asrwt>
<pdfrwt beam="1">  1        2 0.26696133E+00 0.13338557E+03</pdfrwt>
<pdfrwt beam="2">  1       -2 0.13195312E-02 0.13338557E+03</pdfrwt>
<totfact> 0.14168709E+04</totfact>
</mgrwt>
</event>
<event>
 8    2  0.8128359E-004  0.1308118E+03  0.7818608E-02  0.1240721E+00
          2   -1    0    0  501    0  0.00000000000E+00  0.00000000000E+00  0.16822629891E+04  0.16822629891E+04  0.25500000000E-02 0. -1.
         -2   -1    0    0    0  501 -0.00000000000E+00 -0.00000000000E+00 -0.78225077175E+01  0.78225081332E+01  0.25500000000E-02 0.  1.
         25    2    1    2    0    0 -0.33411263860E+02 -0.19271817502E+02  0.86638959498E+03  0.87620925257E+03  0.12499603390E+03 0.  0.
         23    2    1    2    0    0  0.33411263860E+02  0.19271817502E+02  0.80805088635E+03  0.81387624462E+03  0.89222144773E+02 0.  0.
        -11    1    4    4    0    0 -0.15526022498E+02  0.40079710211E+01  0.28978002618E+02  0.33118663051E+02  0.51100000000E-03 0.  1.
         11    1    4    4    0    0  0.48937286357E+02  0.15263846480E+02  0.77907288374E+03  0.78075758157E+03  0.51100000000E-03 0. -1.
    9000005    1    3    3    0    0  0.24804204855E+02  0.14186763622E+02  0.54478275078E+02  0.61525566198E+02  0.10000000000E+01 0.  0.
    9000005    1    3    3    0    0 -0.58215468714E+02 -0.33458581124E+02  0.81191131991E+03  0.81468368637E+03  0.10000000000E+01 0.  0.
<mgrwt>
<rscale>  0 0.12145193E+03</rscale>
<asrwt>0</asrwt>
<pdfrwt beam="1">  1        2 0.25880976E+00 0.13081179E+03</pdfrwt>
<pdfrwt beam="2">  1       -2 0.12034624E-02 0.13081179E+03</pdfrwt>
<totfact> 0.17195715E+04</totfact>
</mgrwt>
</event>
<event>
 8    2  0.8128359E-004  0.1351866E+03  0.7818608E-02  0.1239451E+00
          2   -1    0    0  501    0  0.00000000000E+00  0.00000000000E+00  0.27118330517E+04  0.27118330517E+04  0.25500000000E-02 0. -1.
         -2   -1    0    0    0  501 -0.00000000000E+00 -0.00000000000E+00 -0.47251925647E+01  0.47251932527E+01  0.25500000000E-02 0.  1.
         25    2    1    2    0    0 -0.44213588914E+02 -0.26370582363E+02  0.17352745926E+04  0.17405324835E+04  0.12500066255E+03 0.  0.
         23    2    1    2    0    0  0.44213588914E+02  0.26370582363E+02  0.97183326655E+03  0.97602576138E+03  0.74270719998E+02 0.  0.
        -11    1    4    4    0    0  0.11348549090E+02  0.42708234852E+02  0.30516088148E+03  0.30834387699E+03  0.51100000000E-03 0.  1.
         11    1    4    4    0    0  0.32865039824E+02 -0.16337652489E+02  0.66667238507E+03  0.66768188439E+03  0.51100000000E-03 0. -1.
    9000005    1    3    3    0    0 -0.45060528846E+02 -0.42608715449E+02  0.37013664670E+03  0.37529733695E+03  0.10000000000E+01 0.  0.
    9000005    1    3    3    0    0  0.84693993222E+00  0.16238133085E+02  0.13651379459E+04  0.13652351466E+04  0.10000000000E+01 0.  0.
<mgrwt>
<rscale>  0 0.12223736E+03</rscale>
<asrwt>0</asrwt>
<pdfrwt beam="1">  1        2 0.41720460E+00 0.13518659E+03</pdfrwt>
<pdfrwt beam="2">  1       -2 0.72695360E-03 0.13518659E+03</pdfrwt>
<totfact> 0.10268252E+04</totfact>
</mgrwt>
</event>
<event>
 8    2  0.8128359E-004  0.1600978E+03  0.7818608E-02  0.1195569E+00
         -2   -1    0    0    0  501 -0.00000000000E+00  0.00000000000E+00  0.15213875396E+02  0.15213875610E+02  0.25500000000E-02 0.  1.
          2   -1    0    0  501    0  0.00000000000E+00 -0.00000000000E+00 -0.18076578938E+04  0.18076578938E+04  0.25500000000E-02 0. -1.
         25    2    1    2    0    0  0.68938874652E+02  0.72482012198E+02 -0.13541316829E+04  0.13635629528E+04  0.12500040343E+03 0.  0.
         23    2    1    2    0    0 -0.68938874652E+02 -0.72482012198E+02 -0.43831233550E+03  0.45930881669E+03  0.94024864311E+02 0.  0.
        -11    1    4    4    0    0 -0.78492984425E+02 -0.20324433400E+02 -0.21482486392E+03  0.22961697097E+03  0.51100000000E-03 0. -1.
         11    1    4    4    0    0  0.95541097733E+01 -0.52157578797E+02 -0.22348747157E+03  0.22969184572E+03  0.51100000000E-03 0.  1.
    9000005    1    3    3    0    0  0.76764098819E+02  0.13314797631E+02 -0.39712362914E+03  0.40469517853E+03  0.10000000000E+01 0.  0.
    9000005    1    3    3    0    0 -0.78252241672E+01  0.59167214567E+02 -0.95700805381E+03  0.95886777424E+03  0.10000000000E+01 0.  0.
<mgrwt>
<rscale>  0 0.15406146E+03</rscale>
<asrwt>0</asrwt>
<pdfrwt beam="2">  1        2 0.27810104E+00 0.16009782E+03</pdfrwt>
<pdfrwt beam="1">  1       -2 0.23405977E-02 0.16009782E+03</pdfrwt>
<totfact> 0.56990582E+03</totfact>
</mgrwt>
</event>
<event>
 8    2  0.8128359E-004  0.1727975E+03  0.7818608E-02  0.1181049E+00
         -2   -1    0    0    0  501 -0.00000000000E+00  0.00000000000E+00  0.12146715770E+02  0.12146716038E+02  0.25500000000E-02 0.  1.
          2   -1    0    0  501    0  0.00000000000E+00 -0.00000000000E+00 -0.21850413601E+04  0.21850413601E+04  0.25500000000E-02 0. -1.
         25    2    1    2    0    0 -0.18394703865E+01 -0.11931010593E+03 -0.12927151606E+04  0.13042129663E+04  0.12498275799E+03 0.  0.
         23    2    1    2    0    0  0.18394703865E+01  0.11931010593E+03 -0.88017948371E+03  0.89297510989E+03  0.91925721747E+02 0.  0.
        -11    1    4    4    0    0 -0.10834079605E+02  0.13212644567E+03 -0.78077110242E+03  0.79194588786E+03  0.51100000000E-03 0.  1.
         11    1    4    4    0    0  0.12673549991E+02 -0.12816339738E+02 -0.99408381283E+02  0.10102922203E+03  0.51100000000E-03 0. -1.
    9000005    1    3    3    0    0  0.28464392632E+02 -0.47825354034E+02 -0.99442994236E+03  0.99598664469E+03  0.10000000000E+01 0.  0.
    9000005    1    3    3    0    0 -0.30303863018E+02 -0.71484751900E+02 -0.29828521829E+03  0.30822632158E+03  0.10000000000E+01 0.  0.
<mgrwt>
<rscale>  0 0.16696641E+03</rscale>
<asrwt>0</asrwt>
<pdfrwt beam="2">  1        2 0.33615990E+00 0.17279750E+03</pdfrwt>
<pdfrwt beam="1">  1       -2 0.18687273E-02 0.17279750E+03</pdfrwt>
<totfact> 0.50580230E+03</totfact>
</mgrwt>
</event>
<event>
 8    2  0.8128359E-004  0.1457243E+03  0.7818608E-02  0.1214484E+00
          2   -1    0    0  501    0  0.00000000000E+00  0.00000000000E+00  0.28101647431E+04  0.28101647431E+04  0.25500000000E-02 0.  1.
         -2   -1    0    0    0  501 -0.00000000000E+00 -0.00000000000E+00 -0.64965420068E+01  0.64965425072E+01  0.25500000000E-02 0. -1.
         25    2    1    2    0    0  0.67308952041E+02 -0.33044874465E+02  0.13069665708E+04  0.13150654685E+04  0.12495243331E+03 0.  0.
         23    2    1    2    0    0 -0.67308952041E+02  0.33044874465E+02  0.14967016304E+04  0.15015958171E+04  0.95140785037E+02 0.  0.
        -11    1    4    4    0    0  0.71388060411E+01  0.62546229632E+01  0.85259045692E+03  0.85264328420E+03  0.51100000000E-03 0.  1.
         11    1    4    4    0    0 -0.74447758082E+02  0.26790251502E+02  0.64411117344E+03  0.64895253294E+03  0.51100000000E-03 0. -1.
    9000005    1    3    3    0    0  0.77558683062E+02 -0.68740091655E+02  0.79063184400E+03  0.79739592566E+03  0.10000000000E+01 0.  0.
    9000005    1    3    3    0    0 -0.10249731021E+02  0.35695217190E+02  0.51633472677E+03  0.51766954284E+03  0.10000000000E+01 0.  0.
<mgrwt>
<rscale>  0 0.13914525E+03</rscale>
<asrwt>0</asrwt>
<pdfrwt beam="1">  1        2 0.43233394E+00 0.14572429E+03</pdfrwt>
<pdfrwt beam="2">  1       -2 0.99946595E-03 0.14572429E+03</pdfrwt>
<totfact> 0.57516905E+03</totfact>
</mgrwt>
</event>
<event>
 8    2  0.8128359E-004  0.3746032E+03  0.7818608E-02  0.1053886E+00
         -2   -1    0    0    0  501 -0.00000000000E+00  0.00000000000E+00  0.54747538793E+02  0.54747538853E+02  0.25500000000E-02 0. -1.
          2   -1    0    0  501    0  0.00000000000E+00 -0.00000000000E+00 -0.25041433238E+04  0.25041433238E+04  0.25500000000E-02 0.  1.
         25    2    1    2    0    0 -0.34981629330E+03 -0.48257668033E+02 -0.13125045829E+04  0.13649160419E+04  0.12500911807E+03 0.  0.
         23    2    1    2    0    0  0.34981629330E+03  0.48257668033E+02 -0.11368912021E+04  0.11939748208E+04  0.91400359397E+02 0.  0.
        -11    1    4    4    0    0  0.64883786576E+02 -0.15698595191E+02 -0.30788645303E+03  0.31504034601E+03  0.51100000000E-03 0. -1.
         11    1    4    4    0    0  0.28493250672E+03  0.63956263224E+02 -0.82900474910E+03  0.87893447482E+03  0.51100000000E-03 0.  1.
    9000005    1    3    3    0    0 -0.28829516365E+02 -0.43140168398E+02 -0.23175946375E+03  0.23749876670E+03  0.10000000000E+01 0.  0.
    9000005    1    3    3    0    0 -0.32098677693E+03 -0.51174996346E+01 -0.10807451192E+04  0.11274172752E+04  0.10000000000E+01 0.  0.
<mgrwt>
<rscale>  0 0.37211928E+03</rscale>
<asrwt>0</asrwt>
<pdfrwt beam="2">  1        2 0.38525273E+00 0.37460315E+03</pdfrwt>
<pdfrwt beam="1">  1       -2 0.84227002E-02 0.37460315E+03</pdfrwt>
<totfact> 0.34100655E+02</totfact>
</mgrwt>
</event>
<event>
 8    2  0.8128359E-004  0.1983611E+03  0.7818608E-02  0.1155988E+00
         -2   -1    0    0    0  501 -0.00000000000E+00  0.00000000000E+00  0.16783683367E+02  0.16783683560E+02  0.25500000000E-02 0.  1.
          2   -1    0    0  501    0  0.00000000000E+00 -0.00000000000E+00 -0.21438177406E+04  0.21438177406E+04  0.25500000000E-02 0. -1.
         25    2    1    2    0    0  0.14687033657E+03  0.46377240339E+02 -0.96497297871E+03  0.98514971582E+03  0.12500147501E+03 0.  0.
         23    2    1    2    0    0 -0.14687033657E+03 -0.46377240339E+02 -0.11620610786E+04  0.11754517084E+04  0.87057591491E+02 0.  0.
        -11    1    4    4    0    0 -0.29315529962E+02  0.11177908720E+02 -0.87623384780E+02  0.93070959493E+02  0.51100000000E-03 0.  1.
         11    1    4    4    0    0 -0.11755480661E+03 -0.57555149059E+02 -0.10744376938E+04  0.10823807489E+04  0.51100000000E-03 0. -1.
    9000005    1    3    3    0    0  0.12753240873E+03  0.66530357626E+01 -0.43559552163E+03  0.45393087207E+03  0.10000000000E+01 0.  0.
    9000005    1    3    3    0    0  0.19337927841E+02  0.39724204576E+02 -0.52937745709E+03  0.53121884375E+03  0.10000000000E+01 0.  0.
<mgrwt>
<rscale>  0 0.19276878E+03</rscale>
<asrwt>0</asrwt>
<pdfrwt beam="2">  1        2 0.32981790E+00 0.19836107E+03</pdfrwt>
<pdfrwt beam="1">  1       -2 0.25821068E-02 0.19836107E+03</pdfrwt>
<totfact> 0.33081338E+03</totfact>
</mgrwt>
</event>
<event>
 8    2  0.8128359E-004  0.1675057E+03  0.7818608E-02  0.1185934E+00
         -2   -1    0    0    0  501 -0.00000000000E+00  0.00000000000E+00  0.19722929989E+02  0.19722930154E+02  0.25500000000E-02 0. -1.
          2   -1    0    0  501    0  0.00000000000E+00 -0.00000000000E+00 -0.13251373742E+04  0.13251373742E+04  0.25500000000E-02 0.  1.
         25    2    1    2    0    0 -0.74563327261E+02  0.82902437534E+02 -0.83501227450E+03  0.85164761381E+03  0.12500262245E+03 0.  0.
         23    2    1    2    0    0  0.74563327261E+02 -0.82902437534E+02 -0.47040216972E+03  0.49321269056E+03  0.97714138828E+02 0.  0.
        -11    1    4    4    0    0  0.59357770983E+02 -0.99639786113E+02 -0.30563228194E+03  0.32689833851E+03  0.51100000000E-03 0. -1.
         11    1    4    4    0    0  0.15205556278E+02  0.16737348579E+02 -0.16476988778E+03  0.16631435205E+03  0.51100000000E-03 0.  1.
    9000005    1    3    3    0    0  0.18985199129E+02  0.67032947217E+02 -0.27725646725E+03  0.28587760044E+03  0.10000000000E+01 0.  0.
    9000005    1    3    3    0    0 -0.93548526390E+02  0.15869490317E+02 -0.55775580725E+03  0.56577001337E+03  0.10000000000E+01 0.  0.
<mgrwt>
<rscale>  0 0.16247144E+03</rscale>
<asrwt>0</asrwt>
<pdfrwt beam="2">  1        2 0.20386722E+00 0.16750570E+03</pdfrwt>
<pdfrwt beam="1">  1       -2 0.30342980E-02 0.16750570E+03</pdfrwt>
<totfact> 0.69678645E+03</totfact>
</mgrwt>
</event>
<event>
 8    2  0.8128359E-004  0.1482969E+03  0.7818608E-02  0.1211827E+00
         -2   -1    0    0    0  501 -0.00000000000E+00  0.00000000000E+00  0.38706525344E+02  0.38706525428E+02  0.25500000000E-02 0. -1.
          2   -1    0    0  501    0  0.00000000000E+00 -0.00000000000E+00 -0.50080846025E+03  0.50080846026E+03  0.25500000000E-02 0.  1.
         25    2    1    2    0    0  0.45097452272E+02 -0.65827077183E+02 -0.31851919091E+03  0.35134946155E+03  0.12499993946E+03 0.  0.
         23    2    1    2    0    0 -0.45097452272E+02  0.65827077183E+02 -0.14358274400E+03  0.18816552413E+03  0.91778405993E+02 0.  0.
        -11    1    4    4    0    0 -0.46140776778E+02  0.10354868963E+02 -0.11789520917E+03  0.12702548932E+03  0.51100000000E-03 0.  1.
         11    1    4    4    0    0  0.10433245065E+01  0.55472208220E+02 -0.25687534833E+02  0.61140034812E+02  0.51100000000E-03 0. -1.
    9000005    1    3    3    0    0 -0.34996380873E+01 -0.11474818988E+01  0.11208451995E+02  0.11840336886E+02  0.10000000000E+01 0.  0.
    9000005    1    3    3    0    0  0.48597090359E+02 -0.64679595284E+02 -0.32972764290E+03  0.33950912467E+03  0.10000000000E+01 0.  0.
<mgrwt>
<rscale>  0 0.14112242E+03</rscale>
<asrwt>0</asrwt>
<pdfrwt beam="2">  1        2 0.77047451E-01 0.14829690E+03</pdfrwt>
<pdfrwt beam="1">  1       -2 0.59548504E-02 0.14829690E+03</pdfrwt>
<totfact> 0.89294521E+03</totfact>
</mgrwt>
</event>
<event>
 8    2  0.8128359E-004  0.2369424E+03  0.7818608E-02  0.1124689E+00
          2   -1    0    0  501    0  0.00000000000E+00  0.00000000000E+00  0.21672900248E+04  0.21672900248E+04  0.25500000000E-02 0. -1.
         -2   -1    0    0    0  501 -0.00000000000E+00 -0.00000000000E+00 -0.37262824272E+02  0.37262824359E+02  0.25500000000E-02 0.  1.
         25    2    1    2    0    0 -0.45784529220E+02 -0.19601142034E+03  0.43621269118E+03  0.49641031161E+03  0.12499994202E+03 0.  0.
         23    2    1    2    0    0  0.45784529220E+02  0.19601142034E+03  0.16938145093E+04  0.17081425375E+04  0.90700807535E+02 0.  0.
        -11    1    4    4    0    0 -0.68101483598E+00 -0.23609928047E+01  0.25117384099E+03  0.25118586040E+03  0.51100000000E-03 0. -1.
         11    1    4    4    0    0  0.46465544056E+02  0.19837241315E+03  0.14426406684E+04  0.14569566771E+04  0.51100000000E-03 0.  1.
    9000005    1    3    3    0    0 -0.14553247405E+01 -0.11613717902E+03  0.35725240511E+03  0.37565974402E+03  0.10000000000E+01 0.  0.
    9000005    1    3    3    0    0 -0.44329204479E+02 -0.79874241328E+02  0.78960286071E+02  0.12075056759E+03  0.10000000000E+01 0.  0.
<mgrwt>
<rscale>  0 0.23279382E+03</rscale>
<asrwt>0</asrwt>
<pdfrwt beam="1">  1        2 0.33342916E+00 0.23694237E+03</pdfrwt>
<pdfrwt beam="2">  1       -2 0.57327435E-02 0.23694237E+03</pdfrwt>
<totfact> 0.96701872E+02</totfact>
</mgrwt>
</event>
<event>
 8    2  0.8128359E-004  0.2455783E+03  0.7818608E-02  0.1118961E+00
          2   -1    0    0  501    0  0.00000000000E+00  0.00000000000E+00  0.48821901754E+03  0.48821901755E+03  0.25500000000E-02 0. -1.
         -2   -1    0    0    0  501 -0.00000000000E+00 -0.00000000000E+00 -0.11826842467E+03  0.11826842470E+03  0.25500000000E-02 0.  1.
         25    2    1    2    0    0 -0.19443180311E+03 -0.82949206831E+02  0.14254458989E+03  0.28395012286E+03  0.12499766074E+03 0.  0.
         23    2    1    2    0    0  0.19443180311E+03  0.82949206831E+02  0.22740600298E+03  0.32253731938E+03  0.87364381909E+02 0.  0.
        -11    1    4    4    0    0  0.90170707764E+02  0.82880687457E+02  0.14385474077E+03  0.18892895843E+03  0.51100000000E-03 0. -1.
         11    1    4    4    0    0  0.10426109535E+03  0.68519373604E-01  0.83551262216E+02  0.13360836095E+03  0.51100000000E-03 0.  1.
    9000005    1    3    3    0    0 -0.19041692891E+03 -0.67368704037E+02  0.76533105007E+02  0.21599876218E+03  0.10000000000E+01 0.  0.
    9000005    1    3    3    0    0 -0.40148742013E+01 -0.15580502794E+02  0.66011484885E+02  0.67951360685E+02  0.10000000000E+01 0.  0.
<mgrwt>
<rscale>  0 0.24125299E+03</rscale>
<asrwt>0</asrwt>
<pdfrwt beam="1">  1        2 0.75110617E-01 0.24557832E+03</pdfrwt>
<pdfrwt beam="2">  1       -2 0.18195143E-01 0.24557832E+03</pdfrwt>
<totfact> 0.15776996E+03</totfact>
</mgrwt>
</event>
<event>
 8    2  0.8128359E-004  0.1441196E+03  0.7818608E-02  0.1218893E+00
         -2   -1    0    0    0  501 -0.00000000000E+00  0.00000000000E+00  0.95344688118E+01  0.95344691528E+01  0.25500000000E-02 0.  1.
          2   -1    0    0  501    0  0.00000000000E+00 -0.00000000000E+00 -0.17483142797E+04  0.17483142797E+04  0.25500000000E-02 0. -1.
         25    2    1    2    0    0  0.61085289492E+02  0.37603386145E+02 -0.96728312539E+03  0.97796068311E+03  0.12500010318E+03 0.  0.
         23    2    1    2    0    0 -0.61085289492E+02 -0.37603386145E+02 -0.77149668551E+03  0.77988806576E+03  0.88728981285E+02 0.  0.
        -11    1    4    4    0    0 -0.42582343721E+02 -0.64421462090E+02 -0.43348455202E+03  0.44030925224E+03  0.51100000000E-03 0. -1.
         11    1    4    4    0    0 -0.18502945771E+02  0.26818075946E+02 -0.33801213349E+03  0.33957881351E+03  0.51100000000E-03 0.  1.
    9000005    1    3    3    0    0 -0.81056322276E+01 -0.38023617405E+02 -0.35904254279E+03  0.36114269242E+03  0.10000000000E+01 0.  0.
    9000005    1    3    3    0    0  0.69190921719E+02  0.75627003550E+02 -0.60824058259E+03  0.61681799068E+03  0.10000000000E+01 0.  0.
<mgrwt>
<rscale>  0 0.13594441E+03</rscale>
<asrwt>0</asrwt>
<pdfrwt beam="2">  1        2 0.26897117E+00 0.14411958E+03</pdfrwt>
<pdfrwt beam="1">  1       -2 0.14668428E-02 0.14411958E+03</pdfrwt>
<totfact> 0.12019887E+04</totfact>
</mgrwt>
</event>
<event>
 8    2  0.8128359E-004  0.1315867E+03  0.7818608E-02  0.1239550E+00
         -2   -1    0    0    0  501 -0.00000000000E+00  0.00000000000E+00  0.57952903326E+01  0.57952908936E+01  0.25500000000E-02 0.  1.
          2   -1    0    0  501    0  0.00000000000E+00 -0.00000000000E+00 -0.31317574732E+04  0.31317574732E+04  0.25500000000E-02 0. -1.
         25    2    1    2    0    0 -0.23441694892E-01 -0.41104939858E+02 -0.25464149576E+04  0.25498125825E+04  0.12500181078E+03 0.  0.
         23    2    1    2    0    0  0.23441694892E-01  0.41104939858E+02 -0.57954722524E+03  0.58774018161E+03  0.88735101141E+02 0.  0.
        -11    1    4    4    0    0 -0.27434321041E+02  0.53894910407E+02 -0.47683380037E+03  0.48065348903E+03  0.51100000000E-03 0. -1.
         11    1    4    4    0    0  0.27457762736E+02 -0.12789970548E+02 -0.10271342486E+03  0.10708669258E+03  0.51100000000E-03 0.  1.
    9000005    1    3    3    0    0  0.59906230184E+02 -0.39165819432E+02 -0.14157195688E+04  0.14175279945E+04  0.10000000000E+01 0.  0.
    9000005    1    3    3    0    0 -0.59929671879E+02 -0.19391204268E+01 -0.11306953889E+04  0.11322845880E+04  0.10000000000E+01 0.  0.
<mgrwt>
<rscale>  0 0.12217614E+03</rscale>
<asrwt>0</asrwt>
<pdfrwt beam="2">  1        2 0.48180749E+00 0.13158674E+03</pdfrwt>
<pdfrwt beam="1">  1       -2 0.89158567E-03 0.13158674E+03</pdfrwt>
<totfact> 0.44221548E+03</totfact>
</mgrwt>
</event>
<event>
 8    2  0.8128359E-004  0.1311268E+03  0.7818608E-02  0.1239671E+00
         -2   -1    0    0    0  501 -0.00000000000E+00  0.00000000000E+00  0.25547180600E+02  0.25547180727E+02  0.25500000000E-02 0.  1.
          2   -1    0    0  501    0  0.00000000000E+00 -0.00000000000E+00 -0.52083187272E+03  0.52083187272E+03  0.25500000000E-02 0. -1.
         25    2    1    2    0    0 -0.39620010902E+02 -0.53251639806E+00 -0.25736640382E+03  0.28884547983E+03  0.12499686622E+03 0.  0.
         23    2    1    2    0    0  0.39620010902E+02  0.53251639806E+00 -0.23791828830E+03  0.25753357362E+03  0.90268492829E+02 0.  0.
        -11    1    4    4    0    0  0.22304766801E+02 -0.12052619592E+02 -0.23448821715E+03  0.23585481179E+03  0.51100000000E-03 0. -1.
         11    1    4    4    0    0  0.17315244101E+02  0.12585135990E+02 -0.34300711457E+01  0.21678761831E+02  0.51100000000E-03 0.  1.
    9000005    1    3    3    0    0 -0.17216987142E+02 -0.53160483960E+02 -0.54480239343E+02  0.78048434834E+02  0.10000000000E+01 0.  0.
    9000005    1    3    3    0    0 -0.22403023760E+02  0.52627967562E+02 -0.20288616448E+03  0.21079704500E+03  0.10000000000E+01 0.  0.
<mgrwt>
<rscale>  0 0.12210071E+03</rscale>
<asrwt>0</asrwt>
<pdfrwt beam="2">  1        2 0.80127972E-01 0.13112683E+03</pdfrwt>
<pdfrwt beam="1">  1       -2 0.39303359E-02 0.13112683E+03</pdfrwt>
<totfact> 0.15810464E+04</totfact>
</mgrwt>
</event>
<event>
 8    2  0.8128359E-004  0.1272069E+03  0.7818608E-02  0.1246754E+00
          2   -1    0    0  501    0  0.00000000000E+00  0.00000000000E+00  0.17689171172E+04  0.17689171172E+04  0.25500000000E-02 0. -1.
         -2   -1    0    0    0  501 -0.00000000000E+00 -0.00000000000E+00 -0.80369707251E+01  0.80369711297E+01  0.25500000000E-02 0.  1.
         25    2    1    2    0    0 -0.83331908073E+01 -0.22098943873E+02  0.13277246377E+04  0.13338044506E+04  0.12499517457E+03 0.  0.
         23    2    1    2    0    0  0.83331908073E+01  0.22098943873E+02  0.43315550876E+03  0.44314963766E+03  0.90554410128E+02 0.  0.
        -11    1    4    4    0    0  0.14115286530E+02  0.36267640857E+02  0.42299294744E+03  0.42477949182E+03  0.51100000000E-03 0. -1.
         11    1    4    4    0    0 -0.57820957226E+01 -0.14168696985E+02  0.10162561329E+02  0.18370145841E+02  0.51100000000E-03 0.  1.
    9000005    1    3    3    0    0  0.36725132343E+02 -0.58628556295E+02  0.71684019959E+03  0.72017144813E+03  0.10000000000E+01 0.  0.
    9000005    1    3    3    0    0 -0.45058323150E+02  0.36529612423E+02  0.61088443810E+03  0.61363300252E+03  0.10000000000E+01 0.  0.
<mgrwt>
<rscale>  0 0.11781025E+03</rscale>
<asrwt>0</asrwt>
<pdfrwt beam="1">  1        2 0.27214098E+00 0.12720691E+03</pdfrwt>
<pdfrwt beam="2">  1       -2 0.12364576E-02 0.12720691E+03</pdfrwt>
<totfact> 0.14918361E+04</totfact>
</mgrwt>
</event>
<event>
 8    2  0.8128359E-004  0.1264162E+03  0.7818608E-02  0.1246947E+00
         -2   -1    0    0    0  501 -0.00000000000E+00  0.00000000000E+00  0.59420417640E+01  0.59420423111E+01  0.25500000000E-02 0.  1.
          2   -1    0    0  501    0  0.00000000000E+00 -0.00000000000E+00 -0.24978105475E+04  0.24978105475E+04  0.25500000000E-02 0. -1.
         25    2    1    2    0    0 -0.56710868924E+01  0.18118222990E+02 -0.19103545524E+04  0.19145327285E+04  0.12498248402E+03 0.  0.
         23    2    1    2    0    0  0.56710868924E+01 -0.18118222990E+02 -0.58151395332E+03  0.58921986132E+03  0.93065223548E+02 0.  0.
        -11    1    4    4    0    0 -0.27999656332E+02 -0.13240638072E+02 -0.69645519403E+02  0.76222002233E+02  0.51100000000E-03 0.  1.
         11    1    4    4    0    0  0.33670743224E+02 -0.48775849181E+01 -0.51186843392E+03  0.51299785908E+03  0.51100000000E-03 0. -1.
    9000005    1    3    3    0    0 -0.50984235221E+02 -0.31626474404E+01 -0.38731557383E+03  0.39067089514E+03  0.10000000000E+01 0.  0.
    9000005    1    3    3    0    0  0.45313148328E+02  0.21280870431E+02 -0.15230389786E+04  0.15238618333E+04  0.10000000000E+01 0.  0.
<mgrwt>
<rscale>  0 0.11769615E+03</rscale>
<asrwt>0</asrwt>
<pdfrwt beam="2">  1        2 0.38427771E+00 0.12641619E+03</pdfrwt>
<pdfrwt beam="1">  1       -2 0.91416231E-03 0.12641619E+03</pdfrwt>
<totfact> 0.96586733E+03</totfact>
</mgrwt>
</event>
<event>
 8    2  0.8128359E-004  0.2058635E+03  0.7818608E-02  0.1148558E+00
          2   -1    0    0  501    0  0.00000000000E+00  0.00000000000E+00  0.95308796379E+03  0.95308796379E+03  0.25500000000E-02 0. -1.
         -2   -1    0    0    0  501 -0.00000000000E+00 -0.00000000000E+00 -0.60212118139E+02  0.60212118193E+02  0.25500000000E-02 0.  1.
         25    2    1    2    0    0  0.61126856893E+02  0.15171763321E+03  0.17230967720E+03  0.26845933749E+03  0.12500023267E+03 0.  0.
         23    2    1    2    0    0 -0.61126856893E+02 -0.15171763321E+03  0.72056616845E+03  0.74484074450E+03  0.93901004708E+02 0.  0.
        -11    1    4    4    0    0 -0.80883198317E+02 -0.11240372530E+03  0.45341356420E+03  0.47408917878E+03  0.51100000000E-03 0.  1.
         11    1    4    4    0    0  0.19756341423E+02 -0.39313907903E+02  0.26715260425E+03  0.27075156572E+03  0.51100000000E-03 0. -1.
    9000005    1    3    3    0    0  0.94461925173E+02  0.90341713668E+02  0.82060703268E+02  0.15433612525E+03  0.10000000000E+01 0.  0.
    9000005    1    3    3    0    0 -0.33335068279E+02  0.61375919540E+02  0.90248973930E+02  0.11412321224E+03  0.10000000000E+01 0.  0.
<mgrwt>
<rscale>  0 0.20140641E+03</rscale>
<asrwt>0</asrwt>
<pdfrwt beam="1">  1        2 0.14662891E+00 0.20586353E+03</pdfrwt>
<pdfrwt beam="2">  1       -2 0.92634034E-02 0.20586353E+03</pdfrwt>
<totfact> 0.20987339E+03</totfact>
</mgrwt>
</event>
<event>
 8    2  0.8128359E-004  0.1368956E+03  0.7818608E-02  0.1230630E+00
          2   -1    0    0  501    0  0.00000000000E+00  0.00000000000E+00  0.10323654818E+04  0.10323654818E+04  0.25500000000E-02 0. -1.
         -2   -1    0    0    0  501 -0.00000000000E+00 -0.00000000000E+00 -0.15330455671E+02  0.15330455883E+02  0.25500000000E-02 0.  1.
         25    2    1    2    0    0 -0.11264076332E+02 -0.54661096202E+02  0.42355087184E+03  0.44512440956E+03  0.12500273638E+03 0.  0.
         23    2    1    2    0    0  0.11264076332E+02  0.54661096202E+02  0.59348415433E+03  0.60257152816E+03  0.88058447944E+02 0.  0.
        -11    1    4    4    0    0 -0.36122363517E+02  0.31365270232E+02  0.20457339894E+03  0.21009255312E+03  0.51100000000E-03 0. -1.
         11    1    4    4    0    0  0.47386439849E+02  0.23295825970E+02  0.38891075539E+03  0.39247897504E+03  0.51100000000E-03 0.  1.
    9000005    1    3    3    0    0 -0.27594583879E+02  0.34203745806E+02  0.18179645803E+03  0.18703558335E+03  0.10000000000E+01 0.  0.
    9000005    1    3    3    0    0  0.16330507547E+02 -0.88864842007E+02  0.24175441380E+03  0.25808882621E+03  0.10000000000E+01 0.  0.
<mgrwt>
<rscale>  0 0.12788387E+03</rscale>
<asrwt>0</asrwt>
<pdfrwt beam="1">  1        2 0.15882542E+00 0.13689558E+03</pdfrwt>
<pdfrwt beam="2">  1       -2 0.23585323E-02 0.13689558E+03</pdfrwt>
<totfact> 0.14584783E+04</totfact>
</mgrwt>
</event>
<event>
 8    2  0.8128359E-004  0.2101107E+03  0.7818608E-02  0.1145266E+00
         -2   -1    0    0    0  501 -0.00000000000E+00  0.00000000000E+00  0.13087919861E+03  0.13087919864E+03  0.25500000000E-02 0.  1.
          2   -1    0    0  501    0  0.00000000000E+00 -0.00000000000E+00 -0.30909552169E+03  0.30909552170E+03  0.25500000000E-02 0. -1.
         25    2    1    2    0    0 -0.16884713586E+03  0.34843176894E+01 -0.10139186416E+03  0.23329558644E+03  0.12500009911E+03 0.  0.
         23    2    1    2    0    0  0.16884713586E+03 -0.34843176894E+01 -0.76824458916E+02  0.20667913390E+03  0.91064653649E+02 0.  0.
        -11    1    4    4    0    0  0.14877871177E+02 -0.90822170987E+00  0.19875619083E+02  0.24843835285E+02  0.51100000000E-03 0.  1.
         11    1    4    4    0    0  0.15396926468E+03 -0.25760959796E+01 -0.96700077999E+02  0.18183529861E+03  0.51100000000E-03 0. -1.
    9000005    1    3    3    0    0 -0.98417219098E+02 -0.68791657329E+00  0.12604619444E+02  0.99228517451E+02  0.10000000000E+01 0.  0.
    9000005    1    3    3    0    0 -0.70429916760E+02  0.41722342627E+01 -0.11399648360E+03  0.13406706899E+03  0.10000000000E+01 0.  0.
<mgrwt>
<rscale>  0 0.20539421E+03</rscale>
<asrwt>0</asrwt>
<pdfrwt beam="2">  1        2 0.47553157E-01 0.21011073E+03</pdfrwt>
<pdfrwt beam="1">  1       -2 0.20135261E-01 0.21011073E+03</pdfrwt>
<totfact> 0.21768835E+03</totfact>
</mgrwt>
</event>
<event>
 8    2  0.8128359E-004  0.1279376E+03  0.7818608E-02  0.1245185E+00
         -2   -1    0    0    0  501 -0.00000000000E+00  0.00000000000E+00  0.36015306774E+02  0.36015306864E+02  0.25500000000E-02 0.  1.
          2   -1    0    0  501    0  0.00000000000E+00 -0.00000000000E+00 -0.34764613282E+03  0.34764613283E+03  0.25500000000E-02 0. -1.
         25    2    1    2    0    0  0.97832141270E+01  0.25449518950E+02 -0.16155473043E+03  0.20607758988E+03  0.12499861132E+03 0.  0.
         23    2    1    2    0    0 -0.97832141270E+01 -0.25449518950E+02 -0.15007609562E+03  0.17758384981E+03  0.90938440422E+02 0.  0.
        -11    1    4    4    0    0 -0.10940812258E+01  0.76273018849E+01  0.10713970814E+02  0.13197042042E+02  0.51100000000E-03 0.  1.
         11    1    4    4    0    0 -0.86891329012E+01 -0.33076820835E+02 -0.16079006643E+03  0.16438680777E+03  0.51100000000E-03 0. -1.
    9000005    1    3    3    0    0  0.10026451844E+02 -0.84323339370E+01  0.18593833375E+02  0.22767622444E+02  0.10000000000E+01 0.  0.
    9000005    1    3    3    0    0 -0.24323771671E+00  0.33881852887E+02 -0.18014856380E+03  0.18330996743E+03  0.10000000000E+01 0.  0.
<mgrwt>
<rscale>  0 0.11874316E+03</rscale>
<asrwt>0</asrwt>
<pdfrwt beam="2">  1        2 0.53484018E-01 0.12793765E+03</pdfrwt>
<pdfrwt beam="1">  1       -2 0.55408167E-02 0.12793765E+03</pdfrwt>
<totfact> 0.14588481E+04</totfact>
</mgrwt>
</event>
<event>
 8    2  0.8128359E-004  0.1710366E+03  0.7818608E-02  0.1176930E+00
         -2   -1    0    0    0  501 -0.00000000000E+00  0.00000000000E+00  0.51913202837E+02  0.51913202899E+02  0.25500000000E-02 0.  1.
          2   -1    0    0  501    0  0.00000000000E+00 -0.00000000000E+00 -0.85061969337E+03  0.85061969337E+03  0.25500000000E-02 0. -1.
         25    2    1    2    0    0 -0.44853432360E+02 -0.10776342397E+03 -0.66291879248E+03  0.68462751655E+03  0.12501489934E+03 0.  0.
         23    2    1    2    0    0  0.44853432360E+02  0.10776342397E+03 -0.13578769806E+03  0.21790537972E+03  0.12417596237E+03 0.  0.
        -11    1    4    4    0    0  0.43504441270E+02  0.79711512405E+02 -0.15790654552E+03  0.18215663243E+03  0.51100000000E-03 0. -1.
         11    1    4    4    0    0  0.13489910901E+01  0.28051911565E+02  0.22118847467E+02  0.35748747292E+02  0.51100000000E-03 0.  1.
    9000005    1    3    3    0    0 -0.43788485419E+02 -0.12182795055E+03 -0.38177883183E+03  0.40313218356E+03  0.10000000000E+01 0.  0.
    9000005    1    3    3    0    0 -0.10649469407E+01  0.14064526582E+02 -0.28113996064E+03  0.28149533298E+03  0.10000000000E+01 0.  0.
<mgrwt>
<rscale>  0 0.17088331E+03</rscale>
<asrwt>0</asrwt>
<pdfrwt beam="2">  1        2 0.13086456E+00 0.17103658E+03</pdfrwt>
<pdfrwt beam="1">  1       -2 0.79866472E-02 0.17103658E+03</pdfrwt>
<totfact> 0.30672893E+03</totfact>
</mgrwt>
</event>
<event>
 8    2  0.8128359E-004  0.1490420E+03  0.7818608E-02  0.1211609E+00
         -2   -1    0    0    0  501 -0.00000000000E+00  0.00000000000E+00  0.72979979715E+02  0.72979979760E+02  0.25500000000E-02 0.  1.
          2   -1    0    0  501    0  0.00000000000E+00 -0.00000000000E+00 -0.27377204053E+03  0.27377204054E+03  0.25500000000E-02 0. -1.
         25    2    1    2    0    0 -0.73333982695E+02  0.34783669149E+02 -0.57817038545E+02  0.15986347746E+03  0.12500297925E+03 0.  0.
         23    2    1    2    0    0  0.73333982695E+02 -0.34783669149E+02 -0.14297502227E+03  0.18688854284E+03  0.88868969814E+02 0.  0.
        -11    1    4    4    0    0  0.42620513827E+02 -0.23608648915E+02 -0.97181784895E+01  0.49682184895E+02  0.51100000000E-03 0.  1.
         11    1    4    4    0    0  0.30713468868E+02 -0.11175020234E+02 -0.13325684378E+03  0.13720635795E+03  0.51100000000E-03 0. -1.
    9000005    1    3    3    0    0 -0.79284123570E+02 -0.25048096541E+02 -0.54932308693E+02  0.99659108610E+02  0.10000000000E+01 0.  0.
    9000005    1    3    3    0    0  0.59501408753E+01  0.59831765690E+02 -0.28847298516E+01  0.60204368848E+02  0.10000000000E+01 0.  0.
<mgrwt>
<rscale>  0 0.14128567E+03</rscale>
<asrwt>0</asrwt>
<pdfrwt beam="2">  1        2 0.42118775E-01 0.14904201E+03</pdfrwt>
<pdfrwt beam="1">  1       -2 0.11227689E-01 0.14904201E+03</pdfrwt>
<totfact> 0.63814931E+03</totfact>
</mgrwt>
</event>
<event>
 8    2  0.8128359E-004  0.1303716E+03  0.7818608E-02  0.1240755E+00
          2   -1    0    0  501    0  0.00000000000E+00  0.00000000000E+00  0.29682378230E+04  0.29682378230E+04  0.25500000000E-02 0. -1.
         -2   -1    0    0    0  501 -0.00000000000E+00 -0.00000000000E+00 -0.46112000675E+01  0.46112007725E+01  0.25500000000E-02 0.  1.
         25    2    1    2    0    0 -0.14802453805E+02  0.33947644944E+02  0.19983118528E+04  0.20025601175E+04  0.12500083194E+03 0.  0.
         23    2    1    2    0    0  0.14802453805E+02 -0.33947644944E+02  0.96531477010E+03  0.97028890622E+03  0.90864739786E+02 0.  0.
        -11    1    4    4    0    0 -0.11536438425E+02 -0.22861873570E+02  0.70311763483E+02  0.74829798603E+02  0.51100000000E-03 0.  1.
         11    1    4    4    0    0  0.26338892230E+02 -0.11085771375E+02  0.89500300662E+03  0.89545910762E+03  0.51100000000E-03 0. -1.
    9000005    1    3    3    0    0 -0.36930987941E+01  0.72548006599E+02  0.17003631600E+04  0.17019144304E+04  0.10000000000E+01 0.  0.
    9000005    1    3    3    0    0 -0.11109355011E+02 -0.38600361655E+02  0.29794869277E+03  0.30064568717E+03  0.10000000000E+01 0.  0.
<mgrwt>
<rscale>  0 0.12143087E+03</rscale>
<asrwt>0</asrwt>
<pdfrwt beam="1">  1        2 0.45665139E+00 0.13037164E+03</pdfrwt>
<pdfrwt beam="2">  1       -2 0.70941635E-03 0.13037164E+03</pdfrwt>
<totfact> 0.76278311E+03</totfact>
</mgrwt>
</event>
<event>
 8    2  0.8128359E-004  0.1424934E+03  0.7818608E-02  0.1221075E+00
         -2   -1    0    0    0  501 -0.00000000000E+00  0.00000000000E+00  0.22649367344E+02  0.22649367488E+02  0.25500000000E-02 0.  1.
          2   -1    0    0  501    0  0.00000000000E+00 -0.00000000000E+00 -0.75602878163E+03  0.75602878163E+03  0.25500000000E-02 0. -1.
         25    2    1    2    0    0  0.39953427218E+02 -0.55522957387E+02 -0.49273817698E+03  0.51292813925E+03  0.12500115935E+03 0.  0.
         23    2    1    2    0    0 -0.39953427218E+02  0.55522957387E+02 -0.24064123730E+03  0.26575000987E+03  0.89642554127E+02 0.  0.
        -11    1    4    4    0    0  0.15032064197E+02  0.31030662399E+02 -0.16756022342E+03  0.17107101869E+03  0.51100000000E-03 0. -1.
         11    1    4    4    0    0 -0.54985491415E+02  0.24492294988E+02 -0.73081013884E+02  0.94678991178E+02  0.51100000000E-03 0.  1.
    9000005    1    3    3    0    0  0.57210376320E+02 -0.84977435433E+02 -0.29548904987E+03  0.31274425700E+03  0.10000000000E+01 0.  0.
    9000005    1    3    3    0    0 -0.17256949102E+02  0.29454478046E+02 -0.19724912711E+03  0.20018388225E+03  0.10000000000E+01 0.  0.
<mgrwt>
<rscale>  0 0.13439558E+03</rscale>
<asrwt>0</asrwt>
<pdfrwt beam="2">  1        2 0.11631210E+00 0.14249339E+03</pdfrwt>
<pdfrwt beam="1">  1       -2 0.34845186E-02 0.14249339E+03</pdfrwt>
<totfact> 0.12364343E+04</totfact>
</mgrwt>
</event>
<event>
 8    2  0.8128359E-004  0.1407593E+03  0.7818608E-02  0.1222993E+00
         -2   -1    0    0    0  501 -0.00000000000E+00  0.00000000000E+00  0.17979216018E+03  0.17979216020E+03  0.25500000000E-02 0. -1.
          2   -1    0    0  501    0  0.00000000000E+00 -0.00000000000E+00 -0.29672798853E+03  0.29672798854E+03  0.25500000000E-02 0.  1.
         25    2    1    2    0    0  0.42966388772E+02  0.48380495994E+02 -0.25936251596E+03  0.29509674416E+03  0.12500556296E+03 0.  0.
         23    2    1    2    0    0 -0.42966388772E+02 -0.48380495994E+02  0.14242668762E+03  0.18142340458E+03  0.91882029948E+02 0.  0.
        -11    1    4    4    0    0 -0.15770981785E+02  0.27092434562E+02  0.30689162310E+02  0.43869677005E+02  0.51100000000E-03 0.  1.
         11    1    4    4    0    0 -0.27195406987E+02 -0.75472930556E+02  0.11173752531E+03  0.13755372758E+03  0.51100000000E-03 0. -1.
    9000005    1    3    3    0    0 -0.24390543375E+02 -0.15695215187E+02 -0.14419207105E+03  0.14708362159E+03  0.10000000000E+01 0.  0.
    9000005    1    3    3    0    0  0.67356932147E+02  0.64075711181E+02 -0.11517044491E+03  0.14801312257E+03  0.10000000000E+01 0.  0.
<mgrwt>
<rscale>  0 0.13305441E+03</rscale>
<asrwt>0</asrwt>
<pdfrwt beam="2">  1        2 0.45650460E-01 0.14075928E+03</pdfrwt>
<pdfrwt beam="1">  1       -2 0.27660332E-01 0.14075928E+03</pdfrwt>
<totfact> 0.12935553E+03</totfact>
</mgrwt>
</event>
<event>
 8    2  0.8128359E-004  0.1279451E+03  0.7818608E-02  0.1244445E+00
          2   -1    0    0  501    0  0.00000000000E+00  0.00000000000E+00  0.12398495798E+04  0.12398495798E+04  0.25500000000E-02 0. -1.
         -2   -1    0    0    0  501 -0.00000000000E+00 -0.00000000000E+00 -0.20292835972E+02  0.20292836133E+02  0.25500000000E-02 0.  1.
         25    2    1    2    0    0  0.64537918710E+01 -0.26517388658E+02  0.20934897676E+03  0.24535063155E+03  0.12500046000E+03 0.  0.
         23    2    1    2    0    0 -0.64537918710E+01  0.26517388658E+02  0.10102077671E+04  0.10147917844E+04  0.92400268848E+02 0.  0.
        -11    1    4    4    0    0  0.30231240708E+02 -0.16439424691E+02  0.23221941059E+03  0.23475527099E+03  0.51100000000E-03 0. -1.
         11    1    4    4    0    0 -0.36685032579E+02  0.42956813350E+02  0.77798835650E+03  0.78003651343E+03  0.51100000000E-03 0.  1.
    9000005    1    3    3    0    0 -0.55839623279E+02 -0.21922899774E+02  0.13824000802E+03  0.15069829753E+03  0.10000000000E+01 0.  0.
    9000005    1    3    3    0    0  0.62293415150E+02 -0.45944888839E+01  0.71108968742E+02  0.94652334016E+02  0.10000000000E+01 0.  0.
<mgrwt>
<rscale>  0 0.11918636E+03</rscale>
<asrwt>0</asrwt>
<pdfrwt beam="1">  1        2 0.19074606E+00 0.12794506E+03</pdfrwt>
<pdfrwt beam="2">  1       -2 0.31219752E-02 0.12794506E+03</pdfrwt>
<totfact> 0.73582994E+03</totfact>
</mgrwt>
</event>
<event>
 8    2  0.8128359E-004  0.1265405E+03  0.7818608E-02  0.1248678E+00
          2   -1    0    0  501    0  0.00000000000E+00  0.00000000000E+00  0.19143383246E+03  0.19143383248E+03  0.25500000000E-02 0. -1.
         -2   -1    0    0    0  501 -0.00000000000E+00 -0.00000000000E+00 -0.62071635483E+02  0.62071635536E+02  0.25500000000E-02 0.  1.
         25    2    1    2    0    0  0.42022312957E+01 -0.19235046820E+02  0.74541425740E+02  0.14686362301E+03  0.12499941535E+03 0.  0.
         23    2    1    2    0    0 -0.42022312957E+01  0.19235046820E+02  0.54820771239E+02  0.10664184500E+03  0.89328161140E+02 0.  0.
        -11    1    4    4    0    0  0.24401200390E+02  0.62603879905E+01  0.68048291236E+02  0.72561566815E+02  0.51100000000E-03 0. -1.
         11    1    4    4    0    0 -0.28603431686E+02  0.12974658830E+02 -0.13227519997E+02  0.34080278189E+02  0.51100000000E-03 0.  1.
    9000005    1    3    3    0    0  0.46482886753E+02  0.30245134033E+02  0.12321329714E+02  0.56817621030E+02  0.10000000000E+01 0.  0.
    9000005    1    3    3    0    0 -0.42280655458E+02 -0.49480180853E+02  0.62220096027E+02  0.90046001981E+02  0.10000000000E+01 0.  0.
<mgrwt>
<rscale>  0 0.11667948E+03</rscale>
<asrwt>0</asrwt>
<pdfrwt beam="1">  1        2 0.29451358E-01 0.12654051E+03</pdfrwt>
<pdfrwt beam="2">  1       -2 0.95494826E-02 0.12654051E+03</pdfrwt>
<totfact> 0.11942078E+04</totfact>
</mgrwt>
</event>
<event>
 8    2  0.8128359E-004  0.1477433E+03  0.7818608E-02  0.1213044E+00
         -2   -1    0    0    0  501 -0.00000000000E+00  0.00000000000E+00  0.21109208003E+02  0.21109208157E+02  0.25500000000E-02 0.  1.
          2   -1    0    0  501    0  0.00000000000E+00 -0.00000000000E+00 -0.85403830779E+03  0.85403830779E+03  0.25500000000E-02 0. -1.
         25    2    1    2    0    0  0.77291503974E+02 -0.15145078261E+02 -0.42302988873E+03  0.44808744380E+03  0.12499888221E+03 0.  0.
         23    2    1    2    0    0 -0.77291503974E+02  0.15145078261E+02 -0.40989921105E+03  0.42706007214E+03  0.90330460062E+02 0.  0.
        -11    1    4    4    0    0 -0.45923794823E+02 -0.34816529915E+02 -0.15349464999E+03  0.16395668106E+03  0.51100000000E-03 0. -1.
         11    1    4    4    0    0 -0.31367709151E+02  0.49961608176E+02 -0.25640456106E+03  0.26310339109E+03  0.51100000000E-03 0.  1.
    9000005    1    3    3    0    0  0.84220885972E+02 -0.40840085839E+02 -0.17349955712E+03  0.19713996695E+03  0.10000000000E+01 0.  0.
    9000005    1    3    3    0    0 -0.69293819979E+01  0.25695007578E+02 -0.24953033161E+03  0.25094747686E+03  0.10000000000E+01 0.  0.
<mgrwt>
<rscale>  0 0.14021232E+03</rscale>
<asrwt>0</asrwt>
<pdfrwt beam="2">  1        2 0.13139048E+00 0.14774326E+03</pdfrwt>
<pdfrwt beam="1">  1       -2 0.32475711E-02 0.14774326E+03</pdfrwt>
<totfact> 0.11808996E+04</totfact>
</mgrwt>
</event>
<event>
 8    2  0.8128359E-004  0.1408509E+03  0.7818608E-02  0.1223301E+00
          2   -1    0    0  501    0  0.00000000000E+00  0.00000000000E+00  0.12518184319E+03  0.12518184322E+03  0.25500000000E-02 0. -1.
         -2   -1    0    0    0  501 -0.00000000000E+00 -0.00000000000E+00 -0.13071684352E+03  0.13071684355E+03  0.25500000000E-02 0.  1.
         25    2    1    2    0    0  0.41797405157E+02 -0.49669488907E+02  0.18015268821E+02  0.14199836693E+03  0.12499962038E+03 0.  0.
         23    2    1    2    0    0 -0.41797405157E+02  0.49669488907E+02 -0.23550269149E+02  0.11390031983E+03  0.90579172409E+02 0.  0.
        -11    1    4    4    0    0 -0.65691426759E+02  0.52977321062E+02 -0.70723828490E+01  0.84687535659E+02  0.51100000000E-03 0. -1.
         11    1    4    4    0    0  0.23894021602E+02 -0.33078321558E+01 -0.16477886300E+02  0.29212784171E+02  0.51100000000E-03 0.  1.
    9000005    1    3    3    0    0 -0.73513367807E+01  0.34125594399E+02 -0.16857574446E+02  0.38778552858E+02  0.10000000000E+01 0.  0.
    9000005    1    3    3    0    0  0.49148741938E+02 -0.83795083306E+02  0.34872843267E+02  0.10321981408E+03  0.10000000000E+01 0.  0.
<mgrwt>
<rscale>  0 0.13284010E+03</rscale>
<asrwt>0</asrwt>
<pdfrwt beam="1">  1        2 0.19258745E-01 0.14085094E+03</pdfrwt>
<pdfrwt beam="2">  1       -2 0.20110284E-01 0.14085094E+03</pdfrwt>
<totfact> 0.57592543E+03</totfact>
</mgrwt>
</event>
<event>
 8    2  0.8128359E-004  0.1488944E+03  0.7818608E-02  0.1211247E+00
          2   -1    0    0  501    0  0.00000000000E+00  0.00000000000E+00  0.88374727613E+03  0.88374727613E+03  0.25500000000E-02 0.  1.
         -2   -1    0    0    0  501 -0.00000000000E+00 -0.00000000000E+00 -0.21792668930E+02  0.21792669079E+02  0.25500000000E-02 0. -1.
         25    2    1    2    0    0  0.80229111710E+02  0.10332478172E+02  0.57283931773E+03  0.59187366060E+03  0.12500430275E+03 0.  0.
         23    2    1    2    0    0 -0.80229111710E+02 -0.10332478172E+02  0.28911528947E+03  0.31366628461E+03  0.90859325474E+02 0.  0.
        -11    1    4    4    0    0 -0.93141557202E+02 -0.24568643869E+02  0.19364678180E+03  0.21628232485E+03  0.51100000000E-03 0. -1.
         11    1    4    4    0    0  0.12912445492E+02  0.14236165697E+02  0.95468507671E+02  0.97383959765E+02  0.51100000000E-03 0.  1.
    9000005    1    3    3    0    0  0.62459286826E+02  0.44237518667E+02  0.52521713648E+03  0.53076563662E+03  0.10000000000E+01 0.  0.
    9000005    1    3    3    0    0  0.17769824884E+02 -0.33905040495E+02  0.47622181251E+02  0.61108023978E+02  0.10000000000E+01 0.  0.
<mgrwt>
<rscale>  0 0.14155898E+03</rscale>
<asrwt>0</asrwt>
<pdfrwt beam="1">  1        2 0.13596114E+00 0.14889441E+03</pdfrwt>
<pdfrwt beam="2">  1       -2 0.33527179E-02 0.14889441E+03</pdfrwt>
<totfact> 0.10784086E+04</totfact>
</mgrwt>
</event>
<event>
 8    2  0.8128359E-004  0.1451006E+03  0.7818608E-02  0.1216896E+00
          2   -1    0    0  501    0  0.00000000000E+00  0.00000000000E+00  0.77094455329E+02  0.77094455371E+02  0.25500000000E-02 0.  1.
         -2   -1    0    0    0  501 -0.00000000000E+00 -0.00000000000E+00 -0.22739712634E+03  0.22739712636E+03  0.25500000000E-02 0. -1.
         25    2    1    2    0    0  0.42712429476E+02 -0.60040424347E+02 -0.10625673887E+03  0.17984625576E+03  0.12499990788E+03 0.  0.
         23    2    1    2    0    0 -0.42712429476E+02  0.60040424347E+02 -0.44045932147E+02  0.12464532597E+03  0.90372611776E+02 0.  0.
        -11    1    4    4    0    0 -0.40033045537E+01  0.63838716017E+01  0.26723367802E+02  0.27765421858E+02  0.51100000000E-03 0.  1.
         11    1    4    4    0    0 -0.38709124922E+02  0.53656552745E+02 -0.70769299949E+02  0.96879904110E+02  0.51100000000E-03 0. -1.
    9000005    1    3    3    0    0  0.21184786789E+02 -0.51704137719E+02  0.13818494494E+02  0.57567906325E+02  0.10000000000E+01 0.  0.
    9000005    1    3    3    0    0  0.21527642687E+02 -0.83362866278E+01 -0.12007523336E+03  0.12227834944E+03  0.10000000000E+01 0.  0.
<mgrwt>
<rscale>  0 0.13738203E+03</rscale>
<asrwt>0</asrwt>
<pdfrwt beam="1">  1        2 0.11860685E-01 0.14510059E+03</pdfrwt>
<pdfrwt beam="2">  1       -2 0.34984173E-01 0.14510059E+03</pdfrwt>
<totfact> 0.38276540E+03</totfact>
</mgrwt>
</event>
<event>
 8    2  0.8128359E-004  0.3071940E+03  0.7818608E-02  0.1083460E+00
         -2   -1    0    0    0  501 -0.00000000000E+00  0.00000000000E+00  0.18415842951E+03  0.18415842953E+03  0.25500000000E-02 0.  1.
          2   -1    0    0  501    0  0.00000000000E+00 -0.00000000000E+00 -0.50286577520E+03  0.50286577520E+03  0.25500000000E-02 0. -1.
         25    2    1    2    0    0  0.89480237657E+02 -0.26599094253E+03 -0.10613803627E+03  0.32501298020E+03  0.12494102655E+03 0.  0.
         23    2    1    2    0    0 -0.89480237657E+02  0.26599094253E+03 -0.21256930942E+03  0.36201122453E+03  0.84312045028E+02 0.  0.
        -11    1    4    4    0    0 -0.56602340944E+02  0.71745304937E+02 -0.98495281686E+02  0.13435971977E+03  0.51100000000E-03 0. -1.
         11    1    4    4    0    0 -0.32877896713E+02  0.19424563760E+03 -0.11407402774E+03  0.22765150476E+03  0.51100000000E-03 0.  1.
    9000005    1    3    3    0    0  0.98323783026E+02 -0.26594711166E+03 -0.75947349435E+02  0.29353778700E+03  0.10000000000E+01 0.  0.
    9000005    1    3    3    0    0 -0.88435453691E+01 -0.43830873575E-01 -0.30190686832E+02  0.31475193204E+02  0.10000000000E+01 0.  0.
<mgrwt>
<rscale>  0 0.30359000E+03</rscale>
<asrwt>0</asrwt>
<pdfrwt beam="2">  1        2 0.77363965E-01 0.30719400E+03</pdfrwt>
<pdfrwt beam="1">  1       -2 0.28332066E-01 0.30719400E+03</pdfrwt>
<totfact> 0.70431013E+02</totfact>
</mgrwt>
</event>
<event>
 8    2  0.8128359E-004  0.1458322E+03  0.7818608E-02  0.1214807E+00
         -2   -1    0    0    0  501 -0.00000000000E+00  0.00000000000E+00  0.26162247796E+02  0.26162247920E+02  0.25500000000E-02 0.  1.
          2   -1    0    0  501    0  0.00000000000E+00 -0.00000000000E+00 -0.75972866907E+03  0.75972866908E+03  0.25500000000E-02 0. -1.
         25    2    1    2    0    0  0.74869984007E+02 -0.59538129929E+01 -0.52870182239E+03  0.54844567083E+03  0.12500429775E+03 0.  0.
         23    2    1    2    0    0 -0.74869984007E+02  0.59538129929E+01 -0.20486459889E+03  0.23744524617E+03  0.93647096362E+02 0.  0.
        -11    1    4    4    0    0 -0.23495855047E+02  0.61783911154E+01 -0.17765781540E+03  0.17931125758E+03  0.51100000000E-03 0. -1.
         11    1    4    4    0    0 -0.51374128960E+02 -0.22457812251E+00 -0.27206783489E+02  0.58133988594E+02  0.51100000000E-03 0.  1.
    9000005    1    3    3    0    0  0.14264271885E+02  0.54931440519E+02 -0.26825736245E+03  0.27419690939E+03  0.10000000000E+01 0.  0.
    9000005    1    3    3    0    0  0.60605712122E+02 -0.60885253512E+02 -0.26044445994E+03  0.27424876144E+03  0.10000000000E+01 0.  0.
<mgrwt>
<rscale>  0 0.13890757E+03</rscale>
<asrwt>0</asrwt>
<pdfrwt beam="2">  1        2 0.11688132E+00 0.14583222E+03</pdfrwt>
<pdfrwt beam="1">  1       -2 0.40249618E-02 0.14583222E+03</pdfrwt>
<totfact> 0.99373168E+03</totfact>
</mgrwt>
</event>
<event>
 8    2  0.8128359E-004  0.1366668E+03  0.7818608E-02  0.1229601E+00
         -2   -1    0    0    0  501 -0.00000000000E+00  0.00000000000E+00  0.29531831804E+02  0.29531831914E+02  0.25500000000E-02 0.  1.
          2   -1    0    0  501    0  0.00000000000E+00 -0.00000000000E+00 -0.68338916237E+03  0.68338916237E+03  0.25500000000E-02 0. -1.
         25    2    1    2    0    0  0.42314014371E+01 -0.55092843007E+02 -0.17390886481E+03  0.22118340723E+03  0.12499872107E+03 0.  0.
         23    2    1    2    0    0 -0.42314014371E+01  0.55092843007E+02 -0.47994846576E+03  0.49173758705E+03  0.91663507609E+02 0.  0.
        -11    1    4    4    0    0 -0.25757243112E+02  0.36477335030E+02 -0.44227360673E+03  0.44452218702E+03  0.51100000000E-03 0. -1.
         11    1    4    4    0    0  0.21525841675E+02  0.18615507976E+02 -0.37674859029E+02  0.47215400031E+02  0.51100000000E-03 0.  1.
    9000005    1    3    3    0    0  0.44616804071E+02  0.68693199474E+00 -0.13525344032E+02  0.46637602985E+02  0.10000000000E+01 0.  0.
    9000005    1    3    3    0    0 -0.40385402634E+02 -0.55779775001E+02 -0.16038352077E+03  0.17454580425E+03  0.10000000000E+01 0.  0.
<mgrwt>
<rscale>  0 0.12856511E+03</rscale>
<asrwt>0</asrwt>
<pdfrwt beam="2">  1        2 0.10513678E+00 0.13666677E+03</pdfrwt>
<pdfrwt beam="1">  1       -2 0.45433592E-02 0.13666677E+03</pdfrwt>
<totfact> 0.93816661E+03</totfact>
</mgrwt>
</event>
<event>
 8    2  0.8128359E-004  0.1255478E+03  0.7818608E-02  0.1249014E+00
         -2   -1    0    0    0  501 -0.00000000000E+00  0.00000000000E+00  0.13181006876E+02  0.13181007123E+02  0.25500000000E-02 0. -1.
          2   -1    0    0  501    0  0.00000000000E+00 -0.00000000000E+00 -0.13992836079E+04  0.13992836079E+04  0.25500000000E-02 0.  1.
         25    2    1    2    0    0 -0.80891675380E+01 -0.84553169273E+01 -0.11760555826E+04  0.11827379230E+04  0.12500133668E+03 0.  0.
         23    2    1    2    0    0  0.80891675380E+01  0.84553169273E+01 -0.21004701844E+03  0.22972669202E+03  0.92291256657E+02 0.  0.
        -11    1    4    4    0    0 -0.25973383920E+02  0.26456861700E+02 -0.36765313500E+02  0.52213700121E+02  0.51100000000E-03 0. -1.
         11    1    4    4    0    0  0.34062551458E+02 -0.18001544773E+02 -0.17328170494E+03  0.17751299190E+03  0.51100000000E-03 0.  1.
    9000005    1    3    3    0    0 -0.22688084443E+02 -0.51271383539E+02 -0.97685020080E+03  0.97845838887E+03  0.10000000000E+01 0.  0.
    9000005    1    3    3    0    0  0.14598916905E+02  0.42816066612E+02 -0.19920538177E+03  0.20427953412E+03  0.10000000000E+01 0.  0.
<mgrwt>
<rscale>  0 0.11648308E+03</rscale>
<asrwt>0</asrwt>
<pdfrwt beam="2">  1        2 0.21527428E+00 0.12554784E+03</pdfrwt>
<pdfrwt beam="1">  1       -2 0.20278483E-02 0.12554784E+03</pdfrwt>
<totfact> 0.11335279E+04</totfact>
</mgrwt>
</event>
<event>
 8    2  0.8128359E-004  0.1445815E+03  0.7818608E-02  0.1217755E+00
         -2   -1    0    0    0  501 -0.00000000000E+00  0.00000000000E+00  0.53979468654E+02  0.53979468715E+02  0.25500000000E-02 0.  1.
          2   -1    0    0  501    0  0.00000000000E+00 -0.00000000000E+00 -0.33941056811E+03  0.33941056812E+03  0.25500000000E-02 0. -1.
         25    2    1    2    0    0 -0.42717946752E+02 -0.58817360290E+02 -0.10368566197E+03  0.17791717253E+03  0.12497799382E+03 0.  0.
         23    2    1    2    0    0  0.42717946752E+02  0.58817360290E+02 -0.18174543748E+03  0.21547286430E+03  0.90071340368E+02 0.  0.
        -11    1    4    4    0    0  0.27356962386E+02  0.62733036560E+01 -0.26432947101E+01  0.28191217372E+02  0.51100000000E-03 0.  1.
         11    1    4    4    0    0  0.15360984367E+02  0.52544056634E+02 -0.17910214277E+03  0.18728164692E+03  0.51100000000E-03 0. -1.
    9000005    1    3    3    0    0 -0.57872012146E+02  0.22308735885E+02 -0.43220340023E+02  0.75603222672E+02  0.10000000000E+01 0.  0.
    9000005    1    3    3    0    0  0.15154065394E+02 -0.81126096175E+02 -0.60465321945E+02  0.10231394986E+03  0.10000000000E+01 0.  0.
<mgrwt>
<rscale>  0 0.13676062E+03</rscale>
<asrwt>0</asrwt>
<pdfrwt beam="2">  1        2 0.52217009E-01 0.14458148E+03</pdfrwt>
<pdfrwt beam="1">  1       -2 0.83045338E-02 0.14458148E+03</pdfrwt>
<totfact> 0.81381038E+03</totfact>
</mgrwt>
</event>
<event>
 8    2  0.8128359E-004  0.1494240E+03  0.7818608E-02  0.1210346E+00
         -2   -1    0    0    0  501 -0.00000000000E+00  0.00000000000E+00  0.56408699122E+02  0.56408699180E+02  0.25500000000E-02 0.  1.
          2   -1    0    0  501    0  0.00000000000E+00 -0.00000000000E+00 -0.34249151037E+03  0.34249151038E+03  0.25500000000E-02 0. -1.
         25    2    1    2    0    0 -0.35508844846E+02 -0.73752980328E+02 -0.11592098240E+03  0.18911692991E+03  0.12500863510E+03 0.  0.
         23    2    1    2    0    0  0.35508844846E+02  0.73752980328E+02 -0.17016182885E+03  0.20978327965E+03  0.91398010109E+02 0.  0.
        -11    1    4    4    0    0 -0.71923906929E+01  0.21228174011E+02  0.41450713922E+01  0.22793584027E+02  0.51100000000E-03 0.  1.
         11    1    4    4    0    0  0.42701235539E+02  0.52524806318E+02 -0.17430690024E+03  0.18698969562E+03  0.51100000000E-03 0. -1.
    9000005    1    3    3    0    0 -0.49199991445E+01  0.13722165434E+02 -0.92340516783E+02  0.93489439273E+02  0.10000000000E+01 0.  0.
    9000005    1    3    3    0    0 -0.30588845702E+02 -0.87475145762E+02 -0.23580465615E+02  0.95627490640E+02  0.10000000000E+01 0.  0.
<mgrwt>
<rscale>  0 0.14223999E+03</rscale>
<asrwt>0</asrwt>
<pdfrwt beam="2">  1        2 0.52691000E-01 0.14942402E+03</pdfrwt>
<pdfrwt beam="1">  1       -2 0.86782616E-02 0.14942402E+03</pdfrwt>
<totfact> 0.75435758E+03</totfact>
</mgrwt>
</event>
<event>
 8    2  0.8128359E-004  0.1360014E+03  0.7818608E-02  0.1230940E+00
          2   -1    0    0  501    0  0.00000000000E+00  0.00000000000E+00  0.10858231337E+04  0.10858231337E+04  0.25500000000E-02 0. -1.
         -2   -1    0    0    0  501 -0.00000000000E+00 -0.00000000000E+00 -0.14515825293E+02  0.14515825517E+02  0.25500000000E-02 0.  1.
         25    2    1    2    0    0 -0.36436899812E+02  0.39285721834E+02  0.74634042102E+03  0.75863060982E+03  0.12500144995E+03 0.  0.
         23    2    1    2    0    0  0.36436899812E+02 -0.39285721834E+02  0.32496688743E+03  0.34170834945E+03  0.91050000268E+02 0.  0.
        -11    1    4    4    0    0  0.15731288733E+02 -0.49091223697E+02  0.76864156036E+02  0.92550095477E+02  0.51100000000E-03 0.  1.
         11    1    4    4    0    0  0.20705611079E+02  0.98055018638E+01  0.24810273139E+03  0.24915825397E+03  0.51100000000E-03 0. -1.
    9000005    1    3    3    0    0  0.15128928887E+02 -0.29661820822E+02  0.41327949364E+03  0.41461988371E+03  0.10000000000E+01 0.  0.
    9000005    1    3    3    0    0 -0.51565828699E+02  0.68947542656E+02  0.33306092739E+03  0.34401072611E+03  0.10000000000E+01 0.  0.
<mgrwt>
<rscale>  0 0.12767944E+03</rscale>
<asrwt>0</asrwt>
<pdfrwt beam="1">  1        2 0.16704979E+00 0.13600139E+03</pdfrwt>
<pdfrwt beam="2">  1       -2 0.22332028E-02 0.13600139E+03</pdfrwt>
<totfact> 0.14695186E+04</totfact>
</mgrwt>
</event>
<event>
 8    2  0.8128359E-004  0.1387948E+03  0.7818608E-02  0.1227105E+00
          2   -1    0    0  501    0  0.00000000000E+00  0.00000000000E+00  0.21504117100E+04  0.21504117100E+04  0.25500000000E-02 0. -1.
         -2   -1    0    0    0  501 -0.00000000000E+00 -0.00000000000E+00 -0.77036768785E+01  0.77036773005E+01  0.25500000000E-02 0.  1.
         25    2    1    2    0    0 -0.32193350491E+02 -0.51021019831E+02  0.15056998504E+04  0.15120833433E+04  0.12499776454E+03 0.  0.
         23    2    1    2    0    0  0.32193350491E+02  0.51021019831E+02  0.63700818272E+03  0.64603204406E+03  0.89097815998E+02 0.  0.
        -11    1    4    4    0    0  0.47253571245E+02  0.32936813928E+02  0.19327897724E+03  0.20167919266E+03  0.51100000000E-03 0.  1.
         11    1    4    4    0    0 -0.15060220754E+02  0.18084205904E+02  0.44372920548E+03  0.44435285140E+03  0.51100000000E-03 0. -1.
    9000005    1    3    3    0    0 -0.44553568805E+01  0.72156447205E+01  0.47961453908E+01  0.97938115295E+01  0.10000000000E+01 0.  0.
    9000005    1    3    3    0    0 -0.27737993611E+02 -0.58236664552E+02  0.15009037051E+04  0.15022895318E+04  0.10000000000E+01 0.  0.
<mgrwt>
<rscale>  0 0.13023688E+03</rscale>
<asrwt>0</asrwt>
<pdfrwt beam="1">  1        2 0.33083304E+00 0.13879480E+03</pdfrwt>
<pdfrwt beam="2">  1       -2 0.11851794E-02 0.13879480E+03</pdfrwt>
<totfact> 0.10148739E+04</totfact>
</mgrwt>
</event>
<event>
 8    2  0.8128359E-004  0.1377579E+03  0.7818608E-02  0.1227065E+00
          2   -1    0    0  501    0  0.00000000000E+00  0.00000000000E+00  0.52660748464E+03  0.52660748465E+03  0.25500000000E-02 0. -1.
         -2   -1    0    0    0  501 -0.00000000000E+00 -0.00000000000E+00 -0.29984261101E+02  0.29984261209E+02  0.25500000000E-02 0.  1.
         25    2    1    2    0    0  0.25379880269E+02 -0.52015507487E+02  0.32068922248E+03  0.34902552540E+03  0.12500995409E+03 0.  0.
         23    2    1    2    0    0 -0.25379880269E+02  0.52015507487E+02  0.17593400106E+03  0.20756622046E+03  0.93708120280E+02 0.  0.
        -11    1    4    4    0    0 -0.75711778022E+01  0.47789484609E+02  0.18197032772E+03  0.18829327588E+03  0.51100000000E-03 0. -1.
         11    1    4    4    0    0 -0.17808702467E+02  0.42260228779E+01 -0.60363266591E+01  0.19272944578E+02  0.51100000000E-03 0.  1.
    9000005    1    3    3    0    0  0.29096539155E+01  0.34186493206E+02  0.32090268152E+02  0.46989016947E+02  0.10000000000E+01 0.  0.
    9000005    1    3    3    0    0  0.22470226354E+02 -0.86202000692E+02  0.28859895433E+03  0.30203650845E+03  0.10000000000E+01 0.  0.
<mgrwt>
<rscale>  0 0.13026397E+03</rscale>
<asrwt>0</asrwt>
<pdfrwt beam="1">  1        2 0.81016537E-01 0.13775790E+03</pdfrwt>
<pdfrwt beam="2">  1       -2 0.46129632E-02 0.13775790E+03</pdfrwt>
<totfact> 0.12349962E+04</totfact>
</mgrwt>
</event>
<event>
 8    2  0.8128359E-004  0.1315123E+03  0.7818608E-02  0.1238079E+00
          2   -1    0    0  501    0  0.00000000000E+00  0.00000000000E+00  0.82389280544E+02  0.82389280584E+02  0.25500000000E-02 0. -1.
         -2   -1    0    0    0  501 -0.00000000000E+00 -0.00000000000E+00 -0.17403435623E+03  0.17403435625E+03  0.25500000000E-02 0.  1.
         25    2    1    2    0    0 -0.22542277355E+02  0.34097626829E+02 -0.20895464379E+02  0.13316196945E+03  0.12499874900E+03 0.  0.
         23    2    1    2    0    0  0.22542277355E+02 -0.34097626829E+02 -0.70749611305E+02  0.12326166739E+03  0.92288291366E+02 0.  0.
        -11    1    4    4    0    0  0.27510449284E+02 -0.27764003311E+02 -0.92312088774E+02  0.10024563050E+03  0.51100000000E-03 0.  1.
         11    1    4    4    0    0 -0.49681719290E+01 -0.63336235180E+01  0.21562477469E+02  0.23016036888E+02  0.51100000000E-03 0. -1.
    9000005    1    3    3    0    0 -0.50763411483E+02  0.22114581337E+02 -0.61183092233E+02  0.82524841280E+02  0.10000000000E+01 0.  0.
    9000005    1    3    3    0    0  0.28221134128E+02  0.11983045492E+02  0.40287627854E+02  0.50637128165E+02  0.10000000000E+01 0.  0.
<mgrwt>
<rscale>  0 0.12309363E+03</rscale>
<asrwt>0</asrwt>
<pdfrwt beam="1">  1        2 0.12675274E-01 0.13151232E+03</pdfrwt>
<pdfrwt beam="2">  1       -2 0.26774516E-01 0.13151232E+03</pdfrwt>
<totfact> 0.56912440E+03</totfact>
</mgrwt>
</event>
<event>
 8    2  0.8128359E-004  0.1494368E+03  0.7818608E-02  0.1210482E+00
         -2   -1    0    0    0  501 -0.00000000000E+00  0.00000000000E+00  0.76632040743E+02  0.76632040785E+02  0.25500000000E-02 0.  1.
          2   -1    0    0  501    0  0.00000000000E+00 -0.00000000000E+00 -0.24174628427E+03  0.24174628428E+03  0.25500000000E-02 0. -1.
         25    2    1    2    0    0 -0.76900905147E+02  0.28172798599E+02 -0.81460499859E+02  0.17019744846E+03  0.12499561046E+03 0.  0.
         23    2    1    2    0    0  0.76900905147E+02 -0.28172798599E+02 -0.83653743664E+02  0.14818087660E+03  0.90841441906E+02 0.  0.
        -11    1    4    4    0    0  0.26818838484E+02 -0.46541031795E+02 -0.77764411979E+02  0.94512546833E+02  0.51100000000E-03 0.  1.
         11    1    4    4    0    0  0.50082066663E+02  0.18368233196E+02 -0.58893316847E+01  0.53668329767E+02  0.51100000000E-03 0. -1.
    9000005    1    3    3    0    0 -0.72845863924E+02 -0.54271672700E+01  0.90011399633E+01  0.73607027898E+02  0.10000000000E+01 0.  0.
    9000005    1    3    3    0    0 -0.40550412233E+01  0.33599965869E+02 -0.90461639823E+02  0.96590420566E+02  0.10000000000E+01 0.  0.
<mgrwt>
<rscale>  0 0.14213737E+03</rscale>
<asrwt>0</asrwt>
<pdfrwt beam="2">  1        2 0.37191736E-01 0.14943680E+03</pdfrwt>
<pdfrwt beam="1">  1       -2 0.11789545E-01 0.14943680E+03</pdfrwt>
<totfact> 0.67427319E+03</totfact>
</mgrwt>
</event>
<event>
 8    2  0.8128359E-004  0.1351566E+03  0.7818608E-02  0.1227963E+00
         -2   -1    0    0    0  501 -0.00000000000E+00  0.00000000000E+00  0.59112952160E+03  0.59112952160E+03  0.25500000000E-02 0. -1.
          2   -1    0    0  501    0  0.00000000000E+00 -0.00000000000E+00 -0.26427074250E+02  0.26427074373E+02  0.25500000000E-02 0.  1.
         25    2    1    2    0    0  0.43499276688E+02 -0.27386862738E+02  0.32186951934E+03  0.34909498150E+03  0.12500036524E+03 0.  0.
         23    2    1    2    0    0 -0.43499276688E+02  0.27386862738E+02  0.24283292801E+03  0.26846161447E+03  0.10228186640E+03 0.  0.
        -11    1    4    4    0    0 -0.29649082378E+02  0.65122781259E+02  0.18186066801E+03  0.19543118301E+03  0.51100000000E-03 0. -1.
         11    1    4    4    0    0 -0.13850194310E+02 -0.37735918521E+02  0.60972260005E+02  0.73030431461E+02  0.51100000000E-03 0.  1.
    9000005    1    3    3    0    0  0.41813235101E+02 -0.54612769600E+01  0.32422414039E+03  0.32695636618E+03  0.10000000000E+01 0.  0.
    9000005    1    3    3    0    0  0.16860415871E+01 -0.21925585778E+02 -0.23546210569E+01  0.22138615319E+02  0.10000000000E+01 0.  0.
<mgrwt>
<rscale>  0 0.12965902E+03</rscale>
<asrwt>0</asrwt>
<pdfrwt beam="2">  1        2 0.40657037E-02 0.13515664E+03</pdfrwt>
<pdfrwt beam="1">  1       -2 0.90943004E-01 0.13515664E+03</pdfrwt>
<totfact> 0.21230480E+03</totfact>
</mgrwt>
</event>
<event>
 8    2  0.8128359E-004  0.1682062E+03  0.7818608E-02  0.1187374E+00
         -2   -1    0    0    0  501 -0.00000000000E+00  0.00000000000E+00  0.21881501443E+02  0.21881501592E+02  0.25500000000E-02 0.  1.
          2   -1    0    0  501    0  0.00000000000E+00 -0.00000000000E+00 -0.13743817949E+04  0.13743817949E+04  0.25500000000E-02 0. -1.
         25    2    1    2    0    0  0.69319736421E+02  0.88677491881E+02 -0.41012259712E+03  0.44327628966E+03  0.12499760352E+03 0.  0.
         23    2    1    2    0    0 -0.69319736421E+02 -0.88677491881E+02 -0.94237769630E+03  0.95298700680E+03  0.86253053343E+02 0.  0.
        -11    1    4    4    0    0 -0.66493496530E+02 -0.59094161553E+02 -0.87288981108E+03  0.87741103669E+03  0.51100000000E-03 0. -1.
         11    1    4    4    0    0 -0.28262398917E+01 -0.29583330328E+02 -0.69487885221E+02  0.75575970109E+02  0.51100000000E-03 0.  1.
    9000005    1    3    3    0    0  0.67553753632E+02  0.72518779243E+02 -0.13398937346E+03  0.16666323882E+03  0.10000000000E+01 0.  0.
    9000005    1    3    3    0    0  0.17659827891E+01  0.16158712638E+02 -0.27613322366E+03  0.27661305085E+03  0.10000000000E+01 0.  0.
<mgrwt>
<rscale>  0 0.16117734E+03</rscale>
<asrwt>0</asrwt>
<pdfrwt beam="2">  1        2 0.21144329E+00 0.16820620E+03</pdfrwt>
<pdfrwt beam="1">  1       -2 0.33663859E-02 0.16820620E+03</pdfrwt>
<totfact> 0.56212802E+03</totfact>
</mgrwt>
</event>
<event>
 8    2  0.8128359E-004  0.1872554E+03  0.7818608E-02  0.1165885E+00
         -2   -1    0    0    0  501 -0.00000000000E+00  0.00000000000E+00  0.10264514144E+02  0.10264514460E+02  0.25500000000E-02 0. -1.
          2   -1    0    0  501    0  0.00000000000E+00 -0.00000000000E+00 -0.30901951632E+04  0.30901951632E+04  0.25500000000E-02 0.  1.
         25    2    1    2    0    0 -0.35238196928E+02  0.13490048200E+03 -0.17844091135E+04  0.17942074751E+04  0.12499883535E+03 0.  0.
         23    2    1    2    0    0  0.35238196928E+02 -0.13490048200E+03 -0.12955215355E+04  0.13062522025E+04  0.92080926412E+02 0.  0.
        -11    1    4    4    0    0  0.78997972658E+01 -0.74265609177E+02 -0.10233381002E+04  0.10260597715E+04  0.51100000000E-03 0.  1.
         11    1    4    4    0    0  0.27338399662E+02 -0.60634872824E+02 -0.27218343536E+03  0.28019243099E+03  0.51100000000E-03 0. -1.
    9000005    1    3    3    0    0 -0.68381288379E+02  0.32487825258E+02 -0.92258794355E+03  0.92568945817E+03  0.10000000000E+01 0.  0.
    9000005    1    3    3    0    0  0.33143091452E+02  0.10241265674E+03 -0.86182116998E+03  0.86851801697E+03  0.10000000000E+01 0.  0.
<mgrwt>
<rscale>  0 0.18199639E+03</rscale>
<asrwt>0</asrwt>
<pdfrwt beam="2">  1        2 0.47541390E+00 0.18725539E+03</pdfrwt>
<pdfrwt beam="1">  1       -2 0.15791585E-02 0.18725539E+03</pdfrwt>
<totfact> 0.20394017E+03</totfact>
</mgrwt>
</event>
<event>
 8    2  0.8128359E-004  0.2163429E+03  0.7818608E-02  0.1140245E+00
          2   -1    0    0  501    0  0.00000000000E+00  0.00000000000E+00  0.62985279129E+03  0.62985279130E+03  0.25500000000E-02 0. -1.
         -2   -1    0    0    0  501 -0.00000000000E+00 -0.00000000000E+00 -0.14624081807E+03  0.14624081809E+03  0.25500000000E-02 0.  1.
         25    2    1    2    0    0  0.51373995362E+02  0.16893727474E+03  0.53000913857E+03  0.57246304932E+03  0.12500066271E+03 0.  0.
         23    2    1    2    0    0 -0.51373995362E+02 -0.16893727474E+03 -0.46397165341E+02  0.20363056007E+03  0.90186572427E+02 0.  0.
        -11    1    4    4    0    0 -0.32900437644E+01 -0.31074704515E+02  0.26008496326E+02  0.40655916299E+02  0.51100000000E-03 0. -1.
         11    1    4    4    0    0 -0.48083951598E+02 -0.13786257022E+03 -0.72405661667E+02  0.16297464377E+03  0.51100000000E-03 0.  1.
    9000005    1    3    3    0    0 -0.32570272743E+02  0.72404465003E+02  0.28770796315E+03  0.29846289766E+03  0.10000000000E+01 0.  0.
    9000005    1    3    3    0    0  0.83944268105E+02  0.96532809733E+02  0.24230117542E+03  0.27400015166E+03  0.10000000000E+01 0.  0.
<mgrwt>
<rscale>  0 0.21167698E+03</rscale>
<asrwt>0</asrwt>
<pdfrwt beam="1">  1        2 0.96900430E-01 0.21634291E+03</pdfrwt>
<pdfrwt beam="2">  1       -2 0.22498587E-01 0.21634291E+03</pdfrwt>
<totfact> 0.81877346E+02</totfact>
</mgrwt>
</event>
<event>
 8    2  0.8128359E-004  0.1550878E+03  0.7818608E-02  0.1203979E+00
          2   -1    0    0  501    0  0.00000000000E+00  0.00000000000E+00  0.10690585269E+04  0.10690585269E+04  0.25500000000E-02 0. -1.
         -2   -1    0    0    0  501 -0.00000000000E+00 -0.00000000000E+00 -0.19935740318E+02  0.19935740481E+02  0.25500000000E-02 0.  1.
         25    2    1    2    0    0  0.86845597655E+02 -0.29756188331E+02  0.42731027523E+03  0.45458364202E+03  0.12499851079E+03 0.  0.
         23    2    1    2    0    0 -0.86845597655E+02  0.29756188331E+02  0.62181251137E+03  0.63441062538E+03  0.86014264659E+02 0.  0.
        -11    1    4    4    0    0 -0.17855034078E+02 -0.14332051863E+02  0.34419786277E+02  0.41339226410E+02  0.51100000000E-03 0.  1.
         11    1    4    4    0    0 -0.68990563577E+02  0.44088240194E+02  0.58739272509E+03  0.59307139897E+03  0.51100000000E-03 0. -1.
    9000005    1    3    3    0    0 -0.22453082394E+02  0.11853484303E+02  0.25108551533E+02  0.35722336979E+02  0.10000000000E+01 0.  0.
    9000005    1    3    3    0    0  0.10929868005E+03 -0.41609672635E+02  0.40220172370E+03  0.41886130505E+03  0.10000000000E+01 0.  0.
<mgrwt>
<rscale>  0 0.14718200E+03</rscale>
<asrwt>0</asrwt>
<pdfrwt beam="1">  1        2 0.16447053E+00 0.15508777E+03</pdfrwt>
<pdfrwt beam="2">  1       -2 0.30670373E-02 0.15508777E+03</pdfrwt>
<totfact> 0.95082829E+03</totfact>
</mgrwt>
</event>
<event>
 8    2  0.8128359E-004  0.1645934E+03  0.7818608E-02  0.1191258E+00
          2   -1    0    0  501    0  0.00000000000E+00  0.00000000000E+00  0.22744338956E+04  0.22744338956E+04  0.25500000000E-02 0. -1.
         -2   -1    0    0    0  501 -0.00000000000E+00 -0.00000000000E+00 -0.10532745976E+02  0.10532746284E+02  0.25500000000E-02 0.  1.
         25    2    1    2    0    0  0.44317484405E+02  0.97480436422E+02  0.99968910715E+03  0.10131482138E+04  0.12499806871E+03 0.  0.
         23    2    1    2    0    0 -0.44317484405E+02 -0.97480436422E+02  0.12642120425E+04  0.12718184282E+04  0.88450838738E+02 0.  0.
        -11    1    4    4    0    0 -0.21221366061E+02 -0.47369266448E+02  0.10254814583E+04  0.10267942419E+04  0.51100000000E-03 0. -1.
         11    1    4    4    0    0 -0.23096118344E+02 -0.50111169975E+02  0.23873058417E+03  0.24502418627E+03  0.51100000000E-03 0.  1.
    9000005    1    3    3    0    0  0.51092882395E+02  0.52973890543E+02  0.90819866916E+03  0.91117645842E+03  0.10000000000E+01 0.  0.
    9000005    1    3    3    0    0 -0.67753979904E+01  0.44506545879E+02  0.91490437989E+02  0.10197175534E+03  0.10000000000E+01 0.  0.
<mgrwt>
<rscale>  0 0.15775239E+03</rscale>
<asrwt>0</asrwt>
<pdfrwt beam="1">  1        2 0.34991338E+00 0.16459341E+03</pdfrwt>
<pdfrwt beam="2">  1       -2 0.16204203E-02 0.16459341E+03</pdfrwt>
<totfact> 0.55856183E+03</totfact>
</mgrwt>
</event>
<event>
 8    2  0.8128359E-004  0.1380239E+03  0.7818608E-02  0.1227143E+00
         -2   -1    0    0    0  501 -0.00000000000E+00  0.00000000000E+00  0.36944651167E+03  0.36944651168E+03  0.25500000000E-02 0.  1.
          2   -1    0    0  501    0  0.00000000000E+00 -0.00000000000E+00 -0.47698069725E+02  0.47698069793E+02  0.25500000000E-02 0. -1.
         25    2    1    2    0    0  0.57383188327E+02  0.11534468574E+02  0.10173714803E+03  0.17146732609E+03  0.12499888943E+03 0.  0.
         23    2    1    2    0    0 -0.57383188327E+02 -0.11534468574E+02  0.22001129392E+03  0.24567725538E+03  0.92338887218E+02 0.  0.
        -11    1    4    4    0    0 -0.72488756455E+02 -0.12523838116E+02  0.21839724700E+03  0.23045351772E+03  0.51100000000E-03 0.  1.
         11    1    4    4    0    0  0.15105568129E+02  0.98936954208E+00  0.16140469178E+01  0.15223737658E+02  0.51100000000E-03 0. -1.
    9000005    1    3    3    0    0  0.54653590597E+02 -0.45406957126E+02  0.23882251281E+02  0.74967784060E+02  0.10000000000E+01 0.  0.
    9000005    1    3    3    0    0  0.27295977300E+01  0.56941425701E+02  0.77854896745E+02  0.96499542029E+02  0.10000000000E+01 0.  0.
<mgrwt>
<rscale>  0 0.13021090E+03</rscale>
<asrwt>0</asrwt>
<pdfrwt beam="2">  1        2 0.73381645E-02 0.13802390E+03</pdfrwt>
<pdfrwt beam="1">  1       -2 0.56837925E-01 0.13802390E+03</pdfrwt>
<totfact> 0.27006433E+03</totfact>
</mgrwt>
</event>
<event>
 8    2  0.8128359E-004  0.2013765E+03  0.7818608E-02  0.1152233E+00
         -2   -1    0    0    0  501 -0.00000000000E+00  0.00000000000E+00  0.33427594033E+02  0.33427594131E+02  0.25500000000E-02 0.  1.
          2   -1    0    0  501    0  0.00000000000E+00 -0.00000000000E+00 -0.13895411926E+04  0.13895411926E+04  0.25500000000E-02 0. -1.
         25    2    1    2    0    0 -0.44248834680E+02 -0.15155886697E+03 -0.38540991494E+03  0.43484861374E+03  0.12499785923E+03 0.  0.
         23    2    1    2    0    0  0.44248834680E+02  0.15155886697E+03 -0.97070368366E+03  0.98812017302E+03  0.95852935974E+02 0.  0.
        -11    1    4    4    0    0  0.45483582259E+02  0.84064312822E+02 -0.32124340970E+03  0.33516099597E+03  0.51100000000E-03 0.  1.
         11    1    4    4    0    0 -0.12347475788E+01  0.67494554150E+02 -0.64946027396E+03  0.65295917705E+03  0.51100000000E-03 0. -1.
    9000005    1    3    3    0    0  0.10235784982E+02 -0.12417497321E+03 -0.32887865372E+03  0.35169072228E+03  0.10000000000E+01 0.  0.
    9000005    1    3    3    0    0 -0.54484619662E+02 -0.27383893761E+02 -0.56531261220E+02  0.83157891462E+02  0.10000000000E+01 0.  0.
<mgrwt>
<rscale>  0 0.19707257E+03</rscale>
<asrwt>0</asrwt>
<pdfrwt beam="2">  1        2 0.21377552E+00 0.20137655E+03</pdfrwt>
<pdfrwt beam="1">  1       -2 0.51427079E-02 0.20137655E+03</pdfrwt>
<totfact> 0.29307493E+03</totfact>
</mgrwt>
</event>
<event>
 8    2  0.8128359E-004  0.1404843E+03  0.7818608E-02  0.1224091E+00
          2   -1    0    0  501    0  0.00000000000E+00  0.00000000000E+00  0.41487911083E+03  0.41487911084E+03  0.25500000000E-02 0.  1.
         -2   -1    0    0    0  501 -0.00000000000E+00 -0.00000000000E+00 -0.42558574656E+02  0.42558574732E+02  0.25500000000E-02 0. -1.
         25    2    1    2    0    0  0.42481211902E+02  0.48031569166E+02  0.13124509054E+03  0.19225273508E+03  0.12499662136E+03 0.  0.
         23    2    1    2    0    0 -0.42481211902E+02 -0.48031569166E+02  0.24107544564E+03  0.26518495050E+03  0.89966674276E+02 0.  0.
        -11    1    4    4    0    0  0.14220016806E+01 -0.52725453076E+02  0.65259051539E+02  0.83909113325E+02  0.51100000000E-03 0. -1.
         11    1    4    4    0    0 -0.43903213582E+02  0.46938839106E+01  0.17581639410E+03  0.18127583717E+03  0.51100000000E-03 0.  1.
    9000005    1    3    3    0    0  0.71613933298E+02  0.59057569873E+02  0.13164692175E+03  0.16108464858E+03  0.10000000000E+01 0.  0.
    9000005    1    3    3    0    0 -0.29132721396E+02 -0.11026000707E+02 -0.40183120865E+00  0.31168086497E+02  0.10000000000E+01 0.  0.
<mgrwt>
<rscale>  0 0.13229430E+03</rscale>
<asrwt>0</asrwt>
<pdfrwt beam="1">  1        2 0.63827554E-01 0.14048431E+03</pdfrwt>
<pdfrwt beam="2">  1       -2 0.65474732E-02 0.14048431E+03</pdfrwt>
<totfact> 0.94487755E+03</totfact>
</mgrwt>
</event>
<event>
 8    2  0.8128359E-004  0.1267124E+03  0.7818608E-02  0.1247251E+00
         -2   -1    0    0    0  501 -0.00000000000E+00  0.00000000000E+00  0.79463478322E+01  0.79463482413E+01  0.25500000000E-02 0. -1.
          2   -1    0    0  501    0  0.00000000000E+00 -0.00000000000E+00 -0.16914121161E+04  0.16914121161E+04  0.25500000000E-02 0.  1.
         25    2    1    2    0    0 -0.20483942264E+02  0.35096259782E+01 -0.69493399357E+03  0.70639174358E+03  0.12499652238E+03 0.  0.
         23    2    1    2    0    0  0.20483942264E+02 -0.35096259782E+01 -0.98853177466E+03  0.99296672073E+03  0.91410773974E+02 0.  0.
        -11    1    4    4    0    0 -0.21077751888E+02  0.96872386960E+01 -0.75753250069E+03  0.75788759313E+03  0.51100000000E-03 0.  1.
         11    1    4    4    0    0  0.41561694152E+02 -0.13196864674E+02 -0.23099927396E+03  0.23507912759E+03  0.51100000000E-03 0. -1.
    9000005    1    3    3    0    0  0.13147622016E+02 -0.33559459815E+02 -0.63867843168E+02  0.73343020791E+02  0.10000000000E+01 0.  0.
    9000005    1    3    3    0    0 -0.33631564280E+02  0.37069085793E+02 -0.63106615041E+03  0.63304872279E+03  0.10000000000E+01 0.  0.
<mgrwt>
<rscale>  0 0.11751672E+03</rscale>
<asrwt>0</asrwt>
<pdfrwt beam="2">  1        2 0.26021696E+00 0.12671243E+03</pdfrwt>
<pdfrwt beam="1">  1       -2 0.12225164E-02 0.12671243E+03</pdfrwt>
<totfact> 0.16604852E+04</totfact>
</mgrwt>
</event>
<event>
 8    2  0.8128359E-004  0.1951881E+03  0.7818608E-02  0.1158482E+00
         -2   -1    0    0    0  501 -0.00000000000E+00  0.00000000000E+00  0.47309424752E+02  0.47309424821E+02  0.25500000000E-02 0. -1.
          2   -1    0    0  501    0  0.00000000000E+00 -0.00000000000E+00 -0.76884682721E+03  0.76884682721E+03  0.25500000000E-02 0.  1.
         25    2    1    2    0    0 -0.14713536589E+03  0.28729473664E+02 -0.28162586272E+03  0.34265363422E+03  0.12499675172E+03 0.  0.
         23    2    1    2    0    0  0.14713536589E+03 -0.28729473664E+02 -0.43991153974E+03  0.47350261781E+03  0.90600042642E+02 0.  0.
        -11    1    4    4    0    0  0.73123750659E+02 -0.28607775695E+02 -0.34124531190E+03  0.35016260599E+03  0.51100000000E-03 0.  1.
         11    1    4    4    0    0  0.74011615231E+02 -0.12169796874E+00 -0.98666227834E+02  0.12334001182E+03  0.51100000000E-03 0. -1.
    9000005    1    3    3    0    0 -0.11026924702E+03  0.70751794954E+02 -0.14719547213E+03  0.19705996636E+03  0.10000000000E+01 0.  0.
    9000005    1    3    3    0    0 -0.36866118869E+02 -0.42022321290E+02 -0.13443039059E+03  0.14559366786E+03  0.10000000000E+01 0.  0.
<mgrwt>
<rscale>  0 0.18997718E+03</rscale>
<asrwt>0</asrwt>
<pdfrwt beam="2">  1        2 0.11828412E+00 0.19518808E+03</pdfrwt>
<pdfrwt beam="1">  1       -2 0.72783736E-02 0.19518808E+03</pdfrwt>
<totfact> 0.40407130E+03</totfact>
</mgrwt>
</event>
<event>
 8    2  0.8128359E-004  0.1487498E+03  0.7818608E-02  0.1211303E+00
         -2   -1    0    0    0  501 -0.00000000000E+00  0.00000000000E+00  0.14483708770E+03  0.14483708772E+03  0.25500000000E-02 0. -1.
          2   -1    0    0  501    0  0.00000000000E+00 -0.00000000000E+00 -0.22644598522E+03  0.22644598524E+03  0.25500000000E-02 0.  1.
         25    2    1    2    0    0 -0.10639311065E+02  0.79929707195E+02 -0.16612180209E+03  0.22298645511E+03  0.12499821200E+03 0.  0.
         23    2    1    2    0    0  0.10639311065E+02 -0.79929707195E+02  0.84512904565E+02  0.14829661785E+03  0.91364669293E+02 0.  0.
        -11    1    4    4    0    0  0.32696025304E+02 -0.40763486423E+02 -0.35799098298E+00  0.52257248816E+02  0.51100000000E-03 0.  1.
         11    1    4    4    0    0 -0.22056714240E+02 -0.39166220772E+02  0.84870895548E+02  0.96039369031E+02  0.51100000000E-03 0. -1.
    9000005    1    3    3    0    0 -0.48216009980E+02 -0.11834477092E+01 -0.10242109698E+03  0.11321336173E+03  0.10000000000E+01 0.  0.
    9000005    1    3    3    0    0  0.37576698915E+02  0.81113154904E+02 -0.63700705106E+02  0.10977309338E+03  0.10000000000E+01 0.  0.
<mgrwt>
<rscale>  0 0.14151619E+03</rscale>
<asrwt>0</asrwt>
<pdfrwt beam="2">  1        2 0.34837844E-01 0.14874981E+03</pdfrwt>
<pdfrwt beam="1">  1       -2 0.22282629E-01 0.14874981E+03</pdfrwt>
<totfact> 0.25223691E+03</totfact>
</mgrwt>
</event>
<event>
 8    2  0.8128359E-004  0.1424861E+03  0.7818608E-02  0.1218625E+00
         -2   -1    0    0    0  501 -0.00000000000E+00  0.00000000000E+00  0.91732437846E+01  0.91732441391E+01  0.25500000000E-02 0.  1.
          2   -1    0    0  501    0  0.00000000000E+00 -0.00000000000E+00 -0.21294915659E+04  0.21294915659E+04  0.25500000000E-02 0. -1.
         25    2    1    2    0    0 -0.20265674956E+02  0.65317935461E+02 -0.15236182325E+04  0.15302662507E+04  0.12500059687E+03 0.  0.
         23    2    1    2    0    0  0.20265674956E+02 -0.65317935461E+02 -0.59670008962E+03  0.60839855938E+03  0.97060186685E+02 0.  0.
        -11    1    4    4    0    0 -0.17309659006E+01  0.23233271772E+02 -0.19937245851E+03  0.20072906709E+03  0.51100000000E-03 0. -1.
         11    1    4    4    0    0  0.21996640857E+02 -0.88551207233E+02 -0.39732763110E+03  0.40766949230E+03  0.51100000000E-03 0.  1.
    9000005    1    3    3    0    0 -0.30938969184E+02 -0.31900400801E+02 -0.51709846969E+03  0.51900547467E+03  0.10000000000E+01 0.  0.
    9000005    1    3    3    0    0  0.10673294228E+02  0.97218336261E+02 -0.10065197628E+04  0.10112607760E+04  0.10000000000E+01 0.  0.
<mgrwt>
<rscale>  0 0.13613609E+03</rscale>
<asrwt>0</asrwt>
<pdfrwt beam="2">  1        2 0.32761369E+00 0.14248607E+03</pdfrwt>
<pdfrwt beam="1">  1       -2 0.14112700E-02 0.14248607E+03</pdfrwt>
<totfact> 0.80987589E+03</totfact>
</mgrwt>
</event>
<event>
 8    2  0.8128359E-004  0.1369702E+03  0.7818608E-02  0.1229039E+00
         -2   -1    0    0    0  501 -0.00000000000E+00  0.00000000000E+00  0.74051850710E+02  0.74051850754E+02  0.25500000000E-02 0.  1.
          2   -1    0    0  501    0  0.00000000000E+00 -0.00000000000E+00 -0.21058263164E+03  0.21058263165E+03  0.25500000000E-02 0. -1.
         25    2    1    2    0    0 -0.30922295550E+02 -0.46685246418E+02 -0.10488257959E+03  0.17251432602E+03  0.12500054634E+03 0.  0.
         23    2    1    2    0    0  0.30922295550E+02  0.46685246418E+02 -0.31648201336E+02  0.11212015639E+03  0.91834744107E+02 0.  0.
        -11    1    4    4    0    0 -0.15099096923E+02 -0.11373840861E+01  0.22049440358E+02  0.26747975453E+02  0.51100000000E-03 0.  1.
         11    1    4    4    0    0  0.46021392473E+02  0.47822630504E+02 -0.53697641695E+02  0.85372180933E+02  0.51100000000E-03 0. -1.
    9000005    1    3    3    0    0  0.34937405957E+02  0.97059094623E+01  0.20177166761E+00  0.36274891114E+02  0.10000000000E+01 0.  0.
    9000005    1    3    3    0    0 -0.65859701507E+02 -0.56391155880E+02 -0.10508435126E+03  0.13623943490E+03  0.10000000000E+01 0.  0.
<mgrwt>
<rscale>  0 0.12893863E+03</rscale>
<asrwt>0</asrwt>
<pdfrwt beam="2">  1        2 0.32397328E-01 0.13697021E+03</pdfrwt>
<pdfrwt beam="1">  1       -2 0.11392593E-01 0.13697021E+03</pdfrwt>
<totfact> 0.82094563E+03</totfact>
</mgrwt>
</event>
<event>
 8    2  0.8128359E-004  0.1293051E+03  0.7818608E-02  0.1248509E+00
          2   -1    0    0  501    0  0.00000000000E+00  0.00000000000E+00  0.15337307511E+02  0.15337307723E+02  0.25500000000E-02 0. -1.
         -2   -1    0    0    0  501 -0.00000000000E+00 -0.00000000000E+00 -0.75842923868E+03  0.75842923869E+03  0.25500000000E-02 0.  1.
         25    2    1    2    0    0 -0.30119222171E+02 -0.13711256857E+02 -0.42345488109E+03  0.44275708084E+03  0.12499852084E+03 0.  0.
         23    2    1    2    0    0  0.30119222171E+02  0.13711256857E+02 -0.31963705009E+03  0.33100946557E+03  0.79399347602E+02 0.  0.
        -11    1    4    4    0    0  0.11952925029E+02  0.29653362825E+02 -0.29415812357E+03  0.29589051355E+03  0.51100000000E-03 0.  1.
         11    1    4    4    0    0  0.18166297143E+02 -0.15942105968E+02 -0.25478926517E+02  0.35118952024E+02  0.51100000000E-03 0. -1.
    9000005    1    3    3    0    0 -0.78901564896E+02 -0.18898817507E+01 -0.26977765123E+03  0.28108719235E+03  0.10000000000E+01 0.  0.
    9000005    1    3    3    0    0  0.48782342724E+02 -0.11821375106E+02 -0.15367722985E+03  0.16166988849E+03  0.10000000000E+01 0.  0.
<mgrwt>
<rscale>  0 0.11677808E+03</rscale>
<asrwt>0</asrwt>
<pdfrwt beam="1">  1        2 0.23595864E-02 0.12930505E+03</pdfrwt>
<pdfrwt beam="2">  1       -2 0.11668139E+00 0.12930505E+03</pdfrwt>
<totfact> 0.24637332E+03</totfact>
</mgrwt>
</event>
<event>
 8    2  0.8128359E-004  0.2253614E+03  0.7818608E-02  0.1132979E+00
         -2   -1    0    0    0  501 -0.00000000000E+00  0.00000000000E+00  0.64989767108E+03  0.64989767108E+03  0.25500000000E-02 0.  1.
          2   -1    0    0  501    0  0.00000000000E+00 -0.00000000000E+00 -0.72974200952E+02  0.72974200997E+02  0.25500000000E-02 0. -1.
         25    2    1    2    0    0 -0.28283105151E+01  0.18749427383E+03  0.32301884088E+03  0.39386412258E+03  0.12500269369E+03 0.  0.
         23    2    1    2    0    0  0.28283105151E+01 -0.18749427383E+03  0.25390462924E+03  0.32900774950E+03  0.92824761898E+02 0.  0.
        -11    1    4    4    0    0  0.19671935555E+02 -0.72022030635E+02  0.16880782016E+03  0.18458125066E+03  0.51100000000E-03 0.  1.
         11    1    4    4    0    0 -0.16843625040E+02 -0.11547224319E+03  0.85096809081E+02  0.14442649885E+03  0.51100000000E-03 0. -1.
    9000005    1    3    3    0    0 -0.48439643577E+02  0.10411444738E+03  0.10326611457E+03  0.15443803819E+03  0.10000000000E+01 0.  0.
    9000005    1    3    3    0    0  0.45611333062E+02  0.83379826454E+02  0.21975272631E+03  0.23942608438E+03  0.10000000000E+01 0.  0.
<mgrwt>
<rscale>  0 0.22121642E+03</rscale>
<asrwt>0</asrwt>
<pdfrwt beam="2">  1        2 0.11226800E-01 0.22536143E+03</pdfrwt>
<pdfrwt beam="1">  1       -2 0.99984257E-01 0.22536143E+03</pdfrwt>
<totfact> 0.47493111E+02</totfact>
</mgrwt>
</event>
<event>
 8    2  0.8128359E-004  0.1546806E+03  0.7818608E-02  0.1203563E+00
          2   -1    0    0  501    0  0.00000000000E+00  0.00000000000E+00  0.44437047535E+03  0.44437047536E+03  0.25500000000E-02 0. -1.
         -2   -1    0    0    0  501 -0.00000000000E+00 -0.00000000000E+00 -0.46626613934E+02  0.46626614004E+02  0.25500000000E-02 0.  1.
         25    2    1    2    0    0 -0.86163891602E+02  0.29620203489E+02  0.26353052013E+03  0.30557228137E+03  0.12499804571E+03 0.  0.
         23    2    1    2    0    0  0.86163891602E+02 -0.29620203489E+02  0.13421334129E+03  0.18542480800E+03  0.89819629089E+02 0.  0.
        -11    1    4    4    0    0  0.11708059791E+02 -0.60866090172E+01  0.98810369939E+02  0.99687585392E+02  0.51100000000E-03 0. -1.
         11    1    4    4    0    0  0.74455831811E+02 -0.23533594471E+02  0.35402971351E+02  0.85737222606E+02  0.51100000000E-03 0.  1.
    9000005    1    3    3    0    0  0.23258351937E+02 -0.22918609209E+02  0.67748825562E+02  0.75213808226E+02  0.10000000000E+01 0.  0.
    9000005    1    3    3    0    0 -0.10942224354E+03  0.52538812697E+02  0.19578169457E+03  0.23035847314E+03  0.10000000000E+01 0.  0.
<mgrwt>
<rscale>  0 0.14751293E+03</rscale>
<asrwt>0</asrwt>
<pdfrwt beam="1">  1        2 0.68364687E-01 0.15468059E+03</pdfrwt>
<pdfrwt beam="2">  1       -2 0.71733254E-02 0.15468059E+03</pdfrwt>
<totfact> 0.76767974E+03</totfact>
</mgrwt>
</event>
<event>
 8    2  0.8128359E-004  0.1405524E+03  0.7818608E-02  0.1221855E+00
         -2   -1    0    0    0  501 -0.00000000000E+00  0.00000000000E+00  0.38553138460E+02  0.38553138544E+02  0.25500000000E-02 0.  1.
          2   -1    0    0  501    0  0.00000000000E+00 -0.00000000000E+00 -0.49261177715E+03  0.49261177716E+03  0.25500000000E-02 0. -1.
         25    2    1    2    0    0  0.37458866044E+02  0.52217638002E+02 -0.14847792511E+03  0.20445211130E+03  0.12500049282E+03 0.  0.
         23    2    1    2    0    0 -0.37458866044E+02 -0.52217638002E+02 -0.30558071358E+03  0.32671280441E+03  0.96082442132E+02 0.  0.
        -11    1    4    4    0    0 -0.34559217381E+02 -0.34538253023E+02 -0.47941951792E+02  0.68451889454E+02  0.51100000000E-03 0.  1.
         11    1    4    4    0    0 -0.28996486631E+01 -0.17679384979E+02 -0.25763876179E+03  0.25826091495E+03  0.51100000000E-03 0. -1.
    9000005    1    3    3    0    0  0.28733856142E+02 -0.15487720892E+02  0.80914798602E+01  0.33644851516E+02  0.10000000000E+01 0.  0.
    9000005    1    3    3    0    0  0.87250099020E+01  0.67705358895E+02 -0.15656940497E+03  0.17080725978E+03  0.10000000000E+01 0.  0.
<mgrwt>
<rscale>  0 0.13384782E+03</rscale>
<asrwt>0</asrwt>
<pdfrwt beam="2">  1        2 0.75786423E-01 0.14055238E+03</pdfrwt>
<pdfrwt beam="1">  1       -2 0.59312524E-02 0.14055238E+03</pdfrwt>
<totfact> 0.91162322E+03</totfact>
</mgrwt>
</event>
<event>
 8    2  0.8128359E-004  0.1604796E+03  0.7818608E-02  0.1196264E+00
          2   -1    0    0  501    0  0.00000000000E+00  0.00000000000E+00  0.69836557613E+03  0.69836557614E+03  0.25500000000E-02 0. -1.
         -2   -1    0    0    0  501 -0.00000000000E+00 -0.00000000000E+00 -0.44668550284E+02  0.44668550357E+02  0.25500000000E-02 0.  1.
         25    2    1    2    0    0  0.91119425169E+02 -0.42729783137E+02  0.14287457463E+03  0.21486470085E+03  0.12500044634E+03 0.  0.
         23    2    1    2    0    0 -0.91119425169E+02  0.42729783137E+02  0.51082245122E+03  0.52816942565E+03  0.88852583012E+02 0.  0.
        -11    1    4    4    0    0 -0.10296622085E+03  0.15042312536E+02  0.40344599736E+03  0.41664971690E+03  0.51100000000E-03 0. -1.
         11    1    4    4    0    0  0.11846795683E+02  0.27687470601E+02  0.10737645386E+03  0.11151970875E+03  0.51100000000E-03 0.  1.
    9000005    1    3    3    0    0 -0.25137766294E+02  0.87666826555E+01  0.52472028761E+02  0.58847904137E+02  0.10000000000E+01 0.  0.
    9000005    1    3    3    0    0  0.11625719146E+03 -0.51496465792E+02  0.90402545866E+02  0.15601679671E+03  0.10000000000E+01 0.  0.
<mgrwt>
<rscale>  0 0.15347736E+03</rscale>
<asrwt>0</asrwt>
<pdfrwt beam="1">  1        2 0.10744086E+00 0.16047958E+03</pdfrwt>
<pdfrwt beam="2">  1       -2 0.68720847E-02 0.16047958E+03</pdfrwt>
<totfact> 0.49278549E+03</totfact>
</mgrwt>
</event>
<event>
 8    2  0.8128359E-004  0.1653247E+03  0.7818608E-02  0.1189807E+00
          2   -1    0    0  501    0  0.00000000000E+00  0.00000000000E+00  0.13854135101E+04  0.13854135102E+04  0.25500000000E-02 0.  1.
         -2   -1    0    0    0  501 -0.00000000000E+00 -0.00000000000E+00 -0.25242072609E+02  0.25242072738E+02  0.25500000000E-02 0. -1.
         25    2    1    2    0    0 -0.86823839622E+02 -0.64567435127E+02  0.11180837830E+04  0.11302405071E+04  0.12499970119E+03 0.  0.
         23    2    1    2    0    0  0.86823839622E+02  0.64567435127E+02  0.24208765458E+03  0.28041507582E+03  0.91207726872E+02 0.  0.
        -11    1    4    4    0    0  0.17440390003E+02  0.69782472726E+02  0.12177624738E+03  0.14143272298E+03  0.51100000000E-03 0.  1.
         11    1    4    4    0    0  0.69383449619E+02 -0.52150375987E+01  0.12031140720E+03  0.13898235284E+03  0.51100000000E-03 0. -1.
    9000005    1    3    3    0    0 -0.39790531713E+02  0.26508769574E+02  0.16897139102E+03  0.17560846296E+03  0.10000000000E+01 0.  0.
    9000005    1    3    3    0    0 -0.47033307908E+02 -0.91076204701E+02  0.94911239194E+03  0.95463204412E+03  0.10000000000E+01 0.  0.
<mgrwt>
<rscale>  0 0.15902049E+03</rscale>
<asrwt>0</asrwt>
<pdfrwt beam="1">  1        2 0.21314063E+00 0.16532471E+03</pdfrwt>
<pdfrwt beam="2">  1       -2 0.38833942E-02 0.16532471E+03</pdfrwt>
<totfact> 0.44817926E+03</totfact>
</mgrwt>
</event>
<event>
 8    2  0.8128359E-004  0.1259241E+03  0.7818608E-02  0.1253744E+00
          2   -1    0    0  501    0  0.00000000000E+00  0.00000000000E+00  0.19072645211E+04  0.19072645211E+04  0.25500000000E-02 0. -1.
         -2   -1    0    0    0  501 -0.00000000000E+00 -0.00000000000E+00 -0.58857624413E+01  0.58857629937E+01  0.25500000000E-02 0.  1.
         25    2    1    2    0    0 -0.72867288901E+01  0.13336917191E+02  0.12682332942E+04  0.12744695191E+04  0.12500358708E+03 0.  0.
         23    2    1    2    0    0  0.72867288901E+01 -0.13336917191E+02  0.63314546448E+03  0.63868076503E+03  0.82516487150E+02 0.  0.
        -11    1    4    4    0    0  0.39934377715E+02 -0.10660873432E+01  0.47784905836E+03  0.47951602021E+03  0.51100000000E-03 0. -1.
         11    1    4    4    0    0 -0.32647648824E+02 -0.12270829848E+02  0.15529640612E+03  0.15916474482E+03  0.51100000000E-03 0.  1.
    9000005    1    3    3    0    0  0.44133645728E+02  0.22414028172E+02  0.24762198951E+03  0.25252290398E+03  0.10000000000E+01 0.  0.
    9000005    1    3    3    0    0 -0.51420374618E+02 -0.90771109805E+01  0.10206113047E+04  0.10219466151E+04  0.10000000000E+01 0.  0.
<mgrwt>
<rscale>  0 0.11376997E+03</rscale>
<asrwt>0</asrwt>
<pdfrwt beam="1">  1        2 0.29342588E+00 0.12592405E+03</pdfrwt>
<pdfrwt beam="2">  1       -2 0.90550021E-03 0.12592405E+03</pdfrwt>
<totfact> 0.19791192E+04</totfact>
</mgrwt>
</event>
<event>
 8    2  0.8128359E-004  0.1432034E+03  0.7818608E-02  0.1221154E+00
          2   -1    0    0  501    0  0.00000000000E+00  0.00000000000E+00  0.19481123387E+03  0.19481123389E+03  0.25500000000E-02 0. -1.
         -2   -1    0    0    0  501 -0.00000000000E+00 -0.00000000000E+00 -0.10755551983E+03  0.10755551986E+03  0.25500000000E-02 0.  1.
         25    2    1    2    0    0 -0.52032767151E+02  0.46646704662E+02  0.11988178296E+03  0.18675884983E+03  0.12499560868E+03 0.  0.
         23    2    1    2    0    0  0.52032767151E+02 -0.46646704662E+02 -0.32626068915E+02  0.11560790392E+03  0.86124347092E+02 0.  0.
        -11    1    4    4    0    0 -0.19524759881E+02 -0.30117608923E+02 -0.19999867957E+02  0.41088700809E+02  0.51100000000E-03 0. -1.
         11    1    4    4    0    0  0.71557527032E+02 -0.16529095738E+02 -0.12626200959E+02  0.74519203108E+02  0.51100000000E-03 0.  1.
    9000005    1    3    3    0    0 -0.75931821912E+02  0.74142350669E+02  0.96616716886E+02  0.14352184406E+03  0.10000000000E+01 0.  0.
    9000005    1    3    3    0    0  0.23899054761E+02 -0.27495646008E+02  0.23265066072E+02  0.43237005761E+02  0.10000000000E+01 0.  0.
<mgrwt>
<rscale>  0 0.13434034E+03</rscale>
<asrwt>0</asrwt>
<pdfrwt beam="1">  1        2 0.29970959E-01 0.14320344E+03</pdfrwt>
<pdfrwt beam="2">  1       -2 0.16547003E-01 0.14320344E+03</pdfrwt>
<totfact> 0.48916968E+03</totfact>
</mgrwt>
</event>
<event>
 8    2  0.8128359E-004  0.1515321E+03  0.7818608E-02  0.1207458E+00
          2   -1    0    0  501    0  0.00000000000E+00  0.00000000000E+00  0.44606157595E+02  0.44606157668E+02  0.25500000000E-02 0. -1.
         -2   -1    0    0    0  501 -0.00000000000E+00 -0.00000000000E+00 -0.42923410135E+03  0.42923410136E+03  0.25500000000E-02 0.  1.
         25    2    1    2    0    0 -0.85522634021E+02 -0.48798233259E+01 -0.20546090963E+03  0.25529624263E+03  0.12499620998E+03 0.  0.
         23    2    1    2    0    0  0.85522634021E+02  0.48798233259E+01 -0.17916703413E+03  0.21854401640E+03  0.91228983221E+02 0.  0.
        -11    1    4    4    0    0  0.26335442620E+02  0.30916609625E+02 -0.13308157628E+03  0.13914057005E+03  0.51100000000E-03 0.  1.
         11    1    4    4    0    0  0.59187191401E+02 -0.26036786299E+02 -0.46085457853E+02  0.79403446351E+02  0.51100000000E-03 0. -1.
    9000005    1    3    3    0    0 -0.37435242285E+02 -0.57693107947E+02 -0.14946539944E+03  0.16453205675E+03  0.10000000000E+01 0.  0.
    9000005    1    3    3    0    0 -0.48087391736E+02  0.52813284621E+02 -0.55995510186E+02  0.90764185874E+02  0.10000000000E+01 0.  0.
<mgrwt>
<rscale>  0 0.14445408E+03</rscale>
<asrwt>0</asrwt>
<pdfrwt beam="1">  1        2 0.68624861E-02 0.15153213E+03</pdfrwt>
<pdfrwt beam="2">  1       -2 0.66036013E-01 0.15153213E+03</pdfrwt>
<totfact> 0.21691982E+03</totfact>
</mgrwt>
</event>
<event>
 8    2  0.8128359E-004  0.2320762E+03  0.7818608E-02  0.1128135E+00
          2   -1    0    0  501    0  0.00000000000E+00  0.00000000000E+00  0.12325256125E+03  0.12325256127E+03  0.25500000000E-02 0.  1.
         -2   -1    0    0    0  501 -0.00000000000E+00 -0.00000000000E+00 -0.40684417593E+03  0.40684417594E+03  0.25500000000E-02 0. -1.
         25    2    1    2    0    0 -0.44054309560E+02 -0.19051049524E+03 -0.14871290252E+03  0.27563546142E+03  0.12499739690E+03 0.  0.
         23    2    1    2    0    0  0.44054309560E+02  0.19051049524E+03 -0.13487871217E+03  0.25446127580E+03  0.91231808581E+02 0.  0.
        -11    1    4    4    0    0  0.62933374450E+02  0.11872656613E+03 -0.54369340119E+02  0.14495734638E+03  0.51100000000E-03 0. -1.
         11    1    4    4    0    0 -0.18879064890E+02  0.71783929112E+02 -0.80509372052E+02  0.10950392942E+03  0.51100000000E-03 0.  1.
    9000005    1    3    3    0    0 -0.48036412327E+02 -0.51187025152E+02  0.21533132261E+01  0.70237064368E+02  0.10000000000E+01 0.  0.
    9000005    1    3    3    0    0  0.39821027670E+01 -0.13932347009E+03 -0.15086621574E+03  0.20539839705E+03  0.10000000000E+01 0.  0.
<mgrwt>
<rscale>  0 0.22788861E+03</rscale>
<asrwt>0</asrwt>
<pdfrwt beam="1">  1        2 0.18961933E-01 0.23207624E+03</pdfrwt>
<pdfrwt beam="2">  1       -2 0.62591411E-01 0.23207624E+03</pdfrwt>
<totfact> 0.71405055E+02</totfact>
</mgrwt>
</event>
<event>
 8    2  0.8128359E-004  0.2229514E+03  0.7818608E-02  0.1135031E+00
         -2   -1    0    0    0  501 -0.00000000000E+00  0.00000000000E+00  0.25118662972E+02  0.25118663101E+02  0.25500000000E-02 0.  1.
          2   -1    0    0  501    0  0.00000000000E+00 -0.00000000000E+00 -0.18289840695E+04  0.18289840695E+04  0.25500000000E-02 0. -1.
         25    2    1    2    0    0  0.15809791590E+03 -0.95329588251E+02 -0.91167770171E+03  0.93854332143E+03  0.12499861201E+03 0.  0.
         23    2    1    2    0    0 -0.15809791590E+03  0.95329588251E+02 -0.89218770482E+03  0.91555941117E+03  0.90373963841E+02 0.  0.
        -11    1    4    4    0    0 -0.43259004136E+02  0.29854533583E+02 -0.47572733650E+03  0.47862211953E+03  0.51100000000E-03 0. -1.
         11    1    4    4    0    0 -0.11483891177E+03  0.65475054668E+02 -0.41646036832E+03  0.43693729164E+03  0.51100000000E-03 0.  1.
    9000005    1    3    3    0    0  0.38922125495E+02  0.44969560837E+00 -0.49833582668E+02  0.63241758678E+02  0.10000000000E+01 0.  0.
    9000005    1    3    3    0    0  0.11917579041E+03 -0.95779283859E+02 -0.86184411904E+03  0.87530156275E+03  0.10000000000E+01 0.  0.
<mgrwt>
<rscale>  0 0.21846717E+03</rscale>
<asrwt>0</asrwt>
<pdfrwt beam="2">  1        2 0.28138206E+00 0.22295142E+03</pdfrwt>
<pdfrwt beam="1">  1       -2 0.38644111E-02 0.22295142E+03</pdfrwt>
<totfact> 0.26478502E+03</totfact>
</mgrwt>
</event>
<event>
 8    2  0.8128359E-004  0.1295031E+03  0.7818608E-02  0.1242147E+00
         -2   -1    0    0    0  501 -0.00000000000E+00  0.00000000000E+00  0.11569203777E+02  0.11569204058E+02  0.25500000000E-02 0.  1.
          2   -1    0    0  501    0  0.00000000000E+00 -0.00000000000E+00 -0.11442992268E+04  0.11442992268E+04  0.25500000000E-02 0. -1.
         25    2    1    2    0    0  0.23391338637E+02 -0.24479914097E+02 -0.54801806168E+03  0.56311175775E+03  0.12499853945E+03 0.  0.
         23    2    1    2    0    0 -0.23391338637E+02  0.24479914097E+02 -0.58471196135E+03  0.59275667312E+03  0.91246780041E+02 0.  0.
        -11    1    4    4    0    0 -0.30643851686E+02  0.15310515526E+01 -0.54800374518E+03  0.54886199951E+03  0.51100000000E-03 0. -1.
         11    1    4    4    0    0  0.72525130490E+01  0.22948862544E+02 -0.36708216166E+02  0.43894673617E+02  0.51100000000E-03 0.  1.
    9000005    1    3    3    0    0 -0.45374630509E+02  0.64605606887E+01 -0.11916985323E+03  0.12768339695E+03  0.10000000000E+01 0.  0.
    9000005    1    3    3    0    0  0.68765969145E+02 -0.30940474785E+02 -0.42884820845E+03  0.43542836079E+03  0.10000000000E+01 0.  0.
<mgrwt>
<rscale>  0 0.12057788E+03</rscale>
<asrwt>0</asrwt>
<pdfrwt beam="2">  1        2 0.17604595E+00 0.12950311E+03</pdfrwt>
<pdfrwt beam="1">  1       -2 0.17798784E-02 0.12950311E+03</pdfrwt>
<totfact> 0.18857966E+04</totfact>
</mgrwt>
</event>
<event>
 8    2  0.8128359E-004  0.1374401E+03  0.7818608E-02  0.1230065E+00
         -2   -1    0    0    0  501 -0.00000000000E+00  0.00000000000E+00  0.12071942783E+02  0.12071943052E+02  0.25500000000E-02 0.  1.
          2   -1    0    0  501    0  0.00000000000E+00 -0.00000000000E+00 -0.14911593948E+04  0.14911593948E+04  0.25500000000E-02 0. -1.
         25    2    1    2    0    0 -0.37988944949E+02  0.42674811927E+02 -0.49782423819E+03  0.51644820707E+03  0.12500191577E+03 0.  0.
         23    2    1    2    0    0  0.37988944949E+02 -0.42674811927E+02 -0.98126321387E+03  0.98678313082E+03  0.87173120145E+02 0.  0.
        -11    1    4    4    0    0  0.44615511977E+02 -0.66631848740E+01 -0.21679536083E+03  0.22143886384E+03  0.51100000000E-03 0.  1.
         11    1    4    4    0    0 -0.66265670288E+01 -0.36011627053E+02 -0.76446785304E+03  0.76534426698E+03  0.51100000000E-03 0. -1.
    9000005    1    3    3    0    0  0.17302897554E+02  0.47119324957E+02 -0.76605818126E+02  0.91591879656E+02  0.10000000000E+01 0.  0.
    9000005    1    3    3    0    0 -0.55291842503E+02 -0.44445130299E+01 -0.42121842006E+03  0.42485632741E+03  0.10000000000E+01 0.  0.
<mgrwt>
<rscale>  0 0.12825699E+03</rscale>
<asrwt>0</asrwt>
<pdfrwt beam="2">  1        2 0.22940899E+00 0.13744009E+03</pdfrwt>
<pdfrwt beam="1">  1       -2 0.18572232E-02 0.13744009E+03</pdfrwt>
<totfact> 0.11574630E+04</totfact>
</mgrwt>
</event>
<event>
 8    2  0.8128359E-004  0.1927600E+03  0.7818608E-02  0.1160741E+00
         -2   -1    0    0    0  501 -0.00000000000E+00  0.00000000000E+00  0.13380769143E+03  0.13380769145E+03  0.25500000000E-02 0.  1.
          2   -1    0    0  501    0  0.00000000000E+00 -0.00000000000E+00 -0.25197439086E+03  0.25197439088E+03  0.25500000000E-02 0. -1.
         25    2    1    2    0    0  0.66652370589E+02 -0.13072469767E+03 -0.82052453820E+02  0.20949708330E+03  0.12499975058E+03 0.  0.
         23    2    1    2    0    0 -0.66652370589E+02  0.13072469767E+03 -0.36114245617E+02  0.17628499903E+03  0.90778175015E+02 0.  0.
        -11    1    4    4    0    0 -0.42560147501E+02  0.38791081954E+02 -0.54725544784E+02  0.79441799115E+02  0.51100000000E-03 0. -1.
         11    1    4    4    0    0 -0.24092223088E+02  0.91933615720E+02  0.18611299167E+02  0.96843199914E+02  0.51100000000E-03 0.  1.
    9000005    1    3    3    0    0  0.18667983107E+02 -0.47300935203E+02 -0.99441959843E+02  0.11169411552E+03  0.10000000000E+01 0.  0.
    9000005    1    3    3    0    0  0.47984387481E+02 -0.83423762470E+02  0.17389506023E+02  0.97802967779E+02  0.10000000000E+01 0.  0.
<mgrwt>
<rscale>  0 0.18749471E+03</rscale>
<asrwt>0</asrwt>
<pdfrwt beam="2">  1        2 0.38765291E-01 0.19276001E+03</pdfrwt>
<pdfrwt beam="1">  1       -2 0.20585799E-01 0.19276001E+03</pdfrwt>
<totfact> 0.26029233E+03</totfact>
</mgrwt>
</event>
<event>
 8    2  0.8128359E-004  0.1816586E+03  0.7818608E-02  0.1171746E+00
          2   -1    0    0  501    0  0.00000000000E+00  0.00000000000E+00  0.89294867322E+03  0.89294867323E+03  0.25500000000E-02 0.  1.
         -2   -1    0    0    0  501 -0.00000000000E+00 -0.00000000000E+00 -0.33116464242E+02  0.33116464340E+02  0.25500000000E-02 0. -1.
         25    2    1    2    0    0  0.12834334578E+03 -0.30054328441E+02  0.40391568213E+03  0.44288567177E+03  0.12499825169E+03 0.  0.
         23    2    1    2    0    0 -0.12834334578E+03  0.30054328441E+02  0.45591652685E+03  0.48317946580E+03  0.90704132448E+02 0.  0.
        -11    1    4    4    0    0 -0.11965493104E+03  0.23386424021E+02  0.45621334517E+03  0.47222329852E+03  0.51100000000E-03 0.  1.
         11    1    4    4    0    0 -0.86884147407E+01  0.66679044194E+01 -0.29681831612E+00  0.10956167278E+02  0.51100000000E-03 0. -1.
    9000005    1    3    3    0    0  0.15304117085E+03 -0.18229497990E+02  0.33670880977E+03  0.37030762502E+03  0.10000000000E+01 0.  0.
    9000005    1    3    3    0    0 -0.24697825063E+02 -0.11824830451E+02  0.67206872351E+02  0.72578046745E+02  0.10000000000E+01 0.  0.
<mgrwt>
<rscale>  0 0.17598566E+03</rscale>
<asrwt>0</asrwt>
<pdfrwt beam="1">  1        2 0.13737672E+00 0.18165858E+03</pdfrwt>
<pdfrwt beam="2">  1       -2 0.50948406E-02 0.18165858E+03</pdfrwt>
<totfact> 0.57440812E+03</totfact>
</mgrwt>
</event>
<event>
 8    2  0.8128359E-004  0.1399856E+03  0.7818608E-02  0.1224192E+00
          2   -1    0    0  501    0  0.00000000000E+00  0.00000000000E+00  0.36301297402E+03  0.36301297403E+03  0.25500000000E-02 0. -1.
         -2   -1    0    0    0  501 -0.00000000000E+00 -0.00000000000E+00 -0.55941701243E+02  0.55941701301E+02  0.25500000000E-02 0.  1.
         25    2    1    2    0    0  0.17512131714E+02 -0.60535954161E+02  0.68935524641E+02  0.15603872237E+03  0.12499879926E+03 0.  0.
         23    2    1    2    0    0 -0.17512131714E+02  0.60535954161E+02  0.23813574814E+03  0.26291595297E+03  0.91896067815E+02 0.  0.
        -11    1    4    4    0    0  0.32198960624E+02  0.25731815132E+01  0.99893780693E+02  0.10498648365E+03  0.51100000000E-03 0. -1.
         11    1    4    4    0    0 -0.49711092338E+02  0.57962772648E+02  0.13824196744E+03  0.15792946931E+03  0.51100000000E-03 0.  1.
    9000005    1    3    3    0    0  0.60913383974E+02 -0.56835368848E+02  0.11742694050E+02  0.84140301656E+02  0.10000000000E+01 0.  0.
    9000005    1    3    3    0    0 -0.43401252261E+02 -0.37005853127E+01  0.57192830592E+02  0.71898420710E+02  0.10000000000E+01 0.  0.
<mgrwt>
<rscale>  0 0.13222422E+03</rscale>
<asrwt>0</asrwt>
<pdfrwt beam="1">  1        2 0.55848148E-01 0.13998563E+03</pdfrwt>
<pdfrwt beam="2">  1       -2 0.86064159E-02 0.13998563E+03</pdfrwt>
<totfact> 0.71527004E+03</totfact>
</mgrwt>
</event>
<event>
 8    2  0.8128359E-004  0.1833413E+03  0.7818608E-02  0.1169682E+00
         -2   -1    0    0    0  501 -0.00000000000E+00  0.00000000000E+00  0.87984136663E+03  0.87984136663E+03  0.25500000000E-02 0.  1.
          2   -1    0    0  501    0  0.00000000000E+00 -0.00000000000E+00 -0.34287098262E+02  0.34287098357E+02  0.25500000000E-02 0. -1.
         25    2    1    2    0    0 -0.60191572605E+02  0.11986246504E+03  0.41490694730E+03  0.45360975017E+03  0.12499597830E+03 0.  0.
         23    2    1    2    0    0  0.60191572605E+02 -0.11986246504E+03  0.43064732106E+03  0.46051871482E+03  0.92899599680E+02 0.  0.
        -11    1    4    4    0    0 -0.13777877281E+02 -0.42162925353E+01  0.12036571954E+03  0.12122505296E+03  0.51100000000E-03 0.  1.
         11    1    4    4    0    0  0.73969449885E+02 -0.11564617251E+03  0.31028160152E+03  0.33929366186E+03  0.51100000000E-03 0. -1.
    9000005    1    3    3    0    0 -0.98590824739E+02  0.89782959736E+02  0.27948754276E+03  0.30966985184E+03  0.10000000000E+01 0.  0.
    9000005    1    3    3    0    0  0.38399252135E+02  0.30079505306E+02  0.13541940455E+03  0.14393989833E+03  0.10000000000E+01 0.  0.
<mgrwt>
<rscale>  0 0.17807255E+03</rscale>
<asrwt>0</asrwt>
<pdfrwt beam="2">  1        2 0.52749385E-02 0.18334130E+03</pdfrwt>
<pdfrwt beam="1">  1       -2 0.13536020E+00 0.18334130E+03</pdfrwt>
<totfact> 0.59647377E+02</totfact>
</mgrwt>
</event>
<event>
 8    2  0.8128359E-004  0.4543147E+03  0.7818608E-02  0.1027003E+00
         -2   -1    0    0    0  501 -0.00000000000E+00  0.00000000000E+00  0.92206044579E+02  0.92206044615E+02  0.25500000000E-02 0.  1.
          2   -1    0    0  501    0  0.00000000000E+00 -0.00000000000E+00 -0.24172690674E+04  0.24172690674E+04  0.25500000000E-02 0. -1.
         25    2    1    2    0    0 -0.43468257952E+03 -0.42751317214E+02 -0.79652735573E+03  0.91698293504E+03  0.12500101864E+03 0.  0.
         23    2    1    2    0    0  0.43468257952E+03  0.42751317214E+02 -0.15285356671E+04  0.15924921770E+04  0.93986318674E+02 0.  0.
        -11    1    4    4    0    0  0.73236351017E+02  0.16625308464E+02 -0.15934334550E+03  0.17615409659E+03  0.51100000000E-03 0.  1.
         11    1    4    4    0    0  0.36144622851E+03  0.26126008749E+02 -0.13691923216E+04  0.14163380804E+04  0.51100000000E-03 0. -1.
    9000005    1    3    3    0    0 -0.40657164233E+03 -0.12270425291E+02 -0.75864445131E+03  0.86080977410E+03  0.10000000000E+01 0.  0.
    9000005    1    3    3    0    0 -0.28110937193E+02 -0.30480891923E+02 -0.37882904415E+02  0.56173160933E+02  0.10000000000E+01 0.  0.
<mgrwt>
<rscale>  0 0.45241856E+03</rscale>
<asrwt>0</asrwt>
<pdfrwt beam="2">  1        2 0.37188750E+00 0.45431473E+03</pdfrwt>
<pdfrwt beam="1">  1       -2 0.14185547E-01 0.45431473E+03</pdfrwt>
<totfact> 0.16113968E+02</totfact>
</mgrwt>
</event>
<event>
 8    2  0.8128359E-004  0.1264480E+03  0.7818608E-02  0.1248826E+00
         -2   -1    0    0    0  501 -0.00000000000E+00  0.00000000000E+00  0.11336045131E+02  0.11336045418E+02  0.25500000000E-02 0.  1.
          2   -1    0    0  501    0  0.00000000000E+00 -0.00000000000E+00 -0.10944042452E+04  0.10944042452E+04  0.25500000000E-02 0. -1.
         25    2    1    2    0    0 -0.16936460869E+02 -0.88079456204E+01 -0.51077238773E+03  0.52619152818E+03  0.12499867457E+03 0.  0.
         23    2    1    2    0    0  0.16936460869E+02  0.88079456204E+01 -0.57229581232E+03  0.57954876243E+03  0.89385947544E+02 0.  0.
        -11    1    4    4    0    0 -0.17131216404E+02 -0.17309493350E+02 -0.43539477498E+03  0.43607534580E+03  0.51100000000E-03 0.  1.
         11    1    4    4    0    0  0.34067677273E+02  0.26117438970E+02 -0.13690103735E+03  0.14347341663E+03  0.51100000000E-03 0. -1.
    9000005    1    3    3    0    0 -0.40928481161E+02 -0.50914542247E+02 -0.17238916391E+03  0.18435415650E+03  0.10000000000E+01 0.  0.
    9000005    1    3    3    0    0  0.23992020292E+02  0.42106596626E+02 -0.33838322382E+03  0.34183737168E+03  0.10000000000E+01 0.  0.
<mgrwt>
<rscale>  0 0.11659301E+03</rscale>
<asrwt>0</asrwt>
<pdfrwt beam="2">  1        2 0.16836980E+00 0.12644798E+03</pdfrwt>
<pdfrwt beam="1">  1       -2 0.17440078E-02 0.12644798E+03</pdfrwt>
<totfact> 0.20692421E+04</totfact>
</mgrwt>
</event>
<event>
 8    2  0.8128359E-004  0.1272162E+03  0.7818608E-02  0.1246739E+00
         -2   -1    0    0    0  501 -0.00000000000E+00  0.00000000000E+00  0.13574791400E+02  0.13574791639E+02  0.25500000000E-02 0.  1.
          2   -1    0    0  501    0  0.00000000000E+00 -0.00000000000E+00 -0.90751576231E+03  0.90751576231E+03  0.25500000000E-02 0. -1.
         25    2    1    2    0    0  0.79022876267E+01  0.22279927494E+02 -0.46750074162E+03  0.48450066335E+03  0.12500043223E+03 0.  0.
         23    2    1    2    0    0 -0.79022876267E+01 -0.22279927494E+02 -0.42644022929E+03  0.43658989060E+03  0.90557286270E+02 0.  0.
        -11    1    4    4    0    0  0.12865873097E+02  0.71724044888E+01 -0.36545958605E+03  0.36575631657E+03  0.51100000000E-03 0. -1.
         11    1    4    4    0    0 -0.20768160723E+02 -0.29452331983E+02 -0.60980643245E+02  0.70833574030E+02  0.51100000000E-03 0.  1.
    9000005    1    3    3    0    0  0.33530743510E+02  0.55878224522E+02 -0.14170465922E+03  0.15597402726E+03  0.10000000000E+01 0.  0.
    9000005    1    3    3    0    0 -0.25628455883E+02 -0.33598297028E+02 -0.32579608240E+03  0.32852663609E+03  0.10000000000E+01 0.  0.
<mgrwt>
<rscale>  0 0.11781928E+03</rscale>
<asrwt>0</asrwt>
<pdfrwt beam="2">  1        2 0.13961776E+00 0.12721615E+03</pdfrwt>
<pdfrwt beam="1">  1       -2 0.20884302E-02 0.12721615E+03</pdfrwt>
<totfact> 0.20614506E+04</totfact>
</mgrwt>
</event>
<event>
 8    2  0.8128359E-004  0.1410551E+03  0.7818608E-02  0.1222865E+00
          2   -1    0    0  501    0  0.00000000000E+00  0.00000000000E+00  0.22629101219E+03  0.22629101220E+03  0.25500000000E-02 0. -1.
         -2   -1    0    0    0  501 -0.00000000000E+00 -0.00000000000E+00 -0.73031948955E+02  0.73031948999E+02  0.25500000000E-02 0.  1.
         25    2    1    2    0    0  0.62272996627E+02 -0.19845689925E+02  0.11155397800E+03  0.17983554857E+03  0.12499902802E+03 0.  0.
         23    2    1    2    0    0 -0.62272996627E+02  0.19845689925E+02  0.41705085234E+02  0.11948741263E+03  0.90918370670E+02 0.  0.
        -11    1    4    4    0    0 -0.79802515850E+02  0.23204356739E+02  0.52809275716E+02  0.98466762461E+02  0.51100000000E-03 0. -1.
         11    1    4    4    0    0  0.17529519223E+02 -0.33586668144E+01 -0.11104190483E+02  0.21020650169E+02  0.51100000000E-03 0.  1.
    9000005    1    3    3    0    0  0.72279820573E+02 -0.50299121976E+02  0.31385690151E+02  0.93490297250E+02  0.10000000000E+01 0.  0.
    9000005    1    3    3    0    0 -0.10006823947E+02  0.30453432051E+02  0.80168287847E+02  0.86345251320E+02  0.10000000000E+01 0.  0.
<mgrwt>
<rscale>  0 0.13314344E+03</rscale>
<asrwt>0</asrwt>
<pdfrwt beam="1">  1        2 0.34814002E-01 0.14105508E+03</pdfrwt>
<pdfrwt beam="2">  1       -2 0.11235684E-01 0.14105508E+03</pdfrwt>
<totfact> 0.77839187E+03</totfact>
</mgrwt>
</event>
<event>
 8    2  0.8128359E-004  0.1525679E+03  0.7818608E-02  0.1206511E+00
         -2   -1    0    0    0  501 -0.00000000000E+00  0.00000000000E+00  0.18449833462E+02  0.18449833638E+02  0.25500000000E-02 0.  1.
          2   -1    0    0  501    0  0.00000000000E+00 -0.00000000000E+00 -0.10730013934E+04  0.10730013934E+04  0.25500000000E-02 0. -1.
         25    2    1    2    0    0  0.86831602057E+02  0.10444370655E+02 -0.66582806708E+03  0.68308415625E+03  0.12501254983E+03 0.  0.
         23    2    1    2    0    0 -0.86831602057E+02 -0.10444370655E+02 -0.38872349285E+03  0.40836707078E+03  0.89492450026E+02 0.  0.
        -11    1    4    4    0    0 -0.13577662061E+02 -0.30845676181E+02 -0.44372970038E+02  0.55720455098E+02  0.51100000000E-03 0.  1.
         11    1    4    4    0    0 -0.73253939996E+02  0.20401305526E+02 -0.34435052281E+03  0.35264661568E+03  0.51100000000E-03 0. -1.
    9000005    1    3    3    0    0  0.56107379244E+02  0.63580627858E+02 -0.47842930597E+03  0.48588695708E+03  0.10000000000E+01 0.  0.
    9000005    1    3    3    0    0  0.30724222813E+02 -0.53136257203E+02 -0.18739876110E+03  0.19719719917E+03  0.10000000000E+01 0.  0.
<mgrwt>
<rscale>  0 0.14519054E+03</rscale>
<asrwt>0</asrwt>
<pdfrwt beam="2">  1        2 0.16507709E+00 0.15256785E+03</pdfrwt>
<pdfrwt beam="1">  1       -2 0.28384368E-02 0.15256785E+03</pdfrwt>
<totfact> 0.10592891E+04</totfact>
</mgrwt>
</event>
<event>
 8    2  0.8128359E-004  0.1638777E+03  0.7818608E-02  0.1191666E+00
          2   -1    0    0  501    0  0.00000000000E+00  0.00000000000E+00  0.11915001038E+04  0.11915001038E+04  0.25500000000E-02 0. -1.
         -2   -1    0    0    0  501 -0.00000000000E+00 -0.00000000000E+00 -0.20063792022E+02  0.20063792184E+02  0.25500000000E-02 0.  1.
         25    2    1    2    0    0  0.96762062472E+02  0.43216977148E+02  0.74847641155E+03  0.76620679400E+03  0.12500123474E+03 0.  0.
         23    2    1    2    0    0 -0.96762062472E+02 -0.43216977148E+02  0.42295990024E+03  0.44535710199E+03  0.90649143606E+02 0.  0.
        -11    1    4    4    0    0 -0.28957667919E+02 -0.58326185398E+02  0.26341567302E+03  0.27134536522E+03  0.51100000000E-03 0.  1.
         11    1    4    4    0    0 -0.67804394553E+02  0.15109208249E+02  0.15954422722E+03  0.17401173677E+03  0.51100000000E-03 0. -1.
    9000005    1    3    3    0    0  0.52805945981E+02  0.46542398310E+02  0.68675411986E+03  0.69035272428E+03  0.10000000000E+01 0.  0.
    9000005    1    3    3    0    0  0.43956116490E+02 -0.33254211621E+01  0.61722291685E+02  0.75854069724E+02  0.10000000000E+01 0.  0.
<mgrwt>
<rscale>  0 0.15739792E+03</rscale>
<asrwt>0</asrwt>
<pdfrwt beam="1">  1        2 0.18330773E+00 0.16387774E+03</pdfrwt>
<pdfrwt beam="2">  1       -2 0.30867368E-02 0.16387774E+03</pdfrwt>
<totfact> 0.80393158E+03</totfact>
</mgrwt>
</event>
<event>
 8    2  0.8128359E-004  0.1543103E+03  0.7818608E-02  0.1203502E+00
         -2   -1    0    0    0  501 -0.00000000000E+00  0.00000000000E+00  0.16024803818E+02  0.16024804021E+02  0.25500000000E-02 0.  1.
          2   -1    0    0  501    0  0.00000000000E+00 -0.00000000000E+00 -0.12581812547E+04  0.12581812547E+04  0.25500000000E-02 0. -1.
         25    2    1    2    0    0 -0.69257213728E+02  0.58235813063E+02 -0.71890432516E+03  0.73527891871E+03  0.12499475181E+03 0.  0.
         23    2    1    2    0    0  0.69257213728E+02 -0.58235813063E+02 -0.52325212570E+03  0.53892714000E+03  0.91987518718E+02 0.  0.
        -11    1    4    4    0    0 -0.35527285659E+01 -0.36173796693E+02 -0.31725068012E+03  0.31932610210E+03  0.51100000000E-03 0. -1.
         11    1    4    4    0    0  0.72809942294E+02 -0.22062016370E+02 -0.20600144558E+03  0.21960103790E+03  0.51100000000E-03 0.  1.
    9000005    1    3    3    0    0 -0.10280234437E+03  0.30295677940E+02 -0.57466474258E+03  0.58457396150E+03  0.10000000000E+01 0.  0.
    9000005    1    3    3    0    0  0.33545130640E+02  0.27940135124E+02 -0.14423958259E+03  0.15070495720E+03  0.10000000000E+01 0.  0.
<mgrwt>
<rscale>  0 0.14756109E+03</rscale>
<asrwt>0</asrwt>
<pdfrwt beam="2">  1        2 0.19356627E+00 0.15431027E+03</pdfrwt>
<pdfrwt beam="1">  1       -2 0.24653554E-02 0.15431027E+03</pdfrwt>
<totfact> 0.10252264E+04</totfact>
</mgrwt>
</event>
<event>
 8    2  0.8128359E-004  0.1309569E+03  0.7818608E-02  0.1238380E+00
         -2   -1    0    0    0  501 -0.00000000000E+00  0.00000000000E+00  0.23296397759E+03  0.23296397761E+03  0.25500000000E-02 0.  1.
          2   -1    0    0  501    0  0.00000000000E+00 -0.00000000000E+00 -0.91392852662E+02  0.91392852697E+02  0.25500000000E-02 0. -1.
         25    2    1    2    0    0 -0.33486399087E+02  0.20076368922E+02  0.17393870157E+03  0.21772546621E+03  0.12500122886E+03 0.  0.
         23    2    1    2    0    0  0.33486399087E+02 -0.20076368922E+02 -0.32367576643E+02  0.10663136410E+03  0.93798658191E+02 0.  0.
        -11    1    4    4    0    0 -0.10903160849E+02 -0.29457420053E+02  0.20082098652E+02  0.37281486011E+02  0.51100000000E-03 0.  1.
         11    1    4    4    0    0  0.44389559936E+02  0.93810511306E+01 -0.52449675295E+02  0.69349878085E+02  0.51100000000E-03 0. -1.
    9000005    1    3    3    0    0 -0.80827091823E+02  0.13736880037E+02  0.12362679119E+03  0.14834521949E+03  0.10000000000E+01 0.  0.
    9000005    1    3    3    0    0  0.47340692736E+02  0.63394888856E+01  0.50311910385E+02  0.69380246718E+02  0.10000000000E+01 0.  0.
<mgrwt>
<rscale>  0 0.12290508E+03</rscale>
<asrwt>0</asrwt>
<pdfrwt beam="2">  1        2 0.14060439E-01 0.13095689E+03</pdfrwt>
<pdfrwt beam="1">  1       -2 0.35840612E-01 0.13095689E+03</pdfrwt>
<totfact> 0.29702382E+03</totfact>
</mgrwt>
</event>
<event>
 8    2  0.8128359E-004  0.1369878E+03  0.7818608E-02  0.1229488E+00
          2   -1    0    0  501    0  0.00000000000E+00  0.00000000000E+00  0.89545715037E+01  0.89545718668E+01  0.25500000000E-02 0. -1.
         -2   -1    0    0    0  501 -0.00000000000E+00 -0.00000000000E+00 -0.16561690368E+04  0.16561690368E+04  0.25500000000E-02 0.  1.
         25    2    1    2    0    0  0.51471867302E+02  0.22166021524E+02 -0.91071632392E+03  0.92096139521E+03  0.12499993267E+03 0.  0.
         23    2    1    2    0    0 -0.51471867302E+02 -0.22166021524E+02 -0.73649814134E+03  0.74416221343E+03  0.90593609406E+02 0.  0.
        -11    1    4    4    0    0 -0.48675433112E+02 -0.27772124406E+02 -0.20206301143E+03  0.20969036523E+03  0.51100000000E-03 0. -1.
         11    1    4    4    0    0 -0.27964341906E+01  0.56061028821E+01 -0.53443512991E+03  0.53447184820E+03  0.51100000000E-03 0.  1.
    9000005    1    3    3    0    0 -0.38814243137E+02  0.87956447211E+01 -0.41555197160E+03  0.41745460823E+03  0.10000000000E+01 0.  0.
    9000005    1    3    3    0    0  0.90286110439E+02  0.13370376803E+02 -0.49516435233E+03  0.50350678698E+03  0.10000000000E+01 0.  0.
<mgrwt>
<rscale>  0 0.12863996E+03</rscale>
<asrwt>0</asrwt>
<pdfrwt beam="1">  1        2 0.13776277E-02 0.13698784E+03</pdfrwt>
<pdfrwt beam="2">  1       -2 0.25479499E+00 0.13698784E+03</pdfrwt>
<totfact> 0.60581785E+02</totfact>
</mgrwt>
</event>
<event>
 8    2  0.8128359E-004  0.2924375E+03  0.7818608E-02  0.1090728E+00
         -2   -1    0    0    0  501 -0.00000000000E+00  0.00000000000E+00  0.26846773070E+03  0.26846773071E+03  0.25500000000E-02 0.  1.
          2   -1    0    0  501    0  0.00000000000E+00 -0.00000000000E+00 -0.30766825022E+03  0.30766825023E+03  0.25500000000E-02 0. -1.
         25    2    1    2    0    0  0.20343584985E+03 -0.16884328564E+03  0.60886737922E+01  0.29250089863E+03  0.12500201455E+03 0.  0.
         23    2    1    2    0    0 -0.20343584985E+03  0.16884328564E+03 -0.45289193311E+02  0.28363508231E+03  0.92214688512E+02 0.  0.
        -11    1    4    4    0    0 -0.14437623133E+03  0.14877761764E+03 -0.13172406127E+01  0.20731862146E+03  0.51100000000E-03 0.  1.
         11    1    4    4    0    0 -0.59059618522E+02  0.20065668008E+02 -0.43971952698E+02  0.76316460852E+02  0.51100000000E-03 0. -1.
    9000005    1    3    3    0    0  0.14336109755E+03 -0.75093862795E+02 -0.47860686504E+02  0.16876948134E+03  0.10000000000E+01 0.  0.
    9000005    1    3    3    0    0  0.60074752298E+02 -0.93749422850E+02  0.53949360296E+02  0.12373141729E+03  0.10000000000E+01 0.  0.
<mgrwt>
<rscale>  0 0.28927624E+03</rscale>
<asrwt>0</asrwt>
<pdfrwt beam="2">  1        2 0.47333577E-01 0.29243752E+03</pdfrwt>
<pdfrwt beam="1">  1       -2 0.41302728E-01 0.29243752E+03</pdfrwt>
<totfact> 0.59792848E+02</totfact>
</mgrwt>
</event>
<event>
 8    2  0.8128359E-004  0.2261450E+03  0.7818608E-02  0.1132567E+00
          2   -1    0    0  501    0  0.00000000000E+00  0.00000000000E+00  0.25608619791E+04  0.25608619791E+04  0.25500000000E-02 0. -1.
         -2   -1    0    0    0  501 -0.00000000000E+00 -0.00000000000E+00 -0.33378079961E+02  0.33378080059E+02  0.25500000000E-02 0.  1.
         25    2    1    2    0    0 -0.18813921904E+03  0.10951470435E+02  0.21567419511E+04  0.21685657448E+04  0.12500098141E+03 0.  0.
         23    2    1    2    0    0  0.18813921904E+03 -0.10951470435E+02  0.37074194797E+03  0.42567431431E+03  0.90734389482E+02 0.  0.
        -11    1    4    4    0    0  0.21964644347E+02 -0.21444224629E+02  0.12584511307E+03  0.12953490979E+03  0.51100000000E-03 0. -1.
         11    1    4    4    0    0  0.16617457469E+03  0.10492754195E+02  0.24489683491E+03  0.29613940452E+03  0.51100000000E-03 0.  1.
    9000005    1    3    3    0    0 -0.20508704877E+03  0.18898113128E+02  0.20339724605E+04  0.20443734508E+04  0.10000000000E+01 0.  0.
    9000005    1    3    3    0    0  0.16947829727E+02 -0.79466426930E+01  0.12276949060E+03  0.12419229399E+03  0.10000000000E+01 0.  0.
<mgrwt>
<rscale>  0 0.22177432E+03</rscale>
<asrwt>0</asrwt>
<pdfrwt beam="1">  1        2 0.39397889E+00 0.22614497E+03</pdfrwt>
<pdfrwt beam="2">  1       -2 0.51350876E-02 0.22614497E+03</pdfrwt>
<totfact> 0.70443487E+02</totfact>
</mgrwt>
</event>
<event>
 8    2  0.8128359E-004  0.1267932E+03  0.7818608E-02  0.1245444E+00
          2   -1    0    0  501    0  0.00000000000E+00  0.00000000000E+00  0.50624472010E+02  0.50624472074E+02  0.25500000000E-02 0. -1.
         -2   -1    0    0    0  501 -0.00000000000E+00 -0.00000000000E+00 -0.29522930455E+03  0.29522930456E+03  0.25500000000E-02 0.  1.
         25    2    1    2    0    0  0.15405368495E+02  0.14658739089E+02 -0.66834498081E+02  0.14332952616E+03  0.12499719567E+03 0.  0.
         23    2    1    2    0    0 -0.15405368495E+02 -0.14658739089E+02 -0.17777033446E+03  0.20252425047E+03  0.94665602023E+02 0.  0.
        -11    1    4    4    0    0 -0.13848044878E+02 -0.25040314105E+02 -0.18661574410E+03  0.18879677334E+03  0.51100000000E-03 0.  1.
         11    1    4    4    0    0 -0.15573236167E+01  0.10381575016E+02  0.88454096372E+01  0.13727477138E+02  0.51100000000E-03 0. -1.
    9000005    1    3    3    0    0 -0.24078777554E+02  0.66486434292E+01  0.29640295397E+02  0.38775496117E+02  0.10000000000E+01 0.  0.
    9000005    1    3    3    0    0  0.39484146048E+02  0.80100956595E+01 -0.96474793478E+02  0.10455403004E+03  0.10000000000E+01 0.  0.
<mgrwt>
<rscale>  0 0.11858844E+03</rscale>
<asrwt>0</asrwt>
<pdfrwt beam="1">  1        2 0.77883805E-02 0.12679315E+03</pdfrwt>
<pdfrwt beam="2">  1       -2 0.45419892E-01 0.12679315E+03</pdfrwt>
<totfact> 0.38870711E+03</totfact>
</mgrwt>
</event>
<event>
 8    2  0.8128359E-004  0.1394561E+03  0.7818608E-02  0.1217953E+00
         -2   -1    0    0    0  501 -0.00000000000E+00  0.00000000000E+00  0.33648439894E+03  0.33648439895E+03  0.25500000000E-02 0.  1.
          2   -1    0    0  501    0  0.00000000000E+00 -0.00000000000E+00 -0.54169520667E+02  0.54169520727E+02  0.25500000000E-02 0. -1.
         25    2    1    2    0    0  0.50111070822E+02  0.36254865898E+02  0.17123144244E+03  0.22083525096E+03  0.12498986544E+03 0.  0.
         23    2    1    2    0    0 -0.50111070822E+02 -0.36254865898E+02  0.11108343583E+03  0.16981866872E+03  0.11257582249E+03 0.  0.
        -11    1    4    4    0    0 -0.65908734564E+02 -0.62088348007E+02  0.54615277922E+02  0.10574380754E+03  0.51100000000E-03 0. -1.
         11    1    4    4    0    0  0.15797663742E+02  0.25833482108E+02  0.56468157913E+02  0.64074861185E+02  0.51100000000E-03 0.  1.
    9000005    1    3    3    0    0  0.87023617479E+02  0.67573038814E+01  0.13712789575E+03  0.16255408623E+03  0.10000000000E+01 0.  0.
    9000005    1    3    3    0    0 -0.36912546656E+02  0.29497562017E+02  0.34103546686E+02  0.58281164729E+02  0.10000000000E+01 0.  0.
<mgrwt>
<rscale>  0 0.13661860E+03</rscale>
<asrwt>0</asrwt>
<pdfrwt beam="2">  1        2 0.83337723E-02 0.13945609E+03</pdfrwt>
<pdfrwt beam="1">  1       -2 0.51766831E-01 0.13945609E+03</pdfrwt>
<totfact> 0.27787544E+03</totfact>
</mgrwt>
</event>
<event>
 8    2  0.8128359E-004  0.1388895E+03  0.7818608E-02  0.1226147E+00
          2   -1    0    0  501    0  0.00000000000E+00  0.00000000000E+00  0.11907251864E+03  0.11907251866E+03  0.25500000000E-02 0. -1.
         -2   -1    0    0    0  501 -0.00000000000E+00 -0.00000000000E+00 -0.13232426899E+03  0.13232426902E+03  0.25500000000E-02 0.  1.
         25    2    1    2    0    0  0.15219216033E+02  0.58595978553E+02 -0.25383993594E+02  0.14119005129E+03  0.12500068085E+03 0.  0.
         23    2    1    2    0    0 -0.15219216033E+02 -0.58595978553E+02  0.12132243240E+02  0.11020673639E+03  0.91286473156E+02 0.  0.
        -11    1    4    4    0    0  0.30902939980E+02 -0.85567988490E+01  0.25357946330E+02  0.40880752785E+02  0.51100000000E-03 0. -1.
         11    1    4    4    0    0 -0.46122156014E+02 -0.50039179704E+02 -0.13225703090E+02  0.69325983608E+02  0.51100000000E-03 0.  1.
    9000005    1    3    3    0    0 -0.23477092907E+02  0.78355001654E+02 -0.45161362354E+02  0.93441044650E+02  0.10000000000E+01 0.  0.
    9000005    1    3    3    0    0  0.38696308941E+02 -0.19759023101E+02  0.19777368760E+02  0.47749006635E+02  0.10000000000E+01 0.  0.
<mgrwt>
<rscale>  0 0.13088567E+03</rscale>
<asrwt>0</asrwt>
<pdfrwt beam="1">  1        2 0.18318849E-01 0.13888946E+03</pdfrwt>
<pdfrwt beam="2">  1       -2 0.20357580E-01 0.13888946E+03</pdfrwt>
<totfact> 0.59666958E+03</totfact>
</mgrwt>
</event>
<event>
 8    2  0.8128359E-004  0.1453061E+03  0.7818608E-02  0.1216360E+00
         -2   -1    0    0    0  501 -0.00000000000E+00  0.00000000000E+00  0.66386369023E+02  0.66386369072E+02  0.25500000000E-02 0.  1.
          2   -1    0    0  501    0  0.00000000000E+00 -0.00000000000E+00 -0.31026170418E+03  0.31026170419E+03  0.25500000000E-02 0. -1.
         25    2    1    2    0    0 -0.38682316528E+02 -0.63187681906E+02 -0.20824840004E+03  0.25393162970E+03  0.12499948675E+03 0.  0.
         23    2    1    2    0    0  0.38682316528E+02  0.63187681906E+02 -0.35626935121E+02  0.12271644356E+03  0.91110055745E+02 0.  0.
        -11    1    4    4    0    0  0.57136188970E+02  0.16226994225E+02  0.25408229486E+01  0.59450106922E+02  0.51100000000E-03 0.  1.
         11    1    4    4    0    0 -0.18453872442E+02  0.46960687681E+02 -0.38167758070E+02  0.63266336640E+02  0.51100000000E-03 0. -1.
    9000005    1    3    3    0    0  0.99270109590E+01  0.27708643361E+02 -0.10087426497E+03  0.10508535482E+03  0.10000000000E+01 0.  0.
    9000005    1    3    3    0    0 -0.48609327487E+02 -0.90896325268E+02 -0.10737413507E+03  0.14884627489E+03  0.10000000000E+01 0.  0.
<mgrwt>
<rscale>  0 0.13777129E+03</rscale>
<asrwt>0</asrwt>
<pdfrwt beam="2">  1        2 0.47732569E-01 0.14530615E+03</pdfrwt>
<pdfrwt beam="1">  1       -2 0.10213288E-01 0.14530615E+03</pdfrwt>
<totfact> 0.64807354E+03</totfact>
</mgrwt>
</event>
<event>
 8    2  0.8128359E-004  0.1420862E+03  0.7818608E-02  0.1221293E+00
          2   -1    0    0  501    0  0.00000000000E+00  0.00000000000E+00  0.48237532550E+02  0.48237532618E+02  0.25500000000E-02 0. -1.
         -2   -1    0    0    0  501 -0.00000000000E+00 -0.00000000000E+00 -0.34040664464E+03  0.34040664465E+03  0.25500000000E-02 0.  1.
         25    2    1    2    0    0 -0.55555984078E+02 -0.38437854318E+02 -0.17936808139E+03  0.22882612286E+03  0.12499819947E+03 0.  0.
         23    2    1    2    0    0  0.55555984078E+02  0.38437854318E+02 -0.11280103070E+03  0.15981805440E+03  0.90850437400E+02 0.  0.
        -11    1    4    4    0    0  0.13142866605E+02  0.54949028266E+02 -0.26837028640E+02  0.62548834973E+02  0.51100000000E-03 0. -1.
         11    1    4    4    0    0  0.42413117473E+02 -0.16511173948E+02 -0.85964002057E+02  0.97269219431E+02  0.51100000000E-03 0.  1.
    9000005    1    3    3    0    0 -0.37733809595E+02 -0.31254743408E+02 -0.58501348927E+00  0.49010627550E+02  0.10000000000E+01 0.  0.
    9000005    1    3    3    0    0 -0.17822174483E+02 -0.71831109097E+01 -0.17878306790E+03  0.17981549531E+03  0.10000000000E+01 0.  0.
<mgrwt>
<rscale>  0 0.13424259E+03</rscale>
<asrwt>0</asrwt>
<pdfrwt beam="1">  1        2 0.74211591E-02 0.14208619E+03</pdfrwt>
<pdfrwt beam="2">  1       -2 0.52370252E-01 0.14208619E+03</pdfrwt>
<totfact> 0.31455482E+03</totfact>
</mgrwt>
</event>
<event>
 8    2  0.8128359E-004  0.1316861E+03  0.7818608E-02  0.1239090E+00
          2   -1    0    0  501    0  0.00000000000E+00  0.00000000000E+00  0.19975404510E+04  0.19975404510E+04  0.25500000000E-02 0. -1.
         -2   -1    0    0    0  501 -0.00000000000E+00 -0.00000000000E+00 -0.66883504678E+01  0.66883509539E+01  0.25500000000E-02 0.  1.
         25    2    1    2    0    0  0.18514231143E+02  0.37059040396E+02  0.12298723943E+04  0.12369023127E+04  0.12500030215E+03 0.  0.
         23    2    1    2    0    0 -0.18514231143E+02 -0.37059040396E+02  0.76097970623E+03  0.76732648930E+03  0.89351433500E+02 0.  0.
        -11    1    4    4    0    0 -0.48312196271E+02 -0.29327934250E+02  0.64003207878E+03  0.64252257385E+03  0.51100000000E-03 0.  1.
         11    1    4    4    0    0  0.29797965128E+02 -0.77311061455E+01  0.12094762745E+03  0.12480391546E+03  0.51100000000E-03 0. -1.
    9000005    1    3    3    0    0  0.10671428979E+02  0.12224441560E+02  0.16203615097E+02  0.22953725408E+02  0.10000000000E+01 0.  0.
    9000005    1    3    3    0    0  0.78428021638E+01  0.24834598836E+02  0.12136687792E+04  0.12139485873E+04  0.10000000000E+01 0.  0.
<mgrwt>
<rscale>  0 0.12246174E+03</rscale>
<asrwt>0</asrwt>
<pdfrwt beam="1">  1        2 0.30731384E+00 0.13168608E+03</pdfrwt>
<pdfrwt beam="2">  1       -2 0.10289773E-02 0.13168608E+03</pdfrwt>
<totfact> 0.14861693E+04</totfact>
</mgrwt>
</event>
<event>
 8    2  0.8128359E-004  0.1269753E+03  0.7818608E-02  0.1247927E+00
         -2   -1    0    0    0  501 -0.00000000000E+00  0.00000000000E+00  0.11454644795E+02  0.11454645079E+02  0.25500000000E-02 0.  1.
          2   -1    0    0  501    0  0.00000000000E+00 -0.00000000000E+00 -0.10497317529E+04  0.10497317529E+04  0.25500000000E-02 0. -1.
         25    2    1    2    0    0 -0.14824648762E+01 -0.22246119691E+02 -0.63465667214E+03  0.64723396992E+03  0.12500253114E+03 0.  0.
         23    2    1    2    0    0  0.14824648762E+01  0.22246119691E+02 -0.40362043597E+03  0.41395242806E+03  0.89163158433E+02 0.  0.
        -11    1    4    4    0    0 -0.12731360321E+02  0.91950014562E+00 -0.37621034789E+03  0.37642683071E+03  0.51100000000E-03 0. -1.
         11    1    4    4    0    0  0.14213825198E+02  0.21326619545E+02 -0.27410088079E+02  0.37525597353E+02  0.51100000000E-03 0.  1.
    9000005    1    3    3    0    0  0.56206878729E+02 -0.37083043670E+02 -0.34624745040E+03  0.35273596677E+03  0.10000000000E+01 0.  0.
    9000005    1    3    3    0    0 -0.57689343605E+02  0.14836923979E+02 -0.28840922173E+03  0.29449800315E+03  0.10000000000E+01 0.  0.
<mgrwt>
<rscale>  0 0.11711922E+03</rscale>
<asrwt>0</asrwt>
<pdfrwt beam="2">  1        2 0.16149712E+00 0.12697527E+03</pdfrwt>
<pdfrwt beam="1">  1       -2 0.17622539E-02 0.12697527E+03</pdfrwt>
<totfact> 0.21636567E+04</totfact>
</mgrwt>
</event>
<event>
 8    2  0.8128359E-004  0.1515732E+03  0.7818608E-02  0.1207791E+00
          2   -1    0    0  501    0  0.00000000000E+00  0.00000000000E+00  0.16887604549E+04  0.16887604549E+04  0.25500000000E-02 0. -1.
         -2   -1    0    0    0  501 -0.00000000000E+00 -0.00000000000E+00 -0.12368135582E+02  0.12368135845E+02  0.25500000000E-02 0.  1.
         25    2    1    2    0    0  0.82302817575E+02 -0.23991757932E+02  0.11681292451E+04  0.11779220504E+04  0.12500026091E+03 0.  0.
         23    2    1    2    0    0 -0.82302817575E+02  0.23991757932E+02  0.50826307420E+03  0.52320654038E+03  0.89801854459E+02 0.  0.
        -11    1    4    4    0    0 -0.20950117168E+01  0.38490240042E+02  0.23163031790E+03  0.23481586791E+03  0.51100000000E-03 0. -1.
         11    1    4    4    0    0 -0.80207805858E+02 -0.14498482110E+02  0.27663275631E+03  0.28839067247E+03  0.51100000000E-03 0.  1.
    9000005    1    3    3    0    0  0.10803448319E+03 -0.35937429639E+02  0.72516851712E+03  0.73405267292E+03  0.10000000000E+01 0.  0.
    9000005    1    3    3    0    0 -0.25731665613E+02  0.11945671707E+02  0.44296072802E+03  0.44386937747E+03  0.10000000000E+01 0.  0.
<mgrwt>
<rscale>  0 0.14419666E+03</rscale>
<asrwt>0</asrwt>
<pdfrwt beam="1">  1        2 0.25980936E+00 0.15157316E+03</pdfrwt>
<pdfrwt beam="2">  1       -2 0.19027897E-02 0.15157316E+03</pdfrwt>
<totfact> 0.88634075E+03</totfact>
</mgrwt>
</event>
<event>
 8    2  0.8128359E-004  0.1353178E+03  0.7818608E-02  0.1231903E+00
          2   -1    0    0  501    0  0.00000000000E+00  0.00000000000E+00  0.14608858676E+04  0.14608858676E+04  0.25500000000E-02 0. -1.
         -2   -1    0    0    0  501 -0.00000000000E+00 -0.00000000000E+00 -0.11247426394E+02  0.11247426683E+02  0.25500000000E-02 0.  1.
         25    2    1    2    0    0 -0.24655954393E+02 -0.45586546494E+02  0.55140173911E+03  0.56776296158E+03  0.12499941337E+03 0.  0.
         23    2    1    2    0    0  0.24655954393E+02  0.45586546494E+02  0.89823670210E+03  0.90437033271E+03  0.91490307540E+02 0.  0.
        -11    1    4    4    0    0 -0.11040816773E+02  0.27473817562E+01  0.64355228381E+03  0.64365284878E+03  0.51100000000E-03 0. -1.
         11    1    4    4    0    0  0.35696771166E+02  0.42839164738E+02  0.25468441830E+03  0.26071748394E+03  0.51100000000E-03 0.  1.
    9000005    1    3    3    0    0  0.21277491710E+02  0.31796585131E+02  0.92236564105E+02  0.99861595408E+02  0.10000000000E+01 0.  0.
    9000005    1    3    3    0    0 -0.45933446103E+02 -0.77383131624E+02  0.45916517500E+03  0.46790136617E+03  0.10000000000E+01 0.  0.
<mgrwt>
<rscale>  0 0.12704819E+03</rscale>
<asrwt>0</asrwt>
<pdfrwt beam="1">  1        2 0.22475160E+00 0.13531778E+03</pdfrwt>
<pdfrwt beam="2">  1       -2 0.17303739E-02 0.13531778E+03</pdfrwt>
<totfact> 0.13288782E+04</totfact>
</mgrwt>
</event>
<event>
 8    2  0.8128359E-004  0.1315092E+03  0.7818608E-02  0.1238983E+00
         -2   -1    0    0    0  501 -0.00000000000E+00  0.00000000000E+00  0.42852029520E+02  0.42852029596E+02  0.25500000000E-02 0.  1.
          2   -1    0    0  501    0  0.00000000000E+00 -0.00000000000E+00 -0.35284072873E+03  0.35284072874E+03  0.25500000000E-02 0. -1.
         25    2    1    2    0    0  0.37809910627E+02  0.15485982677E+02 -0.24227669584E+03  0.27566767355E+03  0.12500105555E+03 0.  0.
         23    2    1    2    0    0 -0.37809910627E+02 -0.15485982677E+02 -0.67712003366E+02  0.12002508479E+03  0.90286768561E+02 0.  0.
        -11    1    4    4    0    0  0.20401390530E+02 -0.18398394656E+02  0.38397478199E+01  0.27739165904E+02  0.51100000000E-03 0.  1.
         11    1    4    4    0    0 -0.58211301157E+02  0.29124119789E+01 -0.71551751186E+02  0.92285918883E+02  0.51100000000E-03 0. -1.
    9000005    1    3    3    0    0 -0.19381160709E+02  0.55286895482E+02 -0.80918376069E+02  0.99905224028E+02  0.10000000000E+01 0.  0.
    9000005    1    3    3    0    0  0.57191071335E+02 -0.39800912805E+02 -0.16135831978E+03  0.17576244952E+03  0.10000000000E+01 0.  0.
<mgrwt>
<rscale>  0 0.12252851E+03</rscale>
<asrwt>0</asrwt>
<pdfrwt beam="2">  1        2 0.54283187E-01 0.13150920E+03</pdfrwt>
<pdfrwt beam="1">  1       -2 0.65926202E-02 0.13150920E+03</pdfrwt>
<totfact> 0.11060671E+04</totfact>
</mgrwt>
</event>
<event>
 8    2  0.8128359E-004  0.1395207E+03  0.7818608E-02  0.1224026E+00
         -2   -1    0    0    0  501 -0.00000000000E+00  0.00000000000E+00  0.62396506358E+02  0.62396506410E+02  0.25500000000E-02 0.  1.
          2   -1    0    0  501    0  0.00000000000E+00 -0.00000000000E+00 -0.25594039236E+03  0.25594039237E+03  0.25500000000E-02 0. -1.
         25    2    1    2    0    0  0.41403806117E+02  0.46125856743E+02 -0.99398867618E+02  0.17130722000E+03  0.12499663563E+03 0.  0.
         23    2    1    2    0    0 -0.41403806117E+02 -0.46125856743E+02 -0.94145018385E+02  0.14702967879E+03  0.94406419995E+02 0.  0.
        -11    1    4    4    0    0  0.21595019901E+01  0.24469366280E+02 -0.43156603762E+02  0.49657887425E+02  0.51100000000E-03 0. -1.
         11    1    4    4    0    0 -0.43563308107E+02 -0.70595223024E+02 -0.50988414623E+02  0.97371791362E+02  0.51100000000E-03 0.  1.
    9000005    1    3    3    0    0 -0.13771640276E+02  0.71891964053E+02 -0.77443210291E+02  0.10656717783E+03  0.10000000000E+01 0.  0.
    9000005    1    3    3    0    0  0.55175446393E+02 -0.25766107310E+02 -0.21955657327E+02  0.64740042163E+02  0.10000000000E+01 0.  0.
<mgrwt>
<rscale>  0 0.13233865E+03</rscale>
<asrwt>0</asrwt>
<pdfrwt beam="2">  1        2 0.39375444E-01 0.13952071E+03</pdfrwt>
<pdfrwt beam="1">  1       -2 0.95994627E-02 0.13952071E+03</pdfrwt>
<totfact> 0.87405033E+03</totfact>
</mgrwt>
</event>
<event>
 8    2  0.8128359E-004  0.1254062E+03  0.7818608E-02  0.1249800E+00
         -2   -1    0    0    0  501 -0.00000000000E+00  0.00000000000E+00  0.24113791681E+03  0.24113791682E+03  0.25500000000E-02 0.  1.
          2   -1    0    0  501    0  0.00000000000E+00 -0.00000000000E+00 -0.58067468845E+02  0.58067468901E+02  0.25500000000E-02 0. -1.
         25    2    1    2    0    0  0.12001779067E+01 -0.10009423737E+02  0.16211165641E+03  0.20495584017E+03  0.12500031313E+03 0.  0.
         23    2    1    2    0    0 -0.12001779067E+01  0.10009423737E+02  0.20958791551E+02  0.94249545557E+02  0.91334970870E+02 0.  0.
        -11    1    4    4    0    0  0.20913394321E+02  0.46230184203E+01 -0.30910801062E+02  0.37606116309E+02  0.51100000000E-03 0. -1.
         11    1    4    4    0    0 -0.22113572228E+02  0.53864053166E+01  0.51869592612E+02  0.56643429247E+02  0.51100000000E-03 0.  1.
    9000005    1    3    3    0    0 -0.71860924985E+01  0.33605786550E+02  0.15643604279E+03  0.16016936130E+03  0.10000000000E+01 0.  0.
    9000005    1    3    3    0    0  0.83862704052E+01 -0.43615210287E+02  0.56756136263E+01  0.44786478872E+02  0.10000000000E+01 0.  0.
<mgrwt>
<rscale>  0 0.11602613E+03</rscale>
<asrwt>0</asrwt>
<pdfrwt beam="2">  1        2 0.89334570E-02 0.12540617E+03</pdfrwt>
<pdfrwt beam="1">  1       -2 0.37098140E-01 0.12540617E+03</pdfrwt>
<totfact> 0.48072564E+03</totfact>
</mgrwt>
</event>
<event>
 8    2  0.8128359E-004  0.2164021E+03  0.7818608E-02  0.1140300E+00
         -2   -1    0    0    0  501 -0.00000000000E+00  0.00000000000E+00  0.16050488099E+02  0.16050488301E+02  0.25500000000E-02 0. -1.
          2   -1    0    0  501    0  0.00000000000E+00 -0.00000000000E+00 -0.28685822804E+04  0.28685822804E+04  0.25500000000E-02 0.  1.
         25    2    1    2    0    0 -0.84801404013E+02 -0.15494329938E+03 -0.11094250429E+04  0.11303334853E+04  0.12502462964E+03 0.  0.
         23    2    1    2    0    0  0.84801404013E+02  0.15494329938E+03 -0.17431067494E+04  0.17542992834E+04  0.89141078150E+02 0.  0.
        -11    1    4    4    0    0  0.73882189153E+02  0.72947757332E+02 -0.12498017274E+04  0.12541069775E+04  0.51100000000E-03 0.  1.
         11    1    4    4    0    0  0.10919214860E+02  0.81995542052E+02 -0.49330502201E+03  0.50019230593E+03  0.51100000000E-03 0. -1.
    9000005    1    3    3    0    0 -0.93072483977E+02 -0.15770335266E+03 -0.11057628090E+04  0.11208234582E+04  0.10000000000E+01 0.  0.
    9000005    1    3    3    0    0  0.82710799642E+01  0.27600532727E+01 -0.36622338917E+01  0.95100270725E+01  0.10000000000E+01 0.  0.
<mgrwt>
<rscale>  0 0.21160718E+03</rscale>
<asrwt>0</asrwt>
<pdfrwt beam="2">  1        2 0.44131994E+00 0.21640208E+03</pdfrwt>
<pdfrwt beam="1">  1       -2 0.24693082E-02 0.21640208E+03</pdfrwt>
<totfact> 0.14200766E+03</totfact>
</mgrwt>
</event>
<event>
 8    2  0.8128359E-004  0.1435637E+03  0.7818608E-02  0.1217251E+00
         -2   -1    0    0    0  501 -0.00000000000E+00  0.00000000000E+00  0.30898854527E+02  0.30898854632E+02  0.25500000000E-02 0.  1.
          2   -1    0    0  501    0  0.00000000000E+00 -0.00000000000E+00 -0.56001260805E+03  0.56001260805E+03  0.25500000000E-02 0. -1.
         25    2    1    2    0    0  0.10977052411E+02  0.69750063620E+02 -0.28400659984E+03  0.31822990971E+03  0.12499983849E+03 0.  0.
         23    2    1    2    0    0 -0.10977052411E+02 -0.69750063620E+02 -0.24510715368E+03  0.27268155298E+03  0.96395775304E+02 0.  0.
        -11    1    4    4    0    0 -0.34233023566E+02 -0.70886722373E+02 -0.10818586506E+03  0.13379465128E+03  0.51100000000E-03 0.  1.
         11    1    4    4    0    0  0.23255971155E+02  0.11366587529E+01 -0.13692128862E+03  0.13888690170E+03  0.51100000000E-03 0. -1.
    9000005    1    3    3    0    0  0.57854499395E+02  0.13946274324E+02 -0.19103925612E+03  0.20009657430E+03  0.10000000000E+01 0.  0.
    9000005    1    3    3    0    0 -0.46877446984E+02  0.55803789296E+02 -0.92967343728E+02  0.11813333541E+03  0.10000000000E+01 0.  0.
<mgrwt>
<rscale>  0 0.13712472E+03</rscale>
<asrwt>0</asrwt>
<pdfrwt beam="2">  1        2 0.86155779E-01 0.14356367E+03</pdfrwt>
<pdfrwt beam="1">  1       -2 0.47536703E-02 0.14356367E+03</pdfrwt>
<totfact> 0.11055586E+04</totfact>
</mgrwt>
</event>
<event>
 8    2  0.8128359E-004  0.2551519E+03  0.7818608E-02  0.1112173E+00
         -2   -1    0    0    0  501 -0.00000000000E+00  0.00000000000E+00  0.21938693112E+02  0.21938693261E+02  0.25500000000E-02 0.  1.
          2   -1    0    0  501    0  0.00000000000E+00 -0.00000000000E+00 -0.32881025782E+04  0.32881025782E+04  0.25500000000E-02 0. -1.
         25    2    1    2    0    0  0.22087601966E+03  0.26300202449E+02 -0.22966391262E+04  0.23107690905E+04  0.12499838750E+03 0.  0.
         23    2    1    2    0    0 -0.22087601966E+03 -0.26300202449E+02 -0.96952475892E+03  0.99927218100E+03  0.95334762031E+02 0.  0.
        -11    1    4    4    0    0 -0.14183891559E+03 -0.19942078777E+02 -0.79194615325E+03  0.80479480250E+03  0.51100000000E-03 0. -1.
         11    1    4    4    0    0 -0.79037104072E+02 -0.63581236720E+01 -0.17757860567E+03  0.19447737850E+03  0.51100000000E-03 0.  1.
    9000005    1    3    3    0    0  0.41678323493E+02  0.57823959174E+02 -0.52672855424E+03  0.53153049090E+03  0.10000000000E+01 0.  0.
    9000005    1    3    3    0    0  0.17919769617E+03 -0.31523756725E+02 -0.17699105719E+04  0.17792385996E+04  0.10000000000E+01 0.  0.
<mgrwt>
<rscale>  0 0.25179984E+03</rscale>
<asrwt>0</asrwt>
<pdfrwt beam="2">  1        2 0.50586154E+00 0.25515194E+03</pdfrwt>
<pdfrwt beam="1">  1       -2 0.33751862E-02 0.25515194E+03</pdfrwt>
<totfact> 0.49537905E+02</totfact>
</mgrwt>
</event>
<event>
 8    2  0.8128359E-004  0.1341320E+03  0.7818608E-02  0.1232904E+00
         -2   -1    0    0    0  501 -0.00000000000E+00  0.00000000000E+00  0.74547857015E+01  0.74547861376E+01  0.25500000000E-02 0.  1.
          2   -1    0    0  501    0  0.00000000000E+00 -0.00000000000E+00 -0.19303369546E+04  0.19303369546E+04  0.25500000000E-02 0. -1.
         25    2    1    2    0    0 -0.20426153887E+02 -0.44149197408E+02 -0.10889044743E+04  0.10971346057E+04  0.12500003776E+03 0.  0.
         23    2    1    2    0    0  0.20426153887E+02  0.44149197408E+02 -0.83397769457E+03  0.84065713503E+03  0.93910831329E+02 0.  0.
        -11    1    4    4    0    0  0.10010440742E+02 -0.29079968264E+02 -0.19459633811E+03  0.19701164504E+03  0.51100000000E-03 0.  1.
         11    1    4    4    0    0  0.10415713146E+02  0.73229165672E+02 -0.63938135646E+03  0.64364548999E+03  0.51100000000E-03 0. -1.
    9000005    1    3    3    0    0  0.38640329307E+02 -0.48861471812E+02 -0.32385403568E+03  0.32979229054E+03  0.10000000000E+01 0.  0.
    9000005    1    3    3    0    0 -0.59066483194E+02  0.47122744035E+01 -0.76505043861E+03  0.76734231513E+03  0.10000000000E+01 0.  0.
<mgrwt>
<rscale>  0 0.12639555E+03</rscale>
<asrwt>0</asrwt>
<pdfrwt beam="2">  1        2 0.29697452E+00 0.13413198E+03</pdfrwt>
<pdfrwt beam="1">  1       -2 0.11468917E-02 0.13413198E+03</pdfrwt>
<totfact> 0.13780611E+04</totfact>
</mgrwt>
</event>
<event>
 8    2  0.8128359E-004  0.1316799E+03  0.7818608E-02  0.1242261E+00
         -2   -1    0    0    0  501 -0.00000000000E+00  0.00000000000E+00  0.17693255305E+02  0.17693255489E+02  0.25500000000E-02 0.  1.
          2   -1    0    0  501    0  0.00000000000E+00 -0.00000000000E+00 -0.72215237465E+03  0.72215237466E+03  0.25500000000E-02 0. -1.
         25    2    1    2    0    0 -0.30204145173E+02 -0.28325802682E+02 -0.36425594352E+03  0.38732672586E+03  0.12499983477E+03 0.  0.
         23    2    1    2    0    0  0.30204145173E+02  0.28325802682E+02 -0.34020317583E+03  0.35251890429E+03  0.82563524346E+02 0.  0.
        -11    1    4    4    0    0  0.22184382845E+02  0.56599242324E+02 -0.19072427803E+03  0.20017834874E+03  0.51100000000E-03 0.  1.
         11    1    4    4    0    0  0.80197623282E+01 -0.28273439642E+02 -0.14947889780E+03  0.15234055555E+03  0.51100000000E-03 0. -1.
    9000005    1    3    3    0    0 -0.45323826786E+02 -0.71344686416E+02 -0.20711326018E+03  0.22369894076E+03  0.10000000000E+01 0.  0.
    9000005    1    3    3    0    0  0.15119681613E+02  0.43018883733E+02 -0.15714268334E+03  0.16362778510E+03  0.10000000000E+01 0.  0.
<mgrwt>
<rscale>  0 0.12050832E+03</rscale>
<asrwt>0</asrwt>
<pdfrwt beam="2">  1        2 0.11110034E+00 0.13167992E+03</pdfrwt>
<pdfrwt beam="1">  1       -2 0.27220399E-02 0.13167992E+03</pdfrwt>
<totfact> 0.18688951E+04</totfact>
</mgrwt>
</event>
<event>
 8    2  0.8128359E-004  0.1354048E+03  0.7818608E-02  0.1240784E+00
          2   -1    0    0  501    0  0.00000000000E+00  0.00000000000E+00  0.25137024941E+03  0.25137024942E+03  0.25500000000E-02 0. -1.
         -2   -1    0    0    0  501 -0.00000000000E+00 -0.00000000000E+00 -0.61507560879E+02  0.61507560932E+02  0.25500000000E-02 0.  1.
         25    2    1    2    0    0  0.41834011113E+02  0.30971580180E+02  0.17934154341E+03  0.22471728885E+03  0.12500058980E+03 0.  0.
         23    2    1    2    0    0 -0.41834011113E+02 -0.30971580180E+02  0.10521145122E+02  0.88160521505E+02  0.70372294212E+02 0.  0.
        -11    1    4    4    0    0  0.49559335692E+01 -0.75431160564E+01  0.30758826327E+02  0.32055659011E+02  0.51100000000E-03 0. -1.
         11    1    4    4    0    0 -0.46789944682E+02 -0.23428464124E+02 -0.20237681205E+02  0.56104862493E+02  0.51100000000E-03 0.  1.
    9000005    1    3    3    0    0 -0.24184136264E+02  0.11536470105E+02 -0.55928285261E+01  0.27390551660E+02  0.10000000000E+01 0.  0.
    9000005    1    3    3    0    0  0.66018147377E+02  0.19435110075E+02  0.18493437193E+03  0.19732673719E+03  0.10000000000E+01 0.  0.
<mgrwt>
<rscale>  0 0.12141307E+03</rscale>
<asrwt>0</asrwt>
<pdfrwt beam="1">  1        2 0.38672345E-01 0.13540484E+03</pdfrwt>
<pdfrwt beam="2">  1       -2 0.94627020E-02 0.13540484E+03</pdfrwt>
<totfact> 0.90928445E+03</totfact>
</mgrwt>
</event>
<event>
 8    2  0.8128359E-004  0.1377450E+03  0.7818608E-02  0.1228397E+00
         -2   -1    0    0    0  501 -0.00000000000E+00  0.00000000000E+00  0.13763164662E+02  0.13763164899E+02  0.25500000000E-02 0. -1.
          2   -1    0    0  501    0  0.00000000000E+00 -0.00000000000E+00 -0.11404742033E+04  0.11404742033E+04  0.25500000000E-02 0.  1.
         25    2    1    2    0    0  0.19393977373E+02  0.54557925048E+02 -0.75155549253E+03  0.76407417155E+03  0.12498394992E+03 0.  0.
         23    2    1    2    0    0 -0.19393977373E+02 -0.54557925048E+02 -0.37515554615E+03  0.39016319669E+03  0.90182829304E+02 0.  0.
        -11    1    4    4    0    0 -0.53417240395E+02 -0.20415334109E+02 -0.23837253735E+03  0.24513599083E+03  0.51100000000E-03 0. -1.
         11    1    4    4    0    0  0.34023263022E+02 -0.34142590939E+02 -0.13678300880E+03  0.14502720586E+03  0.51100000000E-03 0.  1.
    9000005    1    3    3    0    0 -0.43766811172E+02 -0.94478583300E+01 -0.33063866824E+03  0.33365809555E+03  0.10000000000E+01 0.  0.
    9000005    1    3    3    0    0  0.63160788545E+02  0.64005783378E+02 -0.42091682428E+03  0.43041607600E+03  0.10000000000E+01 0.  0.
<mgrwt>
<rscale>  0 0.12936781E+03</rscale>
<asrwt>0</asrwt>
<pdfrwt beam="2">  1        2 0.17545750E+00 0.13774499E+03</pdfrwt>
<pdfrwt beam="1">  1       -2 0.21174109E-02 0.13774499E+03</pdfrwt>
<totfact> 0.14792050E+04</totfact>
</mgrwt>
</event>
<event>
 8    2  0.8128359E-004  0.1406041E+03  0.7818608E-02  0.1223858E+00
          2   -1    0    0  501    0  0.00000000000E+00  0.00000000000E+00  0.88402832856E+02  0.88402832893E+02  0.25500000000E-02 0. -1.
         -2   -1    0    0    0  501 -0.00000000000E+00 -0.00000000000E+00 -0.17864779811E+03  0.17864779813E+03  0.25500000000E-02 0.  1.
         25    2    1    2    0    0  0.62912084435E+02  0.13678559311E+02 -0.49809779333E+02  0.14916612014E+03  0.12499793569E+03 0.  0.
         23    2    1    2    0    0 -0.62912084435E+02 -0.13678559311E+02 -0.40435185920E+02  0.11788451088E+03  0.90092842631E+02 0.  0.
        -11    1    4    4    0    0  0.15665882119E+01 -0.28377881452E+02  0.14504353379E+02  0.31908221849E+02  0.51100000000E-03 0. -1.
         11    1    4    4    0    0 -0.64478672647E+02  0.14699322141E+02 -0.54939539299E+02  0.85976289036E+02  0.51100000000E-03 0.  1.
    9000005    1    3    3    0    0 -0.18125139913E+02 -0.26713989212E+02  0.17128888825E+02  0.36558948957E+02  0.10000000000E+01 0.  0.
    9000005    1    3    3    0    0  0.81037224348E+02  0.40392548523E+02 -0.66938668158E+02  0.11260717118E+03  0.10000000000E+01 0.  0.
<mgrwt>
<rscale>  0 0.13245477E+03</rscale>
<asrwt>0</asrwt>
<pdfrwt beam="1">  1        2 0.13600436E-01 0.14060412E+03</pdfrwt>
<pdfrwt beam="2">  1       -2 0.27484277E-01 0.14060412E+03</pdfrwt>
<totfact> 0.50199377E+03</totfact>
</mgrwt>
</event>
<event>
 8    2  0.8128359E-004  0.2656917E+03  0.7818608E-02  0.1105550E+00
         -2   -1    0    0    0  501 -0.00000000000E+00  0.00000000000E+00  0.65033948739E+02  0.65033948789E+02  0.25500000000E-02 0.  1.
          2   -1    0    0  501    0  0.00000000000E+00 -0.00000000000E+00 -0.16357405939E+04  0.16357405939E+04  0.25500000000E-02 0. -1.
         25    2    1    2    0    0 -0.22768534659E+03  0.55916637183E+02 -0.28253549110E+03  0.38783812220E+03  0.12499927172E+03 0.  0.
         23    2    1    2    0    0  0.22768534659E+03 -0.55916637183E+02 -0.12881711541E+04  0.13129364205E+04  0.97210260500E+02 0.  0.
        -11    1    4    4    0    0  0.80979798772E+02 -0.61558508213E+02 -0.40106196294E+03  0.41376065045E+03  0.51100000000E-03 0. -1.
         11    1    4    4    0    0  0.14670554782E+03  0.56418710304E+01 -0.88710919112E+03  0.89917577005E+03  0.51100000000E-03 0.  1.
    9000005    1    3    3    0    0 -0.16537077783E+03  0.28328137038E+01 -0.11523833836E+03  0.20158470583E+03  0.10000000000E+01 0.  0.
    9000005    1    3    3    0    0 -0.62314568757E+02  0.53083823479E+02 -0.16729715274E+03  0.18625341637E+03  0.10000000000E+01 0.  0.
<mgrwt>
<rscale>  0 0.26266894E+03</rscale>
<asrwt>0</asrwt>
<pdfrwt beam="2">  1        2 0.25165237E+00 0.26569175E+03</pdfrwt>
<pdfrwt beam="1">  1       -2 0.10005224E-01 0.26569175E+03</pdfrwt>
<totfact> 0.76791502E+02</totfact>
</mgrwt>
</event>
<event>
 8    2  0.8128359E-004  0.1270052E+03  0.7818608E-02  0.1246421E+00
         -2   -1    0    0    0  501 -0.00000000000E+00  0.00000000000E+00  0.51444026211E+01  0.51444032531E+01  0.25500000000E-02 0.  1.
          2   -1    0    0  501    0  0.00000000000E+00 -0.00000000000E+00 -0.24340410301E+04  0.24340410301E+04  0.25500000000E-02 0. -1.
         25    2    1    2    0    0 -0.22271109664E+02  0.36861683192E+01 -0.15545781770E+04  0.15597575539E+04  0.12498291245E+03 0.  0.
         23    2    1    2    0    0  0.22271109664E+02 -0.36861683192E+01 -0.87431845041E+03  0.87942787938E+03  0.91929604253E+02 0.  0.
        -11    1    4    4    0    0  0.23481786033E+02  0.21791758648E+02 -0.10717300807E+03  0.11185852082E+03  0.51100000000E-03 0.  1.
         11    1    4    4    0    0 -0.12106763688E+01 -0.25477926967E+02 -0.76714544234E+03  0.76756935856E+03  0.51100000000E-03 0. -1.
    9000005    1    3    3    0    0 -0.60306909696E+02  0.85719923223E+01 -0.40660108252E+03  0.41113968759E+03  0.10000000000E+01 0.  0.
    9000005    1    3    3    0    0  0.38035800032E+02 -0.48858240031E+01 -0.11479770945E+04  0.11486178663E+04  0.10000000000E+01 0.  0.
<mgrwt>
<rscale>  0 0.11800720E+03</rscale>
<asrwt>0</asrwt>
<pdfrwt beam="2">  1        2 0.37446693E+00 0.12700519E+03</pdfrwt>
<pdfrwt beam="1">  1       -2 0.79144855E-03 0.12700519E+03</pdfrwt>
<totfact> 0.12821410E+04</totfact>
</mgrwt>
</event>
<event>
 8    2  0.8128359E-004  0.1475297E+03  0.7818608E-02  0.1213355E+00
         -2   -1    0    0    0  501 -0.00000000000E+00  0.00000000000E+00  0.17454752134E+04  0.17454752134E+04  0.25500000000E-02 0. -1.
          2   -1    0    0  501    0  0.00000000000E+00 -0.00000000000E+00 -0.10709854396E+02  0.10709854700E+02  0.25500000000E-02 0.  1.
         25    2    1    2    0    0  0.71992226498E+02 -0.30958507502E+02  0.76688647153E+03  0.78094806034E+03  0.12499481137E+03 0.  0.
         23    2    1    2    0    0 -0.71992226498E+02  0.30958507502E+02  0.96787888747E+03  0.97523700776E+03  0.90312627193E+02 0.  0.
        -11    1    4    4    0    0 -0.20029817480E+02  0.51425529623E+02  0.66239401814E+03  0.66468911075E+03  0.51100000000E-03 0. -1.
         11    1    4    4    0    0 -0.51962409019E+02 -0.20467022121E+02  0.30548486933E+03  0.31054789701E+03  0.51100000000E-03 0.  1.
    9000005    1    3    3    0    0  0.35109412167E+01 -0.86124426265E+01  0.58835257133E+03  0.58842692755E+03  0.10000000000E+01 0.  0.
    9000005    1    3    3    0    0  0.68481285282E+02 -0.22346064875E+02  0.17853390019E+03  0.19252113278E+03  0.10000000000E+01 0.  0.
<mgrwt>
<rscale>  0 0.13998058E+03</rscale>
<asrwt>0</asrwt>
<pdfrwt beam="2">  1        2 0.16476690E-02 0.14752970E+03</pdfrwt>
<pdfrwt beam="1">  1       -2 0.26853480E+00 0.14752970E+03</pdfrwt>
<totfact> 0.39587757E+02</totfact>
</mgrwt>
</event>
<event>
 8    2  0.8128359E-004  0.2216834E+03  0.7818608E-02  0.1135937E+00
         -2   -1    0    0    0  501 -0.00000000000E+00  0.00000000000E+00  0.66643456582E+02  0.66643456631E+02  0.25500000000E-02 0. -1.
          2   -1    0    0  501    0  0.00000000000E+00 -0.00000000000E+00 -0.70515951727E+03  0.70515951728E+03  0.25500000000E-02 0.  1.
         25    2    1    2    0    0 -0.10125226658E+03  0.15253392326E+03 -0.40233254084E+03  0.45936371337E+03  0.12499971405E+03 0.  0.
         23    2    1    2    0    0  0.10125226658E+03 -0.15253392326E+03 -0.23618351985E+03  0.31243926053E+03  0.91197682220E+02 0.  0.
        -11    1    4    4    0    0  0.11466627403E+02  0.51556942286E+00 -0.64580953639E+02  0.65593055494E+02  0.51100000000E-03 0.  1.
         11    1    4    4    0    0  0.89785639181E+02 -0.15304949268E+03 -0.17160256621E+03  0.24684620504E+03  0.51100000000E-03 0. -1.
    9000005    1    3    3    0    0  0.26626213313E+02  0.27269045345E+02 -0.11167022671E+03  0.11799913391E+03  0.10000000000E+01 0.  0.
    9000005    1    3    3    0    0 -0.12787847990E+03  0.12526487791E+03 -0.29066231413E+03  0.34136457947E+03  0.10000000000E+01 0.  0.
<mgrwt>
<rscale>  0 0.21726673E+03</rscale>
<asrwt>0</asrwt>
<pdfrwt beam="2">  1        2 0.10848607E+00 0.22168344E+03</pdfrwt>
<pdfrwt beam="1">  1       -2 0.10252840E-01 0.22168344E+03</pdfrwt>
<totfact> 0.26333615E+03</totfact>
</mgrwt>
</event>
<event>
 8    2  0.8128359E-004  0.1878190E+03  0.7818608E-02  0.1166292E+00
          2   -1    0    0  501    0  0.00000000000E+00  0.00000000000E+00  0.19706224073E+04  0.19706224073E+04  0.25500000000E-02 0. -1.
         -2   -1    0    0    0  501 -0.00000000000E+00 -0.00000000000E+00 -0.19001468608E+02  0.19001468779E+02  0.25500000000E-02 0.  1.
         25    2    1    2    0    0 -0.45370001579E+02  0.13263742766E+03  0.61684536899E+03  0.64480552732E+03  0.12499933826E+03 0.  0.
         23    2    1    2    0    0  0.45370001579E+02 -0.13263742766E+03  0.13347755697E+04  0.13448183487E+04  0.85202379152E+02 0.  0.
        -11    1    4    4    0    0  0.23487369152E+02 -0.10404305833E+03  0.12169134415E+04  0.12215788712E+04  0.51100000000E-03 0. -1.
         11    1    4    4    0    0  0.21882632427E+02 -0.28594369334E+02  0.11786212820E+03  0.12323947754E+03  0.51100000000E-03 0.  1.
    9000005    1    3    3    0    0  0.28529648332E+01  0.89124258170E+02  0.15836794288E+03  0.18174894259E+03  0.10000000000E+01 0.  0.
    9000005    1    3    3    0    0 -0.48222966412E+02  0.43513169493E+02  0.45847742611E+03  0.46305658473E+03  0.10000000000E+01 0.  0.
<mgrwt>
<rscale>  0 0.18157035E+03</rscale>
<asrwt>0</asrwt>
<pdfrwt beam="1">  1        2 0.30317259E+00 0.18781895E+03</pdfrwt>
<pdfrwt beam="2">  1       -2 0.29233038E-02 0.18781895E+03</pdfrwt>
<totfact> 0.33899317E+03</totfact>
</mgrwt>
</event>
<event>
 8    2  0.8128359E-004  0.1295912E+03  0.7818608E-02  0.1254747E+00
         -2   -1    0    0    0  501 -0.00000000000E+00  0.00000000000E+00  0.71012861906E+01  0.71012866485E+01  0.25500000000E-02 0. -1.
          2   -1    0    0  501    0  0.00000000000E+00 -0.00000000000E+00 -0.15778532990E+04  0.15778532990E+04  0.25500000000E-02 0.  1.
         25    2    1    2    0    0 -0.27153415156E+02  0.20776697704E+02 -0.11703786457E+04  0.11775313410E+04  0.12499962247E+03 0.  0.
         23    2    1    2    0    0  0.27153415156E+02 -0.20776697704E+02 -0.40037336717E+03  0.40742324470E+03  0.67274720850E+02 0.  0.
        -11    1    4    4    0    0 -0.33403402574E+00  0.26906630848E+01 -0.31109151161E+03  0.31110332663E+03  0.51100000000E-03 0.  1.
         11    1    4    4    0    0  0.27487449182E+02 -0.23467360788E+02 -0.89281855559E+02  0.96319918071E+02  0.51100000000E-03 0. -1.
    9000005    1    3    3    0    0 -0.34820026351E+02  0.64967796962E+02 -0.93595590142E+03  0.93885446065E+03  0.10000000000E+01 0.  0.
    9000005    1    3    3    0    0  0.76666111948E+01 -0.44191099258E+02 -0.23442274427E+03  0.23867688035E+03  0.10000000000E+01 0.  0.
<mgrwt>
<rscale>  0 0.11320540E+03</rscale>
<asrwt>0</asrwt>
<pdfrwt beam="2">  1        2 0.24274638E+00 0.12959122E+03</pdfrwt>
<pdfrwt beam="1">  1       -2 0.10925069E-02 0.12959122E+03</pdfrwt>
<totfact> 0.22334749E+04</totfact>
</mgrwt>
</event>
<event>
 8    2  0.8128359E-004  0.1683135E+03  0.7818608E-02  0.1183608E+00
         -2   -1    0    0    0  501 -0.00000000000E+00  0.00000000000E+00  0.17939787115E+03  0.17939787117E+03  0.25500000000E-02 0.  1.
          2   -1    0    0  501    0  0.00000000000E+00 -0.00000000000E+00 -0.15254730055E+03  0.15254730057E+03  0.25500000000E-02 0. -1.
         25    2    1    2    0    0  0.94624487932E+02  0.61236392554E+02  0.51617926484E+02  0.17605069579E+03  0.12500299061E+03 0.  0.
         23    2    1    2    0    0 -0.94624487932E+02 -0.61236392554E+02 -0.24767355879E+02  0.15589447596E+03  0.10481400778E+03 0.  0.
        -11    1    4    4    0    0 -0.85630849512E+02  0.22036451044E+01  0.37928851410E+01  0.85743130441E+02  0.51100000000E-03 0.  1.
         11    1    4    4    0    0 -0.89936384195E+01 -0.63440037658E+02 -0.28560241020E+02  0.70151345515E+02  0.51100000000E-03 0. -1.
    9000005    1    3    3    0    0  0.31492787504E+02 -0.38024414477E+02  0.25366012720E+02  0.55516541340E+02  0.10000000000E+01 0.  0.
    9000005    1    3    3    0    0  0.63131700428E+02  0.99260807031E+02  0.26251913765E+02  0.12053415444E+03  0.10000000000E+01 0.  0.
<mgrwt>
<rscale>  0 0.16459214E+03</rscale>
<asrwt>0</asrwt>
<pdfrwt beam="2">  1        2 0.23468816E-01 0.16831351E+03</pdfrwt>
<pdfrwt beam="1">  1       -2 0.27599672E-01 0.16831351E+03</pdfrwt>
<totfact> 0.26863462E+03</totfact>
</mgrwt>
</event>
<event>
 8    2  0.8128359E-004  0.1350480E+03  0.7818608E-02  0.1230877E+00
         -2   -1    0    0    0  501 -0.00000000000E+00  0.00000000000E+00  0.30515808432E+02  0.30515808538E+02  0.25500000000E-02 0.  1.
          2   -1    0    0  501    0  0.00000000000E+00 -0.00000000000E+00 -0.61345779682E+03  0.61345779682E+03  0.25500000000E-02 0. -1.
         25    2    1    2    0    0 -0.14025847027E+02  0.49159918961E+02 -0.46415657337E+03  0.48340384738E+03  0.12499813213E+03 0.  0.
         23    2    1    2    0    0  0.14025847027E+02 -0.49159918961E+02 -0.11878541501E+03  0.16056975798E+03  0.95180094256E+02 0.  0.
        -11    1    4    4    0    0  0.18763475263E+02 -0.48060746794E+02 -0.11099493427E+02  0.52774066936E+02  0.51100000000E-03 0.  1.
         11    1    4    4    0    0 -0.47376282362E+01 -0.10991721674E+01 -0.10768592159E+03  0.10779569105E+03  0.51100000000E-03 0. -1.
    9000005    1    3    3    0    0 -0.21909750768E+02  0.90318568013E+02 -0.30791142715E+03  0.32163321948E+03  0.10000000000E+01 0.  0.
    9000005    1    3    3    0    0  0.78839037409E+01 -0.41158649052E+02 -0.15624514623E+03  0.16177062789E+03  0.10000000000E+01 0.  0.
<mgrwt>
<rscale>  0 0.12772101E+03</rscale>
<asrwt>0</asrwt>
<pdfrwt beam="2">  1        2 0.94378114E-01 0.13504797E+03</pdfrwt>
<pdfrwt beam="1">  1       -2 0.46947402E-02 0.13504797E+03</pdfrwt>
<totfact> 0.10117715E+04</totfact>
</mgrwt>
</event>
<event>
 8    2  0.8128359E-004  0.1561995E+03  0.7818608E-02  0.1201035E+00
          2   -1    0    0  501    0  0.00000000000E+00  0.00000000000E+00  0.40438807902E+03  0.40438807903E+03  0.25500000000E-02 0. -1.
         -2   -1    0    0    0  501 -0.00000000000E+00 -0.00000000000E+00 -0.11010392619E+03  0.11010392622E+03  0.25500000000E-02 0.  1.
         25    2    1    2    0    0  0.40881756022E+02  0.84283693509E+02 -0.34955793804E+02  0.16006304181E+03  0.12499284326E+03 0.  0.
         23    2    1    2    0    0 -0.40881756022E+02 -0.84283693509E+02  0.32923994664E+03  0.35442896344E+03  0.91901516302E+02 0.  0.
        -11    1    4    4    0    0  0.49245645080E+01 -0.61631772836E+02  0.26616369007E+03  0.27325050169E+03  0.51100000000E-03 0. -1.
         11    1    4    4    0    0 -0.45806320530E+02 -0.22651920673E+02  0.63076256564E+02  0.81178461756E+02  0.51100000000E-03 0.  1.
    9000005    1    3    3    0    0  0.55992713255E+02  0.14102916944E+02  0.28358720337E+02  0.64337339261E+02  0.10000000000E+01 0.  0.
    9000005    1    3    3    0    0 -0.15110957233E+02  0.70180776565E+02 -0.63314514141E+02  0.95725702550E+02  0.10000000000E+01 0.  0.
<mgrwt>
<rscale>  0 0.14954323E+03</rscale>
<asrwt>0</asrwt>
<pdfrwt beam="1">  1        2 0.62213550E-01 0.15619946E+03</pdfrwt>
<pdfrwt beam="2">  1       -2 0.16939066E-01 0.15619946E+03</pdfrwt>
<totfact> 0.21633244E+03</totfact>
</mgrwt>
</event>
<event>
 8    2  0.8128359E-004  0.1304563E+03  0.7818608E-02  0.1241333E+00
          2   -1    0    0  501    0  0.00000000000E+00  0.00000000000E+00  0.20351257072E+04  0.20351257072E+04  0.25500000000E-02 0. -1.
         -2   -1    0    0    0  501 -0.00000000000E+00 -0.00000000000E+00 -0.67894157908E+01  0.67894162697E+01  0.25500000000E-02 0.  1.
         25    2    1    2    0    0  0.13059181722E+02  0.34970158804E+02  0.89565689549E+03  0.90510778810E+03  0.12500151756E+03 0.  0.
         23    2    1    2    0    0 -0.13059181722E+02 -0.34970158804E+02  0.11326793959E+04  0.11368073353E+04  0.89302013397E+02 0.  0.
        -11    1    4    4    0    0  0.31461330610E+02 -0.41096363624E+02  0.58126227459E+03  0.58356195754E+03  0.51100000000E-03 0.  1.
         11    1    4    4    0    0 -0.44520512333E+02  0.61262048203E+01  0.55141712129E+03  0.55324537780E+03  0.51100000000E-03 0. -1.
    9000005    1    3    3    0    0  0.36007556627E+02  0.74471798582E+02  0.49660869377E+03  0.50345187222E+03  0.10000000000E+01 0.  0.
    9000005    1    3    3    0    0 -0.22948374905E+02 -0.39501639778E+02  0.39904820173E+03  0.40165591587E+03  0.10000000000E+01 0.  0.
<mgrwt>
<rscale>  0 0.12107551E+03</rscale>
<asrwt>0</asrwt>
<pdfrwt beam="1">  1        2 0.31309639E+00 0.13045625E+03</pdfrwt>
<pdfrwt beam="2">  1       -2 0.10445251E-02 0.13045625E+03</pdfrwt>
<totfact> 0.13911247E+04</totfact>
</mgrwt>
</event>
<event>
 8    2  0.8128359E-004  0.1294557E+03  0.7818608E-02  0.1241693E+00
          2   -1    0    0  501    0  0.00000000000E+00  0.00000000000E+00  0.81517432686E+03  0.81517432686E+03  0.25500000000E-02 0.  1.
         -2   -1    0    0    0  501 -0.00000000000E+00 -0.00000000000E+00 -0.17060498931E+02  0.17060499121E+02  0.25500000000E-02 0. -1.
         25    2    1    2    0    0  0.32770867587E+02  0.76513390015E+01  0.34294152063E+03  0.36656195109E+03  0.12500521855E+03 0.  0.
         23    2    1    2    0    0 -0.32770867587E+02 -0.76513390015E+01  0.45517230729E+03  0.46567287489E+03  0.92395477866E+02 0.  0.
        -11    1    4    4    0    0  0.48915536436E+01 -0.11615113307E+02  0.44549056701E+01  0.13367286149E+02  0.51100000000E-03 0. -1.
         11    1    4    4    0    0 -0.37662421231E+02  0.39637743059E+01  0.45071740162E+03  0.45230558874E+03  0.51100000000E-03 0.  1.
    9000005    1    3    3    0    0  0.28778945018E+02  0.29218897049E+00  0.58762169078E+01  0.29391205757E+02  0.10000000000E+01 0.  0.
    9000005    1    3    3    0    0  0.39919225694E+01  0.73591500310E+01  0.33706530373E+03  0.33717074534E+03  0.10000000000E+01 0.  0.
<mgrwt>
<rscale>  0 0.12085533E+03</rscale>
<asrwt>0</asrwt>
<pdfrwt beam="1">  1        2 0.12541147E+00 0.12945570E+03</pdfrwt>
<pdfrwt beam="2">  1       -2 0.26246914E-02 0.12945570E+03</pdfrwt>
<totfact> 0.16974140E+04</totfact>
</mgrwt>
</event>
<event>
 8    2  0.8128359E-004  0.1668198E+03  0.7818608E-02  0.1187942E+00
          2   -1    0    0  501    0  0.00000000000E+00  0.00000000000E+00  0.11107686821E+04  0.11107686821E+04  0.25500000000E-02 0. -1.
         -2   -1    0    0    0  501 -0.00000000000E+00 -0.00000000000E+00 -0.22072511458E+02  0.22072511605E+02  0.25500000000E-02 0.  1.
         25    2    1    2    0    0 -0.37540489912E+02 -0.10389754634E+03  0.65971067889E+03  0.68047558335E+03  0.12499940473E+03 0.  0.
         23    2    1    2    0    0  0.37540489912E+02  0.10389754634E+03  0.42898549177E+03  0.45236561037E+03  0.91662995687E+02 0.  0.
        -11    1    4    4    0    0  0.59617659675E+02  0.40423624618E+02  0.27649273321E+03  0.28572113378E+03  0.51100000000E-03 0. -1.
         11    1    4    4    0    0 -0.22077169763E+02  0.63473921722E+02  0.15249275857E+03  0.16664447659E+03  0.51100000000E-03 0.  1.
    9000005    1    3    3    0    0  0.26158094822E+02 -0.58510293300E+02  0.12917233595E+03  0.14420191650E+03  0.10000000000E+01 0.  0.
    9000005    1    3    3    0    0 -0.63698584733E+02 -0.45387253041E+02  0.53053834294E+03  0.53627366686E+03  0.10000000000E+01 0.  0.
<mgrwt>
<rscale>  0 0.16067012E+03</rscale>
<asrwt>0</asrwt>
<pdfrwt beam="1">  1        2 0.17088753E+00 0.16681978E+03</pdfrwt>
<pdfrwt beam="2">  1       -2 0.33957703E-02 0.16681978E+03</pdfrwt>
<totfact> 0.77614553E+03</totfact>
</mgrwt>
</event>
<event>
 8    2  0.8128359E-004  0.1305917E+03  0.7818608E-02  0.1240301E+00
          2   -1    0    0  501    0  0.00000000000E+00  0.00000000000E+00  0.59405983645E+03  0.59405983646E+03  0.25500000000E-02 0. -1.
         -2   -1    0    0    0  501 -0.00000000000E+00 -0.00000000000E+00 -0.22094879305E+02  0.22094879452E+02  0.25500000000E-02 0.  1.
         25    2    1    2    0    0 -0.37743621193E+01  0.37616685184E+02  0.32927180663E+03  0.35422325777E+03  0.12499973155E+03 0.  0.
         23    2    1    2    0    0  0.37743621193E+01 -0.37616685184E+02  0.24269315052E+03  0.26193145815E+03  0.90988255524E+02 0.  0.
        -11    1    4    4    0    0 -0.17055465914E+02  0.19327140359E+02  0.14255605681E+03  0.14486772106E+03  0.51100000000E-03 0. -1.
         11    1    4    4    0    0  0.20829828034E+02 -0.56943825542E+02  0.10013709371E+03  0.11706373709E+03  0.51100000000E-03 0.  1.
    9000005    1    3    3    0    0  0.44772273444E+02  0.57561355151E+02  0.14065891664E+03  0.15844177766E+03  0.10000000000E+01 0.  0.
    9000005    1    3    3    0    0 -0.48546635563E+02 -0.19944669967E+02  0.18861288999E+03  0.19578148011E+03  0.10000000000E+01 0.  0.
<mgrwt>
<rscale>  0 0.12171066E+03</rscale>
<asrwt>0</asrwt>
<pdfrwt beam="1">  1        2 0.91393815E-01 0.13059171E+03</pdfrwt>
<pdfrwt beam="2">  1       -2 0.33992124E-02 0.13059171E+03</pdfrwt>
<totfact> 0.16912128E+04</totfact>
</mgrwt>
</event>
<event>
 8    2  0.8128359E-004  0.1421656E+03  0.7818608E-02  0.1221630E+00
         -2   -1    0    0    0  501 -0.00000000000E+00  0.00000000000E+00  0.30538177015E+02  0.30538177122E+02  0.25500000000E-02 0.  1.
          2   -1    0    0  501    0  0.00000000000E+00 -0.00000000000E+00 -0.64670312226E+03  0.64670312226E+03  0.25500000000E-02 0. -1.
         25    2    1    2    0    0 -0.41842247328E+02  0.53264201319E+02 -0.48092894812E+03  0.50150145224E+03  0.12499281842E+03 0.  0.
         23    2    1    2    0    0  0.41842247328E+02 -0.53264201319E+02 -0.13523599712E+03  0.17573984714E+03  0.89486703775E+02 0.  0.
        -11    1    4    4    0    0 -0.55049066504E+01 -0.41950723494E+02 -0.11586272876E+03  0.12334641914E+03  0.51100000000E-03 0. -1.
         11    1    4    4    0    0  0.47347153978E+02 -0.11313477825E+02 -0.19373268359E+02  0.52393427999E+02  0.51100000000E-03 0.  1.
    9000005    1    3    3    0    0  0.17289247591E+02  0.25139590116E+02 -0.21283267392E+02  0.37214171284E+02  0.10000000000E+01 0.  0.
    9000005    1    3    3    0    0 -0.59131494919E+02  0.28124611203E+02 -0.45964568073E+03  0.46428728096E+03  0.10000000000E+01 0.  0.
<mgrwt>
<rscale>  0 0.13400584E+03</rscale>
<asrwt>0</asrwt>
<pdfrwt beam="2">  1        2 0.99492778E-01 0.14216558E+03</pdfrwt>
<pdfrwt beam="1">  1       -2 0.46981816E-02 0.14216558E+03</pdfrwt>
<totfact> 0.95410778E+03</totfact>
</mgrwt>
</event>
<event>
 8    2  0.8128359E-004  0.1521769E+03  0.7818608E-02  0.1206809E+00
         -2   -1    0    0    0  501 -0.00000000000E+00  0.00000000000E+00  0.28567312982E+03  0.28567312983E+03  0.25500000000E-02 0.  1.
          2   -1    0    0  501    0  0.00000000000E+00 -0.00000000000E+00 -0.67457058194E+02  0.67457058242E+02  0.25500000000E-02 0. -1.
         25    2    1    2    0    0  0.15445604105E+01  0.86778580494E+02  0.11354723277E+03  0.18987043163E+03  0.12499959615E+03 0.  0.
         23    2    1    2    0    0 -0.15445604105E+01 -0.86778580494E+02  0.10466883885E+03  0.16325975645E+03  0.90361908724E+02 0.  0.
        -11    1    4    4    0    0 -0.11812244270E+01 -0.28285469601E+02 -0.13531390580E+02  0.31377724790E+02  0.51100000000E-03 0. -1.
         11    1    4    4    0    0 -0.36333598351E+00 -0.58493110893E+02  0.11820022944E+03  0.13188203166E+03  0.51100000000E-03 0.  1.
    9000005    1    3    3    0    0 -0.35568600492E+02  0.45626502540E+02 -0.59294585404E+01  0.58164091617E+02  0.10000000000E+01 0.  0.
    9000005    1    3    3    0    0  0.37113160903E+02  0.41152077954E+02  0.11947669131E+03  0.13170634001E+03  0.10000000000E+01 0.  0.
<mgrwt>
<rscale>  0 0.14495817E+03</rscale>
<asrwt>0</asrwt>
<pdfrwt beam="2">  1        2 0.10378009E-01 0.15217689E+03</pdfrwt>
<pdfrwt beam="1">  1       -2 0.43949711E-01 0.15217689E+03</pdfrwt>
<totfact> 0.29342592E+03</totfact>
</mgrwt>
</event>
<event>
 8    2  0.8128359E-004  0.1576793E+03  0.7818608E-02  0.1199272E+00
         -2   -1    0    0    0  501 -0.00000000000E+00  0.00000000000E+00  0.31206821967E+02  0.31206822071E+02  0.25500000000E-02 0.  1.
          2   -1    0    0  501    0  0.00000000000E+00 -0.00000000000E+00 -0.99971735491E+03  0.99971735491E+03  0.25500000000E-02 0. -1.
         25    2    1    2    0    0  0.62717998142E+02 -0.72837842108E+02 -0.21943501772E+03  0.27021194715E+03  0.12499548330E+03 0.  0.
         23    2    1    2    0    0 -0.62717998142E+02  0.72837842108E+02 -0.74907551522E+03  0.76071222983E+03  0.91269220352E+02 0.  0.
        -11    1    4    4    0    0  0.18908132231E+02 -0.52270794569E+00 -0.58824542608E+02  0.61790917628E+02  0.51100000000E-03 0.  1.
         11    1    4    4    0    0 -0.81626130373E+02  0.73360550054E+02 -0.69025097261E+03  0.69892131220E+03  0.51100000000E-03 0. -1.
    9000005    1    3    3    0    0  0.43955999086E+02 -0.94164762661E+02 -0.89334820610E+02  0.13704321419E+03  0.10000000000E+01 0.  0.
    9000005    1    3    3    0    0  0.18761999056E+02  0.21326920553E+02 -0.13010019711E+03  0.13316873296E+03  0.10000000000E+01 0.  0.
<mgrwt>
<rscale>  0 0.15098171E+03</rscale>
<asrwt>0</asrwt>
<pdfrwt beam="2">  1        2 0.15380265E+00 0.15767932E+03</pdfrwt>
<pdfrwt beam="1">  1       -2 0.48010503E-02 0.15767932E+03</pdfrwt>
<totfact> 0.53657937E+03</totfact>
</mgrwt>
</event>
<event>
 8    2  0.8128359E-004  0.1298006E+03  0.7818608E-02  0.1240701E+00
         -2   -1    0    0    0  501 -0.00000000000E+00  0.00000000000E+00  0.39061379977E+01  0.39061388300E+01  0.25500000000E-02 0. -1.
          2   -1    0    0  501    0  0.00000000000E+00 -0.00000000000E+00 -0.33662998649E+04  0.33662998649E+04  0.25500000000E-02 0.  1.
         25    2    1    2    0    0 -0.18699661651E+02  0.29558172837E+02 -0.19173403012E+04  0.19217289156E+04  0.12499932592E+03 0.  0.
         23    2    1    2    0    0  0.18699661651E+02 -0.29558172837E+02 -0.14450534257E+04  0.14484770882E+04  0.93183200250E+02 0.  0.
        -11    1    4    4    0    0 -0.35820484033E+02 -0.95778402449E+01 -0.78474231762E+03  0.78561781240E+03  0.51100000000E-03 0.  1.
         11    1    4    4    0    0  0.54520145684E+02 -0.19980332592E+02 -0.66031110810E+03  0.66285927576E+03  0.51100000000E-03 0. -1.
    9000005    1    3    3    0    0 -0.55694662785E+01 -0.45816865533E+02 -0.44165568844E+03  0.44406187773E+03  0.10000000000E+01 0.  0.
    9000005    1    3    3    0    0 -0.13130195372E+02  0.75375038370E+02 -0.14756846127E+04  0.14776670378E+04  0.10000000000E+01 0.  0.
<mgrwt>
<rscale>  0 0.12146395E+03</rscale>
<asrwt>0</asrwt>
<pdfrwt beam="2">  1        2 0.51788997E+00 0.12980059E+03</pdfrwt>
<pdfrwt beam="1">  1       -2 0.60094706E-03 0.12980059E+03</pdfrwt>
<totfact> 0.55796056E+03</totfact>
</mgrwt>
</event>
<event>
 8    2  0.8128359E-004  0.1999945E+03  0.7818608E-02  0.1153958E+00
          2   -1    0    0  501    0  0.00000000000E+00  0.00000000000E+00  0.41350918371E+02  0.41350918449E+02  0.25500000000E-02 0.  1.
         -2   -1    0    0    0  501 -0.00000000000E+00 -0.00000000000E+00 -0.97232177667E+03  0.97232177667E+03  0.25500000000E-02 0. -1.
         25    2    1    2    0    0  0.87372222126E+02  0.12937716087E+03 -0.64422692850E+03  0.67455624525E+03  0.12500175060E+03 0.  0.
         23    2    1    2    0    0 -0.87372222126E+02 -0.12937716087E+03 -0.28674392980E+03  0.33911644987E+03  0.91681679407E+02 0.  0.
        -11    1    4    4    0    0 -0.99496722423E+02 -0.92470677013E+02 -0.25511136192E+03  0.28901942991E+03  0.51100000000E-03 0. -1.
         11    1    4    4    0    0  0.12124500297E+02 -0.36906483859E+02 -0.31632567875E+02  0.50097019961E+02  0.51100000000E-03 0.  1.
    9000005    1    3    3    0    0  0.81813555773E+02  0.10665389100E+03 -0.63551102986E+03  0.64957199713E+03  0.10000000000E+01 0.  0.
    9000005    1    3    3    0    0  0.55586663526E+01  0.22723269875E+02 -0.87158986339E+01  0.24984248126E+02  0.10000000000E+01 0.  0.
<mgrwt>
<rscale>  0 0.19507927E+03</rscale>
<asrwt>0</asrwt>
<pdfrwt beam="1">  1        2 0.63616805E-02 0.19999448E+03</pdfrwt>
<pdfrwt beam="2">  1       -2 0.14958795E+00 0.19999448E+03</pdfrwt>
<totfact> 0.36345076E+02</totfact>
</mgrwt>
</event>
<event>
 8    2  0.8128359E-004  0.1342050E+03  0.7818608E-02  0.1233690E+00
          2   -1    0    0  501    0  0.00000000000E+00  0.00000000000E+00  0.75513055919E+03  0.75513055919E+03  0.25500000000E-02 0. -1.
         -2   -1    0    0    0  501 -0.00000000000E+00 -0.00000000000E+00 -0.19099268046E+02  0.19099268216E+02  0.25500000000E-02 0.  1.
         25    2    1    2    0    0 -0.70777194508E+01 -0.48331694971E+02  0.46449306071E+03  0.48349227428E+03  0.12499971597E+03 0.  0.
         23    2    1    2    0    0  0.70777194508E+01  0.48331694971E+02  0.27153823043E+03  0.29073755313E+03  0.91702057552E+02 0.  0.
        -11    1    4    4    0    0 -0.40387248174E+02  0.36793517343E+02  0.15632375535E+03  0.16559592151E+03  0.51100000000E-03 0. -1.
         11    1    4    4    0    0  0.47464967625E+02  0.11538177628E+02  0.11521447508E+03  0.12514163161E+03  0.51100000000E-03 0.  1.
    9000005    1    3    3    0    0 -0.28517817857E+02  0.36366543393E+02  0.18316321703E+03  0.18890620818E+03  0.10000000000E+01 0.  0.
    9000005    1    3    3    0    0  0.21440098407E+02 -0.84698238364E+02  0.28132984368E+03  0.29458606611E+03  0.10000000000E+01 0.  0.
<mgrwt>
<rscale>  0 0.12588700E+03</rscale>
<asrwt>0</asrwt>
<pdfrwt beam="1">  1        2 0.11617390E+00 0.13420498E+03</pdfrwt>
<pdfrwt beam="2">  1       -2 0.29383497E-02 0.13420498E+03</pdfrwt>
<totfact> 0.15853497E+04</totfact>
</mgrwt>
</event>
<event>
 8    2  0.8128359E-004  0.1635011E+03  0.7818608E-02  0.1192079E+00
          2   -1    0    0  501    0  0.00000000000E+00  0.00000000000E+00  0.20505071833E+04  0.20505071833E+04  0.25500000000E-02 0. -1.
         -2   -1    0    0    0  501 -0.00000000000E+00 -0.00000000000E+00 -0.11185645757E+02  0.11185646047E+02  0.25500000000E-02 0.  1.
         25    2    1    2    0    0  0.34019298853E+02 -0.99749977632E+02  0.11425654001E+04  0.11542046192E+04  0.12500095423E+03 0.  0.
         23    2    1    2    0    0 -0.34019298853E+02  0.99749977632E+02  0.89675613735E+03  0.90748821014E+03  0.90862043400E+02 0.  0.
        -11    1    4    4    0    0 -0.73964170751E+01  0.95027846570E+02  0.45350630439E+03  0.46341446539E+03  0.51100000000E-03 0.  1.
         11    1    4    4    0    0 -0.26622881777E+02  0.47221310615E+01  0.44324983296E+03  0.44407374475E+03  0.51100000000E-03 0. -1.
    9000005    1    3    3    0    0  0.26666436088E+02 -0.12651560020E+03  0.78648865896E+03  0.79704623868E+03  0.10000000000E+01 0.  0.
    9000005    1    3    3    0    0  0.73528627648E+01  0.26765622572E+02  0.35607674118E+03  0.35715838049E+03  0.10000000000E+01 0.  0.
<mgrwt>
<rscale>  0 0.15704094E+03</rscale>
<asrwt>0</asrwt>
<pdfrwt beam="1">  1        2 0.31546252E+00 0.16350110E+03</pdfrwt>
<pdfrwt beam="2">  1       -2 0.17208692E-02 0.16350110E+03</pdfrwt>
<totfact> 0.66941561E+03</totfact>
</mgrwt>
</event>
<event>
 8    2  0.8128359E-004  0.1265613E+03  0.7818608E-02  0.1246320E+00
          2   -1    0    0  501    0  0.00000000000E+00  0.00000000000E+00  0.62145220766E+03  0.62145220766E+03  0.25500000000E-02 0. -1.
         -2   -1    0    0    0  501 -0.00000000000E+00 -0.00000000000E+00 -0.20719611786E+02  0.20719611943E+02  0.25500000000E-02 0.  1.
         25    2    1    2    0    0 -0.11446335325E+02 -0.16166471059E+02  0.27694225649E+03  0.30449100827E+03  0.12500154922E+03 0.  0.
         23    2    1    2    0    0  0.11446335325E+02  0.16166471059E+02  0.32379033938E+03  0.33768081133E+03  0.93785782987E+02 0.  0.
        -11    1    4    4    0    0 -0.17651214184E+02  0.17566225170E+02  0.18546707472E+02  0.31050249391E+02  0.51100000000E-03 0.  1.
         11    1    4    4    0    0  0.29097549510E+02 -0.13997541113E+01  0.30524363191E+03  0.30663056194E+03  0.51100000000E-03 0. -1.
    9000005    1    3    3    0    0 -0.28794430448E+02 -0.52193630079E+02  0.24813955686E+03  0.25520096772E+03  0.10000000000E+01 0.  0.
    9000005    1    3    3    0    0  0.17348095123E+02  0.36027159020E+02  0.28802699635E+02  0.49290040553E+02  0.10000000000E+01 0.  0.
<mgrwt>
<rscale>  0 0.11806717E+03</rscale>
<asrwt>0</asrwt>
<pdfrwt beam="1">  1        2 0.95608048E-01 0.12656129E+03</pdfrwt>
<pdfrwt beam="2">  1       -2 0.31876321E-02 0.12656129E+03</pdfrwt>
<totfact> 0.17614979E+04</totfact>
</mgrwt>
</event>
<event>
 8    2  0.8128359E-004  0.3036669E+03  0.7818608E-02  0.1084919E+00
         -2   -1    0    0    0  501 -0.00000000000E+00  0.00000000000E+00  0.19691761044E+03  0.19691761046E+03  0.25500000000E-02 0.  1.
          2   -1    0    0  501    0  0.00000000000E+00 -0.00000000000E+00 -0.49265090944E+03  0.49265090945E+03  0.25500000000E-02 0. -1.
         25    2    1    2    0    0 -0.26389720516E+03 -0.83350444848E+02 -0.49256957220E+02  0.30763583311E+03  0.12499810570E+03 0.  0.
         23    2    1    2    0    0  0.26389720516E+03  0.83350444848E+02 -0.24647634178E+03  0.38193268680E+03  0.92374014941E+02 0.  0.
        -11    1    4    4    0    0  0.21448048981E+03  0.54505434667E+02 -0.14237187522E+03  0.26313964690E+03  0.51100000000E-03 0.  1.
         11    1    4    4    0    0  0.49416715348E+02  0.28845010181E+02 -0.10410446656E+03  0.11879303989E+03  0.51100000000E-03 0. -1.
    9000005    1    3    3    0    0 -0.14535397178E+03 -0.22150761153E+02  0.33281828519E+02  0.15075514399E+03  0.10000000000E+01 0.  0.
    9000005    1    3    3    0    0 -0.11854323339E+03 -0.61199683695E+02 -0.82538785738E+02  0.15688068911E+03  0.10000000000E+01 0.  0.
<mgrwt>
<rscale>  0 0.30064450E+03</rscale>
<asrwt>0</asrwt>
<pdfrwt beam="2">  1        2 0.75792447E-01 0.30366685E+03</pdfrwt>
<pdfrwt beam="1">  1       -2 0.30295017E-01 0.30366685E+03</pdfrwt>
<totfact> 0.63809327E+02</totfact>
</mgrwt>
</event>
<event>
 8    2  0.8128359E-004  0.1284846E+03  0.7818608E-02  0.1243874E+00
          2   -1    0    0  501    0  0.00000000000E+00  0.00000000000E+00  0.19791741572E+04  0.19791741572E+04  0.25500000000E-02 0. -1.
         -2   -1    0    0    0  501 -0.00000000000E+00 -0.00000000000E+00 -0.68758801577E+01  0.68758806306E+01  0.25500000000E-02 0.  1.
         25    2    1    2    0    0 -0.13956843271E+02  0.26235879073E+02  0.13817640107E+04  0.13877247852E+04  0.12500073333E+03 0.  0.
         23    2    1    2    0    0  0.13956843271E+02 -0.26235879073E+02  0.59053426636E+03  0.59832525266E+03  0.91538371207E+02 0.  0.
        -11    1    4    4    0    0  0.21255788809E+02 -0.38990295858E+02  0.12667744872E+03  0.13423571710E+03  0.51100000000E-03 0.  1.
         11    1    4    4    0    0 -0.72989455381E+01  0.12754416785E+02  0.46385681764E+03  0.46408953557E+03  0.51100000000E-03 0. -1.
    9000005    1    3    3    0    0 -0.33327192848E+01  0.21260588389E+02  0.36315915070E+02  0.42225174054E+02  0.10000000000E+01 0.  0.
    9000005    1    3    3    0    0 -0.10624123986E+02  0.49752906839E+01  0.13454480956E+04  0.13454996111E+04  0.10000000000E+01 0.  0.
<mgrwt>
<rscale>  0 0.11953050E+03</rscale>
<asrwt>0</asrwt>
<pdfrwt beam="1">  1        2 0.30448796E+00 0.12848462E+03</pdfrwt>
<pdfrwt beam="2">  1       -2 0.10578290E-02 0.12848462E+03</pdfrwt>
<totfact> 0.14582436E+04</totfact>
</mgrwt>
</event>
<event>
 8    2  0.8128359E-004  0.1291773E+03  0.7818608E-02  0.1242604E+00
          2   -1    0    0  501    0  0.00000000000E+00  0.00000000000E+00  0.14914439349E+04  0.14914439349E+04  0.25500000000E-02 0.  1.
         -2   -1    0    0    0  501 -0.00000000000E+00 -0.00000000000E+00 -0.88093123339E+01  0.88093127029E+01  0.25500000000E-02 0. -1.
         25    2    1    2    0    0  0.25206429654E+02  0.20640291297E+02  0.96147756469E+03  0.97011642732E+03  0.12500155773E+03 0.  0.
         23    2    1    2    0    0 -0.25206429654E+02 -0.20640291297E+02  0.52115705785E+03  0.53013682026E+03  0.91536787826E+02 0.  0.
        -11    1    4    4    0    0 -0.45727667005E+01  0.42366627888E+01 -0.15563983157E+01  0.64250978873E+01  0.51100000000E-03 0. -1.
         11    1    4    4    0    0 -0.20633662953E+02 -0.24876954085E+02  0.52271345616E+03  0.52371172237E+03  0.51100000000E-03 0.  1.
    9000005    1    3    3    0    0  0.54776475772E+02  0.41699036256E+02  0.30671547923E+03  0.31434798731E+03  0.10000000000E+01 0.  0.
    9000005    1    3    3    0    0 -0.29570046118E+02 -0.21058744959E+02  0.65476208546E+03  0.65576844002E+03  0.10000000000E+01 0.  0.
<mgrwt>
<rscale>  0 0.12029935E+03</rscale>
<asrwt>0</asrwt>
<pdfrwt beam="1">  1        2 0.22945286E+00 0.12917730E+03</pdfrwt>
<pdfrwt beam="2">  1       -2 0.13552792E-02 0.12917730E+03</pdfrwt>
<totfact> 0.18172013E+04</totfact>
</mgrwt>
</event>
<event>
 8    2  0.8128359E-004  0.1296635E+03  0.7818608E-02  0.1243164E+00
          2   -1    0    0  501    0  0.00000000000E+00  0.00000000000E+00  0.16531263713E+04  0.16531263713E+04  0.25500000000E-02 0. -1.
         -2   -1    0    0    0  501 -0.00000000000E+00 -0.00000000000E+00 -0.83585152220E+01  0.83585156109E+01  0.25500000000E-02 0.  1.
         25    2    1    2    0    0  0.39488699105E+01  0.34233793521E+02  0.69612321499E+03  0.70809615336E+03  0.12500034303E+03 0.  0.
         23    2    1    2    0    0 -0.39488699105E+01 -0.34233793521E+02  0.94864464112E+03  0.95338873359E+03  0.88520483588E+02 0.  0.
        -11    1    4    4    0    0  0.14888141774E+02 -0.24505368414E+02  0.89466353301E+02  0.93948912819E+02  0.51100000000E-03 0.  1.
         11    1    4    4    0    0 -0.18837011685E+02 -0.97284251073E+01  0.85917828782E+03  0.85943982077E+03  0.51100000000E-03 0. -1.
    9000005    1    3    3    0    0 -0.26168054173E+02  0.20847012800E+01  0.27530968163E+02  0.38053478772E+02  0.10000000000E+01 0.  0.
    9000005    1    3    3    0    0  0.30116924083E+02  0.32149092241E+02  0.66859224683E+03  0.67004267458E+03  0.10000000000E+01 0.  0.
<mgrwt>
<rscale>  0 0.11995954E+03</rscale>
<asrwt>0</asrwt>
<pdfrwt beam="1">  1        2 0.25432710E+00 0.12966353E+03</pdfrwt>
<pdfrwt beam="2">  1       -2 0.12859256E-02 0.12966353E+03</pdfrwt>
<totfact> 0.16175082E+04</totfact>
</mgrwt>
</event>
<event>
 8    2  0.8128359E-004  0.4477011E+03  0.7818608E-02  0.1029056E+00
         -2   -1    0    0    0  501 -0.00000000000E+00  0.00000000000E+00  0.15529324517E+03  0.15529324519E+03  0.25500000000E-02 0.  1.
          2   -1    0    0  501    0  0.00000000000E+00 -0.00000000000E+00 -0.14007358915E+04  0.14007358915E+04  0.25500000000E-02 0. -1.
         25    2    1    2    0    0  0.25348022500E+02 -0.42915865045E+03 -0.86922120227E+03  0.97774320110E+03  0.12496639277E+03 0.  0.
         23    2    1    2    0    0 -0.25348022500E+02  0.42915865045E+03 -0.37622144405E+03  0.57828593559E+03  0.89735047979E+02 0.  0.
        -11    1    4    4    0    0  0.28041738367E+02  0.94262686036E+02 -0.64110388739E+02  0.11739648638E+03  0.51100000000E-03 0. -1.
         11    1    4    4    0    0 -0.53389760866E+02  0.33489596441E+03 -0.31211105531E+03  0.46088944921E+03  0.51100000000E-03 0.  1.
    9000005    1    3    3    0    0 -0.49864306440E+02 -0.14731627891E+03 -0.32375329413E+03  0.35917367742E+03  0.10000000000E+01 0.  0.
    9000005    1    3    3    0    0  0.75212328940E+02 -0.28184237154E+03 -0.54546790814E+03  0.61856952368E+03  0.10000000000E+01 0.  0.
<mgrwt>
<rscale>  0 0.44555342E+03</rscale>
<asrwt>0</asrwt>
<pdfrwt beam="2">  1        2 0.21549782E+00 0.44770109E+03</pdfrwt>
<pdfrwt beam="1">  1       -2 0.23891269E-01 0.44770109E+03</pdfrwt>
<totfact> 0.23393898E+02</totfact>
</mgrwt>
</event>
<event>
 8    2  0.8128359E-004  0.1840862E+03  0.7818608E-02  0.1169404E+00
         -2   -1    0    0    0  501 -0.00000000000E+00  0.00000000000E+00  0.27229833046E+02  0.27229833165E+02  0.25500000000E-02 0.  1.
          2   -1    0    0  501    0  0.00000000000E+00 -0.00000000000E+00 -0.13152245570E+04  0.13152245570E+04  0.25500000000E-02 0. -1.
         25    2    1    2    0    0 -0.13427459474E+03 -0.15262318589E+02 -0.40762037200E+03  0.44726064185E+03  0.12500043566E+03 0.  0.
         23    2    1    2    0    0  0.13427459474E+03  0.15262318589E+02 -0.88037435192E+03  0.89519374829E+03  0.89723142448E+02 0.  0.
        -11    1    4    4    0    0  0.17949510540E+02 -0.68247208762E+01 -0.24308609460E+02  0.30978544798E+02  0.51100000000E-03 0.  1.
         11    1    4    4    0    0  0.11632508420E+03  0.22087039465E+02 -0.85606574246E+03  0.86421520349E+03  0.51100000000E-03 0. -1.
    9000005    1    3    3    0    0 -0.39165068346E+02 -0.59031381003E+02 -0.10191194051E+03  0.12411949944E+03  0.10000000000E+01 0.  0.
    9000005    1    3    3    0    0 -0.95109526393E+02  0.43769062414E+02 -0.30570843149E+03  0.32314114241E+03  0.10000000000E+01 0.  0.
<mgrwt>
<rscale>  0 0.17835563E+03</rscale>
<asrwt>0</asrwt>
<pdfrwt beam="2">  1        2 0.20234219E+00 0.18408616E+03</pdfrwt>
<pdfrwt beam="1">  1       -2 0.41892061E-02 0.18408616E+03</pdfrwt>
<totfact> 0.43757935E+03</totfact>
</mgrwt>
</event>
<event>
 8    2  0.8128359E-004  0.1297327E+03  0.7818608E-02  0.1242359E+00
         -2   -1    0    0    0  501 -0.00000000000E+00  0.00000000000E+00  0.23007582445E+02  0.23007582587E+02  0.25500000000E-02 0.  1.
          2   -1    0    0  501    0  0.00000000000E+00 -0.00000000000E+00 -0.56476395130E+03  0.56476395131E+03  0.25500000000E-02 0. -1.
         25    2    1    2    0    0  0.21173592901E+02 -0.27516791872E+02 -0.34715903056E+03  0.37060755203E+03  0.12500028101E+03 0.  0.
         23    2    1    2    0    0 -0.21173592901E+02  0.27516791872E+02 -0.19459733830E+03  0.21716398187E+03  0.89925391716E+02 0.  0.
        -11    1    4    4    0    0 -0.88138302963E+00 -0.18411475173E+02 -0.14642716498E+03  0.14758276965E+03  0.51100000000E-03 0. -1.
         11    1    4    4    0    0 -0.20292209872E+02  0.45928267046E+02 -0.48170173323E+02  0.69581212217E+02  0.51100000000E-03 0.  1.
    9000005    1    3    3    0    0  0.29093832603E+02 -0.42095804060E+02 -0.45472675521E+02  0.68463654840E+02  0.10000000000E+01 0.  0.
    9000005    1    3    3    0    0 -0.79202397014E+01  0.14579012188E+02 -0.30168635504E+03  0.30214389719E+03  0.10000000000E+01 0.  0.
<mgrwt>
<rscale>  0 0.12044841E+03</rscale>
<asrwt>0</asrwt>
<pdfrwt beam="2">  1        2 0.86886751E-01 0.12973267E+03</pdfrwt>
<pdfrwt beam="1">  1       -2 0.35396285E-02 0.12973267E+03</pdfrwt>
<totfact> 0.16856366E+04</totfact>
</mgrwt>
</event>
<event>
 8    2  0.8128359E-004  0.1524695E+03  0.7818608E-02  0.1206308E+00
          2   -1    0    0  501    0  0.00000000000E+00  0.00000000000E+00  0.72860030743E+03  0.72860030743E+03  0.25500000000E-02 0. -1.
         -2   -1    0    0    0  501 -0.00000000000E+00 -0.00000000000E+00 -0.28782975568E+02  0.28782975681E+02  0.25500000000E-02 0.  1.
         25    2    1    2    0    0  0.73974070011E+02 -0.46364438435E+02  0.48476628874E+03  0.50817840732E+03  0.12500045912E+03 0.  0.
         23    2    1    2    0    0 -0.73974070011E+02  0.46364438435E+02  0.21505104311E+03  0.24920487579E+03  0.90743015086E+02 0.  0.
        -11    1    4    4    0    0 -0.48869702938E+01 -0.25505722486E+02  0.51193663494E+02  0.57403967984E+02  0.51100000000E-03 0. -1.
         11    1    4    4    0    0 -0.69087099717E+02  0.71870160921E+02  0.16385737962E+03  0.19180090780E+03  0.51100000000E-03 0.  1.
    9000005    1    3    3    0    0  0.71832575994E+02  0.24562716857E+02  0.31805036513E+03  0.32698666761E+03  0.10000000000E+01 0.  0.
    9000005    1    3    3    0    0  0.21414940169E+01 -0.70927155293E+02  0.16671592361E+03  0.18119173971E+03  0.10000000000E+01 0.  0.
<mgrwt>
<rscale>  0 0.14534891E+03</rscale>
<asrwt>0</asrwt>
<pdfrwt beam="1">  1        2 0.11209235E+00 0.15246947E+03</pdfrwt>
<pdfrwt beam="2">  1       -2 0.44281504E-02 0.15246947E+03</pdfrwt>
<totfact> 0.90906144E+03</totfact>
</mgrwt>
</event>
<event>
 8    2  0.8128359E-004  0.1366016E+03  0.7818608E-02  0.1231276E+00
         -2   -1    0    0    0  501 -0.00000000000E+00  0.00000000000E+00  0.11972448525E+02  0.11972448797E+02  0.25500000000E-02 0.  1.
          2   -1    0    0  501    0  0.00000000000E+00 -0.00000000000E+00 -0.12060311750E+04  0.12060311750E+04  0.25500000000E-02 0. -1.
         25    2    1    2    0    0 -0.67717896696E+01 -0.54661292146E+02 -0.65545678657E+03  0.66953984034E+03  0.12500513887E+03 0.  0.
         23    2    1    2    0    0  0.67717896696E+01  0.54661292146E+02 -0.53860193989E+03  0.54846378345E+03  0.87674158713E+02 0.  0.
        -11    1    4    4    0    0  0.45210714185E+02  0.37167203888E+02 -0.37287831170E+03  0.37744356540E+03  0.51100000000E-03 0.  1.
         11    1    4    4    0    0 -0.38438924515E+02  0.17494088258E+02 -0.16572362819E+03  0.17102021805E+03  0.51100000000E-03 0. -1.
    9000005    1    3    3    0    0  0.60194903563E+01 -0.79866757467E+02 -0.61489978006E+03  0.62009489011E+03  0.10000000000E+01 0.  0.
    9000005    1    3    3    0    0 -0.12791280026E+02  0.25205465321E+02 -0.40557006510E+02  0.49444950236E+02  0.10000000000E+01 0.  0.
<mgrwt>
<rscale>  0 0.12745844E+03</rscale>
<asrwt>0</asrwt>
<pdfrwt beam="2">  1        2 0.18554316E+00 0.13660161E+03</pdfrwt>
<pdfrwt beam="1">  1       -2 0.18419161E-02 0.13660161E+03</pdfrwt>
<totfact> 0.16637371E+04</totfact>
</mgrwt>
</event>
<event>
 8    2  0.8128359E-004  0.1498337E+03  0.7818608E-02  0.1210017E+00
         -2   -1    0    0    0  501 -0.00000000000E+00  0.00000000000E+00  0.17522466395E+04  0.17522466395E+04  0.25500000000E-02 0.  1.
          2   -1    0    0  501    0  0.00000000000E+00 -0.00000000000E+00 -0.10665856785E+02  0.10665857090E+02  0.25500000000E-02 0. -1.
         25    2    1    2    0    0  0.80142216460E+02  0.20077607559E+02  0.10335908919E+04  0.10443946913E+04  0.12499701710E+03 0.  0.
         23    2    1    2    0    0 -0.80142216460E+02 -0.20077607559E+02  0.70798989077E+03  0.71851780521E+03  0.90511136285E+02 0.  0.
        -11    1    4    4    0    0 -0.27386506615E+02 -0.21781874984E+02  0.56523617219E+03  0.56631828611E+03  0.51100000000E-03 0.  1.
         11    1    4    4    0    0 -0.52755709845E+02  0.17042674249E+01  0.14275371858E+03  0.15219951911E+03  0.51100000000E-03 0. -1.
    9000005    1    3    3    0    0  0.88025101681E+02 -0.59126882608E+01  0.37484885333E+03  0.38509225031E+03  0.10000000000E+01 0.  0.
    9000005    1    3    3    0    0 -0.78828852211E+01  0.25990295820E+02  0.65874203858E+03  0.65930244103E+03  0.10000000000E+01 0.  0.
<mgrwt>
<rscale>  0 0.14248994E+03</rscale>
<asrwt>0</asrwt>
<pdfrwt beam="2">  1        2 0.16409012E-02 0.14983371E+03</pdfrwt>
<pdfrwt beam="1">  1       -2 0.26957638E+00 0.14983371E+03</pdfrwt>
<totfact> 0.39284057E+02</totfact>
</mgrwt>
</event>
<event>
 8    2  0.8128359E-004  0.1281926E+03  0.7818608E-02  0.1244925E+00
          2   -1    0    0  501    0  0.00000000000E+00  0.00000000000E+00  0.16130549360E+04  0.16130549360E+04  0.25500000000E-02 0. -1.
         -2   -1    0    0    0  501 -0.00000000000E+00 -0.00000000000E+00 -0.79651743090E+01  0.79651747172E+01  0.25500000000E-02 0.  1.
         25    2    1    2    0    0  0.12823655703E+02  0.25321240500E+02  0.10616906973E+04  0.10694019280E+04  0.12501094101E+03 0.  0.
         23    2    1    2    0    0 -0.12823655703E+02 -0.25321240500E+02  0.54339906433E+03  0.55161818273E+03  0.90523284464E+02 0.  0.
        -11    1    4    4    0    0 -0.87303597658E+01 -0.43027050826E+02  0.11917128638E+03  0.12700134560E+03  0.51100000000E-03 0.  1.
         11    1    4    4    0    0 -0.40932959370E+01  0.17705810326E+02  0.42422777795E+03  0.42461683713E+03  0.51100000000E-03 0. -1.
    9000005    1    3    3    0    0  0.68699579977E+02  0.22149254779E+02  0.60925442420E+03  0.61351623873E+03  0.10000000000E+01 0.  0.
    9000005    1    3    3    0    0 -0.55875924274E+02  0.31719857211E+01  0.45243627313E+03  0.45588568923E+03  0.10000000000E+01 0.  0.
<mgrwt>
<rscale>  0 0.11889895E+03</rscale>
<asrwt>0</asrwt>
<pdfrwt beam="1">  1        2 0.24816222E+00 0.12819262E+03</pdfrwt>
<pdfrwt beam="2">  1       -2 0.12254118E-02 0.12819262E+03</pdfrwt>
<totfact> 0.18162241E+04</totfact>
</mgrwt>
</event>
<event>
 8    2  0.8128359E-004  0.1634563E+03  0.7818608E-02  0.1188356E+00
          2   -1    0    0  501    0  0.00000000000E+00  0.00000000000E+00  0.51458216993E+03  0.51458216994E+03  0.25500000000E-02 0. -1.
         -2   -1    0    0    0  501 -0.00000000000E+00 -0.00000000000E+00 -0.65339337885E+02  0.65339337935E+02  0.25500000000E-02 0.  1.
         25    2    1    2    0    0  0.47927753410E+02  0.93783694511E+02  0.37991322619E+03  0.41358434587E+03  0.12500200322E+03 0.  0.
         23    2    1    2    0    0 -0.47927753410E+02 -0.93783694511E+02  0.69329605858E+02  0.16633716201E+03  0.10848505110E+03 0.  0.
        -11    1    4    4    0    0 -0.75060779913E+02 -0.86371156092E+02  0.76077956688E+02  0.13741161807E+03  0.51100000000E-03 0. -1.
         11    1    4    4    0    0  0.27133026503E+02 -0.74125384198E+01 -0.67483508301E+01  0.28925543940E+02  0.51100000000E-03 0.  1.
    9000005    1    3    3    0    0  0.43188717583E+02 -0.21358027118E+02  0.10901230742E+03  0.11918940313E+03  0.10000000000E+01 0.  0.
    9000005    1    3    3    0    0  0.47390358270E+01  0.11514172163E+03  0.27090091877E+03  0.29439494274E+03  0.10000000000E+01 0.  0.
<mgrwt>
<rscale>  0 0.16030209E+03</rscale>
<asrwt>0</asrwt>
<pdfrwt beam="1">  1        2 0.79166488E-01 0.16345627E+03</pdfrwt>
<pdfrwt beam="2">  1       -2 0.10052206E-01 0.16345627E+03</pdfrwt>
<totfact> 0.38748554E+03</totfact>
</mgrwt>
</event>
<event>
 8    2  0.8128359E-004  0.1337279E+03  0.7818608E-02  0.1234575E+00
         -2   -1    0    0    0  501 -0.00000000000E+00  0.00000000000E+00  0.37190501704E+02  0.37190501792E+02  0.25500000000E-02 0.  1.
          2   -1    0    0  501    0  0.00000000000E+00 -0.00000000000E+00 -0.37760314944E+03  0.37760314945E+03  0.25500000000E-02 0. -1.
         25    2    1    2    0    0  0.37561040277E+02 -0.29098393792E+02 -0.19959989719E+03  0.24025666928E+03  0.12500239962E+03 0.  0.
         23    2    1    2    0    0 -0.37561040277E+02  0.29098393792E+02 -0.14081275055E+03  0.17453698196E+03  0.91528023501E+02 0.  0.
        -11    1    4    4    0    0 -0.24171112856E+01  0.17449176158E+02  0.93039920357E+01  0.19921858438E+02  0.51100000000E-03 0.  1.
         11    1    4    4    0    0 -0.35143928992E+02  0.11649217634E+02 -0.15011674259E+03  0.15461512352E+03  0.51100000000E-03 0. -1.
    9000005    1    3    3    0    0  0.48906950751E+01 -0.16402453702E+02  0.15018375800E+02  0.22792783889E+02  0.10000000000E+01 0.  0.
    9000005    1    3    3    0    0  0.32670345202E+02 -0.12695940091E+02 -0.21461827299E+03  0.21746388539E+03  0.10000000000E+01 0.  0.
<mgrwt>
<rscale>  0 0.12531651E+03</rscale>
<asrwt>0</asrwt>
<pdfrwt beam="2">  1        2 0.58092790E-01 0.13372789E+03</pdfrwt>
<pdfrwt beam="1">  1       -2 0.57216159E-02 0.13372789E+03</pdfrwt>
<totfact> 0.12776407E+04</totfact>
</mgrwt>
</event>
<event>
 8    2  0.8128359E-004  0.1330364E+03  0.7818608E-02  0.1248585E+00
         -2   -1    0    0    0  501 -0.00000000000E+00  0.00000000000E+00  0.60082123357E+02  0.60082123411E+02  0.25500000000E-02 0.  1.
          2   -1    0    0  501    0  0.00000000000E+00 -0.00000000000E+00 -0.19092153833E+03  0.19092153835E+03  0.25500000000E-02 0. -1.
         25    2    1    2    0    0 -0.18761522193E+02 -0.41523597438E+02 -0.99558511816E+02  0.16616435162E+03  0.12498996206E+03 0.  0.
         23    2    1    2    0    0  0.18761522193E+02  0.41523597438E+02 -0.31280903162E+02  0.84839310140E+02  0.64366216163E+02 0.  0.
        -11    1    4    4    0    0 -0.20111388891E+02  0.37900729161E+01  0.30661804120E+01  0.20693817396E+02  0.51100000000E-03 0.  1.
         11    1    4    4    0    0  0.38872911085E+02  0.37733524522E+02 -0.34347083574E+02  0.64145492744E+02  0.51100000000E-03 0. -1.
    9000005    1    3    3    0    0 -0.24906589766E+01  0.60912328416E+01 -0.11369415411E+03  0.11388883694E+03  0.10000000000E+01 0.  0.
    9000005    1    3    3    0    0 -0.16270863217E+02 -0.47614830280E+02  0.14135642297E+02  0.52275514684E+02  0.10000000000E+01 0.  0.
<mgrwt>
<rscale>  0 0.11673334E+03</rscale>
<asrwt>0</asrwt>
<pdfrwt beam="2">  1        2 0.29372544E-01 0.13303644E+03</pdfrwt>
<pdfrwt beam="1">  1       -2 0.92434037E-02 0.13303644E+03</pdfrwt>
<totfact> 0.12655991E+04</totfact>
</mgrwt>
</event>
<event>
 8    2  0.8128359E-004  0.1283350E+03  0.7818608E-02  0.1244441E+00
          2   -1    0    0  501    0  0.00000000000E+00  0.00000000000E+00  0.46599899302E+02  0.46599899371E+02  0.25500000000E-02 0. -1.
         -2   -1    0    0    0  501 -0.00000000000E+00 -0.00000000000E+00 -0.27134734864E+03  0.27134734865E+03  0.25500000000E-02 0.  1.
         25    2    1    2    0    0 -0.28124143911E+02  0.73075471444E+01 -0.14412821489E+03  0.19298395630E+03  0.12500198938E+03 0.  0.
         23    2    1    2    0    0  0.28124143911E+02 -0.73075471444E+01 -0.80619234450E+02  0.12496329172E+03  0.90950511803E+02 0.  0.
        -11    1    4    4    0    0  0.31954800713E+02  0.26865517118E+02 -0.80380546031E+02  0.90575369054E+02  0.51100000000E-03 0. -1.
         11    1    4    4    0    0 -0.38306568012E+01 -0.34173064263E+02 -0.23868841886E+00  0.34387922663E+02  0.51100000000E-03 0.  1.
    9000005    1    3    3    0    0 -0.61894256231E+02  0.28495348801E+02 -0.13623939045E+03  0.15233205627E+03  0.10000000000E+01 0.  0.
    9000005    1    3    3    0    0  0.33770112320E+02 -0.21187801657E+02 -0.78888244316E+01  0.40651900030E+02  0.10000000000E+01 0.  0.
<mgrwt>
<rscale>  0 0.11918908E+03</rscale>
<asrwt>0</asrwt>
<pdfrwt beam="1">  1        2 0.71692154E-02 0.12833497E+03</pdfrwt>
<pdfrwt beam="2">  1       -2 0.41745745E-01 0.12833497E+03</pdfrwt>
<totfact> 0.50787903E+03</totfact>
</mgrwt>
</event>
<event>
 8    2  0.8128359E-004  0.1358914E+03  0.7818608E-02  0.1231048E+00
          2   -1    0    0  501    0  0.00000000000E+00  0.00000000000E+00  0.10214121205E+04  0.10214121205E+04  0.25500000000E-02 0. -1.
         -2   -1    0    0    0  501 -0.00000000000E+00 -0.00000000000E+00 -0.22434919714E+02  0.22434919858E+02  0.25500000000E-02 0.  1.
         25    2    1    2    0    0 -0.30584870799E+02 -0.43653762233E+02  0.85232979462E+03  0.86309475134E+03  0.12500154289E+03 0.  0.
         23    2    1    2    0    0  0.30584870799E+02  0.43653762233E+02  0.14664740620E+03  0.18075228905E+03  0.91240577447E+02 0.  0.
        -11    1    4    4    0    0  0.47044229944E+02  0.38709211562E+02  0.15116721698E+03  0.16298187053E+03  0.51100000000E-03 0. -1.
         11    1    4    4    0    0 -0.16459359144E+02  0.49445506714E+01 -0.45198107788E+01  0.17770418524E+02  0.51100000000E-03 0.  1.
    9000005    1    3    3    0    0  0.97160087597E+01 -0.76367233210E+02  0.63498930272E+03  0.63963956233E+03  0.10000000000E+01 0.  0.
    9000005    1    3    3    0    0 -0.40300879559E+02  0.32713470977E+02  0.21734049190E+03  0.22345518901E+03  0.10000000000E+01 0.  0.
<mgrwt>
<rscale>  0 0.12760886E+03</rscale>
<asrwt>0</asrwt>
<pdfrwt beam="1">  1        2 0.15714034E+00 0.13589139E+03</pdfrwt>
<pdfrwt beam="2">  1       -2 0.34515258E-02 0.13589139E+03</pdfrwt>
<totfact> 0.84622843E+03</totfact>
</mgrwt>
</event>
<event>
 8    2  0.8128359E-004  0.1283650E+03  0.7818608E-02  0.1243300E+00
         -2   -1    0    0    0  501 -0.00000000000E+00  0.00000000000E+00  0.10553304770E+02  0.10553305078E+02  0.25500000000E-02 0.  1.
          2   -1    0    0  501    0  0.00000000000E+00 -0.00000000000E+00 -0.17555822311E+04  0.17555822311E+04  0.25500000000E-02 0. -1.
         25    2    1    2    0    0 -0.55229049341E+01  0.28683089558E+02 -0.46512557255E+03  0.48251360652E+03  0.12499744049E+03 0.  0.
         23    2    1    2    0    0  0.55229049341E+01 -0.28683089558E+02 -0.12799033538E+04  0.12836219297E+04  0.93163518529E+02 0.  0.
        -11    1    4    4    0    0  0.19437000798E+02 -0.59898805361E+02 -0.88884523715E+03  0.89107324025E+03  0.51100000000E-03 0. -1.
         11    1    4    4    0    0 -0.13914095864E+02  0.31215715802E+02 -0.39105811664E+03  0.39254868942E+03  0.51100000000E-03 0.  1.
    9000005    1    3    3    0    0 -0.51456033003E+02  0.51798795611E+02 -0.21220094781E+03  0.22441274654E+03  0.10000000000E+01 0.  0.
    9000005    1    3    3    0    0  0.45933128069E+02 -0.23115706053E+02 -0.25292462474E+03  0.25810085998E+03  0.10000000000E+01 0.  0.
<mgrwt>
<rscale>  0 0.11987727E+03</rscale>
<asrwt>0</asrwt>
<pdfrwt beam="2">  1        2 0.27008934E+00 0.12836504E+03</pdfrwt>
<pdfrwt beam="1">  1       -2 0.16235868E-02 0.12836504E+03</pdfrwt>
<totfact> 0.10246708E+04</totfact>
</mgrwt>
</event>
<event>
 8    2  0.8128359E-004  0.1390280E+03  0.7818608E-02  0.1229048E+00
         -2   -1    0    0    0  501 -0.00000000000E+00  0.00000000000E+00  0.26044599163E+02  0.26044599288E+02  0.25500000000E-02 0.  1.
          2   -1    0    0  501    0  0.00000000000E+00 -0.00000000000E+00 -0.56866012542E+03  0.56866012543E+03  0.25500000000E-02 0. -1.
         25    2    1    2    0    0  0.58950573066E+02  0.15144534238E+02 -0.27844387022E+03  0.31122304618E+03  0.12499707449E+03 0.  0.
         23    2    1    2    0    0 -0.58950573066E+02 -0.15144534238E+02 -0.26417165604E+03  0.28348167853E+03  0.82889512165E+02 0.  0.
        -11    1    4    4    0    0 -0.48323463281E+02 -0.11944870672E+02 -0.55647749135E+02  0.74662634717E+02  0.51100000000E-03 0.  1.
         11    1    4    4    0    0 -0.10627109786E+02 -0.31996635658E+01 -0.20852390690E+03  0.20881904381E+03  0.51100000000E-03 0. -1.
    9000005    1    3    3    0    0  0.82919666804E+01 -0.51219450259E+02 -0.73972356307E+02  0.90360933450E+02  0.10000000000E+01 0.  0.
    9000005    1    3    3    0    0  0.50658606386E+02  0.66363984498E+02 -0.20447151391E+03  0.22086211273E+03  0.10000000000E+01 0.  0.
<mgrwt>
<rscale>  0 0.12893264E+03</rscale>
<asrwt>0</asrwt>
<pdfrwt beam="2">  1        2 0.87486164E-01 0.13902804E+03</pdfrwt>
<pdfrwt beam="1">  1       -2 0.40068618E-02 0.13902804E+03</pdfrwt>
<totfact> 0.13994446E+04</totfact>
</mgrwt>
</event>
<event>
 8    2  0.8128359E-004  0.1253606E+03  0.7818608E-02  0.1250417E+00
         -2   -1    0    0    0  501 -0.00000000000E+00  0.00000000000E+00  0.26195565654E+03  0.26195565655E+03  0.25500000000E-02 0.  1.
          2   -1    0    0  501    0  0.00000000000E+00 -0.00000000000E+00 -0.52419862152E+02  0.52419862214E+02  0.25500000000E-02 0. -1.
         25    2    1    2    0    0 -0.86064546246E+01 -0.40428413469E+01  0.17897285414E+03  0.21850987794E+03  0.12499947444E+03 0.  0.
         23    2    1    2    0    0  0.86064546246E+01  0.40428413469E+01  0.30562940247E+02  0.95865640829E+02  0.90364330062E+02 0.  0.
        -11    1    4    4    0    0  0.14361051593E+02  0.41881914614E+02 -0.37875462581E+01  0.44437372577E+02  0.51100000000E-03 0. -1.
         11    1    4    4    0    0 -0.57545969689E+01 -0.37839073267E+02  0.34350486505E+02  0.51428268252E+02  0.51100000000E-03 0.  1.
    9000005    1    3    3    0    0 -0.12284531661E+02 -0.54416213235E+02  0.15052587938E+03  0.16053371715E+03  0.10000000000E+01 0.  0.
    9000005    1    3    3    0    0  0.36780770360E+01  0.50373371888E+02  0.28446974763E+02  0.57976160784E+02  0.10000000000E+01 0.  0.
<mgrwt>
<rscale>  0 0.11566924E+03</rscale>
<asrwt>0</asrwt>
<pdfrwt beam="2">  1        2 0.80645944E-02 0.12536062E+03</pdfrwt>
<pdfrwt beam="1">  1       -2 0.40300869E-01 0.12536062E+03</pdfrwt>
<totfact> 0.46741461E+03</totfact>
</mgrwt>
</event>
<event>
 8    2  0.8128359E-004  0.1322008E+03  0.7818608E-02  0.1236643E+00
          2   -1    0    0  501    0  0.00000000000E+00  0.00000000000E+00  0.46160757331E+02  0.46160757401E+02  0.25500000000E-02 0.  1.
         -2   -1    0    0    0  501 -0.00000000000E+00 -0.00000000000E+00 -0.30134162355E+03  0.30134162356E+03  0.25500000000E-02 0. -1.
         25    2    1    2    0    0 -0.13153483688E+02 -0.40923332059E+02 -0.16214726842E+03  0.20920992527E+03  0.12501729056E+03 0.  0.
         23    2    1    2    0    0  0.13153483688E+02  0.40923332059E+02 -0.93033597804E+02  0.13829245569E+03  0.92853754581E+02 0.  0.
        -11    1    4    4    0    0  0.18532435478E+02 -0.18852647830E+02  0.13187461315E+01  0.26469087377E+02  0.51100000000E-03 0.  1.
         11    1    4    4    0    0 -0.53789517903E+01  0.59775979888E+02 -0.94352343935E+02  0.11182336831E+03  0.51100000000E-03 0. -1.
    9000005    1    3    3    0    0 -0.13970418557E+02  0.31562291032E+02 -0.12104065746E+03  0.12586974048E+03  0.10000000000E+01 0.  0.
    9000005    1    3    3    0    0  0.81693486973E+00 -0.72485623090E+02 -0.41106610953E+02  0.83340184794E+02  0.10000000000E+01 0.  0.
<mgrwt>
<rscale>  0 0.12399855E+03</rscale>
<asrwt>0</asrwt>
<pdfrwt beam="1">  1        2 0.71016552E-02 0.13220082E+03</pdfrwt>
<pdfrwt beam="2">  1       -2 0.46360249E-01 0.13220082E+03</pdfrwt>
<totfact> 0.42096248E+03</totfact>
</mgrwt>
</event>
<event>
 8    2  0.8128359E-004  0.1904305E+03  0.7818608E-02  0.1162638E+00
          2   -1    0    0  501    0  0.00000000000E+00  0.00000000000E+00  0.78472338699E+02  0.78472338741E+02  0.25500000000E-02 0. -1.
         -2   -1    0    0    0  501 -0.00000000000E+00 -0.00000000000E+00 -0.48313653568E+03  0.48313653569E+03  0.25500000000E-02 0.  1.
         25    2    1    2    0    0 -0.10556333688E+03 -0.97439942824E+02 -0.10761565132E+03  0.21873479677E+03  0.12500248941E+03 0.  0.
         23    2    1    2    0    0  0.10556333688E+03  0.97439942824E+02 -0.29704854566E+03  0.34287407766E+03  0.93202114229E+02 0.  0.
        -11    1    4    4    0    0  0.47809586416E+02 -0.59827169456E+01 -0.12523278003E+03  0.13418196097E+03  0.51100000000E-03 0.  1.
         11    1    4    4    0    0  0.57753750467E+02  0.10342265977E+03 -0.17181576563E+03  0.20869211669E+03  0.51100000000E-03 0. -1.
    9000005    1    3    3    0    0 -0.23870427723E+02 -0.77423967101E+02 -0.10750414793E+03  0.13461950016E+03  0.10000000000E+01 0.  0.
    9000005    1    3    3    0    0 -0.81692909160E+02 -0.20015975722E+02 -0.11150338973E+00  0.84115296612E+02  0.10000000000E+01 0.  0.
<mgrwt>
<rscale>  0 0.18544144E+03</rscale>
<asrwt>0</asrwt>
<pdfrwt beam="1">  1        2 0.12072668E-01 0.19043052E+03</pdfrwt>
<pdfrwt beam="2">  1       -2 0.74328695E-01 0.19043052E+03</pdfrwt>
<totfact> 0.84160109E+02</totfact>
</mgrwt>
</event>
<event>
 8    2  0.8128359E-004  0.1300175E+03  0.7818608E-02  0.1240096E+00
         -2   -1    0    0    0  501 -0.00000000000E+00  0.00000000000E+00  0.95751070595E+01  0.95751073991E+01  0.25500000000E-02 0.  1.
          2   -1    0    0  501    0  0.00000000000E+00 -0.00000000000E+00 -0.15996186888E+04  0.15996186888E+04  0.25500000000E-02 0. -1.
         25    2    1    2    0    0 -0.44082998338E+01 -0.35456008111E+02 -0.59103336429E+03  0.60516525073E+03  0.12501192493E+03 0.  0.
         23    2    1    2    0    0  0.44082998338E+01  0.35456008111E+02 -0.99901021743E+03  0.10040285454E+04  0.93676805665E+02 0.  0.
        -11    1    4    4    0    0 -0.87177827187E+01 -0.22228979290E+02 -0.61725278466E+03  0.61771443842E+03  0.51100000000E-03 0. -1.
         11    1    4    4    0    0  0.13126082553E+02  0.57684987400E+02 -0.38175743277E+03  0.38631410703E+03  0.51100000000E-03 0.  1.
    9000005    1    3    3    0    0 -0.27765884915E+02 -0.77268153284E+02 -0.37465929419E+03  0.38355168960E+03  0.10000000000E+01 0.  0.
    9000005    1    3    3    0    0  0.23357585081E+02  0.41812145173E+02 -0.21637407010E+03  0.22161356113E+03  0.10000000000E+01 0.  0.
<mgrwt>
<rscale>  0 0.12183788E+03</rscale>
<asrwt>0</asrwt>
<pdfrwt beam="2">  1        2 0.24609497E+00 0.13001747E+03</pdfrwt>
<pdfrwt beam="1">  1       -2 0.14730947E-02 0.13001747E+03</pdfrwt>
<totfact> 0.14175641E+04</totfact>
</mgrwt>
</event>
<event>
 8    2  0.8128359E-004  0.1642860E+03  0.7818608E-02  0.1190990E+00
          2   -1    0    0  501    0  0.00000000000E+00  0.00000000000E+00  0.49633067844E+04  0.49633067844E+04  0.25500000000E-02 0.  1.
         -2   -1    0    0    0  501 -0.00000000000E+00 -0.00000000000E+00 -0.50129301116E+01  0.50129307602E+01  0.25500000000E-02 0. -1.
         25    2    1    2    0    0  0.81273014280E+02 -0.68989825742E+02  0.20204186787E+04  0.20270869547E+04  0.12499994419E+03 0.  0.
         23    2    1    2    0    0 -0.81273014280E+02  0.68989825742E+02  0.29378751756E+04  0.29412327604E+04  0.91513411917E+02 0.  0.
        -11    1    4    4    0    0 -0.49214248166E+02  0.52835589359E+01  0.20143226728E+04  0.20149307155E+04  0.51100000000E-03 0. -1.
         11    1    4    4    0    0 -0.32058766115E+02  0.63706266806E+02  0.92355250287E+03  0.92630204494E+03  0.51100000000E-03 0.  1.
    9000005    1    3    3    0    0 -0.48086944632E+01  0.31547345709E+02  0.39203056517E+03  0.39332851739E+03  0.10000000000E+01 0.  0.
    9000005    1    3    3    0    0  0.86081708744E+02 -0.10053717145E+03  0.16283881135E+04  0.16337584373E+04  0.10000000000E+01 0.  0.
<mgrwt>
<rscale>  0 0.15798567E+03</rscale>
<asrwt>0</asrwt>
<pdfrwt beam="1">  1        2 0.76358231E+00 0.16428599E+03</pdfrwt>
<pdfrwt beam="2">  1       -2 0.77122345E-03 0.16428599E+03</pdfrwt>
<totfact> 0.18458312E+02</totfact>
</mgrwt>
</event>
<event>
 8    2  0.8128359E-004  0.1284065E+03  0.7818608E-02  0.1244863E+00
          2   -1    0    0  501    0  0.00000000000E+00  0.00000000000E+00  0.24348921831E+04  0.24348921831E+04  0.25500000000E-02 0. -1.
         -2   -1    0    0    0  501 -0.00000000000E+00 -0.00000000000E+00 -0.61076237598E+01  0.61076242922E+01  0.25500000000E-02 0.  1.
         25    2    1    2    0    0  0.29131074075E+02  0.37666939517E+01  0.18590237776E+04  0.18634531479E+04  0.12500168594E+03 0.  0.
         23    2    1    2    0    0 -0.29131074075E+02 -0.37666939517E+01  0.56976078176E+03  0.57754665945E+03  0.89833111699E+02 0.  0.
        -11    1    4    4    0    0 -0.49268065390E+02 -0.25593947891E+01  0.16339496473E+03  0.17068042439E+03  0.51100000000E-03 0.  1.
         11    1    4    4    0    0  0.20136991315E+02 -0.12072991627E+01  0.40636581702E+03  0.40686623506E+03  0.51100000000E-03 0. -1.
    9000005    1    3    3    0    0 -0.34000864292E+02 -0.34457619496E+02  0.10344700081E+04  0.10356025222E+04  0.10000000000E+01 0.  0.
    9000005    1    3    3    0    0  0.63131938368E+02  0.38224313448E+02  0.82455376948E+03  0.82785062574E+03  0.10000000000E+01 0.  0.
<mgrwt>
<rscale>  0 0.11893610E+03</rscale>
<asrwt>0</asrwt>
<pdfrwt beam="1">  1        2 0.37459882E+00 0.12840650E+03</pdfrwt>
<pdfrwt beam="2">  1       -2 0.93963441E-03 0.12840650E+03</pdfrwt>
<totfact> 0.10032376E+04</totfact>
</mgrwt>
</event>
<event>
 8    2  0.8128359E-004  0.1399103E+03  0.7818608E-02  0.1224502E+00
          2   -1    0    0  501    0  0.00000000000E+00  0.00000000000E+00  0.67318761404E+03  0.67318761404E+03  0.25500000000E-02 0. -1.
         -2   -1    0    0    0  501 -0.00000000000E+00 -0.00000000000E+00 -0.62351990425E+02  0.62351990477E+02  0.25500000000E-02 0.  1.
         25    2    1    2    0    0  0.15237667622E+00  0.62851392891E+02  0.28555691369E+02  0.14279469748E+03  0.12499830924E+03 0.  0.
         23    2    1    2    0    0 -0.15237667622E+00 -0.62851392891E+02  0.58227993224E+03  0.59274490704E+03  0.91358001942E+02 0.  0.
        -11    1    4    4    0    0 -0.21360190623E+02 -0.77576827545E+02  0.50221381420E+03  0.50861885247E+03  0.51100000000E-03 0.  1.
         11    1    4    4    0    0  0.21207813947E+02  0.14725434654E+02  0.80066118047E+02  0.84126054570E+02  0.51100000000E-03 0. -1.
    9000005    1    3    3    0    0 -0.66211770458E+01 -0.31584101844E+02  0.35341141389E+02  0.47868483885E+02  0.10000000000E+01 0.  0.
    9000005    1    3    3    0    0  0.67735537220E+01  0.94435494735E+02 -0.67854500199E+01  0.94926213597E+02  0.10000000000E+01 0.  0.
<mgrwt>
<rscale>  0 0.13201111E+03</rscale>
<asrwt>0</asrwt>
<pdfrwt beam="1">  1        2 0.10356732E+00 0.13991032E+03</pdfrwt>
<pdfrwt beam="2">  1       -2 0.95926139E-02 0.13991032E+03</pdfrwt>
<totfact> 0.30530742E+03</totfact>
</mgrwt>
</event>
<event>
 8    2  0.8128359E-004  0.1410278E+03  0.7818608E-02  0.1221366E+00
          2   -1    0    0  501    0  0.00000000000E+00  0.00000000000E+00  0.15515189917E+04  0.15515189917E+04  0.25500000000E-02 0. -1.
         -2   -1    0    0    0  501 -0.00000000000E+00 -0.00000000000E+00 -0.11214035930E+02  0.11214036220E+02  0.25500000000E-02 0.  1.
         25    2    1    2    0    0  0.57180098577E+02 -0.31539440564E+02  0.10225118141E+04  0.10321914766E+04  0.12499813758E+03 0.  0.
         23    2    1    2    0    0 -0.57180098577E+02  0.31539440564E+02  0.51779314167E+03  0.53054155133E+03  0.95395493288E+02 0.  0.
        -11    1    4    4    0    0 -0.59083276872E+02 -0.89013656355E+01  0.42661894914E+03  0.43078277088E+03  0.51100000000E-03 0. -1.
         11    1    4    4    0    0  0.19031782954E+01  0.40440806199E+02  0.91174192524E+02  0.99758780448E+02  0.51100000000E-03 0.  1.
    9000005    1    3    3    0    0  0.44649433246E+02 -0.43052323622E+02  0.19770300059E+03  0.20720654164E+03  0.10000000000E+01 0.  0.
    9000005    1    3    3    0    0  0.12530665331E+02  0.11512883058E+02  0.82480881355E+03  0.82498493498E+03  0.10000000000E+01 0.  0.
<mgrwt>
<rscale>  0 0.13419088E+03</rscale>
<asrwt>0</asrwt>
<pdfrwt beam="1">  1        2 0.23869512E+00 0.14102778E+03</pdfrwt>
<pdfrwt beam="2">  1       -2 0.17252371E-02 0.14102778E+03</pdfrwt>
<totfact> 0.11995087E+04</totfact>
</mgrwt>
</event>
<event>
 8    2  0.8128359E-004  0.1657950E+03  0.7818608E-02  0.1189230E+00
          2   -1    0    0  501    0  0.00000000000E+00  0.00000000000E+00  0.16815407250E+04  0.16815407250E+04  0.25500000000E-02 0. -1.
         -2   -1    0    0    0  501 -0.00000000000E+00 -0.00000000000E+00 -0.14098364670E+02  0.14098364900E+02  0.25500000000E-02 0.  1.
         25    2    1    2    0    0 -0.84158001258E+02 -0.69139606010E+02  0.91000696660E+03  0.92498685190E+03  0.12500057051E+03 0.  0.
         23    2    1    2    0    0  0.84158001258E+02  0.69139606010E+02  0.75743539377E+03  0.77065223805E+03  0.91288783391E+02 0.  0.
        -11    1    4    4    0    0  0.74661186875E+02  0.55306107847E+01  0.48394253966E+03  0.48969915476E+03  0.51100000000E-03 0. -1.
         11    1    4    4    0    0  0.94968143831E+01  0.63608995225E+02  0.27349285411E+03  0.28095308328E+03  0.51100000000E-03 0.  1.
    9000005    1    3    3    0    0 -0.13940610182E+02  0.31777740438E+02  0.34587935511E+03  0.34761716541E+03  0.10000000000E+01 0.  0.
    9000005    1    3    3    0    0 -0.70217391076E+02 -0.10091734645E+03  0.56412761150E+03  0.57736968649E+03  0.10000000000E+01 0.  0.
<mgrwt>
<rscale>  0 0.15952846E+03</rscale>
<asrwt>0</asrwt>
<pdfrwt beam="1">  1        2 0.25869874E+00 0.16579504E+03</pdfrwt>
<pdfrwt beam="2">  1       -2 0.21689778E-02 0.16579504E+03</pdfrwt>
<totfact> 0.74057780E+03</totfact>
</mgrwt>
</event>
<event>
 8    2  0.8128359E-004  0.1567722E+03  0.7818608E-02  0.1201127E+00
          2   -1    0    0  501    0  0.00000000000E+00  0.00000000000E+00  0.66248296707E+03  0.66248296707E+03  0.25500000000E-02 0.  1.
         -2   -1    0    0    0  501 -0.00000000000E+00 -0.00000000000E+00 -0.30940146113E+02  0.30940146218E+02  0.25500000000E-02 0. -1.
         25    2    1    2    0    0  0.34661502230E+02 -0.88038464461E+02  0.35060084898E+03  0.38405528949E+03  0.12500127647E+03 0.  0.
         23    2    1    2    0    0 -0.34661502230E+02  0.88038464461E+02  0.28094197198E+03  0.30936782380E+03  0.88475238486E+02 0.  0.
        -11    1    4    4    0    0 -0.22559280159E+02 -0.53283125042E+01  0.15921731962E+02  0.28121407937E+02  0.51100000000E-03 0. -1.
         11    1    4    4    0    0 -0.12102222071E+02  0.93366776965E+02  0.26502024001E+03  0.28124641586E+03  0.51100000000E-03 0.  1.
    9000005    1    3    3    0    0  0.31206718358E+02  0.11211038197E+02  0.19724504270E+02  0.38595371702E+02  0.10000000000E+01 0.  0.
    9000005    1    3    3    0    0  0.34547838724E+01 -0.99249502658E+02  0.33087634471E+03  0.34545991779E+03  0.10000000000E+01 0.  0.
<mgrwt>
<rscale>  0 0.14946892E+03</rscale>
<asrwt>0</asrwt>
<pdfrwt beam="1">  1        2 0.10192046E+00 0.15677216E+03</pdfrwt>
<pdfrwt beam="2">  1       -2 0.47600226E-02 0.15677216E+03</pdfrwt>
<totfact> 0.91500265E+03</totfact>
</mgrwt>
</event>
<event>
 8    2  0.8128359E-004  0.1263536E+03  0.7818608E-02  0.1248358E+00
         -2   -1    0    0    0  501 -0.00000000000E+00  0.00000000000E+00  0.21317395135E+02  0.21317395287E+02  0.25500000000E-02 0.  1.
          2   -1    0    0  501    0  0.00000000000E+00 -0.00000000000E+00 -0.57441113162E+03  0.57441113162E+03  0.25500000000E-02 0. -1.
         25    2    1    2    0    0  0.77207726195E+01  0.16745424725E+02 -0.36245521119E+03  0.38384762943E+03  0.12500081170E+03 0.  0.
         23    2    1    2    0    0 -0.77207726195E+01 -0.16745424725E+02 -0.19063852529E+03  0.21188089748E+03  0.90611521398E+02 0.  0.
        -11    1    4    4    0    0  0.28672766633E+02  0.79065747899E+00 -0.16443258941E+02  0.33062568722E+02  0.51100000000E-03 0.  1.
         11    1    4    4    0    0 -0.36393539252E+02 -0.17536082204E+02 -0.17419526635E+03  0.17881832876E+03  0.51100000000E-03 0. -1.
    9000005    1    3    3    0    0  0.27528145677E+02  0.58210813041E+02 -0.11187327659E+03  0.12908496262E+03  0.10000000000E+01 0.  0.
    9000005    1    3    3    0    0 -0.19807373057E+02 -0.41465388316E+02 -0.25058193460E+03  0.25476266681E+03  0.10000000000E+01 0.  0.
<mgrwt>
<rscale>  0 0.11686631E+03</rscale>
<asrwt>0</asrwt>
<pdfrwt beam="2">  1        2 0.88370931E-01 0.12635356E+03</pdfrwt>
<pdfrwt beam="1">  1       -2 0.32795997E-02 0.12635356E+03</pdfrwt>
<totfact> 0.18467342E+04</totfact>
</mgrwt>
</event>
<event>
 8    2  0.8128359E-004  0.1271440E+03  0.7818608E-02  0.1246940E+00
         -2   -1    0    0    0  501 -0.00000000000E+00  0.00000000000E+00  0.19300690289E+02  0.19300690457E+02  0.25500000000E-02 0.  1.
          2   -1    0    0  501    0  0.00000000000E+00 -0.00000000000E+00 -0.63384526708E+03  0.63384526708E+03  0.25500000000E-02 0. -1.
         25    2    1    2    0    0 -0.21547220693E+02  0.86204888296E+01 -0.32847922934E+03  0.35222749070E+03  0.12500802193E+03 0.  0.
         23    2    1    2    0    0  0.21547220693E+02 -0.86204888296E+01 -0.28606534745E+03  0.30091846684E+03  0.90443049092E+02 0.  0.
        -11    1    4    4    0    0 -0.34613647852E+02 -0.51782418891E+01 -0.14214465934E+03  0.14638996887E+03  0.51100000000E-03 0.  1.
         11    1    4    4    0    0  0.56160868545E+02 -0.34422469405E+01 -0.14392068811E+03  0.15452849797E+03  0.51100000000E-03 0. -1.
    9000005    1    3    3    0    0 -0.70519157813E+02 -0.10105211349E+02 -0.22821847975E+03  0.23908103525E+03  0.10000000000E+01 0.  0.
    9000005    1    3    3    0    0  0.48971937120E+02  0.18725700179E+02 -0.10026074959E+03  0.11314645545E+03  0.10000000000E+01 0.  0.
<mgrwt>
<rscale>  0 0.11770026E+03</rscale>
<asrwt>0</asrwt>
<pdfrwt beam="2">  1        2 0.97514640E-01 0.12714402E+03</pdfrwt>
<pdfrwt beam="1">  1       -2 0.29693375E-02 0.12714402E+03</pdfrwt>
<totfact> 0.19118364E+04</totfact>
</mgrwt>
</event>
<event>
 8    2  0.8128359E-004  0.1678892E+03  0.7818608E-02  0.1185523E+00
         -2   -1    0    0    0  501 -0.00000000000E+00  0.00000000000E+00  0.14831660266E+02  0.14831660485E+02  0.25500000000E-02 0.  1.
          2   -1    0    0  501    0  0.00000000000E+00 -0.00000000000E+00 -0.16962690569E+04  0.16962690570E+04  0.25500000000E-02 0. -1.
         25    2    1    2    0    0 -0.10832725362E+03  0.28735043988E+02 -0.83338016784E+03  0.85012310552E+03  0.12500517493E+03 0.  0.
         23    2    1    2    0    0  0.10832725362E+03 -0.28735043988E+02 -0.84805722884E+03  0.86097761191E+03  0.97575038795E+02 0.  0.
        -11    1    4    4    0    0  0.30980145156E+02 -0.48295883551E+02 -0.52874702115E+03  0.53185117668E+03  0.51100000000E-03 0. -1.
         11    1    4    4    0    0  0.77347108468E+02  0.19560839563E+02 -0.31931020769E+03  0.32912643523E+03  0.51100000000E-03 0.  1.
    9000005    1    3    3    0    0 -0.31071452464E+02  0.72501864477E+02 -0.37110523181E+03  0.37939695384E+03  0.10000000000E+01 0.  0.
    9000005    1    3    3    0    0 -0.77255801161E+02 -0.43766820489E+02 -0.46227493604E+03  0.47072615168E+03  0.10000000000E+01 0.  0.
<mgrwt>
<rscale>  0 0.16284349E+03</rscale>
<asrwt>0</asrwt>
<pdfrwt beam="2">  1        2 0.26096432E+00 0.16788922E+03</pdfrwt>
<pdfrwt beam="1">  1       -2 0.22817952E-02 0.16788922E+03</pdfrwt>
<totfact> 0.67586779E+03</totfact>
</mgrwt>
</event>
<event>
 8    2  0.8128359E-004  0.1333166E+03  0.7818608E-02  0.1235409E+00
          2   -1    0    0  501    0  0.00000000000E+00  0.00000000000E+00  0.26650618957E+04  0.26650618957E+04  0.25500000000E-02 0. -1.
         -2   -1    0    0    0  501 -0.00000000000E+00 -0.00000000000E+00 -0.52806545020E+01  0.52806551177E+01  0.25500000000E-02 0.  1.
         25    2    1    2    0    0 -0.11947134828E+01  0.46344851550E+02  0.13478145061E+04  0.13543918431E+04  0.12499619679E+03 0.  0.
         23    2    1    2    0    0  0.11947134828E+01 -0.46344851550E+02  0.13119667351E+04  0.13159507077E+04  0.91215560744E+02 0.  0.
        -11    1    4    4    0    0 -0.14772650633E+02 -0.33119434023E+01  0.10419897123E+04  0.10420996884E+04  0.51100000000E-03 0. -1.
         11    1    4    4    0    0  0.15967364116E+02 -0.43032908148E+02  0.26997702288E+03  0.27385101932E+03  0.51100000000E-03 0.  1.
    9000005    1    3    3    0    0  0.37921605564E+02  0.31021908829E+02  0.11920982820E+04  0.11931050754E+04  0.10000000000E+01 0.  0.
    9000005    1    3    3    0    0 -0.39116319047E+02  0.15322942721E+02  0.15571622411E+03  0.16128676772E+03  0.10000000000E+01 0.  0.
<mgrwt>
<rscale>  0 0.12478266E+03</rscale>
<asrwt>0</asrwt>
<pdfrwt beam="1">  1        2 0.41000932E+00 0.13331662E+03</pdfrwt>
<pdfrwt beam="2">  1       -2 0.81240883E-03 0.13331662E+03</pdfrwt>
<totfact> 0.92953163E+03</totfact>
</mgrwt>
</event>
<event>
 8    2  0.8128359E-004  0.1375845E+03  0.7818608E-02  0.1228408E+00
          2   -1    0    0  501    0  0.00000000000E+00  0.00000000000E+00  0.58973824492E+03  0.58973824492E+03  0.25500000000E-02 0. -1.
         -2   -1    0    0    0  501 -0.00000000000E+00 -0.00000000000E+00 -0.25677433961E+02  0.25677434087E+02  0.25500000000E-02 0.  1.
         25    2    1    2    0    0 -0.34066096993E+02 -0.46303459335E+02  0.28872447659E+03  0.31983013393E+03  0.12499992752E+03 0.  0.
         23    2    1    2    0    0  0.34066096993E+02  0.46303459335E+02  0.27533633437E+03  0.29558554508E+03  0.90863678794E+02 0.  0.
        -11    1    4    4    0    0  0.28483492961E+02  0.33779252405E+02  0.39248511230E+02  0.59099855316E+02  0.51100000000E-03 0.  1.
         11    1    4    4    0    0  0.55826040315E+01  0.12524206930E+02  0.23608782314E+03  0.23648568976E+03  0.51100000000E-03 0. -1.
    9000005    1    3    3    0    0 -0.58659459379E+02 -0.57063563117E+02  0.27979944054E+03  0.29152342845E+03  0.10000000000E+01 0.  0.
    9000005    1    3    3    0    0  0.24593362386E+02  0.10760103782E+02  0.89250360502E+01  0.28306705483E+02  0.10000000000E+01 0.  0.
<mgrwt>
<rscale>  0 0.12936006E+03</rscale>
<asrwt>0</asrwt>
<pdfrwt beam="1">  1        2 0.90728957E-01 0.13758449E+03</pdfrwt>
<pdfrwt beam="2">  1       -2 0.39503746E-02 0.13758449E+03</pdfrwt>
<totfact> 0.13706762E+04</totfact>
</mgrwt>
</event>
<event>
 8    2  0.8128359E-004  0.1305512E+03  0.7818608E-02  0.1240784E+00
         -2   -1    0    0    0  501 -0.00000000000E+00  0.00000000000E+00  0.45436087230E+01  0.45436094386E+01  0.25500000000E-02 0. -1.
          2   -1    0    0  501    0  0.00000000000E+00 -0.00000000000E+00 -0.28662045473E+04  0.28662045473E+04  0.25500000000E-02 0.  1.
         25    2    1    2    0    0  0.13287232512E+02 -0.35238790666E+02 -0.16162723342E+04  0.16215362681E+04  0.12500115083E+03 0.  0.
         23    2    1    2    0    0 -0.13287232512E+02  0.35238790666E+02 -0.12453886044E+04  0.12492118886E+04  0.90106846400E+02 0.  0.
        -11    1    4    4    0    0  0.30435102659E+02 -0.63134695016E+01 -0.65816958253E+03  0.65890314518E+03  0.51100000000E-03 0.  1.
         11    1    4    4    0    0 -0.43722335170E+02  0.41552260168E+02 -0.58721902183E+03  0.59030874338E+03  0.51100000000E-03 0. -1.
    9000005    1    3    3    0    0 -0.43903813790E+02  0.19760426471E+02 -0.78852070217E+03  0.78998982086E+03  0.10000000000E+01 0.  0.
    9000005    1    3    3    0    0  0.57191046301E+02 -0.54999217138E+02 -0.82775163203E+03  0.83154644728E+03  0.10000000000E+01 0.  0.
<mgrwt>
<rscale>  0 0.12141303E+03</rscale>
<asrwt>0</asrwt>
<pdfrwt beam="2">  1        2 0.44095310E+00 0.13055118E+03</pdfrwt>
<pdfrwt beam="1">  1       -2 0.69901907E-03 0.13055118E+03</pdfrwt>
<totfact> 0.89032322E+03</totfact>
</mgrwt>
</event>
<event>
 8    2  0.8128359E-004  0.2074239E+03  0.7818608E-02  0.1144312E+00
         -2   -1    0    0    0  501 -0.00000000000E+00  0.00000000000E+00  0.11563097779E+03  0.11563097782E+03  0.25500000000E-02 0.  1.
          2   -1    0    0  501    0  0.00000000000E+00 -0.00000000000E+00 -0.49624164245E+03  0.49624164246E+03  0.25500000000E-02 0. -1.
         25    2    1    2    0    0  0.16533378004E+03 -0.80656135395E+01 -0.34744807361E+02  0.21031379827E+03  0.12499751662E+03 0.  0.
         23    2    1    2    0    0 -0.16533378004E+03  0.80656135395E+01 -0.34586585730E+03  0.40155882200E+03  0.11927272671E+03 0.  0.
        -11    1    4    4    0    0 -0.14839437035E+03  0.73969148388E+01 -0.35313102776E+03  0.38311503008E+03  0.51100000000E-03 0. -1.
         11    1    4    4    0    0 -0.16939409687E+02  0.66869870070E+00  0.72651704610E+01  0.18443791926E+02  0.51100000000E-03 0.  1.
    9000005    1    3    3    0    0  0.13751227935E+03  0.38876979835E+02  0.46868112625E+01  0.14298256094E+03  0.10000000000E+01 0.  0.
    9000005    1    3    3    0    0  0.27821500692E+02 -0.46942593374E+02 -0.39431618623E+02  0.67331237332E+02  0.10000000000E+01 0.  0.
<mgrwt>
<rscale>  0 0.20656899E+03</rscale>
<asrwt>0</asrwt>
<pdfrwt beam="2">  1        2 0.76344867E-01 0.20742394E+03</pdfrwt>
<pdfrwt beam="1">  1       -2 0.17789382E-01 0.20742394E+03</pdfrwt>
<totfact> 0.16048529E+03</totfact>
</mgrwt>
</event>
<event>
 8    2  0.8128359E-004  0.1364840E+03  0.7818608E-02  0.1230614E+00
         -2   -1    0    0    0  501 -0.00000000000E+00  0.00000000000E+00  0.50640553597E+02  0.50640553661E+02  0.25500000000E-02 0.  1.
          2   -1    0    0  501    0  0.00000000000E+00 -0.00000000000E+00 -0.29002174021E+03  0.29002174022E+03  0.25500000000E-02 0. -1.
         25    2    1    2    0    0 -0.10960612057E+02 -0.53700379427E+02 -0.12263013381E+03  0.18348303585E+03  0.12499603576E+03 0.  0.
         23    2    1    2    0    0  0.10960612057E+02  0.53700379427E+02 -0.11675105280E+03  0.15717925804E+03  0.89836768975E+02 0.  0.
        -11    1    4    4    0    0  0.44937251673E+02  0.37114087764E+02 -0.37314887374E+02  0.69204139460E+02  0.51100000000E-03 0.  1.
         11    1    4    4    0    0 -0.33976639616E+02  0.16586291664E+02 -0.79436165427E+02  0.87975118577E+02  0.51100000000E-03 0. -1.
    9000005    1    3    3    0    0 -0.51207001446E+02 -0.68728884039E+02 -0.10844785759E+03  0.13823080089E+03  0.10000000000E+01 0.  0.
    9000005    1    3    3    0    0  0.40246389390E+02  0.15028504612E+02 -0.14182276223E+02  0.45252234957E+02  0.10000000000E+01 0.  0.
<mgrwt>
<rscale>  0 0.12789448E+03</rscale>
<asrwt>0</asrwt>
<pdfrwt beam="2">  1        2 0.44618728E-01 0.13648397E+03</pdfrwt>
<pdfrwt beam="1">  1       -2 0.77908546E-02 0.13648397E+03</pdfrwt>
<totfact> 0.10570472E+04</totfact>
</mgrwt>
</event>
<event>
 8    2  0.8128359E-004  0.1319694E+03  0.7818608E-02  0.1237559E+00
          2   -1    0    0  501    0  0.00000000000E+00  0.00000000000E+00  0.53449826566E+02  0.53449826626E+02  0.25500000000E-02 0. -1.
         -2   -1    0    0    0  501 -0.00000000000E+00 -0.00000000000E+00 -0.29687656003E+03  0.29687656004E+03  0.25500000000E-02 0.  1.
         25    2    1    2    0    0 -0.40844173246E+02  0.11057513578E+02 -0.69318622984E+02  0.14906704407E+03  0.12500158815E+03 0.  0.
         23    2    1    2    0    0  0.40844173246E+02 -0.11057513578E+02 -0.17410811048E+03  0.20125934260E+03  0.91657917031E+02 0.  0.
        -11    1    4    4    0    0 -0.26483785652E+02 -0.11058499915E+02 -0.26682328397E+02  0.39187089351E+02  0.51100000000E-03 0.  1.
         11    1    4    4    0    0  0.67327958899E+02  0.98633651116E-03 -0.14742578208E+03  0.16207225325E+03  0.51100000000E-03 0. -1.
    9000005    1    3    3    0    0  0.23391731820E+01 -0.52714684891E+02 -0.15166196016E+02  0.54911958952E+02  0.10000000000E+01 0.  0.
    9000005    1    3    3    0    0 -0.43183346428E+02  0.63772198469E+02 -0.54152426969E+02  0.94155085115E+02  0.10000000000E+01 0.  0.
<mgrwt>
<rscale>  0 0.12342002E+03</rscale>
<asrwt>0</asrwt>
<pdfrwt beam="1">  1        2 0.82230505E-02 0.13196936E+03</pdfrwt>
<pdfrwt beam="2">  1       -2 0.45673316E-01 0.13196936E+03</pdfrwt>
<totfact> 0.36023206E+03</totfact>
</mgrwt>
</event>
<event>
 8    2  0.8128359E-004  0.1350733E+03  0.7818608E-02  0.1231592E+00
         -2   -1    0    0    0  501 -0.00000000000E+00  0.00000000000E+00  0.13222671235E+02  0.13222671481E+02  0.25500000000E-02 0. -1.
          2   -1    0    0  501    0  0.00000000000E+00 -0.00000000000E+00 -0.11149897525E+04  0.11149897525E+04  0.25500000000E-02 0.  1.
         25    2    1    2    0    0 -0.42834379801E+02  0.28013993416E+02 -0.55614314763E+03  0.57231110487E+03  0.12500092871E+03 0.  0.
         23    2    1    2    0    0  0.42834379801E+02 -0.28013993416E+02 -0.54562393359E+03  0.55590131907E+03  0.93280393017E+02 0.  0.
        -11    1    4    4    0    0 -0.67868050456E+01 -0.25354359460E+02 -0.41980623340E+03  0.42062593580E+03  0.51100000000E-03 0.  1.
         11    1    4    4    0    0  0.49621184846E+02 -0.26596339554E+01 -0.12581770019E+03  0.13527538328E+03  0.51100000000E-03 0. -1.
    9000005    1    3    3    0    0 -0.12210271300E+02 -0.49042423053E+02 -0.16958970978E+03  0.17696304599E+03  0.10000000000E+01 0.  0.
    9000005    1    3    3    0    0 -0.30624108500E+02  0.77056416469E+02 -0.38655343785E+03  0.39534805887E+03  0.10000000000E+01 0.  0.
<mgrwt>
<rscale>  0 0.12725118E+03</rscale>
<asrwt>0</asrwt>
<pdfrwt beam="2">  1        2 0.17153681E+00 0.13507331E+03</pdfrwt>
<pdfrwt beam="1">  1       -2 0.20342580E-02 0.13507331E+03</pdfrwt>
<totfact> 0.16189347E+04</totfact>
</mgrwt>
</event>
<event>
 8    2  0.8128359E-004  0.1563384E+03  0.7818608E-02  0.1201051E+00
         -2   -1    0    0    0  501 -0.00000000000E+00  0.00000000000E+00  0.54020831265E+02  0.54020831325E+02  0.25500000000E-02 0. -1.
          2   -1    0    0  501    0  0.00000000000E+00 -0.00000000000E+00 -0.38677391338E+03  0.38677391339E+03  0.25500000000E-02 0.  1.
         25    2    1    2    0    0 -0.14619701357E+02  0.92771379608E+02 -0.15568823879E+03  0.22063662558E+03  0.12498571242E+03 0.  0.
         23    2    1    2    0    0  0.14619701357E+02 -0.92771379608E+02 -0.17706484332E+03  0.22015811913E+03  0.91089923347E+02 0.  0.
        -11    1    4    4    0    0 -0.35266431918E+02 -0.38028871772E+02 -0.44643638282E+02  0.68432234713E+02  0.51100000000E-03 0.  1.
         11    1    4    4    0    0  0.49886133275E+02 -0.54742507836E+02 -0.13242120504E+03  0.15172588441E+03  0.51100000000E-03 0. -1.
    9000005    1    3    3    0    0  0.50699900194E+02  0.57064835124E+02 -0.49623774416E+02  0.91051602263E+02  0.10000000000E+01 0.  0.
    9000005    1    3    3    0    0 -0.65319601551E+02  0.35706544484E+02 -0.10606446438E+03  0.12958502332E+03  0.10000000000E+01 0.  0.
<mgrwt>
<rscale>  0 0.14953047E+03</rscale>
<asrwt>0</asrwt>
<pdfrwt beam="2">  1        2 0.59503677E-01 0.15633839E+03</pdfrwt>
<pdfrwt beam="1">  1       -2 0.83108974E-02 0.15633839E+03</pdfrwt>
<totfact> 0.71059584E+03</totfact>
</mgrwt>
</event>
<event>
 8    2  0.8128359E-004  0.1443203E+03  0.7818608E-02  0.1217789E+00
         -2   -1    0    0    0  501 -0.00000000000E+00  0.00000000000E+00  0.62495224989E+02  0.62495225041E+02  0.25500000000E-02 0.  1.
          2   -1    0    0  501    0  0.00000000000E+00 -0.00000000000E+00 -0.29171334449E+03  0.29171334450E+03  0.25500000000E-02 0. -1.
         25    2    1    2    0    0  0.65018473233E+02 -0.31262636297E+02 -0.79949950250E+02  0.16498586490E+03  0.12499434700E+03 0.  0.
         23    2    1    2    0    0 -0.65018473233E+02  0.31262636297E+02 -0.14926816925E+03  0.18922270464E+03  0.91211245532E+02 0.  0.
        -11    1    4    4    0    0 -0.24949897023E+02  0.50112821342E+02 -0.33413486265E+02  0.65193966661E+02  0.51100000000E-03 0.  1.
         11    1    4    4    0    0 -0.40068576210E+02 -0.18850185045E+02 -0.11585468299E+03  0.12402873798E+03  0.51100000000E-03 0. -1.
    9000005    1    3    3    0    0  0.61825506151E+02 -0.18653594233E+01  0.16562145774E+02  0.64040436048E+02  0.10000000000E+01 0.  0.
    9000005    1    3    3    0    0  0.31929670823E+01 -0.29397276874E+02 -0.96512096024E+02  0.10094542885E+03  0.10000000000E+01 0.  0.
<mgrwt>
<rscale>  0 0.13673656E+03</rscale>
<asrwt>0</asrwt>
<pdfrwt beam="2">  1        2 0.44878975E-01 0.14432027E+03</pdfrwt>
<pdfrwt beam="1">  1       -2 0.96146502E-02 0.14432027E+03</pdfrwt>
<totfact> 0.76051625E+03</totfact>
</mgrwt>
</event>
<event>
 8    2  0.8128359E-004  0.1333496E+03  0.7818608E-02  0.1235576E+00
          2   -1    0    0  501    0  0.00000000000E+00  0.00000000000E+00  0.77104691548E+03  0.77104691548E+03  0.25500000000E-02 0. -1.
         -2   -1    0    0    0  501 -0.00000000000E+00 -0.00000000000E+00 -0.18505541369E+02  0.18505541544E+02  0.25500000000E-02 0.  1.
         25    2    1    2    0    0 -0.41816701077E+02  0.20192975468E+02  0.49325926747E+03  0.51096656441E+03  0.12500292896E+03 0.  0.
         23    2    1    2    0    0  0.41816701077E+02 -0.20192975468E+02  0.25928210664E+03  0.27858589262E+03  0.90700033061E+02 0.  0.
        -11    1    4    4    0    0  0.39184635570E+02  0.21316867369E+02  0.20712929865E+03  0.21187824536E+03  0.51100000000E-03 0. -1.
         11    1    4    4    0    0  0.26320655061E+01 -0.41509842837E+02  0.52152807991E+02  0.66707647259E+02  0.51100000000E-03 0.  1.
    9000005    1    3    3    0    0  0.15275855219E+02 -0.15134289460E+02  0.11223846598E+02  0.24277009754E+02  0.10000000000E+01 0.  0.
    9000005    1    3    3    0    0 -0.57092556296E+02  0.35327264928E+02  0.48203542087E+03  0.48668955465E+03  0.10000000000E+01 0.  0.
<mgrwt>
<rscale>  0 0.12467623E+03</rscale>
<asrwt>0</asrwt>
<pdfrwt beam="1">  1        2 0.11862263E+00 0.13334963E+03</pdfrwt>
<pdfrwt beam="2">  1       -2 0.28470058E-02 0.13334963E+03</pdfrwt>
<totfact> 0.16180197E+04</totfact>
</mgrwt>
</event>
<event>
 8    2  0.8128359E-004  0.1570875E+03  0.7818608E-02  0.1200488E+00
         -2   -1    0    0    0  501 -0.00000000000E+00  0.00000000000E+00  0.52424034692E+02  0.52424034754E+02  0.25500000000E-02 0.  1.
          2   -1    0    0  501    0  0.00000000000E+00 -0.00000000000E+00 -0.71730498246E+03  0.71730498247E+03  0.25500000000E-02 0. -1.
         25    2    1    2    0    0 -0.94413254173E+02 -0.11777361180E+02 -0.60685826137E+03  0.62685997763E+03  0.12499565336E+03 0.  0.
         23    2    1    2    0    0  0.94413254173E+02  0.11777361180E+02 -0.58022686396E+02  0.14286903959E+03  0.89400008594E+02 0.  0.
        -11    1    4    4    0    0  0.46901404500E+02 -0.10180354208E+02 -0.73950062818E+02  0.88158908494E+02  0.51100000000E-03 0. -1.
         11    1    4    4    0    0  0.47511849673E+02  0.21957715388E+02  0.15927376422E+02  0.54710131095E+02  0.51100000000E-03 0.  1.
    9000005    1    3    3    0    0 -0.11801319596E+03 -0.10696129367E+02 -0.57556670467E+03  0.58763896495E+03  0.10000000000E+01 0.  0.
    9000005    1    3    3    0    0  0.23599941790E+02 -0.10812318135E+01 -0.31291556706E+02  0.39221012682E+02  0.10000000000E+01 0.  0.
<mgrwt>
<rscale>  0 0.14998769E+03</rscale>
<asrwt>0</asrwt>
<pdfrwt beam="2">  1        2 0.11035461E+00 0.15708750E+03</pdfrwt>
<pdfrwt beam="1">  1       -2 0.80652366E-02 0.15708750E+03</pdfrwt>
<totfact> 0.37247452E+03</totfact>
</mgrwt>
</event>
<event>
 8    2  0.8128359E-004  0.1673147E+03  0.7818608E-02  0.1187887E+00
          2   -1    0    0  501    0  0.00000000000E+00  0.00000000000E+00  0.47274538840E+03  0.47274538840E+03  0.25500000000E-02 0. -1.
         -2   -1    0    0    0  501 -0.00000000000E+00 -0.00000000000E+00 -0.57170560798E+02  0.57170560855E+02  0.25500000000E-02 0.  1.
         25    2    1    2    0    0 -0.63880315496E+02  0.91040807916E+02  0.13401090891E+03  0.21436683182E+03  0.12500036587E+03 0.  0.
         23    2    1    2    0    0  0.63880315496E+02 -0.91040807916E+02  0.28156391869E+03  0.31554911743E+03  0.89016188357E+02 0.  0.
        -11    1    4    4    0    0  0.77595828243E+02 -0.90885215236E+02  0.27597432595E+03  0.30073753257E+03  0.51100000000E-03 0. -1.
         11    1    4    4    0    0 -0.13715512747E+02 -0.15559268048E+00  0.55895927406E+01  0.14811584867E+02  0.51100000000E-03 0.  1.
    9000005    1    3    3    0    0 -0.20740625288E+02  0.29518151808E+01 -0.21799781385E+02  0.30250904427E+02  0.10000000000E+01 0.  0.
    9000005    1    3    3    0    0 -0.43139690208E+02  0.88088992736E+02  0.15581069029E+03  0.18411592740E+03  0.10000000000E+01 0.  0.
<mgrwt>
<rscale>  0 0.16071962E+03</rscale>
<asrwt>0</asrwt>
<pdfrwt beam="1">  1        2 0.72730063E-01 0.16731472E+03</pdfrwt>
<pdfrwt beam="2">  1       -2 0.87954706E-02 0.16731472E+03</pdfrwt>
<totfact> 0.52538354E+03</totfact>
</mgrwt>
</event>
<event>
 8    2  0.8128359E-004  0.1550163E+03  0.7818608E-02  0.1203087E+00
          2   -1    0    0  501    0  0.00000000000E+00  0.00000000000E+00  0.30383577762E+04  0.30383577762E+04  0.25500000000E-02 0. -1.
         -2   -1    0    0    0  501 -0.00000000000E+00 -0.00000000000E+00 -0.66394429180E+01  0.66394434077E+01  0.25500000000E-02 0.  1.
         25    2    1    2    0    0  0.13254927709E+02 -0.90713574443E+02  0.15572087422E+04  0.15649054666E+04  0.12500162700E+03 0.  0.
         23    2    1    2    0    0 -0.13254927709E+02  0.90713574443E+02  0.14745095911E+04  0.14800917531E+04  0.89935630241E+02 0.  0.
        -11    1    4    4    0    0 -0.49934091161E+02  0.38231189382E+02  0.61775674576E+03  0.62094962294E+03  0.51100000000E-03 0. -1.
         11    1    4    4    0    0  0.36679163452E+02  0.52482385061E+02  0.85675284536E+03  0.85914213015E+03  0.51100000000E-03 0.  1.
    9000005    1    3    3    0    0  0.25454022532E+02 -0.12010677996E+03  0.12795679237E+04  0.12854449103E+04  0.10000000000E+01 0.  0.
    9000005    1    3    3    0    0 -0.12199094823E+02  0.29393205515E+02  0.27764081846E+03  0.27946055629E+03  0.10000000000E+01 0.  0.
<mgrwt>
<rscale>  0 0.14789234E+03</rscale>
<asrwt>0</asrwt>
<pdfrwt beam="1">  1        2 0.46743944E+00 0.15501630E+03</pdfrwt>
<pdfrwt beam="2">  1       -2 0.10214533E-02 0.15501630E+03</pdfrwt>
<totfact> 0.41246734E+03</totfact>
</mgrwt>
</event>
<event>
 8    2  0.8128359E-004  0.1280539E+03  0.7818608E-02  0.1244026E+00
         -2   -1    0    0    0  501 -0.00000000000E+00  0.00000000000E+00  0.73896599199E+01  0.73896603599E+01  0.25500000000E-02 0.  1.
          2   -1    0    0  501    0  0.00000000000E+00 -0.00000000000E+00 -0.17301329760E+04  0.17301329760E+04  0.25500000000E-02 0. -1.
         25    2    1    2    0    0 -0.25291091896E+02  0.11548040553E+02 -0.89188057061E+03  0.90102649449E+03  0.12499917985E+03 0.  0.
         23    2    1    2    0    0  0.25291091896E+02 -0.11548040553E+02 -0.83086274551E+03  0.83649614191E+03  0.92843400386E+02 0.  0.
        -11    1    4    4    0    0  0.58677578039E+02 -0.39202665800E+01 -0.62959192961E+03  0.63233252683E+03  0.51100000000E-03 0. -1.
         11    1    4    4    0    0 -0.33386486143E+02 -0.76277739728E+01 -0.20127081590E+03  0.20416361509E+03  0.51100000000E-03 0.  1.
    9000005    1    3    3    0    0  0.72111004676E+01 -0.28220283572E+02 -0.74227713266E+03  0.74284906007E+03  0.10000000000E+01 0.  0.
    9000005    1    3    3    0    0 -0.32502192364E+02  0.39768324125E+02 -0.14960343795E+03  0.15817743442E+03  0.10000000000E+01 0.  0.
<mgrwt>
<rscale>  0 0.11943853E+03</rscale>
<asrwt>0</asrwt>
<pdfrwt beam="2">  1        2 0.26617398E+00 0.12805386E+03</pdfrwt>
<pdfrwt beam="1">  1       -2 0.11368722E-02 0.12805386E+03</pdfrwt>
<totfact> 0.17615323E+04</totfact>
</mgrwt>
</event>
<event>
 8    2  0.8128359E-004  0.1360875E+03  0.7818608E-02  0.1231707E+00
          2   -1    0    0  501    0  0.00000000000E+00  0.00000000000E+00  0.10495286303E+03  0.10495286306E+03  0.25500000000E-02 0. -1.
         -2   -1    0    0    0  501 -0.00000000000E+00 -0.00000000000E+00 -0.14305206947E+03  0.14305206949E+03  0.25500000000E-02 0.  1.
         25    2    1    2    0    0 -0.46664668767E+02 -0.26778161210E+02 -0.46649061650E+02  0.14386081709E+03  0.12500055405E+03 0.  0.
         23    2    1    2    0    0  0.46664668767E+02  0.26778161210E+02  0.85498552169E+01  0.10414411546E+03  0.88759425032E+02 0.  0.
        -11    1    4    4    0    0  0.45717959523E+02 -0.24931558640E+02  0.43437556419E+01  0.52254977299E+02  0.51100000000E-03 0. -1.
         11    1    4    4    0    0  0.94670924421E+00  0.51709719849E+02  0.42060995750E+01  0.51889138162E+02  0.51100000000E-03 0.  1.
    9000005    1    3    3    0    0 -0.81205938928E+02 -0.25404927776E+02  0.86054176909E+00  0.85097329010E+02  0.10000000000E+01 0.  0.
    9000005    1    3    3    0    0  0.34541270161E+02 -0.13732334336E+01 -0.47509603420E+02  0.58763488081E+02  0.10000000000E+01 0.  0.
<mgrwt>
<rscale>  0 0.12717600E+03</rscale>
<asrwt>0</asrwt>
<pdfrwt beam="1">  1        2 0.16146594E-01 0.13608747E+03</pdfrwt>
<pdfrwt beam="2">  1       -2 0.22008011E-01 0.13608747E+03</pdfrwt>
<totfact> 0.60331040E+03</totfact>
</mgrwt>
</event>
<event>
 8    2  0.8128359E-004  0.2844684E+03  0.7818608E-02  0.1095004E+00
         -2   -1    0    0    0  501 -0.00000000000E+00  0.00000000000E+00  0.92449348175E+02  0.92449348210E+02  0.25500000000E-02 0.  1.
          2   -1    0    0  501    0  0.00000000000E+00 -0.00000000000E+00 -0.10562488509E+04  0.10562488509E+04  0.25500000000E-02 0. -1.
         25    2    1    2    0    0 -0.16820693290E+02  0.25497615182E+03 -0.75225497623E+03  0.80424488570E+03  0.12500605261E+03 0.  0.
         23    2    1    2    0    0  0.16820693290E+02 -0.25497615182E+03 -0.21154452648E+03  0.34445331340E+03  0.92742787890E+02 0.  0.
        -11    1    4    4    0    0 -0.19903417928E+02 -0.13281033820E+03 -0.15451847785E+03  0.20472101010E+03  0.51100000000E-03 0. -1.
         11    1    4    4    0    0  0.36724111218E+02 -0.12216581362E+03 -0.57026048629E+02  0.13973230330E+03  0.51100000000E-03 0.  1.
    9000005    1    3    3    0    0  0.50518564666E+02  0.70507115240E+02 -0.26792064868E+03  0.28161294833E+03  0.10000000000E+01 0.  0.
    9000005    1    3    3    0    0 -0.67339257956E+02  0.18446903658E+03 -0.48433432754E+03  0.52263193737E+03  0.10000000000E+01 0.  0.
<mgrwt>
<rscale>  0 0.28125737E+03</rscale>
<asrwt>0</asrwt>
<pdfrwt beam="2">  1        2 0.16249982E+00 0.28446843E+03</pdfrwt>
<pdfrwt beam="1">  1       -2 0.14222977E-01 0.28446843E+03</pdfrwt>
<totfact> 0.90877306E+02</totfact>
</mgrwt>
</event>
<event>
 8    2  0.8128359E-004  0.1979758E+03  0.7818608E-02  0.1155828E+00
          2   -1    0    0  501    0  0.00000000000E+00  0.00000000000E+00  0.10226963786E+04  0.10226963786E+04  0.25500000000E-02 0. -1.
         -2   -1    0    0    0  501 -0.00000000000E+00 -0.00000000000E+00 -0.38518213499E+02  0.38518213583E+02  0.25500000000E-02 0.  1.
         25    2    1    2    0    0  0.10579130113E+03  0.11130637758E+03  0.68236767638E+03  0.71050691371E+03  0.12495406983E+03 0.  0.
         23    2    1    2    0    0 -0.10579130113E+03 -0.11130637758E+03  0.30181048873E+03  0.35070767849E+03  0.91243605580E+02 0.  0.
        -11    1    4    4    0    0 -0.10760116851E+03 -0.11847156637E+03  0.30351343099E+03  0.34312377693E+03  0.51100000000E-03 0. -1.
         11    1    4    4    0    0  0.18098673848E+01  0.71651887830E+01 -0.17029422620E+01  0.75839015589E+01  0.51100000000E-03 0.  1.
    9000005    1    3    3    0    0  0.29965934211E+02  0.88431617628E+01  0.22690641723E+02  0.38626725785E+02  0.10000000000E+01 0.  0.
    9000005    1    3    3    0    0  0.75825366918E+02  0.10246321582E+03  0.65967703466E+03  0.67188018792E+03  0.10000000000E+01 0.  0.
<mgrwt>
<rscale>  0 0.19294951E+03</rscale>
<asrwt>0</asrwt>
<pdfrwt beam="1">  1        2 0.15733788E+00 0.19797583E+03</pdfrwt>
<pdfrwt beam="2">  1       -2 0.59258800E-02 0.19797583E+03</pdfrwt>
<totfact> 0.38032188E+03</totfact>
</mgrwt>
</event>
<event>
 8    2  0.8128359E-004  0.1255831E+03  0.7818608E-02  0.1248642E+00
          2   -1    0    0  501    0  0.00000000000E+00  0.00000000000E+00  0.55761070411E+03  0.55761070411E+03  0.25500000000E-02 0. -1.
         -2   -1    0    0    0  501 -0.00000000000E+00 -0.00000000000E+00 -0.22067704054E+02  0.22067704201E+02  0.25500000000E-02 0.  1.
         25    2    1    2    0    0  0.12163080885E+02 -0.17369822099E+00  0.26184587314E+03  0.29040382896E+03  0.12499260734E+03 0.  0.
         23    2    1    2    0    0 -0.12163080885E+02  0.17369822099E+00  0.27369712692E+03  0.28927457935E+03  0.92853078939E+02 0.  0.
        -11    1    4    4    0    0  0.35391459571E-01 -0.12054622005E+02  0.27160908659E+03  0.27187646291E+03  0.51100000000E-03 0. -1.
         11    1    4    4    0    0 -0.12198472345E+02  0.12228320226E+02  0.20880403255E+01  0.17398116443E+02  0.51100000000E-03 0.  1.
    9000005    1    3    3    0    0  0.11539113030E+02  0.33406500406E+02  0.25326961581E+03  0.25572571965E+03  0.10000000000E+01 0.  0.
    9000005    1    3    3    0    0  0.62396785532E+00 -0.33580198627E+02  0.85762573277E+01  0.34678109312E+02  0.10000000000E+01 0.  0.
<mgrwt>
<rscale>  0 0.11670013E+03</rscale>
<asrwt>0</asrwt>
<pdfrwt beam="1">  1        2 0.85786259E-01 0.12558313E+03</pdfrwt>
<pdfrwt beam="2">  1       -2 0.33950315E-02 0.12558313E+03</pdfrwt>
<totfact> 0.18133792E+04</totfact>
</mgrwt>
</event>
<event>
 8    2  0.8128359E-004  0.1257451E+03  0.7818608E-02  0.1249143E+00
          2   -1    0    0  501    0  0.00000000000E+00  0.00000000000E+00  0.11665300247E+03  0.11665300250E+03  0.25500000000E-02 0. -1.
         -2   -1    0    0    0  501 -0.00000000000E+00 -0.00000000000E+00 -0.10264456417E+03  0.10264456421E+03  0.25500000000E-02 0.  1.
         25    2    1    2    0    0 -0.13034185046E+02  0.39476933761E+01 -0.89620911068E+00  0.12574830775E+03  0.12500543767E+03 0.  0.
         23    2    1    2    0    0  0.13034185046E+02 -0.39476933761E+01  0.14904647412E+02  0.93549258963E+02  0.91344628059E+02 0.  0.
        -11    1    4    4    0    0 -0.65381460788E+01 -0.94102588789E+01 -0.36509357388E+02  0.38265304173E+02  0.51100000000E-03 0.  1.
         11    1    4    4    0    0  0.19572331125E+02  0.54625655027E+01  0.51414004799E+02  0.55283954791E+02  0.51100000000E-03 0. -1.
    9000005    1    3    3    0    0  0.10495796911E+02  0.60061362471E+02 -0.16005135484E+02  0.63045169336E+02  0.10000000000E+01 0.  0.
    9000005    1    3    3    0    0 -0.23529981957E+02 -0.56113669095E+02  0.15108926374E+02  0.62703138409E+02  0.10000000000E+01 0.  0.
<mgrwt>
<rscale>  0 0.11640794E+03</rscale>
<asrwt>0</asrwt>
<pdfrwt beam="1">  1        2 0.17946616E-01 0.12574511E+03</pdfrwt>
<pdfrwt beam="2">  1       -2 0.15791471E-01 0.12574511E+03</pdfrwt>
<totfact> 0.92606664E+03</totfact>
</mgrwt>
</event>
<event>
 8    2  0.8128359E-004  0.1288383E+03  0.7818608E-02  0.1242790E+00
          2   -1    0    0  501    0  0.00000000000E+00  0.00000000000E+00  0.15635596070E+02  0.15635596278E+02  0.25500000000E-02 0. -1.
         -2   -1    0    0    0  501 -0.00000000000E+00 -0.00000000000E+00 -0.84119942413E+03  0.84119942413E+03  0.25500000000E-02 0.  1.
         25    2    1    2    0    0 -0.24390229471E+02  0.19457509975E+02 -0.40027230786E+03  0.42049640252E+03  0.12500330438E+03 0.  0.
         23    2    1    2    0    0  0.24390229471E+02 -0.19457509975E+02 -0.42529152020E+03  0.43633861789E+03  0.92439354819E+02 0.  0.
        -11    1    4    4    0    0  0.11006546699E+02 -0.56783805686E+02 -0.26031827714E+03  0.26666673972E+03  0.51100000000E-03 0.  1.
         11    1    4    4    0    0  0.13383682772E+02  0.37326295712E+02 -0.16497324306E+03  0.16967187817E+03  0.51100000000E-03 0. -1.
    9000005    1    3    3    0    0 -0.21536732294E+02  0.64286343933E+02 -0.33138996893E+03  0.33825563759E+03  0.10000000000E+01 0.  0.
    9000005    1    3    3    0    0 -0.28534971770E+01 -0.44828833958E+02 -0.68882338931E+02  0.82240764933E+02  0.10000000000E+01 0.  0.
<mgrwt>
<rscale>  0 0.12018627E+03</rscale>
<asrwt>0</asrwt>
<pdfrwt beam="1">  1        2 0.24054770E-02 0.12883829E+03</pdfrwt>
<pdfrwt beam="2">  1       -2 0.12941526E+00 0.12883829E+03</pdfrwt>
<totfact> 0.18682278E+03</totfact>
</mgrwt>
</event>
<event>
 8    2  0.8128359E-004  0.1628244E+03  0.7818608E-02  0.1192729E+00
         -2   -1    0    0    0  501 -0.00000000000E+00  0.00000000000E+00  0.11364279998E+03  0.11364280001E+03  0.25500000000E-02 0. -1.
          2   -1    0    0  501    0  0.00000000000E+00 -0.00000000000E+00 -0.20272826787E+03  0.20272826789E+03  0.25500000000E-02 0.  1.
         25    2    1    2    0    0  0.90505475225E+02 -0.51917086900E+02 -0.30641110835E+02  0.16568245202E+03  0.12500068910E+03 0.  0.
         23    2    1    2    0    0 -0.90505475225E+02  0.51917086900E+02 -0.58444357058E+02  0.15068861588E+03  0.91677102511E+02 0.  0.
        -11    1    4    4    0    0  0.85802960972E+01  0.31087816904E+02 -0.33310198252E+02  0.46364244292E+02  0.51100000000E-03 0.  1.
         11    1    4    4    0    0 -0.99085771323E+02  0.20829269996E+02 -0.25134158806E+02  0.10432437158E+03  0.51100000000E-03 0. -1.
    9000005    1    3    3    0    0  0.80444775815E+02  0.92279196166E+00 -0.63628557401E+02  0.10257585885E+03  0.10000000000E+01 0.  0.
    9000005    1    3    3    0    0  0.10060699410E+02 -0.52839878861E+02  0.32987446566E+02  0.63106593171E+02  0.10000000000E+01 0.  0.
<mgrwt>
<rscale>  0 0.15648039E+03</rscale>
<asrwt>0</asrwt>
<pdfrwt beam="2">  1        2 0.31188964E-01 0.16282444E+03</pdfrwt>
<pdfrwt beam="1">  1       -2 0.17483508E-01 0.16282444E+03</pdfrwt>
<totfact> 0.43064389E+03</totfact>
</mgrwt>
</event>
<event>
 8    2  0.8128359E-004  0.1373950E+03  0.7818608E-02  0.1228584E+00
          2   -1    0    0  501    0  0.00000000000E+00  0.00000000000E+00  0.76440114025E+02  0.76440114067E+02  0.25500000000E-02 0. -1.
         -2   -1    0    0    0  501 -0.00000000000E+00 -0.00000000000E+00 -0.19771650451E+03  0.19771650453E+03  0.25500000000E-02 0.  1.
         25    2    1    2    0    0  0.54829746363E+02  0.15639555054E+02 -0.56300483584E+02  0.14848274111E+03  0.12500593261E+03 0.  0.
         23    2    1    2    0    0 -0.54829746363E+02 -0.15639555054E+02 -0.64975906903E+02  0.12567387748E+03  0.91220382784E+02 0.  0.
        -11    1    4    4    0    0 -0.83812952130E+00 -0.45657060886E+02 -0.24531145178E+02  0.51836731704E+02  0.51100000000E-03 0. -1.
         11    1    4    4    0    0 -0.53991616842E+02  0.30017505831E+02 -0.40444761725E+02  0.73837145779E+02  0.51100000000E-03 0.  1.
    9000005    1    3    3    0    0  0.78920333314E+02  0.82627444312E+01 -0.80851426335E+02  0.11329009267E+03  0.10000000000E+01 0.  0.
    9000005    1    3    3    0    0 -0.24090586951E+02  0.73768106232E+01  0.24550942751E+02  0.35192648445E+02  0.10000000000E+01 0.  0.
<mgrwt>
<rscale>  0 0.12924223E+03</rscale>
<asrwt>0</asrwt>
<pdfrwt beam="1">  1        2 0.11760018E-01 0.13739498E+03</pdfrwt>
<pdfrwt beam="2">  1       -2 0.30417924E-01 0.13739498E+03</pdfrwt>
<totfact> 0.49745851E+03</totfact>
</mgrwt>
</event>
<event>
 8    2  0.8128359E-004  0.1702831E+03  0.7818608E-02  0.1184022E+00
          2   -1    0    0  501    0  0.00000000000E+00  0.00000000000E+00  0.34883204789E+03  0.34883204790E+03  0.25500000000E-02 0. -1.
         -2   -1    0    0    0  501 -0.00000000000E+00 -0.00000000000E+00 -0.76046035334E+02  0.76046035377E+02  0.25500000000E-02 0.  1.
         25    2    1    2    0    0  0.11490394489E+03 -0.12975858742E+02  0.19302459414E+03  0.25740010181E+03  0.12500011604E+03 0.  0.
         23    2    1    2    0    0 -0.11490394489E+03  0.12975858742E+02  0.79761418418E+02  0.16747798147E+03  0.91190465222E+02 0.  0.
        -11    1    4    4    0    0 -0.34160012867E+02 -0.50115942326E+01 -0.18388307825E+02  0.39117162739E+02  0.51100000000E-03 0.  1.
         11    1    4    4    0    0 -0.80743932019E+02  0.17987452974E+02  0.98149726243E+02  0.12836081873E+03  0.51100000000E-03 0. -1.
    9000005    1    3    3    0    0  0.72804627807E+02  0.29244458826E+01  0.19906523319E+03  0.21198356842E+03  0.10000000000E+01 0.  0.
    9000005    1    3    3    0    0  0.42099317079E+02 -0.15900304624E+02 -0.60406390484E+01  0.45416533396E+02  0.10000000000E+01 0.  0.
<mgrwt>
<rscale>  0 0.16421147E+03</rscale>
<asrwt>0</asrwt>
<pdfrwt beam="1">  1        2 0.53666468E-01 0.17028305E+03</pdfrwt>
<pdfrwt beam="2">  1       -2 0.11699390E-01 0.17028305E+03</pdfrwt>
<totfact> 0.46503304E+03</totfact>
</mgrwt>
</event>
<event>
 8    2  0.8128359E-004  0.1256470E+03  0.7818608E-02  0.1250051E+00
          2   -1    0    0  501    0  0.00000000000E+00  0.00000000000E+00  0.74920304770E+03  0.74920304771E+03  0.25500000000E-02 0. -1.
         -2   -1    0    0    0  501 -0.00000000000E+00 -0.00000000000E+00 -0.26402689318E+02  0.26402689441E+02  0.25500000000E-02 0.  1.
         25    2    1    2    0    0 -0.49701861545E+01 -0.11705288804E+02  0.15015594880E+03  0.19579065391E+03  0.12500181863E+03 0.  0.
         23    2    1    2    0    0  0.49701861545E+01  0.11705288804E+02  0.57264440959E+03  0.57981508324E+03  0.90012190205E+02 0.  0.
        -11    1    4    4    0    0 -0.72346443988E+01 -0.34837648561E+02  0.13791059519E+03  0.14242659198E+03  0.51100000000E-03 0.  1.
         11    1    4    4    0    0  0.12204830553E+02  0.46542937365E+02  0.43473381440E+03  0.43738849126E+03  0.51100000000E-03 0. -1.
    9000005    1    3    3    0    0  0.43550544823E+01  0.31925950810E+02  0.14761113509E+03  0.15109030424E+03  0.10000000000E+01 0.  0.
    9000005    1    3    3    0    0 -0.93252406368E+01 -0.43631239614E+02  0.25448137082E+01  0.44700349663E+02  0.10000000000E+01 0.  0.
<mgrwt>
<rscale>  0 0.11588102E+03</rscale>
<asrwt>0</asrwt>
<pdfrwt beam="1">  1        2 0.11526200E+00 0.12564701E+03</pdfrwt>
<pdfrwt beam="2">  1       -2 0.40619526E-02 0.12564701E+03</pdfrwt>
<totfact> 0.98799756E+03</totfact>
</mgrwt>
</event>
<event>
 8    2  0.8128359E-004  0.2972870E+03  0.7818608E-02  0.1088248E+00
          2   -1    0    0  501    0  0.00000000000E+00  0.00000000000E+00  0.59759415793E+03  0.59759415794E+03  0.25500000000E-02 0. -1.
         -2   -1    0    0    0  501 -0.00000000000E+00 -0.00000000000E+00 -0.16151244054E+03  0.16151244056E+03  0.25500000000E-02 0.  1.
         25    2    1    2    0    0  0.76058035842E+02  0.25878502677E+03  0.89114161117E+02  0.31035606673E+03  0.12500015818E+03 0.  0.
         23    2    1    2    0    0 -0.76058035842E+02 -0.25878502677E+03  0.34696755628E+03  0.44875053177E+03  0.90752629474E+02 0.  0.
        -11    1    4    4    0    0 -0.47322102376E+02 -0.14316643617E+03  0.12111956967E+03  0.19340620460E+03  0.51100000000E-03 0. -1.
         11    1    4    4    0    0 -0.28735933466E+02 -0.11561859060E+03  0.22584798661E+03  0.25534432717E+03  0.51100000000E-03 0.  1.
    9000005    1    3    3    0    0  0.74566229217E+02  0.53012713352E+02  0.26190977534E+02  0.95170571191E+02  0.10000000000E+01 0.  0.
    9000005    1    3    3    0    0  0.14918066251E+01  0.20577231342E+03  0.62923183583E+02  0.21518549553E+03  0.10000000000E+01 0.  0.
<mgrwt>
<rscale>  0 0.29406018E+03</rscale>
<asrwt>0</asrwt>
<pdfrwt beam="1">  1        2 0.91937562E-01 0.29728699E+03</pdfrwt>
<pdfrwt beam="2">  1       -2 0.24848068E-01 0.29728699E+03</pdfrwt>
<totfact> 0.73073881E+02</totfact>
</mgrwt>
</event>
<event>
 8    2  0.8128359E-004  0.1639911E+03  0.7818608E-02  0.1187341E+00
         -2   -1    0    0    0  501 -0.00000000000E+00  0.00000000000E+00  0.82399769529E+02  0.82399769569E+02  0.25500000000E-02 0. -1.
          2   -1    0    0  501    0  0.00000000000E+00 -0.00000000000E+00 -0.33503238168E+03  0.33503238169E+03  0.25500000000E-02 0.  1.
         25    2    1    2    0    0  0.37701100230E+02 -0.99231421149E+02 -0.19258609243E+03  0.25294759954E+03  0.12499934885E+03 0.  0.
         23    2    1    2    0    0 -0.37701100230E+02  0.99231421149E+02 -0.60046519727E+02  0.16448455173E+03  0.11036908681E+03 0.  0.
        -11    1    4    4    0    0  0.13283607116E+02  0.10050000788E+03 -0.47568594211E+02  0.11197980603E+03  0.51100000000E-03 0. -1.
         11    1    4    4    0    0 -0.50984707346E+02 -0.12685867349E+01 -0.12477925516E+02  0.52504745699E+02  0.51100000000E-03 0.  1.
    9000005    1    3    3    0    0  0.28144915301E+02  0.17843732656E+02 -0.93510908098E+02  0.99276507723E+02  0.10000000000E+01 0.  0.
    9000005    1    3    3    0    0  0.95561849289E+01 -0.11707515380E+03 -0.99075184330E+02  0.15367109181E+03  0.10000000000E+01 0.  0.
<mgrwt>
<rscale>  0 0.16120634E+03</rscale>
<asrwt>0</asrwt>
<pdfrwt beam="2">  1        2 0.51543443E-01 0.16399111E+03</pdfrwt>
<pdfrwt beam="1">  1       -2 0.12676888E-01 0.16399111E+03</pdfrwt>
<totfact> 0.42602984E+03</totfact>
</mgrwt>
</event>
<event>
 8    2  0.8128359E-004  0.1478939E+03  0.7818608E-02  0.1212819E+00
         -2   -1    0    0    0  501 -0.00000000000E+00  0.00000000000E+00  0.58228910895E+01  0.58228916479E+01  0.25500000000E-02 0.  1.
          2   -1    0    0  501    0  0.00000000000E+00 -0.00000000000E+00 -0.32090331259E+04  0.32090331259E+04  0.25500000000E-02 0. -1.
         25    2    1    2    0    0  0.50363678809E+02 -0.60925818248E+02 -0.14438503365E+04  0.14514049730E+04  0.12499658438E+03 0.  0.
         23    2    1    2    0    0 -0.50363678809E+02  0.60925818248E+02 -0.17593598984E+04  0.17634510446E+04  0.90354186922E+02 0.  0.
        -11    1    4    4    0    0 -0.16941991031E+02  0.49472974182E+02 -0.15670853430E+04  0.15679576138E+04  0.51100000000E-03 0. -1.
         11    1    4    4    0    0 -0.33421687778E+02  0.11452844065E+02 -0.19227455533E+03  0.19549343078E+03  0.51100000000E-03 0.  1.
    9000005    1    3    3    0    0 -0.13942294037E+02 -0.76551663316E+02 -0.61234236307E+03  0.61726713369E+03  0.10000000000E+01 0.  0.
    9000005    1    3    3    0    0  0.64305972846E+02  0.15625845068E+02 -0.83150797339E+03  0.83413783932E+03  0.10000000000E+01 0.  0.
<mgrwt>
<rscale>  0 0.14037975E+03</rscale>
<asrwt>0</asrwt>
<pdfrwt beam="2">  1        2 0.49369599E+00 0.14789389E+03</pdfrwt>
<pdfrwt beam="1">  1       -2 0.89583201E-03 0.14789389E+03</pdfrwt>
<totfact> 0.39424985E+03</totfact>
</mgrwt>
</event>
<event>
 8    2  0.8128359E-004  0.1407138E+03  0.7818608E-02  0.1218020E+00
         -2   -1    0    0    0  501 -0.00000000000E+00  0.00000000000E+00  0.85622216311E+02  0.85622216348E+02  0.25500000000E-02 0.  1.
          2   -1    0    0  501    0  0.00000000000E+00 -0.00000000000E+00 -0.21249394076E+03  0.21249394078E+03  0.25500000000E-02 0. -1.
         25    2    1    2    0    0 -0.61436292942E+02 -0.20023153600E+02 -0.93266674571E+02  0.16881656441E+03  0.12500006025E+03 0.  0.
         23    2    1    2    0    0  0.61436292942E+02  0.20023153600E+02 -0.33605049879E+02  0.12929959271E+03  0.10683510906E+03 0.  0.
        -11    1    4    4    0    0  0.80193290149E+02 -0.97193141769E+01 -0.17331021003E+00  0.80780312513E+02  0.51100000000E-03 0.  1.
         11    1    4    4    0    0 -0.18756997207E+02  0.29742467777E+02 -0.33431739669E+02  0.48519280201E+02  0.51100000000E-03 0. -1.
    9000005    1    3    3    0    0 -0.88955662603E+02  0.14560348892E+02 -0.84885822243E+02  0.12382130869E+03  0.10000000000E+01 0.  0.
    9000005    1    3    3    0    0  0.27519369660E+02 -0.34583502492E+02 -0.83808523275E+01  0.44995255715E+02  0.10000000000E+01 0.  0.
<mgrwt>
<rscale>  0 0.13656990E+03</rscale>
<asrwt>0</asrwt>
<pdfrwt beam="2">  1        2 0.32691375E-01 0.14071375E+03</pdfrwt>
<pdfrwt beam="1">  1       -2 0.13172649E-01 0.14071375E+03</pdfrwt>
<totfact> 0.64558429E+03</totfact>
</mgrwt>
</event>
<event>
 8    2  0.8128359E-004  0.1595257E+03  0.7818608E-02  0.1196290E+00
          2   -1    0    0  501    0  0.00000000000E+00  0.00000000000E+00  0.70956551844E+02  0.70956551889E+02  0.25500000000E-02 0. -1.
         -2   -1    0    0    0  501 -0.00000000000E+00 -0.00000000000E+00 -0.31697925321E+03  0.31697925322E+03  0.25500000000E-02 0.  1.
         25    2    1    2    0    0 -0.93030625919E+02 -0.34191291232E+02 -0.10150979540E+03  0.18908381184E+03  0.12499883032E+03 0.  0.
         23    2    1    2    0    0  0.93030625919E+02  0.34191291232E+02 -0.14451290597E+03  0.19885199327E+03  0.93991454304E+02 0.  0.
        -11    1    4    4    0    0  0.71667560774E+02 -0.13640291865E+02 -0.12131171651E+03  0.14155857230E+03  0.51100000000E-03 0.  1.
         11    1    4    4    0    0  0.21363065145E+02  0.47831583097E+02 -0.23201189458E+02  0.57293420970E+02  0.51100000000E-03 0. -1.
    9000005    1    3    3    0    0 -0.16396453984E+02 -0.52581383417E+02  0.63971770958E+01  0.55457816943E+02  0.10000000000E+01 0.  0.
    9000005    1    3    3    0    0 -0.76634171935E+02  0.18390092185E+02 -0.10790697250E+03  0.13362599490E+03  0.10000000000E+01 0.  0.
<mgrwt>
<rscale>  0 0.15345517E+03</rscale>
<asrwt>0</asrwt>
<pdfrwt beam="1">  1        2 0.10916393E-01 0.15952570E+03</pdfrwt>
<pdfrwt beam="2">  1       -2 0.48766038E-01 0.15952570E+03</pdfrwt>
<totfact> 0.22572114E+03</totfact>
</mgrwt>
</event>
<event>
 8    2  0.8128359E-004  0.1440115E+03  0.7818608E-02  0.1219061E+00
         -2   -1    0    0    0  501 -0.00000000000E+00  0.00000000000E+00  0.19185449313E+02  0.19185449482E+02  0.25500000000E-02 0.  1.
          2   -1    0    0  501    0  0.00000000000E+00 -0.00000000000E+00 -0.90719757467E+03  0.90719757467E+03  0.25500000000E-02 0. -1.
         25    2    1    2    0    0 -0.18225919109E+02 -0.69168595344E+02 -0.39674595682E+03  0.42207423818E+03  0.12499131800E+03 0.  0.
         23    2    1    2    0    0  0.18225919109E+02  0.69168595344E+02 -0.49126616854E+03  0.50430878597E+03  0.88704140543E+02 0.  0.
        -11    1    4    4    0    0  0.31370123060E+02  0.84676895718E+02 -0.34436964488E+03  0.35601223799E+03  0.51100000000E-03 0. -1.
         11    1    4    4    0    0 -0.13144203951E+02 -0.15508300374E+02 -0.14689652366E+03  0.14829654798E+03  0.51100000000E-03 0.  1.
    9000005    1    3    3    0    0  0.16777568307E+02 -0.78020631386E+02 -0.12752006766E+03  0.15043627680E+03  0.10000000000E+01 0.  0.
    9000005    1    3    3    0    0 -0.35003487416E+02  0.88520360426E+01 -0.26922588915E+03  0.27163796138E+03  0.10000000000E+01 0.  0.
<mgrwt>
<rscale>  0 0.13582437E+03</rscale>
<asrwt>0</asrwt>
<pdfrwt beam="2">  1        2 0.13956882E+00 0.14401149E+03</pdfrwt>
<pdfrwt beam="1">  1       -2 0.29516083E-02 0.14401149E+03</pdfrwt>
<totfact> 0.12550716E+04</totfact>
</mgrwt>
</event>
<event>
 8    2  0.8128359E-004  0.1656663E+03  0.7818608E-02  0.1188775E+00
         -2   -1    0    0    0  501 -0.00000000000E+00  0.00000000000E+00  0.17001394158E+02  0.17001394349E+02  0.25500000000E-02 0.  1.
          2   -1    0    0  501    0  0.00000000000E+00 -0.00000000000E+00 -0.25888706499E+04  0.25888706499E+04  0.25500000000E-02 0. -1.
         25    2    1    2    0    0 -0.33980612006E+02  0.10327692972E+03 -0.22135631031E+04  0.22197538036E+04  0.12499812456E+03 0.  0.
         23    2    1    2    0    0  0.33980612006E+02 -0.10327692972E+03 -0.35830615262E+03  0.38611824059E+03  0.94250679093E+02 0.  0.
        -11    1    4    4    0    0  0.58200783569E+02 -0.36740341940E+02 -0.13016814250E+03  0.14724445408E+03  0.51100000000E-03 0.  1.
         11    1    4    4    0    0 -0.24220171563E+02 -0.66536587777E+02 -0.22813801012E+03  0.23887378652E+03  0.51100000000E-03 0. -1.
    9000005    1    3    3    0    0 -0.28971215287E+02 -0.20692891463E+02 -0.28737123901E+03  0.28956995024E+03  0.10000000000E+01 0.  0.
    9000005    1    3    3    0    0 -0.50093967182E+01  0.12396982118E+03 -0.19261918641E+04  0.19301838534E+04  0.10000000000E+01 0.  0.
<mgrwt>
<rscale>  0 0.15993094E+03</rscale>
<asrwt>0</asrwt>
<pdfrwt beam="2">  1        2 0.39828748E+00 0.16566634E+03</pdfrwt>
<pdfrwt beam="1">  1       -2 0.26156012E-02 0.16566634E+03</pdfrwt>
<totfact> 0.18856069E+03</totfact>
</mgrwt>
</event>
<event>
 8    2  0.8128359E-004  0.1432947E+03  0.7818608E-02  0.1219173E+00
          2   -1    0    0  501    0  0.00000000000E+00  0.00000000000E+00  0.74398997663E+03  0.74398997663E+03  0.25500000000E-02 0. -1.
         -2   -1    0    0    0  501 -0.00000000000E+00 -0.00000000000E+00 -0.24410881912E+02  0.24410882045E+02  0.25500000000E-02 0.  1.
         25    2    1    2    0    0  0.16971564230E+02 -0.67976333262E+02  0.50280559600E+03  0.52282581598E+03  0.12499820240E+03 0.  0.
         23    2    1    2    0    0 -0.16971564230E+02  0.67976333262E+02  0.21677349871E+03  0.24557504270E+03  0.91692616809E+02 0.  0.
        -11    1    4    4    0    0  0.99870479986E+01 -0.18165206879E+02  0.18753548448E+02  0.27953737645E+02  0.51100000000E-03 0.  1.
         11    1    4    4    0    0 -0.26958612228E+02  0.86141540141E+02  0.19801995027E+03  0.21762130506E+03  0.51100000000E-03 0. -1.
    9000005    1    3    3    0    0 -0.17218988879E+02 -0.95491915402E+02  0.38696522024E+03  0.39894646403E+03  0.10000000000E+01 0.  0.
    9000005    1    3    3    0    0  0.34190553109E+02  0.27515582140E+02  0.11584037576E+03  0.12387935194E+03  0.10000000000E+01 0.  0.
<mgrwt>
<rscale>  0 0.13574402E+03</rscale>
<asrwt>0</asrwt>
<pdfrwt beam="1">  1        2 0.11445998E+00 0.14329468E+03</pdfrwt>
<pdfrwt beam="2">  1       -2 0.37555208E-02 0.14329468E+03</pdfrwt>
<totfact> 0.11287875E+04</totfact>
</mgrwt>
</event>
<event>
 8    2  0.8128359E-004  0.1393326E+03  0.7818608E-02  0.1225949E+00
         -2   -1    0    0    0  501 -0.00000000000E+00  0.00000000000E+00  0.11248717690E+02  0.11248717979E+02  0.25500000000E-02 0. -1.
          2   -1    0    0  501    0  0.00000000000E+00 -0.00000000000E+00 -0.14024181337E+04  0.14024181337E+04  0.25500000000E-02 0.  1.
         25    2    1    2    0    0  0.45994280474E+02  0.40916063421E+02 -0.88552201644E+03  0.89641665418E+03  0.12499591277E+03 0.  0.
         23    2    1    2    0    0 -0.45994280474E+02 -0.40916063421E+02 -0.50564739961E+03  0.51725019754E+03  0.89882568065E+02 0.  0.
        -11    1    4    4    0    0 -0.50206660750E+02  0.15196611720E+02 -0.22772753595E+03  0.23369098489E+03  0.51100000000E-03 0. -1.
         11    1    4    4    0    0  0.42123802753E+01 -0.56112675141E+02 -0.27791986366E+03  0.28355921264E+03  0.51100000000E-03 0.  1.
    9000005    1    3    3    0    0  0.45729373265E+02  0.22525002527E+01 -0.81245119809E+03  0.81374086699E+03  0.10000000000E+01 0.  0.
    9000005    1    3    3    0    0  0.26490720980E+00  0.38663563168E+02 -0.73070818352E+02  0.82675787189E+02  0.10000000000E+01 0.  0.
<mgrwt>
<rscale>  0 0.13102041E+03</rscale>
<asrwt>0</asrwt>
<pdfrwt beam="2">  1        2 0.21575650E+00 0.13933261E+03</pdfrwt>
<pdfrwt beam="1">  1       -2 0.17305731E-02 0.13933261E+03</pdfrwt>
<totfact> 0.14283438E+04</totfact>
</mgrwt>
</event>
<event>
 8    2  0.8128359E-004  0.1402305E+03  0.7818608E-02  0.1224933E+00
          2   -1    0    0  501    0  0.00000000000E+00  0.00000000000E+00  0.14023538586E+04  0.14023538586E+04  0.25500000000E-02 0.  1.
         -2   -1    0    0    0  501 -0.00000000000E+00 -0.00000000000E+00 -0.11086811618E+02  0.11086811912E+02  0.25500000000E-02 0. -1.
         25    2    1    2    0    0 -0.35035127261E+02 -0.53030806290E+02  0.78496333098E+03  0.79739075152E+03  0.12499941223E+03 0.  0.
         23    2    1    2    0    0  0.35035127261E+02  0.53030806290E+02  0.60630371597E+03  0.61604991897E+03  0.88733196179E+02 0.  0.
        -11    1    4    4    0    0 -0.21255852192E+02 -0.10617038288E+02  0.15613218630E+03  0.15792970700E+03  0.51100000000E-03 0. -1.
         11    1    4    4    0    0  0.56290979453E+02  0.63647844577E+02  0.45017152967E+03  0.45812021196E+03  0.51100000000E-03 0.  1.
    9000005    1    3    3    0    0  0.36173792301E+02 -0.51430305191E+02  0.48634064787E+03  0.49038948328E+03  0.10000000000E+01 0.  0.
    9000005    1    3    3    0    0 -0.71208919562E+02 -0.16005010983E+01  0.29862268311E+03  0.30700126824E+03  0.10000000000E+01 0.  0.
<mgrwt>
<rscale>  0 0.13171517E+03</rscale>
<asrwt>0</asrwt>
<pdfrwt beam="1">  1        2 0.21574668E+00 0.14023045E+03</pdfrwt>
<pdfrwt beam="2">  1       -2 0.17056639E-02 0.14023045E+03</pdfrwt>
<totfact> 0.14592486E+04</totfact>
</mgrwt>
</event>
<event>
 8    2  0.8128359E-004  0.3174878E+03  0.7818608E-02  0.1078166E+00
         -2   -1    0    0    0  501 -0.00000000000E+00  0.00000000000E+00  0.24580532523E+03  0.24580532524E+03  0.25500000000E-02 0. -1.
          2   -1    0    0  501    0  0.00000000000E+00 -0.00000000000E+00 -0.47807964863E+03  0.47807964863E+03  0.25500000000E-02 0.  1.
         25    2    1    2    0    0  0.12162190593E+03 -0.26529573144E+03  0.32557777711E+02  0.31915278301E+03  0.12499910757E+03 0.  0.
         23    2    1    2    0    0 -0.12162190593E+03  0.26529573144E+03 -0.26483210111E+03  0.40473219086E+03  0.92186720412E+02 0.  0.
        -11    1    4    4    0    0 -0.55960801508E+02  0.19971116389E+03 -0.21756444048E+03  0.30058350928E+03  0.51100000000E-03 0. -1.
         11    1    4    4    0    0 -0.65661104420E+02  0.65584567550E+02 -0.47267660631E+02  0.10414868159E+03  0.51100000000E-03 0.  1.
    9000005    1    3    3    0    0  0.12340665598E+02  0.13305573191E+02  0.63930975239E+00  0.18186231669E+02  0.10000000000E+01 0.  0.
    9000005    1    3    3    0    0  0.10928124033E+03 -0.27860130463E+03  0.31918467958E+02  0.30096655134E+03  0.10000000000E+01 0.  0.
<mgrwt>
<rscale>  0 0.31459118E+03</rscale>
<asrwt>0</asrwt>
<pdfrwt beam="2">  1        2 0.73550715E-01 0.31748778E+03</pdfrwt>
<pdfrwt beam="1">  1       -2 0.37816204E-01 0.31748778E+03</pdfrwt>
<totfact> 0.43622069E+02</totfact>
</mgrwt>
</event>
<event>
 8    2  0.8128359E-004  0.1436238E+03  0.7818608E-02  0.1220581E+00
         -2   -1    0    0    0  501 -0.00000000000E+00  0.00000000000E+00  0.26667670321E+02  0.26667670443E+02  0.25500000000E-02 0.  1.
          2   -1    0    0  501    0  0.00000000000E+00 -0.00000000000E+00 -0.79450237217E+03  0.79450237217E+03  0.25500000000E-02 0. -1.
         25    2    1    2    0    0  0.63388543520E+02 -0.31377899098E+02 -0.61841279346E+03  0.63487178538E+03  0.12500048302E+03 0.  0.
         23    2    1    2    0    0 -0.63388543520E+02  0.31377899098E+02 -0.14942190838E+03  0.18629825723E+03  0.85892106397E+02 0.  0.
        -11    1    4    4    0    0 -0.13711360241E+02  0.43043638648E+02 -0.11804761356E+03  0.12639618386E+03  0.51100000000E-03 0. -1.
         11    1    4    4    0    0 -0.49677183279E+02 -0.11665739550E+02 -0.31374294821E+02  0.59902073366E+02  0.51100000000E-03 0.  1.
    9000005    1    3    3    0    0  0.45288036181E+02  0.45690209940E+02 -0.28980103707E+03  0.29685727647E+03  0.10000000000E+01 0.  0.
    9000005    1    3    3    0    0  0.18100507339E+02 -0.77068109038E+02 -0.32861175639E+03  0.33801450892E+03  0.10000000000E+01 0.  0.
<mgrwt>
<rscale>  0 0.13474434E+03</rscale>
<asrwt>0</asrwt>
<pdfrwt beam="2">  1        2 0.12223112E+00 0.14362382E+03</pdfrwt>
<pdfrwt beam="1">  1       -2 0.41027191E-02 0.14362382E+03</pdfrwt>
<totfact> 0.91312970E+03</totfact>
</mgrwt>
</event>
<event>
 8    2  0.8128359E-004  0.1628862E+03  0.7818608E-02  0.1199820E+00
          2   -1    0    0  501    0  0.00000000000E+00  0.00000000000E+00  0.22067679870E+04  0.22067679870E+04  0.25500000000E-02 0. -1.
         -2   -1    0    0    0  501 -0.00000000000E+00 -0.00000000000E+00 -0.10803722349E+02  0.10803722650E+02  0.25500000000E-02 0.  1.
         25    2    1    2    0    0  0.28868856281E+02 -0.10036831132E+03  0.16905876860E+04  0.16984165059E+04  0.12499877842E+03 0.  0.
         23    2    1    2    0    0 -0.28868856281E+02  0.10036831132E+03  0.50537657865E+03  0.51915520377E+03  0.56651836457E+02 0.  0.
        -11    1    4    4    0    0  0.15930661466E+02  0.15435039665E+02  0.75906825257E+02  0.79081429837E+02  0.51100000000E-03 0.  1.
         11    1    4    4    0    0 -0.44799517748E+02  0.84933271658E+02  0.42946975339E+03  0.44007377393E+03  0.51100000000E-03 0. -1.
    9000005    1    3    3    0    0  0.55047297161E+02 -0.29355760973E+01  0.85183364991E+03  0.85361606689E+03  0.10000000000E+01 0.  0.
    9000005    1    3    3    0    0 -0.26178440879E+02 -0.97432735226E+02  0.83875403611E+03  0.84480043901E+03  0.10000000000E+01 0.  0.
<mgrwt>
<rscale>  0 0.15053226E+03</rscale>
<asrwt>0</asrwt>
<pdfrwt beam="1">  1        2 0.33950338E+00 0.16288617E+03</pdfrwt>
<pdfrwt beam="2">  1       -2 0.16621081E-02 0.16288617E+03</pdfrwt>
<totfact> 0.58403357E+03</totfact>
</mgrwt>
</event>
<event>
 8    2  0.8128359E-004  0.1309342E+03  0.7818608E-02  0.1239253E+00
         -2   -1    0    0    0  501 -0.00000000000E+00  0.00000000000E+00  0.56920995427E+02  0.56920995484E+02  0.25500000000E-02 0.  1.
          2   -1    0    0  501    0  0.00000000000E+00 -0.00000000000E+00 -0.23422856273E+03  0.23422856275E+03  0.25500000000E-02 0. -1.
         25    2    1    2    0    0  0.19950750713E+02 -0.33491973009E+02 -0.95637871625E+02  0.16214305392E+03  0.12499609088E+03 0.  0.
         23    2    1    2    0    0 -0.19950750713E+02  0.33491973009E+02 -0.81669695680E+02  0.12900650431E+03  0.91940166697E+02 0.  0.
        -11    1    4    4    0    0  0.41640840567E+01 -0.21219901315E+02 -0.62629170038E+02  0.66257352405E+02  0.51100000000E-03 0. -1.
         11    1    4    4    0    0 -0.24114834770E+02  0.54711874324E+02 -0.19040525642E+02  0.62749151907E+02  0.51100000000E-03 0.  1.
    9000005    1    3    3    0    0  0.51164586486E+02 -0.27659553606E+02 -0.11214973816E+03  0.12633855146E+03  0.10000000000E+01 0.  0.
    9000005    1    3    3    0    0 -0.31213835774E+02 -0.58324194026E+01  0.16511866534E+02  0.35804502458E+02  0.10000000000E+01 0.  0.
<mgrwt>
<rscale>  0 0.12236062E+03</rscale>
<asrwt>0</asrwt>
<pdfrwt beam="2">  1        2 0.36035163E-01 0.13093421E+03</pdfrwt>
<pdfrwt beam="1">  1       -2 0.87570764E-02 0.13093421E+03</pdfrwt>
<totfact> 0.11034812E+04</totfact>
</mgrwt>
</event>
<event>
 8    2  0.8128359E-004  0.1647526E+03  0.7818608E-02  0.1190550E+00
         -2   -1    0    0    0  501 -0.00000000000E+00  0.00000000000E+00  0.18501397782E+02  0.18501397958E+02  0.25500000000E-02 0.  1.
          2   -1    0    0  501    0  0.00000000000E+00 -0.00000000000E+00 -0.12960456257E+04  0.12960456257E+04  0.25500000000E-02 0. -1.
         25    2    1    2    0    0 -0.68198619394E+02 -0.82871397335E+02 -0.79636040132E+03  0.81322402964E+03  0.12499885367E+03 0.  0.
         23    2    1    2    0    0  0.68198619394E+02  0.82871397335E+02 -0.48118382658E+03  0.50132299400E+03  0.90929363598E+02 0.  0.
        -11    1    4    4    0    0  0.37713324695E+02 -0.71793779373E+01 -0.22108827177E+03  0.22439666273E+03  0.51100000000E-03 0. -1.
         11    1    4    4    0    0  0.30485294699E+02  0.90050775272E+02 -0.26009555481E+03  0.27692633127E+03  0.51100000000E-03 0.  1.
    9000005    1    3    3    0    0 -0.99871781349E+02 -0.74503251984E+02 -0.71004866331E+03  0.72089889134E+03  0.10000000000E+01 0.  0.
    9000005    1    3    3    0    0  0.31673161955E+02 -0.83681453510E+01 -0.86311738011E+02  0.92325138306E+02  0.10000000000E+01 0.  0.
<mgrwt>
<rscale>  0 0.15836946E+03</rscale>
<asrwt>0</asrwt>
<pdfrwt beam="2">  1        2 0.19939156E+00 0.16475264E+03</pdfrwt>
<pdfrwt beam="1">  1       -2 0.28463699E-02 0.16475264E+03</pdfrwt>
<totfact> 0.79363748E+03</totfact>
</mgrwt>
</event>
<event>
 8    2  0.8128359E-004  0.1625620E+03  0.7818608E-02  0.1193160E+00
          2   -1    0    0  501    0  0.00000000000E+00  0.00000000000E+00  0.15957300399E+04  0.15957300399E+04  0.25500000000E-02 0. -1.
         -2   -1    0    0    0  501 -0.00000000000E+00 -0.00000000000E+00 -0.23424607377E+02  0.23424607515E+02  0.25500000000E-02 0.  1.
         25    2    1    2    0    0 -0.95710328775E+02  0.40508286635E+02  0.13322875311E+04  0.13421685702E+04  0.12500006795E+03 0.  0.
         23    2    1    2    0    0  0.95710328775E+02 -0.40508286635E+02  0.24001790143E+03  0.27698607722E+03  0.91166362485E+02 0.  0.
        -11    1    4    4    0    0  0.61117069060E+02 -0.23373331310E+02  0.22700492704E+03  0.23624742464E+03  0.51100000000E-03 0. -1.
         11    1    4    4    0    0  0.34593259714E+02 -0.17134955325E+02  0.13012974386E+02  0.40738652583E+02  0.51100000000E-03 0.  1.
    9000005    1    3    3    0    0 -0.48639268118E+02 -0.91014840873E+01  0.15103518167E+03  0.15893785427E+03  0.10000000000E+01 0.  0.
    9000005    1    3    3    0    0 -0.47071060657E+02  0.49609770722E+02  0.11812523494E+04  0.11832307159E+04  0.10000000000E+01 0.  0.
<mgrwt>
<rscale>  0 0.15610957E+03</rscale>
<asrwt>0</asrwt>
<pdfrwt beam="1">  1        2 0.24549700E+00 0.16256200E+03</pdfrwt>
<pdfrwt beam="2">  1       -2 0.36037848E-02 0.16256200E+03</pdfrwt>
<totfact> 0.38811043E+03</totfact>
</mgrwt>
</event>
<event>
 8    2  0.8128359E-004  0.1367838E+03  0.7818608E-02  0.1229534E+00
          2   -1    0    0  501    0  0.00000000000E+00  0.00000000000E+00  0.82312096588E+03  0.82312096589E+03  0.25500000000E-02 0. -1.
         -2   -1    0    0    0  501 -0.00000000000E+00 -0.00000000000E+00 -0.26374602265E+02  0.26374602389E+02  0.25500000000E-02 0.  1.
         25    2    1    2    0    0  0.22669085429E+02 -0.50703308425E+02  0.66937747775E+03  0.68321008192E+03  0.12500038159E+03 0.  0.
         23    2    1    2    0    0 -0.22669085429E+02  0.50703308425E+02  0.12736888587E+03  0.16628548635E+03  0.91341759157E+02 0.  0.
        -11    1    4    4    0    0 -0.41726828324E+02  0.83562408202E+01  0.15723022882E+02  0.45367041025E+02  0.51100000000E-03 0.  1.
         11    1    4    4    0    0  0.19057742895E+02  0.42347067605E+02  0.11164586298E+03  0.12091844533E+03  0.51100000000E-03 0. -1.
    9000005    1    3    3    0    0  0.40316722141E+02  0.31580977106E+02  0.20761326604E+03  0.21383887494E+03  0.10000000000E+01 0.  0.
    9000005    1    3    3    0    0 -0.17647636713E+02 -0.82284285531E+02  0.46176421171E+03  0.46937120698E+03  0.10000000000E+01 0.  0.
<mgrwt>
<rscale>  0 0.12860931E+03</rscale>
<asrwt>0</asrwt>
<pdfrwt beam="1">  1        2 0.12663400E+00 0.13678380E+03</pdfrwt>
<pdfrwt beam="2">  1       -2 0.40576309E-02 0.13678380E+03</pdfrwt>
<totfact> 0.88564678E+03</totfact>
</mgrwt>
</event>
<event>
 8    2  0.8128359E-004  0.1448835E+03  0.7818608E-02  0.1216891E+00
          2   -1    0    0  501    0  0.00000000000E+00  0.00000000000E+00  0.52470572480E+03  0.52470572481E+03  0.25500000000E-02 0. -1.
         -2   -1    0    0    0  501 -0.00000000000E+00 -0.00000000000E+00 -0.32788747414E+02  0.32788747514E+02  0.25500000000E-02 0.  1.
         25    2    1    2    0    0  0.42071283946E+02 -0.59971205617E+02  0.28536641467E+03  0.32003938023E+03  0.12499870335E+03 0.  0.
         23    2    1    2    0    0 -0.42071283946E+02  0.59971205617E+02  0.20655056271E+03  0.23745509209E+03  0.91407042217E+02 0.  0.
        -11    1    4    4    0    0 -0.13313306154E+02  0.46124178848E+02  0.26978302707E+02  0.55068255941E+02  0.51100000000E-03 0.  1.
         11    1    4    4    0    0 -0.28757977791E+02  0.13847026769E+02  0.17957226000E+03  0.18238683615E+03  0.51100000000E-03 0. -1.
    9000005    1    3    3    0    0 -0.30422190350E+00 -0.68116267178E+02  0.60634842584E+02  0.91200342875E+02  0.10000000000E+01 0.  0.
    9000005    1    3    3    0    0  0.42375505849E+02  0.81450615615E+01  0.22473157209E+03  0.22883903736E+03  0.10000000000E+01 0.  0.
<mgrwt>
<rscale>  0 0.13738535E+03</rscale>
<asrwt>0</asrwt>
<pdfrwt beam="1">  1        2 0.80723966E-01 0.14488345E+03</pdfrwt>
<pdfrwt beam="2">  1       -2 0.50444222E-02 0.14488345E+03</pdfrwt>
<totfact> 0.10881449E+04</totfact>
</mgrwt>
</event>
<event>
 8    2  0.8128359E-004  0.3608867E+03  0.7818608E-02  0.1059245E+00
          2   -1    0    0  501    0  0.00000000000E+00  0.00000000000E+00  0.11403158982E+04  0.11403158982E+04  0.25500000000E-02 0. -1.
         -2   -1    0    0    0  501 -0.00000000000E+00 -0.00000000000E+00 -0.11410285336E+03  0.11410285338E+03  0.25500000000E-02 0.  1.
         25    2    1    2    0    0  0.23882255171E+03 -0.23995438013E+03  0.41742898245E+03  0.55180267193E+03  0.12499967045E+03 0.  0.
         23    2    1    2    0    0 -0.23882255171E+03  0.23995438013E+03  0.60878406242E+03  0.70261607968E+03  0.91853171040E+02 0.  0.
        -11    1    4    4    0    0 -0.17434993105E+03  0.17694930178E+03  0.35488344962E+03  0.43318727667E+03  0.51100000000E-03 0.  1.
         11    1    4    4    0    0 -0.64472620662E+02  0.63005078344E+02  0.25390061280E+03  0.26942880301E+03  0.51100000000E-03 0. -1.
    9000005    1    3    3    0    0  0.11569050042E+03 -0.20066509724E+03  0.26640414321E+03  0.35301974542E+03  0.10000000000E+01 0.  0.
    9000005    1    3    3    0    0  0.12313205128E+03 -0.39289282886E+02  0.15102483925E+03  0.19878292651E+03  0.10000000000E+01 0.  0.
<mgrwt>
<rscale>  0 0.35833479E+03</rscale>
<asrwt>0</asrwt>
<pdfrwt beam="1">  1        2 0.17543323E+00 0.36088673E+03</pdfrwt>
<pdfrwt beam="2">  1       -2 0.17554284E-01 0.36088673E+03</pdfrwt>
<totfact> 0.56674102E+02</totfact>
</mgrwt>
</event>
<event>
 8    2  0.8128359E-004  0.1415499E+03  0.7818608E-02  0.1221909E+00
         -2   -1    0    0    0  501 -0.00000000000E+00  0.00000000000E+00  0.10211676954E+03  0.10211676958E+03  0.25500000000E-02 0.  1.
          2   -1    0    0  501    0  0.00000000000E+00 -0.00000000000E+00 -0.15929840154E+03  0.15929840156E+03  0.25500000000E-02 0. -1.
         25    2    1    2    0    0 -0.66173169909E+02  0.52142170559E+01 -0.39878744081E+02  0.14706011774E+03  0.12502114832E+03 0.  0.
         23    2    1    2    0    0  0.66173169909E+02 -0.52142170559E+01 -0.17302887917E+02  0.11435505339E+03  0.91496512671E+02 0.  0.
        -11    1    4    4    0    0 -0.20973833113E+02  0.10768353312E+02 -0.94754103965E+01  0.25409496472E+02  0.51100000000E-03 0.  1.
         11    1    4    4    0    0  0.87147003023E+02 -0.15982570368E+02 -0.78274775209E+01  0.88945556921E+02  0.51100000000E-03 0. -1.
    9000005    1    3    3    0    0 -0.65972544477E+02 -0.29112659313E+02 -0.70643961700E+02  0.10095292409E+03  0.10000000000E+01 0.  0.
    9000005    1    3    3    0    0 -0.20062543182E+00  0.34326876369E+02  0.30765217620E+02  0.46107193658E+02  0.10000000000E+01 0.  0.
<mgrwt>
<rscale>  0 0.13381002E+03</rscale>
<asrwt>0</asrwt>
<pdfrwt beam="2">  1        2 0.24507447E-01 0.14154986E+03</pdfrwt>
<pdfrwt beam="1">  1       -2 0.15710272E-01 0.14154986E+03</pdfrwt>
<totfact> 0.66381116E+03</totfact>
</mgrwt>
</event>
<event>
 8    2  0.8128359E-004  0.1281085E+03  0.7818608E-02  0.1246371E+00
         -2   -1    0    0    0  501 -0.00000000000E+00  0.00000000000E+00  0.72152404015E+02  0.72152404060E+02  0.25500000000E-02 0. -1.
          2   -1    0    0  501    0  0.00000000000E+00 -0.00000000000E+00 -0.19754388029E+03  0.19754388031E+03  0.25500000000E-02 0.  1.
         25    2    1    2    0    0 -0.28042592425E+02 -0.78372391932E+00 -0.12260741971E+03  0.17732560819E+03  0.12499916295E+03 0.  0.
         23    2    1    2    0    0  0.28042592425E+02  0.78372391932E+00 -0.27840565637E+01  0.92370676177E+02  0.87963569922E+02 0.  0.
        -11    1    4    4    0    0  0.19579629062E+01 -0.21917252997E+02  0.34879554556E+02  0.41240549511E+02  0.51100000000E-03 0. -1.
         11    1    4    4    0    0  0.26084629518E+02  0.22700976917E+02 -0.37663611119E+02  0.51130126666E+02  0.51100000000E-03 0.  1.
    9000005    1    3    3    0    0  0.21998283686E+02 -0.27264802798E+02  0.71340773604E+01  0.35765752006E+02  0.10000000000E+01 0.  0.
    9000005    1    3    3    0    0 -0.50040876110E+02  0.26481078879E+02 -0.12974149707E+03  0.14155985618E+03  0.10000000000E+01 0.  0.
<mgrwt>
<rscale>  0 0.11803687E+03</rscale>
<asrwt>0</asrwt>
<pdfrwt beam="2">  1        2 0.30391366E-01 0.12810852E+03</pdfrwt>
<pdfrwt beam="1">  1       -2 0.11100370E-01 0.12810852E+03</pdfrwt>
<totfact> 0.91196716E+03</totfact>
</mgrwt>
</event>
<event>
 8    2  0.8128359E-004  0.2295000E+03  0.7818608E-02  0.1130085E+00
          2   -1    0    0  501    0  0.00000000000E+00  0.00000000000E+00  0.12655192060E+04  0.12655192060E+04  0.25500000000E-02 0. -1.
         -2   -1    0    0    0  501 -0.00000000000E+00 -0.00000000000E+00 -0.39511415757E+02  0.39511415840E+02  0.25500000000E-02 0.  1.
         25    2    1    2    0    0 -0.71958767495E+02  0.17851416711E+03  0.53807690622E+03  0.58497608435E+03  0.12499956070E+03 0.  0.
         23    2    1    2    0    0  0.71958767495E+02 -0.17851416711E+03  0.68793088401E+03  0.72005453748E+03  0.90466920441E+02 0.  0.
        -11    1    4    4    0    0  0.65024732034E+02 -0.46728314413E+02  0.28715912574E+03  0.29811426440E+03  0.51100000000E-03 0. -1.
         11    1    4    4    0    0  0.69340354609E+01 -0.13178585270E+03  0.40077175827E+03  0.42194027308E+03  0.51100000000E-03 0.  1.
    9000005    1    3    3    0    0  0.38365537184E+01  0.14395693993E+03  0.30072903937E+03  0.33343256413E+03  0.10000000000E+01 0.  0.
    9000005    1    3    3    0    0 -0.75795321214E+02  0.34557227180E+02  0.23734786685E+03  0.25154352023E+03  0.10000000000E+01 0.  0.
<mgrwt>
<rscale>  0 0.22517229E+03</rscale>
<asrwt>0</asrwt>
<pdfrwt beam="1">  1        2 0.19469525E+00 0.22950003E+03</pdfrwt>
<pdfrwt beam="2">  1       -2 0.60786799E-02 0.22950003E+03</pdfrwt>
<totfact> 0.26567676E+03</totfact>
</mgrwt>
</event>
<event>
 8    2  0.8128359E-004  0.1527998E+03  0.7818608E-02  0.1205569E+00
         -2   -1    0    0    0  501 -0.00000000000E+00  0.00000000000E+00  0.51842028895E+02  0.51842028958E+02  0.25500000000E-02 0.  1.
          2   -1    0    0  501    0  0.00000000000E+00 -0.00000000000E+00 -0.38097377731E+03  0.38097377732E+03  0.25500000000E-02 0. -1.
         25    2    1    2    0    0  0.47575085803E+02 -0.73873910732E+02 -0.15994724543E+03  0.22120329184E+03  0.12500812584E+03 0.  0.
         23    2    1    2    0    0 -0.47575085803E+02  0.73873910732E+02 -0.16918450298E+03  0.21161251443E+03  0.91846157996E+02 0.  0.
        -11    1    4    4    0    0 -0.34163138074E+02  0.66079689550E+00 -0.11384657840E+03  0.11886378788E+03  0.51100000000E-03 0. -1.
         11    1    4    4    0    0 -0.13411947729E+02  0.73213113836E+02 -0.55337924582E+02  0.92748726551E+02  0.51100000000E-03 0.  1.
    9000005    1    3    3    0    0 -0.14301465807E+02 -0.88050838916E+02 -0.89450054899E+02  0.12633208017E+03  0.10000000000E+01 0.  0.
    9000005    1    3    3    0    0  0.61876551610E+02  0.14176928185E+02 -0.70497190531E+02  0.94871211675E+02  0.10000000000E+01 0.  0.
<mgrwt>
<rscale>  0 0.14592689E+03</rscale>
<asrwt>0</asrwt>
<pdfrwt beam="2">  1        2 0.58611349E-01 0.15279979E+03</pdfrwt>
<pdfrwt beam="1">  1       -2 0.79756970E-02 0.15279979E+03</pdfrwt>
<totfact> 0.76870108E+03</totfact>
</mgrwt>
</event>
<event>
 8    2  0.8128359E-004  0.1337318E+03  0.7818608E-02  0.1235760E+00
         -2   -1    0    0    0  501 -0.00000000000E+00  0.00000000000E+00  0.44290962542E+02  0.44290962616E+02  0.25500000000E-02 0.  1.
          2   -1    0    0  501    0  0.00000000000E+00 -0.00000000000E+00 -0.31705184199E+03  0.31705184200E+03  0.25500000000E-02 0. -1.
         25    2    1    2    0    0 -0.38563879236E+02  0.27778468741E+02 -0.18175859769E+03  0.22565544155E+03  0.12500149744E+03 0.  0.
         23    2    1    2    0    0  0.38563879236E+02 -0.27778468741E+02 -0.91002281764E+02  0.13568736307E+03  0.88717693288E+02 0.  0.
        -11    1    4    4    0    0  0.18593867272E+02 -0.20977394753E+02  0.12039682104E+02  0.30507981516E+02  0.51100000000E-03 0.  1.
         11    1    4    4    0    0  0.19970011964E+02 -0.68010739876E+01 -0.10304196387E+03  0.10517938155E+03  0.51100000000E-03 0. -1.
    9000005    1    3    3    0    0 -0.47476340634E+01  0.55691070429E+02 -0.22149985627E+02  0.60130335256E+02  0.10000000000E+01 0.  0.
    9000005    1    3    3    0    0 -0.33816245172E+02 -0.27912601689E+02 -0.15960861206E+03  0.16552510630E+03  0.10000000000E+01 0.  0.
<mgrwt>
<rscale>  0 0.12455904E+03</rscale>
<asrwt>0</asrwt>
<pdfrwt beam="2">  1        2 0.48777205E-01 0.13373179E+03</pdfrwt>
<pdfrwt beam="1">  1       -2 0.68139945E-02 0.13373179E+03</pdfrwt>
<totfact> 0.11795222E+04</totfact>
</mgrwt>
</event>
<event>
 8    2  0.8128359E-004  0.2460751E+03  0.7818608E-02  0.1118408E+00
          2   -1    0    0  501    0  0.00000000000E+00  0.00000000000E+00  0.11403465353E+04  0.11403465353E+04  0.25500000000E-02 0. -1.
         -2   -1    0    0    0  501 -0.00000000000E+00 -0.00000000000E+00 -0.55438951955E+02  0.55438952014E+02  0.25500000000E-02 0.  1.
         25    2    1    2    0    0  0.19812917594E+03 -0.75315598373E+02  0.36771584638E+03  0.44245666077E+03  0.12500137305E+03 0.  0.
         23    2    1    2    0    0 -0.19812917594E+03  0.75315598373E+02  0.71719173696E+03  0.75332882654E+03  0.90624078547E+02 0.  0.
        -11    1    4    4    0    0 -0.10353702814E+03  0.66036810230E+02  0.52166916136E+03  0.53592862437E+03  0.51100000000E-03 0. -1.
         11    1    4    4    0    0 -0.94592147799E+02  0.92787881427E+01  0.19552257560E+03  0.21740020217E+03  0.51100000000E-03 0.  1.
    9000005    1    3    3    0    0  0.30011508772E+02 -0.13641071216E+02  0.18010346132E+03  0.18309840595E+03  0.10000000000E+01 0.  0.
    9000005    1    3    3    0    0  0.16811766717E+03 -0.61674527157E+02  0.18761238505E+03  0.25935825482E+03  0.10000000000E+01 0.  0.
<mgrwt>
<rscale>  0 0.24209108E+03</rscale>
<asrwt>0</asrwt>
<pdfrwt beam="1">  1        2 0.17543792E+00 0.24607510E+03</pdfrwt>
<pdfrwt beam="2">  1       -2 0.85290701E-02 0.24607510E+03</pdfrwt>
<totfact> 0.18484732E+03</totfact>
</mgrwt>
</event>
<event>
 8    2  0.8128359E-004  0.2199146E+03  0.7818608E-02  0.1137560E+00
          2   -1    0    0  501    0  0.00000000000E+00  0.00000000000E+00  0.23228858281E+04  0.23228858281E+04  0.25500000000E-02 0. -1.
         -2   -1    0    0    0  501 -0.00000000000E+00 -0.00000000000E+00 -0.21370538572E+02  0.21370538724E+02  0.25500000000E-02 0.  1.
         25    2    1    2    0    0 -0.74806819078E+02  0.16474572646E+03  0.15771215905E+04  0.15923802754E+04  0.12500086303E+03 0.  0.
         23    2    1    2    0    0  0.74806819078E+02 -0.16474572646E+03  0.72439369902E+03  0.75187609139E+03  0.88511078794E+02 0.  0.
        -11    1    4    4    0    0  0.38226528879E+02 -0.15248586131E+03  0.49814474855E+03  0.52236136526E+03  0.51100000000E-03 0. -1.
         11    1    4    4    0    0  0.36580290198E+02 -0.12259865148E+02  0.22624895047E+03  0.22951472613E+03  0.51100000000E-03 0.  1.
    9000005    1    3    3    0    0 -0.18730242745E+02  0.16111943485E+03  0.12475257302E+04  0.12580269241E+04  0.10000000000E+01 0.  0.
    9000005    1    3    3    0    0 -0.56076576332E+02  0.36262916079E+01  0.32959586029E+03  0.33435335129E+03  0.10000000000E+01 0.  0.
<mgrwt>
<rscale>  0 0.21513847E+03</rscale>
<asrwt>0</asrwt>
<pdfrwt beam="1">  1        2 0.35736706E+00 0.21991460E+03</pdfrwt>
<pdfrwt beam="2">  1       -2 0.32877751E-02 0.21991460E+03</pdfrwt>
<totfact> 0.18562491E+03</totfact>
</mgrwt>
</event>
<event>
 8    2  0.8128359E-004  0.1306195E+03  0.7818608E-02  0.1241362E+00
          2   -1    0    0  501    0  0.00000000000E+00  0.00000000000E+00  0.35027602292E+02  0.35027602385E+02  0.25500000000E-02 0. -1.
         -2   -1    0    0    0  501 -0.00000000000E+00 -0.00000000000E+00 -0.37748031319E+03  0.37748031319E+03  0.25500000000E-02 0.  1.
         25    2    1    2    0    0 -0.16087778374E+02 -0.34316417284E+02 -0.22914622785E+03  0.26376021081E+03  0.12500008784E+03 0.  0.
         23    2    1    2    0    0  0.16087778374E+02  0.34316417284E+02 -0.11330648304E+03  0.14874770477E+03  0.88606362451E+02 0.  0.
        -11    1    4    4    0    0 -0.28715175025E-01  0.61223958186E+02 -0.93135208985E+02  0.11145645353E+03  0.51100000000E-03 0.  1.
         11    1    4    4    0    0  0.16116493549E+02 -0.26907540902E+02 -0.20171274055E+02  0.37291251239E+02  0.51100000000E-03 0. -1.
    9000005    1    3    3    0    0  0.18022678545E+02 -0.48198542757E+02 -0.21980979654E+03  0.22575487397E+03  0.10000000000E+01 0.  0.
    9000005    1    3    3    0    0 -0.34110456919E+02  0.13882125473E+02 -0.93364313149E+01  0.38005336843E+02  0.10000000000E+01 0.  0.
<mgrwt>
<rscale>  0 0.12105800E+03</rscale>
<asrwt>0</asrwt>
<pdfrwt beam="1">  1        2 0.53888622E-02 0.13061950E+03</pdfrwt>
<pdfrwt beam="2">  1       -2 0.58073891E-01 0.13061950E+03</pdfrwt>
<totfact> 0.38262003E+03</totfact>
</mgrwt>
</event>
<event>
 8    2  0.8128359E-004  0.1355443E+03  0.7818608E-02  0.1231075E+00
         -2   -1    0    0    0  501 -0.00000000000E+00  0.00000000000E+00  0.77692773697E+02  0.77692773739E+02  0.25500000000E-02 0.  1.
          2   -1    0    0  501    0  0.00000000000E+00 -0.00000000000E+00 -0.19338416086E+03  0.19338416088E+03  0.25500000000E-02 0. -1.
         25    2    1    2    0    0 -0.14644521162E+02 -0.50318454521E+02 -0.86244892826E+02  0.16065623836E+03  0.12500334604E+03 0.  0.
         23    2    1    2    0    0  0.14644521162E+02  0.50318454521E+02 -0.29446494340E+02  0.11042069626E+03  0.92624107378E+02 0.  0.
        -11    1    4    4    0    0  0.47141979570E+02  0.52293737701E+02 -0.32837373324E+02  0.77687156774E+02  0.51100000000E-03 0.  1.
         11    1    4    4    0    0 -0.32497458408E+02 -0.19752831795E+01  0.33908789835E+01  0.32733539484E+02  0.51100000000E-03 0. -1.
    9000005    1    3    3    0    0  0.26677872797E+02 -0.39276416498E+02 -0.10400343047E+03  0.11433310693E+03  0.10000000000E+01 0.  0.
    9000005    1    3    3    0    0 -0.41322393959E+02 -0.11042038024E+02  0.17758537648E+02  0.46323131432E+02  0.10000000000E+01 0.  0.
<mgrwt>
<rscale>  0 0.12759059E+03</rscale>
<asrwt>0</asrwt>
<pdfrwt beam="2">  1        2 0.29751409E-01 0.13554426E+03</pdfrwt>
<pdfrwt beam="1">  1       -2 0.11952734E-01 0.13554426E+03</pdfrwt>
<totfact> 0.83322211E+03</totfact>
</mgrwt>
</event>
<event>
 8    2  0.8128359E-004  0.1484913E+03  0.7818608E-02  0.1211583E+00
          2   -1    0    0  501    0  0.00000000000E+00  0.00000000000E+00  0.71367947330E+02  0.71367947376E+02  0.25500000000E-02 0. -1.
         -2   -1    0    0    0  501 -0.00000000000E+00 -0.00000000000E+00 -0.39056251360E+03  0.39056251361E+03  0.25500000000E-02 0.  1.
         25    2    1    2    0    0  0.69169375185E+02 -0.40497146908E+02 -0.34728212542E+02  0.15249821561E+03  0.12500094259E+03 0.  0.
         23    2    1    2    0    0 -0.69169375185E+02  0.40497146908E+02 -0.28446635373E+03  0.30943224537E+03  0.91666715342E+02 0.  0.
        -11    1    4    4    0    0 -0.25803458907E+02  0.37979134340E+02 -0.39271377576E+02  0.60419154526E+02  0.51100000000E-03 0. -1.
         11    1    4    4    0    0 -0.43365916278E+02  0.25180125680E+01 -0.24519497615E+03  0.24901309084E+03  0.51100000000E-03 0.  1.
    9000005    1    3    3    0    0  0.54412962914E+02 -0.28323044969E+02 -0.81467925007E+02  0.10198523528E+03  0.10000000000E+01 0.  0.
    9000005    1    3    3    0    0  0.14756412271E+02 -0.12174101938E+02  0.46739712465E+02  0.50512980336E+02  0.10000000000E+01 0.  0.
<mgrwt>
<rscale>  0 0.14130519E+03</rscale>
<asrwt>0</asrwt>
<pdfrwt beam="1">  1        2 0.10979684E-01 0.14849127E+03</pdfrwt>
<pdfrwt beam="2">  1       -2 0.60086539E-01 0.14849127E+03</pdfrwt>
<totfact> 0.14666905E+03</totfact>
</mgrwt>
</event>
<event>
 8    2  0.8128359E-004  0.1450624E+03  0.7818608E-02  0.1216739E+00
          2   -1    0    0  501    0  0.00000000000E+00  0.00000000000E+00  0.33916254834E+02  0.33916254930E+02  0.25500000000E-02 0. -1.
         -2   -1    0    0    0  501 -0.00000000000E+00 -0.00000000000E+00 -0.53225883841E+03  0.53225883842E+03  0.25500000000E-02 0.  1.
         25    2    1    2    0    0  0.70834226221E+02  0.20009035371E+02 -0.33636775036E+03  0.36631457266E+03  0.12500101424E+03 0.  0.
         23    2    1    2    0    0 -0.70834226221E+02 -0.20009035371E+02 -0.16197483322E+03  0.19986052069E+03  0.91052358745E+02 0.  0.
        -11    1    4    4    0    0 -0.28617386738E+02 -0.24553306603E+02 -0.15150667363E+03  0.15612844662E+03  0.51100000000E-03 0.  1.
         11    1    4    4    0    0 -0.42216839483E+02  0.45442712312E+01 -0.10468159586E+02  0.43732074068E+02  0.51100000000E-03 0. -1.
    9000005    1    3    3    0    0 -0.19955030869E+02  0.31019614126E+02 -0.19127447347E+03  0.19480078008E+03  0.10000000000E+01 0.  0.
    9000005    1    3    3    0    0  0.90789257090E+02 -0.11010578755E+02 -0.14509327689E+03  0.17151379259E+03  0.10000000000E+01 0.  0.
<mgrwt>
<rscale>  0 0.13749580E+03</rscale>
<asrwt>0</asrwt>
<pdfrwt beam="1">  1        2 0.52178858E-02 0.14506241E+03</pdfrwt>
<pdfrwt beam="2">  1       -2 0.81885969E-01 0.14506241E+03</pdfrwt>
<totfact> 0.19402153E+03</totfact>
</mgrwt>
</event>
<event>
 8    2  0.8128359E-004  0.1835782E+03  0.7818608E-02  0.1169410E+00
          2   -1    0    0  501    0  0.00000000000E+00  0.00000000000E+00  0.54759315129E+03  0.54759315130E+03  0.25500000000E-02 0.  1.
         -2   -1    0    0    0  501 -0.00000000000E+00 -0.00000000000E+00 -0.67988945546E+02  0.67988945594E+02  0.25500000000E-02 0. -1.
         25    2    1    2    0    0 -0.12981348104E+03  0.35144403327E+02  0.38530132433E+03  0.42679981323E+03  0.12495719706E+03 0.  0.
         23    2    1    2    0    0  0.12981348104E+03 -0.35144403327E+02  0.94302881419E+02  0.18878228366E+03  0.93054007093E+02 0.  0.
        -11    1    4    4    0    0  0.31445912835E+02 -0.29535975953E+01  0.77809501546E+02  0.83975518479E+02  0.51100000000E-03 0.  1.
         11    1    4    4    0    0  0.98367568208E+02 -0.32190805731E+02  0.16493379873E+02  0.10480676519E+03  0.51100000000E-03 0. -1.
    9000005    1    3    3    0    0 -0.44133249588E+01 -0.28475185407E+02  0.14948486007E+03  0.15224006376E+03  0.10000000000E+01 0.  0.
    9000005    1    3    3    0    0 -0.12540015608E+03  0.63619588734E+02  0.23581646425E+03  0.27455974947E+03  0.10000000000E+01 0.  0.
<mgrwt>
<rscale>  0 0.17834982E+03</rscale>
<asrwt>0</asrwt>
<pdfrwt beam="1">  1        2 0.84245100E-01 0.18357824E+03</pdfrwt>
<pdfrwt beam="2">  1       -2 0.10459838E-01 0.18357824E+03</pdfrwt>
<totfact> 0.34087099E+03</totfact>
</mgrwt>
</event>
<event>
 8    2  0.8128359E-004  0.1543309E+03  0.7818608E-02  0.1209945E+00
          2   -1    0    0  501    0  0.00000000000E+00  0.00000000000E+00  0.17970703161E+04  0.17970703161E+04  0.25500000000E-02 0. -1.
         -2   -1    0    0    0  501 -0.00000000000E+00 -0.00000000000E+00 -0.99831092164E+01  0.99831095421E+01  0.25500000000E-02 0.  1.
         25    2    1    2    0    0  0.89945342388E+02  0.10120703072E+02  0.94746494040E+03  0.95995200331E+03  0.12500176848E+03 0.  0.
         23    2    1    2    0    0 -0.89945342388E+02 -0.10120703072E+02  0.83962226647E+03  0.84710142233E+03  0.66503203668E+02 0.  0.
        -11    1    4    4    0    0 -0.40796666046E+01  0.55212186497E+01  0.66120264783E+01  0.95313393285E+01  0.51100000000E-03 0.  1.
         11    1    4    4    0    0 -0.85865675784E+02 -0.15641921721E+02  0.83301024000E+03  0.83757008300E+03  0.51100000000E-03 0. -1.
    9000005    1    3    3    0    0  0.47529499464E+02 -0.14418959315E+02  0.84404357051E+03  0.84550429249E+03  0.10000000000E+01 0.  0.
    9000005    1    3    3    0    0  0.42415842925E+02  0.24539662386E+02  0.10342136990E+03  0.11444771082E+03  0.10000000000E+01 0.  0.
<mgrwt>
<rscale>  0 0.14254494E+03</rscale>
<asrwt>0</asrwt>
<pdfrwt beam="1">  1        2 0.27647262E+00 0.15433093E+03</pdfrwt>
<pdfrwt beam="2">  1       -2 0.15358615E-02 0.15433093E+03</pdfrwt>
<totfact> 0.10644509E+04</totfact>
</mgrwt>
</event>
<event>
 8    2  0.8128359E-004  0.1421296E+03  0.7818608E-02  0.1222221E+00
         -2   -1    0    0    0  501 -0.00000000000E+00  0.00000000000E+00  0.88969943689E+02  0.88969943725E+02  0.25500000000E-02 0.  1.
          2   -1    0    0  501    0  0.00000000000E+00 -0.00000000000E+00 -0.19541328864E+03  0.19541328866E+03  0.25500000000E-02 0. -1.
         25    2    1    2    0    0  0.42969022529E+02  0.52244402286E+02 -0.98976450615E+02  0.17319685127E+03  0.12499998819E+03 0.  0.
         23    2    1    2    0    0 -0.42969022529E+02 -0.52244402286E+02 -0.74668943401E+01  0.11118638111E+03  0.87925208935E+02 0.  0.
        -11    1    4    4    0    0  0.37396362650E+01 -0.46400307682E+02  0.26102693871E+02  0.53369692336E+02  0.51100000000E-03 0.  1.
         11    1    4    4    0    0 -0.46708658794E+02 -0.58440946035E+01 -0.33569588211E+02  0.57816688776E+02  0.51100000000E-03 0. -1.
    9000005    1    3    3    0    0 -0.18516119149E+01 -0.16036751418E+02 -0.89518040676E+02  0.90967496773E+02  0.10000000000E+01 0.  0.
    9000005    1    3    3    0    0  0.44820634444E+02  0.68281153704E+02 -0.94584099390E+01  0.82229354501E+02  0.10000000000E+01 0.  0.
<mgrwt>
<rscale>  0 0.13359211E+03</rscale>
<asrwt>0</asrwt>
<pdfrwt beam="2">  1        2 0.30063583E-01 0.14212956E+03</pdfrwt>
<pdfrwt beam="1">  1       -2 0.13687684E-01 0.14212956E+03</pdfrwt>
<totfact> 0.66472051E+03</totfact>
</mgrwt>
</event>
<event>
 8    2  0.8128359E-004  0.3148308E+03  0.7818608E-02  0.1079356E+00
          2   -1    0    0  501    0  0.00000000000E+00  0.00000000000E+00  0.89187465372E+03  0.89187465372E+03  0.25500000000E-02 0. -1.
         -2   -1    0    0    0  501 -0.00000000000E+00 -0.00000000000E+00 -0.15880535657E+03  0.15880535660E+03  0.25500000000E-02 0.  1.
         25    2    1    2    0    0  0.28858536858E+03 -0.14582364447E+02  0.66996513810E+03  0.74025113819E+03  0.12499720402E+03 0.  0.
         23    2    1    2    0    0 -0.28858536858E+03  0.14582364447E+02  0.63104159042E+02  0.31042887212E+03  0.94285679980E+02 0.  0.
        -11    1    4    4    0    0 -0.14881176778E+03 -0.30315755072E+02  0.32907509010E+01  0.15190397058E+03  0.51100000000E-03 0.  1.
         11    1    4    4    0    0 -0.13977360080E+03  0.44898119519E+02  0.59813408141E+02  0.15852490155E+03  0.51100000000E-03 0. -1.
    9000005    1    3    3    0    0  0.16765366253E+03  0.40702009684E+02  0.46455606337E+03  0.49555800888E+03  0.10000000000E+01 0.  0.
    9000005    1    3    3    0    0  0.12093170604E+03 -0.55284374131E+02  0.20540907473E+03  0.24469312931E+03  0.10000000000E+01 0.  0.
<mgrwt>
<rscale>  0 0.31207395E+03</rscale>
<asrwt>0</asrwt>
<pdfrwt beam="1">  1        2 0.13721148E+00 0.31483085E+03</pdfrwt>
<pdfrwt beam="2">  1       -2 0.24431593E-01 0.31483085E+03</pdfrwt>
<totfact> 0.45649498E+02</totfact>
</mgrwt>
</event>
<event>
 8    2  0.8128359E-004  0.1371630E+03  0.7818608E-02  0.1229643E+00
          2   -1    0    0  501    0  0.00000000000E+00  0.00000000000E+00  0.59112231152E+03  0.59112231152E+03  0.25500000000E-02 0. -1.
         -2   -1    0    0    0  501 -0.00000000000E+00 -0.00000000000E+00 -0.29359828723E+02  0.29359828834E+02  0.25500000000E-02 0.  1.
         25    2    1    2    0    0  0.17656641267E+02  0.53638256517E+02  0.19250291820E+03  0.23637058667E+03  0.12499944474E+03 0.  0.
         23    2    1    2    0    0 -0.17656641267E+02 -0.53638256517E+02  0.36925956460E+03  0.38411155369E+03  0.89444061212E+02 0.  0.
        -11    1    4    4    0    0  0.14944189112E+02 -0.35616382693E+02  0.52544205973E+02  0.65213105170E+02  0.51100000000E-03 0.  1.
         11    1    4    4    0    0 -0.32600830379E+02 -0.18021873824E+02  0.31671535862E+03  0.31889844852E+03  0.51100000000E-03 0. -1.
    9000005    1    3    3    0    0  0.68002519490E+01  0.50261561410E+02  0.20968998311E+03  0.21573909474E+03  0.10000000000E+01 0.  0.
    9000005    1    3    3    0    0  0.10856389318E+02  0.33766951070E+01 -0.17187064914E+02  0.20631491930E+02  0.10000000000E+01 0.  0.
<mgrwt>
<rscale>  0 0.12853662E+03</rscale>
<asrwt>0</asrwt>
<pdfrwt beam="1">  1        2 0.90941900E-01 0.13716297E+03</pdfrwt>
<pdfrwt beam="2">  1       -2 0.45168965E-02 0.13716297E+03</pdfrwt>
<totfact> 0.11193399E+04</totfact>
</mgrwt>
</event>
<event>
 8    2  0.8128359E-004  0.1616542E+03  0.7818608E-02  0.1194280E+00
          2   -1    0    0  501    0  0.00000000000E+00  0.00000000000E+00  0.13449489966E+04  0.13449489966E+04  0.25500000000E-02 0. -1.
         -2   -1    0    0    0  501 -0.00000000000E+00 -0.00000000000E+00 -0.17113969462E+02  0.17113969652E+02  0.25500000000E-02 0.  1.
         25    2    1    2    0    0  0.46576677027E+02  0.91308682113E+02  0.83440230697E+03  0.84991722031E+03  0.12500163695E+03 0.  0.
         23    2    1    2    0    0 -0.46576677027E+02 -0.91308682113E+02  0.49343272019E+03  0.51214574596E+03  0.91163334073E+02 0.  0.
        -11    1    4    4    0    0 -0.32109647270E+02 -0.82971543065E+01  0.29089045313E+03  0.29277487587E+03  0.51100000000E-03 0. -1.
         11    1    4    4    0    0 -0.14467029756E+02 -0.83011527807E+02  0.20254226706E+03  0.21937087009E+03  0.51100000000E-03 0.  1.
    9000005    1    3    3    0    0  0.14796416225E+02 -0.28578906549E+02  0.98310092087E+02  0.10344835445E+03  0.10000000000E+01 0.  0.
    9000005    1    3    3    0    0  0.31780260801E+02  0.11988758866E+03  0.73609221488E+03  0.74646886586E+03  0.10000000000E+01 0.  0.
<mgrwt>
<rscale>  0 0.15515300E+03</rscale>
<asrwt>0</asrwt>
<pdfrwt beam="1">  1        2 0.20691528E+00 0.16165417E+03</pdfrwt>
<pdfrwt beam="2">  1       -2 0.26329178E-02 0.16165417E+03</pdfrwt>
<totfact> 0.83690497E+03</totfact>
</mgrwt>
</event>
<event>
 8    2  0.8128359E-004  0.1296138E+03  0.7818608E-02  0.1230487E+00
          2   -1    0    0  501    0  0.00000000000E+00  0.00000000000E+00  0.69246996025E+03  0.69246996025E+03  0.25500000000E-02 0.  1.
         -2   -1    0    0    0  501 -0.00000000000E+00 -0.00000000000E+00 -0.27611753279E+02  0.27611753397E+02  0.25500000000E-02 0. -1.
         25    2    1    2    0    0  0.16655093341E+01 -0.34269126980E+02  0.48540066724E+03  0.50240773563E+03  0.12499031194E+03 0.  0.
         23    2    1    2    0    0 -0.16655093341E+01  0.34269126980E+02  0.17945753973E+03  0.21767397802E+03  0.11832077229E+03 0.  0.
        -11    1    4    4    0    0  0.29437121227E+02 -0.23426053604E+02  0.14759030101E+02  0.40412288519E+02  0.51100000000E-03 0.  1.
         11    1    4    4    0    0 -0.31102630561E+02  0.57695180584E+02  0.16469850963E+03  0.17726168950E+03  0.51100000000E-03 0. -1.
    9000005    1    3    3    0    0  0.39874360455E+02 -0.29798577992E+02  0.44036193069E+03  0.44316763180E+03  0.10000000000E+01 0.  0.
    9000005    1    3    3    0    0 -0.38208851121E+02 -0.44705489876E+01  0.45038736554E+02  0.59240103837E+02  0.10000000000E+01 0.  0.
<mgrwt>
<rscale>  0 0.12797831E+03</rscale>
<asrwt>0</asrwt>
<pdfrwt beam="1">  1        2 0.10653384E+00 0.12961375E+03</pdfrwt>
<pdfrwt beam="2">  1       -2 0.42479622E-02 0.12961375E+03</pdfrwt>
<totfact> 0.10176705E+04</totfact>
</mgrwt>
</event>
<event>
 8    2  0.8128359E-004  0.1515539E+03  0.7818608E-02  0.1207535E+00
          2   -1    0    0  501    0  0.00000000000E+00  0.00000000000E+00  0.64428441895E+03  0.64428441896E+03  0.25500000000E-02 0. -1.
         -2   -1    0    0    0  501 -0.00000000000E+00 -0.00000000000E+00 -0.30790422193E+02  0.30790422299E+02  0.25500000000E-02 0.  1.
         25    2    1    2    0    0 -0.72333716694E+02  0.45936586067E+02  0.39986027603E+03  0.42761762033E+03  0.12500500932E+03 0.  0.
         23    2    1    2    0    0  0.72333716694E+02 -0.45936586067E+02  0.21363372073E+03  0.24745722093E+03  0.90848076742E+02 0.  0.
        -11    1    4    4    0    0 -0.21438311135E+02 -0.50952473150E+01  0.29466613316E+02  0.36794619581E+02  0.51100000000E-03 0. -1.
         11    1    4    4    0    0  0.93772027829E+02 -0.40841338752E+02  0.18416710741E+03  0.21066260135E+03  0.51100000000E-03 0.  1.
    9000005    1    3    3    0    0 -0.47884004534E+02 -0.39092745516E+02  0.13807477988E+03  0.15128372510E+03  0.10000000000E+01 0.  0.
    9000005    1    3    3    0    0 -0.24449712160E+02  0.85029331583E+02  0.26178549616E+03  0.27633389523E+03  0.10000000000E+01 0.  0.
<mgrwt>
<rscale>  0 0.14439462E+03</rscale>
<asrwt>0</asrwt>
<pdfrwt beam="1">  1        2 0.99120666E-01 0.15155391E+03</pdfrwt>
<pdfrwt beam="2">  1       -2 0.47369887E-02 0.15155391E+03</pdfrwt>
<totfact> 0.95026374E+03</totfact>
</mgrwt>
</event>
<event>
 8    2  0.8128359E-004  0.1572794E+03  0.7818608E-02  0.1195223E+00
          2   -1    0    0  501    0  0.00000000000E+00  0.00000000000E+00  0.26577581883E+03  0.26577581884E+03  0.25500000000E-02 0. -1.
         -2   -1    0    0    0  501 -0.00000000000E+00 -0.00000000000E+00 -0.87908877950E+02  0.87908877987E+02  0.25500000000E-02 0.  1.
         25    2    1    2    0    0  0.50845798998E+02 -0.80788679488E+02  0.11490150645E+03  0.19477977117E+03  0.12499878824E+03 0.  0.
         23    2    1    2    0    0 -0.50845798998E+02  0.80788679488E+02  0.62965434428E+02  0.15890492566E+03  0.11033595723E+03 0.  0.
        -11    1    4    4    0    0 -0.46563178651E+02  0.25121910016E+02 -0.21949137172E+02  0.57280054048E+02  0.51100000000E-03 0.  1.
         11    1    4    4    0    0 -0.42826203471E+01  0.55666769472E+02  0.84914571600E+02  0.10162487161E+03  0.51100000000E-03 0. -1.
    9000005    1    3    3    0    0  0.17726109076E+02 -0.10309757163E+03  0.11413687310E+03  0.15482748471E+03  0.10000000000E+01 0.  0.
    9000005    1    3    3    0    0  0.33119689923E+02  0.22308892144E+02  0.76463335478E+00  0.39952286461E+02  0.10000000000E+01 0.  0.
<mgrwt>
<rscale>  0 0.15435330E+03</rscale>
<asrwt>0</asrwt>
<pdfrwt beam="1">  1        2 0.40888587E-01 0.15727938E+03</pdfrwt>
<pdfrwt beam="2">  1       -2 0.13524443E-01 0.15727938E+03</pdfrwt>
<totfact> 0.49005331E+03</totfact>
</mgrwt>
</event>
<event>
 8    2  0.8128359E-004  0.1518205E+03  0.7818608E-02  0.1207077E+00
         -2   -1    0    0    0  501 -0.00000000000E+00  0.00000000000E+00  0.44290978839E+03  0.44290978840E+03  0.25500000000E-02 0.  1.
          2   -1    0    0  501    0  0.00000000000E+00 -0.00000000000E+00 -0.10220627126E+03  0.10220627129E+03  0.25500000000E-02 0. -1.
         25    2    1    2    0    0  0.67362880113E+02 -0.53734252746E+02 -0.29125182298E+02  0.15458898117E+03  0.12499739726E+03 0.  0.
         23    2    1    2    0    0 -0.67362880113E+02  0.53734252746E+02  0.36982869942E+03  0.39052707852E+03  0.91175679881E+02 0.  0.
        -11    1    4    4    0    0 -0.35165368958E+02  0.27363050990E+02  0.46024899393E+02  0.64059590209E+02  0.51100000000E-03 0. -1.
         11    1    4    4    0    0 -0.32197511155E+02  0.26371201756E+02  0.32380380003E+03  0.32646748831E+03  0.51100000000E-03 0.  1.
    9000005    1    3    3    0    0  0.15022215939E+02  0.40595501056E+02 -0.14813039844E+02  0.45761204389E+02  0.10000000000E+01 0.  0.
    9000005    1    3    3    0    0  0.52340664173E+02 -0.94329753801E+02 -0.14312142454E+02  0.10882777678E+03  0.10000000000E+01 0.  0.
<mgrwt>
<rscale>  0 0.14474949E+03</rscale>
<asrwt>0</asrwt>
<pdfrwt beam="2">  1        2 0.15724042E-01 0.15182054E+03</pdfrwt>
<pdfrwt beam="1">  1       -2 0.68139967E-01 0.15182054E+03</pdfrwt>
<totfact> 0.73566061E+02</totfact>
</mgrwt>
</event>
<event>
 8    2  0.8128359E-004  0.1536399E+03  0.7818608E-02  0.1204495E+00
          2   -1    0    0  501    0  0.00000000000E+00  0.00000000000E+00  0.64425816762E+03  0.64425816763E+03  0.25500000000E-02 0. -1.
         -2   -1    0    0    0  501 -0.00000000000E+00 -0.00000000000E+00 -0.31397577047E+02  0.31397577151E+02  0.25500000000E-02 0.  1.
         25    2    1    2    0    0  0.50715700583E+02  0.73516079647E+02  0.28629374214E+03  0.32491432964E+03  0.12501407347E+03 0.  0.
         23    2    1    2    0    0 -0.50715700583E+02 -0.73516079647E+02  0.32656684844E+03  0.35074141514E+03  0.91634805307E+02 0.  0.
        -11    1    4    4    0    0 -0.38595375318E+02 -0.36309949784E+02  0.55016035055E+02  0.76385728790E+02  0.51100000000E-03 0.  1.
         11    1    4    4    0    0 -0.12120325265E+02 -0.37206129863E+02  0.27155081338E+03  0.27435568635E+03  0.51100000000E-03 0. -1.
    9000005    1    3    3    0    0  0.52862617053E+02  0.90416662188E+02  0.12659976615E+03  0.16431107653E+03  0.10000000000E+01 0.  0.
    9000005    1    3    3    0    0 -0.21469164703E+01 -0.16900582541E+02  0.15969397599E+03  0.16060325311E+03  0.10000000000E+01 0.  0.
<mgrwt>
<rscale>  0 0.14677298E+03</rscale>
<asrwt>0</asrwt>
<pdfrwt beam="1">  1        2 0.99116634E-01 0.15363989E+03</pdfrwt>
<pdfrwt beam="2">  1       -2 0.48303968E-02 0.15363989E+03</pdfrwt>
<totfact> 0.92359884E+03</totfact>
</mgrwt>
</event>
<event>
 8    2  0.8128359E-004  0.1289607E+03  0.7818608E-02  0.1243083E+00
          2   -1    0    0  501    0  0.00000000000E+00  0.00000000000E+00  0.20626856222E+04  0.20626856222E+04  0.25500000000E-02 0. -1.
         -2   -1    0    0    0  501 -0.00000000000E+00 -0.00000000000E+00 -0.99491403183E+01  0.99491406451E+01  0.25500000000E-02 0.  1.
         25    2    1    2    0    0  0.98656346914E+01  0.30104121206E+02  0.17517930160E+04  0.17565334164E+04  0.12500913293E+03 0.  0.
         23    2    1    2    0    0 -0.98656346914E+01 -0.30104121206E+02  0.30094346595E+03  0.31610134647E+03  0.91375613165E+02 0.  0.
        -11    1    4    4    0    0 -0.58799687934E+01 -0.55361850356E+02  0.27129922027E+03  0.27695265918E+03  0.51100000000E-03 0. -1.
         11    1    4    4    0    0 -0.39856658980E+01  0.25257729150E+02  0.29644245684E+02  0.39148687295E+02  0.51100000000E-03 0.  1.
    9000005    1    3    3    0    0 -0.47889575537E+02  0.19371083395E+02  0.38168987677E+03  0.38517114682E+03  0.10000000000E+01 0.  0.
    9000005    1    3    3    0    0  0.57755210228E+02  0.10733037811E+02  0.13701031392E+04  0.13713622696E+04  0.10000000000E+01 0.  0.
<mgrwt>
<rscale>  0 0.12000865E+03</rscale>
<asrwt>0</asrwt>
<pdfrwt beam="1">  1        2 0.31733686E+00 0.12896074E+03</pdfrwt>
<pdfrwt beam="2">  1       -2 0.15306341E-02 0.12896074E+03</pdfrwt>
<totfact> 0.77789502E+03</totfact>
</mgrwt>
</event>
<event>
 8    2  0.8128359E-004  0.1277739E+03  0.7818608E-02  0.1249894E+00
         -2   -1    0    0    0  501 -0.00000000000E+00  0.00000000000E+00  0.47339810881E+03  0.47339810882E+03  0.25500000000E-02 0.  1.
          2   -1    0    0  501    0  0.00000000000E+00 -0.00000000000E+00 -0.35732479268E+02  0.35732479359E+02  0.25500000000E-02 0. -1.
         25    2    1    2    0    0 -0.24450863383E+02  0.10180482679E+02  0.10509878368E+03  0.16544466283E+03  0.12499878072E+03 0.  0.
         23    2    1    2    0    0  0.24450863383E+02 -0.10180482679E+02  0.33256684586E+03  0.34368592535E+03  0.82570099713E+02 0.  0.
        -11    1    4    4    0    0  0.34369310160E+01  0.30150527359E+02  0.58812761986E+02  0.66180116103E+02  0.51100000000E-03 0. -1.
         11    1    4    4    0    0  0.21013932367E+02 -0.40331010037E+02  0.27375408388E+03  0.27750580924E+03  0.51100000000E-03 0.  1.
    9000005    1    3    3    0    0  0.91007384875E+01 -0.21606886166E+00 -0.27125995532E+02  0.28630224595E+02  0.10000000000E+01 0.  0.
    9000005    1    3    3    0    0 -0.33551601870E+02  0.10396551540E+02  0.13222477921E+03  0.13681443824E+03  0.10000000000E+01 0.  0.
<mgrwt>
<rscale>  0 0.11597222E+03</rscale>
<asrwt>0</asrwt>
<pdfrwt beam="2">  1        2 0.54973048E-02 0.12777395E+03</pdfrwt>
<pdfrwt beam="1">  1       -2 0.72830474E-01 0.12777395E+03</pdfrwt>
<totfact> 0.23202583E+03</totfact>
</mgrwt>
</event>
<event>
 8    2  0.8128359E-004  0.1665799E+03  0.7818608E-02  0.1188439E+00
          2   -1    0    0  501    0  0.00000000000E+00  0.00000000000E+00  0.10507886354E+04  0.10507886354E+04  0.25500000000E-02 0.  1.
         -2   -1    0    0    0  501 -0.00000000000E+00 -0.00000000000E+00 -0.22741909921E+02  0.22741910064E+02  0.25500000000E-02 0. -1.
         25    2    1    2    0    0  0.10746948135E+03 -0.23966587802E+02  0.55507227023E+03  0.57952918255E+03  0.12499904598E+03 0.  0.
         23    2    1    2    0    0 -0.10746948135E+03  0.23966587802E+02  0.47297445529E+03  0.49400136296E+03  0.90600355941E+02 0.  0.
        -11    1    4    4    0    0 -0.23009689903E+02  0.48340820156E+02  0.14958945163E+03  0.15888135436E+03  0.51100000000E-03 0.  1.
         11    1    4    4    0    0 -0.84459791444E+02 -0.24374232354E+02  0.32338500366E+03  0.33512000860E+03  0.51100000000E-03 0. -1.
    9000005    1    3    3    0    0  0.34518720322E+02 -0.71527307868E+02  0.27264258980E+03  0.28397654761E+03  0.10000000000E+01 0.  0.
    9000005    1    3    3    0    0  0.72950761025E+02  0.47560720065E+02  0.28242968043E+03  0.29555263493E+03  0.10000000000E+01 0.  0.
<mgrwt>
<rscale>  0 0.16022886E+03</rscale>
<asrwt>0</asrwt>
<pdfrwt beam="1">  1        2 0.16165982E+00 0.16657986E+03</pdfrwt>
<pdfrwt beam="2">  1       -2 0.34987548E-02 0.16657986E+03</pdfrwt>
<totfact> 0.80456194E+03</totfact>
</mgrwt>
</event>
<event>
 8    2  0.8128359E-004  0.1448715E+03  0.7818608E-02  0.1216896E+00
          2   -1    0    0  501    0  0.00000000000E+00  0.00000000000E+00  0.21504885107E+03  0.21504885109E+03  0.25500000000E-02 0. -1.
         -2   -1    0    0    0  501 -0.00000000000E+00 -0.00000000000E+00 -0.82465539021E+02  0.82465539061E+02  0.25500000000E-02 0.  1.
         25    2    1    2    0    0  0.67074432651E+02  0.29367447106E+02  0.99586689813E+02  0.17579888305E+03  0.12500524801E+03 0.  0.
         23    2    1    2    0    0 -0.67074432651E+02 -0.29367447106E+02  0.32996622236E+02  0.12171550709E+03  0.91457427928E+02 0.  0.
        -11    1    4    4    0    0 -0.40456236830E+02 -0.21487507307E+02  0.64891888167E+02  0.79431588294E+02  0.51100000000E-03 0. -1.
         11    1    4    4    0    0 -0.26618195821E+02 -0.78799397986E+01 -0.31895265932E+02  0.42283918800E+02  0.51100000000E-03 0.  1.
    9000005    1    3    3    0    0 -0.21576064741E+01  0.63321413565E+02  0.66585630738E+02  0.91917913936E+02  0.10000000000E+01 0.  0.
    9000005    1    3    3    0    0  0.69232039125E+02 -0.33953966460E+02  0.33001059075E+02  0.83880969116E+02  0.10000000000E+01 0.  0.
<mgrwt>
<rscale>  0 0.13738195E+03</rscale>
<asrwt>0</asrwt>
<pdfrwt beam="1">  1        2 0.33084438E-01 0.14487146E+03</pdfrwt>
<pdfrwt beam="2">  1       -2 0.12687006E-01 0.14487146E+03</pdfrwt>
<totfact> 0.67836455E+03</totfact>
</mgrwt>
</event>
<event>
 8    2  0.8128359E-004  0.1325125E+03  0.7818608E-02  0.1236840E+00
          2   -1    0    0  501    0  0.00000000000E+00  0.00000000000E+00  0.30474061938E+04  0.30474061938E+04  0.25500000000E-02 0. -1.
         -2   -1    0    0    0  501 -0.00000000000E+00 -0.00000000000E+00 -0.47685725563E+01  0.47685732381E+01  0.25500000000E-02 0.  1.
         25    2    1    2    0    0 -0.43413932477E+02  0.70076838913E+01  0.20847134393E+04  0.20889206973E+04  0.12500271484E+03 0.  0.
         23    2    1    2    0    0  0.43413932477E+02 -0.70076838913E+01  0.95792418202E+03  0.96325406975E+03  0.91136091775E+02 0.  0.
        -11    1    4    4    0    0  0.10841415198E+02  0.25872541403E+02  0.94135787309E+02  0.98226631495E+02  0.51100000000E-03 0.  1.
         11    1    4    4    0    0  0.32572517279E+02 -0.32880225294E+02  0.86378839471E+03  0.86502743826E+03  0.51100000000E-03 0. -1.
    9000005    1    3    3    0    0 -0.81324161578E+02  0.28718470817E+02  0.11770359979E+04  0.11801919803E+04  0.10000000000E+01 0.  0.
    9000005    1    3    3    0    0  0.37910229101E+02 -0.21710786926E+02  0.90767744132E+03  0.90872871706E+03  0.10000000000E+01 0.  0.
<mgrwt>
<rscale>  0 0.12387347E+03</rscale>
<asrwt>0</asrwt>
<pdfrwt beam="1">  1        2 0.46883196E+00 0.13251247E+03</pdfrwt>
<pdfrwt beam="2">  1       -2 0.73362622E-03 0.13251247E+03</pdfrwt>
<totfact> 0.65444382E+03</totfact>
</mgrwt>
</event>
<event>
 8    2  0.8128359E-004  0.1551197E+03  0.7818608E-02  0.1202633E+00
         -2   -1    0    0    0  501 -0.00000000000E+00  0.00000000000E+00  0.41460807234E+02  0.41460807312E+02  0.25500000000E-02 0.  1.
          2   -1    0    0  501    0  0.00000000000E+00 -0.00000000000E+00 -0.52156687930E+03  0.52156687931E+03  0.25500000000E-02 0. -1.
         25    2    1    2    0    0 -0.41193607698E+02 -0.82095973370E+02 -0.18944213418E+03  0.24484779433E+03  0.12500183210E+03 0.  0.
         23    2    1    2    0    0  0.41193607698E+02  0.82095973370E+02 -0.29066393789E+03  0.31817989229E+03  0.91193513529E+02 0.  0.
        -11    1    4    4    0    0 -0.35513712797E+01  0.63544923919E+02 -0.23913239883E+03  0.24745681192E+03  0.51100000000E-03 0. -1.
         11    1    4    4    0    0  0.44744978977E+02  0.18551049451E+02 -0.51531539061E+02  0.70723080374E+02  0.51100000000E-03 0.  1.
    9000005    1    3    3    0    0 -0.16792442549E+02 -0.63318997417E+02 -0.20141099802E+03  0.21179865836E+03  0.10000000000E+01 0.  0.
    9000005    1    3    3    0    0 -0.24401165149E+02 -0.18776975953E+02  0.11968863841E+02  0.33049135968E+02  0.10000000000E+01 0.  0.
<mgrwt>
<rscale>  0 0.14825574E+03</rscale>
<asrwt>0</asrwt>
<pdfrwt beam="2">  1        2 0.80241053E-01 0.15511970E+03</pdfrwt>
<pdfrwt beam="1">  1       -2 0.63785861E-02 0.15511970E+03</pdfrwt>
<totfact> 0.77099117E+03</totfact>
</mgrwt>
</event>
<event>
 8    2  0.8128359E-004  0.1375480E+03  0.7818608E-02  0.1229096E+00
         -2   -1    0    0    0  501 -0.00000000000E+00  0.00000000000E+00  0.41894141481E+01  0.41894149242E+01  0.25500000000E-02 0. -1.
          2   -1    0    0  501    0  0.00000000000E+00 -0.00000000000E+00 -0.35421349914E+04  0.35421349914E+04  0.25500000000E-02 0.  1.
         25    2    1    2    0    0  0.54367415783E+02 -0.18406098485E+02 -0.19981014755E+04  0.20028302386E+04  0.12499943141E+03 0.  0.
         23    2    1    2    0    0 -0.54367415783E+02  0.18406098485E+02 -0.15398441017E+04  0.15434941677E+04  0.89217642724E+02 0.  0.
        -11    1    4    4    0    0 -0.47911478939E+02  0.22354353274E+02 -0.15307521696E+04  0.15316649215E+04  0.51100000000E-03 0.  1.
         11    1    4    4    0    0 -0.64559368441E+01 -0.39482547899E+01 -0.90919320986E+01  0.11829246213E+02  0.51100000000E-03 0. -1.
    9000005    1    3    3    0    0 -0.30866189520E+02  0.46606951209E+01 -0.18804423081E+03  0.19062024152E+03  0.10000000000E+01 0.  0.
    9000005    1    3    3    0    0  0.85233605303E+02 -0.23066793606E+02 -0.18100572447E+04  0.18122099971E+04  0.10000000000E+01 0.  0.
<mgrwt>
<rscale>  0 0.12890091E+03</rscale>
<asrwt>0</asrwt>
<pdfrwt beam="2">  1        2 0.54494145E+00 0.13754802E+03</pdfrwt>
<pdfrwt beam="1">  1       -2 0.64452815E-03 0.13754802E+03</pdfrwt>
<totfact> 0.38963374E+03</totfact>
</mgrwt>
</event>
<event>
 8    2  0.8128359E-004  0.1470598E+03  0.7818608E-02  0.1212446E+00
          2   -1    0    0  501    0  0.00000000000E+00  0.00000000000E+00  0.33481996661E+03  0.33481996662E+03  0.25500000000E-02 0. -1.
         -2   -1    0    0    0  501 -0.00000000000E+00 -0.00000000000E+00 -0.61694582556E+02  0.61694582609E+02  0.25500000000E-02 0.  1.
         25    2    1    2    0    0  0.53632733334E+01  0.77283484296E+02  0.21479831610E+03  0.26031694579E+03  0.12500037607E+03 0.  0.
         23    2    1    2    0    0 -0.53632733334E+01 -0.77283484296E+02  0.58327067954E+02  0.13619760344E+03  0.95635969601E+02 0.  0.
        -11    1    4    4    0    0 -0.27511178816E+02 -0.47973286690E+01  0.53377987835E+02  0.60241919855E+02  0.51100000000E-03 0. -1.
         11    1    4    4    0    0  0.22147905483E+02 -0.72486155628E+02  0.49490801185E+01  0.75955683587E+02  0.51100000000E-03 0.  1.
    9000005    1    3    3    0    0  0.85685130107E+01 -0.31980267062E+02  0.81192819380E+02  0.87689399675E+02  0.10000000000E+01 0.  0.
    9000005    1    3    3    0    0 -0.32052396773E+01  0.10926375136E+03  0.13360549672E+03  0.17262754611E+03  0.10000000000E+01 0.  0.
<mgrwt>
<rscale>  0 0.14065787E+03</rscale>
<asrwt>0</asrwt>
<pdfrwt beam="1">  1        2 0.51510763E-01 0.14705984E+03</pdfrwt>
<pdfrwt beam="2">  1       -2 0.94914745E-02 0.14705984E+03</pdfrwt>
<totfact> 0.67117145E+03</totfact>
</mgrwt>
</event>
<event>
 8    2  0.8128359E-004  0.2377726E+03  0.7818608E-02  0.1124180E+00
          2   -1    0    0  501    0  0.00000000000E+00  0.00000000000E+00  0.80335440122E+03  0.80335440122E+03  0.25500000000E-02 0. -1.
         -2   -1    0    0    0  501 -0.00000000000E+00 -0.00000000000E+00 -0.65725055544E+02  0.65725055594E+02  0.25500000000E-02 0.  1.
         25    2    1    2    0    0 -0.89733560821E+02  0.18126944521E+03  0.36089598750E+03  0.43218252310E+03  0.12500038309E+03 0.  0.
         23    2    1    2    0    0  0.89733560821E+02 -0.18126944521E+03  0.37673335818E+03  0.43689693372E+03  0.89667072132E+02 0.  0.
        -11    1    4    4    0    0  0.10035131033E+02 -0.89600553348E+02  0.99803817423E+02  0.13449819697E+03  0.51100000000E-03 0.  1.
         11    1    4    4    0    0  0.79698429789E+02 -0.91668891866E+02  0.27692954075E+03  0.30239873675E+03  0.51100000000E-03 0. -1.
    9000005    1    3    3    0    0 -0.99223320439E+02  0.18992786383E+03  0.36039327744E+03  0.41928769980E+03  0.10000000000E+01 0.  0.
    9000005    1    3    3    0    0  0.94897596176E+01 -0.86584186165E+01  0.50271005995E+00  0.12894823300E+02  0.10000000000E+01 0.  0.
<mgrwt>
<rscale>  0 0.23352935E+03</rscale>
<asrwt>0</asrwt>
<pdfrwt beam="1">  1        2 0.12359298E+00 0.23777262E+03</pdfrwt>
<pdfrwt beam="2">  1       -2 0.10111547E-01 0.23777262E+03</pdfrwt>
<totfact> 0.22925207E+03</totfact>
</mgrwt>
</event>
<event>
 8    2  0.8128359E-004  0.1517962E+03  0.7818608E-02  0.1206455E+00
         -2   -1    0    0    0  501 -0.00000000000E+00  0.00000000000E+00  0.93505794425E+01  0.93505797902E+01  0.25500000000E-02 0. -1.
          2   -1    0    0  501    0  0.00000000000E+00 -0.00000000000E+00 -0.20991343067E+04  0.20991343067E+04  0.25500000000E-02 0.  1.
         25    2    1    2    0    0 -0.82408481477E+02  0.25109176089E+02 -0.10389899178E+04  0.10500200573E+04  0.12498177004E+03 0.  0.
         23    2    1    2    0    0  0.82408481477E+02 -0.25109176089E+02 -0.10507938094E+04  0.10584648292E+04  0.93587051226E+02 0.  0.
        -11    1    4    4    0    0  0.68159933893E+02  0.26229420283E+02 -0.54469658780E+03  0.54957086152E+03  0.51100000000E-03 0.  1.
         11    1    4    4    0    0  0.14248547584E+02 -0.51338596372E+02 -0.50609722164E+03  0.50889396767E+03  0.51100000000E-03 0. -1.
    9000005    1    3    3    0    0 -0.50500838562E+02  0.15260753414E+02 -0.98578434793E+03  0.98719552568E+03  0.10000000000E+01 0.  0.
    9000005    1    3    3    0    0 -0.31907642914E+02  0.98484226753E+01 -0.53205569892E+02  0.62824531619E+02  0.10000000000E+01 0.  0.
<mgrwt>
<rscale>  0 0.14523405E+03</rscale>
<asrwt>0</asrwt>
<pdfrwt beam="2">  1        2 0.32294336E+00 0.15179615E+03</pdfrwt>
<pdfrwt beam="1">  1       -2 0.14385524E-02 0.15179615E+03</pdfrwt>
<totfact> 0.81790180E+03</totfact>
</mgrwt>
</event>
<event>
 8    2  0.8128359E-004  0.1367302E+03  0.7818608E-02  0.1230095E+00
         -2   -1    0    0    0  501 -0.00000000000E+00  0.00000000000E+00  0.26177698728E+02  0.26177698852E+02  0.25500000000E-02 0.  1.
          2   -1    0    0  501    0  0.00000000000E+00 -0.00000000000E+00 -0.59178179793E+03  0.59178179794E+03  0.25500000000E-02 0. -1.
         25    2    1    2    0    0  0.54004022763E+02 -0.12263285913E+02 -0.24794862175E+03  0.28314953539E+03  0.12501327013E+03 0.  0.
         23    2    1    2    0    0 -0.54004022763E+02  0.12263285913E+02 -0.31765547746E+03  0.33480996140E+03  0.90143692184E+02 0.  0.
        -11    1    4    4    0    0 -0.94114572975E+01  0.13516315767E+02 -0.26748123730E+01  0.16685950433E+02  0.51100000000E-03 0.  1.
         11    1    4    4    0    0 -0.44592565465E+02 -0.12530298543E+01 -0.31498066508E+03  0.31812401097E+03  0.51100000000E-03 0. -1.
    9000005    1    3    3    0    0  0.47648054926E+02 -0.46205567004E+02 -0.52391933331E+02  0.84564804964E+02  0.10000000000E+01 0.  0.
    9000005    1    3    3    0    0  0.63559678368E+01  0.33942281092E+02 -0.19555668842E+03  0.19858473043E+03  0.10000000000E+01 0.  0.
<mgrwt>
<rscale>  0 0.12823754E+03</rscale>
<asrwt>0</asrwt>
<pdfrwt beam="2">  1        2 0.91043344E-01 0.13673017E+03</pdfrwt>
<pdfrwt beam="1">  1       -2 0.40273387E-02 0.13673017E+03</pdfrwt>
<totfact> 0.13261131E+04</totfact>
</mgrwt>
</event>
<event>
 8    2  0.8128359E-004  0.1275107E+03  0.7818608E-02  0.1245403E+00
          2   -1    0    0  501    0  0.00000000000E+00  0.00000000000E+00  0.25153865449E+03  0.25153865451E+03  0.25500000000E-02 0.  1.
         -2   -1    0    0    0  501 -0.00000000000E+00 -0.00000000000E+00 -0.50231405157E+02  0.50231405222E+02  0.25500000000E-02 0. -1.
         25    2    1    2    0    0 -0.18676020486E+02 -0.16896342557E+02  0.13388606067E+03  0.18489040837E+03  0.12499882292E+03 0.  0.
         23    2    1    2    0    0  0.18676020486E+02  0.16896342557E+02  0.67421188662E+02  0.11687965136E+03  0.92092106544E+02 0.  0.
        -11    1    4    4    0    0  0.48498278865E+02 -0.45883441587E+01  0.11654067354E+02  0.50089452394E+02  0.51100000000E-03 0.  1.
         11    1    4    4    0    0 -0.29822258380E+02  0.21484686716E+02  0.55767121308E+02  0.66790198962E+02  0.51100000000E-03 0. -1.
    9000005    1    3    3    0    0  0.20871826685E+02  0.79123683350E+01 -0.16270919374E+02  0.27640215974E+02  0.10000000000E+01 0.  0.
    9000005    1    3    3    0    0 -0.39547847170E+02 -0.24808710892E+02  0.15015698005E+03  0.15725019240E+03  0.10000000000E+01 0.  0.
<mgrwt>
<rscale>  0 0.11861266E+03</rscale>
<asrwt>0</asrwt>
<pdfrwt beam="1">  1        2 0.38698254E-01 0.12751073E+03</pdfrwt>
<pdfrwt beam="2">  1       -2 0.77279086E-02 0.12751073E+03</pdfrwt>
<totfact> 0.12380132E+04</totfact>
</mgrwt>
</event>
<event>
 8    2  0.8128359E-004  0.1269091E+03  0.7818608E-02  0.1246606E+00
          2   -1    0    0  501    0  0.00000000000E+00  0.00000000000E+00  0.31196992605E+03  0.31196992606E+03  0.25500000000E-02 0. -1.
         -2   -1    0    0    0  501 -0.00000000000E+00 -0.00000000000E+00 -0.42404289334E+02  0.42404289411E+02  0.25500000000E-02 0.  1.
         25    2    1    2    0    0 -0.61127369069E+01  0.21058537649E+02  0.20056897857E+03  0.23734750031E+03  0.12500037272E+03 0.  0.
         23    2    1    2    0    0  0.61127369069E+01 -0.21058537649E+02  0.68996658152E+02  0.11702671516E+03  0.91945014358E+02 0.  0.
        -11    1    4    4    0    0 -0.15679175059E+02 -0.48571227960E+02  0.16049410118E+02  0.53503124035E+02  0.51100000000E-03 0.  1.
         11    1    4    4    0    0  0.21791911966E+02  0.27512690310E+02  0.52947248034E+02  0.63523591128E+02  0.51100000000E-03 0. -1.
    9000005    1    3    3    0    0 -0.18521868215E+02 -0.26287462738E+02  0.18226408459E+03  0.18508183820E+03  0.10000000000E+01 0.  0.
    9000005    1    3    3    0    0  0.12409131308E+02  0.47346000387E+02  0.18304893976E+02  0.52265662112E+02  0.10000000000E+01 0.  0.
<mgrwt>
<rscale>  0 0.11789752E+03</rscale>
<asrwt>0</asrwt>
<pdfrwt beam="1">  1        2 0.47995373E-01 0.12690910E+03</pdfrwt>
<pdfrwt beam="2">  1       -2 0.65237369E-02 0.12690910E+03</pdfrwt>
<totfact> 0.12767360E+04</totfact>
</mgrwt>
</event>
<event>
 8    2  0.8128359E-004  0.1552279E+03  0.7818608E-02  0.1199794E+00
          2   -1    0    0  501    0  0.00000000000E+00  0.00000000000E+00  0.46670168115E+03  0.46670168115E+03  0.25500000000E-02 0. -1.
         -2   -1    0    0    0  501 -0.00000000000E+00 -0.00000000000E+00 -0.45949738012E+02  0.45949738083E+02  0.25500000000E-02 0.  1.
         25    2    1    2    0    0 -0.44236941558E+02 -0.80700551646E+02  0.23467715205E+03  0.28136999483E+03  0.12500488896E+03 0.  0.
         23    2    1    2    0    0  0.44236941558E+02  0.80700551646E+02  0.18607479108E+03  0.23128142440E+03  0.10196952173E+03 0.  0.
        -11    1    4    4    0    0  0.34858802176E+02  0.79747496800E+02  0.19788013325E+03  0.21617434276E+03  0.51100000000E-03 0. -1.
         11    1    4    4    0    0  0.93781393829E+01  0.95305484567E+00 -0.11805342163E+02  0.15107081639E+02  0.51100000000E-03 0.  1.
    9000005    1    3    3    0    0  0.30026010356E+02 -0.11408097319E+02  0.82115907201E+01  0.33168301200E+02  0.10000000000E+01 0.  0.
    9000005    1    3    3    0    0 -0.74262951915E+02 -0.69292454327E+02  0.22646556133E+03  0.24820169363E+03  0.10000000000E+01 0.  0.
<mgrwt>
<rscale>  0 0.15055356E+03</rscale>
<asrwt>0</asrwt>
<pdfrwt beam="1">  1        2 0.71800265E-01 0.15522792E+03</pdfrwt>
<pdfrwt beam="2">  1       -2 0.70691899E-02 0.15522792E+03</pdfrwt>
<totfact> 0.74448236E+03</totfact>
</mgrwt>
</event>
<event>
 8    2  0.8128359E-004  0.1513311E+03  0.7818608E-02  0.1208270E+00
          2   -1    0    0  501    0  0.00000000000E+00  0.00000000000E+00  0.24353751027E+03  0.24353751029E+03  0.25500000000E-02 0. -1.
         -2   -1    0    0    0  501 -0.00000000000E+00 -0.00000000000E+00 -0.77838844707E+02  0.77838844749E+02  0.25500000000E-02 0.  1.
         25    2    1    2    0    0 -0.71395689631E+02  0.46775122837E+02  0.10139854062E+03  0.18216134854E+03  0.12496333962E+03 0.  0.
         23    2    1    2    0    0  0.71395689631E+02 -0.46775122837E+02  0.64300124949E+02  0.13921500650E+03  0.89224746295E+02 0.  0.
        -11    1    4    4    0    0  0.72416663973E+02 -0.17239435795E+02  0.76953866969E+02  0.10706665685E+03  0.51100000000E-03 0. -1.
         11    1    4    4    0    0 -0.10209743422E+01 -0.29535687043E+02 -0.12653742019E+02  0.32148349647E+02  0.51100000000E-03 0.  1.
    9000005    1    3    3    0    0 -0.86657591100E+02  0.67282043688E+02  0.41984741975E+02  0.11747395480E+03  0.10000000000E+01 0.  0.
    9000005    1    3    3    0    0  0.15261901469E+02 -0.20506920851E+02  0.59413798643E+02  0.64687393737E+02  0.10000000000E+01 0.  0.
<mgrwt>
<rscale>  0 0.14382742E+03</rscale>
<asrwt>0</asrwt>
<pdfrwt beam="1">  1        2 0.37467309E-01 0.15133107E+03</pdfrwt>
<pdfrwt beam="2">  1       -2 0.11975207E-01 0.15133107E+03</pdfrwt>
<totfact> 0.65298610E+03</totfact>
</mgrwt>
</event>
<event>
 8    2  0.8128359E-004  0.2037655E+03  0.7818608E-02  0.1151216E+00
         -2   -1    0    0    0  501 -0.00000000000E+00  0.00000000000E+00  0.25808541045E+02  0.25808541171E+02  0.25500000000E-02 0.  1.
          2   -1    0    0  501    0  0.00000000000E+00 -0.00000000000E+00 -0.15519384099E+04  0.15519384099E+04  0.25500000000E-02 0. -1.
         25    2    1    2    0    0 -0.83200915512E+02  0.13773986702E+03 -0.10076454225E+04  0.10280416742E+04  0.12500289209E+03 0.  0.
         23    2    1    2    0    0  0.83200915512E+02 -0.13773986702E+03 -0.51848444639E+03  0.54970527694E+03  0.86342961718E+02 0.  0.
        -11    1    4    4    0    0  0.34095968230E+02 -0.12207410455E+03 -0.30925204540E+03  0.33421766805E+03  0.51100000000E-03 0. -1.
         11    1    4    4    0    0  0.49104947282E+02 -0.15665762471E+02 -0.20923240099E+03  0.21548760889E+03  0.51100000000E-03 0.  1.
    9000005    1    3    3    0    0 -0.17671113010E+02  0.13695598091E+03 -0.70015485924E+03  0.71364349353E+03  0.10000000000E+01 0.  0.
    9000005    1    3    3    0    0 -0.65529802502E+02  0.78388611439E+00 -0.30749056325E+03  0.31439818063E+03  0.10000000000E+01 0.  0.
<mgrwt>
<rscale>  0 0.19825978E+03</rscale>
<asrwt>0</asrwt>
<pdfrwt beam="2">  1        2 0.23875968E+00 0.20376552E+03</pdfrwt>
<pdfrwt beam="1">  1       -2 0.39705460E-02 0.20376552E+03</pdfrwt>
<totfact> 0.35489139E+03</totfact>
</mgrwt>
</event>
<event>
 8    2  0.8128359E-004  0.1503479E+03  0.7818608E-02  0.1208984E+00
          2   -1    0    0  501    0  0.00000000000E+00  0.00000000000E+00  0.58788035784E+03  0.58788035784E+03  0.25500000000E-02 0.  1.
         -2   -1    0    0    0  501 -0.00000000000E+00 -0.00000000000E+00 -0.35979116146E+02  0.35979116237E+02  0.25500000000E-02 0. -1.
         25    2    1    2    0    0 -0.49693930791E+02 -0.67151536318E+02  0.19632637321E+03  0.24728229998E+03  0.12500270187E+03 0.  0.
         23    2    1    2    0    0  0.49693930791E+02  0.67151536318E+02  0.35557486848E+03  0.37657717410E+03  0.91640959049E+02 0.  0.
        -11    1    4    4    0    0  0.39903025045E+02  0.50379054670E+01  0.25363157067E+03  0.25680071172E+03  0.51100000000E-03 0.  1.
         11    1    4    4    0    0  0.97909057455E+01  0.62113630851E+02  0.10194329781E+03  0.11977646238E+03  0.51100000000E-03 0. -1.
    9000005    1    3    3    0    0 -0.86167115385E+02 -0.30973892875E+02  0.86205207770E+02  0.12576363409E+03  0.10000000000E+01 0.  0.
    9000005    1    3    3    0    0  0.36473184594E+02 -0.36177643443E+02  0.11012116544E+03  0.12151866588E+03  0.10000000000E+01 0.  0.
<mgrwt>
<rscale>  0 0.14327867E+03</rscale>
<asrwt>0</asrwt>
<pdfrwt beam="1">  1        2 0.90443129E-01 0.15034790E+03</pdfrwt>
<pdfrwt beam="2">  1       -2 0.55352489E-02 0.15034790E+03</pdfrwt>
<totfact> 0.83453892E+03</totfact>
</mgrwt>
</event>
<event>
 8    2  0.8128359E-004  0.1284191E+03  0.7818608E-02  0.1243579E+00
          2   -1    0    0  501    0  0.00000000000E+00  0.00000000000E+00  0.11572574809E+04  0.11572574810E+04  0.25500000000E-02 0.  1.
         -2   -1    0    0    0  501 -0.00000000000E+00 -0.00000000000E+00 -0.14043053552E+02  0.14043053783E+02  0.25500000000E-02 0. -1.
         25    2    1    2    0    0  0.21881556793E+02  0.19704863775E+02  0.36223728566E+03  0.38432711030E+03  0.12499756959E+03 0.  0.
         23    2    1    2    0    0 -0.21881556793E+02 -0.19704863775E+02  0.78097714174E+03  0.78697342444E+03  0.92383930800E+02 0.  0.
        -11    1    4    4    0    0 -0.17823335031E+02 -0.51410205456E+02  0.64495168307E+03  0.64724288640E+03  0.51100000000E-03 0. -1.
         11    1    4    4    0    0 -0.40582217622E+01  0.31705341681E+02  0.13602545866E+03  0.13973053804E+03  0.51100000000E-03 0.  1.
    9000005    1    3    3    0    0  0.72577800284E+01  0.22252534176E+02  0.36772431689E+03  0.36846984121E+03  0.10000000000E+01 0.  0.
    9000005    1    3    3    0    0  0.14623776765E+02 -0.25476704017E+01 -0.54870312281E+01  0.15857269091E+02  0.10000000000E+01 0.  0.
<mgrwt>
<rscale>  0 0.11970827E+03</rscale>
<asrwt>0</asrwt>
<pdfrwt beam="1">  1        2 0.17803962E+00 0.12841914E+03</pdfrwt>
<pdfrwt beam="2">  1       -2 0.21604697E-02 0.12841914E+03</pdfrwt>
<totfact> 0.13996804E+04</totfact>
</mgrwt>
</event>
<event>
 8    2  0.8128359E-004  0.1921520E+03  0.7818608E-02  0.1161395E+00
         -2   -1    0    0    0  501 -0.00000000000E+00  0.00000000000E+00  0.12708563426E+02  0.12708563682E+02  0.25500000000E-02 0.  1.
          2   -1    0    0  501    0  0.00000000000E+00 -0.00000000000E+00 -0.32140146217E+04  0.32140146217E+04  0.25500000000E-02 0. -1.
         25    2    1    2    0    0 -0.13420518479E+03 -0.57320855342E+02 -0.97110522125E+03  0.98993320355E+03  0.12500273865E+03 0.  0.
         23    2    1    2    0    0  0.13420518479E+03  0.57320855342E+02 -0.22302008370E+04  0.22367899818E+04  0.90204973680E+02 0.  0.
        -11    1    4    4    0    0  0.32541869423E+02  0.20472106909E+02 -0.19704805157E+03  0.20076358000E+03  0.51100000000E-03 0.  1.
         11    1    4    4    0    0  0.10166331537E+03  0.36848748433E+02 -0.20331527854E+04  0.20360264018E+04  0.51100000000E-03 0. -1.
    9000005    1    3    3    0    0 -0.11648142054E+03 -0.95119559521E+02 -0.75742088790E+03  0.77220661313E+03  0.10000000000E+01 0.  0.
    9000005    1    3    3    0    0 -0.17723764252E+02  0.37798704179E+02 -0.21368433334E+03  0.21772659041E+03  0.10000000000E+01 0.  0.
<mgrwt>
<rscale>  0 0.18678381E+03</rscale>
<asrwt>0</asrwt>
<pdfrwt beam="2">  1        2 0.49446314E+00 0.19215201E+03</pdfrwt>
<pdfrwt beam="1">  1       -2 0.19551662E-02 0.19215201E+03</pdfrwt>
<totfact> 0.12558514E+03</totfact>
</mgrwt>
</event>
<event>
 8    2  0.8128359E-004  0.1530598E+03  0.7818608E-02  0.1205853E+00
         -2   -1    0    0    0  501 -0.00000000000E+00  0.00000000000E+00  0.12001375522E+02  0.12001375793E+02  0.25500000000E-02 0.  1.
          2   -1    0    0  501    0  0.00000000000E+00 -0.00000000000E+00 -0.16266508919E+04  0.16266508919E+04  0.25500000000E-02 0. -1.
         25    2    1    2    0    0  0.13141693752E+01 -0.88297368898E+02 -0.94347503382E+03  0.95580984208E+03  0.12501664839E+03 0.  0.
         23    2    1    2    0    0 -0.13141693752E+01  0.88297368898E+02 -0.67117448257E+03  0.68284242563E+03  0.89445177579E+02 0.  0.
        -11    1    4    4    0    0  0.28043358830E+02  0.34557497273E+02 -0.11506836773E+03  0.12337495631E+03  0.51100000000E-03 0.  1.
         11    1    4    4    0    0 -0.29357528206E+02  0.53739871625E+02 -0.55610611484E+03  0.55946746932E+03  0.51100000000E-03 0. -1.
    9000005    1    3    3    0    0  0.15755987539E+02  0.28284042732E+02 -0.29566619187E+03  0.29743526225E+03  0.10000000000E+01 0.  0.
    9000005    1    3    3    0    0 -0.14441818164E+02 -0.11658141163E+03 -0.64780884195E+03  0.65837457983E+03  0.10000000000E+01 0.  0.
<mgrwt>
<rscale>  0 0.14570459E+03</rscale>
<asrwt>0</asrwt>
<pdfrwt beam="2">  1        2 0.25025381E+00 0.15305984E+03</pdfrwt>
<pdfrwt beam="1">  1       -2 0.18463668E-02 0.15305984E+03</pdfrwt>
<totfact> 0.99725346E+03</totfact>
</mgrwt>
</event>
<event>
 8    2  0.8128359E-004  0.1323903E+03  0.7818608E-02  0.1237554E+00
         -2   -1    0    0    0  501 -0.00000000000E+00  0.00000000000E+00  0.15540546404E+02  0.15540546613E+02  0.25500000000E-02 0. -1.
          2   -1    0    0  501    0  0.00000000000E+00 -0.00000000000E+00 -0.89162491995E+03  0.89162491995E+03  0.25500000000E-02 0.  1.
         25    2    1    2    0    0 -0.39089114050E+02 -0.19348896724E+02 -0.56938770563E+03  0.58457637805E+03  0.12499937523E+03 0.  0.
         23    2    1    2    0    0  0.39089114050E+02  0.19348896724E+02 -0.30669666792E+03  0.32258908852E+03  0.89991862287E+02 0.  0.
        -11    1    4    4    0    0 -0.12870795758E+01  0.21083109776E+02 -0.10390626360E+02  0.23539736789E+02  0.51100000000E-03 0.  1.
         11    1    4    4    0    0  0.40376193626E+02 -0.17342130521E+01 -0.29630604156E+03  0.29904935173E+03  0.51100000000E-03 0. -1.
    9000005    1    3    3    0    0 -0.11272538410E+02  0.53237923533E+02 -0.25130676649E+03  0.25713311243E+03  0.10000000000E+01 0.  0.
    9000005    1    3    3    0    0 -0.27816575640E+02 -0.72586820257E+02 -0.31808093914E+03  0.32744326562E+03  0.10000000000E+01 0.  0.
<mgrwt>
<rscale>  0 0.12342319E+03</rscale>
<asrwt>0</asrwt>
<pdfrwt beam="2">  1        2 0.13717302E+00 0.13239027E+03</pdfrwt>
<pdfrwt beam="1">  1       -2 0.23908540E-02 0.13239027E+03</pdfrwt>
<totfact> 0.17380404E+04</totfact>
</mgrwt>
</event>
<event>
 8    2  0.8128359E-004  0.1371803E+03  0.7818608E-02  0.1225154E+00
         -2   -1    0    0    0  501 -0.00000000000E+00  0.00000000000E+00  0.38816595769E+02  0.38816595853E+02  0.25500000000E-02 0.  1.
          2   -1    0    0  501    0  0.00000000000E+00 -0.00000000000E+00 -0.46967932033E+03  0.46967932034E+03  0.25500000000E-02 0. -1.
         25    2    1    2    0    0  0.56275936860E+02 -0.51138049933E+01 -0.14319903966E+03  0.19830384009E+03  0.12500126385E+03 0.  0.
         23    2    1    2    0    0 -0.56275936860E+02  0.51138049933E+01 -0.28766368491E+03  0.31019207611E+03  0.10136861641E+03 0.  0.
        -11    1    4    4    0    0 -0.63023349671E+02  0.37781149129E+02 -0.24644875416E+03  0.25716987822E+03  0.51100000000E-03 0. -1.
         11    1    4    4    0    0  0.67474128106E+01 -0.32667344135E+02 -0.41214930744E+02  0.53022197889E+02  0.51100000000E-03 0.  1.
    9000005    1    3    3    0    0 -0.33422845418E+02 -0.92601214598E+01 -0.83631605286E+02  0.90543259539E+02  0.10000000000E+01 0.  0.
    9000005    1    3    3    0    0  0.89698782278E+02  0.41463164665E+01 -0.59567434370E+02  0.10776058055E+03  0.10000000000E+01 0.  0.
<mgrwt>
<rscale>  0 0.13156330E+03</rscale>
<asrwt>0</asrwt>
<pdfrwt beam="2">  1        2 0.72258353E-01 0.13718035E+03</pdfrwt>
<pdfrwt beam="1">  1       -2 0.59717843E-02 0.13718035E+03</pdfrwt>
<totfact> 0.94896803E+03</totfact>
</mgrwt>
</event>
<event>
 8    2  0.8128359E-004  0.1565011E+03  0.7818608E-02  0.1201082E+00
         -2   -1    0    0    0  501 -0.00000000000E+00  0.00000000000E+00  0.26746828670E+02  0.26746828791E+02  0.25500000000E-02 0.  1.
          2   -1    0    0  501    0  0.00000000000E+00 -0.00000000000E+00 -0.80304626916E+03  0.80304626916E+03  0.25500000000E-02 0. -1.
         25    2    1    2    0    0  0.94142264014E+02 -0.28124949741E+01 -0.33700945886E+03  0.37157497533E+03  0.12498764311E+03 0.  0.
         23    2    1    2    0    0 -0.94142264014E+02  0.28124949741E+01 -0.43928998162E+03  0.45821812262E+03  0.90097080631E+02 0.  0.
        -11    1    4    4    0    0 -0.56991062368E+02  0.36205393722E+02 -0.34467658775E+03  0.35122750727E+03  0.51100000000E-03 0. -1.
         11    1    4    4    0    0 -0.37151201645E+02 -0.33392898748E+02 -0.94613393879E+02  0.10699061535E+03  0.51100000000E-03 0.  1.
    9000005    1    3    3    0    0  0.12009965600E+03  0.19276817307E+02 -0.27747533548E+03  0.30296713495E+03  0.10000000000E+01 0.  0.
    9000005    1    3    3    0    0 -0.25957391988E+02 -0.22089312282E+02 -0.59534123379E+02  0.68607840386E+02  0.10000000000E+01 0.  0.
<mgrwt>
<rscale>  0 0.14950520E+03</rscale>
<asrwt>0</asrwt>
<pdfrwt beam="2">  1        2 0.12354556E+00 0.15650108E+03</pdfrwt>
<pdfrwt beam="1">  1       -2 0.41148973E-02 0.15650108E+03</pdfrwt>
<totfact> 0.90137266E+03</totfact>
</mgrwt>
</event>
<event>
 8    2  0.8128359E-004  0.1266888E+03  0.7818608E-02  0.1246337E+00
         -2   -1    0    0    0  501 -0.00000000000E+00  0.00000000000E+00  0.12861561327E+03  0.12861561329E+03  0.25500000000E-02 0.  1.
          2   -1    0    0  501    0  0.00000000000E+00 -0.00000000000E+00 -0.10543804751E+03  0.10543804754E+03  0.25500000000E-02 0. -1.
         25    2    1    2    0    0  0.11926348161E+02  0.16841128089E+02  0.47788201394E+02  0.13540225760E+03  0.12499679114E+03 0.  0.
         23    2    1    2    0    0 -0.11926348161E+02 -0.16841128089E+02 -0.24610635640E+02  0.98651403232E+02  0.93276763437E+02 0.  0.
        -11    1    4    4    0    0 -0.17726745606E+02 -0.78370946705E+01 -0.59278541912E+02  0.62366682565E+02  0.51100000000E-03 0. -1.
         11    1    4    4    0    0  0.58003974455E+01 -0.90040334190E+01  0.34667906272E+02  0.36284720667E+02  0.51100000000E-03 0.  1.
    9000005    1    3    3    0    0 -0.13022644007E+02 -0.43214281676E+02 -0.12367940457E+02  0.46808432455E+02  0.10000000000E+01 0.  0.
    9000005    1    3    3    0    0  0.24948992168E+02  0.60055409766E+02  0.60156141851E+02  0.88593825150E+02  0.10000000000E+01 0.  0.
<mgrwt>
<rscale>  0 0.11805687E+03</rscale>
<asrwt>0</asrwt>
<pdfrwt beam="2">  1        2 0.16221238E-01 0.12668883E+03</pdfrwt>
<pdfrwt beam="1">  1       -2 0.19787017E-01 0.12668883E+03</pdfrwt>
<totfact> 0.71534011E+03</totfact>
</mgrwt>
</event>
