<event>
 5    1  0.3284464E-002  0.1249931E+03  0.7818608E-02  0.1235080E+00
          4   -1    0    0  501    0  0.00000000000E+00  0.00000000000E+00  0.13459320010E+03  0.13459919173E+03  0.12700000000E+01 0. -1.
         -4   -1    0    0    0  501 -0.00000000000E+00 -0.00000000000E+00 -0.28998894256E+02  0.29026690615E+02  0.12700000000E+01 0. -1.
         25    2    1    2    0    0  0.00000000000E+00  0.00000000000E+00  0.10559430584E+03  0.16362588234E+03  0.12499308759E+03 0.  0.
    9000005    1    3    3    0    0  0.12762628616E+02 -0.19978714846E+01  0.13283258120E+03  0.13346299415E+03  0.10000000000E+01 0.  0.
    9000005    1    3    3    0    0 -0.12762628616E+02  0.19978714846E+01 -0.27238275355E+02  0.30162888190E+02  0.10000000000E+01 0.  0.
<mgrwt>
<rscale>  0 0.12499309E+03</rscale>
<asrwt>0</asrwt>
<pdfrwt beam="1">  1        4 0.20709246E-01 0.12499309E+03</pdfrwt>
<pdfrwt beam="2">  1       -4 0.44639673E-02 0.12499309E+03</pdfrwt>
<totfact> 0.96663274E+03</totfact>
</mgrwt>
</event>
<event>
 5    1  0.3284464E-002  0.1249985E+03  0.7818608E-02  0.1235072E+00
          4   -1    0    0  501    0  0.00000000000E+00  0.00000000000E+00  0.32163912406E+03  0.32164163136E+03  0.12700000000E+01 0.  1.
         -4   -1    0    0    0  501 -0.00000000000E+00 -0.00000000000E+00 -0.12108769596E+02  0.12175187930E+02  0.12700000000E+01 0.  1.
         25    2    1    2    0    0  0.00000000000E+00  0.00000000000E+00  0.30953035446E+03  0.33381681929E+03  0.12499851403E+03 0.  0.
    9000005    1    3    3    0    0  0.39682794062E+02  0.10836572866E+02  0.28039543056E+03  0.28339857609E+03  0.10000000000E+01 0.  0.
    9000005    1    3    3    0    0 -0.39682794062E+02 -0.10836572866E+02  0.29134923905E+02  0.50418243196E+02  0.10000000000E+01 0.  0.
<mgrwt>
<rscale>  0 0.12499851E+03</rscale>
<asrwt>0</asrwt>
<pdfrwt beam="1">  1        4 0.49488247E-01 0.12499851E+03</pdfrwt>
<pdfrwt beam="2">  1       -4 0.18681895E-02 0.12499851E+03</pdfrwt>
<totfact> 0.71544733E+03</totfact>
</mgrwt>
</event>
<event>
 5    1  0.3284464E-002  0.1250017E+03  0.7818608E-02  0.1235067E+00
          4   -1    0    0  501    0  0.00000000000E+00  0.00000000000E+00  0.54581614400E+02  0.54596387523E+02  0.12700000000E+01 0. -1.
         -4   -1    0    0    0  501 -0.00000000000E+00 -0.00000000000E+00 -0.71538970507E+02  0.71550242496E+02  0.12700000000E+01 0. -1.
         25    2    1    2    0    0  0.00000000000E+00  0.00000000000E+00 -0.16957356107E+02  0.12614663002E+03  0.12500168134E+03 0.  0.
    9000005    1    3    3    0    0  0.13782401816E+02 -0.17856170676E+02 -0.67292485282E+02  0.70979405509E+02  0.10000000000E+01 0.  0.
    9000005    1    3    3    0    0 -0.13782401816E+02  0.17856170676E+02  0.50335129175E+02  0.55167224510E+02  0.10000000000E+01 0.  0.
<mgrwt>
<rscale>  0 0.12500168E+03</rscale>
<asrwt>0</asrwt>
<pdfrwt beam="1">  1        4 0.83991750E-02 0.12500168E+03</pdfrwt>
<pdfrwt beam="2">  1       -4 0.11007999E-01 0.12500168E+03</pdfrwt>
<totfact> 0.10427351E+04</totfact>
</mgrwt>
</event>
<event>
 5    1  0.3284464E-002  0.1250013E+03  0.7818608E-02  0.1235067E+00
          4   -1    0    0  501    0  0.00000000000E+00  0.00000000000E+00  0.28969866162E+04  0.28969868945E+04  0.12700000000E+01 0.  1.
         -4   -1    0    0    0  501 -0.00000000000E+00 -0.00000000000E+00 -0.10490358439E+01  0.16472328924E+01  0.12700000000E+01 0.  1.
         25    2    1    2    0    0  0.00000000000E+00  0.00000000000E+00  0.28959375803E+04  0.28986341274E+04  0.12500134240E+03 0.  0.
    9000005    1    3    3    0    0 -0.35286360937E+02  0.31981396405E+02  0.50963855990E+03  0.51185974517E+03  0.10000000000E+01 0.  0.
    9000005    1    3    3    0    0  0.35286360937E+02 -0.31981396405E+02  0.23862990204E+04  0.23867743823E+04  0.10000000000E+01 0.  0.
<mgrwt>
<rscale>  0 0.12500134E+03</rscale>
<asrwt>0</asrwt>
<pdfrwt beam="1">  1        4 0.44573962E+00 0.12500134E+03</pdfrwt>
<pdfrwt beam="2">  1       -4 0.20742515E-03 0.12500134E+03</pdfrwt>
<totfact> 0.22378925E+02</totfact>
</mgrwt>
</event>
<event>
 5    1  0.3284464E-002  0.1250007E+03  0.7818608E-02  0.1235068E+00
         -4   -1    0    0    0  501 -0.00000000000E+00  0.00000000000E+00  0.68043220249E+01  0.69218276646E+01  0.12700000000E+01 0.  1.
          4   -1    0    0  501    0  0.00000000000E+00 -0.00000000000E+00 -0.56905766668E+03  0.56905908385E+03  0.12700000000E+01 0.  1.
         25    2    1    2    0    0  0.00000000000E+00  0.00000000000E+00 -0.56225334466E+03  0.57598091151E+03  0.12500074739E+03 0.  0.
    9000005    1    3    3    0    0 -0.50794624718E+02 -0.32073816665E+02 -0.36046592872E+03  0.36543879020E+03  0.10000000000E+01 0.  0.
    9000005    1    3    3    0    0  0.50794624718E+02  0.32073816665E+02 -0.20178741594E+03  0.21054212131E+03  0.10000000000E+01 0.  0.
<mgrwt>
<rscale>  0 0.12500075E+03</rscale>
<asrwt>0</asrwt>
<pdfrwt beam="2">  1        4 0.87556444E-01 0.12500075E+03</pdfrwt>
<pdfrwt beam="1">  1       -4 0.10559671E-02 0.12500075E+03</pdfrwt>
<totfact> 0.50418922E+03</totfact>
</mgrwt>
</event>
<event>
 5    1  0.3284464E-002  0.1250046E+03  0.7818608E-02  0.1235062E+00
         -4   -1    0    0    0  501 -0.00000000000E+00  0.00000000000E+00  0.14500658948E+03  0.14501215084E+03  0.12700000000E+01 0. -1.
          4   -1    0    0  501    0  0.00000000000E+00 -0.00000000000E+00 -0.26919352331E+02  0.26949293682E+02  0.12700000000E+01 0. -1.
         25    2    1    2    0    0  0.00000000000E+00  0.00000000000E+00  0.11808723715E+03  0.17196144453E+03  0.12500457122E+03 0.  0.
    9000005    1    3    3    0    0  0.45440884521E+02  0.31913115280E+02  0.98489151973E+02  0.11306827128E+03  0.10000000000E+01 0.  0.
    9000005    1    3    3    0    0 -0.45440884521E+02 -0.31913115280E+02  0.19598085175E+02  0.58893173250E+02  0.10000000000E+01 0.  0.
<mgrwt>
<rscale>  0 0.12500457E+03</rscale>
<asrwt>0</asrwt>
<pdfrwt beam="2">  1        4 0.41441698E-02 0.12500457E+03</pdfrwt>
<pdfrwt beam="1">  1       -4 0.22311437E-01 0.12500457E+03</pdfrwt>
<totfact> 0.95074556E+03</totfact>
</mgrwt>
</event>
<event>
 5    1  0.3284464E-002  0.1249931E+03  0.7818608E-02  0.1235080E+00
         -4   -1    0    0    0  501 -0.00000000000E+00  0.00000000000E+00  0.87620153494E+01  0.88535762821E+01  0.12700000000E+01 0. -1.
          4   -1    0    0  501    0  0.00000000000E+00 -0.00000000000E+00 -0.44335796425E+03  0.44335978320E+03  0.12700000000E+01 0. -1.
         25    2    1    2    0    0  0.00000000000E+00  0.00000000000E+00 -0.43459594890E+03  0.45221335949E+03  0.12499313460E+03 0.  0.
    9000005    1    3    3    0    0  0.39359644932E+01 -0.54396081285E+01  0.74709364681E+01  0.10094357077E+02  0.10000000000E+01 0.  0.
    9000005    1    3    3    0    0 -0.39359644932E+01  0.54396081285E+01 -0.44206688537E+03  0.44211900241E+03  0.10000000000E+01 0.  0.
<mgrwt>
<rscale>  0 0.12499313E+03</rscale>
<asrwt>0</asrwt>
<pdfrwt beam="2">  1        4 0.68216083E-01 0.12499313E+03</pdfrwt>
<pdfrwt beam="1">  1       -4 0.13551858E-02 0.12499313E+03</pdfrwt>
<totfact> 0.59781577E+03</totfact>
</mgrwt>
</event>
<event>
 5    1  0.3284464E-002  0.1249970E+03  0.7818608E-02  0.1235074E+00
          4   -1    0    0  501    0  0.00000000000E+00  0.00000000000E+00  0.65809366807E+01  0.67023598527E+01  0.12700000000E+01 0. -1.
         -4   -1    0    0    0  501 -0.00000000000E+00 -0.00000000000E+00 -0.58799385763E+03  0.58799522916E+03  0.12700000000E+01 0. -1.
         25    2    1    2    0    0  0.00000000000E+00  0.00000000000E+00 -0.58141292095E+03  0.59469758901E+03  0.12499695087E+03 0.  0.
    9000005    1    3    3    0    0  0.27803544446E+02  0.17644388635E+02 -0.54338889125E+03  0.54438667202E+03  0.10000000000E+01 0.  0.
    9000005    1    3    3    0    0 -0.27803544446E+02 -0.17644388635E+02 -0.38024029695E+02  0.50310916990E+02  0.10000000000E+01 0.  0.
<mgrwt>
<rscale>  0 0.12499695E+03</rscale>
<asrwt>0</asrwt>
<pdfrwt beam="1">  1        4 0.10218980E-02 0.12499695E+03</pdfrwt>
<pdfrwt beam="2">  1       -4 0.90469998E-01 0.12499695E+03</pdfrwt>
<totfact> 0.49207340E+03</totfact>
</mgrwt>
</event>
<event>
 5    1  0.3284464E-002  0.1250031E+03  0.7818608E-02  0.1235064E+00
         -4   -1    0    0    0  501 -0.00000000000E+00  0.00000000000E+00  0.10005201379E+04  0.10005209440E+04  0.12700000000E+01 0.  1.
          4   -1    0    0  501    0  0.00000000000E+00 -0.00000000000E+00 -0.38003105361E+01  0.40069015674E+01  0.12700000000E+01 0.  1.
         25    2    1    2    0    0  0.00000000000E+00  0.00000000000E+00  0.99671982741E+03  0.10045278455E+04  0.12500311244E+03 0.  0.
    9000005    1    3    3    0    0 -0.33386814831E+02 -0.52556050837E+02  0.54135574869E+03  0.54492555870E+03  0.10000000000E+01 0.  0.
    9000005    1    3    3    0    0  0.33386814831E+02  0.52556050837E+02  0.45536407871E+03  0.45960228684E+03  0.10000000000E+01 0.  0.
<mgrwt>
<rscale>  0 0.12500311E+03</rscale>
<asrwt>0</asrwt>
<pdfrwt beam="2">  1        4 0.60061618E-03 0.12500311E+03</pdfrwt>
<pdfrwt beam="1">  1       -4 0.15394228E+00 0.12500311E+03</pdfrwt>
<totfact> 0.30453347E+03</totfact>
</mgrwt>
</event>
<event>
 5    1  0.3284464E-002  0.1249528E+03  0.7818608E-02  0.1235143E+00
          4   -1    0    0  501    0  0.00000000000E+00  0.00000000000E+00  0.29512779418E+01  0.32129334711E+01  0.12700000000E+01 0. -1.
         -4   -1    0    0    0  501 -0.00000000000E+00 -0.00000000000E+00 -0.12661771222E+04  0.12661777591E+04  0.12700000000E+01 0. -1.
         25    2    1    2    0    0  0.00000000000E+00  0.00000000000E+00 -0.12632258442E+04  0.12693906926E+04  0.12495277839E+03 0.  0.
    9000005    1    3    3    0    0  0.25475829466E+01 -0.42860188507E+02 -0.10925672232E+04  0.10934110037E+04  0.10000000000E+01 0.  0.
    9000005    1    3    3    0    0 -0.25475829466E+01  0.42860188507E+02 -0.17065862106E+03  0.17597968883E+03  0.10000000000E+01 0.  0.
<mgrwt>
<rscale>  0 0.12495278E+03</rscale>
<asrwt>0</asrwt>
<pdfrwt beam="1">  1        4 0.47422011E-03 0.12495278E+03</pdfrwt>
<pdfrwt beam="2">  1       -4 0.19481624E+00 0.12495278E+03</pdfrwt>
<totfact> 0.22986419E+03</totfact>
</mgrwt>
</event>
<event>
 5    1  0.3284464E-002  0.1250011E+03  0.7818608E-02  0.1235068E+00
          4   -1    0    0  501    0  0.00000000000E+00  0.00000000000E+00  0.24575986135E+02  0.24608778809E+02  0.12700000000E+01 0. -1.
         -4   -1    0    0    0  501 -0.00000000000E+00 -0.00000000000E+00 -0.15880734159E+03  0.15881241967E+03  0.12700000000E+01 0. -1.
         25    2    1    2    0    0  0.00000000000E+00  0.00000000000E+00 -0.13423135545E+03  0.18342119848E+03  0.12500111706E+03 0.  0.
    9000005    1    3    3    0    0  0.31607011475E+02 -0.42779692326E+02 -0.11525334777E+03  0.12693872310E+03  0.10000000000E+01 0.  0.
    9000005    1    3    3    0    0 -0.31607011475E+02  0.42779692326E+02 -0.18978007685E+02  0.56482475384E+02  0.10000000000E+01 0.  0.
<mgrwt>
<rscale>  0 0.12500112E+03</rscale>
<asrwt>0</asrwt>
<pdfrwt beam="1">  1        4 0.37838342E-02 0.12500112E+03</pdfrwt>
<pdfrwt beam="2">  1       -4 0.24434811E-01 0.12500112E+03</pdfrwt>
<totfact> 0.93002448E+03</totfact>
</mgrwt>
</event>
<event>
 5    1  0.3284464E-002  0.1250023E+03  0.7818608E-02  0.1235066E+00
          4   -1    0    0  501    0  0.00000000000E+00  0.00000000000E+00  0.50757932729E+02  0.50773818400E+02  0.12700000000E+01 0.  1.
         -4   -1    0    0    0  501 -0.00000000000E+00 -0.00000000000E+00 -0.76928060781E+02  0.76938543237E+02  0.12700000000E+01 0.  1.
         25    2    1    2    0    0  0.00000000000E+00  0.00000000000E+00 -0.26170128052E+02  0.12771236164E+03  0.12500228683E+03 0.  0.
    9000005    1    3    3    0    0 -0.74980353984E+01  0.24127668903E+02  0.45312052717E+02  0.51889758748E+02  0.10000000000E+01 0.  0.
    9000005    1    3    3    0    0  0.74980353984E+01 -0.24127668903E+02 -0.71482180768E+02  0.75822602890E+02  0.10000000000E+01 0.  0.
<mgrwt>
<rscale>  0 0.12500229E+03</rscale>
<asrwt>0</asrwt>
<pdfrwt beam="1">  1        4 0.78109410E-02 0.12500229E+03</pdfrwt>
<pdfrwt beam="2">  1       -4 0.11837115E-01 0.12500229E+03</pdfrwt>
<totfact> 0.10393168E+04</totfact>
</mgrwt>
</event>
<event>
 5    1  0.3284464E-002  0.1249812E+03  0.7818608E-02  0.1235099E+00
         -4   -1    0    0    0  501 -0.00000000000E+00  0.00000000000E+00  0.13861858001E+03  0.13862439765E+03  0.12700000000E+01 0.  1.
          4   -1    0    0  501    0  0.00000000000E+00 -0.00000000000E+00 -0.28150636638E+02  0.28179269741E+02  0.12700000000E+01 0.  1.
         25    2    1    2    0    0  0.00000000000E+00  0.00000000000E+00  0.11046794337E+03  0.16680366739E+03  0.12498118635E+03 0.  0.
    9000005    1    3    3    0    0  0.32119202245E+02  0.37507556045E+02  0.10632807741E+03  0.11723958358E+03  0.10000000000E+01 0.  0.
    9000005    1    3    3    0    0 -0.32119202245E+02 -0.37507556045E+02  0.41398659592E+01  0.49564083805E+02  0.10000000000E+01 0.  0.
<mgrwt>
<rscale>  0 0.12498119E+03</rscale>
<asrwt>0</asrwt>
<pdfrwt beam="2">  1        4 0.43335172E-02 0.12498119E+03</pdfrwt>
<pdfrwt beam="1">  1       -4 0.21328586E-01 0.12498119E+03</pdfrwt>
<totfact> 0.96087489E+03</totfact>
</mgrwt>
</event>
<event>
 5    1  0.3284464E-002  0.1250003E+03  0.7818608E-02  0.1235069E+00
          4   -1    0    0  501    0  0.00000000000E+00  0.00000000000E+00  0.15277670150E+03  0.15278198003E+03  0.12700000000E+01 0.  1.
         -4   -1    0    0    0  501 -0.00000000000E+00 -0.00000000000E+00 -0.25547000919E+02  0.25578548746E+02  0.12700000000E+01 0.  1.
         25    2    1    2    0    0  0.00000000000E+00  0.00000000000E+00  0.12722970058E+03  0.17836052877E+03  0.12500032606E+03 0.  0.
    9000005    1    3    3    0    0 -0.58337394333E+02  0.14099283977E+02  0.38767907111E+02  0.71456224417E+02  0.10000000000E+01 0.  0.
    9000005    1    3    3    0    0  0.58337394333E+02 -0.14099283977E+02  0.88461793470E+02  0.10690430436E+03  0.10000000000E+01 0.  0.
<mgrwt>
<rscale>  0 0.12500033E+03</rscale>
<asrwt>0</asrwt>
<pdfrwt beam="1">  1        4 0.23506941E-01 0.12500033E+03</pdfrwt>
<pdfrwt beam="2">  1       -4 0.39331406E-02 0.12500033E+03</pdfrwt>
<totfact> 0.93912261E+03</totfact>
</mgrwt>
</event>
<event>
 5    1  0.3284464E-002  0.1249988E+03  0.7818608E-02  0.1235071E+00
         -4   -1    0    0    0  501 -0.00000000000E+00  0.00000000000E+00  0.10213833371E+02  0.10292487169E+02  0.12700000000E+01 0.  1.
          4   -1    0    0  501    0  0.00000000000E+00 -0.00000000000E+00 -0.38089307795E+03  0.38089519521E+03  0.12700000000E+01 0.  1.
         25    2    1    2    0    0  0.00000000000E+00  0.00000000000E+00 -0.37067924458E+03  0.39118768238E+03  0.12499880191E+03 0.  0.
    9000005    1    3    3    0    0 -0.28017877720E+02  0.55235305693E+02 -0.21137962836E+03  0.22026867175E+03  0.10000000000E+01 0.  0.
    9000005    1    3    3    0    0  0.28017877720E+02 -0.55235305693E+02 -0.15929961622E+03  0.17091901063E+03  0.10000000000E+01 0.  0.
<mgrwt>
<rscale>  0 0.12499880E+03</rscale>
<asrwt>0</asrwt>
<pdfrwt beam="2">  1        4 0.58605137E-01 0.12499880E+03</pdfrwt>
<pdfrwt beam="1">  1       -4 0.15775724E-02 0.12499880E+03</pdfrwt>
<totfact> 0.65420720E+03</totfact>
</mgrwt>
</event>
<event>
 5    1  0.3284464E-002  0.1249992E+03  0.7818608E-02  0.1235071E+00
         -4   -1    0    0    0  501 -0.00000000000E+00  0.00000000000E+00  0.98859035000E+03  0.98859116576E+03  0.12700000000E+01 0.  1.
          4   -1    0    0  501    0  0.00000000000E+00 -0.00000000000E+00 -0.38483927539E+01  0.40525333791E+01  0.12700000000E+01 0.  1.
         25    2    1    2    0    0  0.00000000000E+00  0.00000000000E+00  0.98474195725E+03  0.99264369914E+03  0.12499916429E+03 0.  0.
    9000005    1    3    3    0    0 -0.71173085950E+01 -0.33264509332E+02  0.76081188465E+02  0.83345851132E+02  0.10000000000E+01 0.  0.
    9000005    1    3    3    0    0  0.71173085950E+01  0.33264509332E+02  0.90866076878E+03  0.90929784801E+03  0.10000000000E+01 0.  0.
<mgrwt>
<rscale>  0 0.12499916E+03</rscale>
<asrwt>0</asrwt>
<pdfrwt beam="2">  1        4 0.60782642E-03 0.12499916E+03</pdfrwt>
<pdfrwt beam="1">  1       -4 0.15210656E+00 0.12499916E+03</pdfrwt>
<totfact> 0.30849190E+03</totfact>
</mgrwt>
</event>
<event>
 5    1  0.3284464E-002  0.1249992E+03  0.7818608E-02  0.1235071E+00
         -4   -1    0    0    0  501 -0.00000000000E+00  0.00000000000E+00  0.23332321205E+03  0.23332666839E+03  0.12700000000E+01 0. -1.
          4   -1    0    0  501    0  0.00000000000E+00 -0.00000000000E+00 -0.16713902988E+02  0.16762083793E+02  0.12700000000E+01 0. -1.
         25    2    1    2    0    0  0.00000000000E+00  0.00000000000E+00  0.21660930907E+03  0.25008875219E+03  0.12499916478E+03 0.  0.
    9000005    1    3    3    0    0  0.14601141569E+02 -0.60723959274E+02  0.11259816866E+03  0.12876311642E+03  0.10000000000E+01 0.  0.
    9000005    1    3    3    0    0 -0.14601141569E+02  0.60723959274E+02  0.10401114040E+03  0.12132563576E+03  0.10000000000E+01 0.  0.
<mgrwt>
<rscale>  0 0.12499916E+03</rscale>
<asrwt>0</asrwt>
<pdfrwt beam="2">  1        4 0.25753418E-02 0.12499916E+03</pdfrwt>
<pdfrwt beam="1">  1       -4 0.35899850E-01 0.12499916E+03</pdfrwt>
<totfact> 0.82318933E+03</totfact>
</mgrwt>
</event>
<event>
 5    1  0.3284464E-002  0.1250021E+03  0.7818608E-02  0.1235066E+00
         -4   -1    0    0    0  501 -0.00000000000E+00  0.00000000000E+00  0.10622359333E+02  0.10698009993E+02  0.12700000000E+01 0.  1.
          4   -1    0    0  501    0  0.00000000000E+00 -0.00000000000E+00 -0.36636941644E+03  0.36637161762E+03  0.12700000000E+01 0.  1.
         25    2    1    2    0    0  0.00000000000E+00  0.00000000000E+00 -0.35574705710E+03  0.37706962762E+03  0.12500214171E+03 0.  0.
    9000005    1    3    3    0    0  0.18941206535E+02 -0.48963425383E+02 -0.28013250458E+03  0.28501123917E+03  0.10000000000E+01 0.  0.
    9000005    1    3    3    0    0 -0.18941206535E+02  0.48963425383E+02 -0.75614552522E+02  0.92058388446E+02  0.10000000000E+01 0.  0.
<mgrwt>
<rscale>  0 0.12500214E+03</rscale>
<asrwt>0</asrwt>
<pdfrwt beam="2">  1        4 0.56370505E-01 0.12500214E+03</pdfrwt>
<pdfrwt beam="1">  1       -4 0.16401980E-02 0.12500214E+03</pdfrwt>
<totfact> 0.66842591E+03</totfact>
</mgrwt>
</event>
<event>
 5    1  0.3284464E-002  0.1250008E+03  0.7818608E-02  0.1235068E+00
         -4   -1    0    0    0  501 -0.00000000000E+00  0.00000000000E+00  0.28634310927E+02  0.28662460855E+02  0.12700000000E+01 0.  1.
          4   -1    0    0  501    0  0.00000000000E+00 -0.00000000000E+00 -0.13632209642E+03  0.13632801206E+03  0.12700000000E+01 0.  1.
         25    2    1    2    0    0  0.00000000000E+00  0.00000000000E+00 -0.10768778550E+03  0.16499047292E+03  0.12500078803E+03 0.  0.
    9000005    1    3    3    0    0 -0.45438765002E+01 -0.60727529528E+02 -0.35326480961E+02  0.70409089707E+02  0.10000000000E+01 0.  0.
    9000005    1    3    3    0    0  0.45438765002E+01  0.60727529528E+02 -0.72361304535E+02  0.94581383212E+02  0.10000000000E+01 0.  0.
<mgrwt>
<rscale>  0 0.12500079E+03</rscale>
<asrwt>0</asrwt>
<pdfrwt beam="2">  1        4 0.20975250E-01 0.12500079E+03</pdfrwt>
<pdfrwt beam="1">  1       -4 0.44078991E-02 0.12500079E+03</pdfrwt>
<totfact> 0.96387490E+03</totfact>
</mgrwt>
</event>
<event>
 5    1  0.3284464E-002  0.1249677E+03  0.7818608E-02  0.1235120E+00
          4   -1    0    0  501    0  0.00000000000E+00  0.00000000000E+00  0.78251852634E+02  0.78262157782E+02  0.12700000000E+01 0.  1.
         -4   -1    0    0    0  501 -0.00000000000E+00 -0.00000000000E+00 -0.49871451230E+02  0.49887619184E+02  0.12700000000E+01 0.  1.
         25    2    1    2    0    0  0.00000000000E+00  0.00000000000E+00  0.28380401404E+02  0.12814977697E+03  0.12496766843E+03 0.  0.
    9000005    1    3    3    0    0 -0.19716318092E+02 -0.59271661645E+02  0.15388925336E+02  0.64340361331E+02  0.10000000000E+01 0.  0.
    9000005    1    3    3    0    0  0.19716318092E+02  0.59271661645E+02  0.12991476068E+02  0.63809415635E+02  0.10000000000E+01 0.  0.
<mgrwt>
<rscale>  0 0.12496767E+03</rscale>
<asrwt>0</asrwt>
<pdfrwt beam="1">  1        4 0.12040783E-01 0.12496767E+03</pdfrwt>
<pdfrwt beam="2">  1       -4 0.76745674E-02 0.12496767E+03</pdfrwt>
<totfact> 0.10391837E+04</totfact>
</mgrwt>
</event>
<event>
 5    1  0.3284464E-002  0.1250028E+03  0.7818608E-02  0.1235065E+00
          4   -1    0    0  501    0  0.00000000000E+00  0.00000000000E+00  0.69647667222E+03  0.69647783012E+03  0.12700000000E+01 0.  1.
         -4   -1    0    0    0  501 -0.00000000000E+00 -0.00000000000E+00 -0.55357738436E+01  0.56795855524E+01  0.12700000000E+01 0.  1.
         25    2    1    2    0    0  0.00000000000E+00  0.00000000000E+00  0.69094089837E+03  0.70215741567E+03  0.12500284530E+03 0.  0.
    9000005    1    3    3    0    0  0.40432164811E+02 -0.47651482587E+02  0.34582964188E+03  0.35143216265E+03  0.10000000000E+01 0.  0.
    9000005    1    3    3    0    0 -0.40432164811E+02  0.47651482587E+02  0.34511125650E+03  0.35072525302E+03  0.10000000000E+01 0.  0.
<mgrwt>
<rscale>  0 0.12500285E+03</rscale>
<asrwt>0</asrwt>
<pdfrwt beam="1">  1        4 0.10716142E+00 0.12500285E+03</pdfrwt>
<pdfrwt beam="2">  1       -4 0.86280891E-03 0.12500285E+03</pdfrwt>
<totfact> 0.42970368E+03</totfact>
</mgrwt>
</event>
<event>
 5    1  0.3284464E-002  0.1250316E+03  0.7818608E-02  0.1235020E+00
          4   -1    0    0  501    0  0.00000000000E+00  0.00000000000E+00  0.19453923662E+02  0.19495333950E+02  0.12700000000E+01 0.  1.
         -4   -1    0    0    0  501 -0.00000000000E+00 -0.00000000000E+00 -0.20063961239E+03  0.20064363174E+03  0.12700000000E+01 0.  1.
         25    2    1    2    0    0  0.00000000000E+00  0.00000000000E+00 -0.18118568872E+03  0.22013896569E+03  0.12503163767E+03 0.  0.
    9000005    1    3    3    0    0  0.22408545854E+02  0.48303942331E+02 -0.14823453109E+03  0.15751155507E+03  0.10000000000E+01 0.  0.
    9000005    1    3    3    0    0 -0.22408545854E+02 -0.48303942331E+02 -0.32951157631E+02  0.62627410622E+02  0.10000000000E+01 0.  0.
<mgrwt>
<rscale>  0 0.12503164E+03</rscale>
<asrwt>0</asrwt>
<pdfrwt beam="1">  1        4 0.29964061E-02 0.12503164E+03</pdfrwt>
<pdfrwt beam="2">  1       -4 0.30871126E-01 0.12503164E+03</pdfrwt>
<totfact> 0.86785022E+03</totfact>
</mgrwt>
</event>
<event>
 5    1  0.3284464E-002  0.1249982E+03  0.7818608E-02  0.1235072E+00
         -4   -1    0    0    0  501 -0.00000000000E+00  0.00000000000E+00  0.75675372759E+03  0.75675479326E+03  0.12700000000E+01 0.  1.
          4   -1    0    0  501    0  0.00000000000E+00 -0.00000000000E+00 -0.50824975290E+01  0.52387671386E+01  0.12700000000E+01 0.  1.
         25    2    1    2    0    0  0.00000000000E+00  0.00000000000E+00  0.75167123006E+03  0.76199356040E+03  0.12499819193E+03 0.  0.
    9000005    1    3    3    0    0  0.31726143400E+02  0.47521078695E+02  0.22157626542E+03  0.22882710174E+03  0.10000000000E+01 0.  0.
    9000005    1    3    3    0    0 -0.31726143400E+02 -0.47521078695E+02  0.53009496465E+03  0.53316645866E+03  0.10000000000E+01 0.  0.
<mgrwt>
<rscale>  0 0.12499819E+03</rscale>
<asrwt>0</asrwt>
<pdfrwt beam="2">  1        4 0.79402572E-03 0.12499819E+03</pdfrwt>
<pdfrwt beam="1">  1       -4 0.11643571E+00 0.12499819E+03</pdfrwt>
<totfact> 0.40008546E+03</totfact>
</mgrwt>
</event>
<event>
 5    1  0.3284464E-002  0.1250028E+03  0.7818608E-02  0.1235065E+00
          4   -1    0    0  501    0  0.00000000000E+00  0.00000000000E+00  0.55452896360E+03  0.55453041789E+03  0.12700000000E+01 0.  1.
         -4   -1    0    0    0  501 -0.00000000000E+00 -0.00000000000E+00 -0.69858714557E+01  0.71003732293E+01  0.12700000000E+01 0.  1.
         25    2    1    2    0    0  0.00000000000E+00  0.00000000000E+00  0.54754309214E+03  0.56163079112E+03  0.12500283111E+03 0.  0.
    9000005    1    3    3    0    0  0.56208791822E+02  0.15351817186E+01  0.15124985507E+03  0.16136698460E+03  0.10000000000E+01 0.  0.
    9000005    1    3    3    0    0 -0.56208791822E+02 -0.15351817186E+01  0.39629323707E+03  0.40026380652E+03  0.10000000000E+01 0.  0.
<mgrwt>
<rscale>  0 0.12500283E+03</rscale>
<asrwt>0</asrwt>
<pdfrwt beam="1">  1        4 0.85321066E-01 0.12500283E+03</pdfrwt>
<pdfrwt beam="2">  1       -4 0.10836692E-02 0.12500283E+03</pdfrwt>
<totfact> 0.51379564E+03</totfact>
</mgrwt>
</event>
<event>
 5    1  0.3284464E-002  0.1250037E+03  0.7818608E-02  0.1235064E+00
          4   -1    0    0  501    0  0.00000000000E+00  0.00000000000E+00  0.15081607777E+02  0.15134985733E+02  0.12700000000E+01 0. -1.
         -4   -1    0    0    0  501 -0.00000000000E+00 -0.00000000000E+00 -0.25851023567E+03  0.25851335525E+03  0.12700000000E+01 0. -1.
         25    2    1    2    0    0  0.00000000000E+00  0.00000000000E+00 -0.24342862789E+03  0.27364834099E+03  0.12500367054E+03 0.  0.
    9000005    1    3    3    0    0  0.29036790530E+02 -0.54175182431E+02 -0.97005936439E+02  0.11484440474E+03  0.10000000000E+01 0.  0.
    9000005    1    3    3    0    0 -0.29036790530E+02  0.54175182431E+02 -0.14642269145E+03  0.15880393624E+03  0.10000000000E+01 0.  0.
<mgrwt>
<rscale>  0 0.12500367E+03</rscale>
<asrwt>0</asrwt>
<pdfrwt beam="1">  1        4 0.23245935E-02 0.12500367E+03</pdfrwt>
<pdfrwt beam="2">  1       -4 0.39775148E-01 0.12500367E+03</pdfrwt>
<totfact> 0.79021448E+03</totfact>
</mgrwt>
</event>
<event>
 5    1  0.3284464E-002  0.1249997E+03  0.7818608E-02  0.1235070E+00
         -4   -1    0    0    0  501 -0.00000000000E+00  0.00000000000E+00  0.44913925472E+02  0.44931877340E+02  0.12700000000E+01 0. -1.
          4   -1    0    0  501    0  0.00000000000E+00 -0.00000000000E+00 -0.86931562601E+02  0.86940838944E+02  0.12700000000E+01 0. -1.
         25    2    1    2    0    0  0.00000000000E+00  0.00000000000E+00 -0.42017637129E+02  0.13187271628E+03  0.12499972588E+03 0.  0.
    9000005    1    3    3    0    0  0.47820686518E+01 -0.44905276615E+02 -0.66579743281E+02  0.80456287907E+02  0.10000000000E+01 0.  0.
    9000005    1    3    3    0    0 -0.47820686518E+01  0.44905276615E+02  0.24562106152E+02  0.51416428377E+02  0.10000000000E+01 0.  0.
<mgrwt>
<rscale>  0 0.12499973E+03</rscale>
<asrwt>0</asrwt>
<pdfrwt beam="2">  1        4 0.13376181E-01 0.12499973E+03</pdfrwt>
<pdfrwt beam="1">  1       -4 0.69119292E-02 0.12499973E+03</pdfrwt>
<totfact> 0.10304480E+04</totfact>
</mgrwt>
</event>
<event>
 5    1  0.3284464E-002  0.1249929E+03  0.7818608E-02  0.1235080E+00
          4   -1    0    0  501    0  0.00000000000E+00  0.00000000000E+00  0.15694694640E+03  0.15695208467E+03  0.12700000000E+01 0.  1.
         -4   -1    0    0    0  501 -0.00000000000E+00 -0.00000000000E+00 -0.24864394137E+02  0.24896806940E+02  0.12700000000E+01 0.  1.
         25    2    1    2    0    0  0.00000000000E+00  0.00000000000E+00  0.13208255226E+03  0.18184889161E+03  0.12499287488E+03 0.  0.
    9000005    1    3    3    0    0 -0.21043532241E+02 -0.11974580225E+02  0.14985242623E+03  0.15179911221E+03  0.10000000000E+01 0.  0.
    9000005    1    3    3    0    0  0.21043532241E+02  0.11974580225E+02 -0.17769873976E+02  0.30049779398E+02  0.10000000000E+01 0.  0.
<mgrwt>
<rscale>  0 0.12499287E+03</rscale>
<asrwt>0</asrwt>
<pdfrwt beam="1">  1        4 0.24148572E-01 0.12499287E+03</pdfrwt>
<pdfrwt beam="2">  1       -4 0.38281800E-02 0.12499287E+03</pdfrwt>
<totfact> 0.93300153E+03</totfact>
</mgrwt>
</event>
<event>
 5    1  0.3284464E-002  0.1250024E+03  0.7818608E-02  0.1235066E+00
         -4   -1    0    0    0  501 -0.00000000000E+00  0.00000000000E+00  0.23692034061E+03  0.23692374448E+03  0.12700000000E+01 0. -1.
          4   -1    0    0  501    0  0.00000000000E+00 -0.00000000000E+00 -0.16460254982E+02  0.16509176057E+02  0.12700000000E+01 0. -1.
         25    2    1    2    0    0  0.00000000000E+00  0.00000000000E+00  0.22046008563E+03  0.25343292053E+03  0.12500238339E+03 0.  0.
    9000005    1    3    3    0    0  0.56427801066E+02  0.94211897116E+01  0.59239468442E+02  0.82360003460E+02  0.10000000000E+01 0.  0.
    9000005    1    3    3    0    0 -0.56427801066E+02 -0.94211897116E+01  0.16122061719E+03  0.17107291707E+03  0.10000000000E+01 0.  0.
<mgrwt>
<rscale>  0 0.12500238E+03</rscale>
<asrwt>0</asrwt>
<pdfrwt beam="2">  1        4 0.25363721E-02 0.12500238E+03</pdfrwt>
<pdfrwt beam="1">  1       -4 0.36453306E-01 0.12500238E+03</pdfrwt>
<totfact> 0.81832239E+03</totfact>
</mgrwt>
</event>
<event>
 5    1  0.3284464E-002  0.1250011E+03  0.7818608E-02  0.1235068E+00
          4   -1    0    0  501    0  0.00000000000E+00  0.00000000000E+00  0.57506245876E+03  0.57506386113E+03  0.12700000000E+01 0.  1.
         -4   -1    0    0    0  501 -0.00000000000E+00 -0.00000000000E+00 -0.67320806015E+01  0.68508254412E+01  0.12700000000E+01 0.  1.
         25    2    1    2    0    0  0.00000000000E+00  0.00000000000E+00  0.56833037816E+03  0.58191468657E+03  0.12500113482E+03 0.  0.
    9000005    1    3    3    0    0  0.32619859675E+02 -0.21018824603E+02  0.56129170686E+02  0.68244633744E+02  0.10000000000E+01 0.  0.
    9000005    1    3    3    0    0 -0.32619859675E+02  0.21018824603E+02  0.51220120748E+03  0.51367005283E+03  0.10000000000E+01 0.  0.
<mgrwt>
<rscale>  0 0.12500113E+03</rscale>
<asrwt>0</asrwt>
<pdfrwt beam="1">  1        4 0.88480421E-01 0.12500113E+03</pdfrwt>
<pdfrwt beam="2">  1       -4 0.10449464E-02 0.12500113E+03</pdfrwt>
<totfact> 0.50028217E+03</totfact>
</mgrwt>
</event>
<event>
 5    1  0.3284464E-002  0.1249910E+03  0.7818608E-02  0.1235083E+00
          4   -1    0    0  501    0  0.00000000000E+00  0.00000000000E+00  0.30766862064E+02  0.30793062551E+02  0.12700000000E+01 0. -1.
         -4   -1    0    0    0  501 -0.00000000000E+00 -0.00000000000E+00 -0.12686110750E+03  0.12686746430E+03  0.12700000000E+01 0. -1.
         25    2    1    2    0    0  0.00000000000E+00  0.00000000000E+00 -0.96094245439E+02  0.15766052685E+03  0.12499095055E+03 0.  0.
    9000005    1    3    3    0    0  0.59191050434E+02 -0.54414866992E+01 -0.23735137562E+02  0.64012084672E+02  0.10000000000E+01 0.  0.
    9000005    1    3    3    0    0 -0.59191050434E+02  0.54414866992E+01 -0.72359107877E+02  0.93648442175E+02  0.10000000000E+01 0.  0.
<mgrwt>
<rscale>  0 0.12499095E+03</rscale>
<asrwt>0</asrwt>
<pdfrwt beam="1">  1        4 0.47358679E-02 0.12499095E+03</pdfrwt>
<pdfrwt beam="2">  1       -4 0.19519598E-01 0.12499095E+03</pdfrwt>
<totfact> 0.97815622E+03</totfact>
</mgrwt>
</event>
<event>
 5    1  0.3284464E-002  0.1249985E+03  0.7818608E-02  0.1235072E+00
         -4   -1    0    0    0  501 -0.00000000000E+00  0.00000000000E+00  0.10260619013E+02  0.10338916893E+02  0.12700000000E+01 0. -1.
          4   -1    0    0  501    0  0.00000000000E+00 -0.00000000000E+00 -0.37916794436E+03  0.37917007125E+03  0.12700000000E+01 0. -1.
         25    2    1    2    0    0  0.00000000000E+00  0.00000000000E+00 -0.36890732535E+03  0.38950898814E+03  0.12499854858E+03 0.  0.
    9000005    1    3    3    0    0  0.22941182292E+02 -0.33922322347E+02 -0.33154378405E+03  0.33406481787E+03  0.10000000000E+01 0.  0.
    9000005    1    3    3    0    0 -0.22941182292E+02  0.33922322347E+02 -0.37363541296E+02  0.55444170267E+02  0.10000000000E+01 0.  0.
<mgrwt>
<rscale>  0 0.12499855E+03</rscale>
<asrwt>0</asrwt>
<pdfrwt beam="2">  1        4 0.58339706E-01 0.12499855E+03</pdfrwt>
<pdfrwt beam="1">  1       -4 0.15847436E-02 0.12499855E+03</pdfrwt>
<totfact> 0.65588191E+03</totfact>
</mgrwt>
</event>
<event>
 5    1  0.3284464E-002  0.1250005E+03  0.7818608E-02  0.1235069E+00
          4   -1    0    0  501    0  0.00000000000E+00  0.00000000000E+00  0.72410317781E+02  0.72421454150E+02  0.12700000000E+01 0.  1.
         -4   -1    0    0    0  501 -0.00000000000E+00 -0.00000000000E+00 -0.53923676933E+02  0.53938630257E+02  0.12700000000E+01 0.  1.
         25    2    1    2    0    0  0.00000000000E+00  0.00000000000E+00  0.18486640848E+02  0.12636008441E+03  0.12500046016E+03 0.  0.
    9000005    1    3    3    0    0  0.58344382735E+02  0.89160654927E+01 -0.11515759351E+02  0.60142962464E+02  0.10000000000E+01 0.  0.
    9000005    1    3    3    0    0 -0.58344382735E+02 -0.89160654927E+01  0.30002400199E+02  0.66217121942E+02  0.10000000000E+01 0.  0.
<mgrwt>
<rscale>  0 0.12500046E+03</rscale>
<asrwt>0</asrwt>
<pdfrwt beam="1">  1        4 0.11142056E-01 0.12500046E+03</pdfrwt>
<pdfrwt beam="2">  1       -4 0.82979573E-02 0.12500046E+03</pdfrwt>
<totfact> 0.10422973E+04</totfact>
</mgrwt>
</event>
<event>
 5    1  0.3284464E-002  0.1249964E+03  0.7818608E-02  0.1235075E+00
          4   -1    0    0  501    0  0.00000000000E+00  0.00000000000E+00  0.92216327070E+02  0.92225071853E+02  0.12700000000E+01 0.  1.
         -4   -1    0    0    0  501 -0.00000000000E+00 -0.00000000000E+00 -0.42336939408E+02  0.42355983502E+02  0.12700000000E+01 0.  1.
         25    2    1    2    0    0  0.00000000000E+00  0.00000000000E+00  0.49879387662E+02  0.13458105536E+03  0.12499642854E+03 0.  0.
    9000005    1    3    3    0    0 -0.21475298278E+02  0.27087453913E+02  0.80990213018E+02  0.88064369641E+02  0.10000000000E+01 0.  0.
    9000005    1    3    3    0    0  0.21475298278E+02 -0.27087453913E+02 -0.31110825355E+02  0.46516685715E+02  0.10000000000E+01 0.  0.
<mgrwt>
<rscale>  0 0.12499643E+03</rscale>
<asrwt>0</asrwt>
<pdfrwt beam="1">  1        4 0.14189265E-01 0.12499643E+03</pdfrwt>
<pdfrwt beam="2">  1       -4 0.65155130E-02 0.12499643E+03</pdfrwt>
<totfact> 0.10247734E+04</totfact>
</mgrwt>
</event>
<event>
 5    1  0.3284464E-002  0.1250034E+03  0.7818608E-02  0.1235064E+00
          4   -1    0    0  501    0  0.00000000000E+00  0.00000000000E+00  0.19427303992E+02  0.19468770901E+02  0.12700000000E+01 0. -1.
         -4   -1    0    0    0  501 -0.00000000000E+00 -0.00000000000E+00 -0.20082313233E+03  0.20082714801E+03  0.12700000000E+01 0. -1.
         25    2    1    2    0    0  0.00000000000E+00  0.00000000000E+00 -0.18139582833E+03  0.22029591891E+03  0.12500338136E+03 0.  0.
    9000005    1    3    3    0    0 -0.47852543621E+02  0.14054436493E+02 -0.24333807424E+02  0.55502498141E+02  0.10000000000E+01 0.  0.
    9000005    1    3    3    0    0  0.47852543621E+02 -0.14054436493E+02 -0.15706202091E+03  0.16479342077E+03  0.10000000000E+01 0.  0.
<mgrwt>
<rscale>  0 0.12500338E+03</rscale>
<asrwt>0</asrwt>
<pdfrwt beam="1">  1        4 0.29923148E-02 0.12500338E+03</pdfrwt>
<pdfrwt beam="2">  1       -4 0.30899364E-01 0.12500338E+03</pdfrwt>
<totfact> 0.86814990E+03</totfact>
</mgrwt>
</event>
<event>
 5    1  0.3284464E-002  0.1250060E+03  0.7818608E-02  0.1235060E+00
          4   -1    0    0  501    0  0.00000000000E+00  0.00000000000E+00  0.41684234359E+01  0.43575972670E+01  0.12700000000E+01 0. -1.
         -4   -1    0    0    0  501 -0.00000000000E+00 -0.00000000000E+00 -0.91621164220E+03  0.91621252240E+03  0.12700000000E+01 0. -1.
         25    2    1    2    0    0  0.00000000000E+00  0.00000000000E+00 -0.91204321876E+03  0.92057011966E+03  0.12500604917E+03 0.  0.
    9000005    1    3    3    0    0 -0.36479802665E+02  0.27854805436E+02 -0.76836824101E+03  0.76973854001E+03  0.10000000000E+01 0.  0.
    9000005    1    3    3    0    0  0.36479802665E+02 -0.27854805436E+02 -0.14367497775E+03  0.15083157965E+03  0.10000000000E+01 0.  0.
<mgrwt>
<rscale>  0 0.12500605E+03</rscale>
<asrwt>0</asrwt>
<pdfrwt beam="1">  1        4 0.65591618E-03 0.12500605E+03</pdfrwt>
<pdfrwt beam="2">  1       -4 0.14097010E+00 0.12500605E+03</pdfrwt>
<totfact> 0.33380035E+03</totfact>
</mgrwt>
</event>
<event>
 5    1  0.3284464E-002  0.1250001E+03  0.7818608E-02  0.1235069E+00
         -4   -1    0    0    0  501 -0.00000000000E+00  0.00000000000E+00  0.65120456913E+02  0.65132839709E+02  0.12700000000E+01 0. -1.
          4   -1    0    0  501    0  0.00000000000E+00 -0.00000000000E+00 -0.59960290820E+02  0.59973739046E+02  0.12700000000E+01 0. -1.
         25    2    1    2    0    0  0.00000000000E+00  0.00000000000E+00  0.51601660934E+01  0.12510657876E+03  0.12500011493E+03 0.  0.
    9000005    1    3    3    0    0  0.51829241138E+02 -0.13831764444E+02 -0.29504501043E+02  0.61229923456E+02  0.10000000000E+01 0.  0.
    9000005    1    3    3    0    0 -0.51829241138E+02  0.13831764444E+02  0.34664667136E+02  0.63876655300E+02  0.10000000000E+01 0.  0.
<mgrwt>
<rscale>  0 0.12500011E+03</rscale>
<asrwt>0</asrwt>
<pdfrwt beam="2">  1        4 0.92266472E-02 0.12500011E+03</pdfrwt>
<pdfrwt beam="1">  1       -4 0.10020519E-01 0.12500011E+03</pdfrwt>
<totfact> 0.10450521E+04</totfact>
</mgrwt>
</event>
<event>
 5    1  0.3284464E-002  0.1250011E+03  0.7818608E-02  0.1235068E+00
          4   -1    0    0  501    0  0.00000000000E+00  0.00000000000E+00  0.98366119927E+03  0.98366201911E+03  0.12700000000E+01 0. -1.
         -4   -1    0    0    0  501 -0.00000000000E+00 -0.00000000000E+00 -0.38688246383E+01  0.40719410706E+01  0.12700000000E+01 0. -1.
         25    2    1    2    0    0  0.00000000000E+00  0.00000000000E+00  0.97979237463E+03  0.98773396018E+03  0.12500111486E+03 0.  0.
    9000005    1    3    3    0    0  0.55827416316E+02  0.87162997776E+01  0.70083807979E+03  0.70311285608E+03  0.10000000000E+01 0.  0.
    9000005    1    3    3    0    0 -0.55827416316E+02 -0.87162997776E+01  0.27895429484E+03  0.28462110411E+03  0.10000000000E+01 0.  0.
<mgrwt>
<rscale>  0 0.12500111E+03</rscale>
<asrwt>0</asrwt>
<pdfrwt beam="1">  1        4 0.15134806E+00 0.12500111E+03</pdfrwt>
<pdfrwt beam="2">  1       -4 0.61089168E-03 0.12500111E+03</pdfrwt>
<totfact> 0.31012248E+03</totfact>
</mgrwt>
</event>
<event>
 5    1  0.3284464E-002  0.1249986E+03  0.7818608E-02  0.1235071E+00
         -4   -1    0    0    0  501 -0.00000000000E+00  0.00000000000E+00  0.43464638350E+03  0.43464823891E+03  0.12700000000E+01 0.  1.
          4   -1    0    0  501    0  0.00000000000E+00 -0.00000000000E+00 -0.89402427025E+01  0.90299966544E+01  0.12700000000E+01 0.  1.
         25    2    1    2    0    0  0.00000000000E+00  0.00000000000E+00  0.42570614080E+03  0.44367823557E+03  0.12499863360E+03 0.  0.
    9000005    1    3    3    0    0  0.61012598907E+02 -0.12184442765E+02  0.19210562806E+03  0.20193209305E+03  0.10000000000E+01 0.  0.
    9000005    1    3    3    0    0 -0.61012598907E+02  0.12184442765E+02  0.23360051274E+03  0.24174614252E+03  0.10000000000E+01 0.  0.
<mgrwt>
<rscale>  0 0.12499863E+03</rscale>
<asrwt>0</asrwt>
<pdfrwt beam="2">  1        4 0.13824687E-02 0.12499863E+03</pdfrwt>
<pdfrwt beam="1">  1       -4 0.66875728E-01 0.12499863E+03</pdfrwt>
<totfact> 0.60517205E+03</totfact>
</mgrwt>
</event>
<event>
 5    1  0.3284464E-002  0.1250014E+03  0.7818608E-02  0.1235067E+00
         -4   -1    0    0    0  501 -0.00000000000E+00  0.00000000000E+00  0.77579289148E+02  0.77589683623E+02  0.12700000000E+01 0.  1.
          4   -1    0    0  501    0  0.00000000000E+00 -0.00000000000E+00 -0.50331029687E+02  0.50347050056E+02  0.12700000000E+01 0.  1.
         25    2    1    2    0    0  0.00000000000E+00  0.00000000000E+00  0.27248259462E+02  0.12793673368E+03  0.12500136072E+03 0.  0.
    9000005    1    3    3    0    0  0.32763109424E+02  0.47981485564E+01 -0.40619406999E+02  0.52415453768E+02  0.10000000000E+01 0.  0.
    9000005    1    3    3    0    0 -0.32763109424E+02 -0.47981485564E+01  0.67867666460E+02  0.75521279912E+02  0.10000000000E+01 0.  0.
<mgrwt>
<rscale>  0 0.12500136E+03</rscale>
<asrwt>0</asrwt>
<pdfrwt beam="2">  1        4 0.77452673E-02 0.12500136E+03</pdfrwt>
<pdfrwt beam="1">  1       -4 0.11937307E-01 0.12500136E+03</pdfrwt>
<totfact> 0.10388535E+04</totfact>
</mgrwt>
</event>
<event>
 5    1  0.3284464E-002  0.1249995E+03  0.7818608E-02  0.1235070E+00
          4   -1    0    0  501    0  0.00000000000E+00  0.00000000000E+00  0.35296125017E+01  0.37511417478E+01  0.12700000000E+01 0. -1.
         -4   -1    0    0    0  501 -0.00000000000E+00 -0.00000000000E+00 -0.10728046712E+04  0.10728054229E+04  0.12700000000E+01 0. -1.
         25    2    1    2    0    0  0.00000000000E+00  0.00000000000E+00 -0.10692750587E+04  0.10765565647E+04  0.12499954311E+03 0.  0.
    9000005    1    3    3    0    0 -0.60367584717E+02 -0.69908858472E+01 -0.40920721101E+03  0.41369633708E+03  0.10000000000E+01 0.  0.
    9000005    1    3    3    0    0  0.60367584717E+02  0.69908858472E+01 -0.66006784770E+03  0.66286022760E+03  0.10000000000E+01 0.  0.
<mgrwt>
<rscale>  0 0.12499954E+03</rscale>
<asrwt>0</asrwt>
<pdfrwt beam="1">  1        4 0.56011670E-03 0.12499954E+03</pdfrwt>
<pdfrwt beam="2">  1       -4 0.16506372E+00 0.12499954E+03</pdfrwt>
<totfact> 0.28180174E+03</totfact>
</mgrwt>
</event>
<event>
 5    1  0.3284464E-002  0.1249991E+03  0.7818608E-02  0.1235071E+00
         -4   -1    0    0    0  501 -0.00000000000E+00  0.00000000000E+00  0.47551339915E+02  0.47568296456E+02  0.12700000000E+01 0. -1.
          4   -1    0    0  501    0  0.00000000000E+00 -0.00000000000E+00 -0.82110310517E+02  0.82120131473E+02  0.12700000000E+01 0. -1.
         25    2    1    2    0    0  0.00000000000E+00  0.00000000000E+00 -0.34558970602E+02  0.12968842793E+03  0.12499906356E+03 0.  0.
    9000005    1    3    3    0    0 -0.36596830149E+02 -0.49203783660E+02 -0.47925612990E+01  0.61516737131E+02  0.10000000000E+01 0.  0.
    9000005    1    3    3    0    0  0.36596830149E+02  0.49203783660E+02 -0.29766409303E+02  0.68171690798E+02  0.10000000000E+01 0.  0.
<mgrwt>
<rscale>  0 0.12499906E+03</rscale>
<asrwt>0</asrwt>
<pdfrwt beam="2">  1        4 0.12634415E-01 0.12499906E+03</pdfrwt>
<pdfrwt beam="1">  1       -4 0.73176506E-02 0.12499906E+03</pdfrwt>
<totfact> 0.10351396E+04</totfact>
</mgrwt>
</event>
<event>
 5    1  0.3284464E-002  0.1250004E+03  0.7818608E-02  0.1235069E+00
          4   -1    0    0  501    0  0.00000000000E+00  0.00000000000E+00  0.10682210523E+02  0.10757440293E+02  0.12700000000E+01 0. -1.
         -4   -1    0    0    0  501 -0.00000000000E+00 -0.00000000000E+00 -0.36432112836E+03  0.36432334192E+03  0.12700000000E+01 0. -1.
         25    2    1    2    0    0  0.00000000000E+00  0.00000000000E+00 -0.35363891783E+03  0.37508078221E+03  0.12500043591E+03 0.  0.
    9000005    1    3    3    0    0 -0.55345675091E+02 -0.28539308388E+02 -0.16104359806E+03  0.17266637296E+03  0.10000000000E+01 0.  0.
    9000005    1    3    3    0    0  0.55345675091E+02  0.28539308388E+02 -0.19259531978E+03  0.20241440926E+03  0.10000000000E+01 0.  0.
<mgrwt>
<rscale>  0 0.12500044E+03</rscale>
<asrwt>0</asrwt>
<pdfrwt beam="1">  1        4 0.16493745E-02 0.12500044E+03</pdfrwt>
<pdfrwt beam="2">  1       -4 0.56055352E-01 0.12500044E+03</pdfrwt>
<totfact> 0.67050079E+03</totfact>
</mgrwt>
</event>
<event>
 5    1  0.3284464E-002  0.1249998E+03  0.7818608E-02  0.1235070E+00
          4   -1    0    0  501    0  0.00000000000E+00  0.00000000000E+00  0.25462471011E+03  0.25462787730E+03  0.12700000000E+01 0. -1.
         -4   -1    0    0    0  501 -0.00000000000E+00 -0.00000000000E+00 -0.15311603243E+02  0.15364182174E+02  0.12700000000E+01 0. -1.
         25    2    1    2    0    0  0.00000000000E+00  0.00000000000E+00  0.23931310687E+03  0.26999205948E+03  0.12499979624E+03 0.  0.
    9000005    1    3    3    0    0 -0.46691835563E+02 -0.22014539458E+02  0.19573029660E+03  0.20242558253E+03  0.10000000000E+01 0.  0.
    9000005    1    3    3    0    0  0.46691835563E+02  0.22014539458E+02  0.43582810266E+02  0.67566476943E+02  0.10000000000E+01 0.  0.
<mgrwt>
<rscale>  0 0.12499980E+03</rscale>
<asrwt>0</asrwt>
<pdfrwt beam="1">  1        4 0.39177317E-01 0.12499980E+03</pdfrwt>
<pdfrwt beam="2">  1       -4 0.23599196E-02 0.12499980E+03</pdfrwt>
<totfact> 0.79524312E+03</totfact>
</mgrwt>
</event>
<event>
 5    1  0.3284464E-002  0.1250012E+03  0.7818608E-02  0.1235067E+00
         -4   -1    0    0    0  501 -0.00000000000E+00  0.00000000000E+00  0.52158146866E+03  0.52158301482E+03  0.12700000000E+01 0.  1.
          4   -1    0    0  501    0  0.00000000000E+00 -0.00000000000E+00 -0.74339799693E+01  0.75416813897E+01  0.12700000000E+01 0.  1.
         25    2    1    2    0    0  0.00000000000E+00  0.00000000000E+00  0.51414748869E+03  0.52912469621E+03  0.12500121605E+03 0.  0.
    9000005    1    3    3    0    0 -0.60401149311E+02 -0.99416854461E+01  0.31031317268E+03  0.31629480091E+03  0.10000000000E+01 0.  0.
    9000005    1    3    3    0    0  0.60401149311E+02  0.99416854461E+01  0.20383431601E+03  0.21282989530E+03  0.10000000000E+01 0.  0.
<mgrwt>
<rscale>  0 0.12500122E+03</rscale>
<asrwt>0</asrwt>
<pdfrwt beam="2">  1        4 0.11520923E-02 0.12500122E+03</pdfrwt>
<pdfrwt beam="1">  1       -4 0.80251744E-01 0.12500122E+03</pdfrwt>
<totfact> 0.53671946E+03</totfact>
</mgrwt>
</event>
<event>
 5    1  0.3284464E-002  0.1249999E+03  0.7818608E-02  0.1235069E+00
          4   -1    0    0  501    0  0.00000000000E+00  0.00000000000E+00  0.11820605626E+03  0.11821287847E+03  0.12700000000E+01 0.  1.
         -4   -1    0    0    0  501 -0.00000000000E+00 -0.00000000000E+00 -0.33026054627E+02  0.33050464206E+02  0.12700000000E+01 0.  1.
         25    2    1    2    0    0  0.00000000000E+00  0.00000000000E+00  0.85180001636E+02  0.15126334268E+03  0.12499986464E+03 0.  0.
    9000005    1    3    3    0    0 -0.33173838677E+01 -0.60958910967E+02  0.58746084398E+02  0.84729547940E+02  0.10000000000E+01 0.  0.
    9000005    1    3    3    0    0  0.33173838677E+01  0.60958910967E+02  0.26433917238E+02  0.66533794741E+02  0.10000000000E+01 0.  0.
<mgrwt>
<rscale>  0 0.12499986E+03</rscale>
<asrwt>0</asrwt>
<pdfrwt beam="1">  1        4 0.18187949E-01 0.12499986E+03</pdfrwt>
<pdfrwt beam="2">  1       -4 0.50833340E-02 0.12499986E+03</pdfrwt>
<totfact> 0.99052765E+03</totfact>
</mgrwt>
</event>
<event>
 5    1  0.3284464E-002  0.1249996E+03  0.7818608E-02  0.1235070E+00
         -4   -1    0    0    0  501 -0.00000000000E+00  0.00000000000E+00  0.14962588404E+04  0.14962593794E+04  0.12700000000E+01 0. -1.
          4   -1    0    0  501    0  0.00000000000E+00 -0.00000000000E+00 -0.24556374222E+01  0.27646075941E+01  0.12700000000E+01 0. -1.
         25    2    1    2    0    0  0.00000000000E+00  0.00000000000E+00  0.14938032030E+04  0.14990239870E+04  0.12499961716E+03 0.  0.
    9000005    1    3    3    0    0 -0.43031335267E+02  0.44333153973E+02  0.85946367491E+03  0.86168203697E+03  0.10000000000E+01 0.  0.
    9000005    1    3    3    0    0  0.43031335267E+02 -0.44333153973E+02  0.63433952810E+03  0.63734195002E+03  0.10000000000E+01 0.  0.
<mgrwt>
<rscale>  0 0.12499962E+03</rscale>
<asrwt>0</asrwt>
<pdfrwt beam="2">  1        4 0.40159729E-03 0.12499962E+03</pdfrwt>
<pdfrwt beam="1">  1       -4 0.23021832E+00 0.12499962E+03</pdfrwt>
<totfact> 0.17949682E+03</totfact>
</mgrwt>
</event>
<event>
 5    1  0.3284464E-002  0.1250007E+03  0.7818608E-02  0.1235068E+00
         -4   -1    0    0    0  501 -0.00000000000E+00  0.00000000000E+00  0.14728977875E+03  0.14729525391E+03  0.12700000000E+01 0. -1.
          4   -1    0    0  501    0  0.00000000000E+00 -0.00000000000E+00 -0.26499970883E+02  0.26530385538E+02  0.12700000000E+01 0. -1.
         25    2    1    2    0    0  0.00000000000E+00  0.00000000000E+00  0.12078980787E+03  0.17382563945E+03  0.12500070098E+03 0.  0.
    9000005    1    3    3    0    0  0.91100590084E+00  0.44771357246E+02  0.12100946742E+03  0.12903331185E+03  0.10000000000E+01 0.  0.
    9000005    1    3    3    0    0 -0.91100590084E+00 -0.44771357246E+02 -0.21965955201E+00  0.44792327599E+02  0.10000000000E+01 0.  0.
<mgrwt>
<rscale>  0 0.12500070E+03</rscale>
<asrwt>0</asrwt>
<pdfrwt beam="2">  1        4 0.40796793E-02 0.12500070E+03</pdfrwt>
<pdfrwt beam="1">  1       -4 0.22662727E-01 0.12500070E+03</pdfrwt>
<totfact> 0.94738872E+03</totfact>
</mgrwt>
</event>
<event>
 5    1  0.3284464E-002  0.1250407E+03  0.7818608E-02  0.1235006E+00
         -4   -1    0    0    0  501 -0.00000000000E+00  0.00000000000E+00  0.12624824496E+04  0.12624830884E+04  0.12700000000E+01 0. -1.
          4   -1    0    0  501    0  0.00000000000E+00 -0.00000000000E+00 -0.29652135311E+01  0.32257388743E+01  0.12700000000E+01 0. -1.
         25    2    1    2    0    0  0.00000000000E+00  0.00000000000E+00  0.12595172361E+04  0.12657088273E+04  0.12504066314E+03 0.  0.
    9000005    1    3    3    0    0 -0.60391408521E+02  0.16137267849E+02  0.62461487089E+03  0.62773582865E+03  0.10000000000E+01 0.  0.
    9000005    1    3    3    0    0  0.60391408521E+02 -0.16137267849E+02  0.63490236518E+03  0.63797299860E+03  0.10000000000E+01 0.  0.
<mgrwt>
<rscale>  0 0.12504066E+03</rscale>
<asrwt>0</asrwt>
<pdfrwt beam="2">  1        4 0.47627581E-03 0.12504066E+03</pdfrwt>
<pdfrwt beam="1">  1       -4 0.19424834E+00 0.12504066E+03</pdfrwt>
<totfact> 0.23032123E+03</totfact>
</mgrwt>
</event>
<event>
 5    1  0.3284464E-002  0.1249815E+03  0.7818608E-02  0.1235098E+00
         -4   -1    0    0    0  501 -0.00000000000E+00  0.00000000000E+00  0.14469057152E+02  0.14524686394E+02  0.12700000000E+01 0. -1.
          4   -1    0    0  501    0  0.00000000000E+00 -0.00000000000E+00 -0.26931777036E+03  0.26932076476E+03  0.12700000000E+01 0. -1.
         25    2    1    2    0    0  0.00000000000E+00  0.00000000000E+00 -0.25484871321E+03  0.28384545116E+03  0.12498149270E+03 0.  0.
    9000005    1    3    3    0    0  0.31489468284E+02  0.37895893852E+02 -0.40159490695E+02  0.63572557574E+02  0.10000000000E+01 0.  0.
    9000005    1    3    3    0    0 -0.31489468284E+02 -0.37895893852E+02 -0.21468922252E+03  0.22027289358E+03  0.10000000000E+01 0.  0.
<mgrwt>
<rscale>  0 0.12498149E+03</rscale>
<asrwt>0</asrwt>
<pdfrwt beam="2">  1        4 0.41438009E-01 0.12498149E+03</pdfrwt>
<pdfrwt beam="1">  1       -4 0.22305185E-02 0.12498149E+03</pdfrwt>
<totfact> 0.77702929E+03</totfact>
</mgrwt>
</event>
<event>
 5    1  0.3284464E-002  0.1249992E+03  0.7818608E-02  0.1235070E+00
         -4   -1    0    0    0  501 -0.00000000000E+00  0.00000000000E+00  0.26074536808E+02  0.26105447128E+02  0.12700000000E+01 0. -1.
          4   -1    0    0  501    0  0.00000000000E+00 -0.00000000000E+00 -0.14968671772E+03  0.14969210521E+03  0.12700000000E+01 0. -1.
         25    2    1    2    0    0  0.00000000000E+00  0.00000000000E+00 -0.12361218091E+03  0.17579755233E+03  0.12499923255E+03 0.  0.
    9000005    1    3    3    0    0  0.57788256588E+02 -0.23745715294E+02 -0.63724376252E+02  0.89247620265E+02  0.10000000000E+01 0.  0.
    9000005    1    3    3    0    0 -0.57788256588E+02  0.23745715294E+02 -0.59887804657E+02  0.86549932068E+02  0.10000000000E+01 0.  0.
<mgrwt>
<rscale>  0 0.12499923E+03</rscale>
<asrwt>0</asrwt>
<pdfrwt beam="2">  1        4 0.23031517E-01 0.12499923E+03</pdfrwt>
<pdfrwt beam="1">  1       -4 0.40142594E-02 0.12499923E+03</pdfrwt>
<totfact> 0.94380598E+03</totfact>
</mgrwt>
</event>
<event>
 5    1  0.3284464E-002  0.1249968E+03  0.7818608E-02  0.1235074E+00
          4   -1    0    0  501    0  0.00000000000E+00  0.00000000000E+00  0.14427344343E+02  0.14483133804E+02  0.12700000000E+01 0.  1.
         -4   -1    0    0    0  501 -0.00000000000E+00 -0.00000000000E+00 -0.27015944964E+03  0.27016243471E+03  0.12700000000E+01 0.  1.
         25    2    1    2    0    0  0.00000000000E+00  0.00000000000E+00 -0.25573210529E+03  0.28464556851E+03  0.12499675994E+03 0.  0.
    9000005    1    3    3    0    0 -0.18220252101E+02  0.59705217216E+02 -0.12128296613E+03  0.13640838839E+03  0.10000000000E+01 0.  0.
    9000005    1    3    3    0    0  0.18220252101E+02 -0.59705217216E+02 -0.13444913916E+03  0.14823718013E+03  0.10000000000E+01 0.  0.
<mgrwt>
<rscale>  0 0.12499676E+03</rscale>
<asrwt>0</asrwt>
<pdfrwt beam="1">  1        4 0.22241127E-02 0.12499676E+03</pdfrwt>
<pdfrwt beam="2">  1       -4 0.41567510E-01 0.12499676E+03</pdfrwt>
<totfact> 0.77571728E+03</totfact>
</mgrwt>
</event>
<event>
 5    1  0.3284464E-002  0.1250009E+03  0.7818608E-02  0.1235068E+00
          4   -1    0    0  501    0  0.00000000000E+00  0.00000000000E+00  0.13648608480E+02  0.13707567743E+02  0.12700000000E+01 0.  1.
         -4   -1    0    0    0  501 -0.00000000000E+00 -0.00000000000E+00 -0.28552811378E+03  0.28553093818E+03  0.12700000000E+01 0.  1.
         25    2    1    2    0    0  0.00000000000E+00  0.00000000000E+00 -0.27187950530E+03  0.29923850592E+03  0.12500087210E+03 0.  0.
    9000005    1    3    3    0    0  0.23589119310E+02 -0.29115855129E+02 -0.16218258630E+02  0.40843744719E+02  0.10000000000E+01 0.  0.
    9000005    1    3    3    0    0 -0.23589119310E+02  0.29115855129E+02 -0.25566124667E+03  0.25839476121E+03  0.10000000000E+01 0.  0.
<mgrwt>
<rscale>  0 0.12500087E+03</rscale>
<asrwt>0</asrwt>
<pdfrwt beam="1">  1        4 0.21045387E-02 0.12500087E+03</pdfrwt>
<pdfrwt beam="2">  1       -4 0.43932150E-01 0.12500087E+03</pdfrwt>
<totfact> 0.75692995E+03</totfact>
</mgrwt>
</event>
<event>
 5    1  0.3284464E-002  0.1249990E+03  0.7818608E-02  0.1235071E+00
          4   -1    0    0  501    0  0.00000000000E+00  0.00000000000E+00  0.11286022148E+03  0.11286736681E+03  0.12700000000E+01 0.  1.
         -4   -1    0    0    0  501 -0.00000000000E+00 -0.00000000000E+00 -0.34590922255E+02  0.34614228324E+02  0.12700000000E+01 0.  1.
         25    2    1    2    0    0  0.00000000000E+00  0.00000000000E+00  0.78269299220E+02  0.14748159514E+03  0.12499895081E+03 0.  0.
    9000005    1    3    3    0    0 -0.27031533239E+01 -0.32608224777E+02 -0.23682163473E+02  0.40403567018E+02  0.10000000000E+01 0.  0.
    9000005    1    3    3    0    0  0.27031533239E+01  0.32608224777E+02  0.10195146269E+03  0.10707802812E+03  0.10000000000E+01 0.  0.
<mgrwt>
<rscale>  0 0.12499895E+03</rscale>
<asrwt>0</asrwt>
<pdfrwt beam="1">  1        4 0.17365453E-01 0.12499895E+03</pdfrwt>
<pdfrwt beam="2">  1       -4 0.53240228E-02 0.12499895E+03</pdfrwt>
<totfact> 0.99810451E+03</totfact>
</mgrwt>
</event>
<event>
 5    1  0.3284464E-002  0.1249996E+03  0.7818608E-02  0.1235070E+00
          4   -1    0    0  501    0  0.00000000000E+00  0.00000000000E+00  0.62251105164E+02  0.62264058606E+02  0.12700000000E+01 0. -1.
         -4   -1    0    0    0  501 -0.00000000000E+00 -0.00000000000E+00 -0.62723562620E+02  0.62736418512E+02  0.12700000000E+01 0. -1.
         25    2    1    2    0    0  0.00000000000E+00  0.00000000000E+00 -0.47245745589E+00  0.12500047712E+03  0.12499958425E+03 0.  0.
    9000005    1    3    3    0    0 -0.55304826085E+02 -0.28117769035E+02  0.72465576523E+01  0.62471956281E+02  0.10000000000E+01 0.  0.
    9000005    1    3    3    0    0  0.55304826085E+02  0.28117769035E+02 -0.77190151081E+01  0.62528520837E+02  0.10000000000E+01 0.  0.
<mgrwt>
<rscale>  0 0.12499958E+03</rscale>
<asrwt>0</asrwt>
<pdfrwt beam="1">  1        4 0.95790784E-02 0.12499958E+03</pdfrwt>
<pdfrwt beam="2">  1       -4 0.96517642E-02 0.12499958E+03</pdfrwt>
<totfact> 0.10452950E+04</totfact>
</mgrwt>
</event>
<event>
 5    1  0.3284464E-002  0.1249994E+03  0.7818608E-02  0.1235070E+00
          4   -1    0    0  501    0  0.00000000000E+00  0.00000000000E+00  0.29626709293E+02  0.29653917170E+02  0.12700000000E+01 0.  1.
         -4   -1    0    0    0  501 -0.00000000000E+00 -0.00000000000E+00 -0.13175694226E+03  0.13176306285E+03  0.12700000000E+01 0.  1.
         25    2    1    2    0    0  0.00000000000E+00  0.00000000000E+00 -0.10213023296E+03  0.16141698002E+03  0.12499942782E+03 0.  0.
    9000005    1    3    3    0    0  0.27976880950E+02 -0.47805318921E+02 -0.88428430462E+02  0.10434865451E+03  0.10000000000E+01 0.  0.
    9000005    1    3    3    0    0 -0.27976880950E+02  0.47805318921E+02 -0.13701802500E+02  0.57068325510E+02  0.10000000000E+01 0.  0.
<mgrwt>
<rscale>  0 0.12499943E+03</rscale>
<asrwt>0</asrwt>
<pdfrwt beam="1">  1        4 0.45605191E-02 0.12499943E+03</pdfrwt>
<pdfrwt beam="2">  1       -4 0.20272862E-01 0.12499943E+03</pdfrwt>
<totfact> 0.97071544E+03</totfact>
</mgrwt>
</event>
<event>
 5    1  0.3284464E-002  0.1250014E+03  0.7818608E-02  0.1235067E+00
          4   -1    0    0  501    0  0.00000000000E+00  0.00000000000E+00  0.64074306096E+02  0.64086891029E+02  0.12700000000E+01 0.  1.
         -4   -1    0    0    0  501 -0.00000000000E+00 -0.00000000000E+00 -0.60940519644E+02  0.60953751603E+02  0.12700000000E+01 0.  1.
         25    2    1    2    0    0  0.00000000000E+00  0.00000000000E+00  0.31337864518E+01  0.12504064263E+03  0.12500136676E+03 0.  0.
    9000005    1    3    3    0    0  0.49735727261E+02  0.27359273677E+02 -0.24578706264E+02  0.61865056566E+02  0.10000000000E+01 0.  0.
    9000005    1    3    3    0    0 -0.49735727261E+02 -0.27359273677E+02  0.27712492716E+02  0.63175586066E+02  0.10000000000E+01 0.  0.
<mgrwt>
<rscale>  0 0.12500137E+03</rscale>
<asrwt>0</asrwt>
<pdfrwt beam="1">  1        4 0.98595715E-02 0.12500137E+03</pdfrwt>
<pdfrwt beam="2">  1       -4 0.93774505E-02 0.12500137E+03</pdfrwt>
<totfact> 0.10451657E+04</totfact>
</mgrwt>
</event>
<event>
 5    1  0.3284464E-002  0.1249998E+03  0.7818608E-02  0.1235070E+00
         -4   -1    0    0    0  501 -0.00000000000E+00  0.00000000000E+00  0.17694704371E+03  0.17695160123E+03  0.12700000000E+01 0.  1.
          4   -1    0    0  501    0  0.00000000000E+00 -0.00000000000E+00 -0.22052633596E+02  0.22089172654E+02  0.12700000000E+01 0.  1.
         25    2    1    2    0    0  0.00000000000E+00  0.00000000000E+00  0.15489441012E+03  0.19904077388E+03  0.12499980553E+03 0.  0.
    9000005    1    3    3    0    0 -0.42096872658E+02  0.44597286698E+02  0.96566635438E+02  0.11439921218E+03  0.10000000000E+01 0.  0.
    9000005    1    3    3    0    0  0.42096872658E+02 -0.44597286698E+02  0.58327774677E+02  0.84641561701E+02  0.10000000000E+01 0.  0.
<mgrwt>
<rscale>  0 0.12499981E+03</rscale>
<asrwt>0</asrwt>
<pdfrwt beam="2">  1        4 0.33958740E-02 0.12499981E+03</pdfrwt>
<pdfrwt beam="1">  1       -4 0.27225785E-01 0.12499981E+03</pdfrwt>
<totfact> 0.90297931E+03</totfact>
</mgrwt>
</event>
<event>
 5    1  0.3284464E-002  0.1249994E+03  0.7818608E-02  0.1235070E+00
         -4   -1    0    0    0  501 -0.00000000000E+00  0.00000000000E+00  0.10240503026E+02  0.10318953543E+02  0.12700000000E+01 0. -1.
          4   -1    0    0  501    0  0.00000000000E+00 -0.00000000000E+00 -0.37991246395E+03  0.37991458667E+03  0.12700000000E+01 0. -1.
         25    2    1    2    0    0  0.00000000000E+00  0.00000000000E+00 -0.36967196092E+03  0.39023354021E+03  0.12499942885E+03 0.  0.
    9000005    1    3    3    0    0 -0.15444271513E+02  0.90399724862E+01 -0.37175745033E+03  0.37218926435E+03  0.10000000000E+01 0.  0.
    9000005    1    3    3    0    0  0.15444271513E+02 -0.90399724862E+01  0.20854894074E+01  0.18044275857E+02  0.10000000000E+01 0.  0.
<mgrwt>
<rscale>  0 0.12499943E+03</rscale>
<asrwt>0</asrwt>
<pdfrwt beam="2">  1        4 0.58454258E-01 0.12499943E+03</pdfrwt>
<pdfrwt beam="1">  1       -4 0.15816602E-02 0.12499943E+03</pdfrwt>
<totfact> 0.65514709E+03</totfact>
</mgrwt>
</event>
<event>
 5    1  0.3284464E-002  0.1249980E+03  0.7818608E-02  0.1235072E+00
          4   -1    0    0  501    0  0.00000000000E+00  0.00000000000E+00  0.66997622851E+01  0.68190699276E+01  0.12700000000E+01 0.  1.
         -4   -1    0    0    0  501 -0.00000000000E+00 -0.00000000000E+00 -0.57775937650E+03  0.57776077232E+03  0.12700000000E+01 0.  1.
         25    2    1    2    0    0  0.00000000000E+00  0.00000000000E+00 -0.57105961422E+03  0.58457984225E+03  0.12499803589E+03 0.  0.
    9000005    1    3    3    0    0  0.11451040199E+02 -0.53519520535E+02 -0.14447735643E+03  0.15449974732E+03  0.10000000000E+01 0.  0.
    9000005    1    3    3    0    0 -0.11451040199E+02  0.53519520535E+02 -0.42658225779E+03  0.43008009494E+03  0.10000000000E+01 0.  0.
<mgrwt>
<rscale>  0 0.12499804E+03</rscale>
<asrwt>0</asrwt>
<pdfrwt beam="1">  1        4 0.10400180E-02 0.12499804E+03</pdfrwt>
<pdfrwt beam="2">  1       -4 0.88895304E-01 0.12499804E+03</pdfrwt>
<totfact> 0.49857834E+03</totfact>
</mgrwt>
</event>
<event>
 5    1  0.3284464E-002  0.1249969E+03  0.7818608E-02  0.1235074E+00
         -4   -1    0    0    0  501 -0.00000000000E+00  0.00000000000E+00  0.19374990272E+02  0.19416568905E+02  0.12700000000E+01 0.  1.
          4   -1    0    0  501    0  0.00000000000E+00 -0.00000000000E+00 -0.20134339667E+03  0.20134740197E+03  0.12700000000E+01 0.  1.
         25    2    1    2    0    0  0.00000000000E+00  0.00000000000E+00 -0.18196840639E+03  0.22076397088E+03  0.12499691961E+03 0.  0.
    9000005    1    3    3    0    0 -0.58412134071E+02  0.18717755135E+02 -0.11208408385E+03  0.12777391603E+03  0.10000000000E+01 0.  0.
    9000005    1    3    3    0    0  0.58412134071E+02 -0.18717755135E+02 -0.69884322541E+02  0.92990054850E+02  0.10000000000E+01 0.  0.
<mgrwt>
<rscale>  0 0.12499692E+03</rscale>
<asrwt>0</asrwt>
<pdfrwt beam="2">  1        4 0.30979412E-01 0.12499692E+03</pdfrwt>
<pdfrwt beam="1">  1       -4 0.29842743E-02 0.12499692E+03</pdfrwt>
<totfact> 0.86753575E+03</totfact>
</mgrwt>
</event>
<event>
 5    1  0.3284464E-002  0.1250005E+03  0.7818608E-02  0.1235068E+00
          4   -1    0    0  501    0  0.00000000000E+00  0.00000000000E+00  0.12285360612E+03  0.12286017027E+03  0.12700000000E+01 0. -1.
         -4   -1    0    0    0  501 -0.00000000000E+00 -0.00000000000E+00 -0.31776140577E+02  0.31801509555E+02  0.12700000000E+01 0. -1.
         25    2    1    2    0    0  0.00000000000E+00  0.00000000000E+00  0.91077465546E+02  0.15466167982E+03  0.12500052190E+03 0.  0.
    9000005    1    3    3    0    0 -0.58895168829E+02  0.15802783063E+02  0.62454493264E+02  0.87292225271E+02  0.10000000000E+01 0.  0.
    9000005    1    3    3    0    0  0.58895168829E+02 -0.15802783063E+02  0.28622972282E+02  0.67369454549E+02  0.10000000000E+01 0.  0.
<mgrwt>
<rscale>  0 0.12500052E+03</rscale>
<asrwt>0</asrwt>
<pdfrwt beam="1">  1        4 0.18903011E-01 0.12500052E+03</pdfrwt>
<pdfrwt beam="2">  1       -4 0.48910934E-02 0.12500052E+03</pdfrwt>
<totfact> 0.98380801E+03</totfact>
</mgrwt>
</event>
<event>
 5    1  0.3284464E-002  0.1249991E+03  0.7818608E-02  0.1235071E+00
         -4   -1    0    0    0  501 -0.00000000000E+00  0.00000000000E+00  0.42731698816E+03  0.42731887539E+03  0.12700000000E+01 0. -1.
          4   -1    0    0  501    0  0.00000000000E+00 -0.00000000000E+00 -0.90951842669E+01  0.91834240264E+01  0.12700000000E+01 0. -1.
         25    2    1    2    0    0  0.00000000000E+00  0.00000000000E+00  0.41822180389E+03  0.43650229942E+03  0.12499912060E+03 0.  0.
    9000005    1    3    3    0    0 -0.30275812170E+02  0.46591143292E+02  0.30897573590E+03  0.31393369493E+03  0.10000000000E+01 0.  0.
    9000005    1    3    3    0    0  0.30275812170E+02 -0.46591143292E+02  0.10924606798E+03  0.12256860449E+03  0.10000000000E+01 0.  0.
<mgrwt>
<rscale>  0 0.12499912E+03</rscale>
<asrwt>0</asrwt>
<pdfrwt beam="2">  1        4 0.14061920E-02 0.12499912E+03</pdfrwt>
<pdfrwt beam="1">  1       -4 0.65748007E-01 0.12499912E+03</pdfrwt>
<totfact> 0.61152172E+03</totfact>
</mgrwt>
</event>
<event>
 5    1  0.3284464E-002  0.1249980E+03  0.7818608E-02  0.1235072E+00
         -4   -1    0    0    0  501 -0.00000000000E+00  0.00000000000E+00  0.32915309698E+02  0.32939801343E+02  0.12700000000E+01 0.  1.
          4   -1    0    0  501    0  0.00000000000E+00 -0.00000000000E+00 -0.11859991563E+03  0.11860671518E+03  0.12700000000E+01 0.  1.
         25    2    1    2    0    0  0.00000000000E+00  0.00000000000E+00 -0.85684605930E+02  0.15154651653E+03  0.12499797990E+03 0.  0.
    9000005    1    3    3    0    0  0.18219575125E+02  0.47211203806E+02 -0.87293832742E+02  0.10090621347E+03  0.10000000000E+01 0.  0.
    9000005    1    3    3    0    0 -0.18219575125E+02 -0.47211203806E+02  0.16092268120E+01  0.50640303055E+02  0.10000000000E+01 0.  0.
<mgrwt>
<rscale>  0 0.12499798E+03</rscale>
<asrwt>0</asrwt>
<pdfrwt beam="2">  1        4 0.18248548E-01 0.12499798E+03</pdfrwt>
<pdfrwt beam="1">  1       -4 0.50663009E-02 0.12499798E+03</pdfrwt>
<totfact> 0.99000812E+03</totfact>
</mgrwt>
</event>
<event>
 5    1  0.3284464E-002  0.1249989E+03  0.7818608E-02  0.1235071E+00
         -4   -1    0    0    0  501 -0.00000000000E+00  0.00000000000E+00  0.57444925082E+02  0.57458962031E+02  0.12700000000E+01 0. -1.
          4   -1    0    0  501    0  0.00000000000E+00 -0.00000000000E+00 -0.67970411435E+02  0.67982275122E+02  0.12700000000E+01 0. -1.
         25    2    1    2    0    0  0.00000000000E+00  0.00000000000E+00 -0.10525486353E+02  0.12544123715E+03  0.12499887246E+03 0.  0.
    9000005    1    3    3    0    0  0.16884510507E+02  0.60021758395E+02 -0.94586105736E+01  0.63072684181E+02  0.10000000000E+01 0.  0.
    9000005    1    3    3    0    0 -0.16884510507E+02 -0.60021758395E+02 -0.10668757793E+01  0.62368552972E+02  0.10000000000E+01 0.  0.
<mgrwt>
<rscale>  0 0.12499887E+03</rscale>
<asrwt>0</asrwt>
<pdfrwt beam="2">  1        4 0.10458979E-01 0.12499887E+03</pdfrwt>
<pdfrwt beam="1">  1       -4 0.88396731E-02 0.12499887E+03</pdfrwt>
<totfact> 0.10443519E+04</totfact>
</mgrwt>
</event>
<event>
 5    1  0.3284464E-002  0.1249960E+03  0.7818608E-02  0.1235076E+00
          4   -1    0    0  501    0  0.00000000000E+00  0.00000000000E+00  0.31874947248E+03  0.31875200252E+03  0.12700000000E+01 0. -1.
         -4   -1    0    0    0  501 -0.00000000000E+00 -0.00000000000E+00 -0.12218649613E+02  0.12284473874E+02  0.12700000000E+01 0. -1.
         25    2    1    2    0    0  0.00000000000E+00  0.00000000000E+00  0.30653082287E+03  0.33103647639E+03  0.12499601326E+03 0.  0.
    9000005    1    3    3    0    0  0.57283767333E+02  0.22968554535E+02  0.12731452168E+03  0.14148841623E+03  0.10000000000E+01 0.  0.
    9000005    1    3    3    0    0 -0.57283767333E+02 -0.22968554535E+02  0.17921630120E+03  0.18954806016E+03  0.10000000000E+01 0.  0.
<mgrwt>
<rscale>  0 0.12499601E+03</rscale>
<asrwt>0</asrwt>
<pdfrwt beam="1">  1        4 0.49043635E-01 0.12499601E+03</pdfrwt>
<pdfrwt beam="2">  1       -4 0.18850504E-02 0.12499601E+03</pdfrwt>
<totfact> 0.71868776E+03</totfact>
</mgrwt>
</event>
<event>
 5    1  0.3284464E-002  0.1249985E+03  0.7818608E-02  0.1235072E+00
         -4   -1    0    0    0  501 -0.00000000000E+00  0.00000000000E+00  0.34967463752E+02  0.34990519019E+02  0.12700000000E+01 0. -1.
          4   -1    0    0  501    0  0.00000000000E+00 -0.00000000000E+00 -0.11164481882E+03  0.11165204194E+03  0.12700000000E+01 0. -1.
         25    2    1    2    0    0  0.00000000000E+00  0.00000000000E+00 -0.76677355070E+02  0.14664256096E+03  0.12499849561E+03 0.  0.
    9000005    1    3    3    0    0 -0.54168490485E+02  0.28544911053E+02 -0.23680409171E+02  0.65656675875E+02  0.10000000000E+01 0.  0.
    9000005    1    3    3    0    0  0.54168490485E+02 -0.28544911053E+02 -0.52996945899E+02  0.80985885086E+02  0.10000000000E+01 0.  0.
<mgrwt>
<rscale>  0 0.12499850E+03</rscale>
<asrwt>0</asrwt>
<pdfrwt beam="2">  1        4 0.17178455E-01 0.12499850E+03</pdfrwt>
<pdfrwt beam="1">  1       -4 0.53819390E-02 0.12499850E+03</pdfrwt>
<totfact> 0.99980600E+03</totfact>
</mgrwt>
</event>
<event>
 5    1  0.3284464E-002  0.1249994E+03  0.7818608E-02  0.1235070E+00
         -4   -1    0    0    0  501 -0.00000000000E+00  0.00000000000E+00  0.13032897721E+02  0.13094629548E+02  0.12700000000E+01 0.  1.
          4   -1    0    0  501    0  0.00000000000E+00 -0.00000000000E+00 -0.29894835894E+03  0.29895105656E+03  0.12700000000E+01 0.  1.
         25    2    1    2    0    0  0.00000000000E+00  0.00000000000E+00 -0.28591546122E+03  0.31204568610E+03  0.12499943699E+03 0.  0.
    9000005    1    3    3    0    0  0.32211101320E+02  0.34699809729E+02 -0.24477755857E+03  0.24931643552E+03  0.10000000000E+01 0.  0.
    9000005    1    3    3    0    0 -0.32211101320E+02 -0.34699809729E+02 -0.41137902655E+02  0.62729250579E+02  0.10000000000E+01 0.  0.
<mgrwt>
<rscale>  0 0.12499944E+03</rscale>
<asrwt>0</asrwt>
<pdfrwt beam="2">  1        4 0.45997006E-01 0.12499944E+03</pdfrwt>
<pdfrwt beam="1">  1       -4 0.20100175E-02 0.12499944E+03</pdfrwt>
<totfact> 0.74113201E+03</totfact>
</mgrwt>
</event>
<event>
 5    1  0.3284464E-002  0.1249976E+03  0.7818608E-02  0.1235073E+00
          4   -1    0    0  501    0  0.00000000000E+00  0.00000000000E+00  0.53785361338E+03  0.53785511277E+03  0.12700000000E+01 0. -1.
         -4   -1    0    0    0  501 -0.00000000000E+00 -0.00000000000E+00 -0.72053368691E+01  0.73164048136E+01  0.12700000000E+01 0. -1.
         25    2    1    2    0    0  0.00000000000E+00  0.00000000000E+00  0.53064827652E+03  0.54517151758E+03  0.12499756083E+03 0.  0.
    9000005    1    3    3    0    0 -0.48760976174E+02  0.17805257213E+02  0.41706509482E+03  0.42028437194E+03  0.10000000000E+01 0.  0.
    9000005    1    3    3    0    0  0.48760976174E+02 -0.17805257213E+02  0.11358318170E+03  0.12488714564E+03  0.10000000000E+01 0.  0.
<mgrwt>
<rscale>  0 0.12499756E+03</rscale>
<asrwt>0</asrwt>
<pdfrwt beam="1">  1        4 0.82755386E-01 0.12499756E+03</pdfrwt>
<pdfrwt beam="2">  1       -4 0.11171722E-02 0.12499756E+03</pdfrwt>
<totfact> 0.52525197E+03</totfact>
</mgrwt>
</event>
<event>
 5    1  0.3284464E-002  0.1250003E+03  0.7818608E-02  0.1235069E+00
         -4   -1    0    0    0  501 -0.00000000000E+00  0.00000000000E+00  0.71053577824E+03  0.71053691323E+03  0.12700000000E+01 0.  1.
          4   -1    0    0  501    0  0.00000000000E+00 -0.00000000000E+00 -0.54231415692E+01  0.55698621598E+01  0.12700000000E+01 0.  1.
         25    2    1    2    0    0  0.00000000000E+00  0.00000000000E+00  0.70511263668E+03  0.71610677539E+03  0.12500033345E+03 0.  0.
    9000005    1    3    3    0    0 -0.11657023054E+02 -0.61358828031E+02  0.36468046496E+03  0.36999139650E+03  0.10000000000E+01 0.  0.
    9000005    1    3    3    0    0  0.11657023054E+02  0.61358828031E+02  0.34043217172E+03  0.34611537889E+03  0.10000000000E+01 0.  0.
<mgrwt>
<rscale>  0 0.12500033E+03</rscale>
<asrwt>0</asrwt>
<pdfrwt beam="2">  1        4 0.84570277E-03 0.12500033E+03</pdfrwt>
<pdfrwt beam="1">  1       -4 0.10932460E+00 0.12500033E+03</pdfrwt>
<totfact> 0.42249649E+03</totfact>
</mgrwt>
</event>
<event>
 5    1  0.3284464E-002  0.1250017E+03  0.7818608E-02  0.1235067E+00
          4   -1    0    0  501    0  0.00000000000E+00  0.00000000000E+00  0.78222830434E+02  0.78233139404E+02  0.12700000000E+01 0. -1.
         -4   -1    0    0    0  501 -0.00000000000E+00 -0.00000000000E+00 -0.49917118340E+02  0.49933271507E+02  0.12700000000E+01 0. -1.
         25    2    1    2    0    0  0.00000000000E+00  0.00000000000E+00  0.28305712094E+02  0.12816641091E+03  0.12500166218E+03 0.  0.
    9000005    1    3    3    0    0 -0.18464006265E+01  0.84576572696E+00 -0.49888302128E+02  0.49939635603E+02  0.10000000000E+01 0.  0.
    9000005    1    3    3    0    0  0.18464006265E+01 -0.84576572696E+00  0.78194014222E+02  0.78226775308E+02  0.10000000000E+01 0.  0.
<mgrwt>
<rscale>  0 0.12500166E+03</rscale>
<asrwt>0</asrwt>
<pdfrwt beam="1">  1        4 0.12036317E-01 0.12500166E+03</pdfrwt>
<pdfrwt beam="2">  1       -4 0.76815923E-02 0.12500166E+03</pdfrwt>
<totfact> 0.10383506E+04</totfact>
</mgrwt>
</event>
<event>
 5    1  0.3284464E-002  0.1250009E+03  0.7818608E-02  0.1235068E+00
         -4   -1    0    0    0  501 -0.00000000000E+00  0.00000000000E+00  0.58384964231E+02  0.58398775230E+02  0.12700000000E+01 0. -1.
          4   -1    0    0  501    0  0.00000000000E+00 -0.00000000000E+00 -0.66878289579E+02  0.66890346964E+02  0.12700000000E+01 0. -1.
         25    2    1    2    0    0  0.00000000000E+00  0.00000000000E+00 -0.84933253472E+01  0.12528912219E+03  0.12500091026E+03 0.  0.
    9000005    1    3    3    0    0 -0.28185802780E+01 -0.56944732816E+02  0.21398653701E+02  0.60906070063E+02  0.10000000000E+01 0.  0.
    9000005    1    3    3    0    0  0.28185802780E+01  0.56944732816E+02 -0.29891979048E+02  0.64383052131E+02  0.10000000000E+01 0.  0.
<mgrwt>
<rscale>  0 0.12500091E+03</rscale>
<asrwt>0</asrwt>
<pdfrwt beam="2">  1        4 0.10290957E-01 0.12500091E+03</pdfrwt>
<pdfrwt beam="1">  1       -4 0.89842921E-02 0.12500091E+03</pdfrwt>
<totfact> 0.10446371E+04</totfact>
</mgrwt>
</event>
<event>
 5    1  0.3284464E-002  0.1250529E+03  0.7818608E-02  0.1234987E+00
          4   -1    0    0  501    0  0.00000000000E+00  0.00000000000E+00  0.30829276269E+02  0.30855423758E+02  0.12700000000E+01 0. -1.
         -4   -1    0    0    0  501 -0.00000000000E+00 -0.00000000000E+00 -0.12673011853E+03  0.12673648189E+03  0.12700000000E+01 0. -1.
         25    2    1    2    0    0  0.00000000000E+00  0.00000000000E+00 -0.95900842261E+02  0.15759190565E+03  0.12505293751E+03 0.  0.
    9000005    1    3    3    0    0  0.52759380976E+02 -0.51882485270E+01 -0.61905838308E+01  0.53383457474E+02  0.10000000000E+01 0.  0.
    9000005    1    3    3    0    0 -0.52759380976E+02  0.51882485270E+01 -0.89710258430E+02  0.10420844818E+03  0.10000000000E+01 0.  0.
<mgrwt>
<rscale>  0 0.12505294E+03</rscale>
<asrwt>0</asrwt>
<pdfrwt beam="1">  1        4 0.47454665E-02 0.12505294E+03</pdfrwt>
<pdfrwt beam="2">  1       -4 0.19499442E-01 0.12505294E+03</pdfrwt>
<totfact> 0.97692743E+03</totfact>
</mgrwt>
</event>
<event>
 5    1  0.3284464E-002  0.1249963E+03  0.7818608E-02  0.1235075E+00
          4   -1    0    0  501    0  0.00000000000E+00  0.00000000000E+00  0.17152197757E+03  0.17152667924E+03  0.12700000000E+01 0.  1.
         -4   -1    0    0    0  501 -0.00000000000E+00 -0.00000000000E+00 -0.22749962341E+02  0.22785383177E+02  0.12700000000E+01 0.  1.
         25    2    1    2    0    0  0.00000000000E+00  0.00000000000E+00  0.14877201523E+03  0.19431206242E+03  0.12499626028E+03 0.  0.
    9000005    1    3    3    0    0  0.47107370636E+02 -0.16621155223E+01  0.10609011702E+02  0.48326163985E+02  0.10000000000E+01 0.  0.
    9000005    1    3    3    0    0 -0.47107370636E+02  0.16621155223E+01  0.13816300353E+03  0.14598589843E+03  0.10000000000E+01 0.  0.
<mgrwt>
<rscale>  0 0.12499626E+03</rscale>
<asrwt>0</asrwt>
<pdfrwt beam="1">  1        4 0.26391083E-01 0.12499626E+03</pdfrwt>
<pdfrwt beam="2">  1       -4 0.35030806E-02 0.12499626E+03</pdfrwt>
<totfact> 0.91110025E+03</totfact>
</mgrwt>
</event>
<event>
 5    1  0.3284464E-002  0.1250009E+03  0.7818608E-02  0.1235068E+00
          4   -1    0    0  501    0  0.00000000000E+00  0.00000000000E+00  0.30664173989E+02  0.30690462141E+02  0.12700000000E+01 0.  1.
         -4   -1    0    0    0  501 -0.00000000000E+00 -0.00000000000E+00 -0.12730577272E+03  0.12731210731E+03  0.12700000000E+01 0.  1.
         25    2    1    2    0    0  0.00000000000E+00  0.00000000000E+00 -0.96641598734E+02  0.15800256945E+03  0.12500085339E+03 0.  0.
    9000005    1    3    3    0    0 -0.14988172589E+02  0.55146348032E+02 -0.80286516855E+02  0.98552979699E+02  0.10000000000E+01 0.  0.
    9000005    1    3    3    0    0  0.14988172589E+02 -0.55146348032E+02 -0.16355081879E+02  0.59449589756E+02  0.10000000000E+01 0.  0.
<mgrwt>
<rscale>  0 0.12500085E+03</rscale>
<asrwt>0</asrwt>
<pdfrwt beam="1">  1        4 0.47200747E-02 0.12500085E+03</pdfrwt>
<pdfrwt beam="2">  1       -4 0.19588013E-01 0.12500085E+03</pdfrwt>
<totfact> 0.97727387E+03</totfact>
</mgrwt>
</event>
<event>
 5    1  0.3284464E-002  0.1250065E+03  0.7818608E-02  0.1235059E+00
          4   -1    0    0  501    0  0.00000000000E+00  0.00000000000E+00  0.12989081575E+03  0.12989702428E+03  0.12700000000E+01 0.  1.
         -4   -1    0    0    0  501 -0.00000000000E+00 -0.00000000000E+00 -0.30056106675E+02  0.30082926196E+02  0.12700000000E+01 0.  1.
         25    2    1    2    0    0  0.00000000000E+00  0.00000000000E+00  0.99834709073E+02  0.15997995047E+03  0.12500646150E+03 0.  0.
    9000005    1    3    3    0    0 -0.43193958308E+02  0.26510343713E+02  0.31200186664E+01  0.50786325665E+02  0.10000000000E+01 0.  0.
    9000005    1    3    3    0    0  0.43193958308E+02 -0.26510343713E+02  0.96714690407E+02  0.10919362481E+03  0.10000000000E+01 0.  0.
<mgrwt>
<rscale>  0 0.12500646E+03</rscale>
<asrwt>0</asrwt>
<pdfrwt beam="1">  1        4 0.19985743E-01 0.12500646E+03</pdfrwt>
<pdfrwt beam="2">  1       -4 0.46265571E-02 0.12500646E+03</pdfrwt>
<totfact> 0.97332513E+03</totfact>
</mgrwt>
</event>
<event>
 5    1  0.3284464E-002  0.1249981E+03  0.7818608E-02  0.1235072E+00
         -4   -1    0    0    0  501 -0.00000000000E+00  0.00000000000E+00  0.70121235686E+01  0.71262035433E+01  0.12700000000E+01 0.  1.
          4   -1    0    0  501    0  0.00000000000E+00 -0.00000000000E+00 -0.55244475229E+03  0.55244621208E+03  0.12700000000E+01 0.  1.
         25    2    1    2    0    0  0.00000000000E+00  0.00000000000E+00 -0.54543262873E+03  0.55957241562E+03  0.12499814336E+03 0.  0.
    9000005    1    3    3    0    0  0.22920676186E+02  0.46247482323E+02 -0.11501716816E+03  0.12607194767E+03  0.10000000000E+01 0.  0.
    9000005    1    3    3    0    0 -0.22920676186E+02 -0.46247482323E+02 -0.43041546056E+03  0.43350046795E+03  0.10000000000E+01 0.  0.
<mgrwt>
<rscale>  0 0.12499814E+03</rscale>
<asrwt>0</asrwt>
<pdfrwt beam="2">  1        4 0.85000354E-01 0.12499814E+03</pdfrwt>
<pdfrwt beam="1">  1       -4 0.10876763E-02 0.12499814E+03</pdfrwt>
<totfact> 0.51525290E+03</totfact>
</mgrwt>
</event>
<event>
 5    1  0.3284464E-002  0.1250009E+03  0.7818608E-02  0.1235068E+00
          4   -1    0    0  501    0  0.00000000000E+00  0.00000000000E+00  0.29775619924E+03  0.29775890766E+03  0.12700000000E+01 0.  1.
         -4   -1    0    0    0  501 -0.00000000000E+00 -0.00000000000E+00 -0.13085628350E+02  0.13147112585E+02  0.12700000000E+01 0.  1.
         25    2    1    2    0    0  0.00000000000E+00  0.00000000000E+00  0.28467057089E+03  0.31090602024E+03  0.12500087795E+03 0.  0.
    9000005    1    3    3    0    0 -0.23264213689E+02  0.24130133546E+02  0.27351914861E+03  0.27556707285E+03  0.10000000000E+01 0.  0.
    9000005    1    3    3    0    0  0.23264213689E+02 -0.24130133546E+02  0.11151422282E+02  0.35338947386E+02  0.10000000000E+01 0.  0.
<mgrwt>
<rscale>  0 0.12500088E+03</rscale>
<asrwt>0</asrwt>
<pdfrwt beam="1">  1        4 0.45813586E-01 0.12500088E+03</pdfrwt>
<pdfrwt beam="2">  1       -4 0.20181114E-02 0.12500088E+03</pdfrwt>
<totfact> 0.74249411E+03</totfact>
</mgrwt>
</event>
<event>
 5    1  0.3284464E-002  0.1250036E+03  0.7818608E-02  0.1235064E+00
         -4   -1    0    0    0  501 -0.00000000000E+00  0.00000000000E+00  0.38575714111E+03  0.38575923167E+03  0.12700000000E+01 0. -1.
          4   -1    0    0  501    0  0.00000000000E+00 -0.00000000000E+00 -0.10084825499E+02  0.10164477622E+02  0.12700000000E+01 0. -1.
         25    2    1    2    0    0  0.00000000000E+00  0.00000000000E+00  0.37567231561E+03  0.39592370929E+03  0.12500357940E+03 0.  0.
    9000005    1    3    3    0    0  0.40845050376E+02 -0.26079079407E+02  0.31281559193E+03  0.31654862356E+03  0.10000000000E+01 0.  0.
    9000005    1    3    3    0    0 -0.40845050376E+02  0.26079079407E+02  0.62856723684E+02  0.79375085734E+02  0.10000000000E+01 0.  0.
<mgrwt>
<rscale>  0 0.12500358E+03</rscale>
<asrwt>0</asrwt>
<pdfrwt beam="2">  1        4 0.15577995E-02 0.12500358E+03</pdfrwt>
<pdfrwt beam="1">  1       -4 0.59353539E-01 0.12500358E+03</pdfrwt>
<totfact> 0.64946050E+03</totfact>
</mgrwt>
</event>
<event>
 5    1  0.3284464E-002  0.1249997E+03  0.7818608E-02  0.1235070E+00
          4   -1    0    0  501    0  0.00000000000E+00  0.00000000000E+00  0.10517715936E+04  0.10517723603E+04  0.12700000000E+01 0. -1.
         -4   -1    0    0    0  501 -0.00000000000E+00 -0.00000000000E+00 -0.36045915176E+01  0.38217770747E+01  0.12700000000E+01 0. -1.
         25    2    1    2    0    0  0.00000000000E+00  0.00000000000E+00  0.10481670021E+04  0.10555941374E+04  0.12499967487E+03 0.  0.
    9000005    1    3    3    0    0  0.81875374017E+01 -0.49448099851E+02  0.20889090251E+03  0.21482215784E+03  0.10000000000E+01 0.  0.
    9000005    1    3    3    0    0 -0.81875374017E+01  0.49448099851E+02  0.83927609956E+03  0.84077197957E+03  0.10000000000E+01 0.  0.
<mgrwt>
<rscale>  0 0.12499967E+03</rscale>
<asrwt>0</asrwt>
<pdfrwt beam="1">  1        4 0.16182785E+00 0.12499967E+03</pdfrwt>
<pdfrwt beam="2">  1       -4 0.57131786E-03 0.12499967E+03</pdfrwt>
<totfact> 0.28820928E+03</totfact>
</mgrwt>
</event>
<event>
 5    1  0.3284464E-002  0.1250013E+03  0.7818608E-02  0.1235067E+00
         -4   -1    0    0    0  501 -0.00000000000E+00  0.00000000000E+00  0.71790404047E+02  0.71801636564E+02  0.12700000000E+01 0.  1.
          4   -1    0    0  501    0  0.00000000000E+00 -0.00000000000E+00 -0.54390118577E+02  0.54404943698E+02  0.12700000000E+01 0.  1.
         25    2    1    2    0    0  0.00000000000E+00  0.00000000000E+00  0.17400285470E+02  0.12620658026E+03  0.12500132386E+03 0.  0.
    9000005    1    3    3    0    0 -0.53363715416E+02  0.12277350117E+02  0.39105511169E+02  0.67295322666E+02  0.10000000000E+01 0.  0.
    9000005    1    3    3    0    0  0.53363715416E+02 -0.12277350117E+02 -0.21705225699E+02  0.58911257596E+02  0.10000000000E+01 0.  0.
<mgrwt>
<rscale>  0 0.12500132E+03</rscale>
<asrwt>0</asrwt>
<pdfrwt beam="2">  1        4 0.83697149E-02 0.12500132E+03</pdfrwt>
<pdfrwt beam="1">  1       -4 0.11046682E-01 0.12500132E+03</pdfrwt>
<totfact> 0.10426123E+04</totfact>
</mgrwt>
</event>
<event>
 5    1  0.3284464E-002  0.1250126E+03  0.7818608E-02  0.1235050E+00
          4   -1    0    0  501    0  0.00000000000E+00  0.00000000000E+00  0.94368221716E+01  0.95218964865E+01  0.12700000000E+01 0. -1.
         -4   -1    0    0    0  501 -0.00000000000E+00 -0.00000000000E+00 -0.41207664979E+03  0.41207860683E+03  0.12700000000E+01 0. -1.
         25    2    1    2    0    0  0.00000000000E+00  0.00000000000E+00 -0.40263982762E+03  0.42160050331E+03  0.12501261379E+03 0.  0.
    9000005    1    3    3    0    0  0.54249178854E+02  0.28670979350E+02 -0.24137137272E+03  0.24905047286E+03  0.10000000000E+01 0.  0.
    9000005    1    3    3    0    0 -0.54249178854E+02 -0.28670979350E+02 -0.16126845490E+03  0.17255003045E+03  0.10000000000E+01 0.  0.
<mgrwt>
<rscale>  0 0.12501261E+03</rscale>
<asrwt>0</asrwt>
<pdfrwt beam="1">  1        4 0.14585138E-02 0.12501261E+03</pdfrwt>
<pdfrwt beam="2">  1       -4 0.63403089E-01 0.12501261E+03</pdfrwt>
<totfact> 0.62487424E+03</totfact>
</mgrwt>
</event>
<event>
 5    1  0.3284464E-002  0.1249980E+03  0.7818608E-02  0.1235072E+00
         -4   -1    0    0    0  501 -0.00000000000E+00  0.00000000000E+00  0.67099106761E+02  0.67111124474E+02  0.12700000000E+01 0.  1.
          4   -1    0    0  501    0  0.00000000000E+00 -0.00000000000E+00 -0.58190074454E+02  0.58203931697E+02  0.12700000000E+01 0.  1.
         25    2    1    2    0    0  0.00000000000E+00  0.00000000000E+00  0.89090323075E+01  0.12531505617E+03  0.12499796977E+03 0.  0.
    9000005    1    3    3    0    0  0.61490148741E+02 -0.57571343850E+01  0.14014960169E+02  0.63337209420E+02  0.10000000000E+01 0.  0.
    9000005    1    3    3    0    0 -0.61490148741E+02  0.57571343850E+01 -0.51059278614E+01  0.61977846751E+02  0.10000000000E+01 0.  0.
<mgrwt>
<rscale>  0 0.12499797E+03</rscale>
<asrwt>0</asrwt>
<pdfrwt beam="2">  1        4 0.89543095E-02 0.12499797E+03</pdfrwt>
<pdfrwt beam="1">  1       -4 0.10324930E-01 0.12499797E+03</pdfrwt>
<totfact> 0.10446503E+04</totfact>
</mgrwt>
</event>
<event>
 5    1  0.3284464E-002  0.1249800E+03  0.7818608E-02  0.1235101E+00
         -4   -1    0    0    0  501 -0.00000000000E+00  0.00000000000E+00  0.24968609650E+02  0.25000887341E+02  0.12700000000E+01 0.  1.
          4   -1    0    0  501    0  0.00000000000E+00 -0.00000000000E+00 -0.15626047041E+03  0.15626563126E+03  0.12700000000E+01 0.  1.
         25    2    1    2    0    0  0.00000000000E+00  0.00000000000E+00 -0.13129186076E+03  0.18126651860E+03  0.12497999065E+03 0.  0.
    9000005    1    3    3    0    0 -0.33833110572E+02 -0.44922795934E+02 -0.10513374833E+03  0.11923439941E+03  0.10000000000E+01 0.  0.
    9000005    1    3    3    0    0  0.33833110572E+02  0.44922795934E+02 -0.26158112438E+02  0.62032119195E+02  0.10000000000E+01 0.  0.
<mgrwt>
<rscale>  0 0.12497999E+03</rscale>
<asrwt>0</asrwt>
<pdfrwt beam="2">  1        4 0.24042952E-01 0.12497999E+03</pdfrwt>
<pdfrwt beam="1">  1       -4 0.38442045E-02 0.12497999E+03</pdfrwt>
<totfact> 0.93431428E+03</totfact>
</mgrwt>
</event>
<event>
 5    1  0.3284464E-002  0.1250046E+03  0.7818608E-02  0.1235062E+00
          4   -1    0    0  501    0  0.00000000000E+00  0.00000000000E+00  0.83194821698E+02  0.83204514645E+02  0.12700000000E+01 0. -1.
         -4   -1    0    0    0  501 -0.00000000000E+00 -0.00000000000E+00 -0.46935451237E+02  0.46952630201E+02  0.12700000000E+01 0. -1.
         25    2    1    2    0    0  0.00000000000E+00  0.00000000000E+00  0.36259370461E+02  0.13015714485E+03  0.12500456155E+03 0.  0.
    9000005    1    3    3    0    0  0.40519998646E+02 -0.13870296824E+02  0.65516937187E+02  0.78279783358E+02  0.10000000000E+01 0.  0.
    9000005    1    3    3    0    0 -0.40519998646E+02  0.13870296824E+02 -0.29257566726E+02  0.51877361488E+02  0.10000000000E+01 0.  0.
<mgrwt>
<rscale>  0 0.12500456E+03</rscale>
<asrwt>0</asrwt>
<pdfrwt beam="1">  1        4 0.12801270E-01 0.12500456E+03</pdfrwt>
<pdfrwt beam="2">  1       -4 0.72229057E-02 0.12500456E+03</pdfrwt>
<totfact> 0.10340082E+04</totfact>
</mgrwt>
</event>
<event>
 5    1  0.3284464E-002  0.1249982E+03  0.7818608E-02  0.1235072E+00
          4   -1    0    0  501    0  0.00000000000E+00  0.00000000000E+00  0.87847003743E+01  0.88760273020E+01  0.12700000000E+01 0.  1.
         -4   -1    0    0    0  501 -0.00000000000E+00 -0.00000000000E+00 -0.44226044964E+03  0.44226227311E+03  0.12700000000E+01 0.  1.
         25    2    1    2    0    0  0.00000000000E+00  0.00000000000E+00 -0.43347574927E+03  0.45113830042E+03  0.12499816357E+03 0.  0.
    9000005    1    3    3    0    0 -0.44339281833E+02  0.15973925997E+02 -0.68630486543E+02  0.83260326136E+02  0.10000000000E+01 0.  0.
    9000005    1    3    3    0    0  0.44339281833E+02 -0.15973925997E+02 -0.36484526273E+03  0.36787797428E+03  0.10000000000E+01 0.  0.
<mgrwt>
<rscale>  0 0.12499816E+03</rscale>
<asrwt>0</asrwt>
<pdfrwt beam="1">  1        4 0.13586581E-02 0.12499816E+03</pdfrwt>
<pdfrwt beam="2">  1       -4 0.68047217E-01 0.12499816E+03</pdfrwt>
<totfact> 0.59867740E+03</totfact>
</mgrwt>
</event>
<event>
 5    1  0.3284464E-002  0.1249987E+03  0.7818608E-02  0.1235071E+00
          4   -1    0    0  501    0  0.00000000000E+00  0.00000000000E+00  0.17018274363E+02  0.17065595867E+02  0.12700000000E+01 0.  1.
         -4   -1    0    0    0  501 -0.00000000000E+00 -0.00000000000E+00 -0.22916022342E+03  0.22916374255E+03  0.12700000000E+01 0.  1.
         25    2    1    2    0    0  0.00000000000E+00  0.00000000000E+00 -0.21214194906E+03  0.24622933842E+03  0.12499872218E+03 0.  0.
    9000005    1    3    3    0    0 -0.21517685717E+01  0.86490249246E+00 -0.22908508918E+03  0.22909900971E+03  0.10000000000E+01 0.  0.
    9000005    1    3    3    0    0  0.21517685717E+01 -0.86490249246E+00  0.16943140124E+02  0.17130328706E+02  0.10000000000E+01 0.  0.
<mgrwt>
<rscale>  0 0.12499872E+03</rscale>
<asrwt>0</asrwt>
<pdfrwt beam="1">  1        4 0.26221070E-02 0.12499872E+03</pdfrwt>
<pdfrwt beam="2">  1       -4 0.35259328E-01 0.12499872E+03</pdfrwt>
<totfact> 0.82880639E+03</totfact>
</mgrwt>
</event>
<event>
 5    1  0.3284464E-002  0.1249994E+03  0.7818608E-02  0.1235070E+00
         -4   -1    0    0    0  501 -0.00000000000E+00  0.00000000000E+00  0.90481157486E+01  0.91368100889E+01  0.12700000000E+01 0.  1.
          4   -1    0    0  501    0  0.00000000000E+00 -0.00000000000E+00 -0.42952059408E+03  0.42952247164E+03  0.12700000000E+01 0.  1.
         25    2    1    2    0    0  0.00000000000E+00  0.00000000000E+00 -0.42047247833E+03  0.43865928172E+03  0.12499944163E+03 0.  0.
    9000005    1    3    3    0    0  0.36007701033E+02 -0.35396651112E+02 -0.81022980284E+02  0.95473560621E+02  0.10000000000E+01 0.  0.
    9000005    1    3    3    0    0 -0.36007701033E+02  0.35396651112E+02 -0.33944949805E+03  0.34318572110E+03  0.10000000000E+01 0.  0.
<mgrwt>
<rscale>  0 0.12499944E+03</rscale>
<asrwt>0</asrwt>
<pdfrwt beam="2">  1        4 0.66087043E-01 0.12499944E+03</pdfrwt>
<pdfrwt beam="1">  1       -4 0.13989852E-02 0.12499944E+03</pdfrwt>
<totfact> 0.60959605E+03</totfact>
</mgrwt>
</event>
<event>
 5    1  0.3284464E-002  0.1250002E+03  0.7818608E-02  0.1235069E+00
          4   -1    0    0  501    0  0.00000000000E+00  0.00000000000E+00  0.35137254591E+02  0.35160198523E+02  0.12700000000E+01 0.  1.
         -4   -1    0    0    0  501 -0.00000000000E+00 -0.00000000000E+00 -0.11110864282E+03  0.11111590079E+03  0.12700000000E+01 0.  1.
         25    2    1    2    0    0  0.00000000000E+00  0.00000000000E+00 -0.75971388228E+02  0.14627609932E+03  0.12500018161E+03 0.  0.
    9000005    1    3    3    0    0 -0.61630839355E+02  0.53255226763E+01 -0.48356383328E+02  0.78524272426E+02  0.10000000000E+01 0.  0.
    9000005    1    3    3    0    0  0.61630839355E+02 -0.53255226763E+01 -0.27615004899E+02  0.67751826891E+02  0.10000000000E+01 0.  0.
<mgrwt>
<rscale>  0 0.12500018E+03</rscale>
<asrwt>0</asrwt>
<pdfrwt beam="1">  1        4 0.54080547E-02 0.12500018E+03</pdfrwt>
<pdfrwt beam="2">  1       -4 0.17095960E-01 0.12500018E+03</pdfrwt>
<totfact> 0.10005084E+04</totfact>
</mgrwt>
</event>
<event>
 5    1  0.3284464E-002  0.1249992E+03  0.7818608E-02  0.1235071E+00
          4   -1    0    0  501    0  0.00000000000E+00  0.00000000000E+00  0.14429846697E+03  0.14430405562E+03  0.12700000000E+01 0.  1.
         -4   -1    0    0    0  501 -0.00000000000E+00 -0.00000000000E+00 -0.27049256350E+02  0.27079054066E+02  0.12700000000E+01 0.  1.
         25    2    1    2    0    0  0.00000000000E+00  0.00000000000E+00  0.11724921062E+03  0.17138310969E+03  0.12499917158E+03 0.  0.
    9000005    1    3    3    0    0 -0.28803543030E+02 -0.45889521187E+02  0.10131998896E+03  0.11490096784E+03  0.10000000000E+01 0.  0.
    9000005    1    3    3    0    0  0.28803543030E+02  0.45889521187E+02  0.15929221654E+02  0.56482141854E+02  0.10000000000E+01 0.  0.
<mgrwt>
<rscale>  0 0.12499917E+03</rscale>
<asrwt>0</asrwt>
<pdfrwt beam="1">  1        4 0.22202486E-01 0.12499917E+03</pdfrwt>
<pdfrwt beam="2">  1       -4 0.41641461E-02 0.12499917E+03</pdfrwt>
<totfact> 0.95193240E+03</totfact>
</mgrwt>
</event>
<event>
 5    1  0.3284464E-002  0.1249991E+03  0.7818608E-02  0.1235071E+00
         -4   -1    0    0    0  501 -0.00000000000E+00  0.00000000000E+00  0.93334571276E+03  0.93334657680E+03  0.12700000000E+01 0. -1.
          4   -1    0    0  501    0  0.00000000000E+00 -0.00000000000E+00 -0.40879223443E+01  0.42806552177E+01  0.12700000000E+01 0. -1.
         25    2    1    2    0    0  0.00000000000E+00  0.00000000000E+00  0.92925779042E+03  0.93762723202E+03  0.12499914070E+03 0.  0.
    9000005    1    3    3    0    0  0.37634538223E+02  0.47114793234E+02  0.58766337521E+03  0.59074986650E+03  0.10000000000E+01 0.  0.
    9000005    1    3    3    0    0 -0.37634538223E+02 -0.47114793234E+02  0.34159441521E+03  0.34687736552E+03  0.10000000000E+01 0.  0.
<mgrwt>
<rscale>  0 0.12499914E+03</rscale>
<asrwt>0</asrwt>
<pdfrwt beam="2">  1        4 0.64380301E-03 0.12499914E+03</pdfrwt>
<pdfrwt beam="1">  1       -4 0.14360658E+00 0.12499914E+03</pdfrwt>
<totfact> 0.32759972E+03</totfact>
</mgrwt>
</event>
<event>
 5    1  0.3284464E-002  0.1249973E+03  0.7818608E-02  0.1235074E+00
         -4   -1    0    0    0  501 -0.00000000000E+00  0.00000000000E+00  0.49816591496E+01  0.51409948340E+01  0.12700000000E+01 0. -1.
          4   -1    0    0  501    0  0.00000000000E+00 -0.00000000000E+00 -0.77158999987E+03  0.77159104505E+03  0.12700000000E+01 0. -1.
         25    2    1    2    0    0  0.00000000000E+00  0.00000000000E+00 -0.76660834072E+03  0.77673203989E+03  0.12499725484E+03 0.  0.
    9000005    1    3    3    0    0  0.21901779160E+02  0.32703554810E+02 -0.68491450709E+03  0.68604525539E+03  0.10000000000E+01 0.  0.
    9000005    1    3    3    0    0 -0.21901779160E+02 -0.32703554810E+02 -0.81693833635E+02  0.90686784493E+02  0.10000000000E+01 0.  0.
<mgrwt>
<rscale>  0 0.12499725E+03</rscale>
<asrwt>0</asrwt>
<pdfrwt beam="2">  1        4 0.11871840E+00 0.12499725E+03</pdfrwt>
<pdfrwt beam="1">  1       -4 0.77874670E-03 0.12499725E+03</pdfrwt>
<totfact> 0.39327184E+03</totfact>
</mgrwt>
</event>
<event>
 5    1  0.3284464E-002  0.1249990E+03  0.7818608E-02  0.1235071E+00
         -4   -1    0    0    0  501 -0.00000000000E+00  0.00000000000E+00  0.35641547340E+03  0.35641773606E+03  0.12700000000E+01 0.  1.
          4   -1    0    0  501    0  0.00000000000E+00 -0.00000000000E+00 -0.10920543452E+02  0.10994142499E+02  0.12700000000E+01 0.  1.
         25    2    1    2    0    0  0.00000000000E+00  0.00000000000E+00  0.34549492995E+03  0.36741187856E+03  0.12499896754E+03 0.  0.
    9000005    1    3    3    0    0  0.17049109182E+01 -0.71017242233E+01 -0.96761791459E+01  0.12164277662E+02  0.10000000000E+01 0.  0.
    9000005    1    3    3    0    0 -0.17049109182E+01  0.71017242233E+01  0.35517110910E+03  0.35524760090E+03  0.10000000000E+01 0.  0.
<mgrwt>
<rscale>  0 0.12499897E+03</rscale>
<asrwt>0</asrwt>
<pdfrwt beam="2">  1        4 0.16859194E-02 0.12499897E+03</pdfrwt>
<pdfrwt beam="1">  1       -4 0.54838977E-01 0.12499897E+03</pdfrwt>
<totfact> 0.67852127E+03</totfact>
</mgrwt>
</event>
<event>
 5    1  0.3284464E-002  0.1249989E+03  0.7818608E-02  0.1235071E+00
          4   -1    0    0  501    0  0.00000000000E+00  0.00000000000E+00  0.18441734874E+03  0.18442172165E+03  0.12700000000E+01 0.  1.
         -4   -1    0    0    0  501 -0.00000000000E+00 -0.00000000000E+00 -0.21157524501E+02  0.21195606691E+02  0.12700000000E+01 0.  1.
         25    2    1    2    0    0  0.00000000000E+00  0.00000000000E+00  0.16325982424E+03  0.20561732834E+03  0.12499886201E+03 0.  0.
    9000005    1    3    3    0    0  0.51601097418E+02 -0.16322772583E+02  0.13302181983E+03  0.14361375529E+03  0.10000000000E+01 0.  0.
    9000005    1    3    3    0    0 -0.51601097418E+02  0.16322772583E+02  0.30238004407E+02  0.62003573042E+02  0.10000000000E+01 0.  0.
<mgrwt>
<rscale>  0 0.12499886E+03</rscale>
<asrwt>0</asrwt>
<pdfrwt beam="1">  1        4 0.28375167E-01 0.12499886E+03</pdfrwt>
<pdfrwt beam="2">  1       -4 0.32582694E-02 0.12499886E+03</pdfrwt>
<totfact> 0.89198937E+03</totfact>
</mgrwt>
</event>
<event>
 5    1  0.3284464E-002  0.1249986E+03  0.7818608E-02  0.1235072E+00
         -4   -1    0    0    0  501 -0.00000000000E+00  0.00000000000E+00  0.71833121814E+02  0.71844347652E+02  0.12700000000E+01 0. -1.
          4   -1    0    0  501    0  0.00000000000E+00 -0.00000000000E+00 -0.54355361702E+02  0.54370196301E+02  0.12700000000E+01 0. -1.
         25    2    1    2    0    0  0.00000000000E+00  0.00000000000E+00  0.17477760112E+02  0.12621454395E+03  0.12499855602E+03 0.  0.
    9000005    1    3    3    0    0  0.47309428271E+02 -0.40680046339E+02  0.52248556365E+01  0.62620661845E+02  0.10000000000E+01 0.  0.
    9000005    1    3    3    0    0 -0.47309428271E+02  0.40680046339E+02  0.12252904476E+02  0.63593882108E+02  0.10000000000E+01 0.  0.
<mgrwt>
<rscale>  0 0.12499856E+03</rscale>
<asrwt>0</asrwt>
<pdfrwt beam="2">  1        4 0.83643681E-02 0.12499856E+03</pdfrwt>
<pdfrwt beam="1">  1       -4 0.11053254E-01 0.12499856E+03</pdfrwt>
<totfact> 0.10426601E+04</totfact>
</mgrwt>
</event>
<event>
 5    1  0.3284464E-002  0.1250128E+03  0.7818608E-02  0.1235049E+00
          4   -1    0    0  501    0  0.00000000000E+00  0.00000000000E+00  0.44767763070E+02  0.44785773526E+02  0.12700000000E+01 0. -1.
         -4   -1    0    0    0  501 -0.00000000000E+00 -0.00000000000E+00 -0.87233592055E+02  0.87242836283E+02  0.12700000000E+01 0. -1.
         25    2    1    2    0    0  0.00000000000E+00  0.00000000000E+00 -0.42465828985E+02  0.13202860981E+03  0.12501282805E+03 0.  0.
    9000005    1    3    3    0    0  0.47334974824E+02 -0.37383590777E+02 -0.39460868129E+01  0.60454150413E+02  0.10000000000E+01 0.  0.
    9000005    1    3    3    0    0 -0.47334974824E+02  0.37383590777E+02 -0.38519742172E+02  0.71574459397E+02  0.10000000000E+01 0.  0.
<mgrwt>
<rscale>  0 0.12501283E+03</rscale>
<asrwt>0</asrwt>
<pdfrwt beam="1">  1        4 0.68894447E-02 0.12501283E+03</pdfrwt>
<pdfrwt beam="2">  1       -4 0.13422649E-01 0.12501283E+03</pdfrwt>
<totfact> 0.10298107E+04</totfact>
</mgrwt>
</event>
<event>
 5    1  0.3284464E-002  0.1249989E+03  0.7818608E-02  0.1235071E+00
          4   -1    0    0  501    0  0.00000000000E+00  0.00000000000E+00  0.30558404657E+02  0.30584783720E+02  0.12700000000E+01 0. -1.
         -4   -1    0    0    0  501 -0.00000000000E+00 -0.00000000000E+00 -0.12774207433E+03  0.12774838729E+03  0.12700000000E+01 0. -1.
         25    2    1    2    0    0  0.00000000000E+00  0.00000000000E+00 -0.97183669677E+02  0.15833317101E+03  0.12499890956E+03 0.  0.
    9000005    1    3    3    0    0 -0.48704449807E+02  0.38628841639E+02 -0.56689752777E+02  0.84137024593E+02  0.10000000000E+01 0.  0.
    9000005    1    3    3    0    0  0.48704449807E+02 -0.38628841639E+02 -0.40493916899E+02  0.74196146418E+02  0.10000000000E+01 0.  0.
<mgrwt>
<rscale>  0 0.12499891E+03</rscale>
<asrwt>0</asrwt>
<pdfrwt beam="1">  1        4 0.47038079E-02 0.12499891E+03</pdfrwt>
<pdfrwt beam="2">  1       -4 0.19655141E-01 0.12499891E+03</pdfrwt>
<totfact> 0.97667496E+03</totfact>
</mgrwt>
</event>
<event>
 5    1  0.3284464E-002  0.1249825E+03  0.7818608E-02  0.1235097E+00
          4   -1    0    0  501    0  0.00000000000E+00  0.00000000000E+00  0.42974558863E+02  0.42993320522E+02  0.12700000000E+01 0. -1.
         -4   -1    0    0    0  501 -0.00000000000E+00 -0.00000000000E+00 -0.90828315592E+02  0.90837193997E+02  0.12700000000E+01 0. -1.
         25    2    1    2    0    0  0.00000000000E+00  0.00000000000E+00 -0.47853756729E+02  0.13383051452E+03  0.12498249711E+03 0.  0.
    9000005    1    3    3    0    0 -0.35487793721E+02  0.44391747754E+02 -0.51729306671E+02  0.76856567322E+02  0.10000000000E+01 0.  0.
    9000005    1    3    3    0    0  0.35487793721E+02 -0.44391747754E+02  0.38755499428E+01  0.56973947197E+02  0.10000000000E+01 0.  0.
<mgrwt>
<rscale>  0 0.12498250E+03</rscale>
<asrwt>0</asrwt>
<pdfrwt beam="1">  1        4 0.66135968E-02 0.12498250E+03</pdfrwt>
<pdfrwt beam="2">  1       -4 0.13975713E-01 0.12498250E+03</pdfrwt>
<totfact> 0.10266832E+04</totfact>
</mgrwt>
</event>
<event>
 5    1  0.3284464E-002  0.1249988E+03  0.7818608E-02  0.1235071E+00
         -4   -1    0    0    0  501 -0.00000000000E+00  0.00000000000E+00  0.99635550256E+03  0.99635631196E+03  0.12700000000E+01 0.  1.
          4   -1    0    0  501    0  0.00000000000E+00 -0.00000000000E+00 -0.38167789603E+01  0.40225242860E+01  0.12700000000E+01 0.  1.
         25    2    1    2    0    0  0.00000000000E+00  0.00000000000E+00  0.99253872360E+03  0.10003788362E+04  0.12499879265E+03 0.  0.
    9000005    1    3    3    0    0  0.19500925896E+02 -0.13730563483E+02  0.33999975131E+02  0.41542903043E+02  0.10000000000E+01 0.  0.
    9000005    1    3    3    0    0 -0.19500925896E+02  0.13730563483E+02  0.95853874847E+03  0.95883593321E+03  0.10000000000E+01 0.  0.
<mgrwt>
<rscale>  0 0.12499879E+03</rscale>
<asrwt>0</asrwt>
<pdfrwt beam="2">  1        4 0.60308627E-03 0.12499879E+03</pdfrwt>
<pdfrwt beam="1">  1       -4 0.15330118E+00 0.12499879E+03</pdfrwt>
<totfact> 0.30592819E+03</totfact>
</mgrwt>
</event>
<event>
 5    1  0.3284464E-002  0.1249997E+03  0.7818608E-02  0.1235070E+00
          4   -1    0    0  501    0  0.00000000000E+00  0.00000000000E+00  0.55423739501E+03  0.55423885007E+03  0.12700000000E+01 0.  1.
         -4   -1    0    0    0  501 -0.00000000000E+00 -0.00000000000E+00 -0.69892521631E+01  0.71036994446E+01  0.12700000000E+01 0.  1.
         25    2    1    2    0    0  0.00000000000E+00  0.00000000000E+00  0.54724814285E+03  0.56134254952E+03  0.12499971219E+03 0.  0.
    9000005    1    3    3    0    0 -0.18334996493E+02 -0.61916724755E+01  0.67841649935E+01  0.20531288296E+02  0.10000000000E+01 0.  0.
    9000005    1    3    3    0    0  0.18334996493E+02  0.61916724755E+01  0.54046397785E+03  0.54081126122E+03  0.10000000000E+01 0.  0.
<mgrwt>
<rscale>  0 0.12499971E+03</rscale>
<asrwt>0</asrwt>
<pdfrwt beam="1">  1        4 0.85276223E-01 0.12499971E+03</pdfrwt>
<pdfrwt beam="2">  1       -4 0.10841849E-02 0.12499971E+03</pdfrwt>
<totfact> 0.51402702E+03</totfact>
</mgrwt>
</event>
<event>
 5    1  0.3284464E-002  0.1250000E+03  0.7818608E-02  0.1235069E+00
          4   -1    0    0  501    0  0.00000000000E+00  0.00000000000E+00  0.10032583182E+03  0.10033386981E+03  0.12700000000E+01 0.  1.
         -4   -1    0    0    0  501 -0.00000000000E+00 -0.00000000000E+00 -0.38915697239E+02  0.38936414725E+02  0.12700000000E+01 0.  1.
         25    2    1    2    0    0  0.00000000000E+00  0.00000000000E+00  0.61410134584E+02  0.13927028453E+03  0.12500003010E+03 0.  0.
    9000005    1    3    3    0    0  0.58874839853E+01 -0.62196347460E+02  0.32359054275E+02  0.70364454795E+02  0.10000000000E+01 0.  0.
    9000005    1    3    3    0    0 -0.58874839853E+01  0.62196347460E+02  0.29051080309E+02  0.68905829740E+02  0.10000000000E+01 0.  0.
<mgrwt>
<rscale>  0 0.12500003E+03</rscale>
<asrwt>0</asrwt>
<pdfrwt beam="1">  1        4 0.15436955E-01 0.12500003E+03</pdfrwt>
<pdfrwt beam="2">  1       -4 0.59892423E-02 0.12500003E+03</pdfrwt>
<totfact> 0.10148725E+04</totfact>
</mgrwt>
</event>
<event>
 5    1  0.3284464E-002  0.1249956E+03  0.7818608E-02  0.1235076E+00
          4   -1    0    0  501    0  0.00000000000E+00  0.00000000000E+00  0.28516138906E+03  0.28516421710E+03  0.12700000000E+01 0. -1.
         -4   -1    0    0    0  501 -0.00000000000E+00 -0.00000000000E+00 -0.13665081605E+02  0.13723970098E+02  0.12700000000E+01 0. -1.
         25    2    1    2    0    0  0.00000000000E+00  0.00000000000E+00  0.27149630746E+03  0.29888818719E+03  0.12499561385E+03 0.  0.
    9000005    1    3    3    0    0  0.12127071703E+02 -0.33824744990E+02  0.25799843697E+03  0.26049063845E+03  0.10000000000E+01 0.  0.
    9000005    1    3    3    0    0 -0.12127071703E+02  0.33824744990E+02  0.13497870487E+02  0.38397548743E+02  0.10000000000E+01 0.  0.
<mgrwt>
<rscale>  0 0.12499561E+03</rscale>
<asrwt>0</asrwt>
<pdfrwt beam="1">  1        4 0.43875734E-01 0.12499561E+03</pdfrwt>
<pdfrwt beam="2">  1       -4 0.21070675E-02 0.12499561E+03</pdfrwt>
<totfact> 0.75745886E+03</totfact>
</mgrwt>
</event>
<event>
 5    1  0.3284464E-002  0.1249990E+03  0.7818608E-02  0.1235071E+00
         -4   -1    0    0    0  501 -0.00000000000E+00  0.00000000000E+00  0.83676049456E+01  0.84634338496E+01  0.12700000000E+01 0.  1.
          4   -1    0    0  501    0  0.00000000000E+00 -0.00000000000E+00 -0.46406780845E+03  0.46406954624E+03  0.12700000000E+01 0.  1.
         25    2    1    2    0    0  0.00000000000E+00  0.00000000000E+00 -0.45570020351E+03  0.47253298009E+03  0.12499896716E+03 0.  0.
    9000005    1    3    3    0    0  0.39694215413E+02 -0.47653149534E+02 -0.25682108801E+03  0.26420545915E+03  0.10000000000E+01 0.  0.
    9000005    1    3    3    0    0 -0.39694215413E+02  0.47653149534E+02 -0.19887911550E+03  0.20832752093E+03  0.10000000000E+01 0.  0.
<mgrwt>
<rscale>  0 0.12499897E+03</rscale>
<asrwt>0</asrwt>
<pdfrwt beam="2">  1        4 0.71402533E-01 0.12499897E+03</pdfrwt>
<pdfrwt beam="1">  1       -4 0.12948293E-02 0.12499897E+03</pdfrwt>
<totfact> 0.58061608E+03</totfact>
</mgrwt>
</event>
<event>
 5    1  0.3284464E-002  0.1249961E+03  0.7818608E-02  0.1235075E+00
         -4   -1    0    0    0  501 -0.00000000000E+00  0.00000000000E+00  0.80644972738E+02  0.80654972122E+02  0.12700000000E+01 0.  1.
          4   -1    0    0  501    0  0.00000000000E+00 -0.00000000000E+00 -0.48413289395E+02  0.48429944146E+02  0.12700000000E+01 0.  1.
         25    2    1    2    0    0  0.00000000000E+00  0.00000000000E+00  0.32231683344E+02  0.12908491627E+03  0.12499613673E+03 0.  0.
    9000005    1    3    3    0    0 -0.42385484928E+02  0.11183782842E+02 -0.29876371041E+02  0.53058494869E+02  0.10000000000E+01 0.  0.
    9000005    1    3    3    0    0  0.42385484928E+02 -0.11183782842E+02  0.62108054385E+02  0.76026421399E+02  0.10000000000E+01 0.  0.
<mgrwt>
<rscale>  0 0.12499614E+03</rscale>
<asrwt>0</asrwt>
<pdfrwt beam="2">  1        4 0.74502487E-02 0.12499614E+03</pdfrwt>
<pdfrwt beam="1">  1       -4 0.12408969E-01 0.12499614E+03</pdfrwt>
<totfact> 0.10365026E+04</totfact>
</mgrwt>
</event>
<event>
 5    1  0.3284464E-002  0.1249998E+03  0.7818608E-02  0.1235070E+00
          4   -1    0    0  501    0  0.00000000000E+00  0.00000000000E+00  0.21385023349E+03  0.21385400455E+03  0.12700000000E+01 0. -1.
         -4   -1    0    0    0  501 -0.00000000000E+00 -0.00000000000E+00 -0.18240229769E+02  0.18284389025E+02  0.12700000000E+01 0. -1.
         25    2    1    2    0    0  0.00000000000E+00  0.00000000000E+00  0.19561000372E+03  0.23213839358E+03  0.12499984087E+03 0.  0.
    9000005    1    3    3    0    0  0.32291836194E+02  0.21545744087E+02  0.68586064082E+01  0.39433770488E+02  0.10000000000E+01 0.  0.
    9000005    1    3    3    0    0 -0.32291836194E+02 -0.21545744087E+02  0.18875139731E+03  0.19270462309E+03  0.10000000000E+01 0.  0.
<mgrwt>
<rscale>  0 0.12499984E+03</rscale>
<asrwt>0</asrwt>
<pdfrwt beam="1">  1        4 0.32903721E-01 0.12499984E+03</pdfrwt>
<pdfrwt beam="2">  1       -4 0.28098763E-02 0.12499984E+03</pdfrwt>
<totfact> 0.84982625E+03</totfact>
</mgrwt>
</event>
<event>
 5    1  0.3284464E-002  0.1250095E+03  0.7818608E-02  0.1235054E+00
         -4   -1    0    0    0  501 -0.00000000000E+00  0.00000000000E+00  0.29537600908E+03  0.29537873932E+03  0.12700000000E+01 0. -1.
          4   -1    0    0  501    0  0.00000000000E+00 -0.00000000000E+00 -0.13193395744E+02  0.13254380078E+02  0.12700000000E+01 0. -1.
         25    2    1    2    0    0  0.00000000000E+00  0.00000000000E+00  0.28218261334E+03  0.30863311939E+03  0.12500950011E+03 0.  0.
    9000005    1    3    3    0    0  0.42015607302E+02  0.80608836467E+01  0.28613562107E+02  0.51478393901E+02  0.10000000000E+01 0.  0.
    9000005    1    3    3    0    0 -0.42015607302E+02 -0.80608836467E+01  0.25356905123E+03  0.25715472549E+03  0.10000000000E+01 0.  0.
<mgrwt>
<rscale>  0 0.12500950E+03</rscale>
<asrwt>0</asrwt>
<pdfrwt beam="2">  1        4 0.20346546E-02 0.12500950E+03</pdfrwt>
<pdfrwt beam="1">  1       -4 0.45447358E-01 0.12500950E+03</pdfrwt>
<totfact> 0.74512818E+03</totfact>
</mgrwt>
</event>
<event>
 5    1  0.3284464E-002  0.1250403E+03  0.7818608E-02  0.1235006E+00
         -4   -1    0    0    0  501 -0.00000000000E+00  0.00000000000E+00  0.36705862089E+02  0.36727826123E+02  0.12700000000E+01 0.  1.
          4   -1    0    0  501    0  0.00000000000E+00 -0.00000000000E+00 -0.10643130422E+03  0.10643888114E+03  0.12700000000E+01 0.  1.
         25    2    1    2    0    0  0.00000000000E+00  0.00000000000E+00 -0.69725442128E+02  0.14316670726E+03  0.12504026866E+03 0.  0.
    9000005    1    3    3    0    0  0.29809999215E+02 -0.41068186808E+02 -0.76658409160E+02  0.91938804190E+02  0.10000000000E+01 0.  0.
    9000005    1    3    3    0    0 -0.29809999215E+02  0.41068186808E+02  0.69329670315E+01  0.51227903068E+02  0.10000000000E+01 0.  0.
<mgrwt>
<rscale>  0 0.12504027E+03</rscale>
<asrwt>0</asrwt>
<pdfrwt beam="2">  1        4 0.16376319E-01 0.12504027E+03</pdfrwt>
<pdfrwt beam="1">  1       -4 0.56493281E-02 0.12504027E+03</pdfrwt>
<totfact> 0.10059245E+04</totfact>
</mgrwt>
</event>
<event>
 5    1  0.3284464E-002  0.1250024E+03  0.7818608E-02  0.1235066E+00
         -4   -1    0    0    0  501 -0.00000000000E+00  0.00000000000E+00  0.34791867301E+02  0.34815038853E+02  0.12700000000E+01 0.  1.
          4   -1    0    0  501    0  0.00000000000E+00 -0.00000000000E+00 -0.11221495867E+03  0.11222214510E+03  0.12700000000E+01 0.  1.
         25    2    1    2    0    0  0.00000000000E+00  0.00000000000E+00 -0.77423091371E+02  0.14703718395E+03  0.12500239352E+03 0.  0.
    9000005    1    3    3    0    0  0.25309078887E+02 -0.20270581079E+02 -0.10155098576E+03  0.10660698213E+03  0.10000000000E+01 0.  0.
    9000005    1    3    3    0    0 -0.25309078887E+02  0.20270581079E+02  0.24127894385E+02  0.40430201816E+02  0.10000000000E+01 0.  0.
<mgrwt>
<rscale>  0 0.12500239E+03</rscale>
<asrwt>0</asrwt>
<pdfrwt beam="2">  1        4 0.17266175E-01 0.12500239E+03</pdfrwt>
<pdfrwt beam="1">  1       -4 0.53549302E-02 0.12500239E+03</pdfrwt>
<totfact> 0.99892221E+03</totfact>
</mgrwt>
</event>
<event>
 5    1  0.3284464E-002  0.1250004E+03  0.7818608E-02  0.1235069E+00
         -4   -1    0    0    0  501 -0.00000000000E+00  0.00000000000E+00  0.42933049514E+03  0.42933237353E+03  0.12700000000E+01 0.  1.
          4   -1    0    0  501    0  0.00000000000E+00 -0.00000000000E+00 -0.90523009240E+01  0.91409546557E+01  0.12700000000E+01 0.  1.
         25    2    1    2    0    0  0.00000000000E+00  0.00000000000E+00  0.42027819422E+03  0.43847332818E+03  0.12500039597E+03 0.  0.
    9000005    1    3    3    0    0 -0.22210955431E+02  0.24572494335E+02  0.24255432240E+02  0.41066531533E+02  0.10000000000E+01 0.  0.
    9000005    1    3    3    0    0  0.22210955431E+02 -0.24572494335E+02  0.39602276198E+03  0.39740679665E+03  0.10000000000E+01 0.  0.
<mgrwt>
<rscale>  0 0.12500040E+03</rscale>
<asrwt>0</asrwt>
<pdfrwt beam="2">  1        4 0.13996255E-02 0.12500040E+03</pdfrwt>
<pdfrwt beam="1">  1       -4 0.66057820E-01 0.12500040E+03</pdfrwt>
<totfact> 0.60974834E+03</totfact>
</mgrwt>
</event>
<event>
 5    1  0.3284464E-002  0.1249993E+03  0.7818608E-02  0.1235070E+00
         -4   -1    0    0    0  501 -0.00000000000E+00  0.00000000000E+00  0.18277180550E+02  0.18321250745E+02  0.12700000000E+01 0. -1.
          4   -1    0    0  501    0  0.00000000000E+00 -0.00000000000E+00 -0.21341695543E+03  0.21342073415E+03  0.12700000000E+01 0. -1.
         25    2    1    2    0    0  0.00000000000E+00  0.00000000000E+00 -0.19513977488E+03  0.23174198490E+03  0.12499926329E+03 0.  0.
    9000005    1    3    3    0    0  0.50947677932E+02 -0.34681169936E+02 -0.78414523522E+02  0.99741099522E+02  0.10000000000E+01 0.  0.
    9000005    1    3    3    0    0 -0.50947677932E+02  0.34681169936E+02 -0.11672525136E+03  0.13200088537E+03  0.10000000000E+01 0.  0.
<mgrwt>
<rscale>  0 0.12499926E+03</rscale>
<asrwt>0</asrwt>
<pdfrwt beam="2">  1        4 0.32837057E-01 0.12499926E+03</pdfrwt>
<pdfrwt beam="1">  1       -4 0.28155548E-02 0.12499926E+03</pdfrwt>
<totfact> 0.85044228E+03</totfact>
</mgrwt>
</event>
<event>
 5    1  0.3284464E-002  0.1249614E+03  0.7818608E-02  0.1235130E+00
          4   -1    0    0  501    0  0.00000000000E+00  0.00000000000E+00  0.25046967190E+03  0.25047289163E+03  0.12700000000E+01 0. -1.
         -4   -1    0    0    0  501 -0.00000000000E+00 -0.00000000000E+00 -0.15556863513E+02  0.15608616286E+02  0.12700000000E+01 0. -1.
         25    2    1    2    0    0  0.00000000000E+00  0.00000000000E+00  0.23491280839E+03  0.26608150792E+03  0.12496135927E+03 0.  0.
    9000005    1    3    3    0    0  0.40468418036E+02  0.15393248028E+02  0.21335081877E+03  0.21770212864E+03  0.10000000000E+01 0.  0.
    9000005    1    3    3    0    0 -0.40468418036E+02 -0.15393248028E+02  0.21561989616E+02  0.48379379278E+02  0.10000000000E+01 0.  0.
<mgrwt>
<rscale>  0 0.12496136E+03</rscale>
<asrwt>0</asrwt>
<pdfrwt beam="1">  1        4 0.38538024E-01 0.12496136E+03</pdfrwt>
<pdfrwt beam="2">  1       -4 0.23975923E-02 0.12496136E+03</pdfrwt>
<totfact> 0.80128982E+03</totfact>
</mgrwt>
</event>
<event>
 5    1  0.3284464E-002  0.1250016E+03  0.7818608E-02  0.1235067E+00
          4   -1    0    0  501    0  0.00000000000E+00  0.00000000000E+00  0.13747396129E+02  0.13805933518E+02  0.12700000000E+01 0.  1.
         -4   -1    0    0    0  501 -0.00000000000E+00 -0.00000000000E+00 -0.28348856348E+03  0.28349140820E+03  0.12700000000E+01 0.  1.
         25    2    1    2    0    0  0.00000000000E+00  0.00000000000E+00 -0.26974116735E+03  0.29729734172E+03  0.12500164811E+03 0.  0.
    9000005    1    3    3    0    0  0.55431011476E+02  0.27716192043E+02 -0.11575946028E+03  0.13130893716E+03  0.10000000000E+01 0.  0.
    9000005    1    3    3    0    0 -0.55431011476E+02 -0.27716192043E+02 -0.15398170707E+03  0.16598840456E+03  0.10000000000E+01 0.  0.
<mgrwt>
<rscale>  0 0.12500165E+03</rscale>
<asrwt>0</asrwt>
<pdfrwt beam="1">  1        4 0.21197059E-02 0.12500165E+03</pdfrwt>
<pdfrwt beam="2">  1       -4 0.43618343E-01 0.12500165E+03</pdfrwt>
<totfact> 0.75936334E+03</totfact>
</mgrwt>
</event>
<event>
 5    1  0.3284464E-002  0.1250020E+03  0.7818608E-02  0.1235066E+00
          4   -1    0    0  501    0  0.00000000000E+00  0.00000000000E+00  0.70384266548E+02  0.70395723432E+02  0.12700000000E+01 0.  1.
         -4   -1    0    0    0  501 -0.00000000000E+00 -0.00000000000E+00 -0.55477459914E+02  0.55491994545E+02  0.12700000000E+01 0.  1.
         25    2    1    2    0    0  0.00000000000E+00  0.00000000000E+00  0.14906806634E+02  0.12588771798E+03  0.12500201860E+03 0.  0.
    9000005    1    3    3    0    0  0.30033978118E+02  0.27476355647E+01 -0.47668193177E+02  0.56416717235E+02  0.10000000000E+01 0.  0.
    9000005    1    3    3    0    0 -0.30033978118E+02 -0.27476355647E+01  0.62574999811E+02  0.69471000742E+02  0.10000000000E+01 0.  0.
<mgrwt>
<rscale>  0 0.12500202E+03</rscale>
<asrwt>0</asrwt>
<pdfrwt beam="1">  1        4 0.10830348E-01 0.12500202E+03</pdfrwt>
<pdfrwt beam="2">  1       -4 0.85369932E-02 0.12500202E+03</pdfrwt>
<totfact> 0.10432944E+04</totfact>
</mgrwt>
</event>
<event>
 5    1  0.3284464E-002  0.1250005E+03  0.7818608E-02  0.1235069E+00
          4   -1    0    0  501    0  0.00000000000E+00  0.00000000000E+00  0.67301796151E+01  0.68489574135E+01  0.12700000000E+01 0. -1.
         -4   -1    0    0    0  501 -0.00000000000E+00 -0.00000000000E+00 -0.57521577577E+03  0.57521717776E+03  0.12700000000E+01 0. -1.
         25    2    1    2    0    0  0.00000000000E+00  0.00000000000E+00 -0.56848559615E+03  0.58206613517E+03  0.12500045074E+03 0.  0.
    9000005    1    3    3    0    0 -0.50782334028E+01  0.42029992666E+02 -0.70196677584E+02  0.81980987319E+02  0.10000000000E+01 0.  0.
    9000005    1    3    3    0    0  0.50782334028E+01 -0.42029992666E+02 -0.49828891857E+03  0.50008514785E+03  0.10000000000E+01 0.  0.
<mgrwt>
<rscale>  0 0.12500045E+03</rscale>
<asrwt>0</asrwt>
<pdfrwt beam="1">  1        4 0.10446573E-02 0.12500045E+03</pdfrwt>
<pdfrwt beam="2">  1       -4 0.88503941E-01 0.12500045E+03</pdfrwt>
<totfact> 0.50019096E+03</totfact>
</mgrwt>
</event>
<event>
 5    1  0.3284464E-002  0.1250037E+03  0.7818608E-02  0.1235063E+00
          4   -1    0    0  501    0  0.00000000000E+00  0.00000000000E+00  0.53345427885E+02  0.53360543253E+02  0.12700000000E+01 0.  1.
         -4   -1    0    0    0  501 -0.00000000000E+00 -0.00000000000E+00 -0.73198970142E+02  0.73209986545E+02  0.12700000000E+01 0.  1.
         25    2    1    2    0    0  0.00000000000E+00  0.00000000000E+00 -0.19853542257E+02  0.12657052980E+03  0.12500374344E+03 0.  0.
    9000005    1    3    3    0    0 -0.51374288906E+02  0.29268755635E+02 -0.30416674015E+02  0.66499260712E+02  0.10000000000E+01 0.  0.
    9000005    1    3    3    0    0  0.51374288906E+02 -0.29268755635E+02  0.10563131758E+02  0.60071269086E+02  0.10000000000E+01 0.  0.
<mgrwt>
<rscale>  0 0.12500374E+03</rscale>
<asrwt>0</asrwt>
<pdfrwt beam="1">  1        4 0.82089990E-02 0.12500374E+03</pdfrwt>
<pdfrwt beam="2">  1       -4 0.11263390E-01 0.12500374E+03</pdfrwt>
<totfact> 0.10417610E+04</totfact>
</mgrwt>
</event>
<event>
 5    1  0.3284464E-002  0.1250025E+03  0.7818608E-02  0.1235065E+00
         -4   -1    0    0    0  501 -0.00000000000E+00  0.00000000000E+00  0.34791468456E+02  0.34814640273E+02  0.12700000000E+01 0. -1.
          4   -1    0    0  501    0  0.00000000000E+00 -0.00000000000E+00 -0.11221645623E+03  0.11222364255E+03  0.12700000000E+01 0. -1.
         25    2    1    2    0    0  0.00000000000E+00  0.00000000000E+00 -0.77424987771E+02  0.14703828283E+03  0.12500251152E+03 0.  0.
    9000005    1    3    3    0    0  0.22685567644E+02  0.57820520974E+02 -0.46824525255E+02  0.77790640764E+02  0.10000000000E+01 0.  0.
    9000005    1    3    3    0    0 -0.22685567644E+02 -0.57820520974E+02 -0.30600462515E+02  0.69247642063E+02  0.10000000000E+01 0.  0.
<mgrwt>
<rscale>  0 0.12500251E+03</rscale>
<asrwt>0</asrwt>
<pdfrwt beam="2">  1        4 0.17266405E-01 0.12500251E+03</pdfrwt>
<pdfrwt beam="1">  1       -4 0.53548689E-02 0.12500251E+03</pdfrwt>
<totfact> 0.99891734E+03</totfact>
</mgrwt>
</event>
<event>
 5    1  0.3284464E-002  0.1249900E+03  0.7818608E-02  0.1235085E+00
          4   -1    0    0  501    0  0.00000000000E+00  0.00000000000E+00  0.16716684387E+03  0.16717166802E+03  0.12700000000E+01 0.  1.
         -4   -1    0    0    0  501 -0.00000000000E+00 -0.00000000000E+00 -0.23341204585E+02  0.23375729539E+02  0.12700000000E+01 0.  1.
         25    2    1    2    0    0  0.00000000000E+00  0.00000000000E+00  0.14382563929E+03  0.19054739756E+03  0.12498998441E+03 0.  0.
    9000005    1    3    3    0    0  0.48140628319E+02 -0.11985750409E+02  0.13992888114E+02  0.51555593544E+02  0.10000000000E+01 0.  0.
    9000005    1    3    3    0    0 -0.48140628319E+02  0.11985750409E+02  0.12983275117E+03  0.13899180402E+03  0.10000000000E+01 0.  0.
<mgrwt>
<rscale>  0 0.12498998E+03</rscale>
<asrwt>0</asrwt>
<pdfrwt beam="1">  1        4 0.25721003E-01 0.12498998E+03</pdfrwt>
<pdfrwt beam="2">  1       -4 0.35939815E-02 0.12498998E+03</pdfrwt>
<totfact> 0.91772743E+03</totfact>
</mgrwt>
</event>
<event>
 5    1  0.3284464E-002  0.1249983E+03  0.7818608E-02  0.1235072E+00
          4   -1    0    0  501    0  0.00000000000E+00  0.00000000000E+00  0.22688592487E+02  0.22724108983E+02  0.12700000000E+01 0. -1.
         -4   -1    0    0    0  501 -0.00000000000E+00 -0.00000000000E+00 -0.17199093881E+03  0.17199562765E+03  0.12700000000E+01 0. -1.
         25    2    1    2    0    0  0.00000000000E+00  0.00000000000E+00 -0.14930234632E+03  0.19471973664E+03  0.12499834087E+03 0.  0.
    9000005    1    3    3    0    0  0.48271036403E+01  0.48604491179E+02 -0.13537354990E+03  0.14391905887E+03  0.10000000000E+01 0.  0.
    9000005    1    3    3    0    0 -0.48271036403E+01 -0.48604491179E+02 -0.13928796422E+02  0.50800677772E+02  0.10000000000E+01 0.  0.
<mgrwt>
<rscale>  0 0.12499834E+03</rscale>
<asrwt>0</asrwt>
<pdfrwt beam="1">  1        4 0.34936455E-02 0.12499834E+03</pdfrwt>
<pdfrwt beam="2">  1       -4 0.26463236E-01 0.12499834E+03</pdfrwt>
<totfact> 0.91035902E+03</totfact>
</mgrwt>
</event>
<event>
 5    1  0.3284464E-002  0.1250035E+03  0.7818608E-02  0.1235064E+00
          4   -1    0    0  501    0  0.00000000000E+00  0.00000000000E+00  0.11423388461E+02  0.11493768048E+02  0.12700000000E+01 0.  1.
         -4   -1    0    0    0  501 -0.00000000000E+00 -0.00000000000E+00 -0.34084948978E+03  0.34085185577E+03  0.12700000000E+01 0.  1.
         25    2    1    2    0    0  0.00000000000E+00  0.00000000000E+00 -0.32942610131E+03  0.35234562382E+03  0.12500352953E+03 0.  0.
    9000005    1    3    3    0    0  0.23666342299E+02 -0.28270095751E+02 -0.30694293643E+03  0.30915086980E+03  0.10000000000E+01 0.  0.
    9000005    1    3    3    0    0 -0.23666342299E+02  0.28270095751E+02 -0.22483164885E+02  0.43194754019E+02  0.10000000000E+01 0.  0.
<mgrwt>
<rscale>  0 0.12500353E+03</rscale>
<asrwt>0</asrwt>
<pdfrwt beam="1">  1        4 0.17630405E-02 0.12500353E+03</pdfrwt>
<pdfrwt beam="2">  1       -4 0.52443971E-01 0.12500353E+03</pdfrwt>
<totfact> 0.69461855E+03</totfact>
</mgrwt>
</event>
<event>
 5    1  0.3284464E-002  0.1250008E+03  0.7818608E-02  0.1235068E+00
         -4   -1    0    0    0  501 -0.00000000000E+00  0.00000000000E+00  0.62682452536E+02  0.62695316858E+02  0.12700000000E+01 0.  1.
          4   -1    0    0  501    0  0.00000000000E+00 -0.00000000000E+00 -0.62293174891E+02  0.62306119587E+02  0.12700000000E+01 0.  1.
         25    2    1    2    0    0  0.00000000000E+00  0.00000000000E+00  0.38927764516E+00  0.12500143645E+03  0.12500083030E+03 0.  0.
    9000005    1    3    3    0    0 -0.27324598663E+02  0.53399255114E+02 -0.17332218695E+02  0.62446136339E+02  0.10000000000E+01 0.  0.
    9000005    1    3    3    0    0  0.27324598663E+02 -0.53399255114E+02  0.17721496340E+02  0.62555300106E+02  0.10000000000E+01 0.  0.
<mgrwt>
<rscale>  0 0.12500083E+03</rscale>
<asrwt>0</asrwt>
<pdfrwt beam="2">  1        4 0.95855507E-02 0.12500083E+03</pdfrwt>
<pdfrwt beam="1">  1       -4 0.96454395E-02 0.12500083E+03</pdfrwt>
<totfact> 0.10452635E+04</totfact>
</mgrwt>
</event>
<event>
 5    1  0.3284464E-002  0.1250025E+03  0.7818608E-02  0.1235065E+00
         -4   -1    0    0    0  501 -0.00000000000E+00  0.00000000000E+00  0.43734460274E+01  0.45541113464E+01  0.12700000000E+01 0. -1.
          4   -1    0    0  501    0  0.00000000000E+00 -0.00000000000E+00 -0.87495294772E+03  0.87495386943E+03  0.12700000000E+01 0. -1.
         25    2    1    2    0    0  0.00000000000E+00  0.00000000000E+00 -0.87057950169E+03  0.87950798077E+03  0.12500247788E+03 0.  0.
    9000005    1    3    3    0    0  0.14397220746E+02  0.15897917091E+02 -0.22299501176E+02  0.30956283462E+02  0.10000000000E+01 0.  0.
    9000005    1    3    3    0    0 -0.14397220746E+02 -0.15897917091E+02 -0.84828000052E+03  0.84855169731E+03  0.10000000000E+01 0.  0.
<mgrwt>
<rscale>  0 0.12500248E+03</rscale>
<asrwt>0</asrwt>
<pdfrwt beam="2">  1        4 0.13462198E+00 0.12500248E+03</pdfrwt>
<pdfrwt beam="1">  1       -4 0.68680678E-03 0.12500248E+03</pdfrwt>
<totfact> 0.34947445E+03</totfact>
</mgrwt>
</event>
<event>
 5    1  0.3284464E-002  0.1249996E+03  0.7818608E-02  0.1235070E+00
          4   -1    0    0  501    0  0.00000000000E+00  0.00000000000E+00  0.82020313306E+01  0.82997721624E+01  0.12700000000E+01 0.  1.
         -4   -1    0    0    0  501 -0.00000000000E+00 -0.00000000000E+00 -0.47333152924E+03  0.47333323301E+03  0.12700000000E+01 0.  1.
         25    2    1    2    0    0  0.00000000000E+00  0.00000000000E+00 -0.46512949791E+03  0.48163300517E+03  0.12499960739E+03 0.  0.
    9000005    1    3    3    0    0 -0.25003245111E+02  0.22822769741E+02 -0.30170600273E+02  0.45357537473E+02  0.10000000000E+01 0.  0.
    9000005    1    3    3    0    0  0.25003245111E+02 -0.22822769741E+02 -0.43495889763E+03  0.43627546770E+03  0.10000000000E+01 0.  0.
<mgrwt>
<rscale>  0 0.12499961E+03</rscale>
<asrwt>0</asrwt>
<pdfrwt beam="1">  1        4 0.12695009E-02 0.12499961E+03</pdfrwt>
<pdfrwt beam="2">  1       -4 0.72827864E-01 0.12499961E+03</pdfrwt>
<totfact> 0.57318626E+03</totfact>
</mgrwt>
</event>
<event>
 5    1  0.3284464E-002  0.1250322E+03  0.7818608E-02  0.1235019E+00
         -4   -1    0    0    0  501 -0.00000000000E+00  0.00000000000E+00  0.29266153158E+03  0.29266428714E+03  0.12700000000E+01 0. -1.
          4   -1    0    0  501    0  0.00000000000E+00 -0.00000000000E+00 -0.13321181697E+02  0.13381583681E+02  0.12700000000E+01 0. -1.
         25    2    1    2    0    0  0.00000000000E+00  0.00000000000E+00  0.27934034989E+03  0.30604587082E+03  0.12503217176E+03 0.  0.
    9000005    1    3    3    0    0 -0.44059683243E+02  0.11359127143E+02  0.34760283902E+02  0.57267467151E+02  0.10000000000E+01 0.  0.
    9000005    1    3    3    0    0  0.44059683243E+02 -0.11359127143E+02  0.24458006599E+03  0.24877840367E+03  0.10000000000E+01 0.  0.
<mgrwt>
<rscale>  0 0.12503217E+03</rscale>
<asrwt>0</asrwt>
<pdfrwt beam="2">  1        4 0.20542710E-02 0.12503217E+03</pdfrwt>
<pdfrwt beam="1">  1       -4 0.45029706E-01 0.12503217E+03</pdfrwt>
<totfact> 0.74793253E+03</totfact>
</mgrwt>
</event>
<event>
 4    1  0.3284464E-002  0.1249010E+03  0.7818608E-02  0.1235224E+00
         -4   -1    0    0    0  501 -0.00000000000E+00  0.00000000000E+00  0.45761487959E+03  0.45761664187E+03  0.12700000000E+01 0. -1.
          4   -1    0    0  501    0  0.00000000000E+00 -0.00000000000E+00 -0.84734893009E+01  0.85681340403E+01  0.12700000000E+01 0. -1.
    9000005    1    1    2    0    0  0.48332426499E+02  0.29384685659E+02  0.12584931533E+03  0.13798019195E+03  0.10000000000E+01 0.  0.
    9000005    1    1    2    0    0 -0.48332426499E+02 -0.29384685659E+02  0.32329207496E+03  0.32820458396E+03  0.10000000000E+01 0.  0.
<mgrwt>
<rscale>  0 0.12490099E+03</rscale>
<asrwt>0</asrwt>
<pdfrwt beam="2">  1        4 0.13110298E-02 0.12490099E+03</pdfrwt>
<pdfrwt beam="1">  1       -4 0.70409698E-01 0.12490099E+03</pdfrwt>
<totfact> 0.58714793E+03</totfact>
</mgrwt>
</event>
<event>
 5    1  0.3284464E-002  0.1250005E+03  0.7818608E-02  0.1235068E+00
         -4   -1    0    0    0  501 -0.00000000000E+00  0.00000000000E+00  0.14240750495E+03  0.14241316781E+03  0.12700000000E+01 0.  1.
          4   -1    0    0  501    0  0.00000000000E+00 -0.00000000000E+00 -0.27409401658E+02  0.27438808269E+02  0.12700000000E+01 0.  1.
         25    2    1    2    0    0  0.00000000000E+00  0.00000000000E+00  0.11499810329E+03  0.16985197608E+03  0.12500052007E+03 0.  0.
    9000005    1    3    3    0    0  0.37802768390E+01 -0.17042079682E+02  0.13903399652E+03  0.14012913745E+03  0.10000000000E+01 0.  0.
    9000005    1    3    3    0    0 -0.37802768390E+01  0.17042079682E+02 -0.24035893232E+02  0.29722838632E+02  0.10000000000E+01 0.  0.
<mgrwt>
<rscale>  0 0.12500052E+03</rscale>
<asrwt>0</asrwt>
<pdfrwt beam="2">  1        4 0.42195287E-02 0.12500052E+03</pdfrwt>
<pdfrwt beam="1">  1       -4 0.21911544E-01 0.12500052E+03</pdfrwt>
<totfact> 0.95475119E+03</totfact>
</mgrwt>
</event>
<event>
 5    1  0.3284464E-002  0.1250047E+03  0.7818608E-02  0.1235062E+00
          4   -1    0    0  501    0  0.00000000000E+00  0.00000000000E+00  0.23006794977E+01  0.26279319152E+01  0.12700000000E+01 0. -1.
         -4   -1    0    0    0  501 -0.00000000000E+00 -0.00000000000E+00 -0.15849248153E+04  0.15849253241E+04  0.12700000000E+01 0. -1.
         25    2    1    2    0    0  0.00000000000E+00  0.00000000000E+00 -0.15826241358E+04  0.15875532560E+04  0.12500474207E+03 0.  0.
    9000005    1    3    3    0    0 -0.12193846463E+02 -0.44124379182E+02 -0.13316041256E+04  0.13323911580E+04  0.10000000000E+01 0.  0.
    9000005    1    3    3    0    0  0.12193846463E+02  0.44124379182E+02 -0.25102001018E+03  0.25516209797E+03  0.10000000000E+01 0.  0.
<mgrwt>
<rscale>  0 0.12500474E+03</rscale>
<asrwt>0</asrwt>
<pdfrwt beam="1">  1        4 0.37916436E-03 0.12500474E+03</pdfrwt>
<pdfrwt beam="2">  1       -4 0.24385899E+00 0.12500474E+03</pdfrwt>
<totfact> 0.16270480E+03</totfact>
</mgrwt>
</event>
<event>
 5    1  0.3284464E-002  0.1250013E+03  0.7818608E-02  0.1235067E+00
         -4   -1    0    0    0  501 -0.00000000000E+00  0.00000000000E+00  0.13429793096E+01  0.18483758887E+01  0.12700000000E+01 0. -1.
          4   -1    0    0  501    0  0.00000000000E+00 -0.00000000000E+00 -0.24475648785E+04  0.24475652080E+04  0.12700000000E+01 0. -1.
         25    2    1    2    0    0  0.00000000000E+00  0.00000000000E+00 -0.24462218992E+04  0.24494135839E+04  0.12500129925E+03 0.  0.
    9000005    1    3    3    0    0 -0.17664220641E+02  0.21581834212E+02 -0.12726778587E+03  0.13029155606E+03  0.10000000000E+01 0.  0.
    9000005    1    3    3    0    0  0.17664220641E+02 -0.21581834212E+02 -0.23189541133E+04  0.23191220279E+04  0.10000000000E+01 0.  0.
<mgrwt>
<rscale>  0 0.12500130E+03</rscale>
<asrwt>0</asrwt>
<pdfrwt beam="2">  1        4 0.37658434E+00 0.12500130E+03</pdfrwt>
<pdfrwt beam="1">  1       -4 0.24551617E-03 0.12500130E+03</pdfrwt>
<totfact> 0.50790941E+02</totfact>
</mgrwt>
</event>
<event>
 5    1  0.3284464E-002  0.1250065E+03  0.7818608E-02  0.1235059E+00
         -4   -1    0    0    0  501 -0.00000000000E+00  0.00000000000E+00  0.14704134225E+03  0.14704682666E+03  0.12700000000E+01 0.  1.
          4   -1    0    0  501    0  0.00000000000E+00 -0.00000000000E+00 -0.26547275043E+02  0.26577635564E+02  0.12700000000E+01 0.  1.
         25    2    1    2    0    0  0.00000000000E+00  0.00000000000E+00  0.12049406721E+03  0.17362446223E+03  0.12500653443E+03 0.  0.
    9000005    1    3    3    0    0  0.37164853395E+02  0.86427275104E+01 -0.84974386790E+01  0.39104085858E+02  0.10000000000E+01 0.  0.
    9000005    1    3    3    0    0 -0.37164853395E+02 -0.86427275104E+01  0.12899150589E+03  0.13452037637E+03  0.10000000000E+01 0.  0.
<mgrwt>
<rscale>  0 0.12500653E+03</rscale>
<asrwt>0</asrwt>
<pdfrwt beam="2">  1        4 0.40869536E-02 0.12500653E+03</pdfrwt>
<pdfrwt beam="1">  1       -4 0.22624502E-01 0.12500653E+03</pdfrwt>
<totfact> 0.94763479E+03</totfact>
</mgrwt>
</event>
<event>
 5    1  0.3284464E-002  0.1250009E+03  0.7818608E-02  0.1235068E+00
         -4   -1    0    0    0  501 -0.00000000000E+00  0.00000000000E+00  0.33837018728E+02  0.33860843705E+02  0.12700000000E+01 0. -1.
          4   -1    0    0  501    0  0.00000000000E+00 -0.00000000000E+00 -0.11537685133E+03  0.11538384082E+03  0.12700000000E+01 0. -1.
         25    2    1    2    0    0  0.00000000000E+00  0.00000000000E+00 -0.81539832597E+02  0.14924468452E+03  0.12500092623E+03 0.  0.
    9000005    1    3    3    0    0 -0.31296363421E+01 -0.62256764765E+02 -0.35482933417E+02  0.71733799192E+02  0.10000000000E+01 0.  0.
    9000005    1    3    3    0    0  0.31296363421E+01  0.62256764765E+02 -0.46056899181E+02  0.77510885331E+02  0.10000000000E+01 0.  0.
<mgrwt>
<rscale>  0 0.12500093E+03</rscale>
<asrwt>0</asrwt>
<pdfrwt beam="2">  1        4 0.17752655E-01 0.12500093E+03</pdfrwt>
<pdfrwt beam="1">  1       -4 0.52080656E-02 0.12500093E+03</pdfrwt>
<totfact> 0.99452399E+03</totfact>
</mgrwt>
</event>
<event>
 5    1  0.3284464E-002  0.1249996E+03  0.7818608E-02  0.1235070E+00
         -4   -1    0    0    0  501 -0.00000000000E+00  0.00000000000E+00  0.47043675491E+02  0.47060814949E+02  0.12700000000E+01 0. -1.
          4   -1    0    0  501    0  0.00000000000E+00 -0.00000000000E+00 -0.82996822132E+02  0.83006538200E+02  0.12700000000E+01 0. -1.
         25    2    1    2    0    0  0.00000000000E+00  0.00000000000E+00 -0.35953146641E+02  0.13006735315E+03  0.12499955041E+03 0.  0.
    9000005    1    3    3    0    0 -0.23276554114E+01  0.18955448326E+02 -0.79890997480E+02  0.82148027848E+02  0.10000000000E+01 0.  0.
    9000005    1    3    3    0    0  0.23276554114E+01 -0.18955448326E+02  0.43937850839E+02  0.47919325301E+02  0.10000000000E+01 0.  0.
<mgrwt>
<rscale>  0 0.12499955E+03</rscale>
<asrwt>0</asrwt>
<pdfrwt beam="2">  1        4 0.12770808E-01 0.12499955E+03</pdfrwt>
<pdfrwt beam="1">  1       -4 0.72395543E-02 0.12499955E+03</pdfrwt>
<totfact> 0.10343172E+04</totfact>
</mgrwt>
</event>
<event>
 5    1  0.3284464E-002  0.1250027E+03  0.7818608E-02  0.1235065E+00
          4   -1    0    0  501    0  0.00000000000E+00  0.00000000000E+00  0.15995102028E+03  0.15995606206E+03  0.12700000000E+01 0. -1.
         -4   -1    0    0    0  501 -0.00000000000E+00 -0.00000000000E+00 -0.24400645736E+02  0.24433673738E+02  0.12700000000E+01 0. -1.
         25    2    1    2    0    0  0.00000000000E+00  0.00000000000E+00  0.13555037455E+03  0.18438973580E+03  0.12500268248E+03 0.  0.
    9000005    1    3    3    0    0 -0.34464048849E+02  0.22575188994E+02  0.13708866895E+03  0.14314926816E+03  0.10000000000E+01 0.  0.
    9000005    1    3    3    0    0  0.34464048849E+02 -0.22575188994E+02 -0.15382944010E+01  0.41240467636E+02  0.10000000000E+01 0.  0.
<mgrwt>
<rscale>  0 0.12500268E+03</rscale>
<asrwt>0</asrwt>
<pdfrwt beam="1">  1        4 0.24610777E-01 0.12500268E+03</pdfrwt>
<pdfrwt beam="2">  1       -4 0.37568740E-02 0.12500268E+03</pdfrwt>
<totfact> 0.92827170E+03</totfact>
</mgrwt>
</event>
<event>
 5    1  0.3284464E-002  0.1249958E+03  0.7818608E-02  0.1235076E+00
         -4   -1    0    0    0  501 -0.00000000000E+00  0.00000000000E+00  0.86585557445E+02  0.86594870853E+02  0.12700000000E+01 0. -1.
          4   -1    0    0  501    0  0.00000000000E+00 -0.00000000000E+00 -0.45090593072E+02  0.45108474631E+02  0.12700000000E+01 0. -1.
         25    2    1    2    0    0  0.00000000000E+00  0.00000000000E+00  0.41494964373E+02  0.13170334548E+03  0.12499575650E+03 0.  0.
    9000005    1    3    3    0    0 -0.54876575144E+02 -0.27595527242E+02  0.32854663619E+02  0.69666208055E+02  0.10000000000E+01 0.  0.
    9000005    1    3    3    0    0  0.54876575144E+02  0.27595527242E+02  0.86403007543E+01  0.62037137429E+02  0.10000000000E+01 0.  0.
<mgrwt>
<rscale>  0 0.12499576E+03</rscale>
<asrwt>0</asrwt>
<pdfrwt beam="2">  1        4 0.69391063E-02 0.12499576E+03</pdfrwt>
<pdfrwt beam="1">  1       -4 0.13322947E-01 0.12499576E+03</pdfrwt>
<totfact> 0.10309021E+04</totfact>
</mgrwt>
</event>
<event>
 5    1  0.3284464E-002  0.1249990E+03  0.7818608E-02  0.1235071E+00
          4   -1    0    0  501    0  0.00000000000E+00  0.00000000000E+00  0.12333571311E+03  0.12334225159E+03  0.12700000000E+01 0. -1.
         -4   -1    0    0    0  501 -0.00000000000E+00 -0.00000000000E+00 -0.31651058100E+02  0.31676527253E+02  0.12700000000E+01 0. -1.
         25    2    1    2    0    0  0.00000000000E+00  0.00000000000E+00  0.91684655009E+02  0.15501877885E+03  0.12499898332E+03 0.  0.
    9000005    1    3    3    0    0 -0.20544840737E+02  0.52512565666E+02  0.79246786913E+02  0.97266197982E+02  0.10000000000E+01 0.  0.
    9000005    1    3    3    0    0  0.20544840737E+02 -0.52512565666E+02  0.12437868096E+02  0.57752580864E+02  0.10000000000E+01 0.  0.
<mgrwt>
<rscale>  0 0.12499898E+03</rscale>
<asrwt>0</asrwt>
<pdfrwt beam="1">  1        4 0.18977187E-01 0.12499898E+03</pdfrwt>
<pdfrwt beam="2">  1       -4 0.48718557E-02 0.12499898E+03</pdfrwt>
<totfact> 0.98314060E+03</totfact>
</mgrwt>
</event>
<event>
 5    1  0.3284464E-002  0.1249774E+03  0.7818608E-02  0.1235105E+00
          4   -1    0    0  501    0  0.00000000000E+00  0.00000000000E+00  0.98449878810E+02  0.98458069947E+02  0.12700000000E+01 0.  1.
         -4   -1    0    0    0  501 -0.00000000000E+00 -0.00000000000E+00 -0.39643214953E+02  0.39663552435E+02  0.12700000000E+01 0.  1.
         25    2    1    2    0    0  0.00000000000E+00  0.00000000000E+00  0.58806663857E+02  0.13812162238E+03  0.12497743339E+03 0.  0.
    9000005    1    3    3    0    0  0.28550945266E+02  0.24797377037E+02  0.84371342749E+02  0.92463992239E+02  0.10000000000E+01 0.  0.
    9000005    1    3    3    0    0 -0.28550945266E+02 -0.24797377037E+02 -0.25564678892E+02  0.45657630144E+02  0.10000000000E+01 0.  0.
<mgrwt>
<rscale>  0 0.12497743E+03</rscale>
<asrwt>0</asrwt>
<pdfrwt beam="1">  1        4 0.15148329E-01 0.12497743E+03</pdfrwt>
<pdfrwt beam="2">  1       -4 0.61011507E-02 0.12497743E+03</pdfrwt>
<totfact> 0.10177840E+04</totfact>
</mgrwt>
</event>
<event>
 5    1  0.3284464E-002  0.1250017E+03  0.7818608E-02  0.1235067E+00
          4   -1    0    0  501    0  0.00000000000E+00  0.00000000000E+00  0.19480826178E+03  0.19481240145E+03  0.12700000000E+01 0.  1.
         -4   -1    0    0    0  501 -0.00000000000E+00 -0.00000000000E+00 -0.20027849271E+02  0.20068075304E+02  0.12700000000E+01 0.  1.
         25    2    1    2    0    0  0.00000000000E+00  0.00000000000E+00  0.17478041251E+03  0.21488047676E+03  0.12500170676E+03 0.  0.
    9000005    1    3    3    0    0 -0.95786164608E+01  0.31718047994E+02  0.17847512677E+03  0.18152728538E+03  0.10000000000E+01 0.  0.
    9000005    1    3    3    0    0  0.95786164608E+01 -0.31718047994E+02 -0.36947142515E+01  0.33353191381E+02  0.10000000000E+01 0.  0.
<mgrwt>
<rscale>  0 0.12500171E+03</rscale>
<asrwt>0</asrwt>
<pdfrwt beam="1">  1        4 0.29973916E-01 0.12500171E+03</pdfrwt>
<pdfrwt beam="2">  1       -4 0.30846202E-02 0.12500171E+03</pdfrwt>
<totfact> 0.87681640E+03</totfact>
</mgrwt>
</event>
<event>
 5    1  0.3284464E-002  0.1250258E+03  0.7818608E-02  0.1235029E+00
         -4   -1    0    0    0  501 -0.00000000000E+00  0.00000000000E+00  0.49463766980E+03  0.49463930018E+03  0.12700000000E+01 0. -1.
          4   -1    0    0  501    0  0.00000000000E+00 -0.00000000000E+00 -0.78477575622E+01  0.79498552663E+01  0.12700000000E+01 0. -1.
         25    2    1    2    0    0  0.00000000000E+00  0.00000000000E+00  0.48678991224E+03  0.50258915545E+03  0.12502575942E+03 0.  0.
    9000005    1    3    3    0    0  0.48246714737E+02  0.27711414124E+02  0.12890286480E+03  0.14040162573E+03  0.10000000000E+01 0.  0.
    9000005    1    3    3    0    0 -0.48246714737E+02 -0.27711414124E+02  0.35788704744E+03  0.36218752971E+03  0.10000000000E+01 0.  0.
<mgrwt>
<rscale>  0 0.12502576E+03</rscale>
<asrwt>0</asrwt>
<pdfrwt beam="2">  1        4 0.12153269E-02 0.12502576E+03</pdfrwt>
<pdfrwt beam="1">  1       -4 0.76106054E-01 0.12502576E+03</pdfrwt>
<totfact> 0.55632537E+03</totfact>
</mgrwt>
</event>
<event>
 5    1  0.3284464E-002  0.1250007E+03  0.7818608E-02  0.1235068E+00
          4   -1    0    0  501    0  0.00000000000E+00  0.00000000000E+00  0.17953631991E+03  0.17954081171E+03  0.12700000000E+01 0.  1.
         -4   -1    0    0    0  501 -0.00000000000E+00 -0.00000000000E+00 -0.21734379311E+02  0.21771452502E+02  0.12700000000E+01 0.  1.
         25    2    1    2    0    0  0.00000000000E+00  0.00000000000E+00  0.15780194060E+03  0.20131226421E+03  0.12500070105E+03 0.  0.
    9000005    1    3    3    0    0  0.31754951547E+02  0.32845136701E+02  0.10230768455E+02  0.46827861107E+02  0.10000000000E+01 0.  0.
    9000005    1    3    3    0    0 -0.31754951547E+02 -0.32845136701E+02  0.14757117215E+03  0.15448440310E+03  0.10000000000E+01 0.  0.
<mgrwt>
<rscale>  0 0.12500070E+03</rscale>
<asrwt>0</asrwt>
<pdfrwt beam="1">  1        4 0.27624169E-01 0.12500070E+03</pdfrwt>
<pdfrwt beam="2">  1       -4 0.33469481E-02 0.12500070E+03</pdfrwt>
<totfact> 0.89913243E+03</totfact>
</mgrwt>
</event>
<event>
 5    1  0.3284464E-002  0.1250001E+03  0.7818608E-02  0.1235069E+00
         -4   -1    0    0    0  501 -0.00000000000E+00  0.00000000000E+00  0.10883085822E+04  0.10883093232E+04  0.12700000000E+01 0. -1.
          4   -1    0    0  501    0  0.00000000000E+00 -0.00000000000E+00 -0.34761866059E+01  0.37009152002E+01  0.12700000000E+01 0. -1.
         25    2    1    2    0    0  0.00000000000E+00  0.00000000000E+00  0.10848323956E+04  0.10920102384E+04  0.12500013707E+03 0.  0.
    9000005    1    3    3    0    0  0.58582587837E+02  0.81811496718E+01  0.36630084530E+03  0.37104738252E+03  0.10000000000E+01 0.  0.
    9000005    1    3    3    0    0 -0.58582587837E+02 -0.81811496718E+01  0.71853155031E+03  0.72096285590E+03  0.10000000000E+01 0.  0.
<mgrwt>
<rscale>  0 0.12500014E+03</rscale>
<asrwt>0</asrwt>
<pdfrwt beam="2">  1        4 0.55214130E-03 0.12500014E+03</pdfrwt>
<pdfrwt beam="1">  1       -4 0.16744957E+00 0.12500014E+03</pdfrwt>
<totfact> 0.27718297E+03</totfact>
</mgrwt>
</event>
<event>
 5    1  0.3284464E-002  0.1250032E+03  0.7818608E-02  0.1235064E+00
          4   -1    0    0  501    0  0.00000000000E+00  0.00000000000E+00  0.14490489243E+02  0.14546036522E+02  0.12700000000E+01 0.  1.
         -4   -1    0    0    0  501 -0.00000000000E+00 -0.00000000000E+00 -0.26901428674E+03  0.26901728452E+03  0.12700000000E+01 0.  1.
         25    2    1    2    0    0  0.00000000000E+00  0.00000000000E+00 -0.25452379750E+03  0.28356332105E+03  0.12500317415E+03 0.  0.
    9000005    1    3    3    0    0 -0.14022721131E+02  0.46827857161E+02 -0.21558481123E+03  0.22105948464E+03  0.10000000000E+01 0.  0.
    9000005    1    3    3    0    0  0.14022721131E+02 -0.46827857161E+02 -0.38938986271E+02  0.62503836411E+02  0.10000000000E+01 0.  0.
<mgrwt>
<rscale>  0 0.12500317E+03</rscale>
<asrwt>0</asrwt>
<pdfrwt beam="1">  1        4 0.22338097E-02 0.12500317E+03</pdfrwt>
<pdfrwt beam="2">  1       -4 0.41391313E-01 0.12500317E+03</pdfrwt>
<totfact> 0.77702515E+03</totfact>
</mgrwt>
</event>
<event>
 5    1  0.3284464E-002  0.1250031E+03  0.7818608E-02  0.1235064E+00
         -4   -1    0    0    0  501 -0.00000000000E+00  0.00000000000E+00  0.84377423229E+02  0.84386980339E+02  0.12700000000E+01 0. -1.
          4   -1    0    0  501    0  0.00000000000E+00 -0.00000000000E+00 -0.46276407617E+02  0.46293831143E+02  0.12700000000E+01 0. -1.
         25    2    1    2    0    0  0.00000000000E+00  0.00000000000E+00  0.38101015612E+02  0.13068081148E+03  0.12500314836E+03 0.  0.
    9000005    1    3    3    0    0  0.50639720526E+02 -0.36619537318E+02  0.19336743697E+02  0.65423860060E+02  0.10000000000E+01 0.  0.
    9000005    1    3    3    0    0 -0.50639720526E+02  0.36619537318E+02  0.18764271915E+02  0.65256951422E+02  0.10000000000E+01 0.  0.
<mgrwt>
<rscale>  0 0.12500315E+03</rscale>
<asrwt>0</asrwt>
<pdfrwt beam="2">  1        4 0.71215228E-02 0.12500315E+03</pdfrwt>
<pdfrwt beam="1">  1       -4 0.12983217E-01 0.12500315E+03</pdfrwt>
<totfact> 0.10329203E+04</totfact>
</mgrwt>
</event>
<event>
 5    1  0.3284464E-002  0.1250073E+03  0.7818608E-02  0.1235058E+00
          4   -1    0    0  501    0  0.00000000000E+00  0.00000000000E+00  0.32045221168E+01  0.34470076874E+01  0.12700000000E+01 0.  1.
         -4   -1    0    0    0  501 -0.00000000000E+00 -0.00000000000E+00 -0.11744366378E+04  0.11744373244E+04  0.12700000000E+01 0.  1.
         25    2    1    2    0    0  0.00000000000E+00  0.00000000000E+00 -0.11712321156E+04  0.11778843321E+04  0.12500732431E+03 0.  0.
    9000005    1    3    3    0    0  0.55750485901E+02 -0.20525150748E+02 -0.76840068041E+03  0.77069449469E+03  0.10000000000E+01 0.  0.
    9000005    1    3    3    0    0 -0.55750485901E+02  0.20525150748E+02 -0.40283143524E+03  0.40718983743E+03  0.10000000000E+01 0.  0.
<mgrwt>
<rscale>  0 0.12500732E+03</rscale>
<asrwt>0</asrwt>
<pdfrwt beam="1">  1        4 0.51170990E-03 0.12500732E+03</pdfrwt>
<pdfrwt beam="2">  1       -4 0.18070093E+00 0.12500732E+03</pdfrwt>
<totfact> 0.25295091E+03</totfact>
</mgrwt>
</event>
<event>
 5    1  0.3284464E-002  0.1250011E+03  0.7818608E-02  0.1235068E+00
         -4   -1    0    0    0  501 -0.00000000000E+00  0.00000000000E+00  0.10367731752E+02  0.10445226741E+02  0.12700000000E+01 0.  1.
          4   -1    0    0  501    0  0.00000000000E+00 -0.00000000000E+00 -0.37529523918E+03  0.37529738801E+03  0.12700000000E+01 0.  1.
         25    2    1    2    0    0  0.00000000000E+00  0.00000000000E+00 -0.36492750743E+03  0.38574261476E+03  0.12500111664E+03 0.  0.
    9000005    1    3    3    0    0  0.47191536665E+02  0.32782125021E+02 -0.10664750759E+03  0.12114619156E+03  0.10000000000E+01 0.  0.
    9000005    1    3    3    0    0 -0.47191536665E+02 -0.32782125021E+02 -0.25827999983E+03  0.26459642320E+03  0.10000000000E+01 0.  0.
<mgrwt>
<rscale>  0 0.12500112E+03</rscale>
<asrwt>0</asrwt>
<pdfrwt beam="2">  1        4 0.57743845E-01 0.12500112E+03</pdfrwt>
<pdfrwt beam="1">  1       -4 0.16011624E-02 0.12500112E+03</pdfrwt>
<totfact> 0.65961853E+03</totfact>
</mgrwt>
</event>
<event>
 5    1  0.3284464E-002  0.1249994E+03  0.7818608E-02  0.1235070E+00
          4   -1    0    0  501    0  0.00000000000E+00  0.00000000000E+00  0.18655403117E+02  0.18698581910E+02  0.12700000000E+01 0.  1.
         -4   -1    0    0    0  501 -0.00000000000E+00 -0.00000000000E+00 -0.20910069803E+03  0.20910455475E+03  0.12700000000E+01 0.  1.
         25    2    1    2    0    0  0.00000000000E+00  0.00000000000E+00 -0.19044529491E+03  0.22780313666E+03  0.12499943487E+03 0.  0.
    9000005    1    3    3    0    0  0.10601431839E+02 -0.50284007698E+01  0.16638831692E+02  0.20384452198E+02  0.10000000000E+01 0.  0.
    9000005    1    3    3    0    0 -0.10601431839E+02  0.50284007698E+01 -0.20708412660E+03  0.20741868446E+03  0.10000000000E+01 0.  0.
<mgrwt>
<rscale>  0 0.12499943E+03</rscale>
<asrwt>0</asrwt>
<pdfrwt beam="1">  1        4 0.28736803E-02 0.12499943E+03</pdfrwt>
<pdfrwt beam="2">  1       -4 0.32172955E-01 0.12499943E+03</pdfrwt>
<totfact> 0.85649153E+03</totfact>
</mgrwt>
</event>
<event>
 5    1  0.3284464E-002  0.1250023E+03  0.7818608E-02  0.1235066E+00
          4   -1    0    0  501    0  0.00000000000E+00  0.00000000000E+00  0.21219248047E+02  0.21257219660E+02  0.12700000000E+01 0. -1.
         -4   -1    0    0    0  501 -0.00000000000E+00 -0.00000000000E+00 -0.18389185715E+03  0.18389624256E+03  0.12700000000E+01 0. -1.
         25    2    1    2    0    0  0.00000000000E+00  0.00000000000E+00 -0.16267260910E+03  0.20515346222E+03  0.12500226121E+03 0.  0.
    9000005    1    3    3    0    0 -0.88820099642E+01 -0.21576235645E+00  0.20185485798E+02  0.22076922142E+02  0.10000000000E+01 0.  0.
    9000005    1    3    3    0    0  0.88820099642E+01  0.21576235645E+00 -0.18285809490E+03  0.18307654007E+03  0.10000000000E+01 0.  0.
<mgrwt>
<rscale>  0 0.12500226E+03</rscale>
<asrwt>0</asrwt>
<pdfrwt beam="1">  1        4 0.32677580E-02 0.12500226E+03</pdfrwt>
<pdfrwt beam="2">  1       -4 0.28294312E-01 0.12500226E+03</pdfrwt>
<totfact> 0.89269037E+03</totfact>
</mgrwt>
</event>
<event>
 5    1  0.3284464E-002  0.1250024E+03  0.7818608E-02  0.1235065E+00
          4   -1    0    0  501    0  0.00000000000E+00  0.00000000000E+00  0.16016463517E+02  0.16066735935E+02  0.12700000000E+01 0.  1.
         -4   -1    0    0    0  501 -0.00000000000E+00 -0.00000000000E+00 -0.24346511640E+03  0.24346842877E+03  0.12700000000E+01 0.  1.
         25    2    1    2    0    0  0.00000000000E+00  0.00000000000E+00 -0.22744865289E+03  0.25953516470E+03  0.12500244804E+03 0.  0.
    9000005    1    3    3    0    0  0.48486924419E+02  0.12715173576E+02 -0.36240050908E+02  0.61862741359E+02  0.10000000000E+01 0.  0.
    9000005    1    3    3    0    0 -0.48486924419E+02 -0.12715173576E+02 -0.19120860198E+03  0.19767242334E+03  0.10000000000E+01 0.  0.
<mgrwt>
<rscale>  0 0.12500245E+03</rscale>
<asrwt>0</asrwt>
<pdfrwt beam="1">  1        4 0.24681934E-02 0.12500245E+03</pdfrwt>
<pdfrwt beam="2">  1       -4 0.37460291E-01 0.12500245E+03</pdfrwt>
<totfact> 0.80966927E+03</totfact>
</mgrwt>
</event>
<event>
 5    1  0.3284464E-002  0.1249991E+03  0.7818608E-02  0.1235071E+00
         -4   -1    0    0    0  501 -0.00000000000E+00  0.00000000000E+00  0.26924917210E+03  0.26925216727E+03  0.12700000000E+01 0.  1.
          4   -1    0    0  501    0  0.00000000000E+00 -0.00000000000E+00 -0.14476846429E+02  0.14532445855E+02  0.12700000000E+01 0.  1.
         25    2    1    2    0    0  0.00000000000E+00  0.00000000000E+00  0.25477232567E+03  0.28378461312E+03  0.12499907486E+03 0.  0.
    9000005    1    3    3    0    0  0.24654443915E+02 -0.40458343926E+02  0.21989813772E+03  0.22494646067E+03  0.10000000000E+01 0.  0.
    9000005    1    3    3    0    0 -0.24654443915E+02  0.40458343926E+02  0.34874187959E+02  0.58838152450E+02  0.10000000000E+01 0.  0.
<mgrwt>
<rscale>  0 0.12499907E+03</rscale>
<asrwt>0</asrwt>
<pdfrwt beam="2">  1        4 0.22317145E-02 0.12499907E+03</pdfrwt>
<pdfrwt beam="1">  1       -4 0.41427455E-01 0.12499907E+03</pdfrwt>
<totfact> 0.77680552E+03</totfact>
</mgrwt>
</event>
<event>
 5    1  0.3284464E-002  0.1249965E+03  0.7818608E-02  0.1235075E+00
         -4   -1    0    0    0  501 -0.00000000000E+00  0.00000000000E+00  0.23775919953E+02  0.23809814565E+02  0.12700000000E+01 0.  1.
          4   -1    0    0  501    0  0.00000000000E+00 -0.00000000000E+00 -0.16413180012E+03  0.16413671347E+03  0.12700000000E+01 0.  1.
         25    2    1    2    0    0  0.00000000000E+00  0.00000000000E+00 -0.14035588016E+03  0.18794652804E+03  0.12499649717E+03 0.  0.
    9000005    1    3    3    0    0 -0.15646585754E+02 -0.36835372775E+02  0.19856926714E+01  0.40082456369E+02  0.10000000000E+01 0.  0.
    9000005    1    3    3    0    0  0.15646585754E+02  0.36835372775E+02 -0.14234157284E+03  0.14786407167E+03  0.10000000000E+01 0.  0.
<mgrwt>
<rscale>  0 0.12499650E+03</rscale>
<asrwt>0</asrwt>
<pdfrwt beam="2">  1        4 0.25254031E-01 0.12499650E+03</pdfrwt>
<pdfrwt beam="1">  1       -4 0.36608192E-02 0.12499650E+03</pdfrwt>
<totfact> 0.92213081E+03</totfact>
</mgrwt>
</event>
<event>
 5    1  0.3284464E-002  0.1249962E+03  0.7818608E-02  0.1235075E+00
         -4   -1    0    0    0  501 -0.00000000000E+00  0.00000000000E+00  0.47394219207E+03  0.47394389365E+03  0.12700000000E+01 0. -1.
          4   -1    0    0  501    0  0.00000000000E+00 -0.00000000000E+00 -0.81908899216E+01  0.82887621336E+01  0.12700000000E+01 0. -1.
         25    2    1    2    0    0  0.00000000000E+00  0.00000000000E+00  0.46575130215E+03  0.48223265578E+03  0.12499623533E+03 0.  0.
    9000005    1    3    3    0    0 -0.46531276808E+02  0.39377150732E+02  0.28595544696E+03  0.29238200589E+03  0.10000000000E+01 0.  0.
    9000005    1    3    3    0    0  0.46531276808E+02 -0.39377150732E+02  0.17979585519E+03  0.18985064989E+03  0.10000000000E+01 0.  0.
<mgrwt>
<rscale>  0 0.12499624E+03</rscale>
<asrwt>0</asrwt>
<pdfrwt beam="2">  1        4 0.12677962E-02 0.12499624E+03</pdfrwt>
<pdfrwt beam="1">  1       -4 0.72921857E-01 0.12499624E+03</pdfrwt>
<totfact> 0.57274470E+03</totfact>
</mgrwt>
</event>
<event>
 5    1  0.3284464E-002  0.1249997E+03  0.7818608E-02  0.1235070E+00
         -4   -1    0    0    0  501 -0.00000000000E+00  0.00000000000E+00  0.55759793020E+02  0.55774254075E+02  0.12700000000E+01 0. -1.
          4   -1    0    0  501    0  0.00000000000E+00 -0.00000000000E+00 -0.70025358097E+02  0.70036873693E+02  0.12700000000E+01 0. -1.
         25    2    1    2    0    0  0.00000000000E+00  0.00000000000E+00 -0.14265565077E+02  0.12581112777E+03  0.12499973409E+03 0.  0.
    9000005    1    3    3    0    0  0.30829993284E+02  0.10209980577E+02  0.46603866360E+02  0.56812433050E+02  0.10000000000E+01 0.  0.
    9000005    1    3    3    0    0 -0.30829993284E+02 -0.10209980577E+02 -0.60869431438E+02  0.68998694718E+02  0.10000000000E+01 0.  0.
<mgrwt>
<rscale>  0 0.12499973E+03</rscale>
<asrwt>0</asrwt>
<pdfrwt beam="2">  1        4 0.10775130E-01 0.12499973E+03</pdfrwt>
<pdfrwt beam="1">  1       -4 0.85804280E-02 0.12499973E+03</pdfrwt>
<totfact> 0.10435163E+04</totfact>
</mgrwt>
</event>
<event>
 5    1  0.3284464E-002  0.1250011E+03  0.7818608E-02  0.1235068E+00
         -4   -1    0    0    0  501 -0.00000000000E+00  0.00000000000E+00  0.16464637018E+04  0.16464641917E+04  0.12700000000E+01 0. -1.
          4   -1    0    0  501    0  0.00000000000E+00 -0.00000000000E+00 -0.22020724281E+01  0.25420509394E+01  0.12700000000E+01 0. -1.
         25    2    1    2    0    0  0.00000000000E+00  0.00000000000E+00  0.16442616294E+04  0.16490062426E+04  0.12500112853E+03 0.  0.
    9000005    1    3    3    0    0 -0.52840557275E+02  0.30301968876E+02  0.10063398319E+04  0.10081821220E+04  0.10000000000E+01 0.  0.
    9000005    1    3    3    0    0  0.52840557275E+02 -0.30301968876E+02  0.63792179752E+03  0.64082412061E+03  0.10000000000E+01 0.  0.
<mgrwt>
<rscale>  0 0.12500113E+03</rscale>
<asrwt>0</asrwt>
<pdfrwt beam="2">  1        4 0.36497119E-03 0.12500113E+03</pdfrwt>
<pdfrwt beam="1">  1       -4 0.25332764E+00 0.12500113E+03</pdfrwt>
<totfact> 0.15176386E+03</totfact>
</mgrwt>
</event>
<event>
 5    1  0.3284464E-002  0.1249902E+03  0.7818608E-02  0.1235085E+00
          4   -1    0    0  501    0  0.00000000000E+00  0.00000000000E+00  0.36631424623E+02  0.36653433262E+02  0.12700000000E+01 0.  1.
         -4   -1    0    0    0  501 -0.00000000000E+00 -0.00000000000E+00 -0.10656203508E+03  0.10656960270E+03  0.12700000000E+01 0.  1.
         25    2    1    2    0    0  0.00000000000E+00  0.00000000000E+00 -0.69930610454E+02  0.14322303596E+03  0.12499019062E+03 0.  0.
    9000005    1    3    3    0    0 -0.27536143181E+01 -0.20486635876E+02  0.32605841778E+02  0.38618979264E+02  0.10000000000E+01 0.  0.
    9000005    1    3    3    0    0  0.27536143181E+01  0.20486635876E+02 -0.10253645223E+03  0.10460405670E+03  0.10000000000E+01 0.  0.
<mgrwt>
<rscale>  0 0.12499019E+03</rscale>
<asrwt>0</asrwt>
<pdfrwt beam="1">  1        4 0.56378789E-02 0.12499019E+03</pdfrwt>
<pdfrwt beam="2">  1       -4 0.16396434E-01 0.12499019E+03</pdfrwt>
<totfact> 0.10069442E+04</totfact>
</mgrwt>
</event>
<event>
 5    1  0.3284464E-002  0.1250020E+03  0.7818608E-02  0.1235066E+00
          4   -1    0    0  501    0  0.00000000000E+00  0.00000000000E+00  0.27144189314E+02  0.27173882930E+02  0.12700000000E+01 0. -1.
         -4   -1    0    0    0  501 -0.00000000000E+00 -0.00000000000E+00 -0.14380091706E+03  0.14380652506E+03  0.12700000000E+01 0. -1.
         25    2    1    2    0    0  0.00000000000E+00  0.00000000000E+00 -0.11665672775E+03  0.17098040799E+03  0.12500203113E+03 0.  0.
    9000005    1    3    3    0    0 -0.86894634887E+01 -0.15043684665E+02 -0.14043816888E+03  0.14151218500E+03  0.10000000000E+01 0.  0.
    9000005    1    3    3    0    0  0.86894634887E+01  0.15043684665E+02  0.23781441129E+02  0.29468222990E+02  0.10000000000E+01 0.  0.
<mgrwt>
<rscale>  0 0.12500203E+03</rscale>
<asrwt>0</asrwt>
<pdfrwt beam="1">  1        4 0.41787447E-02 0.12500203E+03</pdfrwt>
<pdfrwt beam="2">  1       -4 0.22125933E-01 0.12500203E+03</pdfrwt>
<totfact> 0.95261875E+03</totfact>
</mgrwt>
</event>
<event>
 5    1  0.3284464E-002  0.1249989E+03  0.7818608E-02  0.1235071E+00
         -4   -1    0    0    0  501 -0.00000000000E+00  0.00000000000E+00  0.23941558194E+02  0.23975218638E+02  0.12700000000E+01 0.  1.
          4   -1    0    0  501    0  0.00000000000E+00 -0.00000000000E+00 -0.16300402129E+03  0.16300896864E+03  0.12700000000E+01 0.  1.
         25    2    1    2    0    0  0.00000000000E+00  0.00000000000E+00 -0.13906246310E+03  0.18698418728E+03  0.12499887059E+03 0.  0.
    9000005    1    3    3    0    0 -0.49498926107E+02  0.25072678003E+02 -0.11253366558E+03  0.12547353807E+03  0.10000000000E+01 0.  0.
    9000005    1    3    3    0    0  0.49498926107E+02 -0.25072678003E+02 -0.26528797522E+02  0.61510649208E+02  0.10000000000E+01 0.  0.
<mgrwt>
<rscale>  0 0.12499887E+03</rscale>
<asrwt>0</asrwt>
<pdfrwt beam="2">  1        4 0.25080511E-01 0.12499887E+03</pdfrwt>
<pdfrwt beam="1">  1       -4 0.36862866E-02 0.12499887E+03</pdfrwt>
<totfact> 0.92377058E+03</totfact>
</mgrwt>
</event>
<event>
 5    1  0.3284464E-002  0.1250045E+03  0.7818608E-02  0.1235062E+00
         -4   -1    0    0    0  501 -0.00000000000E+00  0.00000000000E+00  0.50066696296E+02  0.50082801219E+02  0.12700000000E+01 0. -1.
          4   -1    0    0  501    0  0.00000000000E+00 -0.00000000000E+00 -0.77992710301E+02  0.78003049684E+02  0.12700000000E+01 0. -1.
         25    2    1    2    0    0  0.00000000000E+00  0.00000000000E+00 -0.27926014005E+02  0.12808585090E+03  0.12500449169E+03 0.  0.
    9000005    1    3    3    0    0  0.43572390080E+02 -0.43887484249E+02 -0.47487719863E+01  0.62033984930E+02  0.10000000000E+01 0.  0.
    9000005    1    3    3    0    0 -0.43572390080E+02  0.43887484249E+02 -0.23177242019E+02  0.66051865973E+02  0.10000000000E+01 0.  0.
<mgrwt>
<rscale>  0 0.12500449E+03</rscale>
<asrwt>0</asrwt>
<pdfrwt beam="2">  1        4 0.12000913E-01 0.12500449E+03</pdfrwt>
<pdfrwt beam="1">  1       -4 0.77046029E-02 0.12500449E+03</pdfrwt>
<totfact> 0.10384581E+04</totfact>
</mgrwt>
</event>
<event>
 5    1  0.3284464E-002  0.1250007E+03  0.7818608E-02  0.1235068E+00
         -4   -1    0    0    0  501 -0.00000000000E+00  0.00000000000E+00  0.13833134526E+02  0.13891310623E+02  0.12700000000E+01 0. -1.
          4   -1    0    0  501    0  0.00000000000E+00 -0.00000000000E+00 -0.28173458381E+03  0.28173744624E+03  0.12700000000E+01 0. -1.
         25    2    1    2    0    0  0.00000000000E+00  0.00000000000E+00 -0.26790144929E+03  0.29562875687E+03  0.12500070143E+03 0.  0.
    9000005    1    3    3    0    0 -0.44536474308E+01 -0.61293464597E+02 -0.10713409754E+03  0.12351290878E+03  0.10000000000E+01 0.  0.
    9000005    1    3    3    0    0  0.44536474308E+01  0.61293464597E+02 -0.16076735174E+03  0.17211584809E+03  0.10000000000E+01 0.  0.
<mgrwt>
<rscale>  0 0.12500070E+03</rscale>
<asrwt>0</asrwt>
<pdfrwt beam="2">  1        4 0.43348473E-01 0.12500070E+03</pdfrwt>
<pdfrwt beam="1">  1       -4 0.21328700E-02 0.12500070E+03</pdfrwt>
<totfact> 0.76149267E+03</totfact>
</mgrwt>
</event>
<event>
 5    1  0.3284464E-002  0.1250029E+03  0.7818608E-02  0.1235065E+00
         -4   -1    0    0    0  501 -0.00000000000E+00  0.00000000000E+00  0.21495632103E+03  0.21496007269E+03  0.12700000000E+01 0. -1.
          4   -1    0    0  501    0  0.00000000000E+00 -0.00000000000E+00 -0.18147031354E+02  0.18191416848E+02  0.12700000000E+01 0. -1.
         25    2    1    2    0    0  0.00000000000E+00  0.00000000000E+00  0.19680928968E+03  0.23315148954E+03  0.12500288225E+03 0.  0.
    9000005    1    3    3    0    0  0.46632969998E+02 -0.25471496551E+02  0.15975705390E+03  0.16836492300E+03  0.10000000000E+01 0.  0.
    9000005    1    3    3    0    0 -0.46632969998E+02  0.25471496551E+02  0.37052235778E+02  0.64786566536E+02  0.10000000000E+01 0.  0.
<mgrwt>
<rscale>  0 0.12500288E+03</rscale>
<asrwt>0</asrwt>
<pdfrwt beam="2">  1        4 0.27955539E-02 0.12500288E+03</pdfrwt>
<pdfrwt beam="1">  1       -4 0.33073906E-01 0.12500288E+03</pdfrwt>
<totfact> 0.84822566E+03</totfact>
</mgrwt>
</event>
<event>
 5    1  0.3284464E-002  0.1250065E+03  0.7818608E-02  0.1235059E+00
          4   -1    0    0  501    0  0.00000000000E+00  0.00000000000E+00  0.79973816529E+02  0.79983899819E+02  0.12700000000E+01 0.  1.
         -4   -1    0    0    0  501 -0.00000000000E+00 -0.00000000000E+00 -0.48827803725E+02  0.48844317138E+02  0.12700000000E+01 0.  1.
         25    2    1    2    0    0  0.00000000000E+00  0.00000000000E+00  0.31146012803E+02  0.12882821696E+03  0.12500654131E+03 0.  0.
    9000005    1    3    3    0    0  0.26173981755E+02 -0.14274204370E+02  0.72177847536E+02  0.78099115912E+02  0.10000000000E+01 0.  0.
    9000005    1    3    3    0    0 -0.26173981755E+02  0.14274204370E+02 -0.41031834732E+02  0.50729101045E+02  0.10000000000E+01 0.  0.
<mgrwt>
<rscale>  0 0.12500654E+03</rscale>
<asrwt>0</asrwt>
<pdfrwt beam="1">  1        4 0.12305710E-01 0.12500654E+03</pdfrwt>
<pdfrwt beam="2">  1       -4 0.75140157E-02 0.12500654E+03</pdfrwt>
<totfact> 0.10368108E+04</totfact>
</mgrwt>
</event>
<event>
 5    1  0.3284464E-002  0.1249999E+03  0.7818608E-02  0.1235069E+00
          4   -1    0    0  501    0  0.00000000000E+00  0.00000000000E+00  0.57684408063E+02  0.57698386750E+02  0.12700000000E+01 0.  1.
         -4   -1    0    0    0  501 -0.00000000000E+00 -0.00000000000E+00 -0.67689338661E+02  0.67701251601E+02  0.12700000000E+01 0.  1.
         25    2    1    2    0    0  0.00000000000E+00  0.00000000000E+00 -0.10004930598E+02  0.12539963835E+03  0.12499988265E+03 0.  0.
    9000005    1    3    3    0    0  0.29653322556E+02  0.36074795274E+02 -0.46662760386E+02  0.66023659392E+02  0.10000000000E+01 0.  0.
    9000005    1    3    3    0    0 -0.29653322556E+02 -0.36074795274E+02  0.36657829788E+02  0.59375978960E+02  0.10000000000E+01 0.  0.
<mgrwt>
<rscale>  0 0.12499988E+03</rscale>
<asrwt>0</asrwt>
<pdfrwt beam="1">  1        4 0.88765160E-02 0.12499988E+03</pdfrwt>
<pdfrwt beam="2">  1       -4 0.10415736E-01 0.12499988E+03</pdfrwt>
<totfact> 0.10444203E+04</totfact>
</mgrwt>
</event>
<event>
 5    1  0.3284464E-002  0.1250003E+03  0.7818608E-02  0.1235069E+00
         -4   -1    0    0    0  501 -0.00000000000E+00  0.00000000000E+00  0.10438521445E+02  0.10515494756E+02  0.12700000000E+01 0.  1.
          4   -1    0    0  501    0  0.00000000000E+00 -0.00000000000E+00 -0.37276385040E+03  0.37276601383E+03  0.12700000000E+01 0.  1.
         25    2    1    2    0    0  0.00000000000E+00  0.00000000000E+00 -0.36232532895E+03  0.38328150858E+03  0.12500028328E+03 0.  0.
    9000005    1    3    3    0    0 -0.14308628013E+01 -0.53347476379E+02 -0.81461729933E+02  0.97391036795E+02  0.10000000000E+01 0.  0.
    9000005    1    3    3    0    0  0.14308628013E+01  0.53347476379E+02 -0.28086359902E+03  0.28589047179E+03  0.10000000000E+01 0.  0.
<mgrwt>
<rscale>  0 0.12500028E+03</rscale>
<asrwt>0</asrwt>
<pdfrwt beam="2">  1        4 0.57354362E-01 0.12500028E+03</pdfrwt>
<pdfrwt beam="1">  1       -4 0.16120141E-02 0.12500028E+03</pdfrwt>
<totfact> 0.66211541E+03</totfact>
</mgrwt>
</event>
<event>
 5    1  0.3284464E-002  0.1249988E+03  0.7818608E-02  0.1235071E+00
         -4   -1    0    0    0  501 -0.00000000000E+00  0.00000000000E+00  0.64007573963E+02  0.64020172013E+02  0.12700000000E+01 0. -1.
          4   -1    0    0  501    0  0.00000000000E+00 -0.00000000000E+00 -0.61001507806E+02  0.61014726539E+02  0.12700000000E+01 0. -1.
         25    2    1    2    0    0  0.00000000000E+00  0.00000000000E+00  0.30060661569E+01  0.12503489855E+03  0.12499875768E+03 0.  0.
    9000005    1    3    3    0    0 -0.48510803833E+02  0.23098786356E+02  0.33423391387E+02  0.63284872691E+02  0.10000000000E+01 0.  0.
    9000005    1    3    3    0    0  0.48510803833E+02 -0.23098786356E+02 -0.30417325230E+02  0.61750025861E+02  0.10000000000E+01 0.  0.
<mgrwt>
<rscale>  0 0.12499876E+03</rscale>
<asrwt>0</asrwt>
<pdfrwt beam="2">  1        4 0.93868333E-02 0.12499876E+03</pdfrwt>
<pdfrwt beam="1">  1       -4 0.98493049E-02 0.12499876E+03</pdfrwt>
<totfact> 0.10452398E+04</totfact>
</mgrwt>
</event>
<event>
 5    1  0.3284464E-002  0.1249987E+03  0.7818608E-02  0.1235071E+00
          4   -1    0    0  501    0  0.00000000000E+00  0.00000000000E+00  0.54481341580E+01  0.55941992996E+01  0.12700000000E+01 0.  1.
         -4   -1    0    0    0  501 -0.00000000000E+00 -0.00000000000E+00 -0.70734349012E+03  0.70734463023E+03  0.12700000000E+01 0.  1.
         25    2    1    2    0    0  0.00000000000E+00  0.00000000000E+00 -0.70189535596E+03  0.71293882953E+03  0.12499873571E+03 0.  0.
    9000005    1    3    3    0    0  0.59104511391E+02  0.14489818292E+02 -0.26991025170E+03  0.27668726402E+03  0.10000000000E+01 0.  0.
    9000005    1    3    3    0    0 -0.59104511391E+02 -0.14489818292E+02 -0.43198510427E+03  0.43625156551E+03  0.10000000000E+01 0.  0.
<mgrwt>
<rscale>  0 0.12499874E+03</rscale>
<asrwt>0</asrwt>
<pdfrwt beam="1">  1        4 0.84949853E-03 0.12499874E+03</pdfrwt>
<pdfrwt beam="2">  1       -4 0.10883333E+00 0.12499874E+03</pdfrwt>
<totfact> 0.42413615E+03</totfact>
</mgrwt>
</event>
<event>
 5    1  0.3284464E-002  0.1250018E+03  0.7818608E-02  0.1235067E+00
          4   -1    0    0  501    0  0.00000000000E+00  0.00000000000E+00  0.61997037753E+01  0.63284458519E+01  0.12700000000E+01 0.  1.
         -4   -1    0    0    0  501 -0.00000000000E+00 -0.00000000000E+00 -0.62348380412E+03  0.62348509758E+03  0.12700000000E+01 0.  1.
         25    2    1    2    0    0  0.00000000000E+00  0.00000000000E+00 -0.61728410035E+03  0.62981354343E+03  0.12500175578E+03 0.  0.
    9000005    1    3    3    0    0 -0.33144998619E+02  0.52724115579E+02 -0.33479170615E+03  0.34053620924E+03  0.10000000000E+01 0.  0.
    9000005    1    3    3    0    0  0.33144998619E+02 -0.52724115579E+02 -0.28249239420E+03  0.28927733419E+03  0.10000000000E+01 0.  0.
<mgrwt>
<rscale>  0 0.12500176E+03</rscale>
<asrwt>0</asrwt>
<pdfrwt beam="1">  1        4 0.96380381E-03 0.12500176E+03</pdfrwt>
<pdfrwt beam="2">  1       -4 0.95930539E-01 0.12500176E+03</pdfrwt>
<totfact> 0.47036405E+03</totfact>
</mgrwt>
</event>
<event>
 5    1  0.3284464E-002  0.1249999E+03  0.7818608E-02  0.1235069E+00
         -4   -1    0    0    0  501 -0.00000000000E+00  0.00000000000E+00  0.16054031637E+04  0.16054036660E+04  0.12700000000E+01 0. -1.
          4   -1    0    0  501    0  0.00000000000E+00 -0.00000000000E+00 -0.22669304511E+01  0.25984367743E+01  0.12700000000E+01 0. -1.
         25    2    1    2    0    0  0.00000000000E+00  0.00000000000E+00  0.16031362332E+04  0.16080021028E+04  0.12499992113E+03 0.  0.
    9000005    1    3    3    0    0  0.31655122434E+02  0.48824710652E+02  0.10947284704E+04  0.10962742919E+04  0.10000000000E+01 0.  0.
    9000005    1    3    3    0    0 -0.31655122434E+02 -0.48824710652E+02  0.50840776280E+03  0.51172781088E+03  0.10000000000E+01 0.  0.
<mgrwt>
<rscale>  0 0.12499992E+03</rscale>
<asrwt>0</asrwt>
<pdfrwt beam="2">  1        4 0.37429905E-03 0.12499992E+03</pdfrwt>
<pdfrwt beam="1">  1       -4 0.24700972E+00 0.12499992E+03</pdfrwt>
<totfact> 0.15902195E+03</totfact>
</mgrwt>
</event>
<event>
 5    1  0.3284464E-002  0.1250008E+03  0.7818608E-02  0.1235068E+00
         -4   -1    0    0    0  501 -0.00000000000E+00  0.00000000000E+00  0.15979276004E+03  0.15979780681E+03  0.12700000000E+01 0.  1.
          4   -1    0    0  501    0  0.00000000000E+00 -0.00000000000E+00 -0.24424113256E+02  0.24457109567E+02  0.12700000000E+01 0.  1.
         25    2    1    2    0    0  0.00000000000E+00  0.00000000000E+00  0.13536864678E+03  0.18425491637E+03  0.12500081470E+03 0.  0.
    9000005    1    3    3    0    0 -0.55007925504E+02 -0.26705961027E+02  0.48680158494E+02  0.78165453070E+02  0.10000000000E+01 0.  0.
    9000005    1    3    3    0    0  0.55007925504E+02  0.26705961027E+02  0.86688488288E+02  0.10608946330E+03  0.10000000000E+01 0.  0.
<mgrwt>
<rscale>  0 0.12500081E+03</rscale>
<asrwt>0</asrwt>
<pdfrwt beam="2">  1        4 0.37604824E-02 0.12500081E+03</pdfrwt>
<pdfrwt beam="1">  1       -4 0.24586427E-01 0.12500081E+03</pdfrwt>
<totfact> 0.92854968E+03</totfact>
</mgrwt>
</event>
<event>
 5    1  0.3284464E-002  0.1249987E+03  0.7818608E-02  0.1235071E+00
          4   -1    0    0  501    0  0.00000000000E+00  0.00000000000E+00  0.27341638445E+01  0.30147225293E+01  0.12700000000E+01 0. -1.
         -4   -1    0    0    0  501 -0.00000000000E+00 -0.00000000000E+00 -0.13586501394E+04  0.13586507330E+04  0.12700000000E+01 0. -1.
         25    2    1    2    0    0  0.00000000000E+00  0.00000000000E+00 -0.13559159756E+04  0.13616654555E+04  0.12499871969E+03 0.  0.
    9000005    1    3    3    0    0 -0.18439878973E+01  0.13230546854E+02 -0.13429682884E+04  0.13430350968E+04  0.10000000000E+01 0.  0.
    9000005    1    3    3    0    0  0.18439878973E+01 -0.13230546854E+02 -0.12947687153E+02  0.18630358666E+02  0.10000000000E+01 0.  0.
<mgrwt>
<rscale>  0 0.12499872E+03</rscale>
<asrwt>0</asrwt>
<pdfrwt beam="1">  1        4 0.44226877E-03 0.12499872E+03</pdfrwt>
<pdfrwt beam="2">  1       -4 0.20904421E+00 0.12499872E+03</pdfrwt>
<totfact> 0.20818760E+03</totfact>
</mgrwt>
</event>
<event>
 5    1  0.3284464E-002  0.1250042E+03  0.7818608E-02  0.1235063E+00
          4   -1    0    0  501    0  0.00000000000E+00  0.00000000000E+00  0.13973166326E+04  0.13973172098E+04  0.12700000000E+01 0.  1.
         -4   -1    0    0    0  501 -0.00000000000E+00 -0.00000000000E+00 -0.26508879027E+01  0.29394058366E+01  0.12700000000E+01 0.  1.
         25    2    1    2    0    0  0.00000000000E+00  0.00000000000E+00  0.13946657447E+04  0.14002566156E+04  0.12500420009E+03 0.  0.
    9000005    1    3    3    0    0 -0.36922558700E+02 -0.26823456523E+02  0.21909351686E+03  0.22379844122E+03  0.10000000000E+01 0.  0.
    9000005    1    3    3    0    0  0.36922558700E+02  0.26823456523E+02  0.11755722279E+04  0.11764581744E+04  0.10000000000E+01 0.  0.
<mgrwt>
<rscale>  0 0.12500420E+03</rscale>
<asrwt>0</asrwt>
<pdfrwt beam="1">  1        4 0.21499420E+00 0.12500420E+03</pdfrwt>
<pdfrwt beam="2">  1       -4 0.43006665E-03 0.12500420E+03</pdfrwt>
<totfact> 0.19973563E+03</totfact>
</mgrwt>
</event>
<event>
 5    1  0.3284464E-002  0.1250019E+03  0.7818608E-02  0.1235066E+00
          4   -1    0    0  501    0  0.00000000000E+00  0.00000000000E+00  0.32881543840E+02  0.32906060616E+02  0.12700000000E+01 0. -1.
         -4   -1    0    0    0  501 -0.00000000000E+00 -0.00000000000E+00 -0.11872905153E+03  0.11873584369E+03  0.12700000000E+01 0. -1.
         25    2    1    2    0    0  0.00000000000E+00  0.00000000000E+00 -0.85847507686E+02  0.15164190430E+03  0.12500189025E+03 0.  0.
    9000005    1    3    3    0    0 -0.58780860893E+02 -0.21212568780E+02 -0.43473631393E+02  0.76132248805E+02  0.10000000000E+01 0.  0.
    9000005    1    3    3    0    0  0.58780860893E+02  0.21212568780E+02 -0.42373876293E+02  0.75509655499E+02  0.10000000000E+01 0.  0.
<mgrwt>
<rscale>  0 0.12500189E+03</rscale>
<asrwt>0</asrwt>
<pdfrwt beam="1">  1        4 0.50611075E-02 0.12500189E+03</pdfrwt>
<pdfrwt beam="2">  1       -4 0.18268416E-01 0.12500189E+03</pdfrwt>
<totfact> 0.98973201E+03</totfact>
</mgrwt>
</event>
<event>
 5    1  0.3284464E-002  0.1249992E+03  0.7818608E-02  0.1235070E+00
          4   -1    0    0  501    0  0.00000000000E+00  0.00000000000E+00  0.94289209176E+02  0.94297761729E+02  0.12700000000E+01 0.  1.
         -4   -1    0    0    0  501 -0.00000000000E+00 -0.00000000000E+00 -0.41407705523E+02  0.41427176789E+02  0.12700000000E+01 0.  1.
         25    2    1    2    0    0  0.00000000000E+00  0.00000000000E+00  0.52881503653E+02  0.13572493852E+03  0.12499922203E+03 0.  0.
    9000005    1    3    3    0    0 -0.71242763878E+01 -0.60794684663E+02  0.12772853919E+02  0.62537147317E+02  0.10000000000E+01 0.  0.
    9000005    1    3    3    0    0  0.71242763878E+01  0.60794684663E+02  0.40108649734E+02  0.73187791201E+02  0.10000000000E+01 0.  0.
<mgrwt>
<rscale>  0 0.12499922E+03</rscale>
<asrwt>0</asrwt>
<pdfrwt beam="1">  1        4 0.14508188E-01 0.12499922E+03</pdfrwt>
<pdfrwt beam="2">  1       -4 0.63725719E-02 0.12499922E+03</pdfrwt>
<totfact> 0.10222993E+04</totfact>
</mgrwt>
</event>
<event>
 5    1  0.3284464E-002  0.1250004E+03  0.7818608E-02  0.1235069E+00
         -4   -1    0    0    0  501 -0.00000000000E+00  0.00000000000E+00  0.31392034491E+02  0.31417713626E+02  0.12700000000E+01 0. -1.
          4   -1    0    0  501    0  0.00000000000E+00 -0.00000000000E+00 -0.12435535532E+03  0.12436184019E+03  0.12700000000E+01 0. -1.
         25    2    1    2    0    0  0.00000000000E+00  0.00000000000E+00 -0.92963320824E+02  0.15577955382E+03  0.12500036147E+03 0.  0.
    9000005    1    3    3    0    0 -0.12052134075E+02  0.18872191426E+02 -0.11919012450E+03  0.12127942663E+03  0.10000000000E+01 0.  0.
    9000005    1    3    3    0    0  0.12052134075E+02 -0.18872191426E+02  0.26226803676E+02  0.34500127189E+02  0.10000000000E+01 0.  0.
<mgrwt>
<rscale>  0 0.12500036E+03</rscale>
<asrwt>0</asrwt>
<pdfrwt beam="2">  1        4 0.19134067E-01 0.12500036E+03</pdfrwt>
<pdfrwt beam="1">  1       -4 0.48320180E-02 0.12500036E+03</pdfrwt>
<totfact> 0.98161882E+03</totfact>
</mgrwt>
</event>
<event>
 5    1  0.3284464E-002  0.1250005E+03  0.7818608E-02  0.1235069E+00
          4   -1    0    0  501    0  0.00000000000E+00  0.00000000000E+00  0.57092434071E+02  0.57106557663E+02  0.12700000000E+01 0.  1.
         -4   -1    0    0    0  501 -0.00000000000E+00 -0.00000000000E+00 -0.68391760391E+02  0.68403550999E+02  0.12700000000E+01 0.  1.
         25    2    1    2    0    0  0.00000000000E+00  0.00000000000E+00 -0.11299326319E+02  0.12551010866E+03  0.12500045040E+03 0.  0.
    9000005    1    3    3    0    0  0.33984748918E+02  0.46597891965E+02  0.18509851351E+02  0.60580040374E+02  0.10000000000E+01 0.  0.
    9000005    1    3    3    0    0 -0.33984748918E+02 -0.46597891965E+02 -0.29809177671E+02  0.64930068289E+02  0.10000000000E+01 0.  0.
<mgrwt>
<rscale>  0 0.12500045E+03</rscale>
<asrwt>0</asrwt>
<pdfrwt beam="1">  1        4 0.87854448E-02 0.12500045E+03</pdfrwt>
<pdfrwt beam="2">  1       -4 0.10523803E-01 0.12500045E+03</pdfrwt>
<totfact> 0.10441625E+04</totfact>
</mgrwt>
</event>
<event>
 5    1  0.3284464E-002  0.1249844E+03  0.7818608E-02  0.1235094E+00
         -4   -1    0    0    0  501 -0.00000000000E+00  0.00000000000E+00  0.84077409288E+02  0.84087000497E+02  0.12700000000E+01 0. -1.
          4   -1    0    0  501    0  0.00000000000E+00 -0.00000000000E+00 -0.46427644291E+02  0.46445011082E+02  0.12700000000E+01 0. -1.
         25    2    1    2    0    0  0.00000000000E+00  0.00000000000E+00  0.37649764997E+02  0.13053201158E+03  0.12498440400E+03 0.  0.
    9000005    1    3    3    0    0  0.50408948766E+02 -0.29108441801E+02  0.42546753637E+02  0.72108180846E+02  0.10000000000E+01 0.  0.
    9000005    1    3    3    0    0 -0.50408948766E+02  0.29108441801E+02 -0.48969886399E+01  0.58423830733E+02  0.10000000000E+01 0.  0.
<mgrwt>
<rscale>  0 0.12498440E+03</rscale>
<asrwt>0</asrwt>
<pdfrwt beam="2">  1        4 0.71447883E-02 0.12498440E+03</pdfrwt>
<pdfrwt beam="1">  1       -4 0.12937060E-01 0.12498440E+03</pdfrwt>
<totfact> 0.10336769E+04</totfact>
</mgrwt>
</event>
<event>
 5    1  0.3284464E-002  0.1250004E+03  0.7818608E-02  0.1235069E+00
         -4   -1    0    0    0  501 -0.00000000000E+00  0.00000000000E+00  0.29327482228E+02  0.29354967448E+02  0.12700000000E+01 0.  1.
          4   -1    0    0  501    0  0.00000000000E+00 -0.00000000000E+00 -0.13310223200E+03  0.13310829074E+03  0.12700000000E+01 0.  1.
         25    2    1    2    0    0  0.00000000000E+00  0.00000000000E+00 -0.10377474977E+03  0.16246325819E+03  0.12500044628E+03 0.  0.
    9000005    1    3    3    0    0 -0.21802123824E+02  0.29299476817E+02  0.14020251765E+02  0.39132587501E+02  0.10000000000E+01 0.  0.
    9000005    1    3    3    0    0  0.21802123824E+02 -0.29299476817E+02 -0.11779500154E+03  0.12333067069E+03  0.10000000000E+01 0.  0.
<mgrwt>
<rscale>  0 0.12500045E+03</rscale>
<asrwt>0</asrwt>
<pdfrwt beam="2">  1        4 0.20479846E-01 0.12500045E+03</pdfrwt>
<pdfrwt beam="1">  1       -4 0.45145007E-02 0.12500045E+03</pdfrwt>
<totfact> 0.96869008E+03</totfact>
</mgrwt>
</event>
<event>
 5    1  0.3284464E-002  0.1249927E+03  0.7818608E-02  0.1235081E+00
         -4   -1    0    0    0  501 -0.00000000000E+00  0.00000000000E+00  0.75871141134E+02  0.75881769596E+02  0.12700000000E+01 0. -1.
          4   -1    0    0  501    0  0.00000000000E+00 -0.00000000000E+00 -0.51457243048E+02  0.51472912897E+02  0.12700000000E+01 0. -1.
         25    2    1    2    0    0  0.00000000000E+00  0.00000000000E+00  0.24413898086E+02  0.12735468249E+03  0.12499270672E+03 0.  0.
    9000005    1    3    3    0    0  0.25473320431E+02  0.18233152845E+02 -0.42883783260E+02  0.53116445505E+02  0.10000000000E+01 0.  0.
    9000005    1    3    3    0    0 -0.25473320431E+02 -0.18233152845E+02  0.67297681346E+02  0.74238236988E+02  0.10000000000E+01 0.  0.
<mgrwt>
<rscale>  0 0.12499271E+03</rscale>
<asrwt>0</asrwt>
<pdfrwt beam="2">  1        4 0.79185219E-02 0.12499271E+03</pdfrwt>
<pdfrwt beam="1">  1       -4 0.11674506E-01 0.12499271E+03</pdfrwt>
<totfact> 0.10403162E+04</totfact>
</mgrwt>
</event>
<event>
 5    1  0.3284464E-002  0.1250025E+03  0.7818608E-02  0.1235065E+00
         -4   -1    0    0    0  501 -0.00000000000E+00  0.00000000000E+00  0.12578697896E+03  0.12579339003E+03  0.12700000000E+01 0. -1.
          4   -1    0    0  501    0  0.00000000000E+00 -0.00000000000E+00 -0.31035530158E+02  0.31061504023E+02  0.12700000000E+01 0. -1.
         25    2    1    2    0    0  0.00000000000E+00  0.00000000000E+00  0.94751448799E+02  0.15685489405E+03  0.12500248293E+03 0.  0.
    9000005    1    3    3    0    0  0.23964277014E+02  0.62089218196E+01 -0.24626647679E+02  0.34932922278E+02  0.10000000000E+01 0.  0.
    9000005    1    3    3    0    0 -0.23964277014E+02 -0.62089218196E+01  0.11937809648E+03  0.12192197178E+03  0.10000000000E+01 0.  0.
<mgrwt>
<rscale>  0 0.12500248E+03</rscale>
<asrwt>0</asrwt>
<pdfrwt beam="2">  1        4 0.47771882E-02 0.12500248E+03</pdfrwt>
<pdfrwt beam="1">  1       -4 0.19354334E-01 0.12500248E+03</pdfrwt>
<totfact> 0.97947118E+03</totfact>
</mgrwt>
</event>
<event>
 5    1  0.3284464E-002  0.1250013E+03  0.7818608E-02  0.1235067E+00
          4   -1    0    0  501    0  0.00000000000E+00  0.00000000000E+00  0.37702183769E+02  0.37723567712E+02  0.12700000000E+01 0. -1.
         -4   -1    0    0    0  501 -0.00000000000E+00 -0.00000000000E+00 -0.10355553299E+03  0.10356332030E+03  0.12700000000E+01 0. -1.
         25    2    1    2    0    0  0.00000000000E+00  0.00000000000E+00 -0.65853349218E+02  0.14128688802E+03  0.12500128448E+03 0.  0.
    9000005    1    3    3    0    0 -0.19711442883E+02  0.25101351515E+02 -0.93654687598E+02  0.98948569153E+02  0.10000000000E+01 0.  0.
    9000005    1    3    3    0    0  0.19711442883E+02 -0.25101351515E+02  0.27801338379E+02  0.42338318863E+02  0.10000000000E+01 0.  0.
<mgrwt>
<rscale>  0 0.12500128E+03</rscale>
<asrwt>0</asrwt>
<pdfrwt beam="1">  1        4 0.58025799E-02 0.12500128E+03</pdfrwt>
<pdfrwt beam="2">  1       -4 0.15933864E-01 0.12500128E+03</pdfrwt>
<totfact> 0.10106691E+04</totfact>
</mgrwt>
</event>
<event>
 5    1  0.3284464E-002  0.1250010E+03  0.7818608E-02  0.1235068E+00
         -4   -1    0    0    0  501 -0.00000000000E+00  0.00000000000E+00  0.98430202297E+03  0.98430284228E+03  0.12700000000E+01 0.  1.
          4   -1    0    0  501    0  0.00000000000E+00 -0.00000000000E+00 -0.38661692732E+01  0.40694182445E+01  0.12700000000E+01 0.  1.
         25    2    1    2    0    0  0.00000000000E+00  0.00000000000E+00  0.98043585370E+03  0.98837226053E+03  0.12500104865E+03 0.  0.
    9000005    1    3    3    0    0  0.92990766848E+01  0.69146562237E+01  0.46646388174E+01  0.12531725866E+02  0.10000000000E+01 0.  0.
    9000005    1    3    3    0    0 -0.92990766848E+01 -0.69146562237E+01  0.97577121488E+03  0.97584053466E+03  0.10000000000E+01 0.  0.
<mgrwt>
<rscale>  0 0.12500105E+03</rscale>
<asrwt>0</asrwt>
<pdfrwt beam="2">  1        4 0.61049263E-03 0.12500105E+03</pdfrwt>
<pdfrwt beam="1">  1       -4 0.15144683E+00 0.12500105E+03</pdfrwt>
<totfact> 0.30990825E+03</totfact>
</mgrwt>
</event>
<event>
 4    1  0.3284464E-002  0.1253553E+03  0.7818608E-02  0.1234515E+00
         -4   -1    0    0    0  501 -0.00000000000E+00  0.00000000000E+00  0.32520875503E+02  0.32545663974E+02  0.12700000000E+01 0.  1.
          4   -1    0    0  501    0  0.00000000000E+00 -0.00000000000E+00 -0.12072478420E+03  0.12073146409E+03  0.12700000000E+01 0.  1.
    9000005    1    1    2    0    0  0.61718818689E+02  0.91067749954E+01 -0.36832944373E+02  0.72455584480E+02  0.10000000000E+01 0.  0.
    9000005    1    1    2    0    0 -0.61718818689E+02 -0.91067749954E+01 -0.51370964328E+02  0.80821543583E+02  0.10000000000E+01 0.  0.
<mgrwt>
<rscale>  0 0.12535529E+03</rscale>
<asrwt>0</asrwt>
<pdfrwt beam="2">  1        4 0.18575464E-01 0.12535529E+03</pdfrwt>
<pdfrwt beam="1">  1       -4 0.50056323E-02 0.12535529E+03</pdfrwt>
<totfact> 0.97869988E+03</totfact>
</mgrwt>
</event>
<event>
 5    1  0.3284464E-002  0.1249838E+03  0.7818608E-02  0.1235095E+00
         -4   -1    0    0    0  501 -0.00000000000E+00  0.00000000000E+00  0.13195247237E+02  0.13256223054E+02  0.12700000000E+01 0. -1.
          4   -1    0    0  501    0  0.00000000000E+00 -0.00000000000E+00 -0.29521316581E+03  0.29521589755E+03  0.12700000000E+01 0. -1.
         25    2    1    2    0    0  0.00000000000E+00  0.00000000000E+00 -0.28201791857E+03  0.30847212061E+03  0.12498377013E+03 0.  0.
    9000005    1    3    3    0    0  0.24660557069E+02 -0.14104804994E+02 -0.36543574041E+01  0.28660825649E+02  0.10000000000E+01 0.  0.
    9000005    1    3    3    0    0 -0.24660557069E+02  0.14104804994E+02 -0.27836356117E+03  0.27981129496E+03  0.10000000000E+01 0.  0.
<mgrwt>
<rscale>  0 0.12498377E+03</rscale>
<asrwt>0</asrwt>
<pdfrwt beam="2">  1        4 0.45422306E-01 0.12498377E+03</pdfrwt>
<pdfrwt beam="1">  1       -4 0.20349388E-02 0.12498377E+03</pdfrwt>
<totfact> 0.74575107E+03</totfact>
</mgrwt>
</event>
<event>
 5    1  0.3284464E-002  0.1249947E+03  0.7818608E-02  0.1235078E+00
         -4   -1    0    0    0  501 -0.00000000000E+00  0.00000000000E+00  0.22800655913E+02  0.22835998118E+02  0.12700000000E+01 0. -1.
          4   -1    0    0  501    0  0.00000000000E+00 -0.00000000000E+00 -0.17113689470E+03  0.17114160695E+03  0.12700000000E+01 0. -1.
         25    2    1    2    0    0  0.00000000000E+00  0.00000000000E+00 -0.14833623879E+03  0.19397760507E+03  0.12499468600E+03 0.  0.
    9000005    1    3    3    0    0 -0.45294169409E+02 -0.40279573759E+02 -0.50585973066E+02  0.78955345074E+02  0.10000000000E+01 0.  0.
    9000005    1    3    3    0    0  0.45294169409E+02  0.40279573759E+02 -0.97750265725E+02  0.11502225999E+03  0.10000000000E+01 0.  0.
<mgrwt>
<rscale>  0 0.12499469E+03</rscale>
<asrwt>0</asrwt>
<pdfrwt beam="2">  1        4 0.26331833E-01 0.12499469E+03</pdfrwt>
<pdfrwt beam="1">  1       -4 0.35108744E-02 0.12499469E+03</pdfrwt>
<totfact> 0.91170642E+03</totfact>
</mgrwt>
</event>
<event>
 5    1  0.3284464E-002  0.1249990E+03  0.7818608E-02  0.1235071E+00
          4   -1    0    0  501    0  0.00000000000E+00  0.00000000000E+00  0.89147281636E+02  0.89156327443E+02  0.12700000000E+01 0. -1.
         -4   -1    0    0    0  501 -0.00000000000E+00 -0.00000000000E+00 -0.43796749612E+02  0.43815159210E+02  0.12700000000E+01 0. -1.
         25    2    1    2    0    0  0.00000000000E+00  0.00000000000E+00  0.45350532024E+02  0.13297148665E+03  0.12499898203E+03 0.  0.
    9000005    1    3    3    0    0  0.53388607839E+01 -0.60167610102E+02  0.39713751118E+02  0.72296796386E+02  0.10000000000E+01 0.  0.
    9000005    1    3    3    0    0 -0.53388607839E+01  0.60167610102E+02  0.56367809062E+01  0.60674690266E+02  0.10000000000E+01 0.  0.
<mgrwt>
<rscale>  0 0.12499898E+03</rscale>
<asrwt>0</asrwt>
<pdfrwt beam="1">  1        4 0.13717078E-01 0.12499898E+03</pdfrwt>
<pdfrwt beam="2">  1       -4 0.67400735E-02 0.12499898E+03</pdfrwt>
<totfact> 0.10281242E+04</totfact>
</mgrwt>
</event>
<event>
 5    1  0.3284464E-002  0.1250059E+03  0.7818608E-02  0.1235060E+00
          4   -1    0    0  501    0  0.00000000000E+00  0.00000000000E+00  0.29478140215E+02  0.29505485092E+02  0.12700000000E+01 0.  1.
         -4   -1    0    0    0  501 -0.00000000000E+00 -0.00000000000E+00 -0.13243415095E+03  0.13244024025E+03  0.12700000000E+01 0.  1.
         25    2    1    2    0    0  0.00000000000E+00  0.00000000000E+00 -0.10295601073E+03  0.16194572534E+03  0.12500591110E+03 0.  0.
    9000005    1    3    3    0    0 -0.17818200916E+02  0.41908708097E+02  0.39688527121E+01  0.45722859601E+02  0.10000000000E+01 0.  0.
    9000005    1    3    3    0    0  0.17818200916E+02 -0.41908708097E+02 -0.10692486344E+03  0.11622286574E+03  0.10000000000E+01 0.  0.
<mgrwt>
<rscale>  0 0.12500591E+03</rscale>
<asrwt>0</asrwt>
<pdfrwt beam="1">  1        4 0.45376704E-02 0.12500591E+03</pdfrwt>
<pdfrwt beam="2">  1       -4 0.20377056E-01 0.12500591E+03</pdfrwt>
<totfact> 0.96956091E+03</totfact>
</mgrwt>
</event>
<event>
 5    1  0.3284464E-002  0.1250000E+03  0.7818608E-02  0.1235069E+00
          4   -1    0    0  501    0  0.00000000000E+00  0.00000000000E+00  0.15209482093E+03  0.15210012313E+03  0.12700000000E+01 0. -1.
         -4   -1    0    0    0  501 -0.00000000000E+00 -0.00000000000E+00 -0.25661541467E+02  0.25692948652E+02  0.12700000000E+01 0. -1.
         25    2    1    2    0    0  0.00000000000E+00  0.00000000000E+00  0.12643327947E+03  0.17779307178E+03  0.12500000886E+03 0.  0.
    9000005    1    3    3    0    0 -0.38869245149E+02  0.34079497432E+02  0.11316139434E+03  0.12441355044E+03  0.10000000000E+01 0.  0.
    9000005    1    3    3    0    0  0.38869245149E+02 -0.34079497432E+02  0.13271885128E+02  0.53379521341E+02  0.10000000000E+01 0.  0.
<mgrwt>
<rscale>  0 0.12500001E+03</rscale>
<asrwt>0</asrwt>
<pdfrwt beam="1">  1        4 0.23402027E-01 0.12500001E+03</pdfrwt>
<pdfrwt beam="2">  1       -4 0.39507533E-02 0.12500001E+03</pdfrwt>
<totfact> 0.94015754E+03</totfact>
</mgrwt>
</event>
<event>
 5    1  0.3284464E-002  0.1250014E+03  0.7818608E-02  0.1235067E+00
          4   -1    0    0  501    0  0.00000000000E+00  0.00000000000E+00  0.14372227640E+03  0.14372788746E+03  0.12700000000E+01 0.  1.
         -4   -1    0    0    0  501 -0.00000000000E+00 -0.00000000000E+00 -0.27158777708E+02  0.27188455391E+02  0.12700000000E+01 0.  1.
         25    2    1    2    0    0  0.00000000000E+00  0.00000000000E+00  0.11656349869E+03  0.17091634285E+03  0.12500138810E+03 0.  0.
    9000005    1    3    3    0    0 -0.26323224018E+02 -0.30721072573E+02  0.12340732578E+03  0.12987326314E+03  0.10000000000E+01 0.  0.
    9000005    1    3    3    0    0  0.26323224018E+02  0.30721072573E+02 -0.68438270892E+01  0.41043079708E+02  0.10000000000E+01 0.  0.
<mgrwt>
<rscale>  0 0.12500139E+03</rscale>
<asrwt>0</asrwt>
<pdfrwt beam="1">  1        4 0.22113834E-01 0.12500139E+03</pdfrwt>
<pdfrwt beam="2">  1       -4 0.41809880E-02 0.12500139E+03</pdfrwt>
<totfact> 0.95275149E+03</totfact>
</mgrwt>
</event>
<event>
 5    1  0.3284464E-002  0.1250019E+03  0.7818608E-02  0.1235066E+00
         -4   -1    0    0    0  501 -0.00000000000E+00  0.00000000000E+00  0.93512345940E+02  0.93520969538E+02  0.12700000000E+01 0.  1.
          4   -1    0    0  501    0  0.00000000000E+00 -0.00000000000E+00 -0.41753646352E+02  0.41772956368E+02  0.12700000000E+01 0.  1.
         25    2    1    2    0    0  0.00000000000E+00  0.00000000000E+00  0.51758699588E+02  0.13529392591E+03  0.12500193360E+03 0.  0.
    9000005    1    3    3    0    0 -0.51632626023E+02 -0.10878963070E+02  0.62118832540E+02  0.81510914997E+02  0.10000000000E+01 0.  0.
    9000005    1    3    3    0    0  0.51632626023E+02  0.10878963070E+02 -0.10360132952E+02  0.53783010908E+02  0.10000000000E+01 0.  0.
<mgrwt>
<rscale>  0 0.12500193E+03</rscale>
<asrwt>0</asrwt>
<pdfrwt beam="2">  1        4 0.64257868E-02 0.12500193E+03</pdfrwt>
<pdfrwt beam="1">  1       -4 0.14388663E-01 0.12500193E+03</pdfrwt>
<totfact> 0.10231433E+04</totfact>
</mgrwt>
</event>
<event>
 5    1  0.3284464E-002  0.1250115E+03  0.7818608E-02  0.1235051E+00
         -4   -1    0    0    0  501 -0.00000000000E+00  0.00000000000E+00  0.65128924367E+02  0.65141305554E+02  0.12700000000E+01 0.  1.
          4   -1    0    0  501    0  0.00000000000E+00 -0.00000000000E+00 -0.59963468541E+02  0.59976916055E+02  0.12700000000E+01 0.  1.
         25    2    1    2    0    0  0.00000000000E+00  0.00000000000E+00  0.51654558261E+01  0.12511822161E+03  0.12501154925E+03 0.  0.
    9000005    1    3    3    0    0 -0.42923324938E+02 -0.43576068252E+02  0.15426694851E+02  0.63089368852E+02  0.10000000000E+01 0.  0.
    9000005    1    3    3    0    0  0.42923324938E+02  0.43576068252E+02 -0.10261239025E+02  0.62028852757E+02  0.10000000000E+01 0.  0.
<mgrwt>
<rscale>  0 0.12501155E+03</rscale>
<asrwt>0</asrwt>
<pdfrwt beam="2">  1        4 0.92271358E-02 0.12501155E+03</pdfrwt>
<pdfrwt beam="1">  1       -4 0.10021821E-01 0.12501155E+03</pdfrwt>
<totfact> 0.10447568E+04</totfact>
</mgrwt>
</event>
<event>
 5    1  0.3284464E-002  0.1249973E+03  0.7818608E-02  0.1235073E+00
         -4   -1    0    0    0  501 -0.00000000000E+00  0.00000000000E+00  0.29583514276E+03  0.29583786876E+03  0.12700000000E+01 0.  1.
          4   -1    0    0  501    0  0.00000000000E+00 -0.00000000000E+00 -0.13170242769E+02  0.13231333817E+02  0.12700000000E+01 0.  1.
         25    2    1    2    0    0  0.00000000000E+00  0.00000000000E+00  0.28266489999E+03  0.30906920258E+03  0.12499730515E+03 0.  0.
    9000005    1    3    3    0    0  0.45080121961E+02 -0.67007177899E+01  0.24704802278E+03  0.25121871462E+03  0.10000000000E+01 0.  0.
    9000005    1    3    3    0    0 -0.45080121961E+02  0.67007177899E+01  0.35616877217E+02  0.57850487964E+02  0.10000000000E+01 0.  0.
<mgrwt>
<rscale>  0 0.12499731E+03</rscale>
<asrwt>0</asrwt>
<pdfrwt beam="2">  1        4 0.20311001E-02 0.12499731E+03</pdfrwt>
<pdfrwt beam="1">  1       -4 0.45518010E-01 0.12499731E+03</pdfrwt>
<totfact> 0.74479567E+03</totfact>
</mgrwt>
</event>
<event>
 5    1  0.3284464E-002  0.1249986E+03  0.7818608E-02  0.1235071E+00
         -4   -1    0    0    0  501 -0.00000000000E+00  0.00000000000E+00  0.56973778654E+02  0.56987931654E+02  0.12700000000E+01 0. -1.
          4   -1    0    0  501    0  0.00000000000E+00 -0.00000000000E+00 -0.68532194463E+02  0.68543960915E+02  0.12700000000E+01 0. -1.
         25    2    1    2    0    0  0.00000000000E+00  0.00000000000E+00 -0.11558415808E+02  0.12553189257E+03  0.12499863630E+03 0.  0.
    9000005    1    3    3    0    0  0.24115054568E+02 -0.44699194174E+02  0.30785056712E+02  0.59399272162E+02  0.10000000000E+01 0.  0.
    9000005    1    3    3    0    0 -0.24115054568E+02  0.44699194174E+02 -0.42343472520E+02  0.66132620406E+02  0.10000000000E+01 0.  0.
<mgrwt>
<rscale>  0 0.12499864E+03</rscale>
<asrwt>0</asrwt>
<pdfrwt beam="2">  1        4 0.10545408E-01 0.12499864E+03</pdfrwt>
<pdfrwt beam="1">  1       -4 0.87671906E-02 0.12499864E+03</pdfrwt>
<totfact> 0.10441571E+04</totfact>
</mgrwt>
</event>
<event>
 5    1  0.3284464E-002  0.1250308E+03  0.7818608E-02  0.1235021E+00
         -4   -1    0    0    0  501 -0.00000000000E+00  0.00000000000E+00  0.32256108923E+03  0.32256358937E+03  0.12700000000E+01 0. -1.
          4   -1    0    0  501    0  0.00000000000E+00 -0.00000000000E+00 -0.12080233757E+02  0.12146808125E+02  0.12700000000E+01 0. -1.
         25    2    1    2    0    0  0.00000000000E+00  0.00000000000E+00  0.31048085547E+03  0.33471039749E+03  0.12503075051E+03 0.  0.
    9000005    1    3    3    0    0 -0.57133552867E+02  0.73925489458E+01  0.90310604156E+02  0.10712561723E+03  0.10000000000E+01 0.  0.
    9000005    1    3    3    0    0  0.57133552867E+02 -0.73925489458E+01  0.22017025132E+03  0.22758478027E+03  0.10000000000E+01 0.  0.
<mgrwt>
<rscale>  0 0.12503075E+03</rscale>
<asrwt>0</asrwt>
<pdfrwt beam="2">  1        4 0.18638109E-02 0.12503075E+03</pdfrwt>
<pdfrwt beam="1">  1       -4 0.49630097E-01 0.12503075E+03</pdfrwt>
<totfact> 0.71391376E+03</totfact>
</mgrwt>
</event>
<event>
 5    1  0.3284464E-002  0.1249985E+03  0.7818608E-02  0.1235072E+00
         -4   -1    0    0    0  501 -0.00000000000E+00  0.00000000000E+00  0.44286928836E+02  0.44305134756E+02  0.12700000000E+01 0.  1.
          4   -1    0    0  501    0  0.00000000000E+00 -0.00000000000E+00 -0.88160199214E+02  0.88169346291E+02  0.12700000000E+01 0.  1.
         25    2    1    2    0    0  0.00000000000E+00  0.00000000000E+00 -0.43873270378E+02  0.13247448105E+03  0.12499849709E+03 0.  0.
    9000005    1    3    3    0    0 -0.24780312382E+02 -0.55144721233E+02 -0.51744997807E+01  0.60685909482E+02  0.10000000000E+01 0.  0.
    9000005    1    3    3    0    0  0.24780312382E+02  0.55144721233E+02 -0.38698770597E+02  0.71788571565E+02  0.10000000000E+01 0.  0.
<mgrwt>
<rscale>  0 0.12499850E+03</rscale>
<asrwt>0</asrwt>
<pdfrwt beam="2">  1        4 0.13565212E-01 0.12499850E+03</pdfrwt>
<pdfrwt beam="1">  1       -4 0.68154778E-02 0.12499850E+03</pdfrwt>
<totfact> 0.10291930E+04</totfact>
</mgrwt>
</event>
<event>
 5    1  0.3284464E-002  0.1250055E+03  0.7818608E-02  0.1235061E+00
          4   -1    0    0  501    0  0.00000000000E+00  0.00000000000E+00  0.22835497471E+03  0.22835850624E+03  0.12700000000E+01 0. -1.
         -4   -1    0    0    0  501 -0.00000000000E+00 -0.00000000000E+00 -0.17080301477E+02  0.17127451607E+02  0.12700000000E+01 0. -1.
         25    2    1    2    0    0  0.00000000000E+00  0.00000000000E+00  0.21127467323E+03  0.24548595785E+03  0.12500547169E+03 0.  0.
    9000005    1    3    3    0    0  0.40240250985E+02 -0.44671644509E+02  0.72151300501E+02  0.93923606119E+02  0.10000000000E+01 0.  0.
    9000005    1    3    3    0    0 -0.40240250985E+02  0.44671644509E+02  0.13912337273E+03  0.15156235173E+03  0.10000000000E+01 0.  0.
<mgrwt>
<rscale>  0 0.12500547E+03</rscale>
<asrwt>0</asrwt>
<pdfrwt beam="1">  1        4 0.35135433E-01 0.12500547E+03</pdfrwt>
<pdfrwt beam="2">  1       -4 0.26316373E-02 0.12500547E+03</pdfrwt>
<totfact> 0.82976937E+03</totfact>
</mgrwt>
</event>
<event>
 5    1  0.3284464E-002  0.1249954E+03  0.7818608E-02  0.1235077E+00
          4   -1    0    0  501    0  0.00000000000E+00  0.00000000000E+00  0.50443877006E+03  0.50444036876E+03  0.12700000000E+01 0.  1.
         -4   -1    0    0    0  501 -0.00000000000E+00 -0.00000000000E+00 -0.76894843129E+01  0.77936556890E+01  0.12700000000E+01 0.  1.
         25    2    1    2    0    0  0.00000000000E+00  0.00000000000E+00  0.49674928575E+03  0.51223402445E+03  0.12499537159E+03 0.  0.
    9000005    1    3    3    0    0 -0.39008834597E+02 -0.46307049795E+02  0.18503018210E+03  0.19468744265E+03  0.10000000000E+01 0.  0.
    9000005    1    3    3    0    0  0.39008834597E+02  0.46307049795E+02  0.31171910365E+03  0.31754658181E+03  0.10000000000E+01 0.  0.
<mgrwt>
<rscale>  0 0.12499537E+03</rscale>
<asrwt>0</asrwt>
<pdfrwt beam="1">  1        4 0.77614110E-01 0.12499537E+03</pdfrwt>
<pdfrwt beam="2">  1       -4 0.11911336E-02 0.12499537E+03</pdfrwt>
<totfact> 0.54933078E+03</totfact>
</mgrwt>
</event>
<event>
 5    1  0.3284464E-002  0.1249998E+03  0.7818608E-02  0.1235070E+00
         -4   -1    0    0    0  501 -0.00000000000E+00  0.00000000000E+00  0.31263130482E+02  0.31288915410E+02  0.12700000000E+01 0.  1.
          4   -1    0    0  501    0  0.00000000000E+00 -0.00000000000E+00 -0.12486658336E+03  0.12487304168E+03  0.12700000000E+01 0.  1.
         25    2    1    2    0    0  0.00000000000E+00  0.00000000000E+00 -0.93603452876E+02  0.15616195709E+03  0.12499980181E+03 0.  0.
    9000005    1    3    3    0    0 -0.39232239563E+02  0.30949919825E+02 -0.93682383176E+02  0.10618123693E+03  0.10000000000E+01 0.  0.
    9000005    1    3    3    0    0  0.39232239563E+02 -0.30949919825E+02  0.78930300012E-01  0.49980720165E+02  0.10000000000E+01 0.  0.
<mgrwt>
<rscale>  0 0.12499980E+03</rscale>
<asrwt>0</asrwt>
<pdfrwt beam="2">  1        4 0.19212724E-01 0.12499980E+03</pdfrwt>
<pdfrwt beam="1">  1       -4 0.48121927E-02 0.12499980E+03</pdfrwt>
<totfact> 0.98088311E+03</totfact>
</mgrwt>
</event>
<event>
 5    1  0.3284464E-002  0.1249830E+03  0.7818608E-02  0.1235096E+00
          4   -1    0    0  501    0  0.00000000000E+00  0.00000000000E+00  0.52166709747E+03  0.52166864338E+03  0.12700000000E+01 0. -1.
         -4   -1    0    0    0  501 -0.00000000000E+00 -0.00000000000E+00 -0.74305460747E+01  0.75382965561E+01  0.12700000000E+01 0. -1.
         25    2    1    2    0    0  0.00000000000E+00  0.00000000000E+00  0.51423655139E+03  0.52920693993E+03  0.12498301678E+03 0.  0.
    9000005    1    3    3    0    0 -0.39020637540E+02 -0.48762739508E+02  0.24889285079E+03  0.25661072872E+03  0.10000000000E+01 0.  0.
    9000005    1    3    3    0    0  0.39020637540E+02  0.48762739508E+02  0.26534370061E+03  0.27259621122E+03  0.10000000000E+01 0.  0.
<mgrwt>
<rscale>  0 0.12498302E+03</rscale>
<asrwt>0</asrwt>
<pdfrwt beam="1">  1        4 0.80264913E-01 0.12498302E+03</pdfrwt>
<pdfrwt beam="2">  1       -4 0.11515679E-02 0.12498302E+03</pdfrwt>
<totfact> 0.53687414E+03</totfact>
</mgrwt>
</event>
<event>
 5    1  0.3284464E-002  0.1249911E+03  0.7818608E-02  0.1235083E+00
         -4   -1    0    0    0  501 -0.00000000000E+00  0.00000000000E+00  0.58679723339E+03  0.58679860771E+03  0.12700000000E+01 0.  1.
          4   -1    0    0  501    0  0.00000000000E+00 -0.00000000000E+00 -0.65939747378E+01  0.67151621606E+01  0.12700000000E+01 0.  1.
         25    2    1    2    0    0  0.00000000000E+00  0.00000000000E+00  0.58020325865E+03  0.59351376987E+03  0.12499109440E+03 0.  0.
    9000005    1    3    3    0    0 -0.11227453936E+02 -0.24417561558E+02  0.22227666523E+02  0.34890431258E+02  0.10000000000E+01 0.  0.
    9000005    1    3    3    0    0  0.11227453936E+02  0.24417561558E+02  0.55797559212E+03  0.55862333861E+03  0.10000000000E+01 0.  0.
<mgrwt>
<rscale>  0 0.12499109E+03</rscale>
<asrwt>0</asrwt>
<pdfrwt beam="2">  1        4 0.10238849E-02 0.12499109E+03</pdfrwt>
<pdfrwt beam="1">  1       -4 0.90285977E-01 0.12499109E+03</pdfrwt>
<totfact> 0.49289221E+03</totfact>
</mgrwt>
</event>
<event>
 5    1  0.3284464E-002  0.1250002E+03  0.7818608E-02  0.1235069E+00
          4   -1    0    0  501    0  0.00000000000E+00  0.00000000000E+00  0.42377294456E+02  0.42396320423E+02  0.12700000000E+01 0.  1.
         -4   -1    0    0    0  501 -0.00000000000E+00 -0.00000000000E+00 -0.92134058355E+02  0.92142810946E+02  0.12700000000E+01 0.  1.
         25    2    1    2    0    0  0.00000000000E+00  0.00000000000E+00 -0.49756763899E+02  0.13453913137E+03  0.12500016926E+03 0.  0.
    9000005    1    3    3    0    0 -0.10936255071E+02  0.60957206807E+02 -0.15881173934E+02  0.63942117749E+02  0.10000000000E+01 0.  0.
    9000005    1    3    3    0    0  0.10936255071E+02 -0.60957206807E+02 -0.33875589965E+02  0.70597013621E+02  0.10000000000E+01 0.  0.
<mgrwt>
<rscale>  0 0.12500017E+03</rscale>
<asrwt>0</asrwt>
<pdfrwt beam="1">  1        4 0.65217206E-02 0.12500017E+03</pdfrwt>
<pdfrwt beam="2">  1       -4 0.14176607E-01 0.12500017E+03</pdfrwt>
<totfact> 0.10247755E+04</totfact>
</mgrwt>
</event>
<event>
 5    1  0.3284464E-002  0.1250062E+03  0.7818608E-02  0.1235060E+00
          4   -1    0    0  501    0  0.00000000000E+00  0.00000000000E+00  0.39704141417E+02  0.39724447708E+02  0.12700000000E+01 0. -1.
         -4   -1    0    0    0  501 -0.00000000000E+00 -0.00000000000E+00 -0.98344142751E+02  0.98352342694E+02  0.12700000000E+01 0. -1.
         25    2    1    2    0    0  0.00000000000E+00  0.00000000000E+00 -0.58640001334E+02  0.13807679040E+03  0.12500620101E+03 0.  0.
    9000005    1    3    3    0    0  0.12205765016E+02 -0.53394665768E+02 -0.62560940018E+02  0.83155530472E+02  0.10000000000E+01 0.  0.
    9000005    1    3    3    0    0 -0.12205765016E+02  0.53394665768E+02  0.39209386837E+01  0.54921259930E+02  0.10000000000E+01 0.  0.
<mgrwt>
<rscale>  0 0.12500620E+03</rscale>
<asrwt>0</asrwt>
<pdfrwt beam="1">  1        4 0.61105223E-02 0.12500620E+03</pdfrwt>
<pdfrwt beam="2">  1       -4 0.15132061E-01 0.12500620E+03</pdfrwt>
<totfact> 0.10172180E+04</totfact>
</mgrwt>
</event>
<event>
 5    1  0.3284464E-002  0.1250000E+03  0.7818608E-02  0.1235069E+00
          4   -1    0    0  501    0  0.00000000000E+00  0.00000000000E+00  0.97507584115E+01  0.98331169829E+01  0.12700000000E+01 0.  1.
         -4   -1    0    0    0  501 -0.00000000000E+00 -0.00000000000E+00 -0.39884151554E+03  0.39884353752E+03  0.12700000000E+01 0.  1.
         25    2    1    2    0    0  0.00000000000E+00  0.00000000000E+00 -0.38909075713E+03  0.40867665450E+03  0.12499996260E+03 0.  0.
    9000005    1    3    3    0    0  0.17014561011E+02 -0.38232085434E+02 -0.42805809458E+02  0.59870902502E+02  0.10000000000E+01 0.  0.
    9000005    1    3    3    0    0 -0.17014561011E+02  0.38232085434E+02 -0.34628494767E+03  0.34880575200E+03  0.10000000000E+01 0.  0.
<mgrwt>
<rscale>  0 0.12499996E+03</rscale>
<asrwt>0</asrwt>
<pdfrwt beam="1">  1        4 0.15066078E-02 0.12499996E+03</pdfrwt>
<pdfrwt beam="2">  1       -4 0.61366711E-01 0.12499996E+03</pdfrwt>
<totfact> 0.63717625E+03</totfact>
</mgrwt>
</event>
<event>
 5    1  0.3284464E-002  0.1249969E+03  0.7818608E-02  0.1235074E+00
         -4   -1    0    0    0  501 -0.00000000000E+00  0.00000000000E+00  0.14813397703E+04  0.14813403147E+04  0.12700000000E+01 0. -1.
          4   -1    0    0  501    0  0.00000000000E+00 -0.00000000000E+00 -0.24833440904E+01  0.27892468287E+01  0.12700000000E+01 0. -1.
         25    2    1    2    0    0  0.00000000000E+00  0.00000000000E+00  0.14788564262E+04  0.14841295615E+04  0.12499690428E+03 0.  0.
    9000005    1    3    3    0    0 -0.35278321093E+02 -0.10146234687E+02  0.13398890227E+04  0.13403921438E+04  0.10000000000E+01 0.  0.
    9000005    1    3    3    0    0  0.35278321093E+02  0.10146234687E+02  0.13896740347E+03  0.14373741769E+03  0.10000000000E+01 0.  0.
<mgrwt>
<rscale>  0 0.12499690E+03</rscale>
<asrwt>0</asrwt>
<pdfrwt beam="2">  1        4 0.40562545E-03 0.12499690E+03</pdfrwt>
<pdfrwt beam="1">  1       -4 0.22792219E+00 0.12499690E+03</pdfrwt>
<totfact> 0.18245553E+03</totfact>
</mgrwt>
</event>
<event>
 5    1  0.3284464E-002  0.1249980E+03  0.7818608E-02  0.1235072E+00
         -4   -1    0    0    0  501 -0.00000000000E+00  0.00000000000E+00  0.26530921770E+03  0.26531225735E+03  0.12700000000E+01 0.  1.
          4   -1    0    0  501    0  0.00000000000E+00 -0.00000000000E+00 -0.14692396230E+02  0.14747183019E+02  0.12700000000E+01 0.  1.
         25    2    1    2    0    0  0.00000000000E+00  0.00000000000E+00  0.25061682147E+03  0.28005944036E+03  0.12499799571E+03 0.  0.
    9000005    1    3    3    0    0  0.57353684053E+02 -0.34652048669E+01  0.70259631999E+02  0.90768213643E+02  0.10000000000E+01 0.  0.
    9000005    1    3    3    0    0 -0.57353684053E+02  0.34652048669E+01  0.18035718947E+03  0.18929122672E+03  0.10000000000E+01 0.  0.
<mgrwt>
<rscale>  0 0.12499800E+03</rscale>
<asrwt>0</asrwt>
<pdfrwt beam="2">  1        4 0.22648169E-02 0.12499800E+03</pdfrwt>
<pdfrwt beam="1">  1       -4 0.40821249E-01 0.12499800E+03</pdfrwt>
<totfact> 0.78173707E+03</totfact>
</mgrwt>
</event>
<event>
 5    1  0.3284464E-002  0.1250000E+03  0.7818608E-02  0.1235069E+00
         -4   -1    0    0    0  501 -0.00000000000E+00  0.00000000000E+00  0.42715692459E+02  0.42734567767E+02  0.12700000000E+01 0.  1.
          4   -1    0    0  501    0  0.00000000000E+00 -0.00000000000E+00 -0.91404140133E+02  0.91412962611E+02  0.12700000000E+01 0.  1.
         25    2    1    2    0    0  0.00000000000E+00  0.00000000000E+00 -0.48688447674E+02  0.13414753038E+03  0.12499997988E+03 0.  0.
    9000005    1    3    3    0    0  0.37591040104E+01 -0.45326858186E+02 -0.70335906222E+02  0.83766309695E+02  0.10000000000E+01 0.  0.
    9000005    1    3    3    0    0 -0.37591040104E+01  0.45326858186E+02  0.21647458548E+02  0.50381220683E+02  0.10000000000E+01 0.  0.
<mgrwt>
<rscale>  0 0.12499998E+03</rscale>
<asrwt>0</asrwt>
<pdfrwt beam="2">  1        4 0.14064306E-01 0.12499998E+03</pdfrwt>
<pdfrwt beam="1">  1       -4 0.65737756E-02 0.12499998E+03</pdfrwt>
<totfact> 0.10256075E+04</totfact>
</mgrwt>
</event>
<event>
 5    1  0.3284464E-002  0.1250004E+03  0.7818608E-02  0.1235069E+00
         -4   -1    0    0    0  501 -0.00000000000E+00  0.00000000000E+00  0.15146984776E+03  0.15147517182E+03  0.12700000000E+01 0. -1.
          4   -1    0    0  501    0  0.00000000000E+00 -0.00000000000E+00 -0.25767698695E+02  0.25798976647E+02  0.12700000000E+01 0. -1.
         25    2    1    2    0    0  0.00000000000E+00  0.00000000000E+00  0.12570214906E+03  0.17727414847E+03  0.12500037375E+03 0.  0.
    9000005    1    3    3    0    0  0.48454665674E+02  0.14566212587E+02  0.11486679977E+03  0.12552055952E+03  0.10000000000E+01 0.  0.
    9000005    1    3    3    0    0 -0.48454665674E+02 -0.14566212587E+02  0.10835349297E+02  0.51753588948E+02  0.10000000000E+01 0.  0.
<mgrwt>
<rscale>  0 0.12500037E+03</rscale>
<asrwt>0</asrwt>
<pdfrwt beam="2">  1        4 0.39670768E-02 0.12500037E+03</pdfrwt>
<pdfrwt beam="1">  1       -4 0.23305869E-01 0.12500037E+03</pdfrwt>
<totfact> 0.94109190E+03</totfact>
</mgrwt>
</event>
<event>
 5    1  0.3284464E-002  0.1250031E+03  0.7818608E-02  0.1235064E+00
          4   -1    0    0  501    0  0.00000000000E+00  0.00000000000E+00  0.47247154942E+03  0.47247325629E+03  0.12700000000E+01 0. -1.
         -4   -1    0    0    0  501 -0.00000000000E+00 -0.00000000000E+00 -0.82175980294E+01  0.83151558839E+01  0.12700000000E+01 0. -1.
         25    2    1    2    0    0  0.00000000000E+00  0.00000000000E+00  0.46425395139E+03  0.48078841218E+03  0.12500306357E+03 0.  0.
    9000005    1    3    3    0    0 -0.27054870480E+02  0.53557805409E+02  0.29930226597E+03  0.30525931755E+03  0.10000000000E+01 0.  0.
    9000005    1    3    3    0    0  0.27054870480E+02 -0.53557805409E+02  0.16495168543E+03  0.17552909463E+03  0.10000000000E+01 0.  0.
<mgrwt>
<rscale>  0 0.12500306E+03</rscale>
<asrwt>0</asrwt>
<pdfrwt beam="1">  1        4 0.72695582E-01 0.12500306E+03</pdfrwt>
<pdfrwt beam="2">  1       -4 0.12718813E-02 0.12500306E+03</pdfrwt>
<totfact> 0.57382502E+03</totfact>
</mgrwt>
</event>
<event>
 5    1  0.3284464E-002  0.1250015E+03  0.7818608E-02  0.1235067E+00
          4   -1    0    0  501    0  0.00000000000E+00  0.00000000000E+00  0.17550005988E+02  0.17595897538E+02  0.12700000000E+01 0. -1.
         -4   -1    0    0    0  501 -0.00000000000E+00 -0.00000000000E+00 -0.22224509204E+03  0.22224872066E+03  0.12700000000E+01 0. -1.
         25    2    1    2    0    0  0.00000000000E+00  0.00000000000E+00 -0.20469508605E+03  0.23984461820E+03  0.12500145049E+03 0.  0.
    9000005    1    3    3    0    0 -0.48830345309E+02 -0.18683202859E+02 -0.16803096171E+03  0.17597973970E+03  0.10000000000E+01 0.  0.
    9000005    1    3    3    0    0  0.48830345309E+02  0.18683202859E+02 -0.36664124348E+02  0.63864878504E+02  0.10000000000E+01 0.  0.
<mgrwt>
<rscale>  0 0.12500145E+03</rscale>
<asrwt>0</asrwt>
<pdfrwt beam="1">  1        4 0.27038103E-02 0.12500145E+03</pdfrwt>
<pdfrwt beam="2">  1       -4 0.34195360E-01 0.12500145E+03</pdfrwt>
<totfact> 0.83817805E+03</totfact>
</mgrwt>
</event>
<event>
 5    1  0.3284464E-002  0.1249964E+03  0.7818608E-02  0.1235075E+00
         -4   -1    0    0    0  501 -0.00000000000E+00  0.00000000000E+00  0.13047276972E+01  0.18207730127E+01  0.12700000000E+01 0.  1.
          4   -1    0    0  501    0  0.00000000000E+00 -0.00000000000E+00 -0.24989406678E+04  0.24989409905E+04  0.12700000000E+01 0.  1.
         25    2    1    2    0    0  0.00000000000E+00  0.00000000000E+00 -0.24976359401E+04  0.25007617635E+04  0.12499643450E+03 0.  0.
    9000005    1    3    3    0    0  0.57441808529E+02  0.69044608647E+01 -0.17213287241E+04  0.17223010217E+04  0.10000000000E+01 0.  0.
    9000005    1    3    3    0    0 -0.57441808529E+02 -0.69044608647E+01 -0.77630721597E+03  0.77846074180E+03  0.10000000000E+01 0.  0.
<mgrwt>
<rscale>  0 0.12499643E+03</rscale>
<asrwt>0</asrwt>
<pdfrwt beam="2">  1        4 0.38448893E+00 0.12499643E+03</pdfrwt>
<pdfrwt beam="1">  1       -4 0.24044996E-03 0.12499643E+03</pdfrwt>
<totfact> 0.46638967E+02</totfact>
</mgrwt>
</event>
<event>
 5    1  0.3284464E-002  0.1250019E+03  0.7818608E-02  0.1235066E+00
         -4   -1    0    0    0  501 -0.00000000000E+00  0.00000000000E+00  0.30003694356E+02  0.30030560684E+02  0.12700000000E+01 0.  1.
          4   -1    0    0  501    0  0.00000000000E+00 -0.00000000000E+00 -0.13010807899E+03  0.13011427716E+03  0.12700000000E+01 0.  1.
         25    2    1    2    0    0  0.00000000000E+00  0.00000000000E+00 -0.10010438464E+03  0.16014483784E+03  0.12500192504E+03 0.  0.
    9000005    1    3    3    0    0  0.34702666666E+02  0.42100663757E+02 -0.89092878878E+02  0.10447622710E+03  0.10000000000E+01 0.  0.
    9000005    1    3    3    0    0 -0.34702666666E+02 -0.42100663757E+02 -0.11011505761E+02  0.55668610739E+02  0.10000000000E+01 0.  0.
<mgrwt>
<rscale>  0 0.12500193E+03</rscale>
<asrwt>0</asrwt>
<pdfrwt beam="2">  1        4 0.20019171E-01 0.12500193E+03</pdfrwt>
<pdfrwt beam="1">  1       -4 0.46184965E-02 0.12500193E+03</pdfrwt>
<totfact> 0.97310658E+03</totfact>
</mgrwt>
</event>
<event>
 5    1  0.3284464E-002  0.1249974E+03  0.7818608E-02  0.1235073E+00
         -4   -1    0    0    0  501 -0.00000000000E+00  0.00000000000E+00  0.21615345168E+03  0.21615718256E+03  0.12700000000E+01 0. -1.
          4   -1    0    0  501    0  0.00000000000E+00 -0.00000000000E+00 -0.18044695005E+02  0.18089331603E+02  0.12700000000E+01 0. -1.
         25    2    1    2    0    0  0.00000000000E+00  0.00000000000E+00  0.19810875667E+03  0.23424651416E+03  0.12499739968E+03 0.  0.
    9000005    1    3    3    0    0  0.24794251257E+02  0.33164654056E+02  0.18676206802E+03  0.19130007639E+03  0.10000000000E+01 0.  0.
    9000005    1    3    3    0    0 -0.24794251257E+02 -0.33164654056E+02  0.11346688647E+02  0.42946437772E+02  0.10000000000E+01 0.  0.
<mgrwt>
<rscale>  0 0.12499740E+03</rscale>
<asrwt>0</asrwt>
<pdfrwt beam="2">  1        4 0.27798275E-02 0.12499740E+03</pdfrwt>
<pdfrwt beam="1">  1       -4 0.33258098E-01 0.12499740E+03</pdfrwt>
<totfact> 0.84666687E+03</totfact>
</mgrwt>
</event>
<event>
 5    1  0.3284464E-002  0.1249992E+03  0.7818608E-02  0.1235071E+00
          4   -1    0    0  501    0  0.00000000000E+00  0.00000000000E+00  0.10260182468E+03  0.10260968437E+03  0.12700000000E+01 0.  1.
         -4   -1    0    0    0  501 -0.00000000000E+00 -0.00000000000E+00 -0.38051547734E+02  0.38072735454E+02  0.12700000000E+01 0.  1.
         25    2    1    2    0    0  0.00000000000E+00  0.00000000000E+00  0.64550276943E+02  0.14068241983E+03  0.12499921998E+03 0.  0.
    9000005    1    3    3    0    0 -0.36164477213E+01 -0.51849595817E+02 -0.67729005020E+01  0.52424531106E+02  0.10000000000E+01 0.  0.
    9000005    1    3    3    0    0  0.36164477213E+01  0.51849595817E+02  0.71323177445E+02  0.88257888720E+02  0.10000000000E+01 0.  0.
<mgrwt>
<rscale>  0 0.12499922E+03</rscale>
<asrwt>0</asrwt>
<pdfrwt beam="1">  1        4 0.15787130E-01 0.12499922E+03</pdfrwt>
<pdfrwt beam="2">  1       -4 0.58563187E-02 0.12499922E+03</pdfrwt>
<totfact> 0.10119640E+04</totfact>
</mgrwt>
</event>
<event>
 5    1  0.3284464E-002  0.1249994E+03  0.7818608E-02  0.1235070E+00
          4   -1    0    0  501    0  0.00000000000E+00  0.00000000000E+00  0.66781096608E+02  0.66793171538E+02  0.12700000000E+01 0.  1.
         -4   -1    0    0    0  501 -0.00000000000E+00 -0.00000000000E+00 -0.58468512830E+02  0.58482304098E+02  0.12700000000E+01 0.  1.
         25    2    1    2    0    0  0.00000000000E+00  0.00000000000E+00  0.83125837773E+01  0.12527547564E+03  0.12499938299E+03 0.  0.
    9000005    1    3    3    0    0 -0.19608299160E+02 -0.59319630673E+02  0.27721339840E+01  0.62545892798E+02  0.10000000000E+01 0.  0.
    9000005    1    3    3    0    0  0.19608299160E+02  0.59319630673E+02  0.55404497932E+01  0.62729582838E+02  0.10000000000E+01 0.  0.
<mgrwt>
<rscale>  0 0.12499938E+03</rscale>
<asrwt>0</asrwt>
<pdfrwt beam="1">  1        4 0.10276005E-01 0.12499938E+03</pdfrwt>
<pdfrwt beam="2">  1       -4 0.89971455E-02 0.12499938E+03</pdfrwt>
<totfact> 0.10447028E+04</totfact>
</mgrwt>
</event>
<event>
 4    1  0.3284464E-002  0.1248680E+03  0.7818608E-02  0.1235276E+00
         -4   -1    0    0    0  501 -0.00000000000E+00  0.00000000000E+00  0.12327017361E+03  0.12327671557E+03  0.12700000000E+01 0. -1.
          4   -1    0    0  501    0  0.00000000000E+00 -0.00000000000E+00 -0.31601506878E+02  0.31627015935E+02  0.12700000000E+01 0. -1.
    9000005    1    1    2    0    0 -0.17040461274E+02 -0.76142369959E+01 -0.28065309520E+02  0.33719660792E+02  0.10000000000E+01 0.  0.
    9000005    1    1    2    0    0  0.17040461274E+02  0.76142369959E+01  0.11973397625E+03  0.12118407071E+03  0.10000000000E+01 0.  0.
<mgrwt>
<rscale>  0 0.12486802E+03</rscale>
<asrwt>0</asrwt>
<pdfrwt beam="2">  1        4 0.48642358E-02 0.12486802E+03</pdfrwt>
<pdfrwt beam="1">  1       -4 0.18967107E-01 0.12486802E+03</pdfrwt>
<totfact> 0.98626858E+03</totfact>
</mgrwt>
</event>
<event>
 5    1  0.3284464E-002  0.1250009E+03  0.7818608E-02  0.1235068E+00
          4   -1    0    0  501    0  0.00000000000E+00  0.00000000000E+00  0.24815419894E+03  0.24815744871E+03  0.12700000000E+01 0.  1.
         -4   -1    0    0    0  501 -0.00000000000E+00 -0.00000000000E+00 -0.15712464789E+02  0.15763706726E+02  0.12700000000E+01 0.  1.
         25    2    1    2    0    0  0.00000000000E+00  0.00000000000E+00  0.23244173415E+03  0.26392115543E+03  0.12500086605E+03 0.  0.
    9000005    1    3    3    0    0  0.53193370883E+02  0.31056548480E+02  0.13849142703E+03  0.15157479761E+03  0.10000000000E+01 0.  0.
    9000005    1    3    3    0    0 -0.53193370883E+02 -0.31056548480E+02  0.93950307113E+02  0.11234635782E+03  0.10000000000E+01 0.  0.
<mgrwt>
<rscale>  0 0.12500087E+03</rscale>
<asrwt>0</asrwt>
<pdfrwt beam="1">  1        4 0.38181761E-01 0.12500087E+03</pdfrwt>
<pdfrwt beam="2">  1       -4 0.24214940E-02 0.12500087E+03</pdfrwt>
<totfact> 0.80357363E+03</totfact>
</mgrwt>
</event>
<event>
 5    1  0.3284464E-002  0.1250040E+03  0.7818608E-02  0.1235063E+00
          4   -1    0    0  501    0  0.00000000000E+00  0.00000000000E+00  0.20229869992E+03  0.20230268631E+03  0.12700000000E+01 0. -1.
         -4   -1    0    0    0  501 -0.00000000000E+00 -0.00000000000E+00 -0.19285490862E+02  0.19327262036E+02  0.12700000000E+01 0. -1.
         25    2    1    2    0    0  0.00000000000E+00  0.00000000000E+00  0.18301320906E+03  0.22162994835E+03  0.12500399720E+03 0.  0.
    9000005    1    3    3    0    0  0.44177520118E+02 -0.37796510973E+02  0.13214120265E+03  0.14436941145E+03  0.10000000000E+01 0.  0.
    9000005    1    3    3    0    0 -0.44177520118E+02  0.37796510973E+02  0.50872006408E+02  0.77260536896E+02  0.10000000000E+01 0.  0.
<mgrwt>
<rscale>  0 0.12500400E+03</rscale>
<asrwt>0</asrwt>
<pdfrwt beam="1">  1        4 0.31126396E-01 0.12500400E+03</pdfrwt>
<pdfrwt beam="2">  1       -4 0.29705185E-02 0.12500400E+03</pdfrwt>
<totfact> 0.86603355E+03</totfact>
</mgrwt>
</event>
<event>
 5    1  0.3284464E-002  0.1249978E+03  0.7818608E-02  0.1235073E+00
          4   -1    0    0  501    0  0.00000000000E+00  0.00000000000E+00  0.15916087974E+01  0.20362019949E+01  0.12700000000E+01 0. -1.
         -4   -1    0    0    0  501 -0.00000000000E+00 -0.00000000000E+00 -0.21529825434E+04  0.21529829180E+04  0.12700000000E+01 0. -1.
         25    2    1    2    0    0  0.00000000000E+00  0.00000000000E+00 -0.21513909346E+04  0.21550191200E+04  0.12499781573E+03 0.  0.
    9000005    1    3    3    0    0 -0.51894259067E+01 -0.39833682259E+02 -0.25040857338E+03  0.25361211723E+03  0.10000000000E+01 0.  0.
    9000005    1    3    3    0    0  0.51894259067E+01  0.39833682259E+02 -0.19009823612E+04  0.19014070028E+04  0.10000000000E+01 0.  0.
<mgrwt>
<rscale>  0 0.12499782E+03</rscale>
<asrwt>0</asrwt>
<pdfrwt beam="1">  1        4 0.27909291E-03 0.12499782E+03</pdfrwt>
<pdfrwt beam="2">  1       -4 0.33126027E+00 0.12499782E+03</pdfrwt>
<totfact> 0.79716779E+02</totfact>
</mgrwt>
</event>
<event>
 5    1  0.3284464E-002  0.1250008E+03  0.7818608E-02  0.1235068E+00
          4   -1    0    0  501    0  0.00000000000E+00  0.00000000000E+00  0.11785300087E+03  0.11785984352E+03  0.12700000000E+01 0. -1.
         -4   -1    0    0    0  501 -0.00000000000E+00 -0.00000000000E+00 -0.33125541120E+02  0.33149877443E+02  0.12700000000E+01 0. -1.
         25    2    1    2    0    0  0.00000000000E+00  0.00000000000E+00  0.84727459751E+02  0.15100972096E+03  0.12500077355E+03 0.  0.
    9000005    1    3    3    0    0 -0.45767124194E+01 -0.40162613645E+02 -0.15210883981E+02  0.43201305801E+02  0.10000000000E+01 0.  0.
    9000005    1    3    3    0    0  0.45767124194E+01  0.40162613645E+02  0.99938343732E+02  0.10780841516E+03  0.10000000000E+01 0.  0.
<mgrwt>
<rscale>  0 0.12500077E+03</rscale>
<asrwt>0</asrwt>
<pdfrwt beam="1">  1        4 0.18133629E-01 0.12500077E+03</pdfrwt>
<pdfrwt beam="2">  1       -4 0.50986355E-02 0.12500077E+03</pdfrwt>
<totfact> 0.99101080E+03</totfact>
</mgrwt>
</event>
<event>
 5    1  0.3284464E-002  0.1250002E+03  0.7818608E-02  0.1235069E+00
          4   -1    0    0  501    0  0.00000000000E+00  0.00000000000E+00  0.12163405122E+03  0.12164068118E+03  0.12700000000E+01 0. -1.
         -4   -1    0    0    0  501 -0.00000000000E+00 -0.00000000000E+00 -0.32094793387E+02  0.32119910687E+02  0.12700000000E+01 0. -1.
         25    2    1    2    0    0  0.00000000000E+00  0.00000000000E+00  0.89539257835E+02  0.15376059186E+03  0.12500016366E+03 0.  0.
    9000005    1    3    3    0    0  0.51586531606E+02  0.15905169941E+02  0.83495090814E+02  0.99431256978E+02  0.10000000000E+01 0.  0.
    9000005    1    3    3    0    0 -0.51586531606E+02 -0.15905169941E+02  0.60441670209E+01  0.54329334884E+02  0.10000000000E+01 0.  0.
<mgrwt>
<rscale>  0 0.12500016E+03</rscale>
<asrwt>0</asrwt>
<pdfrwt beam="1">  1        4 0.18715373E-01 0.12500016E+03</pdfrwt>
<pdfrwt beam="2">  1       -4 0.49401026E-02 0.12500016E+03</pdfrwt>
<totfact> 0.98558930E+03</totfact>
</mgrwt>
</event>
<event>
 5    1  0.3284464E-002  0.1250008E+03  0.7818608E-02  0.1235068E+00
         -4   -1    0    0    0  501 -0.00000000000E+00  0.00000000000E+00  0.26397578883E+03  0.26397884383E+03  0.12700000000E+01 0.  1.
          4   -1    0    0  501    0  0.00000000000E+00 -0.00000000000E+00 -0.14767554740E+02  0.14822063722E+02  0.12700000000E+01 0.  1.
         25    2    1    2    0    0  0.00000000000E+00  0.00000000000E+00  0.24920823409E+03  0.27880090755E+03  0.12500080845E+03 0.  0.
    9000005    1    3    3    0    0 -0.48846243788E+02  0.37882214318E+02  0.10412784330E+03  0.12109758645E+03  0.10000000000E+01 0.  0.
    9000005    1    3    3    0    0  0.48846243788E+02 -0.37882214318E+02  0.14508039079E+03  0.15770332110E+03  0.10000000000E+01 0.  0.
<mgrwt>
<rscale>  0 0.12500081E+03</rscale>
<asrwt>0</asrwt>
<pdfrwt beam="2">  1        4 0.22763597E-02 0.12500081E+03</pdfrwt>
<pdfrwt beam="1">  1       -4 0.40616084E-01 0.12500081E+03</pdfrwt>
<totfact> 0.78335959E+03</totfact>
</mgrwt>
</event>
<event>
 5    1  0.3284464E-002  0.1250347E+03  0.7818608E-02  0.1235015E+00
         -4   -1    0    0    0  501 -0.00000000000E+00  0.00000000000E+00  0.82973027844E+02  0.82982746698E+02  0.12700000000E+01 0. -1.
          4   -1    0    0  501    0  0.00000000000E+00 -0.00000000000E+00 -0.47083662706E+02  0.47100787613E+02  0.12700000000E+01 0. -1.
         25    2    1    2    0    0  0.00000000000E+00  0.00000000000E+00  0.35889365138E+02  0.13008353431E+03  0.12503471266E+03 0.  0.
    9000005    1    3    3    0    0  0.51709063700E+02  0.14166101987E+02 -0.15492050368E+02  0.55816747834E+02  0.10000000000E+01 0.  0.
    9000005    1    3    3    0    0 -0.51709063700E+02 -0.14166101987E+02  0.51381415507E+02  0.74266786477E+02  0.10000000000E+01 0.  0.
<mgrwt>
<rscale>  0 0.12503471E+03</rscale>
<asrwt>0</asrwt>
<pdfrwt beam="2">  1        4 0.72457054E-02 0.12503471E+03</pdfrwt>
<pdfrwt beam="1">  1       -4 0.12767146E-01 0.12503471E+03</pdfrwt>
<totfact> 0.10334621E+04</totfact>
</mgrwt>
</event>
<event>
 5    1  0.3284464E-002  0.1249985E+03  0.7818608E-02  0.1235072E+00
          4   -1    0    0  501    0  0.00000000000E+00  0.00000000000E+00  0.62685929289E+01  0.63959485073E+01  0.12700000000E+01 0. -1.
         -4   -1    0    0    0  501 -0.00000000000E+00 -0.00000000000E+00 -0.61673701755E+03  0.61673832516E+03  0.12700000000E+01 0. -1.
         25    2    1    2    0    0  0.00000000000E+00  0.00000000000E+00 -0.61046842462E+03  0.62313427366E+03  0.12499850221E+03 0.  0.
    9000005    1    3    3    0    0 -0.35462650307E+02  0.25666635323E+02 -0.52754998364E+03  0.52936411002E+03  0.10000000000E+01 0.  0.
    9000005    1    3    3    0    0  0.35462650307E+02 -0.25666635323E+02 -0.82918440982E+02  0.93770163648E+02  0.10000000000E+01 0.  0.
<mgrwt>
<rscale>  0 0.12499850E+03</rscale>
<asrwt>0</asrwt>
<pdfrwt beam="1">  1        4 0.97429656E-03 0.12499850E+03</pdfrwt>
<pdfrwt beam="2">  1       -4 0.94892468E-01 0.12499850E+03</pdfrwt>
<totfact> 0.47440704E+03</totfact>
</mgrwt>
</event>
<event>
 5    1  0.3284464E-002  0.1250003E+03  0.7818608E-02  0.1235069E+00
         -4   -1    0    0    0  501 -0.00000000000E+00  0.00000000000E+00  0.62875937168E+01  0.64145720627E+01  0.12700000000E+01 0.  1.
          4   -1    0    0  501    0  0.00000000000E+00 -0.00000000000E+00 -0.61492808460E+03  0.61492939605E+03  0.12700000000E+01 0.  1.
         25    2    1    2    0    0  0.00000000000E+00  0.00000000000E+00 -0.60864049088E+03  0.62134396811E+03  0.12500031828E+03 0.  0.
    9000005    1    3    3    0    0 -0.57099487247E+02 -0.19515811426E+02 -0.22354740953E+03  0.23155056175E+03  0.10000000000E+01 0.  0.
    9000005    1    3    3    0    0  0.57099487247E+02  0.19515811426E+02 -0.38509308134E+03  0.38979340636E+03  0.10000000000E+01 0.  0.
<mgrwt>
<rscale>  0 0.12500032E+03</rscale>
<asrwt>0</asrwt>
<pdfrwt beam="2">  1        4 0.94614143E-01 0.12500032E+03</pdfrwt>
<pdfrwt beam="1">  1       -4 0.97719104E-03 0.12500032E+03</pdfrwt>
<totfact> 0.47547137E+03</totfact>
</mgrwt>
</event>
<event>
 5    1  0.3284464E-002  0.1249991E+03  0.7818608E-02  0.1235071E+00
          4   -1    0    0  501    0  0.00000000000E+00  0.00000000000E+00  0.23075331968E+03  0.23075681451E+03  0.12700000000E+01 0.  1.
         -4   -1    0    0    0  501 -0.00000000000E+00 -0.00000000000E+00 -0.16900555689E+02  0.16948205881E+02  0.12700000000E+01 0.  1.
         25    2    1    2    0    0  0.00000000000E+00  0.00000000000E+00  0.21385276399E+03  0.24770502039E+03  0.12499908984E+03 0.  0.
    9000005    1    3    3    0    0  0.84730064698E+01  0.21253197342E+02 -0.83116098662E+01  0.24363355567E+02  0.10000000000E+01 0.  0.
    9000005    1    3    3    0    0 -0.84730064698E+01 -0.21253197342E+02  0.22216437386E+03  0.22334166483E+03  0.10000000000E+01 0.  0.
<mgrwt>
<rscale>  0 0.12499909E+03</rscale>
<asrwt>0</asrwt>
<pdfrwt beam="1">  1        4 0.35504445E-01 0.12499909E+03</pdfrwt>
<pdfrwt beam="2">  1       -4 0.26040197E-02 0.12499909E+03</pdfrwt>
<totfact> 0.82664735E+03</totfact>
</mgrwt>
</event>
<event>
 5    1  0.3284464E-002  0.1250006E+03  0.7818608E-02  0.1235068E+00
          4   -1    0    0  501    0  0.00000000000E+00  0.00000000000E+00  0.66862434296E+03  0.66862554909E+03  0.12700000000E+01 0.  1.
         -4   -1    0    0    0  501 -0.00000000000E+00 -0.00000000000E+00 -0.57720300280E+01  0.59100956544E+01  0.12700000000E+01 0.  1.
         25    2    1    2    0    0  0.00000000000E+00  0.00000000000E+00  0.66285231293E+03  0.67453564474E+03  0.12500058910E+03 0.  0.
    9000005    1    3    3    0    0  0.11928495474E+02  0.93893322658E+01  0.65854981806E+03  0.65872552056E+03  0.10000000000E+01 0.  0.
    9000005    1    3    3    0    0 -0.11928495474E+02 -0.93893322658E+01  0.43024948661E+01  0.15810124185E+02  0.10000000000E+01 0.  0.
<mgrwt>
<rscale>  0 0.12500059E+03</rscale>
<asrwt>0</asrwt>
<pdfrwt beam="1">  1        4 0.10287600E+00 0.12500059E+03</pdfrwt>
<pdfrwt beam="2">  1       -4 0.89871778E-03 0.12500059E+03</pdfrwt>
<totfact> 0.44464866E+03</totfact>
</mgrwt>
</event>
<event>
 5    1  0.3284464E-002  0.1249970E+03  0.7818608E-02  0.1235074E+00
         -4   -1    0    0    0  501 -0.00000000000E+00  0.00000000000E+00  0.15209192196E+01  0.19814376782E+01  0.12700000000E+01 0. -1.
          4   -1    0    0  501    0  0.00000000000E+00 -0.00000000000E+00 -0.22300721670E+04  0.22300725286E+04  0.12700000000E+01 0. -1.
         25    2    1    2    0    0  0.00000000000E+00  0.00000000000E+00 -0.22285512477E+04  0.22320539663E+04  0.12499697799E+03 0.  0.
    9000005    1    3    3    0    0 -0.36068314496E+02 -0.88615182703E+00 -0.20253874209E+04  0.20257089903E+04  0.10000000000E+01 0.  0.
    9000005    1    3    3    0    0  0.36068314496E+02  0.88615182703E+00 -0.20316382684E+03  0.20634497598E+03  0.10000000000E+01 0.  0.
<mgrwt>
<rscale>  0 0.12499698E+03</rscale>
<asrwt>0</asrwt>
<pdfrwt beam="2">  1        4 0.34312120E+00 0.12499698E+03</pdfrwt>
<pdfrwt beam="1">  1       -4 0.26944167E-03 0.12499698E+03</pdfrwt>
<totfact> 0.71289576E+02</totfact>
</mgrwt>
</event>
<event>
 5    1  0.3284464E-002  0.1249982E+03  0.7818608E-02  0.1235072E+00
         -4   -1    0    0    0  501 -0.00000000000E+00  0.00000000000E+00  0.37836441005E+02  0.37857749113E+02  0.12700000000E+01 0.  1.
          4   -1    0    0  501    0  0.00000000000E+00 -0.00000000000E+00 -0.10318321835E+03  0.10319103376E+03  0.12700000000E+01 0.  1.
         25    2    1    2    0    0  0.00000000000E+00  0.00000000000E+00 -0.65346777346E+02  0.14104878288E+03  0.12499823135E+03 0.  0.
    9000005    1    3    3    0    0 -0.29926672626E+02  0.51932095112E+02 -0.12722884982E+02  0.61281482027E+02  0.10000000000E+01 0.  0.
    9000005    1    3    3    0    0  0.29926672626E+02 -0.51932095112E+02 -0.52623892364E+02  0.79767300849E+02  0.10000000000E+01 0.  0.
<mgrwt>
<rscale>  0 0.12499823E+03</rscale>
<asrwt>0</asrwt>
<pdfrwt beam="2">  1        4 0.15876581E-01 0.12499823E+03</pdfrwt>
<pdfrwt beam="1">  1       -4 0.58232312E-02 0.12499823E+03</pdfrwt>
<totfact> 0.10112298E+04</totfact>
</mgrwt>
</event>
<event>
 5    1  0.3284464E-002  0.1250017E+03  0.7818608E-02  0.1235067E+00
          4   -1    0    0  501    0  0.00000000000E+00  0.00000000000E+00  0.16421606168E+03  0.16422097251E+03  0.12700000000E+01 0.  1.
         -4   -1    0    0    0  501 -0.00000000000E+00 -0.00000000000E+00 -0.23765684249E+02  0.23799593438E+02  0.12700000000E+01 0.  1.
         25    2    1    2    0    0  0.00000000000E+00  0.00000000000E+00  0.14045037743E+03  0.18802056595E+03  0.12500169879E+03 0.  0.
    9000005    1    3    3    0    0 -0.43724879728E+02 -0.21761749548E+02  0.12886592614E+03  0.13781460652E+03  0.10000000000E+01 0.  0.
    9000005    1    3    3    0    0  0.43724879728E+02  0.21761749548E+02  0.11584451290E+02  0.50205959430E+02  0.10000000000E+01 0.  0.
<mgrwt>
<rscale>  0 0.12500170E+03</rscale>
<asrwt>0</asrwt>
<pdfrwt beam="1">  1        4 0.25266997E-01 0.12500170E+03</pdfrwt>
<pdfrwt beam="2">  1       -4 0.36592451E-02 0.12500170E+03</pdfrwt>
<totfact> 0.92189364E+03</totfact>
</mgrwt>
</event>
<event>
 5    1  0.3284464E-002  0.1249956E+03  0.7818608E-02  0.1235076E+00
          4   -1    0    0  501    0  0.00000000000E+00  0.00000000000E+00  0.19607072390E+02  0.19648159907E+02  0.12700000000E+01 0. -1.
         -4   -1    0    0    0  501 -0.00000000000E+00 -0.00000000000E+00 -0.19896080834E+03  0.19896486161E+03  0.12700000000E+01 0. -1.
         25    2    1    2    0    0  0.00000000000E+00  0.00000000000E+00 -0.17935373595E+03  0.21861302152E+03  0.12499556223E+03 0.  0.
    9000005    1    3    3    0    0 -0.47954732846E+02  0.39429903572E+02 -0.77235957385E+02  0.99099782095E+02  0.10000000000E+01 0.  0.
    9000005    1    3    3    0    0  0.47954732846E+02 -0.39429903572E+02 -0.10211777856E+03  0.11951323942E+03  0.10000000000E+01 0.  0.
<mgrwt>
<rscale>  0 0.12499556E+03</rscale>
<asrwt>0</asrwt>
<pdfrwt beam="1">  1        4 0.30199452E-02 0.12499556E+03</pdfrwt>
<pdfrwt beam="2">  1       -4 0.30612826E-01 0.12499556E+03</pdfrwt>
<totfact> 0.87096932E+03</totfact>
</mgrwt>
</event>
<event>
 5    1  0.3284464E-002  0.1250032E+03  0.7818608E-02  0.1235064E+00
          4   -1    0    0  501    0  0.00000000000E+00  0.00000000000E+00  0.56594518635E+02  0.56608766455E+02  0.12700000000E+01 0. -1.
         -4   -1    0    0    0  501 -0.00000000000E+00 -0.00000000000E+00 -0.68996490669E+02  0.69008177955E+02  0.12700000000E+01 0. -1.
         25    2    1    2    0    0  0.00000000000E+00  0.00000000000E+00 -0.12401972034E+02  0.12561694441E+03  0.12500323121E+03 0.  0.
    9000005    1    3    3    0    0  0.11179247183E+02 -0.37411378216E+02 -0.55234654488E+02  0.67649492562E+02  0.10000000000E+01 0.  0.
    9000005    1    3    3    0    0 -0.11179247183E+02  0.37411378216E+02  0.42832682454E+02  0.57967451848E+02  0.10000000000E+01 0.  0.
<mgrwt>
<rscale>  0 0.12500323E+03</rscale>
<asrwt>0</asrwt>
<pdfrwt beam="1">  1        4 0.87088440E-02 0.12500323E+03</pdfrwt>
<pdfrwt beam="2">  1       -4 0.10616840E-01 0.12500323E+03</pdfrwt>
<totfact> 0.10438613E+04</totfact>
</mgrwt>
</event>
<event>
 5    1  0.3284464E-002  0.1250027E+03  0.7818608E-02  0.1235065E+00
          4   -1    0    0  501    0  0.00000000000E+00  0.00000000000E+00  0.48132136520E+02  0.48148888523E+02  0.12700000000E+01 0.  1.
         -4   -1    0    0    0  501 -0.00000000000E+00 -0.00000000000E+00 -0.81124398749E+02  0.81134339045E+02  0.12700000000E+01 0.  1.
         25    2    1    2    0    0  0.00000000000E+00  0.00000000000E+00 -0.32992262229E+02  0.12928322757E+03  0.12500265423E+03 0.  0.
    9000005    1    3    3    0    0  0.21310200011E+02 -0.58554674419E+02 -0.21417368364E+02  0.65897482413E+02  0.10000000000E+01 0.  0.
    9000005    1    3    3    0    0 -0.21310200011E+02  0.58554674419E+02 -0.11574893865E+02  0.63385745155E+02  0.10000000000E+01 0.  0.
<mgrwt>
<rscale>  0 0.12500265E+03</rscale>
<asrwt>0</asrwt>
<pdfrwt beam="1">  1        4 0.74069973E-02 0.12500265E+03</pdfrwt>
<pdfrwt beam="2">  1       -4 0.12482730E-01 0.12500265E+03</pdfrwt>
<totfact> 0.10359244E+04</totfact>
</mgrwt>
</event>
<event>
 5    1  0.3284464E-002  0.1250089E+03  0.7818608E-02  0.1235055E+00
         -4   -1    0    0    0  501 -0.00000000000E+00  0.00000000000E+00  0.15590919104E+02  0.15642559206E+02  0.12700000000E+01 0. -1.
          4   -1    0    0  501    0  0.00000000000E+00 -0.00000000000E+00 -0.25011444618E+03  0.25011767049E+03  0.12700000000E+01 0. -1.
         25    2    1    2    0    0  0.00000000000E+00  0.00000000000E+00 -0.23452352708E+03  0.26576022969E+03  0.12500885942E+03 0.  0.
    9000005    1    3    3    0    0 -0.59843909542E+02 -0.12432039294E+02 -0.89546712113E+02  0.10842261185E+03  0.10000000000E+01 0.  0.
    9000005    1    3    3    0    0  0.59843909542E+02  0.12432039294E+02 -0.14497681497E+03  0.15733761784E+03  0.10000000000E+01 0.  0.
<mgrwt>
<rscale>  0 0.12500886E+03</rscale>
<asrwt>0</asrwt>
<pdfrwt beam="2">  1        4 0.38483363E-01 0.12500886E+03</pdfrwt>
<pdfrwt beam="1">  1       -4 0.24028235E-02 0.12500886E+03</pdfrwt>
<totfact> 0.80088642E+03</totfact>
</mgrwt>
</event>
<event>
 5    1  0.3284464E-002  0.1250011E+03  0.7818608E-02  0.1235068E+00
          4   -1    0    0  501    0  0.00000000000E+00  0.00000000000E+00  0.17737019434E+02  0.17782428360E+02  0.12700000000E+01 0.  1.
         -4   -1    0    0    0  501 -0.00000000000E+00 -0.00000000000E+00 -0.21990646961E+03  0.21991013682E+03  0.12700000000E+01 0.  1.
         25    2    1    2    0    0  0.00000000000E+00  0.00000000000E+00 -0.20216945018E+03  0.23769256518E+03  0.12500107583E+03 0.  0.
    9000005    1    3    3    0    0  0.38267548679E+01 -0.45169592881E+02 -0.18288079448E+03  0.18841794278E+03  0.10000000000E+01 0.  0.
    9000005    1    3    3    0    0 -0.38267548679E+01  0.45169592881E+02 -0.19288655701E+02  0.49274622400E+02  0.10000000000E+01 0.  0.
<mgrwt>
<rscale>  0 0.12500108E+03</rscale>
<asrwt>0</asrwt>
<pdfrwt beam="1">  1        4 0.27325475E-02 0.12500108E+03</pdfrwt>
<pdfrwt beam="2">  1       -4 0.33835538E-01 0.12500108E+03</pdfrwt>
<totfact> 0.84140206E+03</totfact>
</mgrwt>
</event>
<event>
 5    1  0.3284464E-002  0.1249941E+03  0.7818608E-02  0.1235079E+00
          4   -1    0    0  501    0  0.00000000000E+00  0.00000000000E+00  0.74205437086E+01  0.75284373499E+01  0.12700000000E+01 0.  1.
         -4   -1    0    0    0  501 -0.00000000000E+00 -0.00000000000E+00 -0.52245268215E+03  0.52245422573E+03  0.12700000000E+01 0.  1.
         25    2    1    2    0    0  0.00000000000E+00  0.00000000000E+00 -0.51503213844E+03  0.52998266308E+03  0.12499407802E+03 0.  0.
    9000005    1    3    3    0    0  0.14321065867E+02  0.12309732678E+02 -0.49472193410E+01  0.19547312485E+02  0.10000000000E+01 0.  0.
    9000005    1    3    3    0    0 -0.14321065867E+02 -0.12309732678E+02 -0.51008491910E+03  0.51043535059E+03  0.10000000000E+01 0.  0.
<mgrwt>
<rscale>  0 0.12499408E+03</rscale>
<asrwt>0</asrwt>
<pdfrwt beam="1">  1        4 0.11500408E-02 0.12499408E+03</pdfrwt>
<pdfrwt beam="2">  1       -4 0.80385725E-01 0.12499408E+03</pdfrwt>
<totfact> 0.53617866E+03</totfact>
</mgrwt>
</event>
<event>
 5    1  0.3284464E-002  0.1250023E+03  0.7818608E-02  0.1235066E+00
          4   -1    0    0  501    0  0.00000000000E+00  0.00000000000E+00  0.51112015497E+03  0.51112173278E+03  0.12700000000E+01 0. -1.
         -4   -1    0    0    0  501 -0.00000000000E+00 -0.00000000000E+00 -0.75884460072E+01  0.76939854954E+01  0.12700000000E+01 0. -1.
         25    2    1    2    0    0  0.00000000000E+00  0.00000000000E+00  0.50353170896E+03  0.51881571827E+03  0.12500227036E+03 0.  0.
    9000005    1    3    3    0    0  0.31835382219E+02  0.30494620349E+02  0.67924867647E+02  0.80982720849E+02  0.10000000000E+01 0.  0.
    9000005    1    3    3    0    0 -0.31835382219E+02 -0.30494620349E+02  0.43560684132E+03  0.43783299743E+03  0.10000000000E+01 0.  0.
<mgrwt>
<rscale>  0 0.12500227E+03</rscale>
<asrwt>0</asrwt>
<pdfrwt beam="1">  1        4 0.78642109E-01 0.12500227E+03</pdfrwt>
<pdfrwt beam="2">  1       -4 0.11756930E-02 0.12500227E+03</pdfrwt>
<totfact> 0.54430774E+03</totfact>
</mgrwt>
</event>
<event>
 5    1  0.3284464E-002  0.1249990E+03  0.7818608E-02  0.1235071E+00
          4   -1    0    0  501    0  0.00000000000E+00  0.00000000000E+00  0.29163981995E+01  0.31809241516E+01  0.12700000000E+01 0.  1.
         -4   -1    0    0    0  501 -0.00000000000E+00 -0.00000000000E+00 -0.12810145810E+04  0.12810152106E+04  0.12700000000E+01 0.  1.
         25    2    1    2    0    0  0.00000000000E+00  0.00000000000E+00 -0.12780981828E+04  0.12841961347E+04  0.12499898991E+03 0.  0.
    9000005    1    3    3    0    0 -0.14024164070E+02 -0.57576149681E+02 -0.43525321563E+03  0.43926990781E+03  0.10000000000E+01 0.  0.
    9000005    1    3    3    0    0  0.14024164070E+02  0.57576149681E+02 -0.84284496721E+03  0.84492622692E+03  0.10000000000E+01 0.  0.
<mgrwt>
<rscale>  0 0.12499899E+03</rscale>
<asrwt>0</asrwt>
<pdfrwt beam="1">  1        4 0.46907425E-03 0.12499899E+03</pdfrwt>
<pdfrwt beam="2">  1       -4 0.19709913E+00 0.12499899E+03</pdfrwt>
<totfact> 0.22605180E+03</totfact>
</mgrwt>
</event>
<event>
 5    1  0.3284464E-002  0.1250008E+03  0.7818608E-02  0.1235068E+00
         -4   -1    0    0    0  501 -0.00000000000E+00  0.00000000000E+00  0.10899420121E+04  0.10899427520E+04  0.12700000000E+01 0.  1.
          4   -1    0    0  501    0  0.00000000000E+00 -0.00000000000E+00 -0.34706792832E+01  0.36957427788E+01  0.12700000000E+01 0.  1.
         25    2    1    2    0    0  0.00000000000E+00  0.00000000000E+00  0.10864713328E+04  0.10936384947E+04  0.12500080093E+03 0.  0.
    9000005    1    3    3    0    0  0.37590484579E+02 -0.43393033950E+02  0.75919731233E+03  0.76136558825E+03  0.10000000000E+01 0.  0.
    9000005    1    3    3    0    0 -0.37590484579E+02  0.43393033950E+02  0.32727402045E+03  0.33227290649E+03  0.10000000000E+01 0.  0.
<mgrwt>
<rscale>  0 0.12500080E+03</rscale>
<asrwt>0</asrwt>
<pdfrwt beam="2">  1        4 0.55131982E-03 0.12500080E+03</pdfrwt>
<pdfrwt beam="1">  1       -4 0.16770086E+00 0.12500080E+03</pdfrwt>
<totfact> 0.27669815E+03</totfact>
</mgrwt>
</event>
<event>
 5    1  0.3284464E-002  0.1250021E+03  0.7818608E-02  0.1235066E+00
          4   -1    0    0  501    0  0.00000000000E+00  0.00000000000E+00  0.16296034910E+02  0.16345447495E+02  0.12700000000E+01 0. -1.
         -4   -1    0    0    0  501 -0.00000000000E+00 -0.00000000000E+00 -0.23929966166E+03  0.23930303167E+03  0.12700000000E+01 0. -1.
         25    2    1    2    0    0  0.00000000000E+00  0.00000000000E+00 -0.22300362675E+03  0.25564847917E+03  0.12500210942E+03 0.  0.
    9000005    1    3    3    0    0  0.51557928372E+02  0.35209657840E+02 -0.10592268285E+03  0.12295753220E+03  0.10000000000E+01 0.  0.
    9000005    1    3    3    0    0 -0.51557928372E+02 -0.35209657840E+02 -0.11708094390E+03  0.13269094697E+03  0.10000000000E+01 0.  0.
<mgrwt>
<rscale>  0 0.12500211E+03</rscale>
<asrwt>0</asrwt>
<pdfrwt beam="1">  1        4 0.25111427E-02 0.12500211E+03</pdfrwt>
<pdfrwt beam="2">  1       -4 0.36819390E-01 0.12500211E+03</pdfrwt>
<totfact> 0.81516812E+03</totfact>
</mgrwt>
</event>
<event>
 5    1  0.3284464E-002  0.1250024E+03  0.7818608E-02  0.1235065E+00
          4   -1    0    0  501    0  0.00000000000E+00  0.00000000000E+00  0.25916478015E+01  0.28860939567E+01  0.12700000000E+01 0.  1.
         -4   -1    0    0    0  501 -0.00000000000E+00 -0.00000000000E+00 -0.14259872068E+04  0.14259877724E+04  0.12700000000E+01 0.  1.
         25    2    1    2    0    0  0.00000000000E+00  0.00000000000E+00 -0.14233955590E+04  0.14288738663E+04  0.12500243359E+03 0.  0.
    9000005    1    3    3    0    0  0.13499271043E+02 -0.30935958348E+02 -0.11050692245E+03  0.11555104390E+03  0.10000000000E+01 0.  0.
    9000005    1    3    3    0    0 -0.13499271043E+02  0.30935958348E+02 -0.13128886366E+04  0.13133228224E+04  0.10000000000E+01 0.  0.
<mgrwt>
<rscale>  0 0.12500243E+03</rscale>
<asrwt>0</asrwt>
<pdfrwt beam="1">  1        4 0.42140939E-03 0.12500243E+03</pdfrwt>
<pdfrwt beam="2">  1       -4 0.21940475E+00 0.12500243E+03</pdfrwt>
<totfact> 0.19368713E+03</totfact>
</mgrwt>
</event>
<event>
 5    1  0.3284464E-002  0.1249992E+03  0.7818608E-02  0.1235070E+00
         -4   -1    0    0    0  501 -0.00000000000E+00  0.00000000000E+00  0.12108938127E+03  0.12109604104E+03  0.12700000000E+01 0.  1.
          4   -1    0    0  501    0  0.00000000000E+00 -0.00000000000E+00 -0.32238778744E+02  0.32263783952E+02  0.12700000000E+01 0.  1.
         25    2    1    2    0    0  0.00000000000E+00  0.00000000000E+00  0.88850602526E+02  0.15335982500E+03  0.12499922541E+03 0.  0.
    9000005    1    3    3    0    0  0.19476958856E+02 -0.58150368647E+02  0.59167567522E+02  0.85220997099E+02  0.10000000000E+01 0.  0.
    9000005    1    3    3    0    0 -0.19476958856E+02  0.58150368647E+02  0.29683035004E+02  0.68138827897E+02  0.10000000000E+01 0.  0.
<mgrwt>
<rscale>  0 0.12499923E+03</rscale>
<asrwt>0</asrwt>
<pdfrwt beam="2">  1        4 0.49622480E-02 0.12499923E+03</pdfrwt>
<pdfrwt beam="1">  1       -4 0.18631571E-01 0.12499923E+03</pdfrwt>
<totfact> 0.98639853E+03</totfact>
</mgrwt>
</event>
<event>
 5    1  0.3284464E-002  0.1249974E+03  0.7818608E-02  0.1235073E+00
          4   -1    0    0  501    0  0.00000000000E+00  0.00000000000E+00  0.51932677840E+03  0.51932833127E+03  0.12700000000E+01 0. -1.
         -4   -1    0    0    0  501 -0.00000000000E+00 -0.00000000000E+00 -0.74662600987E+01  0.75735024831E+01  0.12700000000E+01 0. -1.
         25    2    1    2    0    0  0.00000000000E+00  0.00000000000E+00  0.51186051830E+03  0.52690183376E+03  0.12499740885E+03 0.  0.
    9000005    1    3    3    0    0 -0.26205602049E+02  0.34915970310E+02  0.67452536888E+02  0.80353614070E+02  0.10000000000E+01 0.  0.
    9000005    1    3    3    0    0  0.26205602049E+02 -0.34915970310E+02  0.44440798141E+03  0.44654821969E+03  0.10000000000E+01 0.  0.
<mgrwt>
<rscale>  0 0.12499741E+03</rscale>
<asrwt>0</asrwt>
<pdfrwt beam="1">  1        4 0.79904808E-01 0.12499741E+03</pdfrwt>
<pdfrwt beam="2">  1       -4 0.11570241E-02 0.12499741E+03</pdfrwt>
<totfact> 0.53838960E+03</totfact>
</mgrwt>
</event>
<event>
 5    1  0.3284464E-002  0.1249915E+03  0.7818608E-02  0.1235083E+00
          4   -1    0    0  501    0  0.00000000000E+00  0.00000000000E+00  0.70601181346E+02  0.70612603035E+02  0.12700000000E+01 0.  1.
         -4   -1    0    0    0  501 -0.00000000000E+00 -0.00000000000E+00 -0.55297655296E+02  0.55312237174E+02  0.12700000000E+01 0.  1.
         25    2    1    2    0    0  0.00000000000E+00  0.00000000000E+00  0.15303526049E+02  0.12592484021E+03  0.12499146960E+03 0.  0.
    9000005    1    3    3    0    0  0.29973431320E+02 -0.24726296910E+02 -0.41651604896E+02  0.56970628699E+02  0.10000000000E+01 0.  0.
    9000005    1    3    3    0    0 -0.29973431320E+02  0.24726296910E+02  0.56955130946E+02  0.68954211510E+02  0.10000000000E+01 0.  0.
<mgrwt>
<rscale>  0 0.12499147E+03</rscale>
<asrwt>0</asrwt>
<pdfrwt beam="1">  1        4 0.10863721E-01 0.12499147E+03</pdfrwt>
<pdfrwt beam="2">  1       -4 0.85093318E-02 0.12499147E+03</pdfrwt>
<totfact> 0.10434613E+04</totfact>
</mgrwt>
</event>
<event>
 5    1  0.3284464E-002  0.1249987E+03  0.7818608E-02  0.1235071E+00
          4   -1    0    0  501    0  0.00000000000E+00  0.00000000000E+00  0.56551706245E+03  0.56551848849E+03  0.12700000000E+01 0. -1.
         -4   -1    0    0    0  501 -0.00000000000E+00 -0.00000000000E+00 -0.68474297642E+01  0.69642080939E+01  0.12700000000E+01 0. -1.
         25    2    1    2    0    0  0.00000000000E+00  0.00000000000E+00  0.55866963268E+03  0.57248269658E+03  0.12499871760E+03 0.  0.
    9000005    1    3    3    0    0  0.51257683871E+02 -0.27517013658E+02  0.17483321973E+03  0.18426120296E+03  0.10000000000E+01 0.  0.
    9000005    1    3    3    0    0 -0.51257683871E+02  0.27517013658E+02  0.38383641296E+03  0.38822149362E+03  0.10000000000E+01 0.  0.
<mgrwt>
<rscale>  0 0.12499872E+03</rscale>
<asrwt>0</asrwt>
<pdfrwt beam="1">  1        4 0.87011738E-01 0.12499872E+03</pdfrwt>
<pdfrwt beam="2">  1       -4 0.10625431E-02 0.12499872E+03</pdfrwt>
<totfact> 0.50653379E+03</totfact>
</mgrwt>
</event>
<event>
 5    1  0.3284464E-002  0.1250012E+03  0.7818608E-02  0.1235067E+00
          4   -1    0    0  501    0  0.00000000000E+00  0.00000000000E+00  0.35887811242E+02  0.35910275629E+02  0.12700000000E+01 0. -1.
         -4   -1    0    0    0  501 -0.00000000000E+00 -0.00000000000E+00 -0.10878798393E+03  0.10879539672E+03  0.12700000000E+01 0. -1.
         25    2    1    2    0    0  0.00000000000E+00  0.00000000000E+00 -0.72900172690E+02  0.14470567235E+03  0.12500118572E+03 0.  0.
    9000005    1    3    3    0    0  0.15980873362E+02 -0.51513508380E+02  0.89635294753E-01  0.53944767063E+02  0.10000000000E+01 0.  0.
    9000005    1    3    3    0    0 -0.15980873362E+02  0.51513508380E+02 -0.72989807985E+02  0.90760905288E+02  0.10000000000E+01 0.  0.
<mgrwt>
<rscale>  0 0.12500119E+03</rscale>
<asrwt>0</asrwt>
<pdfrwt beam="1">  1        4 0.55235000E-02 0.12500119E+03</pdfrwt>
<pdfrwt beam="2">  1       -4 0.16738911E-01 0.12500119E+03</pdfrwt>
<totfact> 0.10036704E+04</totfact>
</mgrwt>
</event>
<event>
 5    1  0.3284464E-002  0.1250026E+03  0.7818608E-02  0.1235065E+00
         -4   -1    0    0    0  501 -0.00000000000E+00  0.00000000000E+00  0.40783959913E+02  0.40803728827E+02  0.12700000000E+01 0. -1.
          4   -1    0    0  501    0  0.00000000000E+00 -0.00000000000E+00 -0.95735883219E+02  0.95744306545E+02  0.12700000000E+01 0. -1.
         25    2    1    2    0    0  0.00000000000E+00  0.00000000000E+00 -0.54951923306E+02  0.13654803537E+03  0.12500260833E+03 0.  0.
    9000005    1    3    3    0    0 -0.24874715157E+02  0.55559548107E+02 -0.12035433659E+02  0.62060184526E+02  0.10000000000E+01 0.  0.
    9000005    1    3    3    0    0  0.24874715157E+02 -0.55559548107E+02 -0.42916489648E+02  0.74487850846E+02  0.10000000000E+01 0.  0.
<mgrwt>
<rscale>  0 0.12500261E+03</rscale>
<asrwt>0</asrwt>
<pdfrwt beam="2">  1        4 0.14730766E-01 0.12500261E+03</pdfrwt>
<pdfrwt beam="1">  1       -4 0.62766240E-02 0.12500261E+03</pdfrwt>
<totfact> 0.10204944E+04</totfact>
</mgrwt>
</event>
<event>
 5    1  0.3284464E-002  0.1249988E+03  0.7818608E-02  0.1235071E+00
         -4   -1    0    0    0  501 -0.00000000000E+00  0.00000000000E+00  0.12441560550E+02  0.12506211613E+02  0.12700000000E+01 0.  1.
          4   -1    0    0  501    0  0.00000000000E+00 -0.00000000000E+00 -0.31308227746E+03  0.31308485329E+03  0.12700000000E+01 0.  1.
         25    2    1    2    0    0  0.00000000000E+00  0.00000000000E+00 -0.30064071691E+03  0.32559106490E+03  0.12499880352E+03 0.  0.
    9000005    1    3    3    0    0 -0.22939366573E+02 -0.26174026275E+02 -0.15126853275E+02  0.37962032088E+02  0.10000000000E+01 0.  0.
    9000005    1    3    3    0    0  0.22939366573E+02  0.26174026275E+02 -0.28551386363E+03  0.28762903281E+03  0.10000000000E+01 0.  0.
<mgrwt>
<rscale>  0 0.12499880E+03</rscale>
<asrwt>0</asrwt>
<pdfrwt beam="2">  1        4 0.48171670E-01 0.12499880E+03</pdfrwt>
<pdfrwt beam="1">  1       -4 0.19192578E-02 0.12499880E+03</pdfrwt>
<totfact> 0.72497965E+03</totfact>
</mgrwt>
</event>
<event>
 5    1  0.3284464E-002  0.1249980E+03  0.7818608E-02  0.1235072E+00
         -4   -1    0    0    0  501 -0.00000000000E+00  0.00000000000E+00  0.60447023378E+01  0.61766759954E+01  0.12700000000E+01 0. -1.
          4   -1    0    0  501    0  0.00000000000E+00 -0.00000000000E+00 -0.63909521066E+03  0.63909647252E+03  0.12700000000E+01 0. -1.
         25    2    1    2    0    0  0.00000000000E+00  0.00000000000E+00 -0.63305050832E+03  0.64527314851E+03  0.12499796042E+03 0.  0.
    9000005    1    3    3    0    0  0.12442857024E+02  0.29201229212E+02 -0.59440624427E+03  0.59525399596E+03  0.10000000000E+01 0.  0.
    9000005    1    3    3    0    0 -0.12442857024E+02 -0.29201229212E+02 -0.38644264053E+02  0.50019152558E+02  0.10000000000E+01 0.  0.
<mgrwt>
<rscale>  0 0.12499796E+03</rscale>
<asrwt>0</asrwt>
<pdfrwt beam="2">  1        4 0.98332536E-01 0.12499796E+03</pdfrwt>
<pdfrwt beam="1">  1       -4 0.94020360E-03 0.12499796E+03</pdfrwt>
<totfact> 0.46131063E+03</totfact>
</mgrwt>
</event>
<event>
 5    1  0.3284464E-002  0.1249992E+03  0.7818608E-02  0.1235071E+00
          4   -1    0    0  501    0  0.00000000000E+00  0.00000000000E+00  0.23255376532E+02  0.23290028717E+02  0.12700000000E+01 0.  1.
         -4   -1    0    0    0  501 -0.00000000000E+00 -0.00000000000E+00 -0.16780760487E+03  0.16781241060E+03  0.12700000000E+01 0.  1.
         25    2    1    2    0    0  0.00000000000E+00  0.00000000000E+00 -0.14455222834E+03  0.19110243932E+03  0.12499918238E+03 0.  0.
    9000005    1    3    3    0    0  0.59756612199E+02 -0.18181099637E+02 -0.69298303661E+02  0.93298767279E+02  0.10000000000E+01 0.  0.
    9000005    1    3    3    0    0 -0.59756612199E+02  0.18181099637E+02 -0.75253924678E+02  0.97803672042E+02  0.10000000000E+01 0.  0.
<mgrwt>
<rscale>  0 0.12499918E+03</rscale>
<asrwt>0</asrwt>
<pdfrwt beam="1">  1        4 0.35807856E-02 0.12499918E+03</pdfrwt>
<pdfrwt beam="2">  1       -4 0.25819589E-01 0.12499918E+03</pdfrwt>
<totfact> 0.91657526E+03</totfact>
</mgrwt>
</event>
<event>
 5    1  0.3284464E-002  0.1250013E+03  0.7818608E-02  0.1235067E+00
         -4   -1    0    0    0  501 -0.00000000000E+00  0.00000000000E+00  0.31070405038E+02  0.31096349773E+02  0.12700000000E+01 0.  1.
          4   -1    0    0  501    0  0.00000000000E+00 -0.00000000000E+00 -0.12564353016E+03  0.12564994855E+03  0.12700000000E+01 0.  1.
         25    2    1    2    0    0  0.00000000000E+00  0.00000000000E+00 -0.94573125121E+02  0.15674629832E+03  0.12500130417E+03 0.  0.
    9000005    1    3    3    0    0 -0.25056605759E+02 -0.44940834492E+02 -0.91759098638E+02  0.10520572361E+03  0.10000000000E+01 0.  0.
    9000005    1    3    3    0    0  0.25056605759E+02  0.44940834492E+02 -0.28140264828E+01  0.51540574716E+02  0.10000000000E+01 0.  0.
<mgrwt>
<rscale>  0 0.12500130E+03</rscale>
<asrwt>0</asrwt>
<pdfrwt beam="2">  1        4 0.19332263E-01 0.12500130E+03</pdfrwt>
<pdfrwt beam="1">  1       -4 0.47825519E-02 0.12500130E+03</pdfrwt>
<totfact> 0.97970893E+03</totfact>
</mgrwt>
</event>
<event>
 5    1  0.3284464E-002  0.1250011E+03  0.7818608E-02  0.1235068E+00
         -4   -1    0    0    0  501 -0.00000000000E+00  0.00000000000E+00  0.85797865854E+02  0.85807264758E+02  0.12700000000E+01 0. -1.
          4   -1    0    0  501    0  0.00000000000E+00 -0.00000000000E+00 -0.45508568796E+02  0.45526286186E+02  0.12700000000E+01 0. -1.
         25    2    1    2    0    0  0.00000000000E+00  0.00000000000E+00  0.40289297058E+02  0.13133355094E+03  0.12500109658E+03 0.  0.
    9000005    1    3    3    0    0 -0.43221312174E+02  0.39542779283E+02  0.43009592869E+02  0.72681072490E+02  0.10000000000E+01 0.  0.
    9000005    1    3    3    0    0  0.43221312174E+02 -0.39542779283E+02 -0.27202958112E+01  0.58652478454E+02  0.10000000000E+01 0.  0.
<mgrwt>
<rscale>  0 0.12500110E+03</rscale>
<asrwt>0</asrwt>
<pdfrwt beam="2">  1        4 0.70034041E-02 0.12500110E+03</pdfrwt>
<pdfrwt beam="1">  1       -4 0.13201758E-01 0.12500110E+03</pdfrwt>
<totfact> 0.10315689E+04</totfact>
</mgrwt>
</event>
<event>
 5    1  0.3284464E-002  0.1249990E+03  0.7818608E-02  0.1235071E+00
          4   -1    0    0  501    0  0.00000000000E+00  0.00000000000E+00  0.62285054755E+01  0.63566642556E+01  0.12700000000E+01 0.  1.
         -4   -1    0    0    0  501 -0.00000000000E+00 -0.00000000000E+00 -0.62063171470E+03  0.62063301410E+03  0.12700000000E+01 0.  1.
         25    2    1    2    0    0  0.00000000000E+00  0.00000000000E+00 -0.61440320922E+03  0.62698967835E+03  0.12499901303E+03 0.  0.
    9000005    1    3    3    0    0  0.29151663189E+01  0.22221639261E+02 -0.59980387431E+03  0.60022328102E+03  0.10000000000E+01 0.  0.
    9000005    1    3    3    0    0 -0.29151663189E+01 -0.22221639261E+02 -0.14599334911E+02  0.26766397329E+02  0.10000000000E+01 0.  0.
<mgrwt>
<rscale>  0 0.12499901E+03</rscale>
<asrwt>0</asrwt>
<pdfrwt beam="1">  1        4 0.96819042E-03 0.12499901E+03</pdfrwt>
<pdfrwt beam="2">  1       -4 0.95491712E-01 0.12499901E+03</pdfrwt>
<totfact> 0.47208130E+03</totfact>
</mgrwt>
</event>
<event>
 5    1  0.3284464E-002  0.1250015E+03  0.7818608E-02  0.1235067E+00
          4   -1    0    0  501    0  0.00000000000E+00  0.00000000000E+00  0.43928021636E+01  0.45727027947E+01  0.12700000000E+01 0. -1.
         -4   -1    0    0    0  501 -0.00000000000E+00 -0.00000000000E+00 -0.87123604793E+03  0.87123697357E+03  0.12700000000E+01 0. -1.
         25    2    1    2    0    0  0.00000000000E+00  0.00000000000E+00 -0.86684324577E+03  0.87580967636E+03  0.12500150591E+03 0.  0.
    9000005    1    3    3    0    0 -0.49381931116E+02  0.14795117200E+02 -0.68092422901E+03  0.68287354339E+03  0.10000000000E+01 0.  0.
    9000005    1    3    3    0    0  0.49381931116E+02 -0.14795117200E+02 -0.18591901676E+03  0.19293613297E+03  0.10000000000E+01 0.  0.
<mgrwt>
<rscale>  0 0.12500151E+03</rscale>
<asrwt>0</asrwt>
<pdfrwt beam="1">  1        4 0.68972612E-03 0.12500151E+03</pdfrwt>
<pdfrwt beam="2">  1       -4 0.13405009E+00 0.12500151E+03</pdfrwt>
<totfact> 0.35092693E+03</totfact>
</mgrwt>
</event>
<event>
 5    1  0.3284464E-002  0.1250224E+03  0.7818608E-02  0.1235034E+00
         -4   -1    0    0    0  501 -0.00000000000E+00  0.00000000000E+00  0.18835233877E+03  0.18835662033E+03  0.12700000000E+01 0. -1.
          4   -1    0    0  501    0  0.00000000000E+00 -0.00000000000E+00 -0.20722523329E+02  0.20761403448E+02  0.12700000000E+01 0. -1.
         25    2    1    2    0    0  0.00000000000E+00  0.00000000000E+00  0.16762981544E+03  0.20911802378E+03  0.12502236937E+03 0.  0.
    9000005    1    3    3    0    0 -0.28566981526E+02  0.36657458096E+02  0.15372278994E+03  0.16059744025E+03  0.10000000000E+01 0.  0.
    9000005    1    3    3    0    0  0.28566981526E+02 -0.36657458096E+02  0.13907025505E+02  0.48520583528E+02  0.10000000000E+01 0.  0.
<mgrwt>
<rscale>  0 0.12502237E+03</rscale>
<asrwt>0</asrwt>
<pdfrwt beam="2">  1        4 0.31914006E-02 0.12502237E+03</pdfrwt>
<pdfrwt beam="1">  1       -4 0.28980603E-01 0.12502237E+03</pdfrwt>
<totfact> 0.88575813E+03</totfact>
</mgrwt>
</event>
<event>
 5    1  0.3284464E-002  0.1249996E+03  0.7818608E-02  0.1235070E+00
         -4   -1    0    0    0  501 -0.00000000000E+00  0.00000000000E+00  0.25862599271E+01  0.28812567415E+01  0.12700000000E+01 0. -1.
          4   -1    0    0  501    0  0.00000000000E+00 -0.00000000000E+00 -0.14285903526E+04  0.14285909171E+04  0.12700000000E+01 0. -1.
         25    2    1    2    0    0  0.00000000000E+00  0.00000000000E+00 -0.14260040926E+04  0.14314721738E+04  0.12499964873E+03 0.  0.
    9000005    1    3    3    0    0  0.57817445615E+02  0.22507111133E+02 -0.79854712272E+03  0.80095438963E+03  0.10000000000E+01 0.  0.
    9000005    1    3    3    0    0 -0.57817445615E+02 -0.22507111133E+02 -0.62745696992E+03  0.63051778418E+03  0.10000000000E+01 0.  0.
<mgrwt>
<rscale>  0 0.12499965E+03</rscale>
<asrwt>0</asrwt>
<pdfrwt beam="2">  1        4 0.21980527E+00 0.12499965E+03</pdfrwt>
<pdfrwt beam="1">  1       -4 0.42062277E-03 0.12499965E+03</pdfrwt>
<totfact> 0.19315692E+03</totfact>
</mgrwt>
</event>
<event>
 5    1  0.3284464E-002  0.1250013E+03  0.7818608E-02  0.1235067E+00
         -4   -1    0    0    0  501 -0.00000000000E+00  0.00000000000E+00  0.10849493773E+03  0.10850237054E+03  0.12700000000E+01 0.  1.
          4   -1    0    0  501    0  0.00000000000E+00 -0.00000000000E+00 -0.35984884365E+02  0.36007288190E+02  0.12700000000E+01 0.  1.
         25    2    1    2    0    0  0.00000000000E+00  0.00000000000E+00  0.72510053365E+02  0.14450965873E+03  0.12500133450E+03 0.  0.
    9000005    1    3    3    0    0 -0.26114277011E+02 -0.53405534190E+02  0.58529216813E+02  0.83431263724E+02  0.10000000000E+01 0.  0.
    9000005    1    3    3    0    0  0.26114277011E+02  0.53405534190E+02  0.13980836552E+02  0.61078395007E+02  0.10000000000E+01 0.  0.
<mgrwt>
<rscale>  0 0.12500133E+03</rscale>
<asrwt>0</asrwt>
<pdfrwt beam="2">  1        4 0.55384311E-02 0.12500133E+03</pdfrwt>
<pdfrwt beam="1">  1       -4 0.16693824E-01 0.12500133E+03</pdfrwt>
<totfact> 0.10040659E+04</totfact>
</mgrwt>
</event>
<event>
 5    1  0.3284464E-002  0.1249998E+03  0.7818608E-02  0.1235070E+00
          4   -1    0    0  501    0  0.00000000000E+00  0.00000000000E+00  0.29678301717E+03  0.29678573446E+03  0.12700000000E+01 0. -1.
         -4   -1    0    0    0  501 -0.00000000000E+00 -0.00000000000E+00 -0.13128502679E+02  0.13189787056E+02  0.12700000000E+01 0. -1.
         25    2    1    2    0    0  0.00000000000E+00  0.00000000000E+00  0.28365451449E+03  0.30997552152E+03  0.12499976140E+03 0.  0.
    9000005    1    3    3    0    0  0.55279258456E+02  0.23769684848E+02  0.10000435893E+03  0.11671617770E+03  0.10000000000E+01 0.  0.
    9000005    1    3    3    0    0 -0.55279258456E+02 -0.23769684848E+02  0.18365015557E+03  0.19325934382E+03  0.10000000000E+01 0.  0.
<mgrwt>
<rscale>  0 0.12499976E+03</rscale>
<asrwt>0</asrwt>
<pdfrwt beam="1">  1        4 0.45663847E-01 0.12499976E+03</pdfrwt>
<pdfrwt beam="2">  1       -4 0.20246929E-02 0.12499976E+03</pdfrwt>
<totfact> 0.74364719E+03</totfact>
</mgrwt>
</event>
<event>
 5    1  0.3284464E-002  0.1250009E+03  0.7818608E-02  0.1235068E+00
         -4   -1    0    0    0  501 -0.00000000000E+00  0.00000000000E+00  0.23123739191E+03  0.23124087942E+03  0.12700000000E+01 0. -1.
          4   -1    0    0  501    0  0.00000000000E+00 -0.00000000000E+00 -0.16865572714E+02  0.16913321464E+02  0.12700000000E+01 0. -1.
         25    2    1    2    0    0  0.00000000000E+00  0.00000000000E+00  0.21437181919E+03  0.24815420089E+03  0.12500092221E+03 0.  0.
    9000005    1    3    3    0    0 -0.56234164509E+02 -0.14463205276E+01  0.53148025685E+02  0.77395644163E+02  0.10000000000E+01 0.  0.
    9000005    1    3    3    0    0  0.56234164509E+02  0.14463205276E+01  0.16122379351E+03  0.17075855672E+03  0.10000000000E+01 0.  0.
<mgrwt>
<rscale>  0 0.12500092E+03</rscale>
<asrwt>0</asrwt>
<pdfrwt beam="2">  1        4 0.25986447E-02 0.12500092E+03</pdfrwt>
<pdfrwt beam="1">  1       -4 0.35578925E-01 0.12500092E+03</pdfrwt>
<totfact> 0.82596039E+03</totfact>
</mgrwt>
</event>
<event>
 5    1  0.3284464E-002  0.1250002E+03  0.7818608E-02  0.1235069E+00
         -4   -1    0    0    0  501 -0.00000000000E+00  0.00000000000E+00  0.34865942157E+01  0.37106925533E+01  0.12700000000E+01 0. -1.
          4   -1    0    0  501    0  0.00000000000E+00 -0.00000000000E+00 -0.10852579279E+04  0.10852586710E+04  0.12700000000E+01 0. -1.
         25    2    1    2    0    0  0.00000000000E+00  0.00000000000E+00 -0.10817713337E+04  0.10889693635E+04  0.12500022546E+03 0.  0.
    9000005    1    3    3    0    0 -0.59467152251E+02 -0.15779044531E+02 -0.44547575545E+03  0.44970542484E+03  0.10000000000E+01 0.  0.
    9000005    1    3    3    0    0  0.59467152251E+02  0.15779044531E+02 -0.63629557821E+03  0.63926393868E+03  0.10000000000E+01 0.  0.
<mgrwt>
<rscale>  0 0.12500023E+03</rscale>
<asrwt>0</asrwt>
<pdfrwt beam="2">  1        4 0.16697979E+00 0.12500023E+03</pdfrwt>
<pdfrwt beam="1">  1       -4 0.55369547E-03 0.12500023E+03</pdfrwt>
<totfact> 0.27808396E+03</totfact>
</mgrwt>
</event>
<event>
 5    1  0.3284464E-002  0.1250047E+03  0.7818608E-02  0.1235062E+00
         -4   -1    0    0    0  501 -0.00000000000E+00  0.00000000000E+00  0.31587227083E+03  0.31587482391E+03  0.12700000000E+01 0.  1.
          4   -1    0    0  501    0  0.00000000000E+00 -0.00000000000E+00 -0.12332270297E+02  0.12397491306E+02  0.12700000000E+01 0.  1.
         25    2    1    2    0    0  0.00000000000E+00  0.00000000000E+00  0.30354000053E+03  0.32827231521E+03  0.12500472396E+03 0.  0.
    9000005    1    3    3    0    0  0.12820509408E+02  0.58489529453E+01 -0.81185414533E+01  0.16293754244E+02  0.10000000000E+01 0.  0.
    9000005    1    3    3    0    0 -0.12820509408E+02 -0.58489529453E+01  0.31165854198E+03  0.31197856097E+03  0.10000000000E+01 0.  0.
<mgrwt>
<rscale>  0 0.12500472E+03</rscale>
<asrwt>0</asrwt>
<pdfrwt beam="2">  1        4 0.19024858E-02 0.12500472E+03</pdfrwt>
<pdfrwt beam="1">  1       -4 0.48600946E-01 0.12500472E+03</pdfrwt>
<totfact> 0.72175371E+03</totfact>
</mgrwt>
</event>
<event>
 5    1  0.3284464E-002  0.1250369E+03  0.7818608E-02  0.1235012E+00
          4   -1    0    0  501    0  0.00000000000E+00  0.00000000000E+00  0.11667479147E+03  0.11668170321E+03  0.12700000000E+01 0. -1.
         -4   -1    0    0    0  501 -0.00000000000E+00 -0.00000000000E+00 -0.33479641389E+02  0.33503720503E+02  0.12700000000E+01 0. -1.
         25    2    1    2    0    0  0.00000000000E+00  0.00000000000E+00  0.83195150077E+02  0.15018542371E+03  0.12503690855E+03 0.  0.
    9000005    1    3    3    0    0  0.40085347514E+02  0.15464679630E+00  0.99210427201E+02  0.10700732623E+03  0.10000000000E+01 0.  0.
    9000005    1    3    3    0    0 -0.40085347514E+02 -0.15464679630E+00 -0.16015277124E+02  0.43178097484E+02  0.10000000000E+01 0.  0.
<mgrwt>
<rscale>  0 0.12503691E+03</rscale>
<asrwt>0</asrwt>
<pdfrwt beam="1">  1        4 0.17952352E-01 0.12503691E+03</pdfrwt>
<pdfrwt beam="2">  1       -4 0.51530980E-02 0.12503691E+03</pdfrwt>
<totfact> 0.99184340E+03</totfact>
</mgrwt>
</event>
<event>
 5    1  0.3284464E-002  0.1250019E+03  0.7818608E-02  0.1235066E+00
          4   -1    0    0  501    0  0.00000000000E+00  0.00000000000E+00  0.54294090660E+03  0.54294239193E+03  0.12700000000E+01 0. -1.
         -4   -1    0    0    0  501 -0.00000000000E+00 -0.00000000000E+00 -0.71372856193E+01  0.72493962515E+01  0.12700000000E+01 0. -1.
         25    2    1    2    0    0  0.00000000000E+00  0.00000000000E+00  0.53580362098E+03  0.55019178818E+03  0.12500193411E+03 0.  0.
    9000005    1    3    3    0    0 -0.90219020153E+01  0.34484272057E+02  0.49383088197E+03  0.49511665264E+03  0.10000000000E+01 0.  0.
    9000005    1    3    3    0    0  0.90219020153E+01 -0.34484272057E+02  0.41972739013E+02  0.55075135548E+02  0.10000000000E+01 0.  0.
<mgrwt>
<rscale>  0 0.12500193E+03</rscale>
<asrwt>0</asrwt>
<pdfrwt beam="1">  1        4 0.83538112E-01 0.12500193E+03</pdfrwt>
<pdfrwt beam="2">  1       -4 0.11067820E-02 0.12500193E+03</pdfrwt>
<totfact> 0.52168347E+03</totfact>
</mgrwt>
</event>
<event>
 5    1  0.3284464E-002  0.1250015E+03  0.7818608E-02  0.1235067E+00
         -4   -1    0    0    0  501 -0.00000000000E+00  0.00000000000E+00  0.23949112575E+03  0.23949449307E+03  0.12700000000E+01 0.  1.
          4   -1    0    0  501    0  0.00000000000E+00 -0.00000000000E+00 -0.16282799957E+02  0.16332252584E+02  0.12700000000E+01 0.  1.
         25    2    1    2    0    0  0.00000000000E+00  0.00000000000E+00  0.22320832579E+03  0.25582674566E+03  0.12500146835E+03 0.  0.
    9000005    1    3    3    0    0  0.34382810991E+02  0.30396845840E+02  0.24794103909E+02  0.52171769351E+02  0.10000000000E+01 0.  0.
    9000005    1    3    3    0    0 -0.34382810991E+02 -0.30396845840E+02  0.19841422188E+03  0.20365497630E+03  0.10000000000E+01 0.  0.
<mgrwt>
<rscale>  0 0.12500147E+03</rscale>
<asrwt>0</asrwt>
<pdfrwt beam="2">  1        4 0.25091093E-02 0.12500147E+03</pdfrwt>
<pdfrwt beam="1">  1       -4 0.36848851E-01 0.12500147E+03</pdfrwt>
<totfact> 0.81492644E+03</totfact>
</mgrwt>
</event>
<event>
 5    1  0.3284464E-002  0.1249994E+03  0.7818608E-02  0.1235070E+00
         -4   -1    0    0    0  501 -0.00000000000E+00  0.00000000000E+00  0.14825718757E+02  0.14880014673E+02  0.12700000000E+01 0. -1.
          4   -1    0    0  501    0  0.00000000000E+00 -0.00000000000E+00 -0.26293803176E+03  0.26294109881E+03  0.12700000000E+01 0. -1.
         25    2    1    2    0    0  0.00000000000E+00  0.00000000000E+00 -0.24811231300E+03  0.27782111348E+03  0.12499940494E+03 0.  0.
    9000005    1    3    3    0    0 -0.52900261133E+02 -0.25489740506E+02 -0.76540322571E+02  0.96475828466E+02  0.10000000000E+01 0.  0.
    9000005    1    3    3    0    0  0.52900261133E+02  0.25489740506E+02 -0.17157199043E+03  0.18134528502E+03  0.10000000000E+01 0.  0.
<mgrwt>
<rscale>  0 0.12499940E+03</rscale>
<asrwt>0</asrwt>
<pdfrwt beam="2">  1        4 0.40456414E-01 0.12499940E+03</pdfrwt>
<pdfrwt beam="1">  1       -4 0.22852925E-02 0.12499940E+03</pdfrwt>
<totfact> 0.78468939E+03</totfact>
</mgrwt>
</event>
<event>
 5    1  0.3284464E-002  0.1250008E+03  0.7818608E-02  0.1235068E+00
         -4   -1    0    0    0  501 -0.00000000000E+00  0.00000000000E+00  0.22939049186E+02  0.22974178496E+02  0.12700000000E+01 0.  1.
          4   -1    0    0  501    0  0.00000000000E+00 -0.00000000000E+00 -0.17012247872E+03  0.17012721906E+03  0.12700000000E+01 0.  1.
         25    2    1    2    0    0  0.00000000000E+00  0.00000000000E+00 -0.14718342953E+03  0.19310139756E+03  0.12500075123E+03 0.  0.
    9000005    1    3    3    0    0  0.22624839447E+02 -0.57480713940E+02 -0.58986912430E+02  0.85418801636E+02  0.10000000000E+01 0.  0.
    9000005    1    3    3    0    0 -0.22624839447E+02  0.57480713940E+02 -0.88196517102E+02  0.10768259592E+03  0.10000000000E+01 0.  0.
<mgrwt>
<rscale>  0 0.12500075E+03</rscale>
<asrwt>0</asrwt>
<pdfrwt beam="2">  1        4 0.26175755E-01 0.12500075E+03</pdfrwt>
<pdfrwt beam="1">  1       -4 0.35321515E-02 0.12500075E+03</pdfrwt>
<totfact> 0.91308929E+03</totfact>
</mgrwt>
</event>
<event>
 5    1  0.3284464E-002  0.1250074E+03  0.7818608E-02  0.1235058E+00
          4   -1    0    0  501    0  0.00000000000E+00  0.00000000000E+00  0.14478175953E+03  0.14478732953E+03  0.12700000000E+01 0.  1.
         -4   -1    0    0    0  501 -0.00000000000E+00 -0.00000000000E+00 -0.26962408444E+02  0.26992302034E+02  0.12700000000E+01 0.  1.
         25    2    1    2    0    0  0.00000000000E+00  0.00000000000E+00  0.11781935108E+03  0.17177963156E+03  0.12500736910E+03 0.  0.
    9000005    1    3    3    0    0  0.32946557192E+02 -0.31314119509E+02 -0.29619542305E-01  0.45464828040E+02  0.10000000000E+01 0.  0.
    9000005    1    3    3    0    0 -0.32946557192E+02  0.31314119509E+02  0.11784897062E+03  0.12631480352E+03  0.10000000000E+01 0.  0.
<mgrwt>
<rscale>  0 0.12500737E+03</rscale>
<asrwt>0</asrwt>
<pdfrwt beam="1">  1        4 0.22276844E-01 0.12500737E+03</pdfrwt>
<pdfrwt beam="2">  1       -4 0.41507909E-02 0.12500737E+03</pdfrwt>
<totfact> 0.95102247E+03</totfact>
</mgrwt>
</event>
<event>
 5    1  0.3284464E-002  0.1249970E+03  0.7818608E-02  0.1235074E+00
          4   -1    0    0  501    0  0.00000000000E+00  0.00000000000E+00  0.51919971645E+02  0.51935501881E+02  0.12700000000E+01 0. -1.
         -4   -1    0    0    0  501 -0.00000000000E+00 -0.00000000000E+00 -0.75200258118E+02  0.75210981386E+02  0.12700000000E+01 0. -1.
         25    2    1    2    0    0  0.00000000000E+00  0.00000000000E+00 -0.23280286474E+02  0.12714648327E+03  0.12499702584E+03 0.  0.
    9000005    1    3    3    0    0  0.32936384548E+02 -0.46381327921E+02 -0.37950566186E+02  0.68390631527E+02  0.10000000000E+01 0.  0.
    9000005    1    3    3    0    0 -0.32936384548E+02  0.46381327921E+02  0.14670279713E+02  0.58755851740E+02  0.10000000000E+01 0.  0.
<mgrwt>
<rscale>  0 0.12499703E+03</rscale>
<asrwt>0</asrwt>
<pdfrwt beam="1">  1        4 0.79897074E-02 0.12499703E+03</pdfrwt>
<pdfrwt beam="2">  1       -4 0.11571290E-01 0.12499703E+03</pdfrwt>
<totfact> 0.10406663E+04</totfact>
</mgrwt>
</event>
<event>
 5    1  0.3284464E-002  0.1249980E+03  0.7818608E-02  0.1235072E+00
         -4   -1    0    0    0  501 -0.00000000000E+00  0.00000000000E+00  0.15544838687E+03  0.15545357468E+03  0.12700000000E+01 0. -1.
          4   -1    0    0  501    0  0.00000000000E+00 -0.00000000000E+00 -0.25106475786E+02  0.25138576460E+02  0.12700000000E+01 0. -1.
         25    2    1    2    0    0  0.00000000000E+00  0.00000000000E+00  0.13034191109E+03  0.18059215114E+03  0.12499804506E+03 0.  0.
    9000005    1    3    3    0    0 -0.32528458893E+02  0.23946789817E+02  0.13406007303E+03  0.14001661530E+03  0.10000000000E+01 0.  0.
    9000005    1    3    3    0    0  0.32528458893E+02 -0.23946789817E+02 -0.37181619407E+01  0.40575535840E+02  0.10000000000E+01 0.  0.
<mgrwt>
<rscale>  0 0.12499805E+03</rscale>
<asrwt>0</asrwt>
<pdfrwt beam="2">  1        4 0.38654031E-02 0.12499805E+03</pdfrwt>
<pdfrwt beam="1">  1       -4 0.23918005E-01 0.12499805E+03</pdfrwt>
<totfact> 0.93514621E+03</totfact>
</mgrwt>
</event>
<event>
 5    1  0.3284464E-002  0.1249996E+03  0.7818608E-02  0.1235070E+00
          4   -1    0    0  501    0  0.00000000000E+00  0.00000000000E+00  0.19458410540E+02  0.19499811300E+02  0.12700000000E+01 0. -1.
         -4   -1    0    0    0  501 -0.00000000000E+00 -0.00000000000E+00 -0.20049070869E+03  0.20049473103E+03  0.12700000000E+01 0. -1.
         25    2    1    2    0    0  0.00000000000E+00  0.00000000000E+00 -0.18103229815E+03  0.21999454233E+03  0.12499962273E+03 0.  0.
    9000005    1    3    3    0    0  0.47655837367E+01  0.60547369517E+02 -0.11641401178E+03  0.13130847986E+03  0.10000000000E+01 0.  0.
    9000005    1    3    3    0    0 -0.47655837367E+01 -0.60547369517E+02 -0.64618286371E+02  0.88686062475E+02  0.10000000000E+01 0.  0.
<mgrwt>
<rscale>  0 0.12499962E+03</rscale>
<asrwt>0</asrwt>
<pdfrwt beam="1">  1        4 0.29970959E-02 0.12499962E+03</pdfrwt>
<pdfrwt beam="2">  1       -4 0.30848217E-01 0.12499962E+03</pdfrwt>
<totfact> 0.86869946E+03</totfact>
</mgrwt>
</event>
<event>
 5    1  0.3284464E-002  0.1250004E+03  0.7818608E-02  0.1235069E+00
          4   -1    0    0  501    0  0.00000000000E+00  0.00000000000E+00  0.45986832096E+01  0.47708266854E+01  0.12700000000E+01 0.  1.
         -4   -1    0    0    0  501 -0.00000000000E+00 -0.00000000000E+00 -0.83365372574E+03  0.83365469311E+03  0.12700000000E+01 0.  1.
         25    2    1    2    0    0  0.00000000000E+00  0.00000000000E+00 -0.82905504253E+03  0.83842551980E+03  0.12500035478E+03 0.  0.
    9000005    1    3    3    0    0  0.19439569528E+02  0.59099915126E+02 -0.37508755925E+03  0.38021358989E+03  0.10000000000E+01 0.  0.
    9000005    1    3    3    0    0 -0.19439569528E+02 -0.59099915126E+02 -0.45396748328E+03  0.45821192991E+03  0.10000000000E+01 0.  0.
<mgrwt>
<rscale>  0 0.12500035E+03</rscale>
<asrwt>0</asrwt>
<pdfrwt beam="1">  1        4 0.72080660E-03 0.12500035E+03</pdfrwt>
<pdfrwt beam="2">  1       -4 0.12826762E+00 0.12500035E+03</pdfrwt>
<totfact> 0.36605448E+03</totfact>
</mgrwt>
</event>
<event>
 5    1  0.3284464E-002  0.1250007E+03  0.7818608E-02  0.1235068E+00
         -4   -1    0    0    0  501 -0.00000000000E+00  0.00000000000E+00  0.79375845407E+02  0.79386004649E+02  0.12700000000E+01 0. -1.
          4   -1    0    0  501    0  0.00000000000E+00 -0.00000000000E+00 -0.49191159701E+02  0.49207551175E+02  0.12700000000E+01 0. -1.
         25    2    1    2    0    0  0.00000000000E+00  0.00000000000E+00  0.30184685707E+02  0.12859355582E+03  0.12500074939E+03 0.  0.
    9000005    1    3    3    0    0 -0.61239352832E+02  0.39836797432E+01  0.29562881299E+01  0.61448089304E+02  0.10000000000E+01 0.  0.
    9000005    1    3    3    0    0  0.61239352832E+02 -0.39836797432E+01  0.27228397577E+02  0.67145466520E+02  0.10000000000E+01 0.  0.
<mgrwt>
<rscale>  0 0.12500075E+03</rscale>
<asrwt>0</asrwt>
<pdfrwt beam="2">  1        4 0.75699132E-02 0.12500075E+03</pdfrwt>
<pdfrwt beam="1">  1       -4 0.12213711E-01 0.12500075E+03</pdfrwt>
<totfact> 0.10374513E+04</totfact>
</mgrwt>
</event>
<event>
 5    1  0.3284464E-002  0.1250002E+03  0.7818608E-02  0.1235069E+00
         -4   -1    0    0    0  501 -0.00000000000E+00  0.00000000000E+00  0.43169850121E+02  0.43188526942E+02  0.12700000000E+01 0.  1.
          4   -1    0    0  501    0  0.00000000000E+00 -0.00000000000E+00 -0.90443166193E+02  0.90452082403E+02  0.12700000000E+01 0.  1.
         25    2    1    2    0    0  0.00000000000E+00  0.00000000000E+00 -0.47273316072E+02  0.13364060935E+03  0.12500018421E+03 0.  0.
    9000005    1    3    3    0    0  0.38926502259E+02  0.24563538550E+02 -0.68826838246E+02  0.82805637895E+02  0.10000000000E+01 0.  0.
    9000005    1    3    3    0    0 -0.38926502259E+02 -0.24563538550E+02  0.21553522174E+02  0.50834971450E+02  0.10000000000E+01 0.  0.
<mgrwt>
<rscale>  0 0.12500018E+03</rscale>
<asrwt>0</asrwt>
<pdfrwt beam="2">  1        4 0.13916456E-01 0.12500018E+03</pdfrwt>
<pdfrwt beam="1">  1       -4 0.66436380E-02 0.12500018E+03</pdfrwt>
<totfact> 0.10266761E+04</totfact>
</mgrwt>
</event>
<event>
 5    1  0.3284464E-002  0.1249955E+03  0.7818608E-02  0.1235076E+00
         -4   -1    0    0    0  501 -0.00000000000E+00  0.00000000000E+00  0.35753844412E+03  0.35754069968E+03  0.12700000000E+01 0.  1.
          4   -1    0    0  501    0  0.00000000000E+00 -0.00000000000E+00 -0.10885409488E+02  0.10959244487E+02  0.12700000000E+01 0.  1.
         25    2    1    2    0    0  0.00000000000E+00  0.00000000000E+00  0.34665303463E+03  0.36849994416E+03  0.12499552963E+03 0.  0.
    9000005    1    3    3    0    0  0.35193132254E+02  0.50847227561E+02  0.19985512131E+03  0.20920579968E+03  0.10000000000E+01 0.  0.
    9000005    1    3    3    0    0 -0.35193132254E+02 -0.50847227561E+02  0.14679791333E+03  0.15929414448E+03  0.10000000000E+01 0.  0.
<mgrwt>
<rscale>  0 0.12499553E+03</rscale>
<asrwt>0</asrwt>
<pdfrwt beam="2">  1        4 0.16805317E-02 0.12499553E+03</pdfrwt>
<pdfrwt beam="1">  1       -4 0.55011761E-01 0.12499553E+03</pdfrwt>
<totfact> 0.67742861E+03</totfact>
</mgrwt>
</event>
<event>
 5    1  0.3284464E-002  0.1250200E+03  0.7818608E-02  0.1235038E+00
          4   -1    0    0  501    0  0.00000000000E+00  0.00000000000E+00  0.21096903185E+02  0.21135094605E+02  0.12700000000E+01 0. -1.
         -4   -1    0    0    0  501 -0.00000000000E+00 -0.00000000000E+00 -0.18500888899E+03  0.18501324792E+03  0.12700000000E+01 0. -1.
         25    2    1    2    0    0  0.00000000000E+00  0.00000000000E+00 -0.16391198580E+03  0.20614834252E+03  0.12501999854E+03 0.  0.
    9000005    1    3    3    0    0 -0.58639086058E+02 -0.21264522979E+02 -0.75406289738E+02  0.97866393023E+02  0.10000000000E+01 0.  0.
    9000005    1    3    3    0    0  0.58639086058E+02  0.21264522979E+02 -0.88505696065E+02  0.10828194950E+03  0.10000000000E+01 0.  0.
<mgrwt>
<rscale>  0 0.12502000E+03</rscale>
<asrwt>0</asrwt>
<pdfrwt beam="1">  1        4 0.32489506E-02 0.12502000E+03</pdfrwt>
<pdfrwt beam="2">  1       -4 0.28466178E-01 0.12502000E+03</pdfrwt>
<totfact> 0.89068953E+03</totfact>
</mgrwt>
</event>
<event>
 5    1  0.3284464E-002  0.1250019E+03  0.7818608E-02  0.1235066E+00
         -4   -1    0    0    0  501 -0.00000000000E+00  0.00000000000E+00  0.85434242527E+02  0.85443681429E+02  0.12700000000E+01 0.  1.
          4   -1    0    0  501    0  0.00000000000E+00 -0.00000000000E+00 -0.45702917120E+02  0.45720559197E+02  0.12700000000E+01 0.  1.
         25    2    1    2    0    0  0.00000000000E+00  0.00000000000E+00  0.39731325407E+02  0.13116424063E+03  0.12500191919E+03 0.  0.
    9000005    1    3    3    0    0  0.48903221968E+01 -0.19402116506E+02 -0.42256069701E+02  0.46764653348E+02  0.10000000000E+01 0.  0.
    9000005    1    3    3    0    0 -0.48903221968E+01  0.19402116506E+02  0.81987395108E+02  0.84399587278E+02  0.10000000000E+01 0.  0.
<mgrwt>
<rscale>  0 0.12500192E+03</rscale>
<asrwt>0</asrwt>
<pdfrwt beam="2">  1        4 0.70333012E-02 0.12500192E+03</pdfrwt>
<pdfrwt beam="1">  1       -4 0.13145813E-01 0.12500192E+03</pdfrwt>
<totfact> 0.10319123E+04</totfact>
</mgrwt>
</event>
<event>
 5    1  0.3284464E-002  0.1250000E+03  0.7818608E-02  0.1235069E+00
         -4   -1    0    0    0  501 -0.00000000000E+00  0.00000000000E+00  0.95427708972E+01  0.96269089741E+01  0.12700000000E+01 0.  1.
          4   -1    0    0  501    0  0.00000000000E+00 -0.00000000000E+00 -0.40745942738E+03  0.40746140659E+03  0.12700000000E+01 0.  1.
         25    2    1    2    0    0  0.00000000000E+00  0.00000000000E+00 -0.39791665649E+03  0.41708831557E+03  0.12499998990E+03 0.  0.
    9000005    1    3    3    0    0  0.28869212211E+02 -0.41316233492E+02 -0.32222635761E+03  0.32614611465E+03  0.10000000000E+01 0.  0.
    9000005    1    3    3    0    0 -0.28869212211E+02  0.41316233492E+02 -0.75690298875E+02  0.90942200916E+02  0.10000000000E+01 0.  0.
<mgrwt>
<rscale>  0 0.12499999E+03</rscale>
<asrwt>0</asrwt>
<pdfrwt beam="2">  1        4 0.62692677E-01 0.12499999E+03</pdfrwt>
<pdfrwt beam="1">  1       -4 0.14747433E-02 0.12499999E+03</pdfrwt>
<totfact> 0.62924074E+03</totfact>
</mgrwt>
</event>
<event>
 5    1  0.3284464E-002  0.1249992E+03  0.7818608E-02  0.1235071E+00
          4   -1    0    0  501    0  0.00000000000E+00  0.00000000000E+00  0.16196805788E+03  0.16197303687E+03  0.12700000000E+01 0. -1.
         -4   -1    0    0    0  501 -0.00000000000E+00 -0.00000000000E+00 -0.24095033674E+02  0.24128480013E+02  0.12700000000E+01 0. -1.
         25    2    1    2    0    0  0.00000000000E+00  0.00000000000E+00  0.13787302420E+03  0.18610151688E+03  0.12499921513E+03 0.  0.
    9000005    1    3    3    0    0 -0.16049998631E+02 -0.28606626506E+02  0.14812809273E+03  0.15171971985E+03  0.10000000000E+01 0.  0.
    9000005    1    3    3    0    0  0.16049998631E+02  0.28606626506E+02 -0.10255068531E+02  0.34381797025E+02  0.10000000000E+01 0.  0.
<mgrwt>
<rscale>  0 0.12499922E+03</rscale>
<asrwt>0</asrwt>
<pdfrwt beam="1">  1        4 0.24921119E-01 0.12499922E+03</pdfrwt>
<pdfrwt beam="2">  1       -4 0.37098840E-02 0.12499922E+03</pdfrwt>
<totfact> 0.92531724E+03</totfact>
</mgrwt>
</event>
<event>
 5    1  0.3284464E-002  0.1250244E+03  0.7818608E-02  0.1235031E+00
         -4   -1    0    0    0  501 -0.00000000000E+00  0.00000000000E+00  0.15471921627E+02  0.15523957576E+02  0.12700000000E+01 0.  1.
          4   -1    0    0  501    0  0.00000000000E+00 -0.00000000000E+00 -0.25209428574E+03  0.25209748473E+03  0.12700000000E+01 0.  1.
         25    2    1    2    0    0  0.00000000000E+00  0.00000000000E+00 -0.23662236412E+03  0.26762144230E+03  0.12502437034E+03 0.  0.
    9000005    1    3    3    0    0  0.17029380592E+02  0.21467454914E+02  0.19399995458E+01  0.27488452522E+02  0.10000000000E+01 0.  0.
    9000005    1    3    3    0    0 -0.17029380592E+02 -0.21467454914E+02 -0.23856236366E+03  0.24013298978E+03  0.10000000000E+01 0.  0.
<mgrwt>
<rscale>  0 0.12502437E+03</rscale>
<asrwt>0</asrwt>
<pdfrwt beam="2">  1        4 0.38787982E-01 0.12502437E+03</pdfrwt>
<pdfrwt beam="1">  1       -4 0.23845447E-02 0.12502437E+03</pdfrwt>
<totfact> 0.79804980E+03</totfact>
</mgrwt>
</event>
<event>
 5    1  0.3284464E-002  0.1249991E+03  0.7818608E-02  0.1235071E+00
         -4   -1    0    0    0  501 -0.00000000000E+00  0.00000000000E+00  0.95134341673E+01  0.95978294241E+01  0.12700000000E+01 0.  1.
          4   -1    0    0  501    0  0.00000000000E+00 -0.00000000000E+00 -0.40869928702E+03  0.40870126022E+03  0.12700000000E+01 0.  1.
         25    2    1    2    0    0  0.00000000000E+00  0.00000000000E+00 -0.39918585285E+03  0.41829908965E+03  0.12499913314E+03 0.  0.
    9000005    1    3    3    0    0 -0.38003907101E+02  0.12955800421E+02 -0.39347253438E+02  0.56225937721E+02  0.10000000000E+01 0.  0.
    9000005    1    3    3    0    0  0.38003907101E+02 -0.12955800421E+02 -0.35983859941E+03  0.36207315193E+03  0.10000000000E+01 0.  0.
<mgrwt>
<rscale>  0 0.12499913E+03</rscale>
<asrwt>0</asrwt>
<pdfrwt beam="2">  1        4 0.62883443E-01 0.12499913E+03</pdfrwt>
<pdfrwt beam="1">  1       -4 0.14702493E-02 0.12499913E+03</pdfrwt>
<totfact> 0.62812328E+03</totfact>
</mgrwt>
</event>
<event>
 5    1  0.3284464E-002  0.1250027E+03  0.7818608E-02  0.1235065E+00
         -4   -1    0    0    0  501 -0.00000000000E+00  0.00000000000E+00  0.77802800928E+01  0.78832517607E+01  0.12700000000E+01 0.  1.
          4   -1    0    0  501    0  0.00000000000E+00 -0.00000000000E+00 -0.49868778664E+03  0.49868940378E+03  0.12700000000E+01 0.  1.
         25    2    1    2    0    0  0.00000000000E+00  0.00000000000E+00 -0.49090750654E+03  0.50657265554E+03  0.12500270140E+03 0.  0.
    9000005    1    3    3    0    0 -0.30069893996E+02 -0.50904023169E+02 -0.32751056994E+03  0.33280563626E+03  0.10000000000E+01 0.  0.
    9000005    1    3    3    0    0  0.30069893996E+02  0.50904023169E+02 -0.16339693660E+03  0.17376701928E+03  0.10000000000E+01 0.  0.
<mgrwt>
<rscale>  0 0.12500270E+03</rscale>
<asrwt>0</asrwt>
<pdfrwt beam="2">  1        4 0.76729219E-01 0.12500270E+03</pdfrwt>
<pdfrwt beam="1">  1       -4 0.12050118E-02 0.12500270E+03</pdfrwt>
<totfact> 0.55354715E+03</totfact>
</mgrwt>
</event>
<event>
 5    1  0.3284464E-002  0.1249998E+03  0.7818608E-02  0.1235070E+00
          4   -1    0    0  501    0  0.00000000000E+00  0.00000000000E+00  0.14532673608E+03  0.14533228519E+03  0.12700000000E+01 0. -1.
         -4   -1    0    0    0  501 -0.00000000000E+00 -0.00000000000E+00 -0.26857914759E+02  0.26887924524E+02  0.12700000000E+01 0. -1.
         25    2    1    2    0    0  0.00000000000E+00  0.00000000000E+00  0.11846882132E+03  0.17222020972E+03  0.12499975604E+03 0.  0.
    9000005    1    3    3    0    0  0.31024050000E+02  0.52671411557E+02  0.41351821111E+02  0.73808823206E+02  0.10000000000E+01 0.  0.
    9000005    1    3    3    0    0 -0.31024050000E+02 -0.52671411557E+02  0.77117000211E+02  0.98411386513E+02  0.10000000000E+01 0.  0.
<mgrwt>
<rscale>  0 0.12499976E+03</rscale>
<asrwt>0</asrwt>
<pdfrwt beam="1">  1        4 0.22360695E-01 0.12499976E+03</pdfrwt>
<pdfrwt beam="2">  1       -4 0.41347222E-02 0.12499976E+03</pdfrwt>
<totfact> 0.95036952E+03</totfact>
</mgrwt>
</event>
<event>
 5    1  0.3284464E-002  0.1250039E+03  0.7818608E-02  0.1235063E+00
          4   -1    0    0  501    0  0.00000000000E+00  0.00000000000E+00  0.45496559888E+03  0.45496737142E+03  0.12700000000E+01 0. -1.
         -4   -1    0    0    0  501 -0.00000000000E+00 -0.00000000000E+00 -0.85375867136E+01  0.86315286533E+01  0.12700000000E+01 0. -1.
         25    2    1    2    0    0  0.00000000000E+00  0.00000000000E+00  0.44642801216E+03  0.46359890008E+03  0.12500388038E+03 0.  0.
    9000005    1    3    3    0    0  0.17920744502E+01  0.56459499691E+02  0.12407325645E+03  0.13633069941E+03  0.10000000000E+01 0.  0.
    9000005    1    3    3    0    0 -0.17920744502E+01 -0.56459499691E+02  0.32235475571E+03  0.32726820066E+03  0.10000000000E+01 0.  0.
<mgrwt>
<rscale>  0 0.12500388E+03</rscale>
<asrwt>0</asrwt>
<pdfrwt beam="1">  1        4 0.70002083E-01 0.12500388E+03</pdfrwt>
<pdfrwt beam="2">  1       -4 0.13208373E-02 0.12500388E+03</pdfrwt>
<totfact> 0.58798532E+03</totfact>
</mgrwt>
</event>
<event>
 5    1  0.3284464E-002  0.1249996E+03  0.7818608E-02  0.1235070E+00
         -4   -1    0    0    0  501 -0.00000000000E+00  0.00000000000E+00  0.23773297981E+02  0.23807196326E+02  0.12700000000E+01 0. -1.
          4   -1    0    0  501    0  0.00000000000E+00 -0.00000000000E+00 -0.16415796350E+03  0.16416287607E+03  0.12700000000E+01 0. -1.
         25    2    1    2    0    0  0.00000000000E+00  0.00000000000E+00 -0.14038466552E+03  0.18797007240E+03  0.12499957522E+03 0.  0.
    9000005    1    3    3    0    0 -0.53492202510E+02 -0.31744845721E+02 -0.61160658949E+02  0.87239768239E+02  0.10000000000E+01 0.  0.
    9000005    1    3    3    0    0  0.53492202510E+02  0.31744845721E+02 -0.79224006567E+02  0.10073030416E+03  0.10000000000E+01 0.  0.
<mgrwt>
<rscale>  0 0.12499958E+03</rscale>
<asrwt>0</asrwt>
<pdfrwt beam="2">  1        4 0.25258056E-01 0.12499958E+03</pdfrwt>
<pdfrwt beam="1">  1       -4 0.36604160E-02 0.12499958E+03</pdfrwt>
<totfact> 0.92202597E+03</totfact>
</mgrwt>
</event>
<event>
 5    1  0.3284464E-002  0.1250043E+03  0.7818608E-02  0.1235063E+00
         -4   -1    0    0    0  501 -0.00000000000E+00  0.00000000000E+00  0.40421921296E+02  0.40441867183E+02  0.12700000000E+01 0. -1.
          4   -1    0    0  501    0  0.00000000000E+00 -0.00000000000E+00 -0.96595564283E+02  0.96603912649E+02  0.12700000000E+01 0. -1.
         25    2    1    2    0    0  0.00000000000E+00  0.00000000000E+00 -0.56173642987E+02  0.13704577983E+03  0.12500427034E+03 0.  0.
    9000005    1    3    3    0    0 -0.38401973994E+02 -0.48972213383E+02 -0.21834131490E+02  0.65959977170E+02  0.10000000000E+01 0.  0.
    9000005    1    3    3    0    0  0.38401973994E+02  0.48972213383E+02 -0.34339511497E+02  0.71085802662E+02  0.10000000000E+01 0.  0.
<mgrwt>
<rscale>  0 0.12500427E+03</rscale>
<asrwt>0</asrwt>
<pdfrwt beam="2">  1        4 0.14863033E-01 0.12500427E+03</pdfrwt>
<pdfrwt beam="1">  1       -4 0.62209336E-02 0.12500427E+03</pdfrwt>
<totfact> 0.10194147E+04</totfact>
</mgrwt>
</event>
<event>
 5    1  0.3284464E-002  0.1250031E+03  0.7818608E-02  0.1235064E+00
          4   -1    0    0  501    0  0.00000000000E+00  0.00000000000E+00  0.15003514209E+02  0.15057169011E+02  0.12700000000E+01 0.  1.
         -4   -1    0    0    0  501 -0.00000000000E+00 -0.00000000000E+00 -0.25984851499E+03  0.25985161851E+03  0.12700000000E+01 0.  1.
         25    2    1    2    0    0  0.00000000000E+00  0.00000000000E+00 -0.24484500078E+03  0.27490878752E+03  0.12500306816E+03 0.  0.
    9000005    1    3    3    0    0  0.57100082067E+01  0.88455625780E+01  0.13049824538E+02  0.16797204872E+02  0.10000000000E+01 0.  0.
    9000005    1    3    3    0    0 -0.57100082067E+01 -0.88455625780E+01 -0.25789482532E+03  0.25811158265E+03  0.10000000000E+01 0.  0.
<mgrwt>
<rscale>  0 0.12500307E+03</rscale>
<asrwt>0</asrwt>
<pdfrwt beam="1">  1        4 0.23125992E-02 0.12500307E+03</pdfrwt>
<pdfrwt beam="2">  1       -4 0.39981057E-01 0.12500307E+03</pdfrwt>
<totfact> 0.78852664E+03</totfact>
</mgrwt>
</event>
<event>
 5    1  0.3284464E-002  0.1250006E+03  0.7818608E-02  0.1235068E+00
          4   -1    0    0  501    0  0.00000000000E+00  0.00000000000E+00  0.56380730934E+01  0.57793397726E+01  0.12700000000E+01 0. -1.
         -4   -1    0    0    0  501 -0.00000000000E+00 -0.00000000000E+00 -0.68412707827E+03  0.68412825707E+03  0.12700000000E+01 0. -1.
         25    2    1    2    0    0  0.00000000000E+00  0.00000000000E+00 -0.67848900517E+03  0.68990759684E+03  0.12500064814E+03 0.  0.
    9000005    1    3    3    0    0 -0.50458615242E+02 -0.29418070525E+02 -0.46189020953E+03  0.46556960853E+03  0.10000000000E+01 0.  0.
    9000005    1    3    3    0    0  0.50458615242E+02  0.29418070525E+02 -0.21659879564E+03  0.22433798831E+03  0.10000000000E+01 0.  0.
<mgrwt>
<rscale>  0 0.12500065E+03</rscale>
<asrwt>0</asrwt>
<pdfrwt beam="1">  1        4 0.87835374E-03 0.12500065E+03</pdfrwt>
<pdfrwt beam="2">  1       -4 0.10526121E+00 0.12500065E+03</pdfrwt>
<totfact> 0.43624239E+03</totfact>
</mgrwt>
</event>
<event>
 5    1  0.3284464E-002  0.1249994E+03  0.7818608E-02  0.1235070E+00
          4   -1    0    0  501    0  0.00000000000E+00  0.00000000000E+00  0.40187536926E+03  0.40187737597E+03  0.12700000000E+01 0. -1.
         -4   -1    0    0    0  501 -0.00000000000E+00 -0.00000000000E+00 -0.96764407299E+01  0.97594264790E+01  0.12700000000E+01 0. -1.
         25    2    1    2    0    0  0.00000000000E+00  0.00000000000E+00  0.39219892853E+03  0.41163680245E+03  0.12499943037E+03 0.  0.
    9000005    1    3    3    0    0  0.48010134778E+02 -0.40002786944E+02  0.19654608092E+03  0.20624392823E+03  0.10000000000E+01 0.  0.
    9000005    1    3    3    0    0 -0.48010134778E+02  0.40002786944E+02  0.19565284761E+03  0.20539287422E+03  0.10000000000E+01 0.  0.
<mgrwt>
<rscale>  0 0.12499943E+03</rscale>
<asrwt>0</asrwt>
<pdfrwt beam="1">  1        4 0.61833520E-01 0.12499943E+03</pdfrwt>
<pdfrwt beam="2">  1       -4 0.14952210E-02 0.12499943E+03</pdfrwt>
<totfact> 0.63437322E+03</totfact>
</mgrwt>
</event>
<event>
 5    1  0.3284464E-002  0.1249969E+03  0.7818608E-02  0.1235074E+00
         -4   -1    0    0    0  501 -0.00000000000E+00  0.00000000000E+00  0.55636488004E+03  0.55636632954E+03  0.12700000000E+01 0. -1.
          4   -1    0    0  501    0  0.00000000000E+00 -0.00000000000E+00 -0.69617698297E+01  0.70766615831E+01  0.12700000000E+01 0. -1.
         25    2    1    2    0    0  0.00000000000E+00  0.00000000000E+00  0.54940311021E+03  0.56344299112E+03  0.12499690689E+03 0.  0.
    9000005    1    3    3    0    0  0.24107743760E+02  0.94002350551E+01  0.18299195442E+02  0.31708173742E+02  0.10000000000E+01 0.  0.
    9000005    1    3    3    0    0 -0.24107743760E+02 -0.94002350551E+01  0.53110391477E+03  0.53173481738E+03  0.10000000000E+01 0.  0.
<mgrwt>
<rscale>  0 0.12499691E+03</rscale>
<asrwt>0</asrwt>
<pdfrwt beam="2">  1        4 0.10799908E-02 0.12499691E+03</pdfrwt>
<pdfrwt beam="1">  1       -4 0.85603552E-01 0.12499691E+03</pdfrwt>
<totfact> 0.51263088E+03</totfact>
</mgrwt>
</event>
<event>
 5    1  0.3284464E-002  0.1250016E+03  0.7818608E-02  0.1235067E+00
          4   -1    0    0  501    0  0.00000000000E+00  0.00000000000E+00  0.19406966919E+02  0.19448477189E+02  0.12700000000E+01 0. -1.
         -4   -1    0    0    0  501 -0.00000000000E+00 -0.00000000000E+00 -0.20102725507E+03  0.20103126667E+03  0.12700000000E+01 0. -1.
         25    2    1    2    0    0  0.00000000000E+00  0.00000000000E+00 -0.18162028815E+03  0.22047974386E+03  0.12500155353E+03 0.  0.
    9000005    1    3    3    0    0 -0.44347542466E+02 -0.10088004429E+02 -0.15215146714E+02  0.47968458863E+02  0.10000000000E+01 0.  0.
    9000005    1    3    3    0    0  0.44347542466E+02  0.10088004429E+02 -0.16640514143E+03  0.17251128500E+03  0.10000000000E+01 0.  0.
<mgrwt>
<rscale>  0 0.12500155E+03</rscale>
<asrwt>0</asrwt>
<pdfrwt beam="1">  1        4 0.29891890E-02 0.12500155E+03</pdfrwt>
<pdfrwt beam="2">  1       -4 0.30930770E-01 0.12500155E+03</pdfrwt>
<totfact> 0.86789482E+03</totfact>
</mgrwt>
</event>
<event>
 5    1  0.3284464E-002  0.1249972E+03  0.7818608E-02  0.1235074E+00
         -4   -1    0    0    0  501 -0.00000000000E+00  0.00000000000E+00  0.23405208845E+02  0.23439639525E+02  0.12700000000E+01 0.  1.
          4   -1    0    0  501    0  0.00000000000E+00 -0.00000000000E+00 -0.16672963475E+03  0.16673447156E+03  0.12700000000E+01 0.  1.
         25    2    1    2    0    0  0.00000000000E+00  0.00000000000E+00 -0.14332442591E+03  0.19017411108E+03  0.12499720582E+03 0.  0.
    9000005    1    3    3    0    0 -0.23638520648E+02  0.56768315524E+02 -0.88580456801E+02  0.10783746396E+03  0.10000000000E+01 0.  0.
    9000005    1    3    3    0    0  0.23638520648E+02 -0.56768315524E+02 -0.54743969107E+02  0.82336647122E+02  0.10000000000E+01 0.  0.
<mgrwt>
<rscale>  0 0.12499721E+03</rscale>
<asrwt>0</asrwt>
<pdfrwt beam="2">  1        4 0.25653733E-01 0.12499721E+03</pdfrwt>
<pdfrwt beam="1">  1       -4 0.36038220E-02 0.12499721E+03</pdfrwt>
<totfact> 0.91822776E+03</totfact>
</mgrwt>
</event>
<event>
 5    1  0.3284464E-002  0.1250006E+03  0.7818608E-02  0.1235068E+00
         -4   -1    0    0    0  501 -0.00000000000E+00  0.00000000000E+00  0.71316333217E+01  0.72438314334E+01  0.12700000000E+01 0.  1.
          4   -1    0    0  501    0  0.00000000000E+00 -0.00000000000E+00 -0.54335310229E+03  0.54335458650E+03  0.12700000000E+01 0.  1.
         25    2    1    2    0    0  0.00000000000E+00  0.00000000000E+00 -0.53622146897E+03  0.55059841793E+03  0.12500061618E+03 0.  0.
    9000005    1    3    3    0    0 -0.26072655347E+02  0.54649255630E+02 -0.33620163179E+03  0.34161215101E+03  0.10000000000E+01 0.  0.
    9000005    1    3    3    0    0  0.26072655347E+02 -0.54649255630E+02 -0.20001983717E+03  0.20898626692E+03  0.10000000000E+01 0.  0.
<mgrwt>
<rscale>  0 0.12500062E+03</rscale>
<asrwt>0</asrwt>
<pdfrwt beam="2">  1        4 0.83601497E-01 0.12500062E+03</pdfrwt>
<pdfrwt beam="1">  1       -4 0.11059196E-02 0.12500062E+03</pdfrwt>
<totfact> 0.52141553E+03</totfact>
</mgrwt>
</event>
<event>
 5    1  0.3284464E-002  0.1250005E+03  0.7818608E-02  0.1235068E+00
         -4   -1    0    0    0  501 -0.00000000000E+00  0.00000000000E+00  0.60957018454E+03  0.60957150752E+03  0.12700000000E+01 0.  1.
          4   -1    0    0  501    0  0.00000000000E+00 -0.00000000000E+00 -0.63439922576E+01  0.64698638135E+01  0.12700000000E+01 0.  1.
         25    2    1    2    0    0  0.00000000000E+00  0.00000000000E+00  0.60322619228E+03  0.61604137133E+03  0.12500052855E+03 0.  0.
    9000005    1    3    3    0    0  0.28941758523E+02 -0.41983020809E+02  0.12357325517E+03  0.13368451225E+03  0.10000000000E+01 0.  0.
    9000005    1    3    3    0    0 -0.28941758523E+02  0.41983020809E+02  0.47965293711E+03  0.48235685908E+03  0.10000000000E+01 0.  0.
<mgrwt>
<rscale>  0 0.12500053E+03</rscale>
<asrwt>0</asrwt>
<pdfrwt beam="2">  1        4 0.98578274E-03 0.12500053E+03</pdfrwt>
<pdfrwt beam="1">  1       -4 0.93789838E-01 0.12500053E+03</pdfrwt>
<totfact> 0.47869875E+03</totfact>
</mgrwt>
</event>
<event>
 5    1  0.3284464E-002  0.1250007E+03  0.7818608E-02  0.1235068E+00
         -4   -1    0    0    0  501 -0.00000000000E+00  0.00000000000E+00  0.25305426731E+03  0.25305745416E+03  0.12700000000E+01 0. -1.
          4   -1    0    0  501    0  0.00000000000E+00 -0.00000000000E+00 -0.15407177486E+02  0.15459431364E+02  0.12700000000E+01 0. -1.
         25    2    1    2    0    0  0.00000000000E+00  0.00000000000E+00  0.23764708983E+03  0.26851688552E+03  0.12500071403E+03 0.  0.
    9000005    1    3    3    0    0  0.43141075589E+02 -0.17591362533E+02  0.20829192369E+03  0.21344117202E+03  0.10000000000E+01 0.  0.
    9000005    1    3    3    0    0 -0.43141075589E+02  0.17591362533E+02  0.29355166133E+02  0.55075713499E+02  0.10000000000E+01 0.  0.
<mgrwt>
<rscale>  0 0.12500071E+03</rscale>
<asrwt>0</asrwt>
<pdfrwt beam="2">  1        4 0.23745996E-02 0.12500071E+03</pdfrwt>
<pdfrwt beam="1">  1       -4 0.38935692E-01 0.12500071E+03</pdfrwt>
<totfact> 0.79724229E+03</totfact>
</mgrwt>
</event>
<event>
 5    1  0.3284464E-002  0.1249986E+03  0.7818608E-02  0.1235071E+00
         -4   -1    0    0    0  501 -0.00000000000E+00  0.00000000000E+00  0.63708628983E+02  0.63721286136E+02  0.12700000000E+01 0.  1.
          4   -1    0    0  501    0  0.00000000000E+00 -0.00000000000E+00 -0.61287623828E+02  0.61300780863E+02  0.12700000000E+01 0.  1.
         25    2    1    2    0    0  0.00000000000E+00  0.00000000000E+00  0.24210051548E+01  0.12502206700E+03  0.12499862388E+03 0.  0.
    9000005    1    3    3    0    0 -0.49670645090E+02  0.16199202585E+02  0.35503619058E+02  0.63175106761E+02  0.10000000000E+01 0.  0.
    9000005    1    3    3    0    0  0.49670645090E+02 -0.16199202585E+02 -0.33082613903E+02  0.61846960238E+02  0.10000000000E+01 0.  0.
<mgrwt>
<rscale>  0 0.12499862E+03</rscale>
<asrwt>0</asrwt>
<pdfrwt beam="2">  1        4 0.94308510E-02 0.12499862E+03</pdfrwt>
<pdfrwt beam="1">  1       -4 0.98033132E-02 0.12499862E+03</pdfrwt>
<totfact> 0.10452708E+04</totfact>
</mgrwt>
</event>
<event>
 5    1  0.3284464E-002  0.1249997E+03  0.7818608E-02  0.1235070E+00
         -4   -1    0    0    0  501 -0.00000000000E+00  0.00000000000E+00  0.67778743931E+03  0.67778862913E+03  0.12700000000E+01 0. -1.
          4   -1    0    0  501    0  0.00000000000E+00 -0.00000000000E+00 -0.56920333356E+01  0.58319930978E+01  0.12700000000E+01 0. -1.
         25    2    1    2    0    0  0.00000000000E+00  0.00000000000E+00  0.67209540597E+03  0.68362062223E+03  0.12499968165E+03 0.  0.
    9000005    1    3    3    0    0  0.51284563522E+02 -0.11785129022E+02  0.52039645909E+03  0.52305111638E+03  0.10000000000E+01 0.  0.
    9000005    1    3    3    0    0 -0.51284563522E+02  0.11785129022E+02  0.15169894688E+03  0.16056950585E+03  0.10000000000E+01 0.  0.
<mgrwt>
<rscale>  0 0.12499968E+03</rscale>
<asrwt>0</asrwt>
<pdfrwt beam="2">  1        4 0.88655569E-03 0.12499968E+03</pdfrwt>
<pdfrwt beam="1">  1       -4 0.10428578E+00 0.12499968E+03</pdfrwt>
<totfact> 0.43965890E+03</totfact>
</mgrwt>
</event>
<event>
 5    1  0.3284464E-002  0.1249998E+03  0.7818608E-02  0.1235070E+00
          4   -1    0    0  501    0  0.00000000000E+00  0.00000000000E+00  0.13464449858E+03  0.13465048792E+03  0.12700000000E+01 0. -1.
         -4   -1    0    0    0  501 -0.00000000000E+00 -0.00000000000E+00 -0.28990974935E+02  0.29018778880E+02  0.12700000000E+01 0. -1.
         25    2    1    2    0    0  0.00000000000E+00  0.00000000000E+00  0.10565352364E+03  0.16366926680E+03  0.12499984735E+03 0.  0.
    9000005    1    3    3    0    0  0.15579684333E+02 -0.46997173477E+02  0.10275048156E+03  0.11406192327E+03  0.10000000000E+01 0.  0.
    9000005    1    3    3    0    0 -0.15579684333E+02  0.46997173477E+02  0.29030420783E+01  0.49607343529E+02  0.10000000000E+01 0.  0.
<mgrwt>
<rscale>  0 0.12499985E+03</rscale>
<asrwt>0</asrwt>
<pdfrwt beam="1">  1        4 0.20717138E-01 0.12499985E+03</pdfrwt>
<pdfrwt beam="2">  1       -4 0.44627494E-02 0.12499985E+03</pdfrwt>
<totfact> 0.96640338E+03</totfact>
</mgrwt>
</event>
<event>
 4    1  0.3284464E-002  0.1248604E+03  0.7818608E-02  0.1235288E+00
          4   -1    0    0  501    0  0.00000000000E+00  0.00000000000E+00  0.43517241578E+02  0.43535769369E+02  0.12700000000E+01 0. -1.
         -4   -1    0    0    0  501 -0.00000000000E+00 -0.00000000000E+00 -0.89520727558E+02  0.89529735633E+02  0.12700000000E+01 0. -1.
    9000005    1    1    2    0    0 -0.56362156116E+02 -0.20372340761E+02 -0.43958774440E+01  0.60100321535E+02  0.10000000000E+01 0.  0.
    9000005    1    1    2    0    0  0.56362156116E+02  0.20372340761E+02 -0.41607608537E+02  0.72965183466E+02  0.10000000000E+01 0.  0.
<mgrwt>
<rscale>  0 0.12486035E+03</rscale>
<asrwt>0</asrwt>
<pdfrwt beam="1">  1        4 0.66970784E-02 0.12486035E+03</pdfrwt>
<pdfrwt beam="2">  1       -4 0.13774538E-01 0.12486035E+03</pdfrwt>
<totfact> 0.10311454E+04</totfact>
</mgrwt>
</event>
<event>
 5    1  0.3284464E-002  0.1249993E+03  0.7818608E-02  0.1235070E+00
          4   -1    0    0  501    0  0.00000000000E+00  0.00000000000E+00  0.49219582922E+01  0.50831656898E+01  0.12700000000E+01 0.  1.
         -4   -1    0    0    0  501 -0.00000000000E+00 -0.00000000000E+00 -0.78067894130E+03  0.78067997431E+03  0.12700000000E+01 0.  1.
         25    2    1    2    0    0  0.00000000000E+00  0.00000000000E+00 -0.77575698301E+03  0.78576314000E+03  0.12499926199E+03 0.  0.
    9000005    1    3    3    0    0 -0.49703825550E+01 -0.40146009788E+02 -0.68729933515E+03  0.68848949368E+03  0.10000000000E+01 0.  0.
    9000005    1    3    3    0    0  0.49703825550E+01  0.40146009788E+02 -0.88457647857E+02  0.97273646323E+02  0.10000000000E+01 0.  0.
<mgrwt>
<rscale>  0 0.12499926E+03</rscale>
<asrwt>0</asrwt>
<pdfrwt beam="1">  1        4 0.76970500E-03 0.12499926E+03</pdfrwt>
<pdfrwt beam="2">  1       -4 0.12011684E+00 0.12499926E+03</pdfrwt>
<totfact> 0.38908910E+03</totfact>
</mgrwt>
</event>
<event>
 5    1  0.3284464E-002  0.1249891E+03  0.7818608E-02  0.1235086E+00
          4   -1    0    0  501    0  0.00000000000E+00  0.00000000000E+00  0.92274628488E+02  0.92283367746E+02  0.12700000000E+01 0.  1.
         -4   -1    0    0    0  501 -0.00000000000E+00 -0.00000000000E+00 -0.42305198534E+02  0.42324256910E+02  0.12700000000E+01 0.  1.
         25    2    1    2    0    0  0.00000000000E+00  0.00000000000E+00  0.49969429954E+02  0.13460762466E+03  0.12498907427E+03 0.  0.
    9000005    1    3    3    0    0 -0.21059308812E+01  0.30975681780E+02  0.83385474112E+02  0.88983510267E+02  0.10000000000E+01 0.  0.
    9000005    1    3    3    0    0  0.21059308812E+01 -0.30975681780E+02 -0.33416044158E+02  0.45624114389E+02  0.10000000000E+01 0.  0.
<mgrwt>
<rscale>  0 0.12498907E+03</rscale>
<asrwt>0</asrwt>
<pdfrwt beam="1">  1        4 0.14198235E-01 0.12498907E+03</pdfrwt>
<pdfrwt beam="2">  1       -4 0.65106305E-02 0.12498907E+03</pdfrwt>
<totfact> 0.10248873E+04</totfact>
</mgrwt>
</event>
<event>
 5    1  0.3284464E-002  0.1250000E+03  0.7818608E-02  0.1235069E+00
          4   -1    0    0  501    0  0.00000000000E+00  0.00000000000E+00  0.83638940512E+02  0.83648581996E+02  0.12700000000E+01 0. -1.
         -4   -1    0    0    0  501 -0.00000000000E+00 -0.00000000000E+00 -0.46682787046E+02  0.46700058954E+02  0.12700000000E+01 0. -1.
         25    2    1    2    0    0  0.00000000000E+00  0.00000000000E+00  0.36956153467E+02  0.13034864095E+03  0.12500004367E+03 0.  0.
    9000005    1    3    3    0    0  0.27036043437E+02  0.29859752722E+02 -0.31343880675E+02  0.51048911184E+02  0.10000000000E+01 0.  0.
    9000005    1    3    3    0    0 -0.27036043437E+02 -0.29859752722E+02  0.68300034142E+02  0.79299729767E+02  0.10000000000E+01 0.  0.
<mgrwt>
<rscale>  0 0.12500004E+03</rscale>
<asrwt>0</asrwt>
<pdfrwt beam="1">  1        4 0.12869599E-01 0.12500004E+03</pdfrwt>
<pdfrwt beam="2">  1       -4 0.71840376E-02 0.12500004E+03</pdfrwt>
<totfact> 0.10337045E+04</totfact>
</mgrwt>
</event>
<event>
 5    1  0.3284464E-002  0.1250020E+03  0.7818608E-02  0.1235066E+00
         -4   -1    0    0    0  501 -0.00000000000E+00  0.00000000000E+00  0.13839723143E+03  0.13840305837E+03  0.12700000000E+01 0.  1.
          4   -1    0    0  501    0  0.00000000000E+00 -0.00000000000E+00 -0.28205113334E+02  0.28233691189E+02  0.12700000000E+01 0.  1.
         25    2    1    2    0    0  0.00000000000E+00  0.00000000000E+00  0.11019211809E+03  0.16663674956E+03  0.12500201364E+03 0.  0.
    9000005    1    3    3    0    0  0.48809666253E+02  0.38611430380E+02  0.47537434649E+02  0.78320072579E+02  0.10000000000E+01 0.  0.
    9000005    1    3    3    0    0 -0.48809666253E+02 -0.38611430380E+02  0.62654683445E+02  0.88316676983E+02  0.10000000000E+01 0.  0.
<mgrwt>
<rscale>  0 0.12500201E+03</rscale>
<asrwt>0</asrwt>
<pdfrwt beam="2">  1        4 0.43418947E-02 0.12500201E+03</pdfrwt>
<pdfrwt beam="1">  1       -4 0.21294529E-01 0.12500201E+03</pdfrwt>
<totfact> 0.96073967E+03</totfact>
</mgrwt>
</event>
<event>
 5    1  0.3284464E-002  0.1250002E+03  0.7818608E-02  0.1235069E+00
         -4   -1    0    0    0  501 -0.00000000000E+00  0.00000000000E+00  0.70246536402E+03  0.70246651204E+03  0.12700000000E+01 0. -1.
          4   -1    0    0  501    0  0.00000000000E+00 -0.00000000000E+00 -0.54871129844E+01  0.56321673362E+01  0.12700000000E+01 0. -1.
         25    2    1    2    0    0  0.00000000000E+00  0.00000000000E+00  0.69697825103E+03  0.70809867938E+03  0.12500022931E+03 0.  0.
    9000005    1    3    3    0    0 -0.18516642094E+01 -0.35336138469E+01  0.70177107311E+03  0.70178312472E+03  0.10000000000E+01 0.  0.
    9000005    1    3    3    0    0  0.18516642094E+01  0.35336138469E+01 -0.47928220794E+01  0.63155546588E+01  0.10000000000E+01 0.  0.
<mgrwt>
<rscale>  0 0.12500023E+03</rscale>
<asrwt>0</asrwt>
<pdfrwt beam="2">  1        4 0.85541779E-03 0.12500023E+03</pdfrwt>
<pdfrwt beam="1">  1       -4 0.10808281E+00 0.12500023E+03</pdfrwt>
<totfact> 0.42662408E+03</totfact>
</mgrwt>
</event>
<event>
 5    1  0.3284464E-002  0.1249992E+03  0.7818608E-02  0.1235071E+00
          4   -1    0    0  501    0  0.00000000000E+00  0.00000000000E+00  0.16993381602E+03  0.16993856163E+03  0.12700000000E+01 0.  1.
         -4   -1    0    0    0  501 -0.00000000000E+00 -0.00000000000E+00 -0.22963966189E+02  0.22999057440E+02  0.12700000000E+01 0.  1.
         25    2    1    2    0    0  0.00000000000E+00  0.00000000000E+00  0.14696984983E+03  0.19293761907E+03  0.12499915236E+03 0.  0.
    9000005    1    3    3    0    0  0.90540004924E+01 -0.59787403189E+02  0.97825885543E+02  0.11501048816E+03  0.10000000000E+01 0.  0.
    9000005    1    3    3    0    0 -0.90540004924E+01  0.59787403189E+02  0.49143964289E+02  0.77927130905E+02  0.10000000000E+01 0.  0.
<mgrwt>
<rscale>  0 0.12499915E+03</rscale>
<asrwt>0</asrwt>
<pdfrwt beam="1">  1        4 0.26146729E-01 0.12499915E+03</pdfrwt>
<pdfrwt beam="2">  1       -4 0.35359822E-02 0.12499915E+03</pdfrwt>
<totfact> 0.91340409E+03</totfact>
</mgrwt>
</event>
<event>
 5    1  0.3284464E-002  0.1249944E+03  0.7818608E-02  0.1235078E+00
          4   -1    0    0  501    0  0.00000000000E+00  0.00000000000E+00  0.20069426577E+03  0.20069828403E+03  0.12700000000E+01 0.  1.
         -4   -1    0    0    0  501 -0.00000000000E+00 -0.00000000000E+00 -0.19437003980E+02  0.19478450239E+02  0.12700000000E+01 0.  1.
         25    2    1    2    0    0  0.00000000000E+00  0.00000000000E+00  0.18125726179E+03  0.22017673427E+03  0.12499439733E+03 0.  0.
    9000005    1    3    3    0    0  0.30604772775E+02  0.52270231717E+02  0.11769324450E+03  0.13236891267E+03  0.10000000000E+01 0.  0.
    9000005    1    3    3    0    0 -0.30604772775E+02 -0.52270231717E+02  0.63564017290E+02  0.87807821601E+02  0.10000000000E+01 0.  0.
<mgrwt>
<rscale>  0 0.12499440E+03</rscale>
<asrwt>0</asrwt>
<pdfrwt beam="1">  1        4 0.30879539E-01 0.12499440E+03</pdfrwt>
<pdfrwt beam="2">  1       -4 0.29938055E-02 0.12499440E+03</pdfrwt>
<totfact> 0.86851258E+03</totfact>
</mgrwt>
</event>
<event>
 5    1  0.3284464E-002  0.1250073E+03  0.7818608E-02  0.1235058E+00
         -4   -1    0    0    0  501 -0.00000000000E+00  0.00000000000E+00  0.15982381842E+03  0.15982886421E+03  0.12700000000E+01 0.  1.
          4   -1    0    0  501    0  0.00000000000E+00 -0.00000000000E+00 -0.24421898979E+02  0.24454898277E+02  0.12700000000E+01 0.  1.
         25    2    1    2    0    0  0.00000000000E+00  0.00000000000E+00  0.13540191944E+03  0.18428376248E+03  0.12500730110E+03 0.  0.
    9000005    1    3    3    0    0 -0.59552112191E+02 -0.18444304486E+02  0.61265019944E+02  0.87413094575E+02  0.10000000000E+01 0.  0.
    9000005    1    3    3    0    0  0.59552112191E+02  0.18444304486E+02  0.74136899494E+02  0.96870667908E+02  0.10000000000E+01 0.  0.
<mgrwt>
<rscale>  0 0.12500730E+03</rscale>
<asrwt>0</asrwt>
<pdfrwt beam="2">  1        4 0.37601419E-02 0.12500730E+03</pdfrwt>
<pdfrwt beam="1">  1       -4 0.24591206E-01 0.12500730E+03</pdfrwt>
<totfact> 0.92836354E+03</totfact>
</mgrwt>
</event>
<event>
 5    1  0.3284464E-002  0.1250009E+03  0.7818608E-02  0.1235068E+00
         -4   -1    0    0    0  501 -0.00000000000E+00  0.00000000000E+00  0.15916271935E+04  0.15916277002E+04  0.12700000000E+01 0. -1.
          4   -1    0    0  501    0  0.00000000000E+00 -0.00000000000E+00 -0.22894486925E+01  0.26181052912E+01  0.12700000000E+01 0. -1.
         25    2    1    2    0    0  0.00000000000E+00  0.00000000000E+00  0.15893377448E+04  0.15942458055E+04  0.12500088480E+03 0.  0.
    9000005    1    3    3    0    0 -0.14344989710E+02 -0.52047530140E+02  0.11960779888E+04  0.11972962371E+04  0.10000000000E+01 0.  0.
    9000005    1    3    3    0    0  0.14344989710E+02  0.52047530140E+02  0.39325975601E+03  0.39694956836E+03  0.10000000000E+01 0.  0.
<mgrwt>
<rscale>  0 0.12500088E+03</rscale>
<asrwt>0</asrwt>
<pdfrwt beam="2">  1        4 0.37754316E-03 0.12500088E+03</pdfrwt>
<pdfrwt beam="1">  1       -4 0.24489102E+00 0.12500088E+03</pdfrwt>
<totfact> 0.16149982E+03</totfact>
</mgrwt>
</event>
<event>
 4    1  0.3284464E-002  0.1252328E+03  0.7818608E-02  0.1234706E+00
         -4   -1    0    0    0  501 -0.00000000000E+00  0.00000000000E+00  0.34765517243E+01  0.37012581499E+01  0.12700000000E+01 0. -1.
          4   -1    0    0  501    0  0.00000000000E+00 -0.00000000000E+00 -0.10922573204E+04  0.10922580587E+04  0.12700000000E+01 0. -1.
    9000005    1    1    2    0    0  0.27917976023E+02 -0.23616272649E+01 -0.10343754839E+04  0.10347553490E+04  0.10000000000E+01 0.  0.
    9000005    1    1    2    0    0 -0.27917976023E+02  0.23616272649E+01 -0.54405284779E+02  0.61203967848E+02  0.10000000000E+01 0.  0.
<mgrwt>
<rscale>  0 0.12523283E+03</rscale>
<asrwt>0</asrwt>
<pdfrwt beam="2">  1        4 0.16805666E+00 0.12523283E+03</pdfrwt>
<pdfrwt beam="1">  1       -4 0.55219689E-03 0.12523283E+03</pdfrwt>
<totfact> 0.27462299E+03</totfact>
</mgrwt>
</event>
<event>
 5    1  0.3284464E-002  0.1249987E+03  0.7818608E-02  0.1235071E+00
          4   -1    0    0  501    0  0.00000000000E+00  0.00000000000E+00  0.11600480432E+02  0.11669792040E+02  0.12700000000E+01 0. -1.
         -4   -1    0    0    0  501 -0.00000000000E+00 -0.00000000000E+00 -0.33565111517E+03  0.33565351781E+03  0.12700000000E+01 0. -1.
         25    2    1    2    0    0  0.00000000000E+00  0.00000000000E+00 -0.32405063474E+03  0.34732330985E+03  0.12499867074E+03 0.  0.
    9000005    1    3    3    0    0  0.15507275153E+02 -0.48844710737E+02 -0.62657813523E+02  0.80952349843E+02  0.10000000000E+01 0.  0.
    9000005    1    3    3    0    0 -0.15507275153E+02  0.48844710737E+02 -0.26139282122E+03  0.26637096001E+03  0.10000000000E+01 0.  0.
<mgrwt>
<rscale>  0 0.12499867E+03</rscale>
<asrwt>0</asrwt>
<pdfrwt beam="1">  1        4 0.17902060E-02 0.12499867E+03</pdfrwt>
<pdfrwt beam="2">  1       -4 0.51644142E-01 0.12499867E+03</pdfrwt>
<totfact> 0.70022095E+03</totfact>
</mgrwt>
</event>
<event>
 5    1  0.3284464E-002  0.1249911E+03  0.7818608E-02  0.1235083E+00
         -4   -1    0    0    0  501 -0.00000000000E+00  0.00000000000E+00  0.21616921305E+02  0.21654195591E+02  0.12700000000E+01 0.  1.
          4   -1    0    0  501    0  0.00000000000E+00 -0.00000000000E+00 -0.18048244794E+03  0.18048691619E+03  0.12700000000E+01 0.  1.
         25    2    1    2    0    0  0.00000000000E+00  0.00000000000E+00 -0.15886552663E+03  0.20214111178E+03  0.12499109375E+03 0.  0.
    9000005    1    3    3    0    0 -0.40789544206E+02 -0.45929490523E+02 -0.97970385765E+02  0.11563953261E+03  0.10000000000E+01 0.  0.
    9000005    1    3    3    0    0  0.40789544206E+02  0.45929490523E+02 -0.60895140870E+02  0.86501579163E+02  0.10000000000E+01 0.  0.
<mgrwt>
<rscale>  0 0.12499109E+03</rscale>
<asrwt>0</asrwt>
<pdfrwt beam="2">  1        4 0.27769740E-01 0.12499109E+03</pdfrwt>
<pdfrwt beam="1">  1       -4 0.33288913E-02 0.12499109E+03</pdfrwt>
<totfact> 0.89793534E+03</totfact>
</mgrwt>
</event>
<event>
 5    1  0.3284464E-002  0.1250021E+03  0.7818608E-02  0.1235066E+00
         -4   -1    0    0    0  501 -0.00000000000E+00  0.00000000000E+00  0.94908312644E+01  0.95754257393E+01  0.12700000000E+01 0.  1.
          4   -1    0    0  501    0  0.00000000000E+00 -0.00000000000E+00 -0.40968346903E+03  0.40968543750E+03  0.12700000000E+01 0.  1.
         25    2    1    2    0    0  0.00000000000E+00  0.00000000000E+00 -0.40019263777E+03  0.41926086324E+03  0.12500209646E+03 0.  0.
    9000005    1    3    3    0    0 -0.15212674107E+02 -0.52925715030E+02 -0.29918645684E+03  0.30421389305E+03  0.10000000000E+01 0.  0.
    9000005    1    3    3    0    0  0.15212674107E+02  0.52925715030E+02 -0.10100618093E+03  0.11504697019E+03  0.10000000000E+01 0.  0.
<mgrwt>
<rscale>  0 0.12500210E+03</rscale>
<asrwt>0</asrwt>
<pdfrwt beam="2">  1        4 0.63034871E-01 0.12500210E+03</pdfrwt>
<pdfrwt beam="1">  1       -4 0.14667869E-02 0.12500210E+03</pdfrwt>
<totfact> 0.62718746E+03</totfact>
</mgrwt>
</event>
<event>
 5    1  0.3284464E-002  0.1249996E+03  0.7818608E-02  0.1235070E+00
          4   -1    0    0  501    0  0.00000000000E+00  0.00000000000E+00  0.45704520000E+02  0.45722161459E+02  0.12700000000E+01 0. -1.
         -4   -1    0    0    0  501 -0.00000000000E+00 -0.00000000000E+00 -0.85428081349E+02  0.85437520931E+02  0.12700000000E+01 0. -1.
         25    2    1    2    0    0  0.00000000000E+00  0.00000000000E+00 -0.39723561348E+02  0.13115968239E+03  0.12499960383E+03 0.  0.
    9000005    1    3    3    0    0 -0.41394465342E+02  0.26494251760E+02 -0.60361546584E+02  0.77845767022E+02  0.10000000000E+01 0.  0.
    9000005    1    3    3    0    0  0.41394465342E+02 -0.26494251760E+02  0.20637985236E+02  0.53313915368E+02  0.10000000000E+01 0.  0.
<mgrwt>
<rscale>  0 0.12499960E+03</rscale>
<asrwt>0</asrwt>
<pdfrwt beam="1">  1        4 0.70335478E-02 0.12499960E+03</pdfrwt>
<pdfrwt beam="2">  1       -4 0.13144865E-01 0.12499960E+03</pdfrwt>
<totfact> 0.10319759E+04</totfact>
</mgrwt>
</event>
<event>
 5    1  0.3284464E-002  0.1250025E+03  0.7818608E-02  0.1235065E+00
          4   -1    0    0  501    0  0.00000000000E+00  0.00000000000E+00  0.17879451938E+03  0.17879902981E+03  0.12700000000E+01 0.  1.
         -4   -1    0    0    0  501 -0.00000000000E+00 -0.00000000000E+00 -0.21825324166E+02  0.21862243136E+02  0.12700000000E+01 0.  1.
         25    2    1    2    0    0  0.00000000000E+00  0.00000000000E+00  0.15696919522E+03  0.20066127295E+03  0.12500247283E+03 0.  0.
    9000005    1    3    3    0    0 -0.55144353352E+00  0.62487764724E+02  0.77495410195E+02  0.99556835182E+02  0.10000000000E+01 0.  0.
    9000005    1    3    3    0    0  0.55144353352E+00 -0.62487764724E+02  0.79473785021E+02  0.10110443776E+03  0.10000000000E+01 0.  0.
<mgrwt>
<rscale>  0 0.12500247E+03</rscale>
<asrwt>0</asrwt>
<pdfrwt beam="1">  1        4 0.27510035E-01 0.12500247E+03</pdfrwt>
<pdfrwt beam="2">  1       -4 0.33609291E-02 0.12500247E+03</pdfrwt>
<totfact> 0.90019116E+03</totfact>
</mgrwt>
</event>
<event>
 5    1  0.3284464E-002  0.1249985E+03  0.7818608E-02  0.1235072E+00
         -4   -1    0    0    0  501 -0.00000000000E+00  0.00000000000E+00  0.33786443241E+03  0.33786681931E+03  0.12700000000E+01 0.  1.
          4   -1    0    0  501    0  0.00000000000E+00 -0.00000000000E+00 -0.11524004968E+02  0.11593773781E+02  0.12700000000E+01 0.  1.
         25    2    1    2    0    0  0.00000000000E+00  0.00000000000E+00  0.32634042744E+03  0.34946059309E+03  0.12499852614E+03 0.  0.
    9000005    1    3    3    0    0 -0.41023077188E+02 -0.97516069383E+01  0.29211225404E+03  0.29514158578E+03  0.10000000000E+01 0.  0.
    9000005    1    3    3    0    0  0.41023077188E+02  0.97516069383E+01  0.34228173405E+02  0.54319007304E+02  0.10000000000E+01 0.  0.
<mgrwt>
<rscale>  0 0.12499853E+03</rscale>
<asrwt>0</asrwt>
<pdfrwt beam="2">  1        4 0.17784742E-02 0.12499853E+03</pdfrwt>
<pdfrwt beam="1">  1       -4 0.51984696E-01 0.12499853E+03</pdfrwt>
<totfact> 0.69786211E+03</totfact>
</mgrwt>
</event>
<event>
 5    1  0.3284464E-002  0.1250004E+03  0.7818608E-02  0.1235069E+00
          4   -1    0    0  501    0  0.00000000000E+00  0.00000000000E+00  0.31377686814E+03  0.31377943827E+03  0.12700000000E+01 0. -1.
         -4   -1    0    0    0  501 -0.00000000000E+00 -0.00000000000E+00 -0.12414200471E+02  0.12478993282E+02  0.12700000000E+01 0. -1.
         25    2    1    2    0    0  0.00000000000E+00  0.00000000000E+00  0.30136266767E+03  0.32625843155E+03  0.12500042677E+03 0.  0.
    9000005    1    3    3    0    0  0.20841599729E+02  0.56971901969E+02  0.18984150092E+03  0.19930119258E+03  0.10000000000E+01 0.  0.
    9000005    1    3    3    0    0 -0.20841599729E+02 -0.56971901969E+02  0.11152116675E+03  0.12695723897E+03  0.10000000000E+01 0.  0.
<mgrwt>
<rscale>  0 0.12500043E+03</rscale>
<asrwt>0</asrwt>
<pdfrwt beam="1">  1        4 0.48278542E-01 0.12500043E+03</pdfrwt>
<pdfrwt beam="2">  1       -4 0.19150589E-02 0.12500043E+03</pdfrwt>
<totfact> 0.72417216E+03</totfact>
</mgrwt>
</event>
<event>
 5    1  0.3284464E-002  0.1250387E+03  0.7818608E-02  0.1235009E+00
         -4   -1    0    0    0  501 -0.00000000000E+00  0.00000000000E+00  0.55293229268E+02  0.55307812313E+02  0.12700000000E+01 0.  1.
          4   -1    0    0  501    0  0.00000000000E+00 -0.00000000000E+00 -0.70660184437E+02  0.70671596590E+02  0.12700000000E+01 0.  1.
         25    2    1    2    0    0  0.00000000000E+00  0.00000000000E+00 -0.15366955169E+02  0.12597940890E+03  0.12503866665E+03 0.  0.
    9000005    1    3    3    0    0  0.51118991920E+02  0.33558846626E+02  0.53879334366E+01  0.61395255098E+02  0.10000000000E+01 0.  0.
    9000005    1    3    3    0    0 -0.51118991920E+02 -0.33558846626E+02 -0.20754888606E+02  0.64584153806E+02  0.10000000000E+01 0.  0.
<mgrwt>
<rscale>  0 0.12503867E+03</rscale>
<asrwt>0</asrwt>
<pdfrwt beam="2">  1        4 0.10872797E-01 0.12503867E+03</pdfrwt>
<pdfrwt beam="1">  1       -4 0.85086503E-02 0.12503867E+03</pdfrwt>
<totfact> 0.10422311E+04</totfact>
</mgrwt>
</event>
<event>
 5    1  0.3284464E-002  0.1249997E+03  0.7818608E-02  0.1235070E+00
         -4   -1    0    0    0  501 -0.00000000000E+00  0.00000000000E+00  0.23972429178E+02  0.24006046337E+02  0.12700000000E+01 0. -1.
          4   -1    0    0  501    0  0.00000000000E+00 -0.00000000000E+00 -0.16279664105E+03  0.16280159470E+03  0.12700000000E+01 0. -1.
         25    2    1    2    0    0  0.00000000000E+00  0.00000000000E+00 -0.13882421187E+03  0.18680764104E+03  0.12499973179E+03 0.  0.
    9000005    1    3    3    0    0 -0.33814034930E+02  0.52231163884E+02 -0.60730078680E+02  0.86951859643E+02  0.10000000000E+01 0.  0.
    9000005    1    3    3    0    0  0.33814034930E+02 -0.52231163884E+02 -0.78094133189E+02  0.99855781392E+02  0.10000000000E+01 0.  0.
<mgrwt>
<rscale>  0 0.12499973E+03</rscale>
<asrwt>0</asrwt>
<pdfrwt beam="2">  1        4 0.25048603E-01 0.12499973E+03</pdfrwt>
<pdfrwt beam="1">  1       -4 0.36910331E-02 0.12499973E+03</pdfrwt>
<totfact> 0.92406316E+03</totfact>
</mgrwt>
</event>
<event>
 5    1  0.3284464E-002  0.1250002E+03  0.7818608E-02  0.1235069E+00
         -4   -1    0    0    0  501 -0.00000000000E+00  0.00000000000E+00  0.76356765610E+01  0.77405721071E+01  0.12700000000E+01 0. -1.
          4   -1    0    0  501    0  0.00000000000E+00 -0.00000000000E+00 -0.50798437526E+03  0.50798596280E+03  0.12700000000E+01 0. -1.
         25    2    1    2    0    0  0.00000000000E+00  0.00000000000E+00 -0.50034869870E+03  0.51572653491E+03  0.12500015410E+03 0.  0.
    9000005    1    3    3    0    0  0.27692557878E+02  0.49384510990E+01 -0.48040746169E+03  0.48123133243E+03  0.10000000000E+01 0.  0.
    9000005    1    3    3    0    0 -0.27692557878E+02 -0.49384510990E+01 -0.19941237005E+02  0.34495202483E+02  0.10000000000E+01 0.  0.
<mgrwt>
<rscale>  0 0.12500015E+03</rscale>
<asrwt>0</asrwt>
<pdfrwt beam="2">  1        4 0.78159607E-01 0.12500015E+03</pdfrwt>
<pdfrwt beam="1">  1       -4 0.11829109E-02 0.12500015E+03</pdfrwt>
<totfact> 0.54664324E+03</totfact>
</mgrwt>
</event>
<event>
 5    1  0.3284464E-002  0.1250021E+03  0.7818608E-02  0.1235066E+00
          4   -1    0    0  501    0  0.00000000000E+00  0.00000000000E+00  0.14217176879E+04  0.14217182552E+04  0.12700000000E+01 0. -1.
         -4   -1    0    0    0  501 -0.00000000000E+00 -0.00000000000E+00 -0.26002975066E+01  0.28938637015E+01  0.12700000000E+01 0. -1.
         25    2    1    2    0    0  0.00000000000E+00  0.00000000000E+00  0.14191173904E+04  0.14246121189E+04  0.12500208567E+03 0.  0.
    9000005    1    3    3    0    0  0.86362962002E+01  0.14709895881E+02  0.13947286419E+04  0.13948333059E+04  0.10000000000E+01 0.  0.
    9000005    1    3    3    0    0 -0.86362962002E+01 -0.14709895881E+02  0.24388748553E+02  0.29778813020E+02  0.10000000000E+01 0.  0.
<mgrwt>
<rscale>  0 0.12500209E+03</rscale>
<asrwt>0</asrwt>
<pdfrwt beam="1">  1        4 0.21874799E+00 0.12500209E+03</pdfrwt>
<pdfrwt beam="2">  1       -4 0.42267227E-03 0.12500209E+03</pdfrwt>
<totfact> 0.19458019E+03</totfact>
</mgrwt>
</event>
<event>
 5    1  0.3284464E-002  0.1249999E+03  0.7818608E-02  0.1235069E+00
         -4   -1    0    0    0  501 -0.00000000000E+00  0.00000000000E+00  0.42229673020E+02  0.42248765466E+02  0.12700000000E+01 0. -1.
          4   -1    0    0  501    0  0.00000000000E+00 -0.00000000000E+00 -0.92455570086E+02  0.92464292242E+02  0.12700000000E+01 0. -1.
         25    2    1    2    0    0  0.00000000000E+00  0.00000000000E+00 -0.50225897066E+02  0.13471305771E+03  0.12499986872E+03 0.  0.
    9000005    1    3    3    0    0  0.21087021401E+02 -0.55292012833E+02 -0.46757737505E+02  0.75426488526E+02  0.10000000000E+01 0.  0.
    9000005    1    3    3    0    0 -0.21087021401E+02  0.55292012833E+02 -0.34681595606E+01  0.59286569183E+02  0.10000000000E+01 0.  0.
<mgrwt>
<rscale>  0 0.12499987E+03</rscale>
<asrwt>0</asrwt>
<pdfrwt beam="2">  1        4 0.14226073E-01 0.12499987E+03</pdfrwt>
<pdfrwt beam="1">  1       -4 0.64990124E-02 0.12499987E+03</pdfrwt>
<totfact> 0.10244153E+04</totfact>
</mgrwt>
</event>
<event>
 5    1  0.3284464E-002  0.1250006E+03  0.7818608E-02  0.1235068E+00
         -4   -1    0    0    0  501 -0.00000000000E+00  0.00000000000E+00  0.25281837554E+03  0.25282156536E+03  0.12700000000E+01 0.  1.
          4   -1    0    0  501    0  0.00000000000E+00 -0.00000000000E+00 -0.15421570386E+02  0.15473775660E+02  0.12700000000E+01 0.  1.
         25    2    1    2    0    0  0.00000000000E+00  0.00000000000E+00  0.23739680516E+03  0.26829534102E+03  0.12500058766E+03 0.  0.
    9000005    1    3    3    0    0  0.22795410854E+02  0.58067102302E+02  0.11070555045E+03  0.12707532422E+03  0.10000000000E+01 0.  0.
    9000005    1    3    3    0    0 -0.22795410854E+02 -0.58067102302E+02  0.12669125471E+03  0.14122001680E+03  0.10000000000E+01 0.  0.
<mgrwt>
<rscale>  0 0.12500059E+03</rscale>
<asrwt>0</asrwt>
<pdfrwt beam="2">  1        4 0.23768107E-02 0.12500059E+03</pdfrwt>
<pdfrwt beam="1">  1       -4 0.38899391E-01 0.12500059E+03</pdfrwt>
<totfact> 0.79754800E+03</totfact>
</mgrwt>
</event>
<event>
 5    1  0.3284464E-002  0.1249962E+03  0.7818608E-02  0.1235075E+00
         -4   -1    0    0    0  501 -0.00000000000E+00  0.00000000000E+00  0.11149176351E+02  0.11221275922E+02  0.12700000000E+01 0. -1.
          4   -1    0    0  501    0  0.00000000000E+00 -0.00000000000E+00 -0.34913844121E+03  0.34914075103E+03  0.12700000000E+01 0. -1.
         25    2    1    2    0    0  0.00000000000E+00  0.00000000000E+00 -0.33798926486E+03  0.36036202695E+03  0.12499618918E+03 0.  0.
    9000005    1    3    3    0    0 -0.22807882056E+02 -0.58176299055E+02 -0.16733704990E+03  0.17862634051E+03  0.10000000000E+01 0.  0.
    9000005    1    3    3    0    0  0.22807882056E+02  0.58176299055E+02 -0.17065221496E+03  0.18173568644E+03  0.10000000000E+01 0.  0.
<mgrwt>
<rscale>  0 0.12499619E+03</rscale>
<asrwt>0</asrwt>
<pdfrwt beam="2">  1        4 0.53719322E-01 0.12499619E+03</pdfrwt>
<pdfrwt beam="1">  1       -4 0.17209820E-02 0.12499619E+03</pdfrwt>
<totfact> 0.68605236E+03</totfact>
</mgrwt>
</event>
<event>
 5    1  0.3284464E-002  0.1250173E+03  0.7818608E-02  0.1235042E+00
         -4   -1    0    0    0  501 -0.00000000000E+00  0.00000000000E+00  0.31022502707E+02  0.31048487471E+02  0.12700000000E+01 0.  1.
          4   -1    0    0  501    0  0.00000000000E+00 -0.00000000000E+00 -0.12586960389E+03  0.12587601075E+03  0.12700000000E+01 0.  1.
         25    2    1    2    0    0  0.00000000000E+00  0.00000000000E+00 -0.94847101179E+02  0.15692449822E+03  0.12501730096E+03 0.  0.
    9000005    1    3    3    0    0  0.29546148810E+01  0.17347966510E+02 -0.12270183281E+03  0.12396137086E+03  0.10000000000E+01 0.  0.
    9000005    1    3    3    0    0 -0.29546148810E+01 -0.17347966510E+02  0.27854731630E+02  0.32963127360E+02  0.10000000000E+01 0.  0.
<mgrwt>
<rscale>  0 0.12501730E+03</rscale>
<asrwt>0</asrwt>
<pdfrwt beam="2">  1        4 0.19367046E-01 0.12501730E+03</pdfrwt>
<pdfrwt beam="1">  1       -4 0.47751844E-02 0.12501730E+03</pdfrwt>
<totfact> 0.97900926E+03</totfact>
</mgrwt>
</event>
<event>
 5    1  0.3284464E-002  0.1249942E+03  0.7818608E-02  0.1235078E+00
          4   -1    0    0  501    0  0.00000000000E+00  0.00000000000E+00  0.81190699236E+02  0.81200631416E+02  0.12700000000E+01 0.  1.
         -4   -1    0    0    0  501 -0.00000000000E+00 -0.00000000000E+00 -0.48086293001E+02  0.48103060969E+02  0.12700000000E+01 0.  1.
         25    2    1    2    0    0  0.00000000000E+00  0.00000000000E+00  0.33104406234E+02  0.12930369238E+03  0.12499417247E+03 0.  0.
    9000005    1    3    3    0    0  0.52391767355E+01 -0.44237984418E+02  0.61885912439E+02  0.76258208716E+02  0.10000000000E+01 0.  0.
    9000005    1    3    3    0    0 -0.52391767355E+01  0.44237984418E+02 -0.28781506205E+02  0.53045483668E+02  0.10000000000E+01 0.  0.
<mgrwt>
<rscale>  0 0.12499417E+03</rscale>
<asrwt>0</asrwt>
<pdfrwt beam="1">  1        4 0.12492930E-01 0.12499417E+03</pdfrwt>
<pdfrwt beam="2">  1       -4 0.73999452E-02 0.12499417E+03</pdfrwt>
<totfact> 0.10360788E+04</totfact>
</mgrwt>
</event>
<event>
 5    1  0.3284464E-002  0.1249993E+03  0.7818608E-02  0.1235070E+00
         -4   -1    0    0    0  501 -0.00000000000E+00  0.00000000000E+00  0.19063288924E+03  0.19063711957E+03  0.12700000000E+01 0. -1.
          4   -1    0    0  501    0  0.00000000000E+00 -0.00000000000E+00 -0.20466571897E+02  0.20505937316E+02  0.12700000000E+01 0. -1.
         25    2    1    2    0    0  0.00000000000E+00  0.00000000000E+00  0.17016631734E+03  0.21114305689E+03  0.12499925966E+03 0.  0.
    9000005    1    3    3    0    0 -0.99674557893E+00  0.28622819759E+02 -0.87363244173E+01  0.29959684195E+02  0.10000000000E+01 0.  0.
    9000005    1    3    3    0    0  0.99674557893E+00 -0.28622819759E+02  0.17890264176E+03  0.18118337270E+03  0.10000000000E+01 0.  0.
<mgrwt>
<rscale>  0 0.12499926E+03</rscale>
<asrwt>0</asrwt>
<pdfrwt beam="2">  1        4 0.31520569E-02 0.12499926E+03</pdfrwt>
<pdfrwt beam="1">  1       -4 0.29331490E-01 0.12499926E+03</pdfrwt>
<totfact> 0.88291005E+03</totfact>
</mgrwt>
</event>
<event>
 5    1  0.3284464E-002  0.1250025E+03  0.7818608E-02  0.1235065E+00
         -4   -1    0    0    0  501 -0.00000000000E+00  0.00000000000E+00  0.19231688897E+03  0.19232108227E+03  0.12700000000E+01 0.  1.
          4   -1    0    0  501    0  0.00000000000E+00 -0.00000000000E+00 -0.20288067338E+02  0.20327778440E+02  0.12700000000E+01 0.  1.
         25    2    1    2    0    0  0.00000000000E+00  0.00000000000E+00  0.17202882164E+03  0.21264886071E+03  0.12500248992E+03 0.  0.
    9000005    1    3    3    0    0  0.46725642340E+02 -0.12422154686E+02  0.15337271076E+03  0.16081599418E+03  0.10000000000E+01 0.  0.
    9000005    1    3    3    0    0 -0.46725642340E+02  0.12422154686E+02  0.18656110876E+02  0.51832866525E+02  0.10000000000E+01 0.  0.
<mgrwt>
<rscale>  0 0.12500249E+03</rscale>
<asrwt>0</asrwt>
<pdfrwt beam="2">  1        4 0.31246184E-02 0.12500249E+03</pdfrwt>
<pdfrwt beam="1">  1       -4 0.29590590E-01 0.12500249E+03</pdfrwt>
<totfact> 0.88040206E+03</totfact>
</mgrwt>
</event>
<event>
 5    1  0.3284464E-002  0.1249997E+03  0.7818608E-02  0.1235070E+00
         -4   -1    0    0    0  501 -0.00000000000E+00  0.00000000000E+00  0.41281469655E+02  0.41301000435E+02  0.12700000000E+01 0. -1.
          4   -1    0    0  501    0  0.00000000000E+00 -0.00000000000E+00 -0.94578090935E+02  0.94586617367E+02  0.12700000000E+01 0. -1.
         25    2    1    2    0    0  0.00000000000E+00  0.00000000000E+00 -0.53296621280E+02  0.13588761780E+03  0.12499965933E+03 0.  0.
    9000005    1    3    3    0    0  0.25653007051E+02 -0.24147100962E+02  0.29462149114E+02  0.45936668208E+02  0.10000000000E+01 0.  0.
    9000005    1    3    3    0    0 -0.25653007051E+02  0.24147100962E+02 -0.82758770394E+02  0.89950949593E+02  0.10000000000E+01 0.  0.
<mgrwt>
<rscale>  0 0.12499966E+03</rscale>
<asrwt>0</asrwt>
<pdfrwt beam="2">  1        4 0.14552634E-01 0.12499966E+03</pdfrwt>
<pdfrwt beam="1">  1       -4 0.63531536E-02 0.12499966E+03</pdfrwt>
<totfact> 0.10219474E+04</totfact>
</mgrwt>
</event>
<event>
 5    1  0.3284464E-002  0.1249962E+03  0.7818608E-02  0.1235075E+00
         -4   -1    0    0    0  501 -0.00000000000E+00  0.00000000000E+00  0.51921162189E+02  0.51936692069E+02  0.12700000000E+01 0. -1.
          4   -1    0    0  501    0  0.00000000000E+00 -0.00000000000E+00 -0.75197495428E+02  0.75208219089E+02  0.12700000000E+01 0. -1.
         25    2    1    2    0    0  0.00000000000E+00  0.00000000000E+00 -0.23276333239E+02  0.12714491116E+03  0.12499616292E+03 0.  0.
    9000005    1    3    3    0    0 -0.38131650194E+02  0.25461686615E+02  0.31549806317E+02  0.55666062466E+02  0.10000000000E+01 0.  0.
    9000005    1    3    3    0    0  0.38131650194E+02 -0.25461686615E+02 -0.54826139556E+02  0.71478848692E+02  0.10000000000E+01 0.  0.
<mgrwt>
<rscale>  0 0.12499616E+03</rscale>
<asrwt>0</asrwt>
<pdfrwt beam="2">  1        4 0.11570865E-01 0.12499616E+03</pdfrwt>
<pdfrwt beam="1">  1       -4 0.79898906E-02 0.12499616E+03</pdfrwt>
<totfact> 0.10406900E+04</totfact>
</mgrwt>
</event>
<event>
 5    1  0.3284464E-002  0.1250070E+03  0.7818608E-02  0.1235058E+00
         -4   -1    0    0    0  501 -0.00000000000E+00  0.00000000000E+00  0.11731060354E+02  0.11799604952E+02  0.12700000000E+01 0. -1.
          4   -1    0    0  501    0  0.00000000000E+00 -0.00000000000E+00 -0.33198093691E+03  0.33198336611E+03  0.12700000000E+01 0. -1.
         25    2    1    2    0    0  0.00000000000E+00  0.00000000000E+00 -0.32024987656E+03  0.34378297106E+03  0.12500699083E+03 0.  0.
    9000005    1    3    3    0    0  0.46930407122E+02 -0.33647510346E+02 -0.22584444642E+03  0.23311227347E+03  0.10000000000E+01 0.  0.
    9000005    1    3    3    0    0 -0.46930407122E+02  0.33647510346E+02 -0.94405430136E+02  0.11067069759E+03  0.10000000000E+01 0.  0.
<mgrwt>
<rscale>  0 0.12500699E+03</rscale>
<asrwt>0</asrwt>
<pdfrwt beam="2">  1        4 0.51079443E-01 0.12500699E+03</pdfrwt>
<pdfrwt beam="1">  1       -4 0.18102383E-02 0.12500699E+03</pdfrwt>
<totfact> 0.70403071E+03</totfact>
</mgrwt>
</event>
<event>
 5    1  0.3284464E-002  0.1249966E+03  0.7818608E-02  0.1235075E+00
          4   -1    0    0  501    0  0.00000000000E+00  0.00000000000E+00  0.28221756600E+03  0.28222042353E+03  0.12700000000E+01 0.  1.
         -4   -1    0    0    0  501 -0.00000000000E+00 -0.00000000000E+00 -0.13808455075E+02  0.13866734711E+02  0.12700000000E+01 0.  1.
         25    2    1    2    0    0  0.00000000000E+00  0.00000000000E+00  0.26840911092E+03  0.29608715824E+03  0.12499661775E+03 0.  0.
    9000005    1    3    3    0    0  0.14076980067E+02 -0.31304276260E+02  0.25790107255E+03  0.26017702109E+03  0.10000000000E+01 0.  0.
    9000005    1    3    3    0    0 -0.14076980067E+02  0.31304276260E+02  0.10508038373E+02  0.35910137154E+02  0.10000000000E+01 0.  0.
<mgrwt>
<rscale>  0 0.12499662E+03</rscale>
<asrwt>0</asrwt>
<pdfrwt beam="1">  1        4 0.43422791E-01 0.12499662E+03</pdfrwt>
<pdfrwt beam="2">  1       -4 0.21290805E-02 0.12499662E+03</pdfrwt>
<totfact> 0.76098007E+03</totfact>
</mgrwt>
</event>
<event>
 5    1  0.3284464E-002  0.1250024E+03  0.7818608E-02  0.1235066E+00
          4   -1    0    0  501    0  0.00000000000E+00  0.00000000000E+00  0.13047724089E+02  0.13109386100E+02  0.12700000000E+01 0.  1.
         -4   -1    0    0    0  501 -0.00000000000E+00 -0.00000000000E+00 -0.29862428142E+03  0.29862698196E+03  0.12700000000E+01 0.  1.
         25    2    1    2    0    0  0.00000000000E+00  0.00000000000E+00 -0.28557655733E+03  0.31173636806E+03  0.12500237227E+03 0.  0.
    9000005    1    3    3    0    0 -0.39686790346E+02 -0.48162565537E+02 -0.15095508200E+03  0.16334965818E+03  0.10000000000E+01 0.  0.
    9000005    1    3    3    0    0  0.39686790346E+02  0.48162565537E+02 -0.13462147533E+03  0.14838670988E+03  0.10000000000E+01 0.  0.
<mgrwt>
<rscale>  0 0.12500237E+03</rscale>
<asrwt>0</asrwt>
<pdfrwt beam="1">  1        4 0.20122934E-02 0.12500237E+03</pdfrwt>
<pdfrwt beam="2">  1       -4 0.45947143E-01 0.12500237E+03</pdfrwt>
<totfact> 0.74145946E+03</totfact>
</mgrwt>
</event>
<event>
 5    1  0.3284464E-002  0.1250147E+03  0.7818608E-02  0.1235046E+00
          4   -1    0    0  501    0  0.00000000000E+00  0.00000000000E+00  0.13912788951E+03  0.13913368585E+03  0.12700000000E+01 0. -1.
         -4   -1    0    0    0  501 -0.00000000000E+00 -0.00000000000E+00 -0.28062541762E+02  0.28091264660E+02  0.12700000000E+01 0. -1.
         25    2    1    2    0    0  0.00000000000E+00  0.00000000000E+00  0.11106534775E+03  0.16722495051E+03  0.12501468955E+03 0.  0.
    9000005    1    3    3    0    0  0.12274129555E+02  0.34452540470E+02  0.12332536707E+03  0.12863816683E+03  0.10000000000E+01 0.  0.
    9000005    1    3    3    0    0 -0.12274129555E+02 -0.34452540470E+02 -0.12260019328E+02  0.38586783684E+02  0.10000000000E+01 0.  0.
<mgrwt>
<rscale>  0 0.12501469E+03</rscale>
<asrwt>0</asrwt>
<pdfrwt beam="1">  1        4 0.21406946E-01 0.12501469E+03</pdfrwt>
<pdfrwt beam="2">  1       -4 0.43199694E-02 0.12501469E+03</pdfrwt>
<totfact> 0.95936019E+03</totfact>
</mgrwt>
</event>
<event>
 5    1  0.3284464E-002  0.1249991E+03  0.7818608E-02  0.1235071E+00
          4   -1    0    0  501    0  0.00000000000E+00  0.00000000000E+00  0.10103377955E+04  0.10103385937E+04  0.12700000000E+01 0.  1.
         -4   -1    0    0    0  501 -0.00000000000E+00 -0.00000000000E+00 -0.37611069604E+01  0.39697387279E+01  0.12700000000E+01 0.  1.
         25    2    1    2    0    0  0.00000000000E+00  0.00000000000E+00  0.10065766885E+04  0.10143083324E+04  0.12499905327E+03 0.  0.
    9000005    1    3    3    0    0  0.35821328725E+02 -0.35231328265E+02  0.80481450759E+03  0.80638192298E+03  0.10000000000E+01 0.  0.
    9000005    1    3    3    0    0 -0.35821328725E+02  0.35231328265E+02  0.20176218093E+03  0.20792640943E+03  0.10000000000E+01 0.  0.
<mgrwt>
<rscale>  0 0.12499905E+03</rscale>
<asrwt>0</asrwt>
<pdfrwt beam="1">  1        4 0.15545271E+00 0.12499905E+03</pdfrwt>
<pdfrwt beam="2">  1       -4 0.59474176E-03 0.12499905E+03</pdfrwt>
<totfact> 0.30136472E+03</totfact>
</mgrwt>
</event>
<event>
 5    1  0.3284464E-002  0.1250003E+03  0.7818608E-02  0.1235069E+00
          4   -1    0    0  501    0  0.00000000000E+00  0.00000000000E+00  0.64337867911E+02  0.64350401299E+02  0.12700000000E+01 0. -1.
         -4   -1    0    0    0  501 -0.00000000000E+00 -0.00000000000E+00 -0.60689814124E+02  0.60703100732E+02  0.12700000000E+01 0. -1.
         25    2    1    2    0    0  0.00000000000E+00  0.00000000000E+00  0.36480537865E+01  0.12505350203E+03  0.12500028029E+03 0.  0.
    9000005    1    3    3    0    0  0.43255426738E+02  0.21032631479E+02  0.41739184704E+02  0.63691153773E+02  0.10000000000E+01 0.  0.
    9000005    1    3    3    0    0 -0.43255426738E+02 -0.21032631479E+02 -0.38091130917E+02  0.61362348258E+02  0.10000000000E+01 0.  0.
<mgrwt>
<rscale>  0 0.12500028E+03</rscale>
<asrwt>0</asrwt>
<pdfrwt beam="1">  1        4 0.99001197E-02 0.12500028E+03</pdfrwt>
<pdfrwt beam="2">  1       -4 0.93388806E-02 0.12500028E+03</pdfrwt>
<totfact> 0.10451634E+04</totfact>
</mgrwt>
</event>
<event>
 5    1  0.3284464E-002  0.1250023E+03  0.7818608E-02  0.1235066E+00
         -4   -1    0    0    0  501 -0.00000000000E+00  0.00000000000E+00  0.65354553313E+03  0.65354676709E+03  0.12700000000E+01 0.  1.
          4   -1    0    0  501    0  0.00000000000E+00 -0.00000000000E+00 -0.59085214081E+01  0.60434696351E+01  0.12700000000E+01 0.  1.
         25    2    1    2    0    0  0.00000000000E+00  0.00000000000E+00  0.64763701172E+03  0.65959023673E+03  0.12500232570E+03 0.  0.
    9000005    1    3    3    0    0  0.47996457829E+02  0.29151982221E+01  0.53443691053E+03  0.53659665456E+03  0.10000000000E+01 0.  0.
    9000005    1    3    3    0    0 -0.47996457829E+02 -0.29151982221E+01  0.11320010119E+03  0.12299358217E+03  0.10000000000E+01 0.  0.
<mgrwt>
<rscale>  0 0.12500233E+03</rscale>
<asrwt>0</asrwt>
<pdfrwt beam="2">  1        4 0.91947886E-03 0.12500233E+03</pdfrwt>
<pdfrwt beam="1">  1       -4 0.10055594E+00 0.12500233E+03</pdfrwt>
<totfact> 0.45304951E+03</totfact>
</mgrwt>
</event>
<event>
 5    1  0.3284464E-002  0.1249984E+03  0.7818608E-02  0.1235072E+00
         -4   -1    0    0    0  501 -0.00000000000E+00  0.00000000000E+00  0.42693368627E+03  0.42693557520E+03  0.12700000000E+01 0.  1.
          4   -1    0    0  501    0  0.00000000000E+00 -0.00000000000E+00 -0.91033183666E+01  0.91914800377E+01  0.12700000000E+01 0.  1.
         25    2    1    2    0    0  0.00000000000E+00  0.00000000000E+00  0.41783036791E+03  0.43612705524E+03  0.12499836786E+03 0.  0.
    9000005    1    3    3    0    0  0.24209034539E+02  0.41559836978E+02  0.34812178769E+03  0.35143004491E+03  0.10000000000E+01 0.  0.
    9000005    1    3    3    0    0 -0.24209034539E+02 -0.41559836978E+02  0.69708580220E+02  0.84697010332E+02  0.10000000000E+01 0.  0.
<mgrwt>
<rscale>  0 0.12499837E+03</rscale>
<asrwt>0</asrwt>
<pdfrwt beam="2">  1        4 0.14074376E-02 0.12499837E+03</pdfrwt>
<pdfrwt beam="1">  1       -4 0.65689027E-01 0.12499837E+03</pdfrwt>
<totfact> 0.61186714E+03</totfact>
</mgrwt>
</event>
<event>
 5    1  0.3284464E-002  0.1250112E+03  0.7818608E-02  0.1235052E+00
          4   -1    0    0  501    0  0.00000000000E+00  0.00000000000E+00  0.36727696248E+02  0.36749647232E+02  0.12700000000E+01 0. -1.
         -4   -1    0    0    0  501 -0.00000000000E+00 -0.00000000000E+00 -0.10631868013E+03  0.10632626508E+03  0.12700000000E+01 0. -1.
         25    2    1    2    0    0  0.00000000000E+00  0.00000000000E+00 -0.69590983884E+02  0.14307591231E+03  0.12501124607E+03 0.  0.
    9000005    1    3    3    0    0 -0.22223243582E+02  0.47976470947E+02 -0.72932371653E+02  0.90087430614E+02  0.10000000000E+01 0.  0.
    9000005    1    3    3    0    0  0.22223243582E+02 -0.47976470947E+02  0.33413877692E+01  0.52988481692E+02  0.10000000000E+01 0.  0.
<mgrwt>
<rscale>  0 0.12501125E+03</rscale>
<asrwt>0</asrwt>
<pdfrwt beam="1">  1        4 0.56526869E-02 0.12501125E+03</pdfrwt>
<pdfrwt beam="2">  1       -4 0.16358992E-01 0.12501125E+03</pdfrwt>
<totfact> 0.10067679E+04</totfact>
</mgrwt>
</event>
<event>
 5    1  0.3284464E-002  0.1250001E+03  0.7818608E-02  0.1235069E+00
         -4   -1    0    0    0  501 -0.00000000000E+00  0.00000000000E+00  0.21235066783E+02  0.21273010160E+02  0.12700000000E+01 0.  1.
          4   -1    0    0  501    0  0.00000000000E+00 -0.00000000000E+00 -0.18374875152E+03  0.18375314034E+03  0.12700000000E+01 0.  1.
         25    2    1    2    0    0  0.00000000000E+00  0.00000000000E+00 -0.16251368473E+03  0.20502615050E+03  0.12500009865E+03 0.  0.
    9000005    1    3    3    0    0 -0.39287464406E+02  0.41105268981E+02 -0.38734371864E+02  0.68807699869E+02  0.10000000000E+01 0.  0.
    9000005    1    3    3    0    0  0.39287464406E+02 -0.41105268981E+02 -0.12377931287E+03  0.13621845063E+03  0.10000000000E+01 0.  0.
<mgrwt>
<rscale>  0 0.12500010E+03</rscale>
<asrwt>0</asrwt>
<pdfrwt beam="2">  1        4 0.28272294E-01 0.12500010E+03</pdfrwt>
<pdfrwt beam="1">  1       -4 0.32701898E-02 0.12500010E+03</pdfrwt>
<totfact> 0.89294476E+03</totfact>
</mgrwt>
</event>
<event>
 5    1  0.3284464E-002  0.1250071E+03  0.7818608E-02  0.1235058E+00
          4   -1    0    0  501    0  0.00000000000E+00  0.00000000000E+00  0.74516617659E+03  0.74516725883E+03  0.12700000000E+01 0.  1.
         -4   -1    0    0    0  501 -0.00000000000E+00 -0.00000000000E+00 -0.51646974572E+01  0.53185524181E+01  0.12700000000E+01 0.  1.
         25    2    1    2    0    0  0.00000000000E+00  0.00000000000E+00  0.74000147913E+03  0.75048581125E+03  0.12500705487E+03 0.  0.
    9000005    1    3    3    0    0 -0.13916324522E+02  0.60924439535E+02  0.36706255033E+03  0.37234576307E+03  0.10000000000E+01 0.  0.
    9000005    1    3    3    0    0  0.13916324522E+02 -0.60924439535E+02  0.37293892880E+03  0.37814004818E+03  0.10000000000E+01 0.  0.
<mgrwt>
<rscale>  0 0.12500705E+03</rscale>
<asrwt>0</asrwt>
<pdfrwt beam="1">  1        4 0.11465279E+00 0.12500705E+03</pdfrwt>
<pdfrwt beam="2">  1       -4 0.80648765E-03 0.12500705E+03</pdfrwt>
<totfact> 0.40544679E+03</totfact>
</mgrwt>
</event>
<event>
 5    1  0.3284464E-002  0.1250029E+03  0.7818608E-02  0.1235065E+00
          4   -1    0    0  501    0  0.00000000000E+00  0.00000000000E+00  0.52389042395E+02  0.52404433621E+02  0.12700000000E+01 0. -1.
         -4   -1    0    0    0  501 -0.00000000000E+00 -0.00000000000E+00 -0.74534074534E+02  0.74544893632E+02  0.12700000000E+01 0. -1.
         25    2    1    2    0    0  0.00000000000E+00  0.00000000000E+00 -0.22145032139E+02  0.12694932725E+03  0.12500291693E+03 0.  0.
    9000005    1    3    3    0    0  0.60028197135E+02 -0.12637264118E+02 -0.23189235409E+02  0.65588303336E+02  0.10000000000E+01 0.  0.
    9000005    1    3    3    0    0 -0.60028197135E+02  0.12637264118E+02  0.10442032703E+01  0.61361023917E+02  0.10000000000E+01 0.  0.
<mgrwt>
<rscale>  0 0.12500292E+03</rscale>
<asrwt>0</asrwt>
<pdfrwt beam="1">  1        4 0.80618689E-02 0.12500292E+03</pdfrwt>
<pdfrwt beam="2">  1       -4 0.11468797E-01 0.12500292E+03</pdfrwt>
<totfact> 0.10409561E+04</totfact>
</mgrwt>
</event>
<event>
 5    1  0.3284464E-002  0.1249970E+03  0.7818608E-02  0.1235074E+00
         -4   -1    0    0    0  501 -0.00000000000E+00  0.00000000000E+00  0.20062072508E+01  0.23743983518E+01  0.12700000000E+01 0. -1.
          4   -1    0    0  501    0  0.00000000000E+00 -0.00000000000E+00 -0.17829744270E+04  0.17829748793E+04  0.12700000000E+01 0. -1.
         25    2    1    2    0    0  0.00000000000E+00  0.00000000000E+00 -0.17809682198E+04  0.17853492777E+04  0.12499697387E+03 0.  0.
    9000005    1    3    3    0    0 -0.48325391200E+02 -0.39555305312E+02 -0.85824324336E+03  0.86051288798E+03  0.10000000000E+01 0.  0.
    9000005    1    3    3    0    0  0.48325391200E+02  0.39555305312E+02 -0.92272497642E+03  0.92483638970E+03  0.10000000000E+01 0.  0.
<mgrwt>
<rscale>  0 0.12499697E+03</rscale>
<asrwt>0</asrwt>
<pdfrwt beam="2">  1        4 0.27433095E+00 0.12499697E+03</pdfrwt>
<pdfrwt beam="1">  1       -4 0.33700588E-03 0.12499697E+03</pdfrwt>
<totfact> 0.12931536E+03</totfact>
</mgrwt>
</event>
<event>
 5    1  0.3284464E-002  0.1249985E+03  0.7818608E-02  0.1235072E+00
          4   -1    0    0  501    0  0.00000000000E+00  0.00000000000E+00  0.16722098604E+02  0.16770255863E+02  0.12700000000E+01 0. -1.
         -4   -1    0    0    0  501 -0.00000000000E+00 -0.00000000000E+00 -0.23320669838E+03  0.23321015644E+03  0.12700000000E+01 0. -1.
         25    2    1    2    0    0  0.00000000000E+00  0.00000000000E+00 -0.21648459977E+03  0.24998041231E+03  0.12499849838E+03 0.  0.
    9000005    1    3    3    0    0 -0.42055767263E+02 -0.46184620627E+02 -0.11195656928E+03  0.12820678667E+03  0.10000000000E+01 0.  0.
    9000005    1    3    3    0    0  0.42055767263E+02  0.46184620627E+02 -0.10452803049E+03  0.12177362564E+03  0.10000000000E+01 0.  0.
<mgrwt>
<rscale>  0 0.12499850E+03</rscale>
<asrwt>0</asrwt>
<pdfrwt beam="1">  1        4 0.25766011E-02 0.12499850E+03</pdfrwt>
<pdfrwt beam="2">  1       -4 0.35881922E-01 0.12499850E+03</pdfrwt>
<totfact> 0.82335814E+03</totfact>
</mgrwt>
</event>
<event>
 5    1  0.3284464E-002  0.1249964E+03  0.7818608E-02  0.1235075E+00
         -4   -1    0    0    0  501 -0.00000000000E+00  0.00000000000E+00  0.42479848877E+03  0.42480038720E+03  0.12700000000E+01 0. -1.
          4   -1    0    0  501    0  0.00000000000E+00 -0.00000000000E+00 -0.91492210337E+01  0.92369445989E+01  0.12700000000E+01 0. -1.
         25    2    1    2    0    0  0.00000000000E+00  0.00000000000E+00  0.41564926774E+03  0.43403733180E+03  0.12499636643E+03 0.  0.
    9000005    1    3    3    0    0  0.47090287316E+02 -0.35524119153E+02  0.13619173990E+03  0.14842051145E+03  0.10000000000E+01 0.  0.
    9000005    1    3    3    0    0 -0.47090287316E+02  0.35524119153E+02  0.27945752784E+03  0.28561682035E+03  0.10000000000E+01 0.  0.
<mgrwt>
<rscale>  0 0.12499637E+03</rscale>
<asrwt>0</asrwt>
<pdfrwt beam="2">  1        4 0.14144664E-02 0.12499637E+03</pdfrwt>
<pdfrwt beam="1">  1       -4 0.65360513E-01 0.12499637E+03</pdfrwt>
<totfact> 0.61376641E+03</totfact>
</mgrwt>
</event>
<event>
 5    1  0.3284464E-002  0.1250000E+03  0.7818608E-02  0.1235069E+00
         -4   -1    0    0    0  501 -0.00000000000E+00  0.00000000000E+00  0.20574207864E+02  0.20613367731E+02  0.12700000000E+01 0. -1.
          4   -1    0    0  501    0  0.00000000000E+00 -0.00000000000E+00 -0.18963969364E+03  0.18964394613E+03  0.12700000000E+01 0. -1.
         25    2    1    2    0    0  0.00000000000E+00  0.00000000000E+00 -0.16906548577E+03  0.21025731386E+03  0.12499999820E+03 0.  0.
    9000005    1    3    3    0    0  0.29828130975E+02 -0.10750421533E+02  0.60482711547E+01  0.32293506229E+02  0.10000000000E+01 0.  0.
    9000005    1    3    3    0    0 -0.29828130975E+02  0.10750421533E+02 -0.17511375693E+03  0.17796380763E+03  0.10000000000E+01 0.  0.
<mgrwt>
<rscale>  0 0.12500000E+03</rscale>
<asrwt>0</asrwt>
<pdfrwt beam="2">  1        4 0.29178676E-01 0.12500000E+03</pdfrwt>
<pdfrwt beam="1">  1       -4 0.31686023E-02 0.12500000E+03</pdfrwt>
<totfact> 0.88433880E+03</totfact>
</mgrwt>
</event>
<event>
 5    1  0.3284464E-002  0.1250008E+03  0.7818608E-02  0.1235068E+00
         -4   -1    0    0    0  501 -0.00000000000E+00  0.00000000000E+00  0.64687909126E+01  0.65922800207E+01  0.12700000000E+01 0.  1.
          4   -1    0    0  501    0  0.00000000000E+00 -0.00000000000E+00 -0.59803497099E+03  0.59803631949E+03  0.12700000000E+01 0.  1.
         25    2    1    2    0    0  0.00000000000E+00  0.00000000000E+00 -0.59156618008E+03  0.60462859951E+03  0.12500079173E+03 0.  0.
    9000005    1    3    3    0    0 -0.28338585522E+02 -0.20405234487E+02 -0.54646144525E+03  0.54757699017E+03  0.10000000000E+01 0.  0.
    9000005    1    3    3    0    0  0.28338585522E+02  0.20405234487E+02 -0.45104734830E+02  0.57051609337E+02  0.10000000000E+01 0.  0.
<mgrwt>
<rscale>  0 0.12500079E+03</rscale>
<asrwt>0</asrwt>
<pdfrwt beam="2">  1        4 0.92014940E-01 0.12500079E+03</pdfrwt>
<pdfrwt beam="1">  1       -4 0.10048020E-02 0.12500079E+03</pdfrwt>
<totfact> 0.48575911E+03</totfact>
</mgrwt>
</event>
<event>
 5    1  0.3284464E-002  0.1249987E+03  0.7818608E-02  0.1235071E+00
          4   -1    0    0  501    0  0.00000000000E+00  0.00000000000E+00  0.42370967740E+02  0.42389996546E+02  0.12700000000E+01 0. -1.
         -4   -1    0    0    0  501 -0.00000000000E+00 -0.00000000000E+00 -0.92145614772E+02  0.92154366265E+02  0.12700000000E+01 0. -1.
         25    2    1    2    0    0  0.00000000000E+00  0.00000000000E+00 -0.49774647032E+02  0.13454436281E+03  0.12499868030E+03 0.  0.
    9000005    1    3    3    0    0  0.54870427766E+01  0.36400838471E+02  0.29466922530E+02  0.47163844236E+02  0.10000000000E+01 0.  0.
    9000005    1    3    3    0    0 -0.54870427766E+01 -0.36400838471E+02 -0.79241569562E+02  0.87380518575E+02  0.10000000000E+01 0.  0.
<mgrwt>
<rscale>  0 0.12499868E+03</rscale>
<asrwt>0</asrwt>
<pdfrwt beam="1">  1        4 0.65207474E-02 0.12499868E+03</pdfrwt>
<pdfrwt beam="2">  1       -4 0.14178385E-01 0.12499868E+03</pdfrwt>
<totfact> 0.10247988E+04</totfact>
</mgrwt>
</event>
<event>
 5    1  0.3284464E-002  0.1249995E+03  0.7818608E-02  0.1235070E+00
          4   -1    0    0  501    0  0.00000000000E+00  0.00000000000E+00  0.50726968522E+02  0.50742863887E+02  0.12700000000E+01 0. -1.
         -4   -1    0    0    0  501 -0.00000000000E+00 -0.00000000000E+00 -0.76971614153E+02  0.76982090680E+02  0.12700000000E+01 0. -1.
         25    2    1    2    0    0  0.00000000000E+00  0.00000000000E+00 -0.26244645631E+02  0.12772495457E+03  0.12499953038E+03 0.  0.
    9000005    1    3    3    0    0 -0.11637509870E+02  0.23974675600E+02 -0.70879116358E+02  0.75730217495E+02  0.10000000000E+01 0.  0.
    9000005    1    3    3    0    0  0.11637509870E+02 -0.23974675600E+02  0.44634470727E+02  0.51994737072E+02  0.10000000000E+01 0.  0.
<mgrwt>
<rscale>  0 0.12499953E+03</rscale>
<asrwt>0</asrwt>
<pdfrwt beam="1">  1        4 0.78061776E-02 0.12499953E+03</pdfrwt>
<pdfrwt beam="2">  1       -4 0.11843815E-01 0.12499953E+03</pdfrwt>
<totfact> 0.10393542E+04</totfact>
</mgrwt>
</event>
<event>
 5    1  0.3284464E-002  0.1250063E+03  0.7818608E-02  0.1235059E+00
         -4   -1    0    0    0  501 -0.00000000000E+00  0.00000000000E+00  0.12508508117E+03  0.12509152821E+03  0.12700000000E+01 0.  1.
          4   -1    0    0  501    0  0.00000000000E+00 -0.00000000000E+00 -0.31211725284E+02  0.31237552645E+02  0.12700000000E+01 0.  1.
         25    2    1    2    0    0  0.00000000000E+00  0.00000000000E+00  0.93873355884E+02  0.15632908086E+03  0.12500629815E+03 0.  0.
    9000005    1    3    3    0    0  0.29484989985E+02 -0.33088169969E+02  0.10203916621E+03  0.11125278903E+03  0.10000000000E+01 0.  0.
    9000005    1    3    3    0    0 -0.29484989985E+02  0.33088169969E+02 -0.81658103292E+01  0.45076291825E+02  0.10000000000E+01 0.  0.
<mgrwt>
<rscale>  0 0.12500630E+03</rscale>
<asrwt>0</asrwt>
<pdfrwt beam="2">  1        4 0.48042865E-02 0.12500630E+03</pdfrwt>
<pdfrwt beam="1">  1       -4 0.19246342E-01 0.12500630E+03</pdfrwt>
<totfact> 0.98041328E+03</totfact>
</mgrwt>
</event>
<event>
 5    1  0.3284464E-002  0.1249998E+03  0.7818608E-02  0.1235070E+00
          4   -1    0    0  501    0  0.00000000000E+00  0.00000000000E+00  0.35484163715E+03  0.35484390985E+03  0.12700000000E+01 0. -1.
         -4   -1    0    0    0  501 -0.00000000000E+00 -0.00000000000E+00 -0.10969449836E+02  0.11042722930E+02  0.12700000000E+01 0. -1.
         25    2    1    2    0    0  0.00000000000E+00  0.00000000000E+00  0.34387218731E+03  0.36588663278E+03  0.12499978734E+03 0.  0.
    9000005    1    3    3    0    0 -0.12613651536E+02  0.51552608700E+02  0.26850642323E+03  0.27370326082E+03  0.10000000000E+01 0.  0.
    9000005    1    3    3    0    0  0.12613651536E+02 -0.51552608700E+02  0.75365764082E+02  0.92183371952E+02  0.10000000000E+01 0.  0.
<mgrwt>
<rscale>  0 0.12499979E+03</rscale>
<asrwt>0</asrwt>
<pdfrwt beam="1">  1        4 0.54596834E-01 0.12499979E+03</pdfrwt>
<pdfrwt beam="2">  1       -4 0.16934188E-02 0.12499979E+03</pdfrwt>
<totfact> 0.68011795E+03</totfact>
</mgrwt>
</event>
<event>
 5    1  0.3284464E-002  0.1249995E+03  0.7818608E-02  0.1235070E+00
          4   -1    0    0  501    0  0.00000000000E+00  0.00000000000E+00  0.29426147295E+02  0.29453540443E+02  0.12700000000E+01 0. -1.
         -4   -1    0    0    0  501 -0.00000000000E+00 -0.00000000000E+00 -0.13265433533E+03  0.13266041452E+03  0.12700000000E+01 0. -1.
         25    2    1    2    0    0  0.00000000000E+00  0.00000000000E+00 -0.10322818803E+03  0.16211395496E+03  0.12499950236E+03 0.  0.
    9000005    1    3    3    0    0  0.81369059780E+01  0.61453115997E+02 -0.61869105807E+02  0.87586990803E+02  0.10000000000E+01 0.  0.
    9000005    1    3    3    0    0 -0.81369059780E+01 -0.61453115997E+02 -0.41359082226E+02  0.74526964162E+02  0.10000000000E+01 0.  0.
<mgrwt>
<rscale>  0 0.12499950E+03</rscale>
<asrwt>0</asrwt>
<pdfrwt beam="1">  1        4 0.45296745E-02 0.12499950E+03</pdfrwt>
<pdfrwt beam="2">  1       -4 0.20410934E-01 0.12499950E+03</pdfrwt>
<totfact> 0.96937857E+03</totfact>
</mgrwt>
</event>
<event>
 5    1  0.3284464E-002  0.1249991E+03  0.7818608E-02  0.1235071E+00
         -4   -1    0    0    0  501 -0.00000000000E+00  0.00000000000E+00  0.43996902445E+02  0.44015228328E+02  0.12700000000E+01 0.  1.
          4   -1    0    0  501    0  0.00000000000E+00 -0.00000000000E+00 -0.88741955556E+02  0.88751042675E+02  0.12700000000E+01 0.  1.
         25    2    1    2    0    0  0.00000000000E+00  0.00000000000E+00 -0.44745053111E+02  0.13276627100E+03  0.12499905175E+03 0.  0.
    9000005    1    3    3    0    0 -0.21806524202E+02  0.39626294845E+02  0.23427964837E+02  0.50947397159E+02  0.10000000000E+01 0.  0.
    9000005    1    3    3    0    0  0.21806524202E+02 -0.39626294845E+02 -0.68173017949E+02  0.81818873844E+02  0.10000000000E+01 0.  0.
<mgrwt>
<rscale>  0 0.12499905E+03</rscale>
<asrwt>0</asrwt>
<pdfrwt beam="2">  1        4 0.13654717E-01 0.12499905E+03</pdfrwt>
<pdfrwt beam="1">  1       -4 0.67708629E-02 0.12499905E+03</pdfrwt>
<totfact> 0.10285590E+04</totfact>
</mgrwt>
</event>
<event>
 5    1  0.3284464E-002  0.1250059E+03  0.7818608E-02  0.1235060E+00
          4   -1    0    0  501    0  0.00000000000E+00  0.00000000000E+00  0.41926986891E+02  0.41946217109E+02  0.12700000000E+01 0. -1.
         -4   -1    0    0    0  501 -0.00000000000E+00 -0.00000000000E+00 -0.93131834766E+02  0.93140493593E+02  0.12700000000E+01 0. -1.
         25    2    1    2    0    0  0.00000000000E+00  0.00000000000E+00 -0.51204847874E+02  0.13508671070E+03  0.12500593171E+03 0.  0.
    9000005    1    3    3    0    0 -0.41709731034E+02  0.46308824752E+02 -0.20601976378E+02  0.65647927183E+02  0.10000000000E+01 0.  0.
    9000005    1    3    3    0    0  0.41709731034E+02 -0.46308824752E+02 -0.30602871497E+02  0.69438783519E+02  0.10000000000E+01 0.  0.
<mgrwt>
<rscale>  0 0.12500593E+03</rscale>
<asrwt>0</asrwt>
<pdfrwt beam="1">  1        4 0.64524510E-02 0.12500593E+03</pdfrwt>
<pdfrwt beam="2">  1       -4 0.14330120E-01 0.12500593E+03</pdfrwt>
<totfact> 0.10234874E+04</totfact>
</mgrwt>
</event>
<event>
 5    1  0.3284464E-002  0.1249994E+03  0.7818608E-02  0.1235070E+00
         -4   -1    0    0    0  501 -0.00000000000E+00  0.00000000000E+00  0.28310570063E+03  0.28310854920E+03  0.12700000000E+01 0. -1.
          4   -1    0    0  501    0  0.00000000000E+00 -0.00000000000E+00 -0.13765559539E+02  0.13824020016E+02  0.12700000000E+01 0. -1.
         25    2    1    2    0    0  0.00000000000E+00  0.00000000000E+00  0.26934014109E+03  0.29693256921E+03  0.12499935623E+03 0.  0.
    9000005    1    3    3    0    0  0.62376173758E+02  0.31030564895E+01  0.13987108240E+03  0.15318399298E+03  0.10000000000E+01 0.  0.
    9000005    1    3    3    0    0 -0.62376173758E+02 -0.31030564895E+01  0.12946905869E+03  0.14374857623E+03  0.10000000000E+01 0.  0.
<mgrwt>
<rscale>  0 0.12499936E+03</rscale>
<asrwt>0</asrwt>
<pdfrwt beam="2">  1        4 0.21224944E-02 0.12499936E+03</pdfrwt>
<pdfrwt beam="1">  1       -4 0.43559440E-01 0.12499936E+03</pdfrwt>
<totfact> 0.75986314E+03</totfact>
</mgrwt>
</event>
<event>
 5    1  0.3284464E-002  0.1249999E+03  0.7818608E-02  0.1235069E+00
          4   -1    0    0  501    0  0.00000000000E+00  0.00000000000E+00  0.22776764182E+02  0.22812143402E+02  0.12700000000E+01 0. -1.
         -4   -1    0    0    0  501 -0.00000000000E+00 -0.00000000000E+00 -0.17133034144E+03  0.17133504836E+03  0.12700000000E+01 0. -1.
         25    2    1    2    0    0  0.00000000000E+00  0.00000000000E+00 -0.14855357726E+03  0.19414719176E+03  0.12499986702E+03 0.  0.
    9000005    1    3    3    0    0 -0.32089382744E+02 -0.16090425403E+02  0.51727131033E+01  0.36282051146E+02  0.10000000000E+01 0.  0.
    9000005    1    3    3    0    0  0.32089382744E+02  0.16090425403E+02 -0.15372629036E+03  0.15786514062E+03  0.10000000000E+01 0.  0.
<mgrwt>
<rscale>  0 0.12499987E+03</rscale>
<asrwt>0</asrwt>
<pdfrwt beam="1">  1        4 0.35072012E-02 0.12499987E+03</pdfrwt>
<pdfrwt beam="2">  1       -4 0.26361597E-01 0.12499987E+03</pdfrwt>
<totfact> 0.91130954E+03</totfact>
</mgrwt>
</event>
<event>
 5    1  0.3284464E-002  0.1249987E+03  0.7818608E-02  0.1235071E+00
         -4   -1    0    0    0  501 -0.00000000000E+00  0.00000000000E+00  0.52319935007E+03  0.52320089145E+03  0.12700000000E+01 0. -1.
          4   -1    0    0  501    0  0.00000000000E+00 -0.00000000000E+00 -0.74103589048E+01  0.75183987057E+01  0.12700000000E+01 0. -1.
         25    2    1    2    0    0  0.00000000000E+00  0.00000000000E+00  0.51578899117E+03  0.53071929016E+03  0.12499872614E+03 0.  0.
    9000005    1    3    3    0    0 -0.10463761826E+02 -0.38947050544E+02  0.55213471635E+02  0.68380483382E+02  0.10000000000E+01 0.  0.
    9000005    1    3    3    0    0  0.10463761826E+02  0.38947050544E+02  0.46057551953E+03  0.46233880677E+03  0.10000000000E+01 0.  0.
<mgrwt>
<rscale>  0 0.12499873E+03</rscale>
<asrwt>0</asrwt>
<pdfrwt beam="2">  1        4 0.11484845E-02 0.12499873E+03</pdfrwt>
<pdfrwt beam="1">  1       -4 0.80500642E-01 0.12499873E+03</pdfrwt>
<totfact> 0.53558786E+03</totfact>
</mgrwt>
</event>
<event>
 5    1  0.3284464E-002  0.1249964E+03  0.7818608E-02  0.1235075E+00
          4   -1    0    0  501    0  0.00000000000E+00  0.00000000000E+00  0.65990947029E+03  0.65991069235E+03  0.12700000000E+01 0.  1.
         -4   -1    0    0    0  501 -0.00000000000E+00 -0.00000000000E+00 -0.58496707970E+01  0.59859459096E+01  0.12700000000E+01 0.  1.
         25    2    1    2    0    0  0.00000000000E+00  0.00000000000E+00  0.65405979950E+03  0.66589663826E+03  0.12499644608E+03 0.  0.
    9000005    1    3    3    0    0 -0.54782132422E+02 -0.19923833439E+02  0.20707791303E+03  0.21512857374E+03  0.10000000000E+01 0.  0.
    9000005    1    3    3    0    0  0.54782132422E+02  0.19923833439E+02  0.44698188646E+03  0.45076806453E+03  0.10000000000E+01 0.  0.
<mgrwt>
<rscale>  0 0.12499645E+03</rscale>
<asrwt>0</asrwt>
<pdfrwt beam="1">  1        4 0.10153512E+00 0.12499645E+03</pdfrwt>
<pdfrwt beam="2">  1       -4 0.91052599E-03 0.12499645E+03</pdfrwt>
<totfact> 0.44952574E+03</totfact>
</mgrwt>
</event>
<event>
 5    1  0.3284464E-002  0.1250006E+03  0.7818608E-02  0.1235068E+00
          4   -1    0    0  501    0  0.00000000000E+00  0.00000000000E+00  0.21571531617E+03  0.21571905463E+03  0.12700000000E+01 0. -1.
         -4   -1    0    0    0  501 -0.00000000000E+00 -0.00000000000E+00 -0.18082365454E+02  0.18126909290E+02  0.12700000000E+01 0. -1.
         25    2    1    2    0    0  0.00000000000E+00  0.00000000000E+00  0.19763295072E+03  0.23384596392E+03  0.12500060653E+03 0.  0.
    9000005    1    3    3    0    0  0.24333476360E+01 -0.46576341662E+02  0.17662769205E+03  0.18268447768E+03  0.10000000000E+01 0.  0.
    9000005    1    3    3    0    0 -0.24333476360E+01  0.46576341662E+02  0.21005258663E+02  0.51161486245E+02  0.10000000000E+01 0.  0.
<mgrwt>
<rscale>  0 0.12500061E+03</rscale>
<asrwt>0</asrwt>
<pdfrwt beam="1">  1        4 0.33190686E-01 0.12500061E+03</pdfrwt>
<pdfrwt beam="2">  1       -4 0.27856164E-02 0.12500061E+03</pdfrwt>
<totfact> 0.84721376E+03</totfact>
</mgrwt>
</event>
<event>
 5    1  0.3284464E-002  0.1249983E+03  0.7818608E-02  0.1235072E+00
          4   -1    0    0  501    0  0.00000000000E+00  0.00000000000E+00  0.12099880263E+03  0.12100546739E+03  0.12700000000E+01 0.  1.
         -4   -1    0    0    0  501 -0.00000000000E+00 -0.00000000000E+00 -0.32262446618E+02  0.32287433496E+02  0.12700000000E+01 0.  1.
         25    2    1    2    0    0  0.00000000000E+00  0.00000000000E+00  0.88736356010E+02  0.15329290088E+03  0.12499829032E+03 0.  0.
    9000005    1    3    3    0    0 -0.50621843052E+01 -0.36166150218E+02 -0.17820813683E+02  0.40647232770E+02  0.10000000000E+01 0.  0.
    9000005    1    3    3    0    0  0.50621843052E+01  0.36166150218E+02  0.10655716969E+03  0.11264566811E+03  0.10000000000E+01 0.  0.
<mgrwt>
<rscale>  0 0.12499829E+03</rscale>
<asrwt>0</asrwt>
<pdfrwt beam="1">  1        4 0.18617635E-01 0.12499829E+03</pdfrwt>
<pdfrwt beam="2">  1       -4 0.49658881E-02 0.12499829E+03</pdfrwt>
<totfact> 0.98655106E+03</totfact>
</mgrwt>
</event>
<event>
 5    1  0.3284464E-002  0.1250068E+03  0.7818608E-02  0.1235059E+00
         -4   -1    0    0    0  501 -0.00000000000E+00  0.00000000000E+00  0.89499674270E+02  0.89508684464E+02  0.12700000000E+01 0.  1.
          4   -1    0    0  501    0  0.00000000000E+00 -0.00000000000E+00 -0.43629678187E+02  0.43648158251E+02  0.12700000000E+01 0.  1.
         25    2    1    2    0    0  0.00000000000E+00  0.00000000000E+00  0.45869996083E+02  0.13315684271E+03  0.12500675270E+03 0.  0.
    9000005    1    3    3    0    0  0.49185651825E+02  0.16216679772E+02 -0.14323507969E+02  0.53743575698E+02  0.10000000000E+01 0.  0.
    9000005    1    3    3    0    0 -0.49185651825E+02 -0.16216679772E+02  0.60193504052E+02  0.79413267017E+02  0.10000000000E+01 0.  0.
<mgrwt>
<rscale>  0 0.12500675E+03</rscale>
<asrwt>0</asrwt>
<pdfrwt beam="2">  1        4 0.67143729E-02 0.12500675E+03</pdfrwt>
<pdfrwt beam="1">  1       -4 0.13771295E-01 0.12500675E+03</pdfrwt>
<totfact> 0.10275502E+04</totfact>
</mgrwt>
</event>
<event>
 5    1  0.3284464E-002  0.1250004E+03  0.7818608E-02  0.1235069E+00
          4   -1    0    0  501    0  0.00000000000E+00  0.00000000000E+00  0.26204369552E+03  0.26204677305E+03  0.12700000000E+01 0. -1.
         -4   -1    0    0    0  501 -0.00000000000E+00 -0.00000000000E+00 -0.14876729726E+02  0.14930840141E+02  0.12700000000E+01 0. -1.
         25    2    1    2    0    0  0.00000000000E+00  0.00000000000E+00  0.24716696580E+03  0.27697761319E+03  0.12500035690E+03 0.  0.
    9000005    1    3    3    0    0 -0.55171146286E+02  0.29334980083E+02  0.12565721460E+03  0.14033934594E+03  0.10000000000E+01 0.  0.
    9000005    1    3    3    0    0  0.55171146286E+02 -0.29334980083E+02  0.12150975120E+03  0.13663826724E+03  0.10000000000E+01 0.  0.
<mgrwt>
<rscale>  0 0.12500036E+03</rscale>
<asrwt>0</asrwt>
<pdfrwt beam="1">  1        4 0.40318813E-01 0.12500036E+03</pdfrwt>
<pdfrwt beam="2">  1       -4 0.22931268E-02 0.12500036E+03</pdfrwt>
<totfact> 0.78579942E+03</totfact>
</mgrwt>
</event>
<event>
 5    1  0.3284464E-002  0.1249899E+03  0.7818608E-02  0.1235085E+00
         -4   -1    0    0    0  501 -0.00000000000E+00  0.00000000000E+00  0.67934008527E+02  0.67945878569E+02  0.12700000000E+01 0.  1.
          4   -1    0    0  501    0  0.00000000000E+00 -0.00000000000E+00 -0.57467459809E+02  0.57481491255E+02  0.12700000000E+01 0.  1.
         25    2    1    2    0    0  0.00000000000E+00  0.00000000000E+00  0.10466548717E+02  0.12542736982E+03  0.12498990543E+03 0.  0.
    9000005    1    3    3    0    0  0.37884513331E+02 -0.47235791427E+02 -0.10253262651E+02  0.61421378502E+02  0.10000000000E+01 0.  0.
    9000005    1    3    3    0    0 -0.37884513331E+02  0.47235791427E+02  0.20719811368E+02  0.64005991323E+02  0.10000000000E+01 0.  0.
<mgrwt>
<rscale>  0 0.12498991E+03</rscale>
<asrwt>0</asrwt>
<pdfrwt beam="2">  1        4 0.88431401E-02 0.12498991E+03</pdfrwt>
<pdfrwt beam="1">  1       -4 0.10453378E-01 0.12498991E+03</pdfrwt>
<totfact> 0.10445938E+04</totfact>
</mgrwt>
</event>
<event>
 5    1  0.3284464E-002  0.1250003E+03  0.7818608E-02  0.1235069E+00
          4   -1    0    0  501    0  0.00000000000E+00  0.00000000000E+00  0.18930447823E+03  0.18930873825E+03  0.12700000000E+01 0. -1.
         -4   -1    0    0    0  501 -0.00000000000E+00 -0.00000000000E+00 -0.20610810188E+02  0.20649900644E+02  0.12700000000E+01 0. -1.
         25    2    1    2    0    0  0.00000000000E+00  0.00000000000E+00  0.16869366804E+03  0.20995863890E+03  0.12500030564E+03 0.  0.
    9000005    1    3    3    0    0 -0.12229933393E+02  0.60967989181E+02  0.94782695122E+02  0.11336413132E+03  0.10000000000E+01 0.  0.
    9000005    1    3    3    0    0  0.12229933393E+02 -0.60967989181E+02  0.73910972921E+02  0.96594507575E+02  0.10000000000E+01 0.  0.
<mgrwt>
<rscale>  0 0.12500031E+03</rscale>
<asrwt>0</asrwt>
<pdfrwt beam="1">  1        4 0.29127101E-01 0.12500031E+03</pdfrwt>
<pdfrwt beam="2">  1       -4 0.31742285E-02 0.12500031E+03</pdfrwt>
<totfact> 0.88482030E+03</totfact>
</mgrwt>
</event>
<event>
 5    1  0.3284464E-002  0.1250022E+03  0.7818608E-02  0.1235066E+00
         -4   -1    0    0    0  501 -0.00000000000E+00  0.00000000000E+00  0.74496970583E+01  0.75571744892E+01  0.12700000000E+01 0.  1.
          4   -1    0    0  501    0  0.00000000000E+00 -0.00000000000E+00 -0.52050515010E+03  0.52050669946E+03  0.12700000000E+01 0.  1.
         25    2    1    2    0    0  0.00000000000E+00  0.00000000000E+00 -0.51305545304E+03  0.52806387395E+03  0.12500222827E+03 0.  0.
    9000005    1    3    3    0    0  0.15224691162E+02  0.22647480681E+02 -0.19029904687E+02  0.33284183550E+02  0.10000000000E+01 0.  0.
    9000005    1    3    3    0    0 -0.15224691162E+02 -0.22647480681E+02 -0.49402554835E+03  0.49477969040E+03  0.10000000000E+01 0.  0.
<mgrwt>
<rscale>  0 0.12500223E+03</rscale>
<asrwt>0</asrwt>
<pdfrwt beam="2">  1        4 0.80086074E-01 0.12500223E+03</pdfrwt>
<pdfrwt beam="1">  1       -4 0.11544943E-02 0.12500223E+03</pdfrwt>
<totfact> 0.53748237E+03</totfact>
</mgrwt>
</event>
<event>
 5    1  0.3284464E-002  0.1249999E+03  0.7818608E-02  0.1235069E+00
         -4   -1    0    0    0  501 -0.00000000000E+00  0.00000000000E+00  0.20405272130E+03  0.20405667343E+03  0.12700000000E+01 0.  1.
          4   -1    0    0  501    0  0.00000000000E+00 -0.00000000000E+00 -0.19118096826E+02  0.19160232938E+02  0.12700000000E+01 0.  1.
         25    2    1    2    0    0  0.00000000000E+00  0.00000000000E+00  0.18493462448E+03  0.22321690637E+03  0.12499988783E+03 0.  0.
    9000005    1    3    3    0    0 -0.39187356783E+02  0.40693892680E+02  0.14017026191E+03  0.15113022251E+03  0.10000000000E+01 0.  0.
    9000005    1    3    3    0    0  0.39187356783E+02 -0.40693892680E+02  0.44764362570E+02  0.72086683856E+02  0.10000000000E+01 0.  0.
<mgrwt>
<rscale>  0 0.12499989E+03</rscale>
<asrwt>0</asrwt>
<pdfrwt beam="2">  1        4 0.29447910E-02 0.12499989E+03</pdfrwt>
<pdfrwt beam="1">  1       -4 0.31396271E-01 0.12499989E+03</pdfrwt>
<totfact> 0.86362079E+03</totfact>
</mgrwt>
</event>
<event>
 5    1  0.3284464E-002  0.1250002E+03  0.7818608E-02  0.1235069E+00
         -4   -1    0    0    0  501 -0.00000000000E+00  0.00000000000E+00  0.12952117751E+03  0.12952740376E+03  0.12700000000E+01 0.  1.
          4   -1    0    0  501    0  0.00000000000E+00 -0.00000000000E+00 -0.30138925165E+02  0.30165671053E+02  0.12700000000E+01 0.  1.
         25    2    1    2    0    0  0.00000000000E+00  0.00000000000E+00  0.99382252345E+02  0.15969307481E+03  0.12500018424E+03 0.  0.
    9000005    1    3    3    0    0 -0.83473633298E+01 -0.54439175250E+02  0.11966623622E+02  0.56369338805E+02  0.10000000000E+01 0.  0.
    9000005    1    3    3    0    0  0.83473633298E+01  0.54439175250E+02  0.87415628724E+02  0.10332373600E+03  0.10000000000E+01 0.  0.
<mgrwt>
<rscale>  0 0.12500018E+03</rscale>
<asrwt>0</asrwt>
<pdfrwt beam="2">  1        4 0.46392941E-02 0.12500018E+03</pdfrwt>
<pdfrwt beam="1">  1       -4 0.19928871E-01 0.12500018E+03</pdfrwt>
<totfact> 0.97401587E+03</totfact>
</mgrwt>
</event>
<event>
 5    1  0.3284464E-002  0.1250048E+03  0.7818608E-02  0.1235062E+00
          4   -1    0    0  501    0  0.00000000000E+00  0.00000000000E+00  0.86107186148E+02  0.86116551291E+02  0.12700000000E+01 0. -1.
         -4   -1    0    0    0  501 -0.00000000000E+00 -0.00000000000E+00 -0.45347720479E+02  0.45365500688E+02  0.12700000000E+01 0. -1.
         25    2    1    2    0    0  0.00000000000E+00  0.00000000000E+00  0.40759465668E+02  0.13148205198E+03  0.12500478371E+03 0.  0.
    9000005    1    3    3    0    0 -0.16286182223E+02 -0.55375386624E+02  0.45576730783E+02  0.73552101018E+02  0.10000000000E+01 0.  0.
    9000005    1    3    3    0    0  0.16286182223E+02  0.55375386624E+02 -0.48172651152E+01  0.57929950962E+02  0.10000000000E+01 0.  0.
<mgrwt>
<rscale>  0 0.12500478E+03</rscale>
<asrwt>0</asrwt>
<pdfrwt beam="1">  1        4 0.13249347E-01 0.12500478E+03</pdfrwt>
<pdfrwt beam="2">  1       -4 0.69786605E-02 0.12500478E+03</pdfrwt>
<totfact> 0.10311653E+04</totfact>
</mgrwt>
</event>
<event>
 5    1  0.3284464E-002  0.1250124E+03  0.7818608E-02  0.1235050E+00
          4   -1    0    0  501    0  0.00000000000E+00  0.00000000000E+00  0.19073089299E+03  0.19073512115E+03  0.12700000000E+01 0.  1.
         -4   -1    0    0    0  501 -0.00000000000E+00 -0.00000000000E+00 -0.20460346176E+02  0.20499723551E+02  0.12700000000E+01 0.  1.
         25    2    1    2    0    0  0.00000000000E+00  0.00000000000E+00  0.17027054681E+03  0.21123484470E+03  0.12501240140E+03 0.  0.
    9000005    1    3    3    0    0  0.53187401180E+02  0.31147801567E+02  0.10260887497E+03  0.11970240770E+03  0.10000000000E+01 0.  0.
    9000005    1    3    3    0    0 -0.53187401180E+02 -0.31147801567E+02  0.67661671841E+02  0.91532437000E+02  0.10000000000E+01 0.  0.
<mgrwt>
<rscale>  0 0.12501240E+03</rscale>
<asrwt>0</asrwt>
<pdfrwt beam="1">  1        4 0.29346569E-01 0.12501240E+03</pdfrwt>
<pdfrwt beam="2">  1       -4 0.31510998E-02 0.12501240E+03</pdfrwt>
<totfact> 0.88250143E+03</totfact>
</mgrwt>
</event>
<event>
 5    1  0.3284464E-002  0.1249910E+03  0.7818608E-02  0.1235083E+00
         -4   -1    0    0    0  501 -0.00000000000E+00  0.00000000000E+00  0.71226575452E+03  0.71226688676E+03  0.12700000000E+01 0.  1.
          4   -1    0    0  501    0  0.00000000000E+00 -0.00000000000E+00 -0.54087841607E+01  0.55558839168E+01  0.12700000000E+01 0.  1.
         25    2    1    2    0    0  0.00000000000E+00  0.00000000000E+00  0.70685697036E+03  0.71782277067E+03  0.12499101385E+03 0.  0.
    9000005    1    3    3    0    0 -0.37304677191E+02 -0.29787676409E+02  0.58498899153E+03  0.58693446381E+03  0.10000000000E+01 0.  0.
    9000005    1    3    3    0    0  0.37304677191E+02  0.29787676409E+02  0.12186797884E+03  0.13088830686E+03  0.10000000000E+01 0.  0.
<mgrwt>
<rscale>  0 0.12499101E+03</rscale>
<asrwt>0</asrwt>
<pdfrwt beam="2">  1        4 0.84352293E-03 0.12499101E+03</pdfrwt>
<pdfrwt beam="1">  1       -4 0.10959077E+00 0.12499101E+03</pdfrwt>
<totfact> 0.42170678E+03</totfact>
</mgrwt>
</event>
<event>
 5    1  0.3284464E-002  0.1250464E+03  0.7818608E-02  0.1234997E+00
         -4   -1    0    0    0  501 -0.00000000000E+00  0.00000000000E+00  0.13163041171E+03  0.13163653819E+03  0.12700000000E+01 0. -1.
          4   -1    0    0  501    0  0.00000000000E+00 -0.00000000000E+00 -0.29677528801E+02  0.29704690130E+02  0.12700000000E+01 0. -1.
         25    2    1    2    0    0  0.00000000000E+00  0.00000000000E+00  0.10195288291E+03  0.16134122833E+03  0.12504639788E+03 0.  0.
    9000005    1    3    3    0    0  0.33940291154E+02 -0.23863586556E+02 -0.93589838197E+01  0.42544150068E+02  0.10000000000E+01 0.  0.
    9000005    1    3    3    0    0 -0.33940291154E+02  0.23863586556E+02  0.11131186673E+03  0.11879707826E+03  0.10000000000E+01 0.  0.
<mgrwt>
<rscale>  0 0.12504640E+03</rscale>
<asrwt>0</asrwt>
<pdfrwt beam="2">  1        4 0.45683342E-02 0.12504640E+03</pdfrwt>
<pdfrwt beam="1">  1       -4 0.20253393E-01 0.12504640E+03</pdfrwt>
<totfact> 0.96983663E+03</totfact>
</mgrwt>
</event>
<event>
 5    1  0.3284464E-002  0.1249988E+03  0.7818608E-02  0.1235071E+00
          4   -1    0    0  501    0  0.00000000000E+00  0.00000000000E+00  0.62147906051E+03  0.62148035814E+03  0.12700000000E+01 0. -1.
         -4   -1    0    0    0  501 -0.00000000000E+00 -0.00000000000E+00 -0.62198133256E+01  0.63481475885E+01  0.12700000000E+01 0. -1.
         25    2    1    2    0    0  0.00000000000E+00  0.00000000000E+00  0.61525924718E+03  0.62782850572E+03  0.12499876543E+03 0.  0.
    9000005    1    3    3    0    0  0.58789292613E+02  0.14803429344E+02  0.23148172335E+03  0.23929084958E+03  0.10000000000E+01 0.  0.
    9000005    1    3    3    0    0 -0.58789292613E+02 -0.14803429344E+02  0.38377752383E+03  0.38853765614E+03  0.10000000000E+01 0.  0.
<mgrwt>
<rscale>  0 0.12499877E+03</rscale>
<asrwt>0</asrwt>
<pdfrwt beam="1">  1        4 0.95622151E-01 0.12499877E+03</pdfrwt>
<pdfrwt beam="2">  1       -4 0.96686588E-03 0.12499877E+03</pdfrwt>
<totfact> 0.47158097E+03</totfact>
</mgrwt>
</event>
<event>
 5    1  0.3284464E-002  0.1250029E+03  0.7818608E-02  0.1235065E+00
          4   -1    0    0  501    0  0.00000000000E+00  0.00000000000E+00  0.31589165432E+02  0.31614684447E+02  0.12700000000E+01 0. -1.
         -4   -1    0    0    0  501 -0.00000000000E+00 -0.00000000000E+00 -0.12358488046E+03  0.12359140576E+03  0.12700000000E+01 0. -1.
         25    2    1    2    0    0  0.00000000000E+00  0.00000000000E+00 -0.91995715026E+02  0.15520609021E+03  0.12500287538E+03 0.  0.
    9000005    1    3    3    0    0  0.32167285349E+02 -0.64738497621E+00 -0.11251760819E+03  0.11703147229E+03  0.10000000000E+01 0.  0.
    9000005    1    3    3    0    0 -0.32167285349E+02  0.64738497621E+00  0.20521893163E+02  0.38174617916E+02  0.10000000000E+01 0.  0.
<mgrwt>
<rscale>  0 0.12500288E+03</rscale>
<asrwt>0</asrwt>
<pdfrwt beam="1">  1        4 0.48623366E-02 0.12500288E+03</pdfrwt>
<pdfrwt beam="2">  1       -4 0.19015523E-01 0.12500288E+03</pdfrwt>
<totfact> 0.98268701E+03</totfact>
</mgrwt>
</event>
<event>
 5    1  0.3284464E-002  0.1249957E+03  0.7818608E-02  0.1235076E+00
         -4   -1    0    0    0  501 -0.00000000000E+00  0.00000000000E+00  0.88343810580E+02  0.88352938648E+02  0.12700000000E+01 0. -1.
          4   -1    0    0  501    0  0.00000000000E+00 -0.00000000000E+00 -0.44192855998E+02  0.44211100656E+02  0.12700000000E+01 0. -1.
         25    2    1    2    0    0  0.00000000000E+00  0.00000000000E+00  0.44150954582E+02  0.13256403930E+03  0.12499567083E+03 0.  0.
    9000005    1    3    3    0    0 -0.38912305818E+02  0.26552973810E+02  0.65619398011E+02  0.80784487109E+02  0.10000000000E+01 0.  0.
    9000005    1    3    3    0    0  0.38912305818E+02 -0.26552973810E+02 -0.21468443429E+02  0.51779552195E+02  0.10000000000E+01 0.  0.
<mgrwt>
<rscale>  0 0.12499567E+03</rscale>
<asrwt>0</asrwt>
<pdfrwt beam="2">  1        4 0.68010067E-02 0.12499567E+03</pdfrwt>
<pdfrwt beam="1">  1       -4 0.13593461E-01 0.12499567E+03</pdfrwt>
<totfact> 0.10290679E+04</totfact>
</mgrwt>
</event>
<event>
 5    1  0.3284464E-002  0.1249998E+03  0.7818608E-02  0.1235070E+00
          4   -1    0    0  501    0  0.00000000000E+00  0.00000000000E+00  0.50463060725E+01  0.52036626502E+01  0.12700000000E+01 0.  1.
         -4   -1    0    0    0  501 -0.00000000000E+00 -0.00000000000E+00 -0.76203682313E+03  0.76203788141E+03  0.12700000000E+01 0.  1.
         25    2    1    2    0    0  0.00000000000E+00  0.00000000000E+00 -0.75699051705E+03  0.76724154406E+03  0.12499977608E+03 0.  0.
    9000005    1    3    3    0    0 -0.21537518926E+02 -0.57237541703E+02 -0.45739471902E+03  0.46146606580E+03  0.10000000000E+01 0.  0.
    9000005    1    3    3    0    0  0.21537518926E+02  0.57237541703E+02 -0.29959579804E+03  0.30577547825E+03  0.10000000000E+01 0.  0.
<mgrwt>
<rscale>  0 0.12499978E+03</rscale>
<asrwt>0</asrwt>
<pdfrwt beam="1">  1        4 0.78854114E-03 0.12499978E+03</pdfrwt>
<pdfrwt beam="2">  1       -4 0.11724853E+00 0.12499978E+03</pdfrwt>
<totfact> 0.39762956E+03</totfact>
</mgrwt>
</event>
<event>
 5    1  0.3284464E-002  0.1250030E+03  0.7818608E-02  0.1235065E+00
          4   -1    0    0  501    0  0.00000000000E+00  0.00000000000E+00  0.39477575792E+02  0.39497998562E+02  0.12700000000E+01 0.  1.
         -4   -1    0    0    0  501 -0.00000000000E+00 -0.00000000000E+00 -0.98903220267E+02  0.98911373861E+02  0.12700000000E+01 0.  1.
         25    2    1    2    0    0  0.00000000000E+00  0.00000000000E+00 -0.59425644475E+02  0.13840937242E+03  0.12500298858E+03 0.  0.
    9000005    1    3    3    0    0  0.36454382983E+02 -0.12380099180E+02 -0.84218786256E+02  0.92606656633E+02  0.10000000000E+01 0.  0.
    9000005    1    3    3    0    0 -0.36454382983E+02  0.12380099180E+02  0.24793141781E+02  0.45802715790E+02  0.10000000000E+01 0.  0.
<mgrwt>
<rscale>  0 0.12500299E+03</rscale>
<asrwt>0</asrwt>
<pdfrwt beam="1">  1        4 0.60756714E-02 0.12500299E+03</pdfrwt>
<pdfrwt beam="2">  1       -4 0.15218078E-01 0.12500299E+03</pdfrwt>
<totfact> 0.10165975E+04</totfact>
</mgrwt>
</event>
<event>
 5    1  0.3284464E-002  0.1250020E+03  0.7818608E-02  0.1235066E+00
         -4   -1    0    0    0  501 -0.00000000000E+00  0.00000000000E+00  0.97900501656E+01  0.98720809481E+01  0.12700000000E+01 0.  1.
          4   -1    0    0  501    0  0.00000000000E+00 -0.00000000000E+00 -0.39726695228E+03  0.39726898227E+03  0.12700000000E+01 0.  1.
         25    2    1    2    0    0  0.00000000000E+00  0.00000000000E+00 -0.38747690211E+03  0.40714106321E+03  0.12500198273E+03 0.  0.
    9000005    1    3    3    0    0  0.92803294396E+01  0.61185860050E+02 -0.16542998652E+03  0.17662931360E+03  0.10000000000E+01 0.  0.
    9000005    1    3    3    0    0 -0.92803294396E+01 -0.61185860050E+02 -0.22204691559E+03  0.23051174961E+03  0.10000000000E+01 0.  0.
<mgrwt>
<rscale>  0 0.12500198E+03</rscale>
<asrwt>0</asrwt>
<pdfrwt beam="2">  1        4 0.61124446E-01 0.12500198E+03</pdfrwt>
<pdfrwt beam="1">  1       -4 0.15126281E-02 0.12500198E+03</pdfrwt>
<totfact> 0.63861345E+03</totfact>
</mgrwt>
</event>
<event>
 5    1  0.3284464E-002  0.1249893E+03  0.7818608E-02  0.1235086E+00
          4   -1    0    0  501    0  0.00000000000E+00  0.00000000000E+00  0.46673299270E+02  0.46690574689E+02  0.12700000000E+01 0.  1.
         -4   -1    0    0    0  501 -0.00000000000E+00 -0.00000000000E+00 -0.83641488033E+02  0.83651129224E+02  0.12700000000E+01 0.  1.
         25    2    1    2    0    0  0.00000000000E+00  0.00000000000E+00 -0.36968188763E+02  0.13034170391E+03  0.12498925073E+03 0.  0.
    9000005    1    3    3    0    0 -0.25830084127E+02  0.56888861458E+02 -0.19548793792E+02  0.65472827514E+02  0.10000000000E+01 0.  0.
    9000005    1    3    3    0    0  0.25830084127E+02 -0.56888861458E+02 -0.17419394971E+02  0.64868876398E+02  0.10000000000E+01 0.  0.
<mgrwt>
<rscale>  0 0.12498925E+03</rscale>
<asrwt>0</asrwt>
<pdfrwt beam="1">  1        4 0.71825781E-02 0.12498925E+03</pdfrwt>
<pdfrwt beam="2">  1       -4 0.12869992E-01 0.12498925E+03</pdfrwt>
<totfact> 0.10339712E+04</totfact>
</mgrwt>
</event>
<event>
 5    1  0.3284464E-002  0.1249982E+03  0.7818608E-02  0.1235072E+00
         -4   -1    0    0    0  501 -0.00000000000E+00  0.00000000000E+00  0.35752515178E+03  0.35752740741E+03  0.12700000000E+01 0. -1.
          4   -1    0    0  501    0  0.00000000000E+00 -0.00000000000E+00 -0.10886282722E+02  0.10960111838E+02  0.12700000000E+01 0. -1.
         25    2    1    2    0    0  0.00000000000E+00  0.00000000000E+00  0.34663886905E+03  0.36848751925E+03  0.12499818521E+03 0.  0.
    9000005    1    3    3    0    0 -0.18542877349E+02 -0.71559955957E+01  0.34797329973E+03  0.34854191125E+03  0.10000000000E+01 0.  0.
    9000005    1    3    3    0    0  0.18542877349E+02  0.71559955957E+01 -0.13344306762E+01  0.19945608002E+02  0.10000000000E+01 0.  0.
<mgrwt>
<rscale>  0 0.12499819E+03</rscale>
<asrwt>0</asrwt>
<pdfrwt beam="2">  1        4 0.16806658E-02 0.12499819E+03</pdfrwt>
<pdfrwt beam="1">  1       -4 0.55009710E-01 0.12499819E+03</pdfrwt>
<totfact> 0.67740192E+03</totfact>
</mgrwt>
</event>
<event>
 5    1  0.3284464E-002  0.1249979E+03  0.7818608E-02  0.1235073E+00
          4   -1    0    0  501    0  0.00000000000E+00  0.00000000000E+00  0.65125958263E+01  0.66352697306E+01  0.12700000000E+01 0.  1.
         -4   -1    0    0    0  501 -0.00000000000E+00 -0.00000000000E+00 -0.59405983881E+03  0.59406119633E+03  0.12700000000E+01 0.  1.
         25    2    1    2    0    0  0.00000000000E+00  0.00000000000E+00 -0.58754724298E+03  0.60069646606E+03  0.12499792639E+03 0.  0.
    9000005    1    3    3    0    0  0.40251807545E+02  0.47367609574E+02 -0.32462798207E+03  0.33052719281E+03  0.10000000000E+01 0.  0.
    9000005    1    3    3    0    0 -0.40251807545E+02 -0.47367609574E+02 -0.26291926091E+03  0.27016927325E+03  0.10000000000E+01 0.  0.
<mgrwt>
<rscale>  0 0.12499793E+03</rscale>
<asrwt>0</asrwt>
<pdfrwt beam="1">  1        4 0.10114792E-02 0.12499793E+03</pdfrwt>
<pdfrwt beam="2">  1       -4 0.91403320E-01 0.12499793E+03</pdfrwt>
<totfact> 0.48825914E+03</totfact>
</mgrwt>
</event>
<event>
 5    1  0.3284464E-002  0.1249964E+03  0.7818608E-02  0.1235075E+00
         -4   -1    0    0    0  501 -0.00000000000E+00  0.00000000000E+00  0.15240029616E+03  0.15240558772E+03  0.12700000000E+01 0.  1.
          4   -1    0    0  501    0  0.00000000000E+00 -0.00000000000E+00 -0.25608552700E+02  0.25640024793E+02  0.12700000000E+01 0.  1.
         25    2    1    2    0    0  0.00000000000E+00  0.00000000000E+00  0.12679174346E+03  0.17804561251E+03  0.12499637566E+03 0.  0.
    9000005    1    3    3    0    0 -0.59967853756E+02  0.12014472186E+02  0.45124984148E+02  0.76011546625E+02  0.10000000000E+01 0.  0.
    9000005    1    3    3    0    0  0.59967853756E+02 -0.12014472186E+02  0.81666759307E+02  0.10203406589E+03  0.10000000000E+01 0.  0.
<mgrwt>
<rscale>  0 0.12499638E+03</rscale>
<asrwt>0</asrwt>
<pdfrwt beam="2">  1        4 0.39426052E-02 0.12499638E+03</pdfrwt>
<pdfrwt beam="1">  1       -4 0.23449028E-01 0.12499638E+03</pdfrwt>
<totfact> 0.93977624E+03</totfact>
</mgrwt>
</event>
<event>
 5    1  0.3284464E-002  0.1250007E+03  0.7818608E-02  0.1235068E+00
          4   -1    0    0  501    0  0.00000000000E+00  0.00000000000E+00  0.18460337212E+02  0.18503971195E+02  0.12700000000E+01 0.  1.
         -4   -1    0    0    0  501 -0.00000000000E+00 -0.00000000000E+00 -0.21130924308E+03  0.21131305949E+03  0.12700000000E+01 0.  1.
         25    2    1    2    0    0  0.00000000000E+00  0.00000000000E+00 -0.19284890587E+03  0.22981703068E+03  0.12500066839E+03 0.  0.
    9000005    1    3    3    0    0 -0.18967098687E+02  0.45700826388E+02 -0.16660164461E+03  0.17379707809E+03  0.10000000000E+01 0.  0.
    9000005    1    3    3    0    0  0.18967098687E+02 -0.45700826388E+02 -0.26247261254E+02  0.56019952593E+02  0.10000000000E+01 0.  0.
<mgrwt>
<rscale>  0 0.12500067E+03</rscale>
<asrwt>0</asrwt>
<pdfrwt beam="1">  1        4 0.28437021E-02 0.12500067E+03</pdfrwt>
<pdfrwt beam="2">  1       -4 0.32512763E-01 0.12500067E+03</pdfrwt>
<totfact> 0.85336428E+03</totfact>
</mgrwt>
</event>
<event>
 5    1  0.3284464E-002  0.1250023E+03  0.7818608E-02  0.1235066E+00
         -4   -1    0    0    0  501 -0.00000000000E+00  0.00000000000E+00  0.12751171045E+03  0.12751803481E+03  0.12700000000E+01 0.  1.
          4   -1    0    0  501    0  0.00000000000E+00 -0.00000000000E+00 -0.30615298523E+02  0.30641628606E+02  0.12700000000E+01 0.  1.
         25    2    1    2    0    0  0.00000000000E+00  0.00000000000E+00  0.96896411931E+02  0.15815966342E+03  0.12500225793E+03 0.  0.
    9000005    1    3    3    0    0  0.36940513769E+02 -0.50031188117E+02  0.40682616688E+02  0.74322248637E+02  0.10000000000E+01 0.  0.
    9000005    1    3    3    0    0 -0.36940513769E+02  0.50031188117E+02  0.56213795243E+02  0.83837414784E+02  0.10000000000E+01 0.  0.
<mgrwt>
<rscale>  0 0.12500226E+03</rscale>
<asrwt>0</asrwt>
<pdfrwt beam="2">  1        4 0.47125579E-02 0.12500226E+03</pdfrwt>
<pdfrwt beam="1">  1       -4 0.19619698E-01 0.12500226E+03</pdfrwt>
<totfact> 0.97693806E+03</totfact>
</mgrwt>
</event>
<event>
 5    1  0.3284464E-002  0.1250013E+03  0.7818608E-02  0.1235067E+00
         -4   -1    0    0    0  501 -0.00000000000E+00  0.00000000000E+00  0.69932015849E+01  0.71075852726E+01  0.12700000000E+01 0.  1.
          4   -1    0    0  501    0  0.00000000000E+00 -0.00000000000E+00 -0.55394381702E+03  0.55394527285E+03  0.12700000000E+01 0.  1.
         25    2    1    2    0    0  0.00000000000E+00  0.00000000000E+00 -0.54695061544E+03  0.56105285813E+03  0.12500133553E+03 0.  0.
    9000005    1    3    3    0    0  0.38400281281E+02  0.18667965967E+02 -0.68662792441E+02  0.80861941738E+02  0.10000000000E+01 0.  0.
    9000005    1    3    3    0    0 -0.38400281281E+02 -0.18667965967E+02 -0.47828782300E+03  0.48019091639E+03  0.10000000000E+01 0.  0.
<mgrwt>
<rscale>  0 0.12500134E+03</rscale>
<asrwt>0</asrwt>
<pdfrwt beam="2">  1        4 0.85231003E-01 0.12500134E+03</pdfrwt>
<pdfrwt beam="1">  1       -4 0.10847883E-02 0.12500134E+03</pdfrwt>
<totfact> 0.51420630E+03</totfact>
</mgrwt>
</event>
<event>
 5    1  0.3284464E-002  0.1249975E+03  0.7818608E-02  0.1235073E+00
          4   -1    0    0  501    0  0.00000000000E+00  0.00000000000E+00  0.37132321967E+03  0.37132539149E+03  0.12700000000E+01 0. -1.
         -4   -1    0    0    0  501 -0.00000000000E+00 -0.00000000000E+00 -0.10478852657E+02  0.10555531868E+02  0.12700000000E+01 0. -1.
         25    2    1    2    0    0  0.00000000000E+00  0.00000000000E+00  0.36084436701E+03  0.38188092335E+03  0.12499752966E+03 0.  0.
    9000005    1    3    3    0    0 -0.24750258000E+02  0.34779673361E+02  0.31985345464E+03  0.32269092549E+03  0.10000000000E+01 0.  0.
    9000005    1    3    3    0    0  0.24750258000E+02 -0.34779673361E+02  0.40990912371E+02  0.59189997864E+02  0.10000000000E+01 0.  0.
<mgrwt>
<rscale>  0 0.12499753E+03</rscale>
<asrwt>0</asrwt>
<pdfrwt beam="1">  1        4 0.57132714E-01 0.12499753E+03</pdfrwt>
<pdfrwt beam="2">  1       -4 0.16181966E-02 0.12499753E+03</pdfrwt>
<totfact> 0.66357638E+03</totfact>
</mgrwt>
</event>
<event>
 5    1  0.3284464E-002  0.1249947E+03  0.7818608E-02  0.1235078E+00
          4   -1    0    0  501    0  0.00000000000E+00  0.00000000000E+00  0.21532595858E+02  0.21570015864E+02  0.12700000000E+01 0.  1.
         -4   -1    0    0    0  501 -0.00000000000E+00 -0.00000000000E+00 -0.18119857705E+03  0.18120302764E+03  0.12700000000E+01 0.  1.
         25    2    1    2    0    0  0.00000000000E+00  0.00000000000E+00 -0.15966598119E+03  0.20277304350E+03  0.12499472637E+03 0.  0.
    9000005    1    3    3    0    0  0.46801859940E+02 -0.13499868881E+02 -0.16331379968E+02  0.51384574780E+02  0.10000000000E+01 0.  0.
    9000005    1    3    3    0    0 -0.46801859940E+02  0.13499868881E+02 -0.14333460122E+03  0.15138846872E+03  0.10000000000E+01 0.  0.
<mgrwt>
<rscale>  0 0.12499473E+03</rscale>
<asrwt>0</asrwt>
<pdfrwt beam="1">  1        4 0.33159280E-02 0.12499473E+03</pdfrwt>
<pdfrwt beam="2">  1       -4 0.27879924E-01 0.12499473E+03</pdfrwt>
<totfact> 0.89680489E+03</totfact>
</mgrwt>
</event>
<event>
 5    1  0.3284464E-002  0.1250168E+03  0.7818608E-02  0.1235043E+00
         -4   -1    0    0    0  501 -0.00000000000E+00  0.00000000000E+00  0.11970543662E+04  0.11970550399E+04  0.12700000000E+01 0. -1.
          4   -1    0    0  501    0  0.00000000000E+00 -0.00000000000E+00 -0.31398606463E+01  0.33869787242E+01  0.12700000000E+01 0. -1.
         25    2    1    2    0    0  0.00000000000E+00  0.00000000000E+00  0.11939145056E+04  0.12004420187E+04  0.12501677286E+03 0.  0.
    9000005    1    3    3    0    0  0.17444647451E+02 -0.60013698366E+02  0.59136929132E+03  0.59466343291E+03  0.10000000000E+01 0.  0.
    9000005    1    3    3    0    0 -0.17444647451E+02  0.60013698366E+02  0.60254521427E+03  0.60577858576E+03  0.10000000000E+01 0.  0.
<mgrwt>
<rscale>  0 0.12501677E+03</rscale>
<asrwt>0</asrwt>
<pdfrwt beam="2">  1        4 0.50211569E-03 0.12501677E+03</pdfrwt>
<pdfrwt beam="1">  1       -4 0.18418153E+00 0.12501677E+03</pdfrwt>
<totfact> 0.24692101E+03</totfact>
</mgrwt>
</event>
<event>
 5    1  0.3284464E-002  0.1250020E+03  0.7818608E-02  0.1235066E+00
          4   -1    0    0  501    0  0.00000000000E+00  0.00000000000E+00  0.45407458274E+02  0.45425215101E+02  0.12700000000E+01 0. -1.
         -4   -1    0    0    0  501 -0.00000000000E+00 -0.00000000000E+00 -0.85990126958E+02  0.85999504849E+02  0.12700000000E+01 0. -1.
         25    2    1    2    0    0  0.00000000000E+00  0.00000000000E+00 -0.40582668683E+02  0.13142471995E+03  0.12500201605E+03 0.  0.
    9000005    1    3    3    0    0  0.33511250972E+02  0.64830613496E+01  0.34746637866E+02  0.48717172220E+02  0.10000000000E+01 0.  0.
    9000005    1    3    3    0    0 -0.33511250972E+02 -0.64830613496E+01 -0.75329306550E+02  0.82707547729E+02  0.10000000000E+01 0.  0.
<mgrwt>
<rscale>  0 0.12500202E+03</rscale>
<asrwt>0</asrwt>
<pdfrwt beam="1">  1        4 0.69878501E-02 0.12500202E+03</pdfrwt>
<pdfrwt beam="2">  1       -4 0.13231338E-01 0.12500202E+03</pdfrwt>
<totfact> 0.10313524E+04</totfact>
</mgrwt>
</event>
<event>
 5    1  0.3284464E-002  0.1250010E+03  0.7818608E-02  0.1235068E+00
          4   -1    0    0  501    0  0.00000000000E+00  0.00000000000E+00  0.10366282996E+04  0.10366290775E+04  0.12700000000E+01 0.  1.
         -4   -1    0    0    0  501 -0.00000000000E+00 -0.00000000000E+00 -0.36604805823E+01  0.38745345648E+01  0.12700000000E+01 0.  1.
         25    2    1    2    0    0  0.00000000000E+00  0.00000000000E+00  0.10329678190E+04  0.10405036121E+04  0.12500100682E+03 0.  0.
    9000005    1    3    3    0    0  0.42837538264E+02 -0.35157343619E+02  0.75690370979E+03  0.75893037849E+03  0.10000000000E+01 0.  0.
    9000005    1    3    3    0    0 -0.42837538264E+02  0.35157343619E+02  0.27606410920E+03  0.28157323361E+03  0.10000000000E+01 0.  0.
<mgrwt>
<rscale>  0 0.12500101E+03</rscale>
<asrwt>0</asrwt>
<pdfrwt beam="1">  1        4 0.15949787E+00 0.12500101E+03</pdfrwt>
<pdfrwt beam="2">  1       -4 0.57967616E-03 0.12500101E+03</pdfrwt>
<totfact> 0.29292487E+03</totfact>
</mgrwt>
</event>
<event>
 5    1  0.3284464E-002  0.1250102E+03  0.7818608E-02  0.1235053E+00
          4   -1    0    0  501    0  0.00000000000E+00  0.00000000000E+00  0.76127790431E+02  0.76138383066E+02  0.12700000000E+01 0.  1.
         -4   -1    0    0    0  501 -0.00000000000E+00 -0.00000000000E+00 -0.51298083689E+02  0.51313802141E+02  0.12700000000E+01 0.  1.
         25    2    1    2    0    0  0.00000000000E+00  0.00000000000E+00  0.24829706742E+02  0.12745218521E+03  0.12501018029E+03 0.  0.
    9000005    1    3    3    0    0  0.53899357416E+02 -0.24664966967E+02  0.32610515004E+02  0.67660527741E+02  0.10000000000E+01 0.  0.
    9000005    1    3    3    0    0 -0.53899357416E+02  0.24664966967E+02 -0.77808082622E+01  0.59791657466E+02  0.10000000000E+01 0.  0.
<mgrwt>
<rscale>  0 0.12501018E+03</rscale>
<asrwt>0</asrwt>
<pdfrwt beam="1">  1        4 0.11713992E-01 0.12501018E+03</pdfrwt>
<pdfrwt beam="2">  1       -4 0.78940368E-02 0.12501018E+03</pdfrwt>
<totfact> 0.10396947E+04</totfact>
</mgrwt>
</event>
<event>
 5    1  0.3284464E-002  0.1250086E+03  0.7818608E-02  0.1235056E+00
         -4   -1    0    0    0  501 -0.00000000000E+00  0.00000000000E+00  0.44423689622E+03  0.44423871158E+03  0.12700000000E+01 0. -1.
          4   -1    0    0  501    0  0.00000000000E+00 -0.00000000000E+00 -0.87466834417E+01  0.88384032059E+01  0.12700000000E+01 0. -1.
         25    2    1    2    0    0  0.00000000000E+00  0.00000000000E+00  0.43549021278E+03  0.45307711478E+03  0.12500858576E+03 0.  0.
    9000005    1    3    3    0    0 -0.23112584161E+02  0.26701209031E+01  0.42797299389E+03  0.42860611823E+03  0.10000000000E+01 0.  0.
    9000005    1    3    3    0    0  0.23112584161E+02 -0.26701209031E+01  0.75172188940E+01  0.24470996550E+02  0.10000000000E+01 0.  0.
<mgrwt>
<rscale>  0 0.12500859E+03</rscale>
<asrwt>0</asrwt>
<pdfrwt beam="2">  1        4 0.13528388E-02 0.12500859E+03</pdfrwt>
<pdfrwt beam="1">  1       -4 0.68351323E-01 0.12500859E+03</pdfrwt>
<totfact> 0.59686865E+03</totfact>
</mgrwt>
</event>
<event>
 5    1  0.3284464E-002  0.1250011E+03  0.7818608E-02  0.1235068E+00
          4   -1    0    0  501    0  0.00000000000E+00  0.00000000000E+00  0.60373897259E+01  0.61695198113E+01  0.12700000000E+01 0.  1.
         -4   -1    0    0    0  501 -0.00000000000E+00 -0.00000000000E+00 -0.63988441004E+03  0.63988567034E+03  0.12700000000E+01 0.  1.
         25    2    1    2    0    0  0.00000000000E+00  0.00000000000E+00 -0.63384702031E+03  0.64605519015E+03  0.12500105426E+03 0.  0.
    9000005    1    3    3    0    0 -0.47714612672E+02  0.34035533290E+02 -0.42899722543E+03  0.43298351148E+03  0.10000000000E+01 0.  0.
    9000005    1    3    3    0    0  0.47714612672E+02 -0.34035533290E+02 -0.20484979488E+03  0.21307167867E+03  0.10000000000E+01 0.  0.
<mgrwt>
<rscale>  0 0.12500105E+03</rscale>
<asrwt>0</asrwt>
<pdfrwt beam="1">  1        4 0.93909049E-03 0.12500105E+03</pdfrwt>
<pdfrwt beam="2">  1       -4 0.98453963E-01 0.12500105E+03</pdfrwt>
<totfact> 0.46082627E+03</totfact>
</mgrwt>
</event>
<event>
 5    1  0.3284464E-002  0.1250010E+03  0.7818608E-02  0.1235068E+00
         -4   -1    0    0    0  501 -0.00000000000E+00  0.00000000000E+00  0.33838013805E+03  0.33838252131E+03  0.12700000000E+01 0. -1.
          4   -1    0    0  501    0  0.00000000000E+00 -0.00000000000E+00 -0.11506793444E+02  0.11576665987E+02  0.12700000000E+01 0. -1.
         25    2    1    2    0    0  0.00000000000E+00  0.00000000000E+00  0.32687334461E+03  0.34995918730E+03  0.12500099743E+03 0.  0.
    9000005    1    3    3    0    0 -0.50899387225E+02 -0.35955057299E+02  0.15036539682E+03  0.16277059417E+03  0.10000000000E+01 0.  0.
    9000005    1    3    3    0    0  0.50899387225E+02  0.35955057299E+02  0.17650794779E+03  0.18718859313E+03  0.10000000000E+01 0.  0.
<mgrwt>
<rscale>  0 0.12500100E+03</rscale>
<asrwt>0</asrwt>
<pdfrwt beam="2">  1        4 0.17758339E-02 0.12500100E+03</pdfrwt>
<pdfrwt beam="1">  1       -4 0.52064046E-01 0.12500100E+03</pdfrwt>
<totfact> 0.69727502E+03</totfact>
</mgrwt>
</event>
<event>
 5    1  0.3284464E-002  0.1250017E+03  0.7818608E-02  0.1235067E+00
         -4   -1    0    0    0  501 -0.00000000000E+00  0.00000000000E+00  0.64395053176E+02  0.64407575436E+02  0.12700000000E+01 0.  1.
          4   -1    0    0  501    0  0.00000000000E+00 -0.00000000000E+00 -0.60637327853E+02  0.60650625958E+02  0.12700000000E+01 0.  1.
         25    2    1    2    0    0  0.00000000000E+00  0.00000000000E+00  0.37577253230E+01  0.12505820139E+03  0.12500173293E+03 0.  0.
    9000005    1    3    3    0    0 -0.59360389087E+02  0.17333252511E+02 -0.71396908986E+01  0.62258112895E+02  0.10000000000E+01 0.  0.
    9000005    1    3    3    0    0  0.59360389087E+02 -0.17333252511E+02  0.10897416222E+02  0.62800088499E+02  0.10000000000E+01 0.  0.
<mgrwt>
<rscale>  0 0.12500173E+03</rscale>
<asrwt>0</asrwt>
<pdfrwt beam="2">  1        4 0.93308058E-02 0.12500173E+03</pdfrwt>
<pdfrwt beam="1">  1       -4 0.99089175E-02 0.12500173E+03</pdfrwt>
<totfact> 0.10451189E+04</totfact>
</mgrwt>
</event>
<event>
 5    1  0.3284464E-002  0.1250011E+03  0.7818608E-02  0.1235068E+00
          4   -1    0    0  501    0  0.00000000000E+00  0.00000000000E+00  0.82717921193E+01  0.83687182331E+01  0.12700000000E+01 0. -1.
         -4   -1    0    0    0  501 -0.00000000000E+00 -0.00000000000E+00 -0.46939722085E+03  0.46939893890E+03  0.12700000000E+01 0. -1.
         25    2    1    2    0    0  0.00000000000E+00  0.00000000000E+00 -0.46112542873E+03  0.47776765713E+03  0.12500109272E+03 0.  0.
    9000005    1    3    3    0    0  0.43808021757E+02 -0.42418556175E+02 -0.28280711435E+03  0.28930838323E+03  0.10000000000E+01 0.  0.
    9000005    1    3    3    0    0 -0.43808021757E+02  0.42418556175E+02 -0.17831831438E+03  0.18845927390E+03  0.10000000000E+01 0.  0.
<mgrwt>
<rscale>  0 0.12500109E+03</rscale>
<asrwt>0</asrwt>
<pdfrwt beam="1">  1        4 0.12801718E-02 0.12500109E+03</pdfrwt>
<pdfrwt beam="2">  1       -4 0.72222525E-01 0.12500109E+03</pdfrwt>
<totfact> 0.57630172E+03</totfact>
</mgrwt>
</event>
<event>
 5    1  0.3284464E-002  0.1250011E+03  0.7818608E-02  0.1235067E+00
         -4   -1    0    0    0  501 -0.00000000000E+00  0.00000000000E+00  0.11795664347E+03  0.11796348011E+03  0.12700000000E+01 0. -1.
          4   -1    0    0  501    0  0.00000000000E+00 -0.00000000000E+00 -0.33096611567E+02  0.33120969146E+02  0.12700000000E+01 0. -1.
         25    2    1    2    0    0  0.00000000000E+00  0.00000000000E+00  0.84860031905E+02  0.15108444925E+03  0.12500114316E+03 0.  0.
    9000005    1    3    3    0    0  0.28855058680E+02 -0.15015296859E+02  0.10692388352E+03  0.11176667847E+03  0.10000000000E+01 0.  0.
    9000005    1    3    3    0    0 -0.28855058680E+02  0.15015296859E+02 -0.22063851610E+02  0.39317770780E+02  0.10000000000E+01 0.  0.
<mgrwt>
<rscale>  0 0.12500114E+03</rscale>
<asrwt>0</asrwt>
<pdfrwt beam="2">  1        4 0.50941859E-02 0.12500114E+03</pdfrwt>
<pdfrwt beam="1">  1       -4 0.18149576E-01 0.12500114E+03</pdfrwt>
<totfact> 0.99085418E+03</totfact>
</mgrwt>
</event>
<event>
 5    1  0.3284464E-002  0.1250034E+03  0.7818608E-02  0.1235064E+00
         -4   -1    0    0    0  501 -0.00000000000E+00  0.00000000000E+00  0.31450889216E+02  0.31476520336E+02  0.12700000000E+01 0. -1.
          4   -1    0    0  501    0  0.00000000000E+00 -0.00000000000E+00 -0.12412893272E+03  0.12413542943E+03  0.12700000000E+01 0. -1.
         25    2    1    2    0    0  0.00000000000E+00  0.00000000000E+00 -0.92678043508E+02  0.15561194976E+03  0.12500343660E+03 0.  0.
    9000005    1    3    3    0    0 -0.42127521852E+02 -0.45186071509E+02 -0.58080092964E+02  0.84798622362E+02  0.10000000000E+01 0.  0.
    9000005    1    3    3    0    0  0.42127521852E+02  0.45186071509E+02 -0.34597950544E+02  0.70813327401E+02  0.10000000000E+01 0.  0.
<mgrwt>
<rscale>  0 0.12500344E+03</rscale>
<asrwt>0</asrwt>
<pdfrwt beam="2">  1        4 0.19099230E-01 0.12500344E+03</pdfrwt>
<pdfrwt beam="1">  1       -4 0.48410698E-02 0.12500344E+03</pdfrwt>
<totfact> 0.98187911E+03</totfact>
</mgrwt>
</event>
<event>
 5    1  0.3284464E-002  0.1250004E+03  0.7818608E-02  0.1235069E+00
         -4   -1    0    0    0  501 -0.00000000000E+00  0.00000000000E+00  0.58136968420E+02  0.58150838318E+02  0.12700000000E+01 0.  1.
          4   -1    0    0  501    0  0.00000000000E+00 -0.00000000000E+00 -0.67163038920E+02  0.67175045195E+02  0.12700000000E+01 0.  1.
         25    2    1    2    0    0  0.00000000000E+00  0.00000000000E+00 -0.90260705003E+01  0.12532588351E+03  0.12500042852E+03 0.  0.
    9000005    1    3    3    0    0  0.42763170133E+02 -0.42695904589E+02 -0.20480825450E+02  0.63812954795E+02  0.10000000000E+01 0.  0.
    9000005    1    3    3    0    0 -0.42763170133E+02  0.42695904589E+02  0.11454754950E+02  0.61512928718E+02  0.10000000000E+01 0.  0.
<mgrwt>
<rscale>  0 0.12500043E+03</rscale>
<asrwt>0</asrwt>
<pdfrwt beam="2">  1        4 0.10334766E-01 0.12500043E+03</pdfrwt>
<pdfrwt beam="1">  1       -4 0.89461394E-02 0.12500043E+03</pdfrwt>
<totfact> 0.10445687E+04</totfact>
</mgrwt>
</event>
<event>
 5    1  0.3284464E-002  0.1249983E+03  0.7818608E-02  0.1235072E+00
          4   -1    0    0  501    0  0.00000000000E+00  0.00000000000E+00  0.21127727050E+02  0.21165862853E+02  0.12700000000E+01 0.  1.
         -4   -1    0    0    0  501 -0.00000000000E+00 -0.00000000000E+00 -0.18467531562E+03  0.18467968242E+03  0.12700000000E+01 0.  1.
         25    2    1    2    0    0  0.00000000000E+00  0.00000000000E+00 -0.16354758857E+03  0.20584554528E+03  0.12499829912E+03 0.  0.
    9000005    1    3    3    0    0  0.47834448107E+02 -0.40014305245E+01 -0.14766580192E+03  0.15527502996E+03  0.10000000000E+01 0.  0.
    9000005    1    3    3    0    0 -0.47834448107E+02  0.40014305245E+01 -0.15881786648E+02  0.50570515314E+02  0.10000000000E+01 0.  0.
<mgrwt>
<rscale>  0 0.12499830E+03</rscale>
<asrwt>0</asrwt>
<pdfrwt beam="1">  1        4 0.32536891E-02 0.12499830E+03</pdfrwt>
<pdfrwt beam="2">  1       -4 0.28414855E-01 0.12499830E+03</pdfrwt>
<totfact> 0.89162276E+03</totfact>
</mgrwt>
</event>
<event>
 5    1  0.3284464E-002  0.1249995E+03  0.7818608E-02  0.1235070E+00
         -4   -1    0    0    0  501 -0.00000000000E+00  0.00000000000E+00  0.91849048618E+02  0.91857828366E+02  0.12700000000E+01 0. -1.
          4   -1    0    0  501    0  0.00000000000E+00 -0.00000000000E+00 -0.42508355661E+02  0.42527322994E+02  0.12700000000E+01 0. -1.
         25    2    1    2    0    0  0.00000000000E+00  0.00000000000E+00  0.49340692957E+02  0.13438515136E+03  0.12499945970E+03 0.  0.
    9000005    1    3    3    0    0 -0.33633029063E+02  0.73958331124E+01 -0.31392440574E+02  0.46608629207E+02  0.10000000000E+01 0.  0.
    9000005    1    3    3    0    0  0.33633029063E+02 -0.73958331124E+01  0.80733133531E+02  0.87776522152E+02  0.10000000000E+01 0.  0.
<mgrwt>
<rscale>  0 0.12499946E+03</rscale>
<asrwt>0</asrwt>
<pdfrwt beam="2">  1        4 0.65418815E-02 0.12499946E+03</pdfrwt>
<pdfrwt beam="1">  1       -4 0.14132757E-01 0.12499946E+03</pdfrwt>
<totfact> 0.10251172E+04</totfact>
</mgrwt>
</event>
<event>
 5    1  0.3284464E-002  0.1249989E+03  0.7818608E-02  0.1235071E+00
          4   -1    0    0  501    0  0.00000000000E+00  0.00000000000E+00  0.42425258919E+02  0.42444263386E+02  0.12700000000E+01 0.  1.
         -4   -1    0    0    0  501 -0.00000000000E+00 -0.00000000000E+00 -0.92027997303E+02  0.92036759980E+02  0.12700000000E+01 0.  1.
         25    2    1    2    0    0  0.00000000000E+00  0.00000000000E+00 -0.49602738384E+02  0.13448102337E+03  0.12499885596E+03 0.  0.
    9000005    1    3    3    0    0  0.35773724277E+02  0.48430592832E+02 -0.68021380282E+01  0.60601573845E+02  0.10000000000E+01 0.  0.
    9000005    1    3    3    0    0 -0.35773724277E+02 -0.48430592832E+02 -0.42800600356E+02  0.73879449521E+02  0.10000000000E+01 0.  0.
<mgrwt>
<rscale>  0 0.12499886E+03</rscale>
<asrwt>0</asrwt>
<pdfrwt beam="1">  1        4 0.65290989E-02 0.12499886E+03</pdfrwt>
<pdfrwt beam="2">  1       -4 0.14160289E-01 0.12499886E+03</pdfrwt>
<totfact> 0.10249286E+04</totfact>
</mgrwt>
</event>
<event>
 5    1  0.3284464E-002  0.1250037E+03  0.7818608E-02  0.1235063E+00
         -4   -1    0    0    0  501 -0.00000000000E+00  0.00000000000E+00  0.35032926446E+03  0.35033156643E+03  0.12700000000E+01 0. -1.
          4   -1    0    0  501    0  0.00000000000E+00 -0.00000000000E+00 -0.11112381208E+02  0.11184717972E+02  0.12700000000E+01 0. -1.
         25    2    1    2    0    0  0.00000000000E+00  0.00000000000E+00  0.33921688325E+03  0.36151628440E+03  0.12500371996E+03 0.  0.
    9000005    1    3    3    0    0 -0.32161927946E+02 -0.52707076561E+00  0.14652748316E+02  0.35360577569E+02  0.10000000000E+01 0.  0.
    9000005    1    3    3    0    0  0.32161927946E+02  0.52707076561E+00  0.32456413494E+03  0.32615570683E+03  0.10000000000E+01 0.  0.
<mgrwt>
<rscale>  0 0.12500372E+03</rscale>
<asrwt>0</asrwt>
<pdfrwt beam="2">  1        4 0.17153387E-02 0.12500372E+03</pdfrwt>
<pdfrwt beam="1">  1       -4 0.53902547E-01 0.12500372E+03</pdfrwt>
<totfact> 0.68470300E+03</totfact>
</mgrwt>
</event>
<event>
 5    1  0.3284464E-002  0.1249954E+03  0.7818608E-02  0.1235076E+00
          4   -1    0    0  501    0  0.00000000000E+00  0.00000000000E+00  0.12176090409E+03  0.12176752714E+03  0.12700000000E+01 0. -1.
         -4   -1    0    0    0  501 -0.00000000000E+00 -0.00000000000E+00 -0.32058878759E+02  0.32084024176E+02  0.12700000000E+01 0. -1.
         25    2    1    2    0    0  0.00000000000E+00  0.00000000000E+00  0.89702025331E+02  0.15385155131E+03  0.12499538589E+03 0.  0.
    9000005    1    3    3    0    0  0.50945064838E+02 -0.35963975404E+02  0.39903872815E+02  0.74041381833E+02  0.10000000000E+01 0.  0.
    9000005    1    3    3    0    0 -0.50945064838E+02  0.35963975404E+02  0.49798152516E+02  0.79810169478E+02  0.10000000000E+01 0.  0.
<mgrwt>
<rscale>  0 0.12499539E+03</rscale>
<asrwt>0</asrwt>
<pdfrwt beam="1">  1        4 0.18734890E-01 0.12499539E+03</pdfrwt>
<pdfrwt beam="2">  1       -4 0.49345789E-02 0.12499539E+03</pdfrwt>
<totfact> 0.98551644E+03</totfact>
</mgrwt>
</event>
<event>
 5    1  0.3284464E-002  0.1250006E+03  0.7818608E-02  0.1235068E+00
         -4   -1    0    0    0  501 -0.00000000000E+00  0.00000000000E+00  0.99883372533E+01  0.10068752708E+02  0.12700000000E+01 0.  1.
          4   -1    0    0  501    0  0.00000000000E+00 -0.00000000000E+00 -0.38943536334E+03  0.38943743415E+03  0.12700000000E+01 0.  1.
         25    2    1    2    0    0  0.00000000000E+00  0.00000000000E+00 -0.37944702609E+03  0.39950618686E+03  0.12500059093E+03 0.  0.
    9000005    1    3    3    0    0 -0.46567396170E+02 -0.41672295114E+02 -0.19109582676E+03  0.20105650343E+03  0.10000000000E+01 0.  0.
    9000005    1    3    3    0    0  0.46567396170E+02  0.41672295114E+02 -0.18835119933E+03  0.19844968344E+03  0.10000000000E+01 0.  0.
<mgrwt>
<rscale>  0 0.12500059E+03</rscale>
<asrwt>0</asrwt>
<pdfrwt beam="2">  1        4 0.59919466E-01 0.12500059E+03</pdfrwt>
<pdfrwt beam="1">  1       -4 0.15430127E-02 0.12500059E+03</pdfrwt>
<totfact> 0.64600008E+03</totfact>
</mgrwt>
</event>
<event>
 5    1  0.3284464E-002  0.1249919E+03  0.7818608E-02  0.1235082E+00
         -4   -1    0    0    0  501 -0.00000000000E+00  0.00000000000E+00  0.32068756674E+01  0.34491957825E+01  0.12700000000E+01 0.  1.
          4   -1    0    0  501    0  0.00000000000E+00 -0.00000000000E+00 -0.11733464961E+04  0.11733471834E+04  0.12700000000E+01 0.  1.
         25    2    1    2    0    0  0.00000000000E+00  0.00000000000E+00 -0.11701396204E+04  0.11767963792E+04  0.12499194681E+03 0.  0.
    9000005    1    3    3    0    0  0.23320311839E+02  0.38306838678E+02 -0.17538348243E+03  0.18102932564E+03  0.10000000000E+01 0.  0.
    9000005    1    3    3    0    0 -0.23320311839E+02 -0.38306838678E+02 -0.99475613798E+03  0.99576705353E+03  0.10000000000E+01 0.  0.
<mgrwt>
<rscale>  0 0.12499195E+03</rscale>
<asrwt>0</asrwt>
<pdfrwt beam="2">  1        4 0.18053321E+00 0.12499195E+03</pdfrwt>
<pdfrwt beam="1">  1       -4 0.51205930E-03 0.12499195E+03</pdfrwt>
<totfact> 0.25332816E+03</totfact>
</mgrwt>
</event>
<event>
 5    1  0.3284464E-002  0.1249832E+03  0.7818608E-02  0.1235096E+00
          4   -1    0    0  501    0  0.00000000000E+00  0.00000000000E+00  0.21292311952E+04  0.21292315740E+04  0.12700000000E+01 0. -1.
         -4   -1    0    0    0  501 -0.00000000000E+00 -0.00000000000E+00 -0.16138144312E+01  0.20536058576E+01  0.12700000000E+01 0. -1.
         25    2    1    2    0    0  0.00000000000E+00  0.00000000000E+00  0.21276173808E+04  0.21312851798E+04  0.12498319377E+03 0.  0.
    9000005    1    3    3    0    0  0.35454751972E+02 -0.48332763201E+02  0.13645845076E+04  0.13659007921E+04  0.10000000000E+01 0.  0.
    9000005    1    3    3    0    0 -0.35454751972E+02  0.48332763201E+02  0.76303287315E+03  0.76538438771E+03  0.10000000000E+01 0.  0.
<mgrwt>
<rscale>  0 0.12498319E+03</rscale>
<asrwt>0</asrwt>
<pdfrwt beam="1">  1        4 0.32760860E+00 0.12498319E+03</pdfrwt>
<pdfrwt beam="2">  1       -4 0.28213778E-03 0.12498319E+03</pdfrwt>
<totfact> 0.82465231E+02</totfact>
</mgrwt>
</event>
<event>
 5    1  0.3284464E-002  0.1249950E+03  0.7818608E-02  0.1235077E+00
         -4   -1    0    0    0  501 -0.00000000000E+00  0.00000000000E+00  0.14080727415E+03  0.14081300136E+03  0.12700000000E+01 0. -1.
          4   -1    0    0  501    0  0.00000000000E+00 -0.00000000000E+00 -0.27718786107E+02  0.27747864841E+02  0.12700000000E+01 0. -1.
         25    2    1    2    0    0  0.00000000000E+00  0.00000000000E+00  0.11308848804E+03  0.16856086620E+03  0.12499503785E+03 0.  0.
    9000005    1    3    3    0    0 -0.35156424516E+02  0.41529222936E+02  0.97983936421E+02  0.11208256929E+03  0.10000000000E+01 0.  0.
    9000005    1    3    3    0    0  0.35156424516E+02 -0.41529222936E+02  0.15104551618E+02  0.56478296911E+02  0.10000000000E+01 0.  0.
<mgrwt>
<rscale>  0 0.12499504E+03</rscale>
<asrwt>0</asrwt>
<pdfrwt beam="2">  1        4 0.42671060E-02 0.12499504E+03</pdfrwt>
<pdfrwt beam="1">  1       -4 0.21665335E-01 0.12499504E+03</pdfrwt>
<totfact> 0.95727905E+03</totfact>
</mgrwt>
</event>
<event>
 5    1  0.3284464E-002  0.1249997E+03  0.7818608E-02  0.1235070E+00
         -4   -1    0    0    0  501 -0.00000000000E+00  0.00000000000E+00  0.52535547496E+01  0.54048808967E+01  0.12700000000E+01 0.  1.
          4   -1    0    0  501    0  0.00000000000E+00 -0.00000000000E+00 -0.73283204745E+03  0.73283314790E+03  0.12700000000E+01 0.  1.
         25    2    1    2    0    0  0.00000000000E+00  0.00000000000E+00 -0.72757849270E+03  0.73823802880E+03  0.12499969652E+03 0.  0.
    9000005    1    3    3    0    0 -0.40209992482E+02  0.30247808537E+02 -0.58266370530E+03  0.58483311029E+03  0.10000000000E+01 0.  0.
    9000005    1    3    3    0    0  0.40209992482E+02 -0.30247808537E+02 -0.14491478740E+03  0.15340491851E+03  0.10000000000E+01 0.  0.
<mgrwt>
<rscale>  0 0.12499970E+03</rscale>
<asrwt>0</asrwt>
<pdfrwt beam="2">  1        4 0.11275504E+00 0.12499970E+03</pdfrwt>
<pdfrwt beam="1">  1       -4 0.81996490E-03 0.12499970E+03</pdfrwt>
<totfact> 0.41143427E+03</totfact>
</mgrwt>
</event>
<event>
 5    1  0.3284464E-002  0.1249994E+03  0.7818608E-02  0.1235070E+00
          4   -1    0    0  501    0  0.00000000000E+00  0.00000000000E+00  0.33031120105E+02  0.33055525943E+02  0.12700000000E+01 0.  1.
         -4   -1    0    0    0  501 -0.00000000000E+00 -0.00000000000E+00 -0.11818706473E+03  0.11819388804E+03  0.12700000000E+01 0.  1.
         25    2    1    2    0    0  0.00000000000E+00  0.00000000000E+00 -0.85155944625E+02  0.15124941398E+03  0.12499940130E+03 0.  0.
    9000005    1    3    3    0    0 -0.49574234967E+02 -0.17693025458E+02 -0.18211427373E+01  0.52677931654E+02  0.10000000000E+01 0.  0.
    9000005    1    3    3    0    0  0.49574234967E+02  0.17693025458E+02 -0.83334801887E+02  0.98571482327E+02  0.10000000000E+01 0.  0.
<mgrwt>
<rscale>  0 0.12499940E+03</rscale>
<asrwt>0</asrwt>
<pdfrwt beam="1">  1        4 0.50841131E-02 0.12499940E+03</pdfrwt>
<pdfrwt beam="2">  1       -4 0.18185027E-01 0.12499940E+03</pdfrwt>
<totfact> 0.99056562E+03</totfact>
</mgrwt>
</event>
<event>
 5    1  0.3284464E-002  0.1250019E+03  0.7818608E-02  0.1235066E+00
          4   -1    0    0  501    0  0.00000000000E+00  0.00000000000E+00  0.17259466186E+02  0.17306128193E+02  0.12700000000E+01 0.  1.
         -4   -1    0    0    0  501 -0.00000000000E+00 -0.00000000000E+00 -0.22597811118E+03  0.22598167986E+03  0.12700000000E+01 0.  1.
         25    2    1    2    0    0  0.00000000000E+00  0.00000000000E+00 -0.20871864499E+03  0.24328780805E+03  0.12500193910E+03 0.  0.
    9000005    1    3    3    0    0  0.11066300918E+02 -0.58989252069E+02 -0.70470909322E+02  0.92570750976E+02  0.10000000000E+01 0.  0.
    9000005    1    3    3    0    0 -0.11066300918E+02  0.58989252069E+02 -0.13824773567E+03  0.15071705708E+03  0.10000000000E+01 0.  0.
<mgrwt>
<rscale>  0 0.12500194E+03</rscale>
<asrwt>0</asrwt>
<pdfrwt beam="1">  1        4 0.26591665E-02 0.12500194E+03</pdfrwt>
<pdfrwt beam="2">  1       -4 0.34769725E-01 0.12500194E+03</pdfrwt>
<totfact> 0.83306531E+03</totfact>
</mgrwt>
</event>
<event>
 5    1  0.3284464E-002  0.1250165E+03  0.7818608E-02  0.1235043E+00
         -4   -1    0    0    0  501 -0.00000000000E+00  0.00000000000E+00  0.10298010702E+03  0.10298793784E+03  0.12700000000E+01 0.  1.
          4   -1    0    0  501    0  0.00000000000E+00 -0.00000000000E+00 -0.37922193232E+02  0.37943453184E+02  0.12700000000E+01 0.  1.
         25    2    1    2    0    0  0.00000000000E+00  0.00000000000E+00  0.65057913784E+02  0.14093139103E+03  0.12501649823E+03 0.  0.
    9000005    1    3    3    0    0  0.27815009472E+02 -0.54026576442E+02  0.16048140046E+02  0.62857684597E+02  0.10000000000E+01 0.  0.
    9000005    1    3    3    0    0 -0.27815009472E+02  0.54026576442E+02  0.49009773738E+02  0.78073706430E+02  0.10000000000E+01 0.  0.
<mgrwt>
<rscale>  0 0.12501650E+03</rscale>
<asrwt>0</asrwt>
<pdfrwt beam="2">  1        4 0.58364214E-02 0.12501650E+03</pdfrwt>
<pdfrwt beam="1">  1       -4 0.15845331E-01 0.12501650E+03</pdfrwt>
<totfact> 0.10110560E+04</totfact>
</mgrwt>
</event>
<event>
 5    1  0.3284464E-002  0.1249858E+03  0.7818608E-02  0.1235091E+00
          4   -1    0    0  501    0  0.00000000000E+00  0.00000000000E+00  0.58273485029E+02  0.58287322442E+02  0.12700000000E+01 0. -1.
         -4   -1    0    0    0  501 -0.00000000000E+00 -0.00000000000E+00 -0.66990038598E+02  0.67002075874E+02  0.12700000000E+01 0. -1.
         25    2    1    2    0    0  0.00000000000E+00  0.00000000000E+00 -0.87165535688E+01  0.12528939832E+03  0.12498581929E+03 0.  0.
    9000005    1    3    3    0    0 -0.67646629291E+01  0.61341114051E+02 -0.14173423588E+02  0.63327552249E+02  0.10000000000E+01 0.  0.
    9000005    1    3    3    0    0  0.67646629291E+01 -0.61341114051E+02  0.54568700192E+01  0.61961846067E+02  0.10000000000E+01 0.  0.
<mgrwt>
<rscale>  0 0.12498582E+03</rscale>
<asrwt>0</asrwt>
<pdfrwt beam="1">  1        4 0.89671419E-02 0.12498582E+03</pdfrwt>
<pdfrwt beam="2">  1       -4 0.10308150E-01 0.12498582E+03</pdfrwt>
<totfact> 0.10449929E+04</totfact>
</mgrwt>
</event>
<event>
 5    1  0.3284464E-002  0.1249832E+03  0.7818608E-02  0.1235096E+00
         -4   -1    0    0    0  501 -0.00000000000E+00  0.00000000000E+00  0.10272176079E+03  0.10272961131E+03  0.12700000000E+01 0. -1.
          4   -1    0    0  501    0  0.00000000000E+00 -0.00000000000E+00 -0.37997327781E+02  0.38018545718E+02  0.12700000000E+01 0. -1.
         25    2    1    2    0    0  0.00000000000E+00  0.00000000000E+00  0.64724433006E+02  0.14074815702E+03  0.12498316478E+03 0.  0.
    9000005    1    3    3    0    0 -0.21988917408E+02 -0.53088031733E+02  0.47237265710E+01  0.57664245376E+02  0.10000000000E+01 0.  0.
    9000005    1    3    3    0    0  0.21988917408E+02  0.53088031733E+02  0.60000706435E+02  0.83083911649E+02  0.10000000000E+01 0.  0.
<mgrwt>
<rscale>  0 0.12498316E+03</rscale>
<asrwt>0</asrwt>
<pdfrwt beam="2">  1        4 0.58479788E-02 0.12498316E+03</pdfrwt>
<pdfrwt beam="1">  1       -4 0.15805584E-01 0.12498316E+03</pdfrwt>
<totfact> 0.10121942E+04</totfact>
</mgrwt>
</event>
<event>
 5    1  0.3284464E-002  0.1249862E+03  0.7818608E-02  0.1235091E+00
          4   -1    0    0  501    0  0.00000000000E+00  0.00000000000E+00  0.50077204530E+03  0.50077365571E+03  0.12700000000E+01 0. -1.
         -4   -1    0    0    0  501 -0.00000000000E+00 -0.00000000000E+00 -0.77453921194E+01  0.78488215092E+01  0.12700000000E+01 0. -1.
         25    2    1    2    0    0  0.00000000000E+00  0.00000000000E+00  0.49302665318E+03  0.50862247722E+03  0.12498617358E+03 0.  0.
    9000005    1    3    3    0    0  0.49263151377E+02  0.33927021011E+02  0.17298321389E+03  0.18303577007E+03  0.10000000000E+01 0.  0.
    9000005    1    3    3    0    0 -0.49263151377E+02 -0.33927021011E+02  0.32004343929E+03  0.32558670715E+03  0.10000000000E+01 0.  0.
<mgrwt>
<rscale>  0 0.12498617E+03</rscale>
<asrwt>0</asrwt>
<pdfrwt beam="1">  1        4 0.77049935E-01 0.12498617E+03</pdfrwt>
<pdfrwt beam="2">  1       -4 0.11996787E-02 0.12498617E+03</pdfrwt>
<totfact> 0.55218299E+03</totfact>
</mgrwt>
</event>
<event>
 5    1  0.3284464E-002  0.1249987E+03  0.7818608E-02  0.1235071E+00
         -4   -1    0    0    0  501 -0.00000000000E+00  0.00000000000E+00  0.10527263635E+02  0.10603592770E+02  0.12700000000E+01 0.  1.
          4   -1    0    0  501    0  0.00000000000E+00 -0.00000000000E+00 -0.36963486736E+03  0.36963704910E+03  0.12700000000E+01 0.  1.
         25    2    1    2    0    0  0.00000000000E+00  0.00000000000E+00 -0.35910760373E+03  0.38024064187E+03  0.12499869870E+03 0.  0.
    9000005    1    3    3    0    0  0.54239271942E+02  0.88614443985E+01 -0.89071828300E+02  0.10466716015E+03  0.10000000000E+01 0.  0.
    9000005    1    3    3    0    0 -0.54239271942E+02 -0.88614443985E+01 -0.27003577543E+03  0.27557348172E+03  0.10000000000E+01 0.  0.
<mgrwt>
<rscale>  0 0.12499870E+03</rscale>
<asrwt>0</asrwt>
<pdfrwt beam="2">  1        4 0.56872932E-01 0.12499870E+03</pdfrwt>
<pdfrwt beam="1">  1       -4 0.16256186E-02 0.12499870E+03</pdfrwt>
<totfact> 0.66522928E+03</totfact>
</mgrwt>
</event>
<event>
 5    1  0.3284464E-002  0.1249968E+03  0.7818608E-02  0.1235074E+00
          4   -1    0    0  501    0  0.00000000000E+00  0.00000000000E+00  0.23595917217E+02  0.23630070024E+02  0.12700000000E+01 0.  1.
         -4   -1    0    0    0  501 -0.00000000000E+00 -0.00000000000E+00 -0.16538293306E+03  0.16538780925E+03  0.12700000000E+01 0.  1.
         25    2    1    2    0    0  0.00000000000E+00  0.00000000000E+00 -0.14178701585E+03  0.18901787928E+03  0.12499680325E+03 0.  0.
    9000005    1    3    3    0    0 -0.95232222316E+01  0.48530913593E+02 -0.12865625361E+03  0.13783821288E+03  0.10000000000E+01 0.  0.
    9000005    1    3    3    0    0  0.95232222316E+01 -0.48530913593E+02 -0.13130762237E+02  0.51179666400E+02  0.10000000000E+01 0.  0.
<mgrwt>
<rscale>  0 0.12499680E+03</rscale>
<asrwt>0</asrwt>
<pdfrwt beam="1">  1        4 0.36331434E-02 0.12499680E+03</pdfrwt>
<pdfrwt beam="2">  1       -4 0.25446530E-01 0.12499680E+03</pdfrwt>
<totfact> 0.92025072E+03</totfact>
</mgrwt>
</event>
<event>
 5    1  0.3284464E-002  0.1249993E+03  0.7818608E-02  0.1235070E+00
         -4   -1    0    0    0  501 -0.00000000000E+00  0.00000000000E+00  0.19471361009E+01  0.23247019154E+01  0.12700000000E+01 0.  1.
          4   -1    0    0  501    0  0.00000000000E+00 -0.00000000000E+00 -0.18284385599E+04  0.18284390010E+04  0.12700000000E+01 0.  1.
         25    2    1    2    0    0  0.00000000000E+00  0.00000000000E+00 -0.18264914238E+04  0.18307637029E+04  0.12499925821E+03 0.  0.
    9000005    1    3    3    0    0  0.78095164114E+01  0.34953134398E+02 -0.16632816391E+04  0.16636674911E+04  0.10000000000E+01 0.  0.
    9000005    1    3    3    0    0 -0.78095164114E+01 -0.34953134398E+02 -0.16320978476E+03  0.16709621178E+03  0.10000000000E+01 0.  0.
<mgrwt>
<rscale>  0 0.12499926E+03</rscale>
<asrwt>0</asrwt>
<pdfrwt beam="2">  1        4 0.28132607E+00 0.12499926E+03</pdfrwt>
<pdfrwt beam="1">  1       -4 0.32863831E-03 0.12499926E+03</pdfrwt>
<totfact> 0.12235795E+03</totfact>
</mgrwt>
</event>
<event>
 5    1  0.3284464E-002  0.1249948E+03  0.7818608E-02  0.1235077E+00
          4   -1    0    0  501    0  0.00000000000E+00  0.00000000000E+00  0.23755865614E+02  0.23789788799E+02  0.12700000000E+01 0.  1.
         -4   -1    0    0    0  501 -0.00000000000E+00 -0.00000000000E+00 -0.16426565121E+03  0.16427056057E+03  0.12700000000E+01 0.  1.
         25    2    1    2    0    0  0.00000000000E+00  0.00000000000E+00 -0.14050978560E+03  0.18806034936E+03  0.12499478051E+03 0.  0.
    9000005    1    3    3    0    0  0.25964801490E+02  0.54317582319E+02 -0.45063158940E+02  0.75208104345E+02  0.10000000000E+01 0.  0.
    9000005    1    3    3    0    0 -0.25964801490E+02 -0.54317582319E+02 -0.95446626659E+02  0.11285224502E+03  0.10000000000E+01 0.  0.
<mgrwt>
<rscale>  0 0.12499478E+03</rscale>
<asrwt>0</asrwt>
<pdfrwt beam="1">  1        4 0.36577358E-02 0.12499478E+03</pdfrwt>
<pdfrwt beam="2">  1       -4 0.25274625E-01 0.12499478E+03</pdfrwt>
<totfact> 0.92196688E+03</totfact>
</mgrwt>
</event>
<event>
 5    1  0.3284464E-002  0.1249979E+03  0.7818608E-02  0.1235073E+00
         -4   -1    0    0    0  501 -0.00000000000E+00  0.00000000000E+00  0.20795165577E+02  0.20833910132E+02  0.12700000000E+01 0. -1.
          4   -1    0    0  501    0  0.00000000000E+00 -0.00000000000E+00 -0.18762212527E+03  0.18762642349E+03  0.12700000000E+01 0. -1.
         25    2    1    2    0    0  0.00000000000E+00  0.00000000000E+00 -0.16682695969E+03  0.20846033362E+03  0.12499790483E+03 0.  0.
    9000005    1    3    3    0    0  0.50585640578E+01 -0.29517282581E+02 -0.17488341691E+03  0.17743187017E+03  0.10000000000E+01 0.  0.
    9000005    1    3    3    0    0 -0.50585640578E+01  0.29517282581E+02  0.80564572170E+01  0.31028463452E+02  0.10000000000E+01 0.  0.
<mgrwt>
<rscale>  0 0.12499790E+03</rscale>
<asrwt>0</asrwt>
<pdfrwt beam="2">  1        4 0.28868252E-01 0.12499790E+03</pdfrwt>
<pdfrwt beam="1">  1       -4 0.32025674E-02 0.12499790E+03</pdfrwt>
<totfact> 0.88732105E+03</totfact>
</mgrwt>
</event>
<event>
 4    1  0.3284464E-002  0.1252123E+03  0.7818608E-02  0.1234738E+00
         -4   -1    0    0    0  501 -0.00000000000E+00  0.00000000000E+00  0.36575420319E+03  0.36575640808E+03  0.12700000000E+01 0. -1.
          4   -1    0    0  501    0  0.00000000000E+00 -0.00000000000E+00 -0.10676416102E+02  0.10751686416E+02  0.12700000000E+01 0. -1.
    9000005    1    1    2    0    0 -0.35161049611E+02 -0.36956247091E+02  0.28664070185E+03  0.29114593517E+03  0.10000000000E+01 0.  0.
    9000005    1    1    2    0    0  0.35161049611E+02  0.36956247091E+02  0.68437085238E+02  0.85362159326E+02  0.10000000000E+01 0.  0.
<mgrwt>
<rscale>  0 0.12521226E+03</rscale>
<asrwt>0</asrwt>
<pdfrwt beam="2">  1        4 0.16484853E-02 0.12521226E+03</pdfrwt>
<pdfrwt beam="1">  1       -4 0.56275834E-01 0.12521226E+03</pdfrwt>
<totfact> 0.66590635E+03</totfact>
</mgrwt>
</event>
<event>
 5    1  0.3284464E-002  0.1250001E+03  0.7818608E-02  0.1235069E+00
         -4   -1    0    0    0  501 -0.00000000000E+00  0.00000000000E+00  0.24319722904E+03  0.24320054505E+03  0.12700000000E+01 0. -1.
          4   -1    0    0  501    0  0.00000000000E+00 -0.00000000000E+00 -0.16033555441E+02  0.16083774435E+02  0.12700000000E+01 0. -1.
         25    2    1    2    0    0  0.00000000000E+00  0.00000000000E+00  0.22716367360E+03  0.25928431949E+03  0.12500009491E+03 0.  0.
    9000005    1    3    3    0    0 -0.59305244094E+02 -0.19668864416E+02  0.11123531451E+03  0.12758632920E+03  0.10000000000E+01 0.  0.
    9000005    1    3    3    0    0  0.59305244094E+02  0.19668864416E+02  0.11592835908E+03  0.13169799028E+03  0.10000000000E+01 0.  0.
<mgrwt>
<rscale>  0 0.12500009E+03</rscale>
<asrwt>0</asrwt>
<pdfrwt beam="2">  1        4 0.24708192E-02 0.12500009E+03</pdfrwt>
<pdfrwt beam="1">  1       -4 0.37419071E-01 0.12500009E+03</pdfrwt>
<totfact> 0.81006433E+03</totfact>
</mgrwt>
</event>
<event>
 5    1  0.3284464E-002  0.1249733E+03  0.7818608E-02  0.1235111E+00
          4   -1    0    0  501    0  0.00000000000E+00  0.00000000000E+00  0.55431003088E+01  0.56867267416E+01  0.12700000000E+01 0.  1.
         -4   -1    0    0    0  501 -0.00000000000E+00 -0.00000000000E+00 -0.69525107177E+03  0.69525223171E+03  0.12700000000E+01 0.  1.
         25    2    1    2    0    0  0.00000000000E+00  0.00000000000E+00 -0.68970797147E+03  0.70093895846E+03  0.12497334747E+03 0.  0.
    9000005    1    3    3    0    0 -0.62094104186E+02  0.49336160609E+01 -0.37208138845E+03  0.37726062340E+03  0.10000000000E+01 0.  0.
    9000005    1    3    3    0    0  0.62094104186E+02 -0.49336160609E+01 -0.31762658302E+03  0.32367833505E+03  0.10000000000E+01 0.  0.
<mgrwt>
<rscale>  0 0.12497335E+03</rscale>
<asrwt>0</asrwt>
<pdfrwt beam="1">  1        4 0.86392263E-03 0.12497335E+03</pdfrwt>
<pdfrwt beam="2">  1       -4 0.10697277E+00 0.12497335E+03</pdfrwt>
<totfact> 0.43062298E+03</totfact>
</mgrwt>
</event>
<event>
 5    1  0.3284464E-002  0.1249971E+03  0.7818608E-02  0.1235074E+00
          4   -1    0    0  501    0  0.00000000000E+00  0.00000000000E+00  0.93078455397E+01  0.93940879595E+01  0.12700000000E+01 0.  1.
         -4   -1    0    0    0  501 -0.00000000000E+00 -0.00000000000E+00 -0.41763068298E+03  0.41763261399E+03  0.12700000000E+01 0.  1.
         25    2    1    2    0    0  0.00000000000E+00  0.00000000000E+00 -0.40832283744E+03  0.42702670195E+03  0.12499705837E+03 0.  0.
    9000005    1    3    3    0    0  0.42680660971E+02  0.12893500512E+01 -0.48288351595E+02  0.64467558852E+02  0.10000000000E+01 0.  0.
    9000005    1    3    3    0    0 -0.42680660971E+02 -0.12893500512E+01 -0.36003448585E+03  0.36255914310E+03  0.10000000000E+01 0.  0.
<mgrwt>
<rscale>  0 0.12499706E+03</rscale>
<asrwt>0</asrwt>
<pdfrwt beam="1">  1        4 0.14387591E-02 0.12499706E+03</pdfrwt>
<pdfrwt beam="2">  1       -4 0.64257642E-01 0.12499706E+03</pdfrwt>
<totfact> 0.62010459E+03</totfact>
</mgrwt>
</event>
<event>
 5    1  0.3284464E-002  0.1249999E+03  0.7818608E-02  0.1235069E+00
         -4   -1    0    0    0  501 -0.00000000000E+00  0.00000000000E+00  0.74963666693E+02  0.74974423799E+02  0.12700000000E+01 0. -1.
          4   -1    0    0  501    0  0.00000000000E+00 -0.00000000000E+00 -0.52086283893E+02  0.52101764556E+02  0.12700000000E+01 0. -1.
         25    2    1    2    0    0  0.00000000000E+00  0.00000000000E+00  0.22877382799E+02  0.12707618835E+03  0.12499993201E+03 0.  0.
    9000005    1    3    3    0    0  0.11751303657E+02 -0.46106819333E+02  0.52624748438E+02  0.70952773552E+02  0.10000000000E+01 0.  0.
    9000005    1    3    3    0    0 -0.11751303657E+02  0.46106819333E+02 -0.29747365639E+02  0.56123414802E+02  0.10000000000E+01 0.  0.
<mgrwt>
<rscale>  0 0.12499993E+03</rscale>
<asrwt>0</asrwt>
<pdfrwt beam="2">  1        4 0.80152928E-02 0.12499993E+03</pdfrwt>
<pdfrwt beam="1">  1       -4 0.11534890E-01 0.12499993E+03</pdfrwt>
<totfact> 0.10407507E+04</totfact>
</mgrwt>
</event>
<event>
 5    1  0.3284464E-002  0.1250006E+03  0.7818608E-02  0.1235068E+00
          4   -1    0    0  501    0  0.00000000000E+00  0.00000000000E+00  0.94163049250E+01  0.95015629473E+01  0.12700000000E+01 0.  1.
         -4   -1    0    0    0  501 -0.00000000000E+00 -0.00000000000E+00 -0.41288689126E+03  0.41288884445E+03  0.12700000000E+01 0.  1.
         25    2    1    2    0    0  0.00000000000E+00  0.00000000000E+00 -0.40347058633E+03  0.42239040740E+03  0.12500056891E+03 0.  0.
    9000005    1    3    3    0    0  0.57671867360E+02 -0.96920620982E+01 -0.12729475035E+03  0.14008902105E+03  0.10000000000E+01 0.  0.
    9000005    1    3    3    0    0 -0.57671867360E+02  0.96920620982E+01 -0.27617583599E+03  0.28230138635E+03  0.10000000000E+01 0.  0.
<mgrwt>
<rscale>  0 0.12500057E+03</rscale>
<asrwt>0</asrwt>
<pdfrwt beam="1">  1        4 0.14553712E-02 0.12500057E+03</pdfrwt>
<pdfrwt beam="2">  1       -4 0.63527755E-01 0.12500057E+03</pdfrwt>
<totfact> 0.62431086E+03</totfact>
</mgrwt>
</event>
<event>
 5    1  0.3284464E-002  0.1250040E+03  0.7818608E-02  0.1235063E+00
         -4   -1    0    0    0  501 -0.00000000000E+00  0.00000000000E+00  0.11585012127E+02  0.11654415729E+02  0.12700000000E+01 0.  1.
          4   -1    0    0  501    0  0.00000000000E+00 -0.00000000000E+00 -0.33612540411E+03  0.33612780335E+03  0.12700000000E+01 0.  1.
         25    2    1    2    0    0  0.00000000000E+00  0.00000000000E+00 -0.32454039198E+03  0.34778221908E+03  0.12500402346E+03 0.  0.
    9000005    1    3    3    0    0 -0.32481026997E+02 -0.41225705374E+02 -0.67884321845E+02  0.85812918903E+02  0.10000000000E+01 0.  0.
    9000005    1    3    3    0    0  0.32481026997E+02  0.41225705374E+02 -0.25665607013E+03  0.26196930018E+03  0.10000000000E+01 0.  0.
<mgrwt>
<rscale>  0 0.12500402E+03</rscale>
<asrwt>0</asrwt>
<pdfrwt beam="2">  1        4 0.51717116E-01 0.12500402E+03</pdfrwt>
<pdfrwt beam="1">  1       -4 0.17878331E-02 0.12500402E+03</pdfrwt>
<totfact> 0.69963003E+03</totfact>
</mgrwt>
</event>
<event>
 5    1  0.3284464E-002  0.1250007E+03  0.7818608E-02  0.1235068E+00
          4   -1    0    0  501    0  0.00000000000E+00  0.00000000000E+00  0.17510814235E+02  0.17556808228E+02  0.12700000000E+01 0. -1.
         -4   -1    0    0    0  501 -0.00000000000E+00 -0.00000000000E+00 -0.22273849253E+03  0.22274211311E+03  0.12700000000E+01 0. -1.
         25    2    1    2    0    0  0.00000000000E+00  0.00000000000E+00 -0.20522767829E+03  0.24029892134E+03  0.12500068664E+03 0.  0.
    9000005    1    3    3    0    0 -0.23643145131E+02  0.47895983510E+02 -0.16497337679E+03  0.17340772358E+03  0.10000000000E+01 0.  0.
    9000005    1    3    3    0    0  0.23643145131E+02 -0.47895983510E+02 -0.40254301502E+02  0.66891197758E+02  0.10000000000E+01 0.  0.
<mgrwt>
<rscale>  0 0.12500069E+03</rscale>
<asrwt>0</asrwt>
<pdfrwt beam="1">  1        4 0.26977881E-02 0.12500069E+03</pdfrwt>
<pdfrwt beam="2">  1       -4 0.34271275E-01 0.12500069E+03</pdfrwt>
<totfact> 0.83751587E+03</totfact>
</mgrwt>
</event>
<event>
 5    1  0.3284464E-002  0.1250012E+03  0.7818608E-02  0.1235067E+00
         -4   -1    0    0    0  501 -0.00000000000E+00  0.00000000000E+00  0.94082102943E+01  0.94935410118E+01  0.12700000000E+01 0. -1.
          4   -1    0    0  501    0  0.00000000000E+00 -0.00000000000E+00 -0.41324289531E+03  0.41324484682E+03  0.12700000000E+01 0. -1.
         25    2    1    2    0    0  0.00000000000E+00  0.00000000000E+00 -0.40383468502E+03  0.42273838784E+03  0.12500116690E+03 0.  0.
    9000005    1    3    3    0    0  0.25391926338E+02  0.45920247481E+01 -0.94328729527E+01  0.27492102622E+02  0.10000000000E+01 0.  0.
    9000005    1    3    3    0    0 -0.25391926338E+02 -0.45920247481E+01 -0.39440181207E+03  0.39524628521E+03  0.10000000000E+01 0.  0.
<mgrwt>
<rscale>  0 0.12500117E+03</rscale>
<asrwt>0</asrwt>
<pdfrwt beam="2">  1        4 0.63582530E-01 0.12500117E+03</pdfrwt>
<pdfrwt beam="1">  1       -4 0.14541313E-02 0.12500117E+03</pdfrwt>
<totfact> 0.62398173E+03</totfact>
</mgrwt>
</event>
<event>
 5    1  0.3284464E-002  0.1249989E+03  0.7818608E-02  0.1235071E+00
         -4   -1    0    0    0  501 -0.00000000000E+00  0.00000000000E+00  0.62854918311E+02  0.62867747342E+02  0.12700000000E+01 0. -1.
          4   -1    0    0  501    0  0.00000000000E+00 -0.00000000000E+00 -0.62120312399E+02  0.62133293109E+02  0.12700000000E+01 0. -1.
         25    2    1    2    0    0  0.00000000000E+00  0.00000000000E+00  0.73460591223E+00  0.12500104045E+03  0.12499888187E+03 0.  0.
    9000005    1    3    3    0    0  0.47292045218E+02  0.39677143701E+02  0.10081730527E+02  0.62557609958E+02  0.10000000000E+01 0.  0.
    9000005    1    3    3    0    0 -0.47292045218E+02 -0.39677143701E+02 -0.93471246146E+01  0.62443430493E+02  0.10000000000E+01 0.  0.
<mgrwt>
<rscale>  0 0.12499888E+03</rscale>
<asrwt>0</asrwt>
<pdfrwt beam="2">  1        4 0.95589565E-02 0.12499888E+03</pdfrwt>
<pdfrwt beam="1">  1       -4 0.96719728E-02 0.12499888E+03</pdfrwt>
<totfact> 0.10453104E+04</totfact>
</mgrwt>
</event>
<event>
 5    1  0.3284464E-002  0.1250044E+03  0.7818608E-02  0.1235062E+00
          4   -1    0    0  501    0  0.00000000000E+00  0.00000000000E+00  0.55928615817E+02  0.55943033233E+02  0.12700000000E+01 0.  1.
         -4   -1    0    0    0  501 -0.00000000000E+00 -0.00000000000E+00 -0.69819177627E+02  0.69830727223E+02  0.12700000000E+01 0.  1.
         25    2    1    2    0    0  0.00000000000E+00  0.00000000000E+00 -0.13890561809E+02  0.12577376046E+03  0.12500436437E+03 0.  0.
    9000005    1    3    3    0    0 -0.49425450231E+02  0.17384096487E+02 -0.41220194729E+02  0.66672231061E+02  0.10000000000E+01 0.  0.
    9000005    1    3    3    0    0  0.49425450231E+02 -0.17384096487E+02  0.27329632919E+02  0.59101529394E+02  0.10000000000E+01 0.  0.
<mgrwt>
<rscale>  0 0.12500436E+03</rscale>
<asrwt>0</asrwt>
<pdfrwt beam="1">  1        4 0.86063999E-02 0.12500436E+03</pdfrwt>
<pdfrwt beam="2">  1       -4 0.10743409E-01 0.12500436E+03</pdfrwt>
<totfact> 0.10434894E+04</totfact>
</mgrwt>
</event>
<event>
 4    1  0.3284464E-002  0.1236955E+03  0.7818608E-02  0.1237122E+00
         -4   -1    0    0    0  501 -0.00000000000E+00  0.00000000000E+00  0.52737535174E+01  0.54245162146E+01  0.12700000000E+01 0. -1.
          4   -1    0    0  501    0  0.00000000000E+00 -0.00000000000E+00 -0.71494456763E+03  0.71494569562E+03  0.12700000000E+01 0. -1.
    9000005    1    1    2    0    0 -0.47746720714E+02 -0.38801821937E+02 -0.39111766841E+03  0.39592847999E+03  0.10000000000E+01 0.  0.
    9000005    1    1    2    0    0  0.47746720714E+02  0.38801821937E+02 -0.31855314570E+03  0.32444173184E+03  0.10000000000E+01 0.  0.
<mgrwt>
<rscale>  0 0.12369550E+03</rscale>
<asrwt>0</asrwt>
<pdfrwt beam="2">  1        4 0.11000308E+00 0.12369550E+03</pdfrwt>
<pdfrwt beam="1">  1       -4 0.82303116E-03 0.12369550E+03</pdfrwt>
<totfact> 0.43255291E+03</totfact>
</mgrwt>
</event>
<event>
 5    1  0.3284464E-002  0.1249987E+03  0.7818608E-02  0.1235071E+00
          4   -1    0    0  501    0  0.00000000000E+00  0.00000000000E+00  0.53000510352E+01  0.54500863274E+01  0.12700000000E+01 0.  1.
         -4   -1    0    0    0  501 -0.00000000000E+00 -0.00000000000E+00 -0.72656916252E+03  0.72657027246E+03  0.12700000000E+01 0.  1.
         25    2    1    2    0    0  0.00000000000E+00  0.00000000000E+00 -0.72126911148E+03  0.73202035879E+03  0.12499869799E+03 0.  0.
    9000005    1    3    3    0    0 -0.31264925610E+02 -0.42714427996E+02 -0.55514149118E+03  0.55766037438E+03  0.10000000000E+01 0.  0.
    9000005    1    3    3    0    0  0.31264925610E+02  0.42714427996E+02 -0.16612762031E+03  0.17435998440E+03  0.10000000000E+01 0.  0.
<mgrwt>
<rscale>  0 0.12499870E+03</rscale>
<asrwt>0</asrwt>
<pdfrwt beam="1">  1        4 0.82701960E-03 0.12499870E+03</pdfrwt>
<pdfrwt beam="2">  1       -4 0.11179142E+00 0.12499870E+03</pdfrwt>
<totfact> 0.41450425E+03</totfact>
</mgrwt>
</event>
<event>
 5    1  0.3284464E-002  0.1250009E+03  0.7818608E-02  0.1235068E+00
          4   -1    0    0  501    0  0.00000000000E+00  0.00000000000E+00  0.75819568715E+01  0.76875854467E+01  0.12700000000E+01 0. -1.
         -4   -1    0    0    0  501 -0.00000000000E+00 -0.00000000000E+00 -0.51154006438E+03  0.51154164089E+03  0.12700000000E+01 0. -1.
         25    2    1    2    0    0  0.00000000000E+00  0.00000000000E+00 -0.50395810751E+03  0.51922922634E+03  0.12500086144E+03 0.  0.
    9000005    1    3    3    0    0 -0.26525943510E+02  0.13433708068E+02 -0.23662793058E+02  0.38013391941E+02  0.10000000000E+01 0.  0.
    9000005    1    3    3    0    0  0.26525943510E+02 -0.13433708068E+02 -0.48029531445E+03  0.48121583440E+03  0.10000000000E+01 0.  0.
<mgrwt>
<rscale>  0 0.12500086E+03</rscale>
<asrwt>0</asrwt>
<pdfrwt beam="1">  1        4 0.11747019E-02 0.12500086E+03</pdfrwt>
<pdfrwt beam="2">  1       -4 0.78706691E-01 0.12500086E+03</pdfrwt>
<totfact> 0.54401665E+03</totfact>
</mgrwt>
</event>
<event>
 5    1  0.3284464E-002  0.1250003E+03  0.7818608E-02  0.1235069E+00
          4   -1    0    0  501    0  0.00000000000E+00  0.00000000000E+00  0.59624919223E+02  0.59638443075E+02  0.12700000000E+01 0. -1.
         -4   -1    0    0    0  501 -0.00000000000E+00 -0.00000000000E+00 -0.65486963056E+02  0.65499276563E+02  0.12700000000E+01 0. -1.
         25    2    1    2    0    0  0.00000000000E+00  0.00000000000E+00 -0.58620438322E+01  0.12513771964E+03  0.12500034127E+03 0.  0.
    9000005    1    3    3    0    0  0.30678917267E+02 -0.22913665003E+02 -0.52371930000E+02  0.64884906261E+02  0.10000000000E+01 0.  0.
    9000005    1    3    3    0    0 -0.30678917267E+02  0.22913665003E+02  0.46509886167E+02  0.60252813377E+02  0.10000000000E+01 0.  0.
<mgrwt>
<rscale>  0 0.12500034E+03</rscale>
<asrwt>0</asrwt>
<pdfrwt beam="1">  1        4 0.91750519E-02 0.12500034E+03</pdfrwt>
<pdfrwt beam="2">  1       -4 0.10076905E-01 0.12500034E+03</pdfrwt>
<totfact> 0.10449792E+04</totfact>
</mgrwt>
</event>
<event>
 5    1  0.3284464E-002  0.1249986E+03  0.7818608E-02  0.1235071E+00
         -4   -1    0    0    0  501 -0.00000000000E+00  0.00000000000E+00  0.11413546294E+02  0.11483986198E+02  0.12700000000E+01 0. -1.
          4   -1    0    0  501    0  0.00000000000E+00 -0.00000000000E+00 -0.34111478820E+03  0.34111715236E+03  0.12700000000E+01 0. -1.
         25    2    1    2    0    0  0.00000000000E+00  0.00000000000E+00 -0.32970124191E+03  0.35260113855E+03  0.12499861596E+03 0.  0.
    9000005    1    3    3    0    0 -0.26001881109E+02 -0.36287053152E+02 -0.41495190555E+02  0.60956532766E+02  0.10000000000E+01 0.  0.
    9000005    1    3    3    0    0  0.26001881109E+02  0.36287053152E+02 -0.28820605136E+03  0.29164460579E+03  0.10000000000E+01 0.  0.
<mgrwt>
<rscale>  0 0.12499862E+03</rscale>
<asrwt>0</asrwt>
<pdfrwt beam="2">  1        4 0.52484791E-01 0.12499862E+03</pdfrwt>
<pdfrwt beam="1">  1       -4 0.17615308E-02 0.12499862E+03</pdfrwt>
<totfact> 0.69441474E+03</totfact>
</mgrwt>
</event>
<event>
 5    1  0.3284464E-002  0.1250006E+03  0.7818608E-02  0.1235068E+00
          4   -1    0    0  501    0  0.00000000000E+00  0.00000000000E+00  0.19904350756E+01  0.23610869934E+01  0.12700000000E+01 0.  1.
         -4   -1    0    0    0  501 -0.00000000000E+00 -0.00000000000E+00 -0.17949962677E+04  0.17949967169E+04  0.12700000000E+01 0.  1.
         25    2    1    2    0    0  0.00000000000E+00  0.00000000000E+00 -0.17930058326E+04  0.17973578039E+04  0.12500063867E+03 0.  0.
    9000005    1    3    3    0    0  0.31576987739E+02 -0.71587848635E+00 -0.16718478673E+04  0.16721464977E+04  0.10000000000E+01 0.  0.
    9000005    1    3    3    0    0 -0.31576987739E+02  0.71587848635E+00 -0.12115796532E+03  0.12521130619E+03  0.10000000000E+01 0.  0.
<mgrwt>
<rscale>  0 0.12500064E+03</rscale>
<asrwt>0</asrwt>
<pdfrwt beam="1">  1        4 0.33476846E-03 0.12500064E+03</pdfrwt>
<pdfrwt beam="2">  1       -4 0.27618063E+00 0.12500064E+03</pdfrwt>
<totfact> 0.12744178E+03</totfact>
</mgrwt>
</event>
<event>
 5    1  0.3284464E-002  0.1250043E+03  0.7818608E-02  0.1235063E+00
          4   -1    0    0  501    0  0.00000000000E+00  0.00000000000E+00  0.27008439548E+02  0.27038282246E+02  0.12700000000E+01 0.  1.
         -4   -1    0    0    0  501 -0.00000000000E+00 -0.00000000000E+00 -0.14452819132E+03  0.14453377109E+03  0.12700000000E+01 0.  1.
         25    2    1    2    0    0  0.00000000000E+00  0.00000000000E+00 -0.11751975177E+03  0.17157205334E+03  0.12500430965E+03 0.  0.
    9000005    1    3    3    0    0  0.52413336680E+02  0.30239236470E+02 -0.37322479446E+02  0.71102297827E+02  0.10000000000E+01 0.  0.
    9000005    1    3    3    0    0 -0.52413336680E+02 -0.30239236470E+02 -0.80197272327E+02  0.10046975551E+03  0.10000000000E+01 0.  0.
<mgrwt>
<rscale>  0 0.12500431E+03</rscale>
<asrwt>0</asrwt>
<pdfrwt beam="1">  1        4 0.41578694E-02 0.12500431E+03</pdfrwt>
<pdfrwt beam="2">  1       -4 0.22237831E-01 0.12500431E+03</pdfrwt>
<totfact> 0.95147234E+03</totfact>
</mgrwt>
</event>
<event>
 5    1  0.3284464E-002  0.1249926E+03  0.7818608E-02  0.1235081E+00
         -4   -1    0    0    0  501 -0.00000000000E+00  0.00000000000E+00  0.83822008723E+02  0.83831629152E+02  0.12700000000E+01 0.  1.
          4   -1    0    0  501    0  0.00000000000E+00 -0.00000000000E+00 -0.46575235012E+02  0.46592546790E+02  0.12700000000E+01 0.  1.
         25    2    1    2    0    0  0.00000000000E+00  0.00000000000E+00  0.37246773711E+02  0.13042417594E+03  0.12499257385E+03 0.  0.
    9000005    1    3    3    0    0 -0.55868026029E+02 -0.25165163600E+02  0.31414298249E+02  0.68864939744E+02  0.10000000000E+01 0.  0.
    9000005    1    3    3    0    0  0.55868026029E+02  0.25165163600E+02  0.58324754621E+01  0.61559236199E+02  0.10000000000E+01 0.  0.
<mgrwt>
<rscale>  0 0.12499257E+03</rscale>
<asrwt>0</asrwt>
<pdfrwt beam="2">  1        4 0.71674926E-02 0.12499257E+03</pdfrwt>
<pdfrwt beam="1">  1       -4 0.12897765E-01 0.12499257E+03</pdfrwt>
<totfact> 0.10337174E+04</totfact>
</mgrwt>
</event>
<event>
 5    1  0.3284464E-002  0.1249956E+03  0.7818608E-02  0.1235076E+00
          4   -1    0    0  501    0  0.00000000000E+00  0.00000000000E+00  0.42096423439E+03  0.42096615010E+03  0.12700000000E+01 0. -1.
         -4   -1    0    0    0  501 -0.00000000000E+00 -0.00000000000E+00 -0.92332335285E+01  0.93201663822E+01  0.12700000000E+01 0. -1.
         25    2    1    2    0    0  0.00000000000E+00  0.00000000000E+00  0.41173100086E+03  0.43028631648E+03  0.12499558827E+03 0.  0.
    9000005    1    3    3    0    0 -0.59718543962E+02  0.16352938622E+02  0.17680795854E+03  0.18733867005E+03  0.10000000000E+01 0.  0.
    9000005    1    3    3    0    0  0.59718543962E+02 -0.16352938622E+02  0.23492304232E+03  0.24294764643E+03  0.10000000000E+01 0.  0.
<mgrwt>
<rscale>  0 0.12499559E+03</rscale>
<asrwt>0</asrwt>
<pdfrwt beam="1">  1        4 0.64770566E-01 0.12499559E+03</pdfrwt>
<pdfrwt beam="2">  1       -4 0.14273319E-02 0.12499559E+03</pdfrwt>
<totfact> 0.61716046E+03</totfact>
</mgrwt>
</event>
<event>
 5    1  0.3284464E-002  0.1250003E+03  0.7818608E-02  0.1235069E+00
          4   -1    0    0  501    0  0.00000000000E+00  0.00000000000E+00  0.91791621389E+02  0.91800406629E+02  0.12700000000E+01 0. -1.
         -4   -1    0    0    0  501 -0.00000000000E+00 -0.00000000000E+00 -0.42535513818E+02  0.42554469046E+02  0.12700000000E+01 0. -1.
         25    2    1    2    0    0  0.00000000000E+00  0.00000000000E+00  0.49256107571E+02  0.13435487567E+03  0.12500027394E+03 0.  0.
    9000005    1    3    3    0    0  0.32191790389E+02  0.41685881859E+02 -0.11522954966E+02  0.53924044785E+02  0.10000000000E+01 0.  0.
    9000005    1    3    3    0    0 -0.32191790389E+02 -0.41685881859E+02  0.60779062536E+02  0.80430830890E+02  0.10000000000E+01 0.  0.
<mgrwt>
<rscale>  0 0.12500027E+03</rscale>
<asrwt>0</asrwt>
<pdfrwt beam="1">  1        4 0.14123922E-01 0.12500027E+03</pdfrwt>
<pdfrwt beam="2">  1       -4 0.65460592E-02 0.12500027E+03</pdfrwt>
<totfact> 0.10251623E+04</totfact>
</mgrwt>
</event>
<event>
 5    1  0.3284464E-002  0.1250003E+03  0.7818608E-02  0.1235069E+00
         -4   -1    0    0    0  501 -0.00000000000E+00  0.00000000000E+00  0.16832903147E+03  0.16833382231E+03  0.12700000000E+01 0.  1.
          4   -1    0    0  501    0  0.00000000000E+00 -0.00000000000E+00 -0.23183642334E+02  0.23218401578E+02  0.12700000000E+01 0.  1.
         25    2    1    2    0    0  0.00000000000E+00  0.00000000000E+00  0.14514538913E+03  0.19155222389E+03  0.12500028196E+03 0.  0.
    9000005    1    3    3    0    0  0.40014357545E+02 -0.24840114386E+02  0.96300460200E+01  0.48082407165E+02  0.10000000000E+01 0.  0.
    9000005    1    3    3    0    0 -0.40014357545E+02  0.24840114386E+02  0.13551534311E+03  0.14346981673E+03  0.10000000000E+01 0.  0.
<mgrwt>
<rscale>  0 0.12500028E+03</rscale>
<asrwt>0</asrwt>
<pdfrwt beam="2">  1        4 0.35697566E-02 0.12500028E+03</pdfrwt>
<pdfrwt beam="1">  1       -4 0.25899816E-01 0.12500028E+03</pdfrwt>
<totfact> 0.91577354E+03</totfact>
</mgrwt>
</event>
<event>
 5    1  0.3284464E-002  0.1250008E+03  0.7818608E-02  0.1235068E+00
          4   -1    0    0  501    0  0.00000000000E+00  0.00000000000E+00  0.53575736416E+02  0.53590786825E+02  0.12700000000E+01 0. -1.
         -4   -1    0    0    0  501 -0.00000000000E+00 -0.00000000000E+00 -0.72880953001E+02  0.72892017466E+02  0.12700000000E+01 0. -1.
         25    2    1    2    0    0  0.00000000000E+00  0.00000000000E+00 -0.19305216585E+02  0.12648280429E+03  0.12500083357E+03 0.  0.
    9000005    1    3    3    0    0 -0.20736655768E+02 -0.58605128596E+02 -0.16110444446E+02  0.64227069141E+02  0.10000000000E+01 0.  0.
    9000005    1    3    3    0    0  0.20736655768E+02  0.58605128596E+02 -0.31947721385E+01  0.62255735151E+02  0.10000000000E+01 0.  0.
<mgrwt>
<rscale>  0 0.12500083E+03</rscale>
<asrwt>0</asrwt>
<pdfrwt beam="1">  1        4 0.82444299E-02 0.12500083E+03</pdfrwt>
<pdfrwt beam="2">  1       -4 0.11214463E-01 0.12500083E+03</pdfrwt>
<totfact> 0.10420207E+04</totfact>
</mgrwt>
</event>
<event>
 5    1  0.3284464E-002  0.1250000E+03  0.7818608E-02  0.1235069E+00
          4   -1    0    0  501    0  0.00000000000E+00  0.00000000000E+00  0.25603093447E+02  0.25634572242E+02  0.12700000000E+01 0. -1.
         -4   -1    0    0    0  501 -0.00000000000E+00 -0.00000000000E+00 -0.15244154794E+03  0.15244683807E+03  0.12700000000E+01 0. -1.
         25    2    1    2    0    0  0.00000000000E+00  0.00000000000E+00 -0.12683845449E+03  0.17808141031E+03  0.12499998065E+03 0.  0.
    9000005    1    3    3    0    0 -0.17222833811E+02 -0.42920458387E+02 -0.35422069203E+01  0.46393307518E+02  0.10000000000E+01 0.  0.
    9000005    1    3    3    0    0  0.17222833811E+02  0.42920458387E+02 -0.12329624757E+03  0.13168810279E+03  0.10000000000E+01 0.  0.
<mgrwt>
<rscale>  0 0.12499998E+03</rscale>
<asrwt>0</asrwt>
<pdfrwt beam="1">  1        4 0.39417659E-02 0.12499998E+03</pdfrwt>
<pdfrwt beam="2">  1       -4 0.23455374E-01 0.12499998E+03</pdfrwt>
<totfact> 0.93963541E+03</totfact>
</mgrwt>
</event>
<event>
 5    1  0.3284464E-002  0.1249978E+03  0.7818608E-02  0.1235073E+00
         -4   -1    0    0    0  501 -0.00000000000E+00  0.00000000000E+00  0.58680772167E+02  0.58694513560E+02  0.12700000000E+01 0.  1.
          4   -1    0    0  501    0  0.00000000000E+00 -0.00000000000E+00 -0.66537850365E+02  0.66549969430E+02  0.12700000000E+01 0.  1.
         25    2    1    2    0    0  0.00000000000E+00  0.00000000000E+00 -0.78570781981E+01  0.12524448299E+03  0.12499778735E+03 0.  0.
    9000005    1    3    3    0    0  0.55299626248E+02 -0.13583779567E+02 -0.29719269105E+02  0.64240195257E+02  0.10000000000E+01 0.  0.
    9000005    1    3    3    0    0 -0.55299626248E+02  0.13583779567E+02  0.21862190907E+02  0.61004287733E+02  0.10000000000E+01 0.  0.
<mgrwt>
<rscale>  0 0.12499779E+03</rscale>
<asrwt>0</asrwt>
<pdfrwt beam="2">  1        4 0.10238582E-01 0.12499779E+03</pdfrwt>
<pdfrwt beam="1">  1       -4 0.90298004E-02 0.12499779E+03</pdfrwt>
<totfact> 0.10448077E+04</totfact>
</mgrwt>
</event>
<event>
 5    1  0.3284464E-002  0.1249868E+03  0.7818608E-02  0.1235090E+00
         -4   -1    0    0    0  501 -0.00000000000E+00  0.00000000000E+00  0.19256925788E+02  0.19298758790E+02  0.12700000000E+01 0. -1.
          4   -1    0    0  501    0  0.00000000000E+00 -0.00000000000E+00 -0.20254230196E+03  0.20254628356E+03  0.12700000000E+01 0. -1.
         25    2    1    2    0    0  0.00000000000E+00  0.00000000000E+00 -0.18328537617E+03  0.22184504235E+03  0.12498677408E+03 0.  0.
    9000005    1    3    3    0    0 -0.57455493805E+02  0.41354083775E+00 -0.13523270566E+03  0.14693600466E+03  0.10000000000E+01 0.  0.
    9000005    1    3    3    0    0  0.57455493805E+02 -0.41354083775E+00 -0.48052670509E+02  0.74909037689E+02  0.10000000000E+01 0.  0.
<mgrwt>
<rscale>  0 0.12498677E+03</rscale>
<asrwt>0</asrwt>
<pdfrwt beam="2">  1        4 0.31163877E-01 0.12498677E+03</pdfrwt>
<pdfrwt beam="1">  1       -4 0.29661283E-02 0.12498677E+03</pdfrwt>
<totfact> 0.86602814E+03</totfact>
</mgrwt>
</event>
<event>
 5    1  0.3284464E-002  0.1250016E+03  0.7818608E-02  0.1235067E+00
          4   -1    0    0  501    0  0.00000000000E+00  0.00000000000E+00  0.77998011571E+02  0.78008350252E+02  0.12700000000E+01 0.  1.
         -4   -1    0    0    0  501 -0.00000000000E+00 -0.00000000000E+00 -0.50060936062E+02  0.50077042838E+02  0.12700000000E+01 0.  1.
         25    2    1    2    0    0  0.00000000000E+00  0.00000000000E+00  0.27937075509E+02  0.12808539309E+03  0.12500155093E+03 0.  0.
    9000005    1    3    3    0    0 -0.15559520076E+02 -0.43823853480E+02  0.56744302170E+02  0.73372642229E+02  0.10000000000E+01 0.  0.
    9000005    1    3    3    0    0  0.15559520076E+02  0.43823853480E+02 -0.28807226662E+02  0.54712750861E+02  0.10000000000E+01 0.  0.
<mgrwt>
<rscale>  0 0.12500155E+03</rscale>
<asrwt>0</asrwt>
<pdfrwt beam="1">  1        4 0.12001728E-01 0.12500155E+03</pdfrwt>
<pdfrwt beam="2">  1       -4 0.77037167E-02 0.12500155E+03</pdfrwt>
<totfact> 0.10385280E+04</totfact>
</mgrwt>
</event>
<event>
 5    1  0.3284464E-002  0.1250006E+03  0.7818608E-02  0.1235068E+00
         -4   -1    0    0    0  501 -0.00000000000E+00  0.00000000000E+00  0.72966921547E+03  0.72967032069E+03  0.12700000000E+01 0. -1.
          4   -1    0    0  501    0  0.00000000000E+00 -0.00000000000E+00 -0.52770604714E+01  0.54277313142E+01  0.12700000000E+01 0. -1.
         25    2    1    2    0    0  0.00000000000E+00  0.00000000000E+00  0.72439215499E+03  0.73509805201E+03  0.12500060738E+03 0.  0.
    9000005    1    3    3    0    0 -0.51249920257E+02 -0.23821563026E+02  0.20535875907E+03  0.21299587113E+03  0.10000000000E+01 0.  0.
    9000005    1    3    3    0    0  0.51249920257E+02  0.23821563026E+02  0.51903339592E+03  0.52210218087E+03  0.10000000000E+01 0.  0.
<mgrwt>
<rscale>  0 0.12500061E+03</rscale>
<asrwt>0</asrwt>
<pdfrwt beam="2">  1        4 0.82353141E-03 0.12500061E+03</pdfrwt>
<pdfrwt beam="1">  1       -4 0.11226836E+00 0.12500061E+03</pdfrwt>
<totfact> 0.41296730E+03</totfact>
</mgrwt>
</event>
<event>
 4    1  0.3284464E-002  0.1251489E+03  0.7818608E-02  0.1234837E+00
         -4   -1    0    0    0  501 -0.00000000000E+00  0.00000000000E+00  0.28464417218E+02  0.28492734996E+02  0.12700000000E+01 0. -1.
          4   -1    0    0  501    0  0.00000000000E+00 -0.00000000000E+00 -0.13746019639E+03  0.13746606306E+03  0.12700000000E+01 0. -1.
    9000005    1    1    2    0    0 -0.61458808244E+02 -0.60912976895E+01 -0.67776799963E+02  0.91700510531E+02  0.10000000000E+01 0.  0.
    9000005    1    1    2    0    0  0.61458808244E+02  0.60912976895E+01 -0.41218979210E+02  0.74258287521E+02  0.10000000000E+01 0.  0.
<mgrwt>
<rscale>  0 0.12514888E+03</rscale>
<asrwt>0</asrwt>
<pdfrwt beam="2">  1        4 0.21150352E-01 0.12514888E+03</pdfrwt>
<pdfrwt beam="1">  1       -4 0.43817707E-02 0.12514888E+03</pdfrwt>
<totfact> 0.95885086E+03</totfact>
</mgrwt>
</event>
<event>
 5    1  0.3284464E-002  0.1250010E+03  0.7818608E-02  0.1235068E+00
          4   -1    0    0  501    0  0.00000000000E+00  0.00000000000E+00  0.35992811969E+03  0.35993036027E+03  0.12700000000E+01 0.  1.
         -4   -1    0    0    0  501 -0.00000000000E+00 -0.00000000000E+00 -0.10813604357E+02  0.10887926303E+02  0.12700000000E+01 0.  1.
         25    2    1    2    0    0  0.00000000000E+00  0.00000000000E+00  0.34911451533E+03  0.37081828657E+03  0.12500102736E+03 0.  0.
    9000005    1    3    3    0    0 -0.61787961482E+02 -0.39199093881E+01  0.19976332778E+03  0.20913991728E+03  0.10000000000E+01 0.  0.
    9000005    1    3    3    0    0  0.61787961482E+02  0.39199093881E+01  0.14935118755E+03  0.16167836929E+03  0.10000000000E+01 0.  0.
<mgrwt>
<rscale>  0 0.12500103E+03</rscale>
<asrwt>0</asrwt>
<pdfrwt beam="1">  1        4 0.55379442E-01 0.12500103E+03</pdfrwt>
<pdfrwt beam="2">  1       -4 0.16695210E-02 0.12500103E+03</pdfrwt>
<totfact> 0.67491884E+03</totfact>
</mgrwt>
</event>
<event>
 5    1  0.3284464E-002  0.1250032E+03  0.7818608E-02  0.1235064E+00
         -4   -1    0    0    0  501 -0.00000000000E+00  0.00000000000E+00  0.66864013955E+01  0.68059432573E+01  0.12700000000E+01 0. -1.
          4   -1    0    0  501    0  0.00000000000E+00 -0.00000000000E+00 -0.57894118570E+03  0.57894257867E+03  0.12700000000E+01 0. -1.
         25    2    1    2    0    0  0.00000000000E+00  0.00000000000E+00 -0.57225478431E+03  0.58574852193E+03  0.12500317109E+03 0.  0.
    9000005    1    3    3    0    0 -0.71272375362E+01 -0.35778689318E+02 -0.52388786815E+03  0.52515751020E+03  0.10000000000E+01 0.  0.
    9000005    1    3    3    0    0  0.71272375362E+01  0.35778689318E+02 -0.48366916155E+02  0.60591011731E+02  0.10000000000E+01 0.  0.
<mgrwt>
<rscale>  0 0.12500317E+03</rscale>
<asrwt>0</asrwt>
<pdfrwt beam="2">  1        4 0.89077138E-01 0.12500317E+03</pdfrwt>
<pdfrwt beam="1">  1       -4 0.10379803E-02 0.12500317E+03</pdfrwt>
<totfact> 0.49776295E+03</totfact>
</mgrwt>
</event>
<event>
 5    1  0.3284464E-002  0.1250003E+03  0.7818608E-02  0.1235069E+00
          4   -1    0    0  501    0  0.00000000000E+00  0.00000000000E+00  0.15998390913E+02  0.16048719943E+02  0.12700000000E+01 0. -1.
         -4   -1    0    0    0  501 -0.00000000000E+00 -0.00000000000E+00 -0.24373081879E+03  0.24373412754E+03  0.12700000000E+01 0. -1.
         25    2    1    2    0    0  0.00000000000E+00  0.00000000000E+00 -0.22773242787E+03  0.25978284748E+03  0.12500027656E+03 0.  0.
    9000005    1    3    3    0    0 -0.47908397642E+02 -0.28586857109E+02 -0.55347677094E+02  0.78592546235E+02  0.10000000000E+01 0.  0.
    9000005    1    3    3    0    0  0.47908397642E+02  0.28586857109E+02 -0.17238475078E+03  0.18119030124E+03  0.10000000000E+01 0.  0.
<mgrwt>
<rscale>  0 0.12500028E+03</rscale>
<asrwt>0</asrwt>
<pdfrwt beam="1">  1        4 0.24654171E-02 0.12500028E+03</pdfrwt>
<pdfrwt beam="2">  1       -4 0.37501172E-01 0.12500028E+03</pdfrwt>
<totfact> 0.80936047E+03</totfact>
</mgrwt>
</event>
<event>
 5    1  0.3284464E-002  0.1250032E+03  0.7818608E-02  0.1235064E+00
          4   -1    0    0  501    0  0.00000000000E+00  0.00000000000E+00  0.13699120066E+03  0.13699708741E+03  0.12700000000E+01 0.  1.
         -4   -1    0    0    0  501 -0.00000000000E+00 -0.00000000000E+00 -0.28495423140E+02  0.28523710136E+02  0.12700000000E+01 0.  1.
         25    2    1    2    0    0  0.00000000000E+00  0.00000000000E+00  0.10849577752E+03  0.16552079755E+03  0.12500320268E+03 0.  0.
    9000005    1    3    3    0    0  0.48546232204E+02 -0.36944036902E+02  0.36293724611E+02  0.70991781003E+02  0.10000000000E+01 0.  0.
    9000005    1    3    3    0    0 -0.48546232204E+02  0.36944036902E+02  0.72202052912E+02  0.94529016543E+02  0.10000000000E+01 0.  0.
<mgrwt>
<rscale>  0 0.12500320E+03</rscale>
<asrwt>0</asrwt>
<pdfrwt beam="1">  1        4 0.21078198E-01 0.12500320E+03</pdfrwt>
<pdfrwt beam="2">  1       -4 0.43865400E-02 0.12500320E+03</pdfrwt>
<totfact> 0.96281925E+03</totfact>
</mgrwt>
</event>
<event>
 5    1  0.3284464E-002  0.1250040E+03  0.7818608E-02  0.1235063E+00
         -4   -1    0    0    0  501 -0.00000000000E+00  0.00000000000E+00  0.33797082032E+03  0.33797320647E+03  0.12700000000E+01 0. -1.
          4   -1    0    0  501    0  0.00000000000E+00 -0.00000000000E+00 -0.11521374317E+02  0.11591158965E+02  0.12700000000E+01 0. -1.
         25    2    1    2    0    0  0.00000000000E+00  0.00000000000E+00  0.32644944601E+03  0.34956436543E+03  0.12500401906E+03 0.  0.
    9000005    1    3    3    0    0 -0.54304555141E+02 -0.15674917720E+02  0.88668998730E+02  0.10515645054E+03  0.10000000000E+01 0.  0.
    9000005    1    3    3    0    0  0.54304555141E+02  0.15674917720E+02  0.23778044728E+03  0.24440791489E+03  0.10000000000E+01 0.  0.
<mgrwt>
<rscale>  0 0.12500402E+03</rscale>
<asrwt>0</asrwt>
<pdfrwt beam="2">  1        4 0.17780707E-02 0.12500402E+03</pdfrwt>
<pdfrwt beam="1">  1       -4 0.52001064E-01 0.12500402E+03</pdfrwt>
<totfact> 0.69766299E+03</totfact>
</mgrwt>
</event>
<event>
 5    1  0.3284464E-002  0.1250003E+03  0.7818608E-02  0.1235069E+00
         -4   -1    0    0    0  501 -0.00000000000E+00  0.00000000000E+00  0.28085134642E+03  0.28085421785E+03  0.12700000000E+01 0. -1.
          4   -1    0    0  501    0  0.00000000000E+00 -0.00000000000E+00 -0.13876724331E+02  0.13934718446E+02  0.12700000000E+01 0. -1.
         25    2    1    2    0    0  0.00000000000E+00  0.00000000000E+00  0.26697462209E+03  0.29478893630E+03  0.12500027250E+03 0.  0.
    9000005    1    3    3    0    0  0.48884078789E+02 -0.15339458678E+02  0.21787102125E+03  0.22381629533E+03  0.10000000000E+01 0.  0.
    9000005    1    3    3    0    0 -0.48884078789E+02  0.15339458678E+02  0.49103600833E+02  0.70972640970E+02  0.10000000000E+01 0.  0.
<mgrwt>
<rscale>  0 0.12500027E+03</rscale>
<asrwt>0</asrwt>
<pdfrwt beam="2">  1        4 0.21395627E-02 0.12500027E+03</pdfrwt>
<pdfrwt beam="1">  1       -4 0.43212579E-01 0.12500027E+03</pdfrwt>
<totfact> 0.76256728E+03</totfact>
</mgrwt>
</event>
<event>
 5    1  0.3284464E-002  0.1249999E+03  0.7818608E-02  0.1235069E+00
         -4   -1    0    0    0  501 -0.00000000000E+00  0.00000000000E+00  0.56699308558E+02  0.56713530052E+02  0.12700000000E+01 0.  1.
          4   -1    0    0  501    0  0.00000000000E+00 -0.00000000000E+00 -0.68865310243E+02  0.68877019788E+02  0.12700000000E+01 0.  1.
         25    2    1    2    0    0  0.00000000000E+00  0.00000000000E+00 -0.12166001685E+02  0.12559054984E+03  0.12499989845E+03 0.  0.
    9000005    1    3    3    0    0  0.12133537897E+02  0.58651158434E+02  0.11835577635E+02  0.61059495785E+02  0.10000000000E+01 0.  0.
    9000005    1    3    3    0    0 -0.12133537897E+02 -0.58651158434E+02 -0.24001579320E+02  0.64531054055E+02  0.10000000000E+01 0.  0.
<mgrwt>
<rscale>  0 0.12499990E+03</rscale>
<asrwt>0</asrwt>
<pdfrwt beam="2">  1        4 0.10596658E-01 0.12499990E+03</pdfrwt>
<pdfrwt beam="1">  1       -4 0.87249653E-02 0.12499990E+03</pdfrwt>
<totfact> 0.10439979E+04</totfact>
</mgrwt>
</event>
<event>
 5    1  0.3284464E-002  0.1249943E+03  0.7818608E-02  0.1235078E+00
          4   -1    0    0  501    0  0.00000000000E+00  0.00000000000E+00  0.86197517079E+01  0.87128077854E+01  0.12700000000E+01 0.  1.
         -4   -1    0    0    0  501 -0.00000000000E+00 -0.00000000000E+00 -0.45060639290E+03  0.45060818259E+03  0.12700000000E+01 0.  1.
         25    2    1    2    0    0  0.00000000000E+00  0.00000000000E+00 -0.44198664119E+03  0.45932099038E+03  0.12499432472E+03 0.  0.
    9000005    1    3    3    0    0  0.51451856407E+02 -0.47530268460E+01 -0.35013348201E+03  0.35392702640E+03  0.10000000000E+01 0.  0.
    9000005    1    3    3    0    0 -0.51451856407E+02  0.47530268460E+01 -0.91853159179E+02  0.10539396398E+03  0.10000000000E+01 0.  0.
<mgrwt>
<rscale>  0 0.12499432E+03</rscale>
<asrwt>0</asrwt>
<pdfrwt beam="1">  1        4 0.13334118E-02 0.12499432E+03</pdfrwt>
<pdfrwt beam="2">  1       -4 0.69331338E-01 0.12499432E+03</pdfrwt>
<totfact> 0.59172141E+03</totfact>
</mgrwt>
</event>
<event>
 5    1  0.3284464E-002  0.1249987E+03  0.7818608E-02  0.1235071E+00
         -4   -1    0    0    0  501 -0.00000000000E+00  0.00000000000E+00  0.77588491826E+02  0.77598885068E+02  0.12700000000E+01 0.  1.
          4   -1    0    0  501    0  0.00000000000E+00 -0.00000000000E+00 -0.50322880283E+02  0.50338903246E+02  0.12700000000E+01 0.  1.
         25    2    1    2    0    0  0.00000000000E+00  0.00000000000E+00  0.27265611542E+02  0.12793778831E+03  0.12499865642E+03 0.  0.
    9000005    1    3    3    0    0 -0.59881297872E+02  0.17054839751E+02  0.81659958594E+01  0.62803828562E+02  0.10000000000E+01 0.  0.
    9000005    1    3    3    0    0  0.59881297872E+02 -0.17054839751E+02  0.19099615683E+02  0.65133959752E+02  0.10000000000E+01 0.  0.
<mgrwt>
<rscale>  0 0.12499866E+03</rscale>
<asrwt>0</asrwt>
<pdfrwt beam="2">  1        4 0.77440137E-02 0.12499866E+03</pdfrwt>
<pdfrwt beam="1">  1       -4 0.11938723E-01 0.12499866E+03</pdfrwt>
<totfact> 0.10389146E+04</totfact>
</mgrwt>
</event>
<event>
 5    1  0.3284464E-002  0.1249973E+03  0.7818608E-02  0.1235074E+00
          4   -1    0    0  501    0  0.00000000000E+00  0.00000000000E+00  0.22987146885E+02  0.23022202803E+02  0.12700000000E+01 0. -1.
         -4   -1    0    0    0  501 -0.00000000000E+00 -0.00000000000E+00 -0.16975761666E+03  0.16976236719E+03  0.12700000000E+01 0. -1.
         25    2    1    2    0    0  0.00000000000E+00  0.00000000000E+00 -0.14677046978E+03  0.19278456999E+03  0.12499727849E+03 0.  0.
    9000005    1    3    3    0    0 -0.55203508689E+02 -0.43089376753E+01 -0.28709176939E+02  0.62379573227E+02  0.10000000000E+01 0.  0.
    9000005    1    3    3    0    0  0.55203508689E+02  0.43089376753E+01 -0.11806129284E+03  0.13040499677E+03  0.10000000000E+01 0.  0.
<mgrwt>
<rscale>  0 0.12499728E+03</rscale>
<asrwt>0</asrwt>
<pdfrwt beam="1">  1        4 0.35395463E-02 0.12499728E+03</pdfrwt>
<pdfrwt beam="2">  1       -4 0.26119618E-01 0.12499728E+03</pdfrwt>
<totfact> 0.91370622E+03</totfact>
</mgrwt>
</event>
<event>
 5    1  0.3284464E-002  0.1250059E+03  0.7818608E-02  0.1235060E+00
          4   -1    0    0  501    0  0.00000000000E+00  0.00000000000E+00  0.57605734801E+02  0.57619732574E+02  0.12700000000E+01 0. -1.
         -4   -1    0    0    0  501 -0.00000000000E+00 -0.00000000000E+00 -0.67788256101E+02  0.67800151660E+02  0.12700000000E+01 0. -1.
         25    2    1    2    0    0  0.00000000000E+00  0.00000000000E+00 -0.10182521300E+02  0.12541988423E+03  0.12500585435E+03 0.  0.
    9000005    1    3    3    0    0 -0.54191872221E+02  0.31085541185E+02 -0.34903506196E+01  0.62579968305E+02  0.10000000000E+01 0.  0.
    9000005    1    3    3    0    0  0.54191872221E+02 -0.31085541185E+02 -0.66921706802E+01  0.62839915930E+02  0.10000000000E+01 0.  0.
<mgrwt>
<rscale>  0 0.12500585E+03</rscale>
<asrwt>0</asrwt>
<pdfrwt beam="1">  1        4 0.88644125E-02 0.12500585E+03</pdfrwt>
<pdfrwt beam="2">  1       -4 0.10430954E-01 0.12500585E+03</pdfrwt>
<totfact> 0.10442348E+04</totfact>
</mgrwt>
</event>
<event>
 5    1  0.3284464E-002  0.1249971E+03  0.7818608E-02  0.1235074E+00
         -4   -1    0    0    0  501 -0.00000000000E+00  0.00000000000E+00  0.41047590802E+03  0.41047787268E+03  0.12700000000E+01 0.  1.
          4   -1    0    0  501    0  0.00000000000E+00 -0.00000000000E+00 -0.94715742704E+01  0.95563392133E+01  0.12700000000E+01 0.  1.
         25    2    1    2    0    0  0.00000000000E+00  0.00000000000E+00  0.40100433375E+03  0.42003421189E+03  0.12499705388E+03 0.  0.
    9000005    1    3    3    0    0  0.47719546861E+02  0.15856540336E+02  0.75829866052E+02  0.90993151443E+02  0.10000000000E+01 0.  0.
    9000005    1    3    3    0    0 -0.47719546861E+02 -0.15856540336E+02  0.32517446769E+03  0.32904106045E+03  0.10000000000E+01 0.  0.
<mgrwt>
<rscale>  0 0.12499705E+03</rscale>
<asrwt>0</asrwt>
<pdfrwt beam="2">  1        4 0.14638367E-02 0.12499705E+03</pdfrwt>
<pdfrwt beam="1">  1       -4 0.63156813E-01 0.12499705E+03</pdfrwt>
<totfact> 0.62653904E+03</totfact>
</mgrwt>
</event>
<event>
 5    1  0.3284464E-002  0.1249949E+03  0.7818608E-02  0.1235077E+00
         -4   -1    0    0    0  501 -0.00000000000E+00  0.00000000000E+00  0.84452407296E+01  0.85401985328E+01  0.12700000000E+01 0. -1.
          4   -1    0    0  501    0  0.00000000000E+00 -0.00000000000E+00 -0.45981941856E+03  0.45982117239E+03  0.12700000000E+01 0. -1.
         25    2    1    2    0    0  0.00000000000E+00  0.00000000000E+00 -0.45137417783E+03  0.46836137093E+03  0.12499490137E+03 0.  0.
    9000005    1    3    3    0    0 -0.28621565198E+02 -0.11250194585E+02 -0.42951974446E+03  0.43062044976E+03  0.10000000000E+01 0.  0.
    9000005    1    3    3    0    0  0.28621565198E+02  0.11250194585E+02 -0.21854433368E+02  0.37740921165E+02  0.10000000000E+01 0.  0.
<mgrwt>
<rscale>  0 0.12499490E+03</rscale>
<asrwt>0</asrwt>
<pdfrwt beam="2">  1        4 0.70748869E-01 0.12499490E+03</pdfrwt>
<pdfrwt beam="1">  1       -4 0.13067075E-02 0.12499490E+03</pdfrwt>
<totfact> 0.58412073E+03</totfact>
</mgrwt>
</event>
<event>
 5    1  0.3284464E-002  0.1250007E+03  0.7818608E-02  0.1235068E+00
          4   -1    0    0  501    0  0.00000000000E+00  0.00000000000E+00  0.10518708208E+03  0.10519474862E+03  0.12700000000E+01 0. -1.
         -4   -1    0    0    0  501 -0.00000000000E+00 -0.00000000000E+00 -0.37116753951E+02  0.37138474980E+02  0.12700000000E+01 0. -1.
         25    2    1    2    0    0  0.00000000000E+00  0.00000000000E+00  0.68070328128E+02  0.14233322360E+03  0.12500070787E+03 0.  0.
    9000005    1    3    3    0    0 -0.50403742075E+02 -0.32930844893E+02  0.14970984073E+02  0.62049239517E+02  0.10000000000E+01 0.  0.
    9000005    1    3    3    0    0  0.50403742075E+02  0.32930844893E+02  0.53099344054E+02  0.80283984079E+02  0.10000000000E+01 0.  0.
<mgrwt>
<rscale>  0 0.12500071E+03</rscale>
<asrwt>0</asrwt>
<pdfrwt beam="1">  1        4 0.16184889E-01 0.12500071E+03</pdfrwt>
<pdfrwt beam="2">  1       -4 0.57125304E-02 0.12500071E+03</pdfrwt>
<totfact> 0.10085295E+04</totfact>
</mgrwt>
</event>
<event>
 5    1  0.3284464E-002  0.1250007E+03  0.7818608E-02  0.1235068E+00
         -4   -1    0    0    0  501 -0.00000000000E+00  0.00000000000E+00  0.89178413388E+02  0.89187456037E+02  0.12700000000E+01 0.  1.
          4   -1    0    0  501    0  0.00000000000E+00 -0.00000000000E+00 -0.43782674925E+02  0.43801090438E+02  0.12700000000E+01 0.  1.
         25    2    1    2    0    0  0.00000000000E+00  0.00000000000E+00  0.45395738463E+02  0.13298854648E+03  0.12500072169E+03 0.  0.
    9000005    1    3    3    0    0 -0.34888937483E+02  0.44293802191E+02  0.51366357485E+02  0.76280282855E+02  0.10000000000E+01 0.  0.
    9000005    1    3    3    0    0  0.34888937483E+02 -0.44293802191E+02 -0.59706190220E+01  0.56708263620E+02  0.10000000000E+01 0.  0.
<mgrwt>
<rscale>  0 0.12500072E+03</rscale>
<asrwt>0</asrwt>
<pdfrwt beam="2">  1        4 0.67379083E-02 0.12500072E+03</pdfrwt>
<pdfrwt beam="1">  1       -4 0.13721868E-01 0.12500072E+03</pdfrwt>
<totfact> 0.10280476E+04</totfact>
</mgrwt>
</event>
<event>
 5    1  0.3284464E-002  0.1250021E+03  0.7818608E-02  0.1235066E+00
         -4   -1    0    0    0  501 -0.00000000000E+00  0.00000000000E+00  0.17429076700E+02  0.17475285823E+02  0.12700000000E+01 0.  1.
          4   -1    0    0  501    0  0.00000000000E+00 -0.00000000000E+00 -0.22378547423E+03  0.22378907788E+03  0.12700000000E+01 0.  1.
         25    2    1    2    0    0  0.00000000000E+00  0.00000000000E+00 -0.20635639753E+03  0.24126436370E+03  0.12500212154E+03 0.  0.
    9000005    1    3    3    0    0  0.55116994565E+01  0.60758106804E+02 -0.77036005563E+02  0.98272440320E+02  0.10000000000E+01 0.  0.
    9000005    1    3    3    0    0 -0.55116994565E+01 -0.60758106804E+02 -0.12932039197E+03  0.14299192338E+03  0.10000000000E+01 0.  0.
<mgrwt>
<rscale>  0 0.12500212E+03</rscale>
<asrwt>0</asrwt>
<pdfrwt beam="2">  1        4 0.34432364E-01 0.12500212E+03</pdfrwt>
<pdfrwt beam="1">  1       -4 0.26852283E-02 0.12500212E+03</pdfrwt>
<totfact> 0.83605469E+03</totfact>
</mgrwt>
</event>
<event>
 5    1  0.3284464E-002  0.1250069E+03  0.7818608E-02  0.1235059E+00
          4   -1    0    0  501    0  0.00000000000E+00  0.00000000000E+00  0.51354078386E+02  0.51369779704E+02  0.12700000000E+01 0.  1.
         -4   -1    0    0    0  501 -0.00000000000E+00 -0.00000000000E+00 -0.76040773572E+02  0.76051378327E+02  0.12700000000E+01 0.  1.
         25    2    1    2    0    0  0.00000000000E+00  0.00000000000E+00 -0.24686695186E+02  0.12742115803E+03  0.12500687419E+03 0.  0.
    9000005    1    3    3    0    0  0.25879798028E+02 -0.24865417277E+02  0.39807516669E+02  0.53606821448E+02  0.10000000000E+01 0.  0.
    9000005    1    3    3    0    0 -0.25879798028E+02  0.24865417277E+02 -0.64494211855E+02  0.73814336583E+02  0.10000000000E+01 0.  0.
<mgrwt>
<rscale>  0 0.12500687E+03</rscale>
<asrwt>0</asrwt>
<pdfrwt beam="1">  1        4 0.79026510E-02 0.12500687E+03</pdfrwt>
<pdfrwt beam="2">  1       -4 0.11700604E-01 0.12500687E+03</pdfrwt>
<totfact> 0.10398395E+04</totfact>
</mgrwt>
</event>
<event>
 5    1  0.3284464E-002  0.1250091E+03  0.7818608E-02  0.1235055E+00
         -4   -1    0    0    0  501 -0.00000000000E+00  0.00000000000E+00  0.26734615459E+02  0.26764763473E+02  0.12700000000E+01 0.  1.
          4   -1    0    0  501    0  0.00000000000E+00 -0.00000000000E+00 -0.14601799864E+03  0.14602352148E+03  0.12700000000E+01 0.  1.
         25    2    1    2    0    0  0.00000000000E+00  0.00000000000E+00 -0.11928338318E+03  0.17278828495E+03  0.12500906333E+03 0.  0.
    9000005    1    3    3    0    0 -0.52867507085E+02 -0.19579143188E+02 -0.96922849176E+02  0.11213097184E+03  0.10000000000E+01 0.  0.
    9000005    1    3    3    0    0  0.52867507085E+02  0.19579143188E+02 -0.22360534002E+02  0.60657313114E+02  0.10000000000E+01 0.  0.
<mgrwt>
<rscale>  0 0.12500906E+03</rscale>
<asrwt>0</asrwt>
<pdfrwt beam="2">  1        4 0.22467051E-01 0.12500906E+03</pdfrwt>
<pdfrwt beam="1">  1       -4 0.41157618E-02 0.12500906E+03</pdfrwt>
<totfact> 0.94912176E+03</totfact>
</mgrwt>
</event>
<event>
 5    1  0.3284464E-002  0.1249941E+03  0.7818608E-02  0.1235079E+00
          4   -1    0    0  501    0  0.00000000000E+00  0.00000000000E+00  0.10672809002E+04  0.10672816558E+04  0.12700000000E+01 0.  1.
         -4   -1    0    0    0  501 -0.00000000000E+00 -0.00000000000E+00 -0.35486943855E+01  0.37691022594E+01  0.12700000000E+01 0.  1.
         25    2    1    2    0    0  0.00000000000E+00  0.00000000000E+00  0.10637322058E+04  0.10710507580E+04  0.12499408257E+03 0.  0.
    9000005    1    3    3    0    0  0.57085255064E+02 -0.19860029234E+02  0.39591249751E+03  0.40050075255E+03  0.10000000000E+01 0.  0.
    9000005    1    3    3    0    0 -0.57085255064E+02  0.19860029234E+02  0.66781970826E+03  0.67055000548E+03  0.10000000000E+01 0.  0.
<mgrwt>
<rscale>  0 0.12499408E+03</rscale>
<asrwt>0</asrwt>
<pdfrwt beam="1">  1        4 0.16421415E+00 0.12499408E+03</pdfrwt>
<pdfrwt beam="2">  1       -4 0.56296530E-03 0.12499408E+03</pdfrwt>
<totfact> 0.28350126E+03</totfact>
</mgrwt>
</event>
<event>
 5    1  0.3284464E-002  0.1250094E+03  0.7818608E-02  0.1235055E+00
          4   -1    0    0  501    0  0.00000000000E+00  0.00000000000E+00  0.19433111520E+03  0.19433526503E+03  0.12700000000E+01 0. -1.
         -4   -1    0    0    0  501 -0.00000000000E+00 -0.00000000000E+00 -0.20079609256E+02  0.20119731804E+02  0.12700000000E+01 0. -1.
         25    2    1    2    0    0  0.00000000000E+00  0.00000000000E+00  0.17425150595E+03  0.21445499684E+03  0.12500943302E+03 0.  0.
    9000005    1    3    3    0    0  0.46847979334E+02  0.11072604277E+02  0.15549920714E+03  0.16278310464E+03  0.10000000000E+01 0.  0.
    9000005    1    3    3    0    0 -0.46847979334E+02 -0.11072604277E+02  0.18752298803E+02  0.51671892200E+02  0.10000000000E+01 0.  0.
<mgrwt>
<rscale>  0 0.12500943E+03</rscale>
<asrwt>0</asrwt>
<pdfrwt beam="1">  1        4 0.29900499E-01 0.12500943E+03</pdfrwt>
<pdfrwt beam="2">  1       -4 0.30925763E-02 0.12500943E+03</pdfrwt>
<totfact> 0.87734955E+03</totfact>
</mgrwt>
</event>
<event>
 5    1  0.3284464E-002  0.1250005E+03  0.7818608E-02  0.1235068E+00
          4   -1    0    0  501    0  0.00000000000E+00  0.00000000000E+00  0.15227455323E+02  0.15280323806E+02  0.12700000000E+01 0. -1.
         -4   -1    0    0    0  501 -0.00000000000E+00 -0.00000000000E+00 -0.25603003102E+03  0.25603318082E+03  0.12700000000E+01 0. -1.
         25    2    1    2    0    0  0.00000000000E+00  0.00000000000E+00 -0.24080257569E+03  0.27131350463E+03  0.12500054933E+03 0.  0.
    9000005    1    3    3    0    0 -0.38105983715E+02 -0.43226268888E+02 -0.17288554005E+03  0.18223881660E+03  0.10000000000E+01 0.  0.
    9000005    1    3    3    0    0  0.38105983715E+02  0.43226268888E+02 -0.67917035639E+02  0.89074688026E+02  0.10000000000E+01 0.  0.
<mgrwt>
<rscale>  0 0.12500055E+03</rscale>
<asrwt>0</asrwt>
<pdfrwt beam="1">  1        4 0.23469947E-02 0.12500055E+03</pdfrwt>
<pdfrwt beam="2">  1       -4 0.39393542E-01 0.12500055E+03</pdfrwt>
<totfact> 0.79343160E+03</totfact>
</mgrwt>
</event>
<event>
 5    1  0.3284464E-002  0.1250085E+03  0.7818608E-02  0.1235056E+00
         -4   -1    0    0    0  501 -0.00000000000E+00  0.00000000000E+00  0.42096162815E+02  0.42115315786E+02  0.12700000000E+01 0.  1.
          4   -1    0    0  501    0  0.00000000000E+00 -0.00000000000E+00 -0.92761503957E+02  0.92770197350E+02  0.12700000000E+01 0.  1.
         25    2    1    2    0    0  0.00000000000E+00  0.00000000000E+00 -0.50665341142E+02  0.13488551314E+03  0.12500849916E+03 0.  0.
    9000005    1    3    3    0    0 -0.57007321694E+02  0.23933744259E+02 -0.15495170753E+02  0.63747620800E+02  0.10000000000E+01 0.  0.
    9000005    1    3    3    0    0  0.57007321694E+02 -0.23933744259E+02 -0.35170170389E+02  0.71137892337E+02  0.10000000000E+01 0.  0.
<mgrwt>
<rscale>  0 0.12500850E+03</rscale>
<asrwt>0</asrwt>
<pdfrwt beam="2">  1        4 0.14273143E-01 0.12500850E+03</pdfrwt>
<pdfrwt beam="1">  1       -4 0.64784748E-02 0.12500850E+03</pdfrwt>
<totfact> 0.10238522E+04</totfact>
</mgrwt>
</event>
<event>
 5    1  0.3284464E-002  0.1250018E+03  0.7818608E-02  0.1235066E+00
         -4   -1    0    0    0  501 -0.00000000000E+00  0.00000000000E+00  0.53766071204E+02  0.53781068349E+02  0.12700000000E+01 0. -1.
          4   -1    0    0  501    0  0.00000000000E+00 -0.00000000000E+00 -0.72624156971E+02  0.72635260554E+02  0.12700000000E+01 0. -1.
         25    2    1    2    0    0  0.00000000000E+00  0.00000000000E+00 -0.18858085766E+02  0.12641632890E+03  0.12500184324E+03 0.  0.
    9000005    1    3    3    0    0 -0.12448597857E+02  0.61152365280E+02 -0.12750385338E+02  0.63703623870E+02  0.10000000000E+01 0.  0.
    9000005    1    3    3    0    0  0.12448597857E+02 -0.61152365280E+02 -0.61077004284E+01  0.62712705032E+02  0.10000000000E+01 0.  0.
<mgrwt>
<rscale>  0 0.12500184E+03</rscale>
<asrwt>0</asrwt>
<pdfrwt beam="2">  1        4 0.11174955E-01 0.12500184E+03</pdfrwt>
<pdfrwt beam="1">  1       -4 0.82737111E-02 0.12500184E+03</pdfrwt>
<totfact> 0.10421420E+04</totfact>
</mgrwt>
</event>
<event>
 5    1  0.3284464E-002  0.1249997E+03  0.7818608E-02  0.1235070E+00
         -4   -1    0    0    0  501 -0.00000000000E+00  0.00000000000E+00  0.15462779029E+03  0.15463300563E+03  0.12700000000E+01 0. -1.
          4   -1    0    0  501    0  0.00000000000E+00 -0.00000000000E+00 -0.25240546558E+02  0.25272476938E+02  0.12700000000E+01 0. -1.
         25    2    1    2    0    0  0.00000000000E+00  0.00000000000E+00  0.12938724373E+03  0.17990548256E+03  0.12499969527E+03 0.  0.
    9000005    1    3    3    0    0  0.53533872323E+02  0.11660464192E+02  0.10795226108E+03  0.12106416721E+03  0.10000000000E+01 0.  0.
    9000005    1    3    3    0    0 -0.53533872323E+02 -0.11660464192E+02  0.21434982650E+02  0.58841315351E+02  0.10000000000E+01 0.  0.
<mgrwt>
<rscale>  0 0.12499970E+03</rscale>
<asrwt>0</asrwt>
<pdfrwt beam="2">  1        4 0.38860183E-02 0.12499970E+03</pdfrwt>
<pdfrwt beam="1">  1       -4 0.23791749E-01 0.12499970E+03</pdfrwt>
<totfact> 0.93634658E+03</totfact>
</mgrwt>
</event>
<event>
 5    1  0.3284464E-002  0.1249962E+03  0.7818608E-02  0.1235075E+00
          4   -1    0    0  501    0  0.00000000000E+00  0.00000000000E+00  0.17274410720E+02  0.17321032467E+02  0.12700000000E+01 0.  1.
         -4   -1    0    0    0  501 -0.00000000000E+00 -0.00000000000E+00 -0.22576235268E+03  0.22576592477E+03  0.12700000000E+01 0.  1.
         25    2    1    2    0    0  0.00000000000E+00  0.00000000000E+00 -0.20848794196E+03  0.24308695724E+03  0.12499618729E+03 0.  0.
    9000005    1    3    3    0    0 -0.25084612904E+02  0.24497636252E+02 -0.36484350139E+01  0.35265890951E+02  0.10000000000E+01 0.  0.
    9000005    1    3    3    0    0  0.25084612904E+02 -0.24497636252E+02 -0.20483950695E+03  0.20782106629E+03  0.10000000000E+01 0.  0.
<mgrwt>
<rscale>  0 0.12499619E+03</rscale>
<asrwt>0</asrwt>
<pdfrwt beam="1">  1        4 0.26614629E-02 0.12499619E+03</pdfrwt>
<pdfrwt beam="2">  1       -4 0.34736529E-01 0.12499619E+03</pdfrwt>
<totfact> 0.83346841E+03</totfact>
</mgrwt>
</event>
<event>
 5    1  0.3284464E-002  0.1249967E+03  0.7818608E-02  0.1235074E+00
          4   -1    0    0  501    0  0.00000000000E+00  0.00000000000E+00  0.34571835926E+02  0.34595154853E+02  0.12700000000E+01 0. -1.
         -4   -1    0    0    0  501 -0.00000000000E+00 -0.00000000000E+00 -0.11291841662E+03  0.11292555828E+03  0.12700000000E+01 0. -1.
         25    2    1    2    0    0  0.00000000000E+00  0.00000000000E+00 -0.78346580697E+02  0.14752071313E+03  0.12499669634E+03 0.  0.
    9000005    1    3    3    0    0  0.54301042541E+02  0.30247798353E+02 -0.46777184357E+02  0.77798698592E+02  0.10000000000E+01 0.  0.
    9000005    1    3    3    0    0 -0.54301042541E+02 -0.30247798353E+02 -0.31569396340E+02  0.69722014540E+02  0.10000000000E+01 0.  0.
<mgrwt>
<rscale>  0 0.12499670E+03</rscale>
<asrwt>0</asrwt>
<pdfrwt beam="1">  1        4 0.53210872E-02 0.12499670E+03</pdfrwt>
<pdfrwt beam="2">  1       -4 0.17374407E-01 0.12499670E+03</pdfrwt>
<totfact> 0.99807645E+03</totfact>
</mgrwt>
</event>
<event>
 5    1  0.3284464E-002  0.1250020E+03  0.7818608E-02  0.1235066E+00
         -4   -1    0    0    0  501 -0.00000000000E+00  0.00000000000E+00  0.11682016925E+03  0.11682707240E+03  0.12700000000E+01 0.  1.
          4   -1    0    0  501    0  0.00000000000E+00 -0.00000000000E+00 -0.33419247815E+02  0.33443370412E+02  0.12700000000E+01 0.  1.
         25    2    1    2    0    0  0.00000000000E+00  0.00000000000E+00  0.83400921440E+02  0.15027044281E+03  0.12500196912E+03 0.  0.
    9000005    1    3    3    0    0 -0.59693201482E+02  0.44495114323E+01  0.63282107713E+02  0.87113154068E+02  0.10000000000E+01 0.  0.
    9000005    1    3    3    0    0  0.59693201482E+02 -0.44495114323E+01  0.20118813727E+02  0.63157288739E+02  0.10000000000E+01 0.  0.
<mgrwt>
<rscale>  0 0.12500197E+03</rscale>
<asrwt>0</asrwt>
<pdfrwt beam="2">  1        4 0.51438093E-02 0.12500197E+03</pdfrwt>
<pdfrwt beam="1">  1       -4 0.17974720E-01 0.12500197E+03</pdfrwt>
<totfact> 0.99245418E+03</totfact>
</mgrwt>
</event>
<event>
 5    1  0.3284464E-002  0.1250417E+03  0.7818608E-02  0.1235004E+00
          4   -1    0    0  501    0  0.00000000000E+00  0.00000000000E+00  0.41458286185E+02  0.41477733706E+02  0.12700000000E+01 0.  1.
         -4   -1    0    0    0  501 -0.00000000000E+00 -0.00000000000E+00 -0.94238282612E+02  0.94246839786E+02  0.12700000000E+01 0.  1.
         25    2    1    2    0    0  0.00000000000E+00  0.00000000000E+00 -0.52779996427E+02  0.13572457349E+03  0.12504172034E+03 0.  0.
    9000005    1    3    3    0    0 -0.13687681139E+02 -0.58226870773E+02 -0.66680163667E+01  0.60192886101E+02  0.10000000000E+01 0.  0.
    9000005    1    3    3    0    0  0.13687681139E+02  0.58226870773E+02 -0.46111980060E+02  0.75531687390E+02  0.10000000000E+01 0.  0.
<mgrwt>
<rscale>  0 0.12504172E+03</rscale>
<asrwt>0</asrwt>
<pdfrwt beam="1">  1        4 0.63803521E-02 0.12504172E+03</pdfrwt>
<pdfrwt beam="2">  1       -4 0.14500352E-01 0.12504172E+03</pdfrwt>
<totfact> 0.10213209E+04</totfact>
</mgrwt>
</event>
<event>
 5    1  0.3284464E-002  0.1249989E+03  0.7818608E-02  0.1235071E+00
         -4   -1    0    0    0  501 -0.00000000000E+00  0.00000000000E+00  0.45028191723E+02  0.45046098053E+02  0.12700000000E+01 0.  1.
          4   -1    0    0  501    0  0.00000000000E+00 -0.00000000000E+00 -0.86709870042E+02  0.86719170099E+02  0.12700000000E+01 0.  1.
         25    2    1    2    0    0  0.00000000000E+00  0.00000000000E+00 -0.41681678319E+02  0.13176526815E+03  0.12499889433E+03 0.  0.
    9000005    1    3    3    0    0 -0.14996543413E+01  0.30280229993E+02  0.36761823698E+02  0.47661021528E+02  0.10000000000E+01 0.  0.
    9000005    1    3    3    0    0  0.14996543413E+01 -0.30280229993E+02 -0.78443502017E+02  0.84104246624E+02  0.10000000000E+01 0.  0.
<mgrwt>
<rscale>  0 0.12499889E+03</rscale>
<asrwt>0</asrwt>
<pdfrwt beam="2">  1        4 0.13342073E-01 0.12499889E+03</pdfrwt>
<pdfrwt beam="1">  1       -4 0.69295069E-02 0.12499889E+03</pdfrwt>
<totfact> 0.10306968E+04</totfact>
</mgrwt>
</event>
<event>
 5    1  0.3284464E-002  0.1250011E+03  0.7818608E-02  0.1235068E+00
         -4   -1    0    0    0  501 -0.00000000000E+00  0.00000000000E+00  0.10990677513E+03  0.10991411247E+03  0.12700000000E+01 0. -1.
          4   -1    0    0  501    0  0.00000000000E+00 -0.00000000000E+00 -0.35522251927E+02  0.35544947348E+02  0.12700000000E+01 0. -1.
         25    2    1    2    0    0  0.00000000000E+00  0.00000000000E+00  0.74384523206E+02  0.14545905982E+03  0.12500112316E+03 0.  0.
    9000005    1    3    3    0    0  0.35129823746E+02 -0.34823944953E+02  0.81633008465E+02  0.95455537972E+02  0.10000000000E+01 0.  0.
    9000005    1    3    3    0    0 -0.35129823746E+02  0.34823944953E+02 -0.72484852585E+01  0.50003521846E+02  0.10000000000E+01 0.  0.
<mgrwt>
<rscale>  0 0.12500112E+03</rscale>
<asrwt>0</asrwt>
<pdfrwt beam="2">  1        4 0.54672721E-02 0.12500112E+03</pdfrwt>
<pdfrwt beam="1">  1       -4 0.16911045E-01 0.12500112E+03</pdfrwt>
<totfact> 0.10021416E+04</totfact>
</mgrwt>
</event>
<event>
 5    1  0.3284464E-002  0.1249995E+03  0.7818608E-02  0.1235070E+00
         -4   -1    0    0    0  501 -0.00000000000E+00  0.00000000000E+00  0.16244117271E+03  0.16244613720E+03  0.12700000000E+01 0. -1.
          4   -1    0    0  501    0  0.00000000000E+00 -0.00000000000E+00 -0.24024876229E+02  0.24058420102E+02  0.12700000000E+01 0. -1.
         25    2    1    2    0    0  0.00000000000E+00  0.00000000000E+00  0.13841629648E+03  0.18650455730E+03  0.12499951505E+03 0.  0.
    9000005    1    3    3    0    0  0.21547685094E+02  0.16317613140E+02  0.15327585768E+03  0.15564400335E+03  0.10000000000E+01 0.  0.
    9000005    1    3    3    0    0 -0.21547685094E+02 -0.16317613140E+02 -0.14859561195E+02  0.30860553955E+02  0.10000000000E+01 0.  0.
<mgrwt>
<rscale>  0 0.12499952E+03</rscale>
<asrwt>0</asrwt>
<pdfrwt beam="2">  1        4 0.36990971E-02 0.12499952E+03</pdfrwt>
<pdfrwt beam="1">  1       -4 0.24993911E-01 0.12499952E+03</pdfrwt>
<totfact> 0.92460097E+03</totfact>
</mgrwt>
</event>
<event>
 5    1  0.3284464E-002  0.1249998E+03  0.7818608E-02  0.1235070E+00
          4   -1    0    0  501    0  0.00000000000E+00  0.00000000000E+00  0.82768745968E+02  0.82778488807E+02  0.12700000000E+01 0.  1.
         -4   -1    0    0    0  501 -0.00000000000E+00 -0.00000000000E+00 -0.47173550311E+02  0.47190642599E+02  0.12700000000E+01 0.  1.
         25    2    1    2    0    0  0.00000000000E+00  0.00000000000E+00  0.35595195657E+02  0.12996913141E+03  0.12499982866E+03 0.  0.
    9000005    1    3    3    0    0 -0.20845673391E+01  0.20995344745E+02  0.78958580824E+02  0.81734982765E+02  0.10000000000E+01 0.  0.
    9000005    1    3    3    0    0  0.20845673391E+01 -0.20995344745E+02 -0.43363385167E+02  0.48234148641E+02  0.10000000000E+01 0.  0.
<mgrwt>
<rscale>  0 0.12499983E+03</rscale>
<asrwt>0</asrwt>
<pdfrwt beam="1">  1        4 0.12735717E-01 0.12499983E+03</pdfrwt>
<pdfrwt beam="2">  1       -4 0.72595336E-02 0.12499983E+03</pdfrwt>
<totfact> 0.10345208E+04</totfact>
</mgrwt>
</event>
<event>
 5    1  0.3284464E-002  0.1250043E+03  0.7818608E-02  0.1235063E+00
         -4   -1    0    0    0  501 -0.00000000000E+00  0.00000000000E+00  0.25558326891E+01  0.28539763024E+01  0.12700000000E+01 0. -1.
          4   -1    0    0  501    0  0.00000000000E+00 -0.00000000000E+00 -0.14439366109E+04  0.14439371694E+04  0.12700000000E+01 0. -1.
         25    2    1    2    0    0  0.00000000000E+00  0.00000000000E+00 -0.14413807783E+04  0.14467911458E+04  0.12500428597E+03 0.  0.
    9000005    1    3    3    0    0 -0.39266717064E+02  0.48412044777E+02 -0.77234272248E+03  0.77485474905E+03  0.10000000000E+01 0.  0.
    9000005    1    3    3    0    0  0.39266717064E+02 -0.48412044777E+02 -0.66903805577E+03  0.67193639671E+03  0.10000000000E+01 0.  0.
<mgrwt>
<rscale>  0 0.12500429E+03</rscale>
<asrwt>0</asrwt>
<pdfrwt beam="2">  1        4 0.22216646E+00 0.12500429E+03</pdfrwt>
<pdfrwt beam="1">  1       -4 0.41618327E-03 0.12500429E+03</pdfrwt>
<totfact> 0.18996853E+03</totfact>
</mgrwt>
</event>
<event>
 5    1  0.3284464E-002  0.1249999E+03  0.7818608E-02  0.1235069E+00
         -4   -1    0    0    0  501 -0.00000000000E+00  0.00000000000E+00  0.56382453831E+03  0.56382596863E+03  0.12700000000E+01 0. -1.
          4   -1    0    0  501    0  0.00000000000E+00 -0.00000000000E+00 -0.68684643680E+01  0.69848910352E+01  0.12700000000E+01 0. -1.
         25    2    1    2    0    0  0.00000000000E+00  0.00000000000E+00  0.55695607394E+03  0.57081085966E+03  0.12499987684E+03 0.  0.
    9000005    1    3    3    0    0 -0.52516159359E+02 -0.10553243457E+02  0.13150195533E+03  0.14199676826E+03  0.10000000000E+01 0.  0.
    9000005    1    3    3    0    0  0.52516159359E+02  0.10553243457E+02  0.42545411861E+03  0.42881409140E+03  0.10000000000E+01 0.  0.
<mgrwt>
<rscale>  0 0.12499988E+03</rscale>
<asrwt>0</asrwt>
<pdfrwt beam="2">  1        4 0.10657530E-02 0.12499988E+03</pdfrwt>
<pdfrwt beam="1">  1       -4 0.86751278E-01 0.12499988E+03</pdfrwt>
<totfact> 0.50763666E+03</totfact>
</mgrwt>
</event>
<event>
 5    1  0.3284464E-002  0.1249985E+03  0.7818608E-02  0.1235072E+00
          4   -1    0    0  501    0  0.00000000000E+00  0.00000000000E+00  0.32718581218E+02  0.32743220015E+02  0.12700000000E+01 0.  1.
         -4   -1    0    0    0  501 -0.00000000000E+00 -0.00000000000E+00 -0.11931345672E+03  0.11932021561E+03  0.12700000000E+01 0.  1.
         25    2    1    2    0    0  0.00000000000E+00  0.00000000000E+00 -0.86594875498E+02  0.15206343563E+03  0.12499846396E+03 0.  0.
    9000005    1    3    3    0    0 -0.27715399947E+02 -0.35665201670E+02  0.92389253996E+01  0.46114073198E+02  0.10000000000E+01 0.  0.
    9000005    1    3    3    0    0  0.27715399947E+02  0.35665201670E+02 -0.95833800898E+02  0.10594936243E+03  0.10000000000E+01 0.  0.
<mgrwt>
<rscale>  0 0.12499846E+03</rscale>
<asrwt>0</asrwt>
<pdfrwt beam="1">  1        4 0.50360431E-02 0.12499846E+03</pdfrwt>
<pdfrwt beam="2">  1       -4 0.18358331E-01 0.12499846E+03</pdfrwt>
<totfact> 0.98897381E+03</totfact>
</mgrwt>
</event>
<event>
 5    1  0.3284464E-002  0.1249990E+03  0.7818608E-02  0.1235071E+00
          4   -1    0    0  501    0  0.00000000000E+00  0.00000000000E+00  0.10890540474E+02  0.10964340921E+02  0.12700000000E+01 0. -1.
         -4   -1    0    0    0  501 -0.00000000000E+00 -0.00000000000E+00 -0.35739123167E+03  0.35739348816E+03  0.12700000000E+01 0. -1.
         25    2    1    2    0    0  0.00000000000E+00  0.00000000000E+00 -0.34650069120E+03  0.36835782908E+03  0.12499904496E+03 0.  0.
    9000005    1    3    3    0    0  0.21018032053E+02 -0.46992009172E+02 -0.27765427819E+03  0.28238786233E+03  0.10000000000E+01 0.  0.
    9000005    1    3    3    0    0 -0.21018032053E+02  0.46992009172E+02 -0.68846413010E+02  0.85969966743E+02  0.10000000000E+01 0.  0.
<mgrwt>
<rscale>  0 0.12499904E+03</rscale>
<asrwt>0</asrwt>
<pdfrwt beam="1">  1        4 0.16813186E-02 0.12499904E+03</pdfrwt>
<pdfrwt beam="2">  1       -4 0.54989108E-01 0.12499904E+03</pdfrwt>
<totfact> 0.67752524E+03</totfact>
</mgrwt>
</event>
<event>
 5    1  0.3284464E-002  0.1249949E+03  0.7818608E-02  0.1235077E+00
         -4   -1    0    0    0  501 -0.00000000000E+00  0.00000000000E+00  0.12672093931E+03  0.12672730313E+03  0.12700000000E+01 0.  1.
          4   -1    0    0  501    0  0.00000000000E+00 -0.00000000000E+00 -0.30802871634E+02  0.30829041518E+02  0.12700000000E+01 0.  1.
         25    2    1    2    0    0  0.00000000000E+00  0.00000000000E+00  0.95918067673E+02  0.15755634465E+03  0.12499490403E+03 0.  0.
    9000005    1    3    3    0    0 -0.16628592779E+02 -0.54884211524E+01 -0.27653221394E+02  0.32746503906E+02  0.10000000000E+01 0.  0.
    9000005    1    3    3    0    0  0.16628592779E+02  0.54884211524E+01  0.12357128907E+03  0.12480984074E+03  0.10000000000E+01 0.  0.
<mgrwt>
<rscale>  0 0.12499490E+03</rscale>
<asrwt>0</asrwt>
<pdfrwt beam="2">  1        4 0.47414060E-02 0.12499490E+03</pdfrwt>
<pdfrwt beam="1">  1       -4 0.19498032E-01 0.12499490E+03</pdfrwt>
<totfact> 0.97827190E+03</totfact>
</mgrwt>
</event>
<event>
 5    1  0.3284464E-002  0.1250037E+03  0.7818608E-02  0.1235064E+00
         -4   -1    0    0    0  501 -0.00000000000E+00  0.00000000000E+00  0.75686764500E+02  0.75697418849E+02  0.12700000000E+01 0.  1.
          4   -1    0    0  501    0  0.00000000000E+00 -0.00000000000E+00 -0.51591660806E+02  0.51607289841E+02  0.12700000000E+01 0.  1.
         25    2    1    2    0    0  0.00000000000E+00  0.00000000000E+00  0.24095103694E+02  0.12730470869E+03  0.12500365928E+03 0.  0.
    9000005    1    3    3    0    0  0.16470986974E+02 -0.43781265120E+01  0.73279338439E+02  0.75241762643E+02  0.10000000000E+01 0.  0.
    9000005    1    3    3    0    0 -0.16470986974E+02  0.43781265120E+01 -0.49184234745E+02  0.52062946047E+02  0.10000000000E+01 0.  0.
<mgrwt>
<rscale>  0 0.12500366E+03</rscale>
<asrwt>0</asrwt>
<pdfrwt beam="2">  1        4 0.79392004E-02 0.12500366E+03</pdfrwt>
<pdfrwt beam="1">  1       -4 0.11646139E-01 0.12500366E+03</pdfrwt>
<totfact> 0.10401673E+04</totfact>
</mgrwt>
</event>
<event>
 5    1  0.3284464E-002  0.1250025E+03  0.7818608E-02  0.1235065E+00
         -4   -1    0    0    0  501 -0.00000000000E+00  0.00000000000E+00  0.46351550642E+01  0.48059923501E+01  0.12700000000E+01 0.  1.
          4   -1    0    0  501    0  0.00000000000E+00 -0.00000000000E+00 -0.82735634082E+03  0.82735731555E+03  0.12700000000E+01 0.  1.
         25    2    1    2    0    0  0.00000000000E+00  0.00000000000E+00 -0.82272118576E+03  0.83216330790E+03  0.12500248607E+03 0.  0.
    9000005    1    3    3    0    0 -0.44910288143E+02 -0.43340223170E+02 -0.43251371049E+03  0.43699475819E+03  0.10000000000E+01 0.  0.
    9000005    1    3    3    0    0  0.44910288143E+02  0.43340223170E+02 -0.39020747527E+03  0.39516854971E+03  0.10000000000E+01 0.  0.
<mgrwt>
<rscale>  0 0.12500249E+03</rscale>
<asrwt>0</asrwt>
<pdfrwt beam="2">  1        4 0.12729869E+00 0.12500249E+03</pdfrwt>
<pdfrwt beam="1">  1       -4 0.72631774E-03 0.12500249E+03</pdfrwt>
<totfact> 0.36866566E+03</totfact>
</mgrwt>
</event>
<event>
 5    1  0.3284464E-002  0.1250005E+03  0.7818608E-02  0.1235068E+00
          4   -1    0    0  501    0  0.00000000000E+00  0.00000000000E+00  0.64630088906E+03  0.64630213686E+03  0.12700000000E+01 0.  1.
         -4   -1    0    0    0  501 -0.00000000000E+00 -0.00000000000E+00 -0.59760809696E+01  0.61095371146E+01  0.12700000000E+01 0.  1.
         25    2    1    2    0    0  0.00000000000E+00  0.00000000000E+00  0.64032480809E+03  0.65241167397E+03  0.12500052989E+03 0.  0.
    9000005    1    3    3    0    0  0.50900288404E+02  0.23489577014E+02  0.17602322190E+03  0.18473704078E+03  0.10000000000E+01 0.  0.
    9000005    1    3    3    0    0 -0.50900288404E+02 -0.23489577014E+02  0.46430158619E+03  0.46767463319E+03  0.10000000000E+01 0.  0.
<mgrwt>
<rscale>  0 0.12500053E+03</rscale>
<asrwt>0</asrwt>
<pdfrwt beam="1">  1        4 0.99441270E-01 0.12500053E+03</pdfrwt>
<pdfrwt beam="2">  1       -4 0.92975890E-03 0.12500053E+03</pdfrwt>
<totfact> 0.45717247E+03</totfact>
</mgrwt>
</event>
<event>
 5    1  0.3284464E-002  0.1249966E+03  0.7818608E-02  0.1235075E+00
         -4   -1    0    0    0  501 -0.00000000000E+00  0.00000000000E+00  0.25166922213E+02  0.25198945884E+02  0.12700000000E+01 0. -1.
          4   -1    0    0  501    0  0.00000000000E+00 -0.00000000000E+00 -0.15507202101E+03  0.15507722141E+03  0.12700000000E+01 0. -1.
         25    2    1    2    0    0  0.00000000000E+00  0.00000000000E+00 -0.12990509879E+03  0.18027616729E+03  0.12499664716E+03 0.  0.
    9000005    1    3    3    0    0  0.30826139245E+02  0.53869703582E+02 -0.75436871715E+02  0.97692975382E+02  0.10000000000E+01 0.  0.
    9000005    1    3    3    0    0 -0.30826139245E+02 -0.53869703582E+02 -0.54468227079E+02  0.82583191909E+02  0.10000000000E+01 0.  0.
<mgrwt>
<rscale>  0 0.12499665E+03</rscale>
<asrwt>0</asrwt>
<pdfrwt beam="2">  1        4 0.23860097E-01 0.12499665E+03</pdfrwt>
<pdfrwt beam="1">  1       -4 0.38746977E-02 0.12499665E+03</pdfrwt>
<totfact> 0.93574350E+03</totfact>
</mgrwt>
</event>
<event>
 5    1  0.3284464E-002  0.1250004E+03  0.7818608E-02  0.1235069E+00
          4   -1    0    0  501    0  0.00000000000E+00  0.00000000000E+00  0.36001438732E+02  0.36023832261E+02  0.12700000000E+01 0. -1.
         -4   -1    0    0    0  501 -0.00000000000E+00 -0.00000000000E+00 -0.10844349236E+03  0.10845092869E+03  0.12700000000E+01 0. -1.
         25    2    1    2    0    0  0.00000000000E+00  0.00000000000E+00 -0.72442053625E+02  0.14447476096E+03  0.12500042168E+03 0.  0.
    9000005    1    3    3    0    0 -0.13152853218E+02 -0.41910792213E+02  0.15153528272E+02  0.46477322113E+02  0.10000000000E+01 0.  0.
    9000005    1    3    3    0    0  0.13152853218E+02  0.41910792213E+02 -0.87595581897E+02  0.97997438842E+02  0.10000000000E+01 0.  0.
<mgrwt>
<rscale>  0 0.12500042E+03</rscale>
<asrwt>0</asrwt>
<pdfrwt beam="1">  1        4 0.55409775E-02 0.12500042E+03</pdfrwt>
<pdfrwt beam="2">  1       -4 0.16685909E-01 0.12500042E+03</pdfrwt>
<totfact> 0.10041576E+04</totfact>
</mgrwt>
</event>
<event>
 5    1  0.3284464E-002  0.1250173E+03  0.7818608E-02  0.1235042E+00
          4   -1    0    0  501    0  0.00000000000E+00  0.00000000000E+00  0.16086015803E+04  0.16086020816E+04  0.12700000000E+01 0. -1.
         -4   -1    0    0    0  501 -0.00000000000E+00 -0.00000000000E+00 -0.22624830929E+01  0.25945577168E+01  0.12700000000E+01 0. -1.
         25    2    1    2    0    0  0.00000000000E+00  0.00000000000E+00  0.16063390972E+04  0.16111966393E+04  0.12501726059E+03 0.  0.
    9000005    1    3    3    0    0 -0.58068253861E+02 -0.19051037990E+02  0.97192815835E+03  0.97384814481E+03  0.10000000000E+01 0.  0.
    9000005    1    3    3    0    0  0.58068253861E+02  0.19051037990E+02  0.63441093881E+03  0.63734849450E+03  0.10000000000E+01 0.  0.
<mgrwt>
<rscale>  0 0.12501726E+03</rscale>
<asrwt>0</asrwt>
<pdfrwt beam="1">  1        4 0.24750311E+00 0.12501726E+03</pdfrwt>
<pdfrwt beam="2">  1       -4 0.37365655E-03 0.12501726E+03</pdfrwt>
<totfact> 0.15838646E+03</totfact>
</mgrwt>
</event>
<event>
 5    1  0.3284464E-002  0.1250007E+03  0.7818608E-02  0.1235068E+00
          4   -1    0    0  501    0  0.00000000000E+00  0.00000000000E+00  0.10418172794E+02  0.10495295345E+02  0.12700000000E+01 0.  1.
         -4   -1    0    0    0  501 -0.00000000000E+00 -0.00000000000E+00 -0.37348886066E+03  0.37349101989E+03  0.12700000000E+01 0.  1.
         25    2    1    2    0    0  0.00000000000E+00  0.00000000000E+00 -0.36307068786E+03  0.38398631523E+03  0.12500066359E+03 0.  0.
    9000005    1    3    3    0    0  0.40459127200E+02  0.46387364842E+02 -0.21470061647E+03  0.22335192702E+03  0.10000000000E+01 0.  0.
    9000005    1    3    3    0    0 -0.40459127200E+02 -0.46387364842E+02 -0.14837007139E+03  0.16063438821E+03  0.10000000000E+01 0.  0.
<mgrwt>
<rscale>  0 0.12500066E+03</rscale>
<asrwt>0</asrwt>
<pdfrwt beam="1">  1        4 0.16088947E-02 0.12500066E+03</pdfrwt>
<pdfrwt beam="2">  1       -4 0.57465913E-01 0.12500066E+03</pdfrwt>
<totfact> 0.66139676E+03</totfact>
</mgrwt>
</event>
<event>
 5    1  0.3284464E-002  0.1249999E+03  0.7818608E-02  0.1235069E+00
          4   -1    0    0  501    0  0.00000000000E+00  0.00000000000E+00  0.77045478094E+02  0.77055944577E+02  0.12700000000E+01 0.  1.
         -4   -1    0    0    0  501 -0.00000000000E+00 -0.00000000000E+00 -0.50678615634E+02  0.50694526160E+02  0.12700000000E+01 0.  1.
         25    2    1    2    0    0  0.00000000000E+00  0.00000000000E+00  0.26366862460E+02  0.12775047074E+03  0.12499988535E+03 0.  0.
    9000005    1    3    3    0    0  0.11971847090E+02  0.45007668344E+02  0.55768387933E+02  0.72664492189E+02  0.10000000000E+01 0.  0.
    9000005    1    3    3    0    0 -0.11971847090E+02 -0.45007668344E+02 -0.29401525473E+02  0.55085978548E+02  0.10000000000E+01 0.  0.
<mgrwt>
<rscale>  0 0.12499989E+03</rscale>
<asrwt>0</asrwt>
<pdfrwt beam="1">  1        4 0.11855180E-01 0.12499989E+03</pdfrwt>
<pdfrwt beam="2">  1       -4 0.77987391E-02 0.12499989E+03</pdfrwt>
<totfact> 0.10392907E+04</totfact>
</mgrwt>
</event>
<event>
 5    1  0.3284464E-002  0.1249966E+03  0.7818608E-02  0.1235075E+00
         -4   -1    0    0    0  501 -0.00000000000E+00  0.00000000000E+00  0.18416901918E+03  0.18417339799E+03  0.12700000000E+01 0.  1.
          4   -1    0    0  501    0  0.00000000000E+00 -0.00000000000E+00 -0.21185327714E+02  0.21223360015E+02  0.12700000000E+01 0.  1.
         25    2    1    2    0    0  0.00000000000E+00  0.00000000000E+00  0.16298369147E+03  0.20539675800E+03  0.12499657801E+03 0.  0.
    9000005    1    3    3    0    0 -0.42806736959E+02  0.24529856107E+02  0.14451321798E+03  0.15270625639E+03  0.10000000000E+01 0.  0.
    9000005    1    3    3    0    0  0.42806736959E+02 -0.24529856107E+02  0.18470473493E+02  0.52690501618E+02  0.10000000000E+01 0.  0.
<mgrwt>
<rscale>  0 0.12499658E+03</rscale>
<asrwt>0</asrwt>
<pdfrwt beam="2">  1        4 0.32625435E-02 0.12499658E+03</pdfrwt>
<pdfrwt beam="1">  1       -4 0.28336959E-01 0.12499658E+03</pdfrwt>
<totfact> 0.89240041E+03</totfact>
</mgrwt>
</event>
<event>
 5    1  0.3284464E-002  0.1250068E+03  0.7818608E-02  0.1235059E+00
          4   -1    0    0  501    0  0.00000000000E+00  0.00000000000E+00  0.31297065869E+03  0.31297323544E+03  0.12700000000E+01 0. -1.
         -4   -1    0    0    0  501 -0.00000000000E+00 -0.00000000000E+00 -0.12447620006E+02  0.12512239760E+02  0.12700000000E+01 0. -1.
         25    2    1    2    0    0  0.00000000000E+00  0.00000000000E+00  0.30052303868E+03  0.32548547520E+03  0.12500679095E+03 0.  0.
    9000005    1    3    3    0    0 -0.52123524048E+00  0.13923288201E+02  0.30888787994E+03  0.30920357697E+03  0.10000000000E+01 0.  0.
    9000005    1    3    3    0    0  0.52123524048E+00 -0.13923288201E+02 -0.83648412554E+01  0.16281898223E+02  0.10000000000E+01 0.  0.
<mgrwt>
<rscale>  0 0.12500679E+03</rscale>
<asrwt>0</asrwt>
<pdfrwt beam="1">  1        4 0.48154500E-01 0.12500679E+03</pdfrwt>
<pdfrwt beam="2">  1       -4 0.19201875E-02 0.12500679E+03</pdfrwt>
<totfact> 0.72497504E+03</totfact>
</mgrwt>
</event>
<event>
 5    1  0.3284464E-002  0.1249991E+03  0.7818608E-02  0.1235071E+00
          4   -1    0    0  501    0  0.00000000000E+00  0.00000000000E+00  0.92892536572E+02  0.92901217704E+02  0.12700000000E+01 0. -1.
         -4   -1    0    0    0  501 -0.00000000000E+00 -0.00000000000E+00 -0.42030427440E+02  0.42049610353E+02  0.12700000000E+01 0. -1.
         25    2    1    2    0    0  0.00000000000E+00  0.00000000000E+00  0.50862109132E+02  0.13495082806E+03  0.12499908739E+03 0.  0.
    9000005    1    3    3    0    0  0.30760958595E+02  0.41411111024E+02 -0.12648531158E+02  0.53123460263E+02  0.10000000000E+01 0.  0.
    9000005    1    3    3    0    0 -0.30760958595E+02 -0.41411111024E+02  0.63510640289E+02  0.81827367793E+02  0.10000000000E+01 0.  0.
<mgrwt>
<rscale>  0 0.12499909E+03</rscale>
<asrwt>0</asrwt>
<pdfrwt beam="1">  1        4 0.14293303E-01 0.12499909E+03</pdfrwt>
<pdfrwt beam="2">  1       -4 0.64683631E-02 0.12499909E+03</pdfrwt>
<totfact> 0.10239318E+04</totfact>
</mgrwt>
</event>
<event>
 5    1  0.3284464E-002  0.1249997E+03  0.7818608E-02  0.1235070E+00
         -4   -1    0    0    0  501 -0.00000000000E+00  0.00000000000E+00  0.13240800723E+03  0.13241409773E+03  0.12700000000E+01 0. -1.
          4   -1    0    0  501    0  0.00000000000E+00 -0.00000000000E+00 -0.29481010272E+02  0.29508352490E+02  0.12700000000E+01 0. -1.
         25    2    1    2    0    0  0.00000000000E+00  0.00000000000E+00  0.10292699695E+03  0.16192245022E+03  0.12499965273E+03 0.  0.
    9000005    1    3    3    0    0  0.28632565434E+02 -0.35238688996E+02 -0.41571743324E+01  0.45605603866E+02  0.10000000000E+01 0.  0.
    9000005    1    3    3    0    0 -0.28632565434E+02  0.35238688996E+02  0.10708417129E+03  0.11631684635E+03  0.10000000000E+01 0.  0.
<mgrwt>
<rscale>  0 0.12499965E+03</rscale>
<asrwt>0</asrwt>
<pdfrwt beam="2">  1        4 0.45381118E-02 0.12499965E+03</pdfrwt>
<pdfrwt beam="1">  1       -4 0.20373034E-01 0.12499965E+03</pdfrwt>
<totfact> 0.96974184E+03</totfact>
</mgrwt>
</event>
<event>
 5    1  0.3284464E-002  0.1249996E+03  0.7818608E-02  0.1235070E+00
         -4   -1    0    0    0  501 -0.00000000000E+00  0.00000000000E+00  0.80763379793E+02  0.80773364518E+02  0.12700000000E+01 0. -1.
          4   -1    0    0  501    0  0.00000000000E+00 -0.00000000000E+00 -0.48344976053E+02  0.48361654330E+02  0.12700000000E+01 0. -1.
         25    2    1    2    0    0  0.00000000000E+00  0.00000000000E+00  0.32418403740E+02  0.12913501885E+03  0.12499960077E+03 0.  0.
    9000005    1    3    3    0    0 -0.43378345787E+02  0.16517157813E+02 -0.27016763509E+02  0.53715946384E+02  0.10000000000E+01 0.  0.
    9000005    1    3    3    0    0  0.43378345787E+02 -0.16517157813E+02  0.59435167249E+02  0.75419072464E+02  0.10000000000E+01 0.  0.
<mgrwt>
<rscale>  0 0.12499960E+03</rscale>
<asrwt>0</asrwt>
<pdfrwt beam="2">  1        4 0.74397397E-02 0.12499960E+03</pdfrwt>
<pdfrwt beam="1">  1       -4 0.12427186E-01 0.12499960E+03</pdfrwt>
<totfact> 0.10363140E+04</totfact>
</mgrwt>
</event>
<event>
 5    1  0.3284464E-002  0.1249993E+03  0.7818608E-02  0.1235070E+00
          4   -1    0    0  501    0  0.00000000000E+00  0.00000000000E+00  0.85240971657E+02  0.85250431958E+02  0.12700000000E+01 0. -1.
         -4   -1    0    0    0  501 -0.00000000000E+00 -0.00000000000E+00 -0.45804643291E+02  0.45822246202E+02  0.12700000000E+01 0. -1.
         25    2    1    2    0    0  0.00000000000E+00  0.00000000000E+00  0.39436328366E+02  0.13107267816E+03  0.12499929186E+03 0.  0.
    9000005    1    3    3    0    0  0.18033819553E+02  0.41933272147E+02  0.64471939048E+02  0.79001575207E+02  0.10000000000E+01 0.  0.
    9000005    1    3    3    0    0 -0.18033819553E+02 -0.41933272147E+02 -0.25035610681E+02  0.52071102954E+02  0.10000000000E+01 0.  0.
<mgrwt>
<rscale>  0 0.12499929E+03</rscale>
<asrwt>0</asrwt>
<pdfrwt beam="1">  1        4 0.13116077E-01 0.12499929E+03</pdfrwt>
<pdfrwt beam="2">  1       -4 0.70489501E-02 0.12499929E+03</pdfrwt>
<totfact> 0.10321696E+04</totfact>
</mgrwt>
</event>
<event>
 4    1  0.3284464E-002  0.1259765E+03  0.7818608E-02  0.1233551E+00
         -4   -1    0    0    0  501 -0.00000000000E+00  0.00000000000E+00  0.14606568173E+03  0.14607120277E+03  0.12700000000E+01 0. -1.
          4   -1    0    0  501    0  0.00000000000E+00 -0.00000000000E+00 -0.27141710017E+02  0.27171406343E+02  0.12700000000E+01 0. -1.
    9000005    1    1    2    0    0 -0.50815700754E+02 -0.23095218768E+02  0.99576707414E+02  0.11415842165E+03  0.10000000000E+01 0.  0.
    9000005    1    1    2    0    0  0.50815700754E+02  0.23095218768E+02  0.19347264297E+02  0.59084187468E+02  0.10000000000E+01 0.  0.
<mgrwt>
<rscale>  0 0.12597655E+03</rscale>
<asrwt>0</asrwt>
<pdfrwt beam="2">  1        4 0.41783567E-02 0.12597655E+03</pdfrwt>
<pdfrwt beam="1">  1       -4 0.22474353E-01 0.12597655E+03</pdfrwt>
<totfact> 0.92799035E+03</totfact>
</mgrwt>
</event>
<event>
 5    1  0.3284464E-002  0.1250045E+03  0.7818608E-02  0.1235062E+00
         -4   -1    0    0    0  501 -0.00000000000E+00  0.00000000000E+00  0.10551983839E+03  0.10552748075E+03  0.12700000000E+01 0. -1.
          4   -1    0    0  501    0  0.00000000000E+00 -0.00000000000E+00 -0.37001877506E+02  0.37023665931E+02  0.12700000000E+01 0. -1.
         25    2    1    2    0    0  0.00000000000E+00  0.00000000000E+00  0.68517960881E+02  0.14255114668E+03  0.12500447375E+03 0.  0.
    9000005    1    3    3    0    0  0.48831120353E+02 -0.31079332740E+02  0.73906246740E+01  0.58361156359E+02  0.10000000000E+01 0.  0.
    9000005    1    3    3    0    0 -0.48831120353E+02  0.31079332740E+02  0.61127336207E+02  0.84189990321E+02  0.10000000000E+01 0.  0.
<mgrwt>
<rscale>  0 0.12500447E+03</rscale>
<asrwt>0</asrwt>
<pdfrwt beam="2">  1        4 0.56948605E-02 0.12500447E+03</pdfrwt>
<pdfrwt beam="1">  1       -4 0.16236085E-01 0.12500447E+03</pdfrwt>
<totfact> 0.10079967E+04</totfact>
</mgrwt>
</event>
<event>
 5    1  0.3284464E-002  0.1249480E+03  0.7818608E-02  0.1235151E+00
         -4   -1    0    0    0  501 -0.00000000000E+00  0.00000000000E+00  0.62547071189E+02  0.62559963350E+02  0.12700000000E+01 0. -1.
          4   -1    0    0  501    0  0.00000000000E+00 -0.00000000000E+00 -0.62375210219E+02  0.62388137894E+02  0.12700000000E+01 0. -1.
         25    2    1    2    0    0  0.00000000000E+00  0.00000000000E+00  0.17186096998E+00  0.12494810124E+03  0.12494798305E+03 0.  0.
    9000005    1    3    3    0    0 -0.38057290891E+02  0.22397600555E+02  0.44267299969E+02  0.62534820277E+02  0.10000000000E+01 0.  0.
    9000005    1    3    3    0    0  0.38057290891E+02 -0.22397600555E+02 -0.44095438999E+02  0.62413280967E+02  0.10000000000E+01 0.  0.
<mgrwt>
<rscale>  0 0.12494798E+03</rscale>
<asrwt>0</asrwt>
<pdfrwt beam="2">  1        4 0.95981723E-02 0.12494798E+03</pdfrwt>
<pdfrwt beam="1">  1       -4 0.96246125E-02 0.12494798E+03</pdfrwt>
<totfact> 0.10466289E+04</totfact>
</mgrwt>
</event>
<event>
 5    1  0.3284464E-002  0.1249932E+03  0.7818608E-02  0.1235080E+00
         -4   -1    0    0    0  501 -0.00000000000E+00  0.00000000000E+00  0.25388531224E+03  0.25388848866E+03  0.12700000000E+01 0. -1.
          4   -1    0    0  501    0  0.00000000000E+00 -0.00000000000E+00 -0.15354721299E+02  0.15407153084E+02  0.12700000000E+01 0. -1.
         25    2    1    2    0    0  0.00000000000E+00  0.00000000000E+00  0.23853059094E+03  0.26929564174E+03  0.12499319919E+03 0.  0.
    9000005    1    3    3    0    0  0.36006747328E+02  0.13015755940E+01  0.92675241586E+01  0.37216487693E+02  0.10000000000E+01 0.  0.
    9000005    1    3    3    0    0 -0.36006747328E+02 -0.13015755940E+01  0.22926306678E+03  0.23207915405E+03  0.10000000000E+01 0.  0.
<mgrwt>
<rscale>  0 0.12499320E+03</rscale>
<asrwt>0</asrwt>
<pdfrwt beam="2">  1        4 0.23665427E-02 0.12499320E+03</pdfrwt>
<pdfrwt beam="1">  1       -4 0.39063552E-01 0.12499320E+03</pdfrwt>
<totfact> 0.79631041E+03</totfact>
</mgrwt>
</event>
<event>
 5    1  0.3284464E-002  0.1250006E+03  0.7818608E-02  0.1235068E+00
         -4   -1    0    0    0  501 -0.00000000000E+00  0.00000000000E+00  0.16227390045E+03  0.16227887006E+03  0.12700000000E+01 0. -1.
          4   -1    0    0  501    0  0.00000000000E+00 -0.00000000000E+00 -0.24050102206E+02  0.24083610944E+02  0.12700000000E+01 0. -1.
         25    2    1    2    0    0  0.00000000000E+00  0.00000000000E+00  0.13822379825E+03  0.18636248100E+03  0.12500062370E+03 0.  0.
    9000005    1    3    3    0    0 -0.39425254245E+02  0.26413086868E+02  0.84912686586E+01  0.48219326764E+02  0.10000000000E+01 0.  0.
    9000005    1    3    3    0    0  0.39425254245E+02 -0.26413086868E+02  0.12973252959E+03  0.13814315424E+03  0.10000000000E+01 0.  0.
<mgrwt>
<rscale>  0 0.12500062E+03</rscale>
<asrwt>0</asrwt>
<pdfrwt beam="2">  1        4 0.37029757E-02 0.12500062E+03</pdfrwt>
<pdfrwt beam="1">  1       -4 0.24968175E-01 0.12500062E+03</pdfrwt>
<totfact> 0.92482819E+03</totfact>
</mgrwt>
</event>
<event>
 5    1  0.3284464E-002  0.1249917E+03  0.7818608E-02  0.1235082E+00
          4   -1    0    0  501    0  0.00000000000E+00  0.00000000000E+00  0.76442020299E+02  0.76452569397E+02  0.12700000000E+01 0.  1.
         -4   -1    0    0    0  501 -0.00000000000E+00 -0.00000000000E+00 -0.51072028266E+02  0.51087816270E+02  0.12700000000E+01 0.  1.
         25    2    1    2    0    0  0.00000000000E+00  0.00000000000E+00  0.25369992033E+02  0.12754038567E+03  0.12499165364E+03 0.  0.
    9000005    1    3    3    0    0  0.32952763216E+02  0.89313224508E+01 -0.40718377636E+02  0.53147336731E+02  0.10000000000E+01 0.  0.
    9000005    1    3    3    0    0 -0.32952763216E+02 -0.89313224508E+01  0.66088369669E+02  0.74393048935E+02  0.10000000000E+01 0.  0.
<mgrwt>
<rscale>  0 0.12499165E+03</rscale>
<asrwt>0</asrwt>
<pdfrwt beam="1">  1        4 0.11762337E-01 0.12499165E+03</pdfrwt>
<pdfrwt beam="2">  1       -4 0.78592610E-02 0.12499165E+03</pdfrwt>
<totfact> 0.10399385E+04</totfact>
</mgrwt>
</event>
<event>
 5    1  0.3284464E-002  0.1249969E+03  0.7818608E-02  0.1235074E+00
         -4   -1    0    0    0  501 -0.00000000000E+00  0.00000000000E+00  0.82548550711E+02  0.82558319535E+02  0.12700000000E+01 0.  1.
          4   -1    0    0  501    0  0.00000000000E+00 -0.00000000000E+00 -0.47297234330E+02  0.47314281937E+02  0.12700000000E+01 0.  1.
         25    2    1    2    0    0  0.00000000000E+00  0.00000000000E+00  0.35251316382E+02  0.12987260147E+03  0.12499694919E+03 0.  0.
    9000005    1    3    3    0    0  0.41907831444E+02 -0.43943867266E+02  0.32956880608E+02  0.69097653984E+02  0.10000000000E+01 0.  0.
    9000005    1    3    3    0    0 -0.41907831444E+02  0.43943867266E+02  0.22944357737E+01  0.60774947488E+02  0.10000000000E+01 0.  0.
<mgrwt>
<rscale>  0 0.12499695E+03</rscale>
<asrwt>0</asrwt>
<pdfrwt beam="2">  1        4 0.72785605E-02 0.12499695E+03</pdfrwt>
<pdfrwt beam="1">  1       -4 0.12701840E-01 0.12499695E+03</pdfrwt>
<totfact> 0.10347946E+04</totfact>
</mgrwt>
</event>
<event>
 5    1  0.3284464E-002  0.1249990E+03  0.7818608E-02  0.1235071E+00
          4   -1    0    0  501    0  0.00000000000E+00  0.00000000000E+00  0.59610353989E+02  0.59623881144E+02  0.12700000000E+01 0.  1.
         -4   -1    0    0    0  501 -0.00000000000E+00 -0.00000000000E+00 -0.65501512566E+02  0.65513823339E+02  0.12700000000E+01 0.  1.
         25    2    1    2    0    0  0.00000000000E+00  0.00000000000E+00 -0.58911585768E+01  0.12513770448E+03  0.12499895733E+03 0.  0.
    9000005    1    3    3    0    0 -0.67970120424E+01 -0.45513086690E+02  0.39380711634E+02  0.60576240240E+02  0.10000000000E+01 0.  0.
    9000005    1    3    3    0    0  0.67970120424E+01  0.45513086690E+02 -0.45271870211E+02  0.64561464243E+02  0.10000000000E+01 0.  0.
<mgrwt>
<rscale>  0 0.12499896E+03</rscale>
<asrwt>0</asrwt>
<pdfrwt beam="1">  1        4 0.91728112E-02 0.12499896E+03</pdfrwt>
<pdfrwt beam="2">  1       -4 0.10079143E-01 0.12499896E+03</pdfrwt>
<totfact> 0.10450119E+04</totfact>
</mgrwt>
</event>
<event>
 5    1  0.3284464E-002  0.1250058E+03  0.7818608E-02  0.1235060E+00
         -4   -1    0    0    0  501 -0.00000000000E+00  0.00000000000E+00  0.23241055126E+03  0.23241402118E+03  0.12700000000E+01 0.  1.
          4   -1    0    0  501    0  0.00000000000E+00 -0.00000000000E+00 -0.16781510491E+02  0.16829497746E+02  0.12700000000E+01 0.  1.
         25    2    1    2    0    0  0.00000000000E+00  0.00000000000E+00  0.21562904077E+03  0.24924351892E+03  0.12500579386E+03 0.  0.
    9000005    1    3    3    0    0  0.47483698062E+02 -0.10390138229E+02  0.29494923750E+02  0.56864814086E+02  0.10000000000E+01 0.  0.
    9000005    1    3    3    0    0 -0.47483698062E+02  0.10390138229E+02  0.18613411702E+03  0.19237870484E+03  0.10000000000E+01 0.  0.
<mgrwt>
<rscale>  0 0.12500579E+03</rscale>
<asrwt>0</asrwt>
<pdfrwt beam="2">  1        4 0.25857292E-02 0.12500579E+03</pdfrwt>
<pdfrwt beam="1">  1       -4 0.35759427E-01 0.12500579E+03</pdfrwt>
<totfact> 0.82429046E+03</totfact>
</mgrwt>
</event>
<event>
 5    1  0.3284464E-002  0.1249955E+03  0.7818608E-02  0.1235076E+00
         -4   -1    0    0    0  501 -0.00000000000E+00  0.00000000000E+00  0.53406267313E+02  0.53421365466E+02  0.12700000000E+01 0. -1.
          4   -1    0    0  501    0  0.00000000000E+00 -0.00000000000E+00 -0.73105943214E+02  0.73116973633E+02  0.12700000000E+01 0. -1.
         25    2    1    2    0    0  0.00000000000E+00  0.00000000000E+00 -0.19699675901E+02  0.12653833910E+03  0.12499549604E+03 0.  0.
    9000005    1    3    3    0    0 -0.39782885960E+02  0.43465667547E+02 -0.30915973338E+02  0.66548776683E+02  0.10000000000E+01 0.  0.
    9000005    1    3    3    0    0  0.39782885960E+02 -0.43465667547E+02  0.11216297437E+02  0.59989562416E+02  0.10000000000E+01 0.  0.
<mgrwt>
<rscale>  0 0.12499550E+03</rscale>
<asrwt>0</asrwt>
<pdfrwt beam="2">  1        4 0.11249078E-01 0.12499550E+03</pdfrwt>
<pdfrwt beam="1">  1       -4 0.82183587E-02 0.12499550E+03</pdfrwt>
<totfact> 0.10420251E+04</totfact>
</mgrwt>
</event>
<event>
 5    1  0.3284464E-002  0.1249980E+03  0.7818608E-02  0.1235072E+00
         -4   -1    0    0    0  501 -0.00000000000E+00  0.00000000000E+00  0.16130172949E+03  0.16130672905E+03  0.12700000000E+01 0. -1.
          4   -1    0    0  501    0  0.00000000000E+00 -0.00000000000E+00 -0.24194228494E+02  0.24227537894E+02  0.12700000000E+01 0. -1.
         25    2    1    2    0    0  0.00000000000E+00  0.00000000000E+00  0.13710750099E+03  0.18553426694E+03  0.12499798951E+03 0.  0.
    9000005    1    3    3    0    0  0.25886046938E+02  0.52402519621E+02  0.10137697501E+03  0.11702308555E+03  0.10000000000E+01 0.  0.
    9000005    1    3    3    0    0 -0.25886046938E+02 -0.52402519621E+02  0.35730525979E+02  0.68511181390E+02  0.10000000000E+01 0.  0.
<mgrwt>
<rscale>  0 0.12499799E+03</rscale>
<asrwt>0</asrwt>
<pdfrwt beam="2">  1        4 0.37251360E-02 0.12499799E+03</pdfrwt>
<pdfrwt beam="1">  1       -4 0.24818597E-01 0.12499799E+03</pdfrwt>
<totfact> 0.92634370E+03</totfact>
</mgrwt>
</event>
<event>
 5    1  0.3284464E-002  0.1250085E+03  0.7818608E-02  0.1235056E+00
          4   -1    0    0  501    0  0.00000000000E+00  0.00000000000E+00  0.14213092000E+03  0.14213659389E+03  0.12700000000E+01 0.  1.
         -4   -1    0    0    0  501 -0.00000000000E+00 -0.00000000000E+00 -0.27466310074E+02  0.27495655822E+02  0.12700000000E+01 0.  1.
         25    2    1    2    0    0  0.00000000000E+00  0.00000000000E+00  0.11466460993E+03  0.16963224971E+03  0.12500850919E+03 0.  0.
    9000005    1    3    3    0    0 -0.52054305801E+02 -0.34126071768E+02  0.64953369410E+02  0.89967659325E+02  0.10000000000E+01 0.  0.
    9000005    1    3    3    0    0  0.52054305801E+02  0.34126071768E+02  0.49711240521E+02  0.79664590383E+02  0.10000000000E+01 0.  0.
<mgrwt>
<rscale>  0 0.12500851E+03</rscale>
<asrwt>0</asrwt>
<pdfrwt beam="1">  1        4 0.21868989E-01 0.12500851E+03</pdfrwt>
<pdfrwt beam="2">  1       -4 0.42282800E-02 0.12500851E+03</pdfrwt>
<totfact> 0.95498983E+03</totfact>
</mgrwt>
</event>
<event>
 5    1  0.3284464E-002  0.1250003E+03  0.7818608E-02  0.1235069E+00
          4   -1    0    0  501    0  0.00000000000E+00  0.00000000000E+00  0.88234639203E+01  0.89143937288E+01  0.12700000000E+01 0. -1.
         -4   -1    0    0    0  501 -0.00000000000E+00 -0.00000000000E+00 -0.44035239807E+03  0.44035422944E+03  0.12700000000E+01 0. -1.
         25    2    1    2    0    0  0.00000000000E+00  0.00000000000E+00 -0.43152893415E+03  0.44926862317E+03  0.12500029902E+03 0.  0.
    9000005    1    3    3    0    0  0.41008554218E+02 -0.27612496219E+02 -0.78380021124E+02  0.92674587552E+02  0.10000000000E+01 0.  0.
    9000005    1    3    3    0    0 -0.41008554218E+02  0.27612496219E+02 -0.35314891303E+03  0.35659403562E+03  0.10000000000E+01 0.  0.
<mgrwt>
<rscale>  0 0.12500030E+03</rscale>
<asrwt>0</asrwt>
<pdfrwt beam="1">  1        4 0.13645918E-02 0.12500030E+03</pdfrwt>
<pdfrwt beam="2">  1       -4 0.67753641E-01 0.12500030E+03</pdfrwt>
<totfact> 0.60026818E+03</totfact>
</mgrwt>
</event>
<event>
 5    1  0.3284464E-002  0.1249978E+03  0.7818608E-02  0.1235073E+00
          4   -1    0    0  501    0  0.00000000000E+00  0.00000000000E+00  0.33341006153E+02  0.33365185318E+02  0.12700000000E+01 0. -1.
         -4   -1    0    0    0  501 -0.00000000000E+00 -0.00000000000E+00 -0.11708626713E+03  0.11709315458E+03  0.12700000000E+01 0. -1.
         25    2    1    2    0    0  0.00000000000E+00  0.00000000000E+00 -0.83745260972E+02  0.15045833990E+03  0.12499777322E+03 0.  0.
    9000005    1    3    3    0    0 -0.39579811235E+02 -0.33607919543E+02 -0.18589262364E-01  0.51933169160E+02  0.10000000000E+01 0.  0.
    9000005    1    3    3    0    0  0.39579811235E+02  0.33607919543E+02 -0.83726671709E+02  0.98525170738E+02  0.10000000000E+01 0.  0.
<mgrwt>
<rscale>  0 0.12499777E+03</rscale>
<asrwt>0</asrwt>
<pdfrwt beam="1">  1        4 0.51317754E-02 0.12499777E+03</pdfrwt>
<pdfrwt beam="2">  1       -4 0.18015661E-01 0.12499777E+03</pdfrwt>
<totfact> 0.99217385E+03</totfact>
</mgrwt>
</event>
<event>
 5    1  0.3284464E-002  0.1249978E+03  0.7818608E-02  0.1235073E+00
         -4   -1    0    0    0  501 -0.00000000000E+00  0.00000000000E+00  0.33518032895E+03  0.33518273496E+03  0.12700000000E+01 0. -1.
          4   -1    0    0  501    0  0.00000000000E+00 -0.00000000000E+00 -0.11616701530E+02  0.11685916928E+02  0.12700000000E+01 0. -1.
         25    2    1    2    0    0  0.00000000000E+00  0.00000000000E+00  0.32356362742E+03  0.34686865189E+03  0.12499776267E+03 0.  0.
    9000005    1    3    3    0    0 -0.40531833394E+02 -0.41154883038E+02  0.22795004602E+03  0.23515692080E+03  0.10000000000E+01 0.  0.
    9000005    1    3    3    0    0  0.40531833394E+02  0.41154883038E+02  0.95613581396E+02  0.11171173109E+03  0.10000000000E+01 0.  0.
<mgrwt>
<rscale>  0 0.12499776E+03</rscale>
<asrwt>0</asrwt>
<pdfrwt beam="2">  1        4 0.17926942E-02 0.12499776E+03</pdfrwt>
<pdfrwt beam="1">  1       -4 0.51571712E-01 0.12499776E+03</pdfrwt>
<totfact> 0.70073891E+03</totfact>
</mgrwt>
</event>
<event>
 5    1  0.3284464E-002  0.1250009E+03  0.7818608E-02  0.1235068E+00
         -4   -1    0    0    0  501 -0.00000000000E+00  0.00000000000E+00  0.46621659747E+03  0.46621832724E+03  0.12700000000E+01 0.  1.
          4   -1    0    0  501    0  0.00000000000E+00 -0.00000000000E+00 -0.83288517832E+01  0.84251214843E+01  0.12700000000E+01 0.  1.
         25    2    1    2    0    0  0.00000000000E+00  0.00000000000E+00  0.45788774569E+03  0.47464344873E+03  0.12500086307E+03 0.  0.
    9000005    1    3    3    0    0  0.29240056913E+02 -0.22362243637E+02  0.37189127996E+02  0.52336240884E+02  0.10000000000E+01 0.  0.
    9000005    1    3    3    0    0 -0.29240056913E+02  0.22362243637E+02  0.42069861769E+03  0.42230720784E+03  0.10000000000E+01 0.  0.
<mgrwt>
<rscale>  0 0.12500086E+03</rscale>
<asrwt>0</asrwt>
<pdfrwt beam="2">  1        4 0.12888999E-02 0.12500086E+03</pdfrwt>
<pdfrwt beam="1">  1       -4 0.71733189E-01 0.12500086E+03</pdfrwt>
<totfact> 0.57885720E+03</totfact>
</mgrwt>
</event>
<event>
 5    1  0.3284464E-002  0.1250000E+03  0.7818608E-02  0.1235069E+00
          4   -1    0    0  501    0  0.00000000000E+00  0.00000000000E+00  0.34013234038E+02  0.34036935669E+02  0.12700000000E+01 0.  1.
         -4   -1    0    0    0  501 -0.00000000000E+00 -0.00000000000E+00 -0.11477770350E+03  0.11478472948E+03  0.12700000000E+01 0.  1.
         25    2    1    2    0    0  0.00000000000E+00  0.00000000000E+00 -0.80764469467E+02  0.14882166515E+03  0.12499995396E+03 0.  0.
    9000005    1    3    3    0    0  0.25168873677E+02  0.51804236592E+02 -0.69254470537E+02  0.90079591587E+02  0.10000000000E+01 0.  0.
    9000005    1    3    3    0    0 -0.25168873677E+02 -0.51804236592E+02 -0.11509998930E+02  0.58742073562E+02  0.10000000000E+01 0.  0.
<mgrwt>
<rscale>  0 0.12499995E+03</rscale>
<asrwt>0</asrwt>
<pdfrwt beam="1">  1        4 0.52351690E-02 0.12499995E+03</pdfrwt>
<pdfrwt beam="2">  1       -4 0.17660472E-01 0.12499995E+03</pdfrwt>
<totfact> 0.99539205E+03</totfact>
</mgrwt>
</event>
<event>
 5    1  0.3284464E-002  0.1249987E+03  0.7818608E-02  0.1235071E+00
          4   -1    0    0  501    0  0.00000000000E+00  0.00000000000E+00  0.82040167877E+01  0.83017342437E+01  0.12700000000E+01 0.  1.
         -4   -1    0    0    0  501 -0.00000000000E+00 -0.00000000000E+00 -0.47321116647E+03  0.47321287067E+03  0.12700000000E+01 0.  1.
         25    2    1    2    0    0  0.00000000000E+00  0.00000000000E+00 -0.46500714968E+03  0.48151460491E+03  0.12499866197E+03 0.  0.
    9000005    1    3    3    0    0  0.30316072439E+02 -0.19842607296E+02 -0.42863755881E+03  0.43016735132E+03  0.10000000000E+01 0.  0.
    9000005    1    3    3    0    0 -0.30316072439E+02  0.19842607296E+02 -0.36369590865E+02  0.51347253598E+02  0.10000000000E+01 0.  0.
<mgrwt>
<rscale>  0 0.12499866E+03</rscale>
<asrwt>0</asrwt>
<pdfrwt beam="1">  1        4 0.12698046E-02 0.12499866E+03</pdfrwt>
<pdfrwt beam="2">  1       -4 0.72809345E-01 0.12499866E+03</pdfrwt>
<totfact> 0.57329379E+03</totfact>
</mgrwt>
</event>
<event>
 5    1  0.3284464E-002  0.1250014E+03  0.7818608E-02  0.1235067E+00
         -4   -1    0    0    0  501 -0.00000000000E+00  0.00000000000E+00  0.79037264707E+03  0.79037366741E+03  0.12700000000E+01 0. -1.
          4   -1    0    0  501    0  0.00000000000E+00 -0.00000000000E+00 -0.48597753158E+01  0.50229788095E+01  0.12700000000E+01 0. -1.
         25    2    1    2    0    0  0.00000000000E+00  0.00000000000E+00  0.78551287175E+03  0.79539664622E+03  0.12500141250E+03 0.  0.
    9000005    1    3    3    0    0 -0.30358025469E+02  0.18490618484E+02  0.65701349981E+02  0.74707295973E+02  0.10000000000E+01 0.  0.
    9000005    1    3    3    0    0  0.30358025469E+02 -0.18490618484E+02  0.71981152177E+03  0.72068935024E+03  0.10000000000E+01 0.  0.
<mgrwt>
<rscale>  0 0.12500141E+03</rscale>
<asrwt>0</asrwt>
<pdfrwt beam="2">  1        4 0.76028989E-03 0.12500141E+03</pdfrwt>
<pdfrwt beam="1">  1       -4 0.12160850E+00 0.12500141E+03</pdfrwt>
<totfact> 0.38469850E+03</totfact>
</mgrwt>
</event>
<event>
 5    1  0.3284464E-002  0.1250026E+03  0.7818608E-02  0.1235065E+00
          4   -1    0    0  501    0  0.00000000000E+00  0.00000000000E+00  0.65120236081E+02  0.65132618919E+02  0.12700000000E+01 0. -1.
         -4   -1    0    0    0  501 -0.00000000000E+00 -0.00000000000E+00 -0.59962857066E+02  0.59976304718E+02  0.12700000000E+01 0. -1.
         25    2    1    2    0    0  0.00000000000E+00  0.00000000000E+00  0.51573790144E+01  0.12510892364E+03  0.12500257683E+03 0.  0.
    9000005    1    3    3    0    0 -0.13533618036E+02 -0.10659792757E+02  0.62701595170E+02  0.65032915017E+02  0.10000000000E+01 0.  0.
    9000005    1    3    3    0    0  0.13533618036E+02  0.10659792757E+02 -0.57544216155E+02  0.60076008620E+02  0.10000000000E+01 0.  0.
<mgrwt>
<rscale>  0 0.12500258E+03</rscale>
<asrwt>0</asrwt>
<pdfrwt beam="1">  1        4 0.10020485E-01 0.12500258E+03</pdfrwt>
<pdfrwt beam="2">  1       -4 0.92270419E-02 0.12500258E+03</pdfrwt>
<totfact> 0.10449889E+04</totfact>
</mgrwt>
</event>
<event>
 5    1  0.3284464E-002  0.1249970E+03  0.7818608E-02  0.1235074E+00
          4   -1    0    0  501    0  0.00000000000E+00  0.00000000000E+00  0.19736459063E+03  0.19736867668E+03  0.12700000000E+01 0. -1.
         -4   -1    0    0    0  501 -0.00000000000E+00 -0.00000000000E+00 -0.19766431291E+02  0.19807188240E+02  0.12700000000E+01 0. -1.
         25    2    1    2    0    0  0.00000000000E+00  0.00000000000E+00  0.17759815933E+03  0.21717586492E+03  0.12499700037E+03 0.  0.
    9000005    1    3    3    0    0 -0.18042013360E+02 -0.17417621098E+02 -0.10648793235E+02  0.27263245738E+02  0.10000000000E+01 0.  0.
    9000005    1    3    3    0    0  0.18042013360E+02  0.17417621098E+02  0.18824695257E+03  0.18991261918E+03  0.10000000000E+01 0.  0.
<mgrwt>
<rscale>  0 0.12499700E+03</rscale>
<asrwt>0</asrwt>
<pdfrwt beam="1">  1        4 0.30367231E-01 0.12499700E+03</pdfrwt>
<pdfrwt beam="2">  1       -4 0.30444390E-02 0.12499700E+03</pdfrwt>
<totfact> 0.87323067E+03</totfact>
</mgrwt>
</event>
<event>
 4    1  0.3284464E-002  0.1217970E+03  0.7818608E-02  0.1240162E+00
         -4   -1    0    0    0  501 -0.00000000000E+00  0.00000000000E+00  0.39906580111E+02  0.39926783444E+02  0.12700000000E+01 0.  1.
          4   -1    0    0  501    0  0.00000000000E+00 -0.00000000000E+00 -0.92884689313E+02  0.92893371178E+02  0.12700000000E+01 0.  1.
    9000005    1    1    2    0    0 -0.29816924221E+02  0.31492431079E+02  0.20120350882E+02  0.47818936677E+02  0.10000000000E+01 0.  0.
    9000005    1    1    2    0    0  0.29816924221E+02 -0.31492431079E+02 -0.73098460084E+02  0.85001217944E+02  0.10000000000E+01 0.  0.
<mgrwt>
<rscale>  0 0.12179702E+03</rscale>
<asrwt>0</asrwt>
<pdfrwt beam="2">  1        4 0.14292174E-01 0.12179702E+03</pdfrwt>
<pdfrwt beam="1">  1       -4 0.61416958E-02 0.12179702E+03</pdfrwt>
<totfact> 0.11063972E+04</totfact>
</mgrwt>
</event>
<event>
 5    1  0.3284464E-002  0.1250008E+03  0.7818608E-02  0.1235068E+00
         -4   -1    0    0    0  501 -0.00000000000E+00  0.00000000000E+00  0.59134472286E+02  0.59148108275E+02  0.12700000000E+01 0.  1.
          4   -1    0    0  501    0  0.00000000000E+00 -0.00000000000E+00 -0.66030512266E+02  0.66042724430E+02  0.12700000000E+01 0.  1.
         25    2    1    2    0    0  0.00000000000E+00  0.00000000000E+00 -0.68960399806E+01  0.12519083271E+03  0.12500075690E+03 0.  0.
    9000005    1    3    3    0    0 -0.74539340638E+01  0.22651234375E+02 -0.61299665558E+02  0.65782129406E+02  0.10000000000E+01 0.  0.
    9000005    1    3    3    0    0  0.74539340638E+01 -0.22651234375E+02  0.54403625577E+02  0.59408703299E+02  0.10000000000E+01 0.  0.
<mgrwt>
<rscale>  0 0.12500076E+03</rscale>
<asrwt>0</asrwt>
<pdfrwt beam="2">  1        4 0.10160529E-01 0.12500076E+03</pdfrwt>
<pdfrwt beam="1">  1       -4 0.90995994E-02 0.12500076E+03</pdfrwt>
<totfact> 0.10448540E+04</totfact>
</mgrwt>
</event>
<event>
 5    1  0.3284464E-002  0.1249978E+03  0.7818608E-02  0.1235073E+00
         -4   -1    0    0    0  501 -0.00000000000E+00  0.00000000000E+00  0.11275260366E+02  0.11346558788E+02  0.12700000000E+01 0. -1.
          4   -1    0    0  501    0  0.00000000000E+00 -0.00000000000E+00 -0.34526796712E+03  0.34527030283E+03  0.12700000000E+01 0. -1.
         25    2    1    2    0    0  0.00000000000E+00  0.00000000000E+00 -0.33399270675E+03  0.35661686162E+03  0.12499783129E+03 0.  0.
    9000005    1    3    3    0    0  0.51976353188E+02  0.96153112573E+01 -0.71896537957E+02  0.89241849328E+02  0.10000000000E+01 0.  0.
    9000005    1    3    3    0    0 -0.51976353188E+02 -0.96153112573E+01 -0.26209616879E+03  0.26737501229E+03  0.10000000000E+01 0.  0.
<mgrwt>
<rscale>  0 0.12499783E+03</rscale>
<asrwt>0</asrwt>
<pdfrwt beam="2">  1        4 0.53123805E-01 0.12499783E+03</pdfrwt>
<pdfrwt beam="1">  1       -4 0.17403199E-02 0.12499783E+03</pdfrwt>
<totfact> 0.69006017E+03</totfact>
</mgrwt>
</event>
<event>
 5    1  0.3284464E-002  0.1249990E+03  0.7818608E-02  0.1235071E+00
          4   -1    0    0  501    0  0.00000000000E+00  0.00000000000E+00  0.12118554729E+03  0.12119220178E+03  0.12700000000E+01 0.  1.
         -4   -1    0    0    0  501 -0.00000000000E+00 -0.00000000000E+00 -0.32213036020E+02  0.32238061195E+02  0.12700000000E+01 0.  1.
         25    2    1    2    0    0  0.00000000000E+00  0.00000000000E+00  0.88972511268E+02  0.15343026297E+03  0.12499895133E+03 0.  0.
    9000005    1    3    3    0    0 -0.17333329188E+02  0.60010330984E+02  0.42189793236E+02  0.75383438360E+02  0.10000000000E+01 0.  0.
    9000005    1    3    3    0    0  0.17333329188E+02 -0.60010330984E+02  0.46782718032E+02  0.78046824612E+02  0.10000000000E+01 0.  0.
<mgrwt>
<rscale>  0 0.12499895E+03</rscale>
<asrwt>0</asrwt>
<pdfrwt beam="1">  1        4 0.18646367E-01 0.12499895E+03</pdfrwt>
<pdfrwt beam="2">  1       -4 0.49582886E-02 0.12499895E+03</pdfrwt>
<totfact> 0.98626596E+03</totfact>
</mgrwt>
</event>
<event>
 5    1  0.3284464E-002  0.1249921E+03  0.7818608E-02  0.1235082E+00
         -4   -1    0    0    0  501 -0.00000000000E+00  0.00000000000E+00  0.13341224680E+02  0.13401536329E+02  0.12700000000E+01 0. -1.
          4   -1    0    0  501    0  0.00000000000E+00 -0.00000000000E+00 -0.29203661313E+03  0.29203937459E+03  0.12700000000E+01 0. -1.
         25    2    1    2    0    0  0.00000000000E+00  0.00000000000E+00 -0.27869538845E+03  0.30544091092E+03  0.12499212182E+03 0.  0.
    9000005    1    3    3    0    0 -0.24147883106E+02 -0.37750437395E+02 -0.24576831321E+03  0.24982249611E+03  0.10000000000E+01 0.  0.
    9000005    1    3    3    0    0  0.24147883106E+02  0.37750437395E+02 -0.32927075237E+02  0.55618414807E+02  0.10000000000E+01 0.  0.
<mgrwt>
<rscale>  0 0.12499212E+03</rscale>
<asrwt>0</asrwt>
<pdfrwt beam="2">  1        4 0.44933557E-01 0.12499212E+03</pdfrwt>
<pdfrwt beam="1">  1       -4 0.20573481E-02 0.12499212E+03</pdfrwt>
<totfact> 0.74934472E+03</totfact>
</mgrwt>
</event>
<event>
 5    1  0.3284464E-002  0.1250041E+03  0.7818608E-02  0.1235063E+00
          4   -1    0    0  501    0  0.00000000000E+00  0.00000000000E+00  0.10726611293E+02  0.10801531828E+02  0.12700000000E+01 0. -1.
         -4   -1    0    0    0  501 -0.00000000000E+00 -0.00000000000E+00 -0.36284481496E+03  0.36284703753E+03  0.12700000000E+01 0. -1.
         25    2    1    2    0    0  0.00000000000E+00  0.00000000000E+00 -0.35211820366E+03  0.37364856935E+03  0.12500409605E+03 0.  0.
    9000005    1    3    3    0    0 -0.25074283992E+02  0.41706890681E+02 -0.29325743599E+03  0.29726942024E+03  0.10000000000E+01 0.  0.
    9000005    1    3    3    0    0  0.25074283992E+02 -0.41706890681E+02 -0.58860767678E+02  0.76379149115E+02  0.10000000000E+01 0.  0.
<mgrwt>
<rscale>  0 0.12500410E+03</rscale>
<asrwt>0</asrwt>
<pdfrwt beam="1">  1        4 0.16561823E-02 0.12500410E+03</pdfrwt>
<pdfrwt beam="2">  1       -4 0.55828204E-01 0.12500410E+03</pdfrwt>
<totfact> 0.67192869E+03</totfact>
</mgrwt>
</event>
<event>
 5    1  0.3284464E-002  0.1249991E+03  0.7818608E-02  0.1235071E+00
         -4   -1    0    0    0  501 -0.00000000000E+00  0.00000000000E+00  0.43014562876E+01  0.44850224296E+01  0.12700000000E+01 0. -1.
          4   -1    0    0  501    0  0.00000000000E+00 -0.00000000000E+00 -0.88895366113E+03  0.88895456832E+03  0.12700000000E+01 0. -1.
         25    2    1    2    0    0  0.00000000000E+00  0.00000000000E+00 -0.88465220484E+03  0.89343959075E+03  0.12499911514E+03 0.  0.
    9000005    1    3    3    0    0 -0.22021617238E+01 -0.60079840700E+02 -0.56420374143E+03  0.56739871221E+03  0.10000000000E+01 0.  0.
    9000005    1    3    3    0    0  0.22021617238E+01  0.60079840700E+02 -0.32044846342E+03  0.32604087854E+03  0.10000000000E+01 0.  0.
<mgrwt>
<rscale>  0 0.12499912E+03</rscale>
<asrwt>0</asrwt>
<pdfrwt beam="2">  1        4 0.13677615E+00 0.12499912E+03</pdfrwt>
<pdfrwt beam="1">  1       -4 0.67595347E-03 0.12499912E+03</pdfrwt>
<totfact> 0.34413069E+03</totfact>
</mgrwt>
</event>
<event>
 5    1  0.3284464E-002  0.1249989E+03  0.7818608E-02  0.1235071E+00
         -4   -1    0    0    0  501 -0.00000000000E+00  0.00000000000E+00  0.15887990154E+03  0.15888497730E+03  0.12700000000E+01 0.  1.
          4   -1    0    0  501    0  0.00000000000E+00 -0.00000000000E+00 -0.24563868076E+02  0.24596676906E+02  0.12700000000E+01 0.  1.
         25    2    1    2    0    0  0.00000000000E+00  0.00000000000E+00  0.13431603346E+03  0.18348165421E+03  0.12499888234E+03 0.  0.
    9000005    1    3    3    0    0  0.23889443910E+02  0.19979449859E+02  0.14668462914E+03  0.14995754190E+03  0.10000000000E+01 0.  0.
    9000005    1    3    3    0    0 -0.23889443910E+02 -0.19979449859E+02 -0.12368595679E+02  0.33524112308E+02  0.10000000000E+01 0.  0.
<mgrwt>
<rscale>  0 0.12499888E+03</rscale>
<asrwt>0</asrwt>
<pdfrwt beam="2">  1        4 0.37819708E-02 0.12499888E+03</pdfrwt>
<pdfrwt beam="1">  1       -4 0.24445976E-01 0.12499888E+03</pdfrwt>
<totfact> 0.92996351E+03</totfact>
</mgrwt>
</event>
<event>
 5    1  0.3284464E-002  0.1249948E+03  0.7818608E-02  0.1235077E+00
          4   -1    0    0  501    0  0.00000000000E+00  0.00000000000E+00  0.76857389624E+02  0.76867881718E+02  0.12700000000E+01 0. -1.
         -4   -1    0    0    0  501 -0.00000000000E+00 -0.00000000000E+00 -0.50798502193E+02  0.50814375181E+02  0.12700000000E+01 0. -1.
         25    2    1    2    0    0  0.00000000000E+00  0.00000000000E+00  0.26058887431E+02  0.12768225690E+03  0.12499477234E+03 0.  0.
    9000005    1    3    3    0    0 -0.39418733140E+02  0.17397213450E+02 -0.33203186211E+02  0.54405432934E+02  0.10000000000E+01 0.  0.
    9000005    1    3    3    0    0  0.39418733140E+02 -0.17397213450E+02  0.59262073642E+02  0.73276823966E+02  0.10000000000E+01 0.  0.
<mgrwt>
<rscale>  0 0.12499477E+03</rscale>
<asrwt>0</asrwt>
<pdfrwt beam="1">  1        4 0.11826242E-01 0.12499477E+03</pdfrwt>
<pdfrwt beam="2">  1       -4 0.78171823E-02 0.12499477E+03</pdfrwt>
<totfact> 0.10395582E+04</totfact>
</mgrwt>
</event>
<event>
 5    1  0.3284464E-002  0.1250030E+03  0.7818608E-02  0.1235065E+00
         -4   -1    0    0    0  501 -0.00000000000E+00  0.00000000000E+00  0.84828983896E+01  0.85774393083E+01  0.12700000000E+01 0.  1.
          4   -1    0    0  501    0  0.00000000000E+00 -0.00000000000E+00 -0.45785969986E+03  0.45786146121E+03  0.12700000000E+01 0.  1.
         25    2    1    2    0    0  0.00000000000E+00  0.00000000000E+00 -0.44937680147E+03  0.46643890052E+03  0.12500295281E+03 0.  0.
    9000005    1    3    3    0    0  0.12516737726E+02 -0.49954351126E+02 -0.35678966430E+03  0.36048851643E+03  0.10000000000E+01 0.  0.
    9000005    1    3    3    0    0 -0.12516737726E+02  0.49954351126E+02 -0.92587137169E+02  0.10595038409E+03  0.10000000000E+01 0.  0.
<mgrwt>
<rscale>  0 0.12500295E+03</rscale>
<asrwt>0</asrwt>
<pdfrwt beam="2">  1        4 0.70447343E-01 0.12500295E+03</pdfrwt>
<pdfrwt beam="1">  1       -4 0.13124695E-02 0.12500295E+03</pdfrwt>
<totfact> 0.58561887E+03</totfact>
</mgrwt>
</event>
<event>
 5    1  0.3284464E-002  0.1249952E+03  0.7818608E-02  0.1235077E+00
         -4   -1    0    0    0  501 -0.00000000000E+00  0.00000000000E+00  0.31595990323E+01  0.34052850167E+01  0.12700000000E+01 0.  1.
          4   -1    0    0  501    0  0.00000000000E+00 -0.00000000000E+00 -0.11897059460E+04  0.11897066239E+04  0.12700000000E+01 0.  1.
         25    2    1    2    0    0  0.00000000000E+00  0.00000000000E+00 -0.11865463470E+04  0.11931119089E+04  0.12499517428E+03 0.  0.
    9000005    1    3    3    0    0  0.76980866380E+01 -0.13959305876E+02 -0.11700176980E+04  0.11701267181E+04  0.10000000000E+01 0.  0.
    9000005    1    3    3    0    0 -0.76980866380E+01  0.13959305876E+02 -0.16528648956E+02  0.22985190770E+02  0.10000000000E+01 0.  0.
<mgrwt>
<rscale>  0 0.12499517E+03</rscale>
<asrwt>0</asrwt>
<pdfrwt beam="2">  1        4 0.18305029E+00 0.12499517E+03</pdfrwt>
<pdfrwt beam="1">  1       -4 0.50504417E-03 0.12499517E+03</pdfrwt>
<totfact> 0.24896437E+03</totfact>
</mgrwt>
</event>
<event>
 5    1  0.3284464E-002  0.1249995E+03  0.7818608E-02  0.1235070E+00
         -4   -1    0    0    0  501 -0.00000000000E+00  0.00000000000E+00  0.41200483160E+02  0.41220052312E+02  0.12700000000E+01 0. -1.
          4   -1    0    0  501    0  0.00000000000E+00 -0.00000000000E+00 -0.94763669926E+02  0.94772179661E+02  0.12700000000E+01 0. -1.
         25    2    1    2    0    0  0.00000000000E+00  0.00000000000E+00 -0.53563186766E+02  0.13599223197E+03  0.12499948872E+03 0.  0.
    9000005    1    3    3    0    0  0.23917371509E+01 -0.19211501954E+02 -0.91424190417E+02  0.93456860676E+02  0.10000000000E+01 0.  0.
    9000005    1    3    3    0    0 -0.23917371509E+01  0.19211501954E+02  0.37861003651E+02  0.42535371298E+02  0.10000000000E+01 0.  0.
<mgrwt>
<rscale>  0 0.12499949E+03</rscale>
<asrwt>0</asrwt>
<pdfrwt beam="2">  1        4 0.14581186E-01 0.12499949E+03</pdfrwt>
<pdfrwt beam="1">  1       -4 0.63406958E-02 0.12499949E+03</pdfrwt>
<totfact> 0.10217317E+04</totfact>
</mgrwt>
</event>
<event>
 5    1  0.3284464E-002  0.1250006E+03  0.7818608E-02  0.1235068E+00
         -4   -1    0    0    0  501 -0.00000000000E+00  0.00000000000E+00  0.11837185431E+04  0.11837192244E+04  0.12700000000E+01 0. -1.
          4   -1    0    0  501    0  0.00000000000E+00 -0.00000000000E+00 -0.31771157723E+01  0.34215441881E+01  0.12700000000E+01 0. -1.
         25    2    1    2    0    0  0.00000000000E+00  0.00000000000E+00  0.11805414273E+04  0.11871407686E+04  0.12500057108E+03 0.  0.
    9000005    1    3    3    0    0  0.29165960958E+02 -0.31507825194E+02  0.10215145510E+04  0.10224169278E+04  0.10000000000E+01 0.  0.
    9000005    1    3    3    0    0 -0.29165960958E+02  0.31507825194E+02  0.15902687627E+03  0.16472384072E+03  0.10000000000E+01 0.  0.
<mgrwt>
<rscale>  0 0.12500057E+03</rscale>
<asrwt>0</asrwt>
<pdfrwt beam="2">  1        4 0.50764230E-03 0.12500057E+03</pdfrwt>
<pdfrwt beam="1">  1       -4 0.18212916E+00 0.12500057E+03</pdfrwt>
<totfact> 0.25051569E+03</totfact>
</mgrwt>
</event>
<event>
 5    1  0.3284464E-002  0.1249979E+03  0.7818608E-02  0.1235073E+00
         -4   -1    0    0    0  501 -0.00000000000E+00  0.00000000000E+00  0.60498888406E+02  0.60512216935E+02  0.12700000000E+01 0.  1.
          4   -1    0    0  501    0  0.00000000000E+00 -0.00000000000E+00 -0.64538441245E+02  0.64550935689E+02  0.12700000000E+01 0.  1.
         25    2    1    2    0    0  0.00000000000E+00  0.00000000000E+00 -0.40395528387E+01  0.12506315262E+03  0.12499789661E+03 0.  0.
    9000005    1    3    3    0    0  0.41199199639E+02  0.23929477784E+02  0.38438007542E+02  0.61224785681E+02  0.10000000000E+01 0.  0.
    9000005    1    3    3    0    0 -0.41199199639E+02 -0.23929477784E+02 -0.42477560381E+02  0.63838366942E+02  0.10000000000E+01 0.  0.
<mgrwt>
<rscale>  0 0.12499790E+03</rscale>
<asrwt>0</asrwt>
<pdfrwt beam="2">  1        4 0.99309774E-02 0.12499790E+03</pdfrwt>
<pdfrwt beam="1">  1       -4 0.93095077E-02 0.12499790E+03</pdfrwt>
<totfact> 0.10451988E+04</totfact>
</mgrwt>
</event>
<event>
 5    1  0.3284464E-002  0.1250089E+03  0.7818608E-02  0.1235055E+00
          4   -1    0    0  501    0  0.00000000000E+00  0.00000000000E+00  0.20013902919E+03  0.20014305860E+03  0.12700000000E+01 0. -1.
         -4   -1    0    0    0  501 -0.00000000000E+00 -0.00000000000E+00 -0.19495573259E+02  0.19536895267E+02  0.12700000000E+01 0. -1.
         25    2    1    2    0    0  0.00000000000E+00  0.00000000000E+00  0.18064345593E+03  0.21967995386E+03  0.12500889552E+03 0.  0.
    9000005    1    3    3    0    0 -0.21307174296E+02  0.38437492052E+02  0.16840602939E+03  0.17404892188E+03  0.10000000000E+01 0.  0.
    9000005    1    3    3    0    0  0.21307174296E+02 -0.38437492052E+02  0.12237426538E+02  0.45631031985E+02  0.10000000000E+01 0.  0.
<mgrwt>
<rscale>  0 0.12500890E+03</rscale>
<asrwt>0</asrwt>
<pdfrwt beam="1">  1        4 0.30794109E-01 0.12500890E+03</pdfrwt>
<pdfrwt beam="2">  1       -4 0.30028075E-02 0.12500890E+03</pdfrwt>
<totfact> 0.86901748E+03</totfact>
</mgrwt>
</event>
<event>
 5    1  0.3284464E-002  0.1250026E+03  0.7818608E-02  0.1235065E+00
         -4   -1    0    0    0  501 -0.00000000000E+00  0.00000000000E+00  0.12561259810E+03  0.12561901807E+03  0.12700000000E+01 0. -1.
          4   -1    0    0  501    0  0.00000000000E+00 -0.00000000000E+00 -0.31078702749E+02  0.31104640563E+02  0.12700000000E+01 0. -1.
         25    2    1    2    0    0  0.00000000000E+00  0.00000000000E+00  0.94533895351E+02  0.15672365863E+03  0.12500259120E+03 0.  0.
    9000005    1    3    3    0    0  0.25755497200E+02  0.32242114455E+01 -0.24006718942E+02  0.35370379271E+02  0.10000000000E+01 0.  0.
    9000005    1    3    3    0    0 -0.25755497200E+02 -0.32242114455E+01  0.11854061429E+03  0.12135327936E+03  0.10000000000E+01 0.  0.
<mgrwt>
<rscale>  0 0.12500259E+03</rscale>
<asrwt>0</asrwt>
<pdfrwt beam="2">  1        4 0.47838281E-02 0.12500259E+03</pdfrwt>
<pdfrwt beam="1">  1       -4 0.19327504E-01 0.12500259E+03</pdfrwt>
<totfact> 0.97972474E+03</totfact>
</mgrwt>
</event>
<event>
 5    1  0.3284464E-002  0.1249998E+03  0.7818608E-02  0.1235070E+00
          4   -1    0    0  501    0  0.00000000000E+00  0.00000000000E+00  0.35081852898E+03  0.35082082774E+03  0.12700000000E+01 0.  1.
         -4   -1    0    0    0  501 -0.00000000000E+00 -0.00000000000E+00 -0.11096087083E+02  0.11168529382E+02  0.12700000000E+01 0.  1.
         25    2    1    2    0    0  0.00000000000E+00  0.00000000000E+00  0.33972244189E+03  0.36198935712E+03  0.12499982856E+03 0.  0.
    9000005    1    3    3    0    0  0.34806328656E+02 -0.28746116167E+02  0.44717997265E+02  0.63549342944E+02  0.10000000000E+01 0.  0.
    9000005    1    3    3    0    0 -0.34806328656E+02  0.28746116167E+02  0.29500444463E+03  0.29844001417E+03  0.10000000000E+01 0.  0.
<mgrwt>
<rscale>  0 0.12499983E+03</rscale>
<asrwt>0</asrwt>
<pdfrwt beam="1">  1        4 0.53977823E-01 0.12499983E+03</pdfrwt>
<pdfrwt beam="2">  1       -4 0.17128399E-02 0.12499983E+03</pdfrwt>
<totfact> 0.68425674E+03</totfact>
</mgrwt>
</event>
<event>
 5    1  0.3284464E-002  0.1250059E+03  0.7818608E-02  0.1235060E+00
         -4   -1    0    0    0  501 -0.00000000000E+00  0.00000000000E+00  0.11313372158E+02  0.11384431896E+02  0.12700000000E+01 0. -1.
          4   -1    0    0  501    0  0.00000000000E+00 -0.00000000000E+00 -0.34415655921E+03  0.34415890246E+03  0.12700000000E+01 0. -1.
         25    2    1    2    0    0  0.00000000000E+00  0.00000000000E+00 -0.33284318705E+03  0.35554333436E+03  0.12500590163E+03 0.  0.
    9000005    1    3    3    0    0  0.77567790974E+01 -0.35068123286E+02 -0.20958050539E+02  0.41595441760E+02  0.10000000000E+01 0.  0.
    9000005    1    3    3    0    0 -0.77567790974E+01  0.35068123286E+02 -0.31188513651E+03  0.31394789260E+03  0.10000000000E+01 0.  0.
<mgrwt>
<rscale>  0 0.12500590E+03</rscale>
<asrwt>0</asrwt>
<pdfrwt beam="2">  1        4 0.52952801E-01 0.12500590E+03</pdfrwt>
<pdfrwt beam="1">  1       -4 0.17461654E-02 0.12500590E+03</pdfrwt>
<totfact> 0.69109976E+03</totfact>
</mgrwt>
</event>
<event>
 5    1  0.3284464E-002  0.1249989E+03  0.7818608E-02  0.1235071E+00
         -4   -1    0    0    0  501 -0.00000000000E+00  0.00000000000E+00  0.21573432636E+03  0.21573806449E+03  0.12700000000E+01 0. -1.
          4   -1    0    0  501    0  0.00000000000E+00 -0.00000000000E+00 -0.18080271640E+02  0.18124820622E+02  0.12700000000E+01 0. -1.
         25    2    1    2    0    0  0.00000000000E+00  0.00000000000E+00  0.19765405472E+03  0.23386288512E+03  0.12499889474E+03 0.  0.
    9000005    1    3    3    0    0 -0.45948332136E+02  0.29643200541E+02  0.15542698001E+03  0.16476806329E+03  0.10000000000E+01 0.  0.
    9000005    1    3    3    0    0  0.45948332136E+02 -0.29643200541E+02  0.42227074709E+02  0.69094821824E+02  0.10000000000E+01 0.  0.
<mgrwt>
<rscale>  0 0.12499889E+03</rscale>
<asrwt>0</asrwt>
<pdfrwt beam="2">  1        4 0.27852951E-02 0.12499889E+03</pdfrwt>
<pdfrwt beam="1">  1       -4 0.33193606E-01 0.12499889E+03</pdfrwt>
<totfact> 0.84722048E+03</totfact>
</mgrwt>
</event>
<event>
 5    1  0.3284464E-002  0.1249985E+03  0.7818608E-02  0.1235072E+00
         -4   -1    0    0    0  501 -0.00000000000E+00  0.00000000000E+00  0.36649021469E+03  0.36649241515E+03  0.12700000000E+01 0.  1.
          4   -1    0    0  501    0  0.00000000000E+00 -0.00000000000E+00 -0.10618209497E+02  0.10693889514E+02  0.12700000000E+01 0.  1.
         25    2    1    2    0    0  0.00000000000E+00  0.00000000000E+00  0.35587200519E+03  0.37718630466E+03  0.12499849738E+03 0.  0.
    9000005    1    3    3    0    0 -0.39609187623E+02 -0.36324562911E+02  0.81715480001E+02  0.97809924275E+02  0.10000000000E+01 0.  0.
    9000005    1    3    3    0    0  0.39609187623E+02  0.36324562911E+02  0.27415652519E+03  0.27937638039E+03  0.10000000000E+01 0.  0.
<mgrwt>
<rscale>  0 0.12499850E+03</rscale>
<asrwt>0</asrwt>
<pdfrwt beam="2">  1        4 0.16395615E-02 0.12499850E+03</pdfrwt>
<pdfrwt beam="1">  1       -4 0.56389100E-01 0.12499850E+03</pdfrwt>
<totfact> 0.66835975E+03</totfact>
</mgrwt>
</event>
<event>
 5    1  0.3284464E-002  0.1250025E+03  0.7818608E-02  0.1235065E+00
          4   -1    0    0  501    0  0.00000000000E+00  0.00000000000E+00  0.92883542586E+02  0.92892224558E+02  0.12700000000E+01 0.  1.
         -4   -1    0    0    0  501 -0.00000000000E+00 -0.00000000000E+00 -0.42036810032E+02  0.42055990033E+02  0.12700000000E+01 0.  1.
         25    2    1    2    0    0  0.00000000000E+00  0.00000000000E+00  0.50846732554E+02  0.13494821459E+03  0.12500252161E+03 0.  0.
    9000005    1    3    3    0    0 -0.32313813199E+02 -0.48725851859E+02  0.49247667960E+02  0.76450794387E+02  0.10000000000E+01 0.  0.
    9000005    1    3    3    0    0  0.32313813199E+02  0.48725851859E+02  0.15990645943E+01  0.58497420204E+02  0.10000000000E+01 0.  0.
<mgrwt>
<rscale>  0 0.12500252E+03</rscale>
<asrwt>0</asrwt>
<pdfrwt beam="1">  1        4 0.14291919E-01 0.12500252E+03</pdfrwt>
<pdfrwt beam="2">  1       -4 0.64693449E-02 0.12500252E+03</pdfrwt>
<totfact> 0.10238580E+04</totfact>
</mgrwt>
</event>
<event>
 5    1  0.3284464E-002  0.1249973E+03  0.7818608E-02  0.1235074E+00
          4   -1    0    0  501    0  0.00000000000E+00  0.00000000000E+00  0.23093686845E+02  0.23128581281E+02  0.12700000000E+01 0. -1.
         -4   -1    0    0    0  501 -0.00000000000E+00 -0.00000000000E+00 -0.16897557918E+03  0.16898035169E+03  0.12700000000E+01 0. -1.
         25    2    1    2    0    0  0.00000000000E+00  0.00000000000E+00 -0.14588189233E+03  0.19210893297E+03  0.12499726244E+03 0.  0.
    9000005    1    3    3    0    0 -0.47558236466E+02  0.40478397064E+02 -0.69576415523E+02  0.93499540543E+02  0.10000000000E+01 0.  0.
    9000005    1    3    3    0    0  0.47558236466E+02 -0.40478397064E+02 -0.76305476808E+02  0.98609392431E+02  0.10000000000E+01 0.  0.
<mgrwt>
<rscale>  0 0.12499726E+03</rscale>
<asrwt>0</asrwt>
<pdfrwt beam="1">  1        4 0.35559263E-02 0.12499726E+03</pdfrwt>
<pdfrwt beam="2">  1       -4 0.25999293E-01 0.12499726E+03</pdfrwt>
<totfact> 0.91487266E+03</totfact>
</mgrwt>
</event>
<event>
 5    1  0.3284464E-002  0.1249900E+03  0.7818608E-02  0.1235085E+00
         -4   -1    0    0    0  501 -0.00000000000E+00  0.00000000000E+00  0.41587123682E+03  0.41587317600E+03  0.12700000000E+01 0.  1.
          4   -1    0    0  501    0  0.00000000000E+00 -0.00000000000E+00 -0.93465241467E+01  0.94324129270E+01  0.12700000000E+01 0.  1.
         25    2    1    2    0    0  0.00000000000E+00  0.00000000000E+00  0.40652471267E+03  0.42530558892E+03  0.12499000743E+03 0.  0.
    9000005    1    3    3    0    0  0.20813357875E+02 -0.36303283885E+02  0.36116825558E+03  0.36358579885E+03  0.10000000000E+01 0.  0.
    9000005    1    3    3    0    0 -0.20813357875E+02  0.36303283885E+02  0.45356457097E+02  0.61719790078E+02  0.10000000000E+01 0.  0.
<mgrwt>
<rscale>  0 0.12499001E+03</rscale>
<asrwt>0</asrwt>
<pdfrwt beam="2">  1        4 0.14446824E-02 0.12499001E+03</pdfrwt>
<pdfrwt beam="1">  1       -4 0.63986962E-01 0.12499001E+03</pdfrwt>
<totfact> 0.62177518E+03</totfact>
</mgrwt>
</event>
<event>
 5    1  0.3284464E-002  0.1249998E+03  0.7818608E-02  0.1235070E+00
          4   -1    0    0  501    0  0.00000000000E+00  0.00000000000E+00  0.34261821071E+03  0.34262056449E+03  0.12700000000E+01 0. -1.
         -4   -1    0    0    0  501 -0.00000000000E+00 -0.00000000000E+00 -0.11363375834E+02  0.11434124817E+02  0.12700000000E+01 0. -1.
         25    2    1    2    0    0  0.00000000000E+00  0.00000000000E+00  0.33125483487E+03  0.35405468930E+03  0.12499982956E+03 0.  0.
    9000005    1    3    3    0    0 -0.37031647226E+02 -0.39801056802E+02  0.25291866213E+03  0.25869734570E+03  0.10000000000E+01 0.  0.
    9000005    1    3    3    0    0  0.37031647226E+02  0.39801056802E+02  0.78336172744E+02  0.95357343603E+02  0.10000000000E+01 0.  0.
<mgrwt>
<rscale>  0 0.12499983E+03</rscale>
<asrwt>0</asrwt>
<pdfrwt beam="1">  1        4 0.52716115E-01 0.12499983E+03</pdfrwt>
<pdfrwt beam="2">  1       -4 0.17538350E-02 0.12499983E+03</pdfrwt>
<totfact> 0.69281043E+03</totfact>
</mgrwt>
</event>
<event>
 5    1  0.3284464E-002  0.1249992E+03  0.7818608E-02  0.1235071E+00
         -4   -1    0    0    0  501 -0.00000000000E+00  0.00000000000E+00  0.58517157552E+02  0.58530937357E+02  0.12700000000E+01 0.  1.
          4   -1    0    0  501    0  0.00000000000E+00 -0.00000000000E+00 -0.66725356733E+02  0.66737441749E+02  0.12700000000E+01 0.  1.
         25    2    1    2    0    0  0.00000000000E+00  0.00000000000E+00 -0.82081991812E+01  0.12526837911E+03  0.12499916908E+03 0.  0.
    9000005    1    3    3    0    0  0.36910508572E+02 -0.19339948852E+02 -0.50774546735E+02  0.65692266370E+02  0.10000000000E+01 0.  0.
    9000005    1    3    3    0    0 -0.36910508572E+02  0.19339948852E+02  0.42566347554E+02  0.59576112736E+02  0.10000000000E+01 0.  0.
<mgrwt>
<rscale>  0 0.12499917E+03</rscale>
<asrwt>0</asrwt>
<pdfrwt beam="2">  1        4 0.10267429E-01 0.12499917E+03</pdfrwt>
<pdfrwt beam="1">  1       -4 0.90046292E-02 0.12499917E+03</pdfrwt>
<totfact> 0.10447232E+04</totfact>
</mgrwt>
</event>
<event>
 5    1  0.3284464E-002  0.1250032E+03  0.7818608E-02  0.1235064E+00
          4   -1    0    0  501    0  0.00000000000E+00  0.00000000000E+00  0.23886436195E+03  0.23886773811E+03  0.12700000000E+01 0.  1.
         -4   -1    0    0    0  501 -0.00000000000E+00 -0.00000000000E+00 -0.16326120290E+02  0.16375442093E+02  0.12700000000E+01 0.  1.
         25    2    1    2    0    0  0.00000000000E+00  0.00000000000E+00  0.22253824166E+03  0.25524318020E+03  0.12500324811E+03 0.  0.
    9000005    1    3    3    0    0 -0.89791595645E+00  0.41265912567E+02  0.15457332999E+02  0.44086403080E+02  0.10000000000E+01 0.  0.
    9000005    1    3    3    0    0  0.89791595645E+00 -0.41265912567E+02  0.20708090866E+03  0.21115677712E+03  0.10000000000E+01 0.  0.
<mgrwt>
<rscale>  0 0.12500325E+03</rscale>
<asrwt>0</asrwt>
<pdfrwt beam="1">  1        4 0.36752417E-01 0.12500325E+03</pdfrwt>
<pdfrwt beam="2">  1       -4 0.25157645E-02 0.12500325E+03</pdfrwt>
<totfact> 0.81572381E+03</totfact>
</mgrwt>
</event>
<event>
 5    1  0.3284464E-002  0.1249992E+03  0.7818608E-02  0.1235070E+00
         -4   -1    0    0    0  501 -0.00000000000E+00  0.00000000000E+00  0.22133060590E+02  0.22169467091E+02  0.12700000000E+01 0. -1.
          4   -1    0    0  501    0  0.00000000000E+00 -0.00000000000E+00 -0.17630346063E+03  0.17630803479E+03  0.12700000000E+01 0. -1.
         25    2    1    2    0    0  0.00000000000E+00  0.00000000000E+00 -0.15417040004E+03  0.19847750188E+03  0.12499922601E+03 0.  0.
    9000005    1    3    3    0    0  0.33891829094E+02 -0.57789620240E+01  0.57737975990E+01  0.34876771929E+02  0.10000000000E+01 0.  0.
    9000005    1    3    3    0    0 -0.33891829094E+02  0.57789620240E+01 -0.15994419764E+03  0.16360072995E+03  0.10000000000E+01 0.  0.
<mgrwt>
<rscale>  0 0.12499923E+03</rscale>
<asrwt>0</asrwt>
<pdfrwt beam="2">  1        4 0.27126761E-01 0.12499923E+03</pdfrwt>
<pdfrwt beam="1">  1       -4 0.34082387E-02 0.12499923E+03</pdfrwt>
<totfact> 0.90394388E+03</totfact>
</mgrwt>
</event>
<event>
 5    1  0.3284464E-002  0.1249983E+03  0.7818608E-02  0.1235072E+00
         -4   -1    0    0    0  501 -0.00000000000E+00  0.00000000000E+00  0.11977362850E+02  0.12044505836E+02  0.12700000000E+01 0. -1.
          4   -1    0    0  501    0  0.00000000000E+00 -0.00000000000E+00 -0.32514710034E+03  0.32514958059E+03  0.12700000000E+01 0. -1.
         25    2    1    2    0    0  0.00000000000E+00  0.00000000000E+00 -0.31316973749E+03  0.33719408643E+03  0.12499826976E+03 0.  0.
    9000005    1    3    3    0    0  0.50193962549E+02 -0.37201200199E+02 -0.15298716117E+03  0.16525566452E+03  0.10000000000E+01 0.  0.
    9000005    1    3    3    0    0 -0.50193962549E+02  0.37201200199E+02 -0.16018257632E+03  0.17193842191E+03  0.10000000000E+01 0.  0.
<mgrwt>
<rscale>  0 0.12499827E+03</rscale>
<asrwt>0</asrwt>
<pdfrwt beam="2">  1        4 0.50027980E-01 0.12499827E+03</pdfrwt>
<pdfrwt beam="1">  1       -4 0.18480271E-02 0.12499827E+03</pdfrwt>
<totfact> 0.71159455E+03</totfact>
</mgrwt>
</event>
<event>
 5    1  0.3284464E-002  0.1250015E+03  0.7818608E-02  0.1235067E+00
          4   -1    0    0  501    0  0.00000000000E+00  0.00000000000E+00  0.10146081526E+02  0.10225256492E+02  0.12700000000E+01 0. -1.
         -4   -1    0    0    0  501 -0.00000000000E+00 -0.00000000000E+00 -0.38343376138E+03  0.38343586460E+03  0.12700000000E+01 0. -1.
         25    2    1    2    0    0  0.00000000000E+00  0.00000000000E+00 -0.37328767985E+03  0.39366112109E+03  0.12500154532E+03 0.  0.
    9000005    1    3    3    0    0 -0.61721219653E+02 -0.52859565163E+01 -0.21259341019E+03  0.22143714311E+03  0.10000000000E+01 0.  0.
    9000005    1    3    3    0    0  0.61721219653E+02  0.52859565163E+01 -0.16069426966E+03  0.17222397798E+03  0.10000000000E+01 0.  0.
<mgrwt>
<rscale>  0 0.12500155E+03</rscale>
<asrwt>0</asrwt>
<pdfrwt beam="1">  1        4 0.15671881E-02 0.12500155E+03</pdfrwt>
<pdfrwt beam="2">  1       -4 0.58996050E-01 0.12500155E+03</pdfrwt>
<totfact> 0.65171786E+03</totfact>
</mgrwt>
</event>
<event>
 5    1  0.3284464E-002  0.1249876E+03  0.7818608E-02  0.1235089E+00
         -4   -1    0    0    0  501 -0.00000000000E+00  0.00000000000E+00  0.11039686469E+03  0.11040416946E+03  0.12700000000E+01 0. -1.
          4   -1    0    0  501    0  0.00000000000E+00 -0.00000000000E+00 -0.35356813010E+02  0.35379614558E+02  0.12700000000E+01 0. -1.
         25    2    1    2    0    0  0.00000000000E+00  0.00000000000E+00  0.75040051681E+02  0.14578378402E+03  0.12498760869E+03 0.  0.
    9000005    1    3    3    0    0 -0.33223945724E+02 -0.36397589760E+02  0.82328990587E+02  0.95956645424E+02  0.10000000000E+01 0.  0.
    9000005    1    3    3    0    0  0.33223945724E+02  0.36397589760E+02 -0.72889389066E+01  0.49827138592E+02  0.10000000000E+01 0.  0.
<mgrwt>
<rscale>  0 0.12498761E+03</rscale>
<asrwt>0</asrwt>
<pdfrwt beam="2">  1        4 0.54418255E-02 0.12498761E+03</pdfrwt>
<pdfrwt beam="1">  1       -4 0.16986449E-01 0.12498761E+03</pdfrwt>
<totfact> 0.10017883E+04</totfact>
</mgrwt>
</event>
<event>
 5    1  0.3284464E-002  0.1249937E+03  0.7818608E-02  0.1235079E+00
         -4   -1    0    0    0  501 -0.00000000000E+00  0.00000000000E+00  0.65267547282E+01  0.66491674127E+01  0.12700000000E+01 0.  1.
          4   -1    0    0  501    0  0.00000000000E+00 -0.00000000000E+00 -0.59275442291E+03  0.59275578342E+03  0.12700000000E+01 0.  1.
         25    2    1    2    0    0  0.00000000000E+00  0.00000000000E+00 -0.58622766818E+03  0.59940495084E+03  0.12499366441E+03 0.  0.
    9000005    1    3    3    0    0 -0.41545876184E+02  0.16776923571E+02 -0.84230566447E+02  0.95411285058E+02  0.10000000000E+01 0.  0.
    9000005    1    3    3    0    0  0.41545876184E+02 -0.16776923571E+02 -0.50199710174E+03  0.50399366578E+03  0.10000000000E+01 0.  0.
<mgrwt>
<rscale>  0 0.12499366E+03</rscale>
<asrwt>0</asrwt>
<pdfrwt beam="2">  1        4 0.91202467E-01 0.12499366E+03</pdfrwt>
<pdfrwt beam="1">  1       -4 0.10136376E-02 0.12499366E+03</pdfrwt>
<totfact> 0.48912005E+03</totfact>
</mgrwt>
</event>
<event>
 5    1  0.3284464E-002  0.1250001E+03  0.7818608E-02  0.1235069E+00
          4   -1    0    0  501    0  0.00000000000E+00  0.00000000000E+00  0.14461882472E+04  0.14461888048E+04  0.12700000000E+01 0. -1.
         -4   -1    0    0    0  501 -0.00000000000E+00 -0.00000000000E+00 -0.25511978372E+01  0.28498263814E+01  0.12700000000E+01 0. -1.
         25    2    1    2    0    0  0.00000000000E+00  0.00000000000E+00  0.14436370493E+04  0.14490386312E+04  0.12500009789E+03 0.  0.
    9000005    1    3    3    0    0  0.18351825360E+02 -0.21860168024E+02  0.77365912641E+02  0.82469029817E+02  0.10000000000E+01 0.  0.
    9000005    1    3    3    0    0 -0.18351825360E+02  0.21860168024E+02  0.13662711367E+04  0.13665696014E+04  0.10000000000E+01 0.  0.
<mgrwt>
<rscale>  0 0.12500010E+03</rscale>
<asrwt>0</asrwt>
<pdfrwt beam="1">  1        4 0.22251355E+00 0.12500010E+03</pdfrwt>
<pdfrwt beam="2">  1       -4 0.41550623E-03 0.12500010E+03</pdfrwt>
<totfact> 0.18952385E+03</totfact>
</mgrwt>
</event>
<event>
 5    1  0.3284464E-002  0.1250095E+03  0.7818608E-02  0.1235054E+00
          4   -1    0    0  501    0  0.00000000000E+00  0.00000000000E+00  0.90740072938E+01  0.91624510022E+01  0.12700000000E+01 0.  1.
         -4   -1    0    0    0  501 -0.00000000000E+00 -0.00000000000E+00 -0.42837563215E+03  0.42837751473E+03  0.12700000000E+01 0.  1.
         25    2    1    2    0    0  0.00000000000E+00  0.00000000000E+00 -0.41930162486E+03  0.43753996573E+03  0.12500947564E+03 0.  0.
    9000005    1    3    3    0    0 -0.10253201937E+02  0.48305439058E+01  0.54639078256E+01  0.12622067703E+02  0.10000000000E+01 0.  0.
    9000005    1    3    3    0    0  0.10253201937E+02 -0.48305439058E+01 -0.42476553269E+03  0.42491789803E+03  0.10000000000E+01 0.  0.
<mgrwt>
<rscale>  0 0.12500948E+03</rscale>
<asrwt>0</asrwt>
<pdfrwt beam="1">  1        4 0.14029496E-02 0.12500948E+03</pdfrwt>
<pdfrwt beam="2">  1       -4 0.65910876E-01 0.12500948E+03</pdfrwt>
<totfact> 0.61045692E+03</totfact>
</mgrwt>
</event>
<event>
 5    1  0.3284464E-002  0.1249759E+03  0.7818608E-02  0.1235107E+00
          4   -1    0    0  501    0  0.00000000000E+00  0.00000000000E+00  0.11021489434E+02  0.11094418838E+02  0.12700000000E+01 0.  1.
         -4   -1    0    0    0  501 -0.00000000000E+00 -0.00000000000E+00 -0.35304223670E+03  0.35304452098E+03  0.12700000000E+01 0.  1.
         25    2    1    2    0    0  0.00000000000E+00  0.00000000000E+00 -0.34202074727E+03  0.36413893982E+03  0.12497590140E+03 0.  0.
    9000005    1    3    3    0    0 -0.40918303165E+02  0.29276588945E+02 -0.27894683903E+03  0.28344975780E+03  0.10000000000E+01 0.  0.
    9000005    1    3    3    0    0  0.40918303165E+02 -0.29276588945E+02 -0.63073908237E+02  0.80689182016E+02  0.10000000000E+01 0.  0.
<mgrwt>
<rscale>  0 0.12497590E+03</rscale>
<asrwt>0</asrwt>
<pdfrwt beam="1">  1        4 0.17013997E-02 0.12497590E+03</pdfrwt>
<pdfrwt beam="2">  1       -4 0.54319967E-01 0.12497590E+03</pdfrwt>
<totfact> 0.68232964E+03</totfact>
</mgrwt>
</event>
<event>
 5    1  0.3284464E-002  0.1249995E+03  0.7818608E-02  0.1235070E+00
          4   -1    0    0  501    0  0.00000000000E+00  0.00000000000E+00  0.95672329360E+01  0.96511577571E+01  0.12700000000E+01 0. -1.
         -4   -1    0    0    0  501 -0.00000000000E+00 -0.00000000000E+00 -0.40642356571E+03  0.40642554997E+03  0.12700000000E+01 0. -1.
         25    2    1    2    0    0  0.00000000000E+00  0.00000000000E+00 -0.39685633278E+03  0.41607670772E+03  0.12499951138E+03 0.  0.
    9000005    1    3    3    0    0 -0.56231172089E+02  0.23133460693E+02 -0.24644788857E+03  0.25383983828E+03  0.10000000000E+01 0.  0.
    9000005    1    3    3    0    0  0.56231172089E+02 -0.23133460693E+02 -0.15040844420E+03  0.16223686944E+03  0.10000000000E+01 0.  0.
<mgrwt>
<rscale>  0 0.12499951E+03</rscale>
<asrwt>0</asrwt>
<pdfrwt beam="1">  1        4 0.14784907E-02 0.12499951E+03</pdfrwt>
<pdfrwt beam="2">  1       -4 0.62533297E-01 0.12499951E+03</pdfrwt>
<totfact> 0.63019341E+03</totfact>
</mgrwt>
</event>
<event>
 5    1  0.3284464E-002  0.1249996E+03  0.7818608E-02  0.1235070E+00
          4   -1    0    0  501    0  0.00000000000E+00  0.00000000000E+00  0.73857717415E+01  0.74941660121E+01  0.12700000000E+01 0.  1.
         -4   -1    0    0    0  501 -0.00000000000E+00 -0.00000000000E+00 -0.52492319478E+03  0.52492473109E+03  0.12700000000E+01 0.  1.
         25    2    1    2    0    0  0.00000000000E+00  0.00000000000E+00 -0.51753742304E+03  0.53241889711E+03  0.12499959102E+03 0.  0.
    9000005    1    3    3    0    0 -0.97081528837E+00 -0.60225082589E+02 -0.18785042521E+03  0.19727337708E+03  0.10000000000E+01 0.  0.
    9000005    1    3    3    0    0  0.97081528837E+00  0.60225082589E+02 -0.32968699783E+03  0.33514552002E+03  0.10000000000E+01 0.  0.
<mgrwt>
<rscale>  0 0.12499959E+03</rscale>
<asrwt>0</asrwt>
<pdfrwt beam="1">  1        4 0.11447292E-02 0.12499959E+03</pdfrwt>
<pdfrwt beam="2">  1       -4 0.80765842E-01 0.12499959E+03</pdfrwt>
<totfact> 0.53434455E+03</totfact>
</mgrwt>
</event>
<event>
 5    1  0.3284464E-002  0.1250044E+03  0.7818608E-02  0.1235062E+00
         -4   -1    0    0    0  501 -0.00000000000E+00  0.00000000000E+00  0.47717739697E+03  0.47717908700E+03  0.12700000000E+01 0.  1.
          4   -1    0    0  501    0  0.00000000000E+00 -0.00000000000E+00 -0.81357677784E+01  0.82342951942E+01  0.12700000000E+01 0.  1.
         25    2    1    2    0    0  0.00000000000E+00  0.00000000000E+00  0.46904162919E+03  0.48541338220E+03  0.12500440675E+03 0.  0.
    9000005    1    3    3    0    0 -0.24539184262E+02  0.47154081806E+02  0.10691589433E+03  0.11940555873E+03  0.10000000000E+01 0.  0.
    9000005    1    3    3    0    0  0.24539184262E+02 -0.47154081806E+02  0.36212573485E+03  0.36600782347E+03  0.10000000000E+01 0.  0.
<mgrwt>
<rscale>  0 0.12500441E+03</rscale>
<asrwt>0</asrwt>
<pdfrwt beam="2">  1        4 0.12593656E-02 0.12500441E+03</pdfrwt>
<pdfrwt beam="1">  1       -4 0.73419616E-01 0.12500441E+03</pdfrwt>
<totfact> 0.57008611E+03</totfact>
</mgrwt>
</event>
<event>
 5    1  0.3284464E-002  0.1249985E+03  0.7818608E-02  0.1235072E+00
         -4   -1    0    0    0  501 -0.00000000000E+00  0.00000000000E+00  0.95870502607E+01  0.96708031053E+01  0.12700000000E+01 0.  1.
          4   -1    0    0  501    0  0.00000000000E+00 -0.00000000000E+00 -0.40558442280E+03  0.40558641116E+03  0.12700000000E+01 0.  1.
         25    2    1    2    0    0  0.00000000000E+00  0.00000000000E+00 -0.39599737254E+03  0.41525721427E+03  0.12499853976E+03 0.  0.
    9000005    1    3    3    0    0  0.48925080765E+02 -0.69642956197E+00 -0.68863098475E+02  0.84482393867E+02  0.10000000000E+01 0.  0.
    9000005    1    3    3    0    0 -0.48925080765E+02  0.69642956197E+00 -0.32713427407E+03  0.33077482040E+03  0.10000000000E+01 0.  0.
<mgrwt>
<rscale>  0 0.12499854E+03</rscale>
<asrwt>0</asrwt>
<pdfrwt beam="2">  1        4 0.62404186E-01 0.12499854E+03</pdfrwt>
<pdfrwt beam="1">  1       -4 0.14815266E-02 0.12499854E+03</pdfrwt>
<totfact> 0.63097495E+03</totfact>
</mgrwt>
</event>
<event>
 5    1  0.3284464E-002  0.1249933E+03  0.7818608E-02  0.1235080E+00
         -4   -1    0    0    0  501 -0.00000000000E+00  0.00000000000E+00  0.30624510530E+02  0.30650832700E+02  0.12700000000E+01 0.  1.
          4   -1    0    0  501    0  0.00000000000E+00 -0.00000000000E+00 -0.12745515338E+03  0.12746148055E+03  0.12700000000E+01 0.  1.
         25    2    1    2    0    0  0.00000000000E+00  0.00000000000E+00 -0.96830642852E+02  0.15811231325E+03  0.12499332064E+03 0.  0.
    9000005    1    3    3    0    0 -0.48842274901E+02  0.37397231538E+02 -0.34517274855E+02  0.70544758896E+02  0.10000000000E+01 0.  0.
    9000005    1    3    3    0    0  0.48842274901E+02 -0.37397231538E+02 -0.62313367997E+02  0.87567554353E+02  0.10000000000E+01 0.  0.
<mgrwt>
<rscale>  0 0.12499332E+03</rscale>
<asrwt>0</asrwt>
<pdfrwt beam="2">  1        4 0.19610996E-01 0.12499332E+03</pdfrwt>
<pdfrwt beam="1">  1       -4 0.47139747E-02 0.12499332E+03</pdfrwt>
<totfact> 0.97722629E+03</totfact>
</mgrwt>
</event>
<event>
 5    1  0.3284464E-002  0.1249995E+03  0.7818608E-02  0.1235070E+00
         -4   -1    0    0    0  501 -0.00000000000E+00  0.00000000000E+00  0.88902736839E+01  0.89805270544E+01  0.12700000000E+01 0.  1.
          4   -1    0    0  501    0  0.00000000000E+00 -0.00000000000E+00 -0.43707103979E+03  0.43707288491E+03  0.12700000000E+01 0.  1.
         25    2    1    2    0    0  0.00000000000E+00  0.00000000000E+00 -0.42818076611E+03  0.44605341197E+03  0.12499951144E+03 0.  0.
    9000005    1    3    3    0    0  0.12598570226E+02 -0.60810092263E+02 -0.23897451669E+03  0.24691377224E+03  0.10000000000E+01 0.  0.
    9000005    1    3    3    0    0 -0.12598570226E+02  0.60810092263E+02 -0.18920624941E+03  0.19913963973E+03  0.10000000000E+01 0.  0.
<mgrwt>
<rscale>  0 0.12499951E+03</rscale>
<asrwt>0</asrwt>
<pdfrwt beam="2">  1        4 0.67248766E-01 0.12499951E+03</pdfrwt>
<pdfrwt beam="1">  1       -4 0.13748193E-02 0.12499951E+03</pdfrwt>
<totfact> 0.60307875E+03</totfact>
</mgrwt>
</event>
<event>
 5    1  0.3284464E-002  0.1250028E+03  0.7818608E-02  0.1235065E+00
         -4   -1    0    0    0  501 -0.00000000000E+00  0.00000000000E+00  0.16324729136E+02  0.16374055129E+02  0.12700000000E+01 0.  1.
          4   -1    0    0  501    0  0.00000000000E+00 -0.00000000000E+00 -0.23888280345E+03  0.23888617935E+03  0.12700000000E+01 0.  1.
         25    2    1    2    0    0  0.00000000000E+00  0.00000000000E+00 -0.22255807431E+03  0.25526023448E+03  0.12500276342E+03 0.  0.
    9000005    1    3    3    0    0 -0.44494822492E+02 -0.31027203958E+01 -0.20066350352E+03  0.20556326945E+03  0.10000000000E+01 0.  0.
    9000005    1    3    3    0    0  0.44494822492E+02  0.31027203958E+01 -0.21894570790E+02  0.49696965024E+02  0.10000000000E+01 0.  0.
<mgrwt>
<rscale>  0 0.12500276E+03</rscale>
<asrwt>0</asrwt>
<pdfrwt beam="2">  1        4 0.36755252E-01 0.12500276E+03</pdfrwt>
<pdfrwt beam="1">  1       -4 0.25155510E-02 0.12500276E+03</pdfrwt>
<totfact> 0.81570837E+03</totfact>
</mgrwt>
</event>
<event>
 5    1  0.3284464E-002  0.1250015E+03  0.7818608E-02  0.1235067E+00
         -4   -1    0    0    0  501 -0.00000000000E+00  0.00000000000E+00  0.15368975120E+02  0.15421358443E+02  0.12700000000E+01 0. -1.
          4   -1    0    0  501    0  0.00000000000E+00 -0.00000000000E+00 -0.25368442421E+03  0.25368760314E+03  0.12700000000E+01 0. -1.
         25    2    1    2    0    0  0.00000000000E+00  0.00000000000E+00 -0.23831544909E+03  0.26910896159E+03  0.12500151971E+03 0.  0.
    9000005    1    3    3    0    0 -0.47751942497E+02  0.91351522563E+01 -0.20368661970E+03  0.20941093110E+03  0.10000000000E+01 0.  0.
    9000005    1    3    3    0    0  0.47751942497E+02 -0.91351522563E+01 -0.34628829395E+02  0.59698030489E+02  0.10000000000E+01 0.  0.
<mgrwt>
<rscale>  0 0.12500152E+03</rscale>
<asrwt>0</asrwt>
<pdfrwt beam="2">  1        4 0.39032644E-01 0.12500152E+03</pdfrwt>
<pdfrwt beam="1">  1       -4 0.23687319E-02 0.12500152E+03</pdfrwt>
<totfact> 0.79641810E+03</totfact>
</mgrwt>
</event>
<event>
 5    1  0.3284464E-002  0.1249864E+03  0.7818608E-02  0.1235091E+00
         -4   -1    0    0    0  501 -0.00000000000E+00  0.00000000000E+00  0.16924225920E+02  0.16971809655E+02  0.12700000000E+01 0.  1.
          4   -1    0    0  501    0  0.00000000000E+00 -0.00000000000E+00 -0.23038471392E+03  0.23038821434E+03  0.12700000000E+01 0.  1.
         25    2    1    2    0    0  0.00000000000E+00  0.00000000000E+00 -0.21346048800E+03  0.24736002400E+03  0.12498640540E+03 0.  0.
    9000005    1    3    3    0    0 -0.60359621118E+02 -0.15388304809E+02 -0.96970955918E+02  0.11525818877E+03  0.10000000000E+01 0.  0.
    9000005    1    3    3    0    0  0.60359621118E+02  0.15388304809E+02 -0.11648953208E+03  0.13210183523E+03  0.10000000000E+01 0.  0.
<mgrwt>
<rscale>  0 0.12498641E+03</rscale>
<asrwt>0</asrwt>
<pdfrwt beam="2">  1        4 0.35447729E-01 0.12498641E+03</pdfrwt>
<pdfrwt beam="1">  1       -4 0.26076568E-02 0.12498641E+03</pdfrwt>
<totfact> 0.82738350E+03</totfact>
</mgrwt>
</event>
<event>
 5    1  0.3284464E-002  0.1249982E+03  0.7818608E-02  0.1235072E+00
         -4   -1    0    0    0  501 -0.00000000000E+00  0.00000000000E+00  0.12726034116E+02  0.12789247215E+02  0.12700000000E+01 0. -1.
          4   -1    0    0  501    0  0.00000000000E+00 -0.00000000000E+00 -0.30611573112E+03  0.30611836557E+03  0.12700000000E+01 0. -1.
         25    2    1    2    0    0  0.00000000000E+00  0.00000000000E+00 -0.29338969701E+03  0.31890761279E+03  0.12499820472E+03 0.  0.
    9000005    1    3    3    0    0 -0.56635249823E+02 -0.13687522800E+01 -0.79400885501E+02  0.97544480231E+02  0.10000000000E+01 0.  0.
    9000005    1    3    3    0    0  0.56635249823E+02  0.13687522800E+01 -0.21398881151E+03  0.22136313256E+03  0.10000000000E+01 0.  0.
<mgrwt>
<rscale>  0 0.12499820E+03</rscale>
<asrwt>0</asrwt>
<pdfrwt beam="2">  1        4 0.47099788E-01 0.12499820E+03</pdfrwt>
<pdfrwt beam="1">  1       -4 0.19629168E-02 0.12499820E+03</pdfrwt>
<totfact> 0.73289158E+03</totfact>
</mgrwt>
</event>
<event>
 5    1  0.3284464E-002  0.1249965E+03  0.7818608E-02  0.1235075E+00
          4   -1    0    0  501    0  0.00000000000E+00  0.00000000000E+00  0.81740659731E+02  0.81750525095E+02  0.12700000000E+01 0. -1.
         -4   -1    0    0    0  501 -0.00000000000E+00 -0.00000000000E+00 -0.47764454804E+02  0.47781335715E+02  0.12700000000E+01 0. -1.
         25    2    1    2    0    0  0.00000000000E+00  0.00000000000E+00  0.33976204928E+02  0.12953186081E+03  0.12499648180E+03 0.  0.
    9000005    1    3    3    0    0  0.56634139248E+02  0.16784168486E+02 -0.41453877184E+01  0.59222616283E+02  0.10000000000E+01 0.  0.
    9000005    1    3    3    0    0 -0.56634139248E+02 -0.16784168486E+02  0.38121592646E+02  0.70309244527E+02  0.10000000000E+01 0.  0.
<mgrwt>
<rscale>  0 0.12499648E+03</rscale>
<asrwt>0</asrwt>
<pdfrwt beam="1">  1        4 0.12577544E-01 0.12499648E+03</pdfrwt>
<pdfrwt beam="2">  1       -4 0.73504351E-02 0.12499648E+03</pdfrwt>
<totfact> 0.10355354E+04</totfact>
</mgrwt>
</event>
<event>
 5    1  0.3284464E-002  0.1249751E+03  0.7818608E-02  0.1235108E+00
          4   -1    0    0  501    0  0.00000000000E+00  0.00000000000E+00  0.33439619534E+03  0.33439860699E+03  0.12700000000E+01 0.  1.
         -4   -1    0    0    0  501 -0.00000000000E+00 -0.00000000000E+00 -0.11639860251E+02  0.11708938750E+02  0.12700000000E+01 0.  1.
         25    2    1    2    0    0  0.00000000000E+00  0.00000000000E+00  0.32275633508E+03  0.34610754574E+03  0.12497512304E+03 0.  0.
    9000005    1    3    3    0    0  0.43428421426E+02  0.19916375731E+02  0.49876915612E+02  0.69075296024E+02  0.10000000000E+01 0.  0.
    9000005    1    3    3    0    0 -0.43428421426E+02 -0.19916375731E+02  0.27287941947E+03  0.27703224971E+03  0.10000000000E+01 0.  0.
<mgrwt>
<rscale>  0 0.12497512E+03</rscale>
<asrwt>0</asrwt>
<pdfrwt beam="1">  1        4 0.51451070E-01 0.12497512E+03</pdfrwt>
<pdfrwt beam="2">  1       -4 0.17962469E-02 0.12497512E+03</pdfrwt>
<totfact> 0.70193548E+03</totfact>
</mgrwt>
</event>
<event>
 5    1  0.3284464E-002  0.1249939E+03  0.7818608E-02  0.1235079E+00
         -4   -1    0    0    0  501 -0.00000000000E+00  0.00000000000E+00  0.47613132634E+02  0.47630067176E+02  0.12700000000E+01 0.  1.
          4   -1    0    0  501    0  0.00000000000E+00 -0.00000000000E+00 -0.81996982156E+02  0.82006816685E+02  0.12700000000E+01 0.  1.
         25    2    1    2    0    0  0.00000000000E+00  0.00000000000E+00 -0.34383849522E+02  0.12963688386E+03  0.12499389005E+03 0.  0.
    9000005    1    3    3    0    0 -0.25744361918E+02  0.56935262730E+02 -0.16479514676E+02  0.64629487981E+02  0.10000000000E+01 0.  0.
    9000005    1    3    3    0    0  0.25744361918E+02 -0.56935262730E+02 -0.17904334846E+02  0.65007395879E+02  0.10000000000E+01 0.  0.
<mgrwt>
<rscale>  0 0.12499389E+03</rscale>
<asrwt>0</asrwt>
<pdfrwt beam="2">  1        4 0.12616979E-01 0.12499389E+03</pdfrwt>
<pdfrwt beam="1">  1       -4 0.73271565E-02 0.12499389E+03</pdfrwt>
<totfact> 0.10353709E+04</totfact>
</mgrwt>
</event>
<event>
 5    1  0.3284464E-002  0.1249993E+03  0.7818608E-02  0.1235070E+00
         -4   -1    0    0    0  501 -0.00000000000E+00  0.00000000000E+00  0.28448198986E+03  0.28448482465E+03  0.12700000000E+01 0.  1.
          4   -1    0    0  501    0  0.00000000000E+00 -0.00000000000E+00 -0.13698663374E+02  0.13757408122E+02  0.12700000000E+01 0.  1.
         25    2    1    2    0    0  0.00000000000E+00  0.00000000000E+00  0.27078332649E+03  0.29824223277E+03  0.12499927802E+03 0.  0.
    9000005    1    3    3    0    0  0.38387503677E+02  0.34655650610E+02  0.21909029999E+03  0.22511369152E+03  0.10000000000E+01 0.  0.
    9000005    1    3    3    0    0 -0.38387503677E+02 -0.34655650610E+02  0.51693026496E+02  0.73128541255E+02  0.10000000000E+01 0.  0.
<mgrwt>
<rscale>  0 0.12499928E+03</rscale>
<asrwt>0</asrwt>
<pdfrwt beam="2">  1        4 0.21122237E-02 0.12499928E+03</pdfrwt>
<pdfrwt beam="1">  1       -4 0.43771194E-01 0.12499928E+03</pdfrwt>
<totfact> 0.75821076E+03</totfact>
</mgrwt>
</event>
<event>
 5    1  0.3284464E-002  0.1249938E+03  0.7818608E-02  0.1235079E+00
          4   -1    0    0  501    0  0.00000000000E+00  0.00000000000E+00  0.10561749321E+02  0.10637831016E+02  0.12700000000E+01 0. -1.
         -4   -1    0    0    0  501 -0.00000000000E+00 -0.00000000000E+00 -0.36840786391E+03  0.36841005292E+03  0.12700000000E+01 0. -1.
         25    2    1    2    0    0  0.00000000000E+00  0.00000000000E+00 -0.35784611459E+03  0.37904788394E+03  0.12499382620E+03 0.  0.
    9000005    1    3    3    0    0 -0.13498550475E+02  0.18420487759E+02 -0.25313085415E+01  0.22998538153E+02  0.10000000000E+01 0.  0.
    9000005    1    3    3    0    0  0.13498550475E+02 -0.18420487759E+02 -0.35531480605E+03  0.35604934578E+03  0.10000000000E+01 0.  0.
<mgrwt>
<rscale>  0 0.12499383E+03</rscale>
<asrwt>0</asrwt>
<pdfrwt beam="1">  1        4 0.16309056E-02 0.12499383E+03</pdfrwt>
<pdfrwt beam="2">  1       -4 0.56684144E-01 0.12499383E+03</pdfrwt>
<totfact> 0.66651960E+03</totfact>
</mgrwt>
</event>
<event>
 5    1  0.3284464E-002  0.1250009E+03  0.7818608E-02  0.1235068E+00
          4   -1    0    0  501    0  0.00000000000E+00  0.00000000000E+00  0.54572565559E+02  0.54587341130E+02  0.12700000000E+01 0.  1.
         -4   -1    0    0    0  501 -0.00000000000E+00 -0.00000000000E+00 -0.71549958734E+02  0.71561228992E+02  0.12700000000E+01 0.  1.
         25    2    1    2    0    0  0.00000000000E+00  0.00000000000E+00 -0.16977393176E+02  0.12614857012E+03  0.12500091946E+03 0.  0.
    9000005    1    3    3    0    0  0.18044783749E+02  0.90933985629E+01  0.51189700352E+02  0.55042615673E+02  0.10000000000E+01 0.  0.
    9000005    1    3    3    0    0 -0.18044783749E+02 -0.90933985629E+01 -0.68167093528E+02  0.71105954449E+02  0.10000000000E+01 0.  0.
<mgrwt>
<rscale>  0 0.12500092E+03</rscale>
<asrwt>0</asrwt>
<pdfrwt beam="1">  1        4 0.83977828E-02 0.12500092E+03</pdfrwt>
<pdfrwt beam="2">  1       -4 0.11009690E-01 0.12500092E+03</pdfrwt>
<totfact> 0.10427487E+04</totfact>
</mgrwt>
</event>
<event>
 5    1  0.3284464E-002  0.1249999E+03  0.7818608E-02  0.1235070E+00
         -4   -1    0    0    0  501 -0.00000000000E+00  0.00000000000E+00  0.10407842430E+03  0.10408617249E+03  0.12700000000E+01 0.  1.
          4   -1    0    0  501    0  0.00000000000E+00 -0.00000000000E+00 -0.37511818239E+02  0.37533310640E+02  0.12700000000E+01 0.  1.
         25    2    1    2    0    0  0.00000000000E+00  0.00000000000E+00  0.66566606057E+02  0.14161948313E+03  0.12499985984E+03 0.  0.
    9000005    1    3    3    0    0 -0.32156577731E+02  0.51587796158E+02  0.49697308095E+02  0.78524955496E+02  0.10000000000E+01 0.  0.
    9000005    1    3    3    0    0  0.32156577731E+02 -0.51587796158E+02  0.16869297962E+02  0.63094527635E+02  0.10000000000E+01 0.  0.
<mgrwt>
<rscale>  0 0.12499986E+03</rscale>
<asrwt>0</asrwt>
<pdfrwt beam="2">  1        4 0.57732983E-02 0.12499986E+03</pdfrwt>
<pdfrwt beam="1">  1       -4 0.16014314E-01 0.12499986E+03</pdfrwt>
<totfact> 0.10100163E+04</totfact>
</mgrwt>
</event>
<event>
 5    1  0.3284464E-002  0.1249994E+03  0.7818608E-02  0.1235070E+00
          4   -1    0    0  501    0  0.00000000000E+00  0.00000000000E+00  0.92436861370E+02  0.92445585291E+02  0.12700000000E+01 0.  1.
         -4   -1    0    0    0  501 -0.00000000000E+00 -0.00000000000E+00 -0.42237915168E+02  0.42257003890E+02  0.12700000000E+01 0.  1.
         25    2    1    2    0    0  0.00000000000E+00  0.00000000000E+00  0.50198946201E+02  0.13470258918E+03  0.12499941333E+03 0.  0.
    9000005    1    3    3    0    0 -0.18288922922E+02 -0.54042979549E+02 -0.23764972569E+01  0.57111960914E+02  0.10000000000E+01 0.  0.
    9000005    1    3    3    0    0  0.18288922922E+02  0.54042979549E+02  0.52575443458E+02  0.77590628268E+02  0.10000000000E+01 0.  0.
<mgrwt>
<rscale>  0 0.12499941E+03</rscale>
<asrwt>0</asrwt>
<pdfrwt beam="1">  1        4 0.14223195E-01 0.12499941E+03</pdfrwt>
<pdfrwt beam="2">  1       -4 0.65002803E-02 0.12499941E+03</pdfrwt>
<totfact> 0.10244479E+04</totfact>
</mgrwt>
</event>
<event>
 5    1  0.3284464E-002  0.1250005E+03  0.7818608E-02  0.1235069E+00
          4   -1    0    0  501    0  0.00000000000E+00  0.00000000000E+00  0.11923619564E+02  0.11991063485E+02  0.12700000000E+01 0. -1.
         -4   -1    0    0    0  501 -0.00000000000E+00 -0.00000000000E+00 -0.32661602196E+03  0.32661849106E+03  0.12700000000E+01 0. -1.
         25    2    1    2    0    0  0.00000000000E+00  0.00000000000E+00 -0.31469240240E+03  0.33860955455E+03  0.12500048921E+03 0.  0.
    9000005    1    3    3    0    0 -0.38210987778E+02  0.44612493753E+02 -0.99568792365E+02  0.11560838464E+03  0.10000000000E+01 0.  0.
    9000005    1    3    3    0    0  0.38210987778E+02 -0.44612493753E+02 -0.21512361003E+03  0.22300116991E+03  0.10000000000E+01 0.  0.
<mgrwt>
<rscale>  0 0.12500049E+03</rscale>
<asrwt>0</asrwt>
<pdfrwt beam="1">  1        4 0.18397812E-02 0.12500049E+03</pdfrwt>
<pdfrwt beam="2">  1       -4 0.50253990E-01 0.12500049E+03</pdfrwt>
<totfact> 0.70995327E+03</totfact>
</mgrwt>
</event>
<event>
 4    1  0.3284464E-002  0.1250705E+03  0.7818608E-02  0.1234959E+00
         -4   -1    0    0    0  501 -0.00000000000E+00  0.00000000000E+00  0.28186196913E+02  0.28214793928E+02  0.12700000000E+01 0.  1.
          4   -1    0    0  501    0  0.00000000000E+00 -0.00000000000E+00 -0.13864180239E+03  0.13864761906E+03  0.12700000000E+01 0.  1.
    9000005    1    1    2    0    0 -0.91523257847E+00 -0.44399072566E+02 -0.11395362890E+03  0.12230513005E+03  0.10000000000E+01 0.  0.
    9000005    1    1    2    0    0  0.91523257847E+00  0.44399072566E+02  0.34980234222E+01  0.44557282943E+02  0.10000000000E+01 0.  0.
<mgrwt>
<rscale>  0 0.12507048E+03</rscale>
<asrwt>0</asrwt>
<pdfrwt beam="2">  1        4 0.21332155E-01 0.12507048E+03</pdfrwt>
<pdfrwt beam="1">  1       -4 0.43389853E-02 0.12507048E+03</pdfrwt>
<totfact> 0.95883981E+03</totfact>
</mgrwt>
</event>
<event>
 5    1  0.3284464E-002  0.1250011E+03  0.7818608E-02  0.1235068E+00
         -4   -1    0    0    0  501 -0.00000000000E+00  0.00000000000E+00  0.10873439970E+02  0.10947355698E+02  0.12700000000E+01 0.  1.
          4   -1    0    0  501    0  0.00000000000E+00 -0.00000000000E+00 -0.35796143112E+03  0.35796368401E+03  0.12700000000E+01 0.  1.
         25    2    1    2    0    0  0.00000000000E+00  0.00000000000E+00 -0.34708799115E+03  0.36891103970E+03  0.12500112646E+03 0.  0.
    9000005    1    3    3    0    0  0.16037897560E+02 -0.60208639616E+02 -0.18770573548E+03  0.19777951759E+03  0.10000000000E+01 0.  0.
    9000005    1    3    3    0    0 -0.16037897560E+02  0.60208639616E+02 -0.15938225566E+03  0.17113152212E+03  0.10000000000E+01 0.  0.
<mgrwt>
<rscale>  0 0.12500113E+03</rscale>
<asrwt>0</asrwt>
<pdfrwt beam="2">  1        4 0.55076840E-01 0.12500113E+03</pdfrwt>
<pdfrwt beam="1">  1       -4 0.16786963E-02 0.12500113E+03</pdfrwt>
<totfact> 0.67691335E+03</totfact>
</mgrwt>
</event>
<event>
 5    1  0.3284464E-002  0.1250008E+03  0.7818608E-02  0.1235068E+00
          4   -1    0    0  501    0  0.00000000000E+00  0.00000000000E+00  0.14274368275E+02  0.14330753283E+02  0.12700000000E+01 0. -1.
         -4   -1    0    0    0  501 -0.00000000000E+00 -0.00000000000E+00 -0.27306107866E+03  0.27306403202E+03  0.12700000000E+01 0. -1.
         25    2    1    2    0    0  0.00000000000E+00  0.00000000000E+00 -0.25878671039E+03  0.28739478530E+03  0.12500080457E+03 0.  0.
    9000005    1    3    3    0    0  0.53659062975E+02  0.23936975073E+02 -0.17832928730E+03  0.18776210620E+03  0.10000000000E+01 0.  0.
    9000005    1    3    3    0    0 -0.53659062975E+02 -0.23936975073E+02 -0.80457423092E+02  0.99632679104E+02  0.10000000000E+01 0.  0.
<mgrwt>
<rscale>  0 0.12500080E+03</rscale>
<asrwt>0</asrwt>
<pdfrwt beam="1">  1        4 0.22006214E-02 0.12500080E+03</pdfrwt>
<pdfrwt beam="2">  1       -4 0.42013957E-01 0.12500080E+03</pdfrwt>
<totfact> 0.77206339E+03</totfact>
</mgrwt>
</event>
<event>
 5    1  0.3284464E-002  0.1249998E+03  0.7818608E-02  0.1235070E+00
          4   -1    0    0  501    0  0.00000000000E+00  0.00000000000E+00  0.43381758849E+02  0.43400344478E+02  0.12700000000E+01 0.  1.
         -4   -1    0    0    0  501 -0.00000000000E+00 -0.00000000000E+00 -0.90001012682E+02  0.90009972691E+02  0.12700000000E+01 0.  1.
         25    2    1    2    0    0  0.00000000000E+00  0.00000000000E+00 -0.46619253833E+02  0.13341031717E+03  0.12499983160E+03 0.  0.
    9000005    1    3    3    0    0  0.37794737579E+02  0.39969657978E+02  0.83371647883E+01  0.55646420049E+02  0.10000000000E+01 0.  0.
    9000005    1    3    3    0    0 -0.37794737579E+02 -0.39969657978E+02 -0.54956418622E+02  0.77763897120E+02  0.10000000000E+01 0.  0.
<mgrwt>
<rscale>  0 0.12499983E+03</rscale>
<asrwt>0</asrwt>
<pdfrwt beam="1">  1        4 0.66762357E-02 0.12499983E+03</pdfrwt>
<pdfrwt beam="2">  1       -4 0.13848428E-01 0.12499983E+03</pdfrwt>
<totfact> 0.10271726E+04</totfact>
</mgrwt>
</event>
<event>
 5    1  0.3284464E-002  0.1249806E+03  0.7818608E-02  0.1235100E+00
         -4   -1    0    0    0  501 -0.00000000000E+00  0.00000000000E+00  0.55483437133E+01  0.56918378368E+01  0.12700000000E+01 0. -1.
          4   -1    0    0  501    0  0.00000000000E+00 -0.00000000000E+00 -0.69469144866E+03  0.69469260953E+03  0.12700000000E+01 0. -1.
         25    2    1    2    0    0  0.00000000000E+00  0.00000000000E+00 -0.68914310495E+03  0.70038444737E+03  0.12498061859E+03 0.  0.
    9000005    1    3    3    0    0  0.48977579843E+02  0.24013936153E+02 -0.51533711085E+03  0.51821695290E+03  0.10000000000E+01 0.  0.
    9000005    1    3    3    0    0 -0.48977579843E+02 -0.24013936153E+02 -0.17380599410E+03  0.18216749447E+03  0.10000000000E+01 0.  0.
<mgrwt>
<rscale>  0 0.12498062E+03</rscale>
<asrwt>0</asrwt>
<pdfrwt beam="2">  1        4 0.10688667E+00 0.12498062E+03</pdfrwt>
<pdfrwt beam="1">  1       -4 0.86471920E-03 0.12498062E+03</pdfrwt>
<totfact> 0.43084692E+03</totfact>
</mgrwt>
</event>
<event>
 5    1  0.3284464E-002  0.1249993E+03  0.7818608E-02  0.1235070E+00
          4   -1    0    0  501    0  0.00000000000E+00  0.00000000000E+00  0.38187249493E+03  0.38187460675E+03  0.12700000000E+01 0. -1.
         -4   -1    0    0    0  501 -0.00000000000E+00 -0.00000000000E+00 -0.10187522329E+02  0.10266377706E+02  0.12700000000E+01 0. -1.
         25    2    1    2    0    0  0.00000000000E+00  0.00000000000E+00  0.37168497260E+03  0.39214098446E+03  0.12499933134E+03 0.  0.
    9000005    1    3    3    0    0  0.84390625470E+01 -0.88236744012E+01  0.37810961361E+03  0.37830801592E+03  0.10000000000E+01 0.  0.
    9000005    1    3    3    0    0 -0.84390625470E+01  0.88236744012E+01 -0.64246410060E+01  0.13832968541E+02  0.10000000000E+01 0.  0.
<mgrwt>
<rscale>  0 0.12499933E+03</rscale>
<asrwt>0</asrwt>
<pdfrwt beam="1">  1        4 0.58755844E-01 0.12499933E+03</pdfrwt>
<pdfrwt beam="2">  1       -4 0.15735393E-02 0.12499933E+03</pdfrwt>
<totfact> 0.65325354E+03</totfact>
</mgrwt>
</event>
<event>
 5    1  0.3284464E-002  0.1249930E+03  0.7818608E-02  0.1235080E+00
         -4   -1    0    0    0  501 -0.00000000000E+00  0.00000000000E+00  0.17188713993E+03  0.17189183160E+03  0.12700000000E+01 0.  1.
          4   -1    0    0  501    0  0.00000000000E+00 -0.00000000000E+00 -0.22700364590E+02  0.22735862696E+02  0.12700000000E+01 0.  1.
         25    2    1    2    0    0  0.00000000000E+00  0.00000000000E+00  0.14918677534E+03  0.19462769430E+03  0.12499298161E+03 0.  0.
    9000005    1    3    3    0    0 -0.48538648688E+02  0.59918805824E+01  0.14027886611E+02  0.50888944301E+02  0.10000000000E+01 0.  0.
    9000005    1    3    3    0    0  0.48538648688E+02 -0.59918805824E+01  0.13515888873E+03  0.14373875000E+03  0.10000000000E+01 0.  0.
<mgrwt>
<rscale>  0 0.12499298E+03</rscale>
<asrwt>0</asrwt>
<pdfrwt beam="2">  1        4 0.34954554E-02 0.12499298E+03</pdfrwt>
<pdfrwt beam="1">  1       -4 0.26447266E-01 0.12499298E+03</pdfrwt>
<totfact> 0.91062597E+03</totfact>
</mgrwt>
</event>
<event>
 5    1  0.3284464E-002  0.1249859E+03  0.7818608E-02  0.1235091E+00
         -4   -1    0    0    0  501 -0.00000000000E+00  0.00000000000E+00  0.27642941046E+02  0.27672099481E+02  0.12700000000E+01 0.  1.
          4   -1    0    0  501    0  0.00000000000E+00 -0.00000000000E+00 -0.14117246432E+03  0.14117817672E+03  0.12700000000E+01 0.  1.
         25    2    1    2    0    0  0.00000000000E+00  0.00000000000E+00 -0.11352952328E+03  0.16885027620E+03  0.12498585168E+03 0.  0.
    9000005    1    3    3    0    0  0.44356067468E+02  0.42465589664E+02 -0.41150925618E+02  0.73926894334E+02  0.10000000000E+01 0.  0.
    9000005    1    3    3    0    0 -0.44356067468E+02 -0.42465589664E+02 -0.72378597659E+02  0.94923381871E+02  0.10000000000E+01 0.  0.
<mgrwt>
<rscale>  0 0.12498585E+03</rscale>
<asrwt>0</asrwt>
<pdfrwt beam="2">  1        4 0.21721523E-01 0.12498585E+03</pdfrwt>
<pdfrwt beam="1">  1       -4 0.42554426E-02 0.12498585E+03</pdfrwt>
<totfact> 0.95693538E+03</totfact>
</mgrwt>
</event>
<event>
 5    1  0.3284464E-002  0.1249474E+03  0.7818608E-02  0.1235151E+00
          4   -1    0    0  501    0  0.00000000000E+00  0.00000000000E+00  0.45558422609E+02  0.45576120618E+02  0.12700000000E+01 0. -1.
         -4   -1    0    0    0  501 -0.00000000000E+00 -0.00000000000E+00 -0.85630394835E+02  0.85639812118E+02  0.12700000000E+01 0. -1.
         25    2    1    2    0    0  0.00000000000E+00  0.00000000000E+00 -0.40071972226E+02  0.13121593274E+03  0.12494742112E+03 0.  0.
    9000005    1    3    3    0    0  0.18546334075E+02  0.58715954430E+02 -0.31071995251E+02  0.68978248029E+02  0.10000000000E+01 0.  0.
    9000005    1    3    3    0    0 -0.18546334075E+02 -0.58715954430E+02 -0.89999769749E+01  0.62237684708E+02  0.10000000000E+01 0.  0.
<mgrwt>
<rscale>  0 0.12494742E+03</rscale>
<asrwt>0</asrwt>
<pdfrwt beam="1">  1        4 0.70110739E-02 0.12494742E+03</pdfrwt>
<pdfrwt beam="2">  1       -4 0.13175993E-01 0.12494742E+03</pdfrwt>
<totfact> 0.10330712E+04</totfact>
</mgrwt>
</event>
<event>
 4    1  0.3284464E-002  0.1250642E+03  0.7818608E-02  0.1234969E+00
          4   -1    0    0  501    0  0.00000000000E+00  0.00000000000E+00  0.34993625430E+02  0.35016663472E+02  0.12700000000E+01 0.  1.
         -4   -1    0    0    0  501 -0.00000000000E+00 -0.00000000000E+00 -0.11167881742E+03  0.11168603834E+03  0.12700000000E+01 0.  1.
    9000005    1    1    2    0    0  0.79981191894E+01  0.58102140526E+02 -0.12927380660E+02  0.60066178628E+02  0.10000000000E+01 0.  0.
    9000005    1    1    2    0    0 -0.79981191894E+01 -0.58102140526E+02 -0.63757811333E+02  0.86636523188E+02  0.10000000000E+01 0.  0.
<mgrwt>
<rscale>  0 0.12506424E+03</rscale>
<asrwt>0</asrwt>
<pdfrwt beam="1">  1        4 0.53859624E-02 0.12506424E+03</pdfrwt>
<pdfrwt beam="2">  1       -4 0.17183684E-01 0.12506424E+03</pdfrwt>
<totfact> 0.99820634E+03</totfact>
</mgrwt>
</event>
<event>
 5    1  0.3284464E-002  0.1250008E+03  0.7818608E-02  0.1235068E+00
         -4   -1    0    0    0  501 -0.00000000000E+00  0.00000000000E+00  0.37909536162E+01  0.39980281790E+01  0.12700000000E+01 0. -1.
          4   -1    0    0  501    0  0.00000000000E+00 -0.00000000000E+00 -0.10028248450E+04  0.10028256491E+04  0.12700000000E+01 0. -1.
         25    2    1    2    0    0  0.00000000000E+00  0.00000000000E+00 -0.99903389135E+03  0.10068236773E+04  0.12500080461E+03 0.  0.
    9000005    1    3    3    0    0  0.42263936936E+02  0.44711363218E+02 -0.41130084892E+03  0.41587826907E+03  0.10000000000E+01 0.  0.
    9000005    1    3    3    0    0 -0.42263936936E+02 -0.44711363218E+02 -0.58773304243E+03  0.59094540825E+03  0.10000000000E+01 0.  0.
<mgrwt>
<rscale>  0 0.12500080E+03</rscale>
<asrwt>0</asrwt>
<pdfrwt beam="2">  1        4 0.15429653E+00 0.12500080E+03</pdfrwt>
<pdfrwt beam="1">  1       -4 0.59921510E-03 0.12500080E+03</pdfrwt>
<totfact> 0.30379743E+03</totfact>
</mgrwt>
</event>
<event>
 4    1  0.3284464E-002  0.1249143E+03  0.7818608E-02  0.1235203E+00
          4   -1    0    0  501    0  0.00000000000E+00  0.00000000000E+00  0.16493464737E+03  0.16493953681E+03  0.12700000000E+01 0.  1.
         -4   -1    0    0    0  501 -0.00000000000E+00 -0.00000000000E+00 -0.23628849786E+02  0.23662955061E+02  0.12700000000E+01 0.  1.
    9000005    1    1    2    0    0 -0.27427812839E+02  0.16540408709E+01  0.15532433241E+03  0.15773924371E+03  0.10000000000E+01 0.  0.
    9000005    1    1    2    0    0  0.27427812839E+02 -0.16540408709E+01 -0.14018534824E+02  0.30863248160E+02  0.10000000000E+01 0.  0.
<mgrwt>
<rscale>  0 0.12491426E+03</rscale>
<asrwt>0</asrwt>
<pdfrwt beam="1">  1        4 0.25377561E-01 0.12491426E+03</pdfrwt>
<pdfrwt beam="2">  1       -4 0.36382072E-02 0.12491426E+03</pdfrwt>
<totfact> 0.92268166E+03</totfact>
</mgrwt>
</event>
<event>
 5    1  0.3284464E-002  0.1250009E+03  0.7818608E-02  0.1235068E+00
          4   -1    0    0  501    0  0.00000000000E+00  0.00000000000E+00  0.21468081283E+02  0.21505613546E+02  0.12700000000E+01 0. -1.
         -4   -1    0    0    0  501 -0.00000000000E+00 -0.00000000000E+00 -0.18176002603E+03  0.18176446287E+03  0.12700000000E+01 0. -1.
         25    2    1    2    0    0  0.00000000000E+00  0.00000000000E+00 -0.16029194475E+03  0.20327007641E+03  0.12500086566E+03 0.  0.
    9000005    1    3    3    0    0  0.42250596684E+01 -0.37419783728E+02 -0.16124523367E+03  0.16558718768E+03  0.10000000000E+01 0.  0.
    9000005    1    3    3    0    0 -0.42250596684E+01  0.37419783728E+02  0.95328892310E+00  0.37682888733E+02  0.10000000000E+01 0.  0.
<mgrwt>
<rscale>  0 0.12500087E+03</rscale>
<asrwt>0</asrwt>
<pdfrwt beam="1">  1        4 0.33060103E-02 0.12500087E+03</pdfrwt>
<pdfrwt beam="2">  1       -4 0.27966308E-01 0.12500087E+03</pdfrwt>
<totfact> 0.89585163E+03</totfact>
</mgrwt>
</event>
<event>
 5    1  0.3284464E-002  0.1249975E+03  0.7818608E-02  0.1235073E+00
         -4   -1    0    0    0  501 -0.00000000000E+00  0.00000000000E+00  0.17807537107E+02  0.17852766671E+02  0.12700000000E+01 0. -1.
          4   -1    0    0  501    0  0.00000000000E+00 -0.00000000000E+00 -0.21902522695E+03  0.21902890891E+03  0.12700000000E+01 0. -1.
         25    2    1    2    0    0  0.00000000000E+00  0.00000000000E+00 -0.20121768984E+03  0.23688167558E+03  0.12499747806E+03 0.  0.
    9000005    1    3    3    0    0 -0.24615744784E+02  0.52329615762E+02 -0.14548567145E+03  0.15656118348E+03  0.10000000000E+01 0.  0.
    9000005    1    3    3    0    0  0.24615744784E+02 -0.52329615762E+02 -0.55732018392E+02  0.80320492100E+02  0.10000000000E+01 0.  0.
<mgrwt>
<rscale>  0 0.12499748E+03</rscale>
<asrwt>0</asrwt>
<pdfrwt beam="2">  1        4 0.33699949E-01 0.12499748E+03</pdfrwt>
<pdfrwt beam="1">  1       -4 0.27433837E-02 0.12499748E+03</pdfrwt>
<totfact> 0.84268729E+03</totfact>
</mgrwt>
</event>
<event>
 5    1  0.3284464E-002  0.1250010E+03  0.7818608E-02  0.1235068E+00
          4   -1    0    0  501    0  0.00000000000E+00  0.00000000000E+00  0.31720405798E+02  0.31745819315E+02  0.12700000000E+01 0.  1.
         -4   -1    0    0    0  501 -0.00000000000E+00 -0.00000000000E+00 -0.12307031595E+03  0.12307686853E+03  0.12700000000E+01 0.  1.
         25    2    1    2    0    0  0.00000000000E+00  0.00000000000E+00 -0.91349910150E+02  0.15482268785E+03  0.12500103435E+03 0.  0.
    9000005    1    3    3    0    0  0.10357654598E+02  0.59828737369E+02 -0.63985538704E+02  0.88215123347E+02  0.10000000000E+01 0.  0.
    9000005    1    3    3    0    0 -0.10357654598E+02 -0.59828737369E+02 -0.27364371446E+02  0.66607564499E+02  0.10000000000E+01 0.  0.
<mgrwt>
<rscale>  0 0.12500103E+03</rscale>
<asrwt>0</asrwt>
<pdfrwt beam="1">  1        4 0.48825214E-02 0.12500103E+03</pdfrwt>
<pdfrwt beam="2">  1       -4 0.18936353E-01 0.12500103E+03</pdfrwt>
<totfact> 0.98348031E+03</totfact>
</mgrwt>
</event>
<event>
 5    1  0.3284464E-002  0.1250013E+03  0.7818608E-02  0.1235067E+00
          4   -1    0    0  501    0  0.00000000000E+00  0.00000000000E+00  0.74363267831E+02  0.74374111776E+02  0.12700000000E+01 0.  1.
         -4   -1    0    0    0  501 -0.00000000000E+00 -0.00000000000E+00 -0.52508052145E+02  0.52523408496E+02  0.12700000000E+01 0.  1.
         25    2    1    2    0    0  0.00000000000E+00  0.00000000000E+00  0.21855215687E+02  0.12689752027E+03  0.12500132079E+03 0.  0.
    9000005    1    3    3    0    0  0.52786330817E+02  0.15218468943E+02 -0.19312414155E+02  0.58240603178E+02  0.10000000000E+01 0.  0.
    9000005    1    3    3    0    0 -0.52786330817E+02 -0.15218468943E+02  0.41167629842E+02  0.68656917094E+02  0.10000000000E+01 0.  0.
<mgrwt>
<rscale>  0 0.12500132E+03</rscale>
<asrwt>0</asrwt>
<pdfrwt beam="1">  1        4 0.11442518E-01 0.12500132E+03</pdfrwt>
<pdfrwt beam="2">  1       -4 0.80801773E-02 0.12500132E+03</pdfrwt>
<totfact> 0.10411062E+04</totfact>
</mgrwt>
</event>
<event>
 5    1  0.3284464E-002  0.1250035E+03  0.7818608E-02  0.1235064E+00
          4   -1    0    0  501    0  0.00000000000E+00  0.00000000000E+00  0.75298618828E+02  0.75309328090E+02  0.12700000000E+01 0.  1.
         -4   -1    0    0    0  501 -0.00000000000E+00 -0.00000000000E+00 -0.51857513708E+02  0.51873062644E+02  0.12700000000E+01 0.  1.
         25    2    1    2    0    0  0.00000000000E+00  0.00000000000E+00  0.23441105119E+02  0.12718239073E+03  0.12500350037E+03 0.  0.
    9000005    1    3    3    0    0  0.17768596817E+02  0.19436789417E+02 -0.45941443047E+02  0.52963459148E+02  0.10000000000E+01 0.  0.
    9000005    1    3    3    0    0 -0.17768596817E+02 -0.19436789417E+02  0.69382548166E+02  0.74218931586E+02  0.10000000000E+01 0.  0.
<mgrwt>
<rscale>  0 0.12500350E+03</rscale>
<asrwt>0</asrwt>
<pdfrwt beam="1">  1        4 0.11586423E-01 0.12500350E+03</pdfrwt>
<pdfrwt beam="2">  1       -4 0.79800989E-02 0.12500350E+03</pdfrwt>
<totfact> 0.10404363E+04</totfact>
</mgrwt>
</event>
<event>
 5    1  0.3284464E-002  0.1250058E+03  0.7818608E-02  0.1235060E+00
         -4   -1    0    0    0  501 -0.00000000000E+00  0.00000000000E+00  0.45493706741E+02  0.45511429917E+02  0.12700000000E+01 0.  1.
          4   -1    0    0  501    0  0.00000000000E+00 -0.00000000000E+00 -0.85832336354E+02  0.85841731483E+02  0.12700000000E+01 0.  1.
         25    2    1    2    0    0  0.00000000000E+00  0.00000000000E+00 -0.40338629613E+02  0.13135316140E+03  0.12500579175E+03 0.  0.
    9000005    1    3    3    0    0  0.52550566214E+02  0.80601602028E+01  0.14348077708E+02  0.55076270079E+02  0.10000000000E+01 0.  0.
    9000005    1    3    3    0    0 -0.52550566214E+02 -0.80601602028E+01 -0.54686707321E+02  0.76276891321E+02  0.10000000000E+01 0.  0.
<mgrwt>
<rscale>  0 0.12500579E+03</rscale>
<asrwt>0</asrwt>
<pdfrwt beam="2">  1        4 0.13207061E-01 0.12500579E+03</pdfrwt>
<pdfrwt beam="1">  1       -4 0.70011178E-02 0.12500579E+03</pdfrwt>
<totfact> 0.10314176E+04</totfact>
</mgrwt>
</event>
<event>
 5    1  0.3284464E-002  0.1250003E+03  0.7818608E-02  0.1235069E+00
          4   -1    0    0  501    0  0.00000000000E+00  0.00000000000E+00  0.42250617635E+01  0.44118076687E+01  0.12700000000E+01 0. -1.
         -4   -1    0    0    0  501 -0.00000000000E+00 -0.00000000000E+00 -0.90436967168E+03  0.90437056340E+03  0.12700000000E+01 0. -1.
         25    2    1    2    0    0  0.00000000000E+00  0.00000000000E+00 -0.90014460991E+03  0.90878237107E+03  0.12500031685E+03 0.  0.
    9000005    1    3    3    0    0 -0.17024988303E+02 -0.59221028926E+02 -0.37441661916E+03  0.37945458911E+03  0.10000000000E+01 0.  0.
    9000005    1    3    3    0    0  0.17024988303E+02  0.59221028926E+02 -0.52572799075E+03  0.52932778196E+03  0.10000000000E+01 0.  0.
<mgrwt>
<rscale>  0 0.12500032E+03</rscale>
<asrwt>0</asrwt>
<pdfrwt beam="1">  1        4 0.66444388E-03 0.12500032E+03</pdfrwt>
<pdfrwt beam="2">  1       -4 0.13914808E+00 0.12500032E+03</pdfrwt>
<totfact> 0.33825659E+03</totfact>
</mgrwt>
</event>
<event>
 5    1  0.3284464E-002  0.1250010E+03  0.7818608E-02  0.1235068E+00
          4   -1    0    0  501    0  0.00000000000E+00  0.00000000000E+00  0.77245610425E+03  0.77245714825E+03  0.12700000000E+01 0. -1.
         -4   -1    0    0    0  501 -0.00000000000E+00 -0.00000000000E+00 -0.49762010327E+01  0.51357060584E+01  0.12700000000E+01 0. -1.
         25    2    1    2    0    0  0.00000000000E+00  0.00000000000E+00  0.76747990321E+03  0.77759285431E+03  0.12500098095E+03 0.  0.
    9000005    1    3    3    0    0  0.34301733717E+02  0.41699806935E+02  0.57945256290E+03  0.58196370633E+03  0.10000000000E+01 0.  0.
    9000005    1    3    3    0    0 -0.34301733717E+02 -0.41699806935E+02  0.18802734031E+03  0.19562914798E+03  0.10000000000E+01 0.  0.
<mgrwt>
<rscale>  0 0.12500098E+03</rscale>
<asrwt>0</asrwt>
<pdfrwt beam="1">  1        4 0.11885178E+00 0.12500098E+03</pdfrwt>
<pdfrwt beam="2">  1       -4 0.77791914E-03 0.12500098E+03</pdfrwt>
<totfact> 0.39283963E+03</totfact>
</mgrwt>
</event>
<event>
 5    1  0.3284464E-002  0.1249962E+03  0.7818608E-02  0.1235075E+00
          4   -1    0    0  501    0  0.00000000000E+00  0.00000000000E+00  0.92887242164E+01  0.93751425359E+01  0.12700000000E+01 0. -1.
         -4   -1    0    0    0  501 -0.00000000000E+00 -0.00000000000E+00 -0.41847646607E+03  0.41847839318E+03  0.12700000000E+01 0. -1.
         25    2    1    2    0    0  0.00000000000E+00  0.00000000000E+00 -0.40918774186E+03  0.42785353571E+03  0.12499615969E+03 0.  0.
    9000005    1    3    3    0    0  0.17064882221E+02  0.76926615427E+01 -0.40867141178E+03  0.40910110004E+03  0.10000000000E+01 0.  0.
    9000005    1    3    3    0    0 -0.17064882221E+02 -0.76926615427E+01 -0.51633007172E+00  0.18752435670E+02  0.10000000000E+01 0.  0.
<mgrwt>
<rscale>  0 0.12499616E+03</rscale>
<asrwt>0</asrwt>
<pdfrwt beam="1">  1        4 0.14358306E-02 0.12499616E+03</pdfrwt>
<pdfrwt beam="2">  1       -4 0.64387776E-01 0.12499616E+03</pdfrwt>
<totfact> 0.61936289E+03</totfact>
</mgrwt>
</event>
<event>
 5    1  0.3284464E-002  0.1249990E+03  0.7818608E-02  0.1235071E+00
          4   -1    0    0  501    0  0.00000000000E+00  0.00000000000E+00  0.25708643903E+02  0.25739993616E+02  0.12700000000E+01 0. -1.
         -4   -1    0    0    0  501 -0.00000000000E+00 -0.00000000000E+00 -0.15181394257E+03  0.15181925457E+03  0.12700000000E+01 0. -1.
         25    2    1    2    0    0  0.00000000000E+00  0.00000000000E+00 -0.12610529866E+03  0.17755924818E+03  0.12499896105E+03 0.  0.
    9000005    1    3    3    0    0 -0.16337781024E+02 -0.49649309158E+02 -0.11170730645E+03  0.12333490708E+03  0.10000000000E+01 0.  0.
    9000005    1    3    3    0    0  0.16337781024E+02  0.49649309158E+02 -0.14397992209E+02  0.54224341106E+02  0.10000000000E+01 0.  0.
<mgrwt>
<rscale>  0 0.12499896E+03</rscale>
<asrwt>0</asrwt>
<pdfrwt beam="1">  1        4 0.39579962E-02 0.12499896E+03</pdfrwt>
<pdfrwt beam="2">  1       -4 0.23358811E-01 0.12499896E+03</pdfrwt>
<totfact> 0.94060392E+03</totfact>
</mgrwt>
</event>
<event>
 5    1  0.3284464E-002  0.1250497E+03  0.7818608E-02  0.1234992E+00
          4   -1    0    0  501    0  0.00000000000E+00  0.00000000000E+00  0.24528423794E+01  0.27621252213E+01  0.12700000000E+01 0.  1.
         -4   -1    0    0    0  501 -0.00000000000E+00 -0.00000000000E+00 -0.14989746012E+04  0.14989751392E+04  0.12700000000E+01 0.  1.
         25    2    1    2    0    0  0.00000000000E+00  0.00000000000E+00 -0.14965217588E+04  0.15017372644E+04  0.12504973703E+03 0.  0.
    9000005    1    3    3    0    0 -0.60243491661E+02  0.15982148905E+02 -0.80666498528E+03  0.80906990171E+03  0.10000000000E+01 0.  0.
    9000005    1    3    3    0    0  0.60243491661E+02 -0.15982148905E+02 -0.68985677350E+03  0.69266736267E+03  0.10000000000E+01 0.  0.
<mgrwt>
<rscale>  0 0.12504974E+03</rscale>
<asrwt>0</asrwt>
<pdfrwt beam="1">  1        4 0.40119394E-03 0.12504974E+03</pdfrwt>
<pdfrwt beam="2">  1       -4 0.23063462E+00 0.12504974E+03</pdfrwt>
<totfact> 0.17876954E+03</totfact>
</mgrwt>
</event>
<event>
 5    1  0.3284464E-002  0.1249998E+03  0.7818608E-02  0.1235070E+00
         -4   -1    0    0    0  501 -0.00000000000E+00  0.00000000000E+00  0.44337719895E+02  0.44355904968E+02  0.12700000000E+01 0.  1.
          4   -1    0    0  501    0  0.00000000000E+00 -0.00000000000E+00 -0.88061144042E+02  0.88070301408E+02  0.12700000000E+01 0.  1.
         25    2    1    2    0    0  0.00000000000E+00  0.00000000000E+00 -0.43723424147E+02  0.13242620638E+03  0.12499984926E+03 0.  0.
    9000005    1    3    3    0    0  0.37812494988E+02  0.35079692782E+02 -0.59240620620E+02  0.78554571824E+02  0.10000000000E+01 0.  0.
    9000005    1    3    3    0    0 -0.37812494988E+02 -0.35079692782E+02  0.15517196474E+02  0.53871634552E+02  0.10000000000E+01 0.  0.
<mgrwt>
<rscale>  0 0.12499985E+03</rscale>
<asrwt>0</asrwt>
<pdfrwt beam="2">  1        4 0.13549972E-01 0.12499985E+03</pdfrwt>
<pdfrwt beam="1">  1       -4 0.68232910E-02 0.12499985E+03</pdfrwt>
<totfact> 0.10292645E+04</totfact>
</mgrwt>
</event>
<event>
 5    1  0.3284464E-002  0.1249973E+03  0.7818608E-02  0.1235073E+00
         -4   -1    0    0    0  501 -0.00000000000E+00  0.00000000000E+00  0.29364535114E+02  0.29391985684E+02  0.12700000000E+01 0. -1.
          4   -1    0    0  501    0  0.00000000000E+00 -0.00000000000E+00 -0.13292775472E+03  0.13293382142E+03  0.12700000000E+01 0. -1.
         25    2    1    2    0    0  0.00000000000E+00  0.00000000000E+00 -0.10356321961E+03  0.16232580710E+03  0.12499730875E+03 0.  0.
    9000005    1    3    3    0    0  0.57540064640E+02 -0.60894910913E+00 -0.20135086998E+02  0.60972547808E+02  0.10000000000E+01 0.  0.
    9000005    1    3    3    0    0 -0.57540064640E+02  0.60894910913E+00 -0.83428132613E+02  0.10135325929E+03  0.10000000000E+01 0.  0.
<mgrwt>
<rscale>  0 0.12499731E+03</rscale>
<asrwt>0</asrwt>
<pdfrwt beam="2">  1        4 0.20453002E-01 0.12499731E+03</pdfrwt>
<pdfrwt beam="1">  1       -4 0.45201991E-02 0.12499731E+03</pdfrwt>
<totfact> 0.96902113E+03</totfact>
</mgrwt>
</event>
<event>
 5    1  0.3284464E-002  0.1250015E+03  0.7818608E-02  0.1235067E+00
          4   -1    0    0  501    0  0.00000000000E+00  0.00000000000E+00  0.14597314328E+04  0.14597319853E+04  0.12700000000E+01 0.  1.
         -4   -1    0    0    0  501 -0.00000000000E+00 -0.00000000000E+00 -0.25248067527E+01  0.28262252456E+01  0.12700000000E+01 0.  1.
         25    2    1    2    0    0  0.00000000000E+00  0.00000000000E+00  0.14572066261E+04  0.14625582106E+04  0.12500147253E+03 0.  0.
    9000005    1    3    3    0    0  0.16414749834E+02 -0.44529505036E+02  0.25289883107E+03  0.25731525331E+03  0.10000000000E+01 0.  0.
    9000005    1    3    3    0    0 -0.16414749834E+02  0.44529505036E+02  0.12043077950E+04  0.12052429572E+04  0.10000000000E+01 0.  0.
<mgrwt>
<rscale>  0 0.12500147E+03</rscale>
<asrwt>0</asrwt>
<pdfrwt beam="1">  1        4 0.22459775E+00 0.12500147E+03</pdfrwt>
<pdfrwt beam="2">  1       -4 0.41165951E-03 0.12500147E+03</pdfrwt>
<totfact> 0.18676319E+03</totfact>
</mgrwt>
</event>
<event>
 5    1  0.3284464E-002  0.1249994E+03  0.7818608E-02  0.1235070E+00
         -4   -1    0    0    0  501 -0.00000000000E+00  0.00000000000E+00  0.60882274177E+01  0.62192775376E+01  0.12700000000E+01 0.  1.
          4   -1    0    0  501    0  0.00000000000E+00 -0.00000000000E+00 -0.63463761556E+03  0.63463888629E+03  0.12700000000E+01 0.  1.
         25    2    1    2    0    0  0.00000000000E+00  0.00000000000E+00 -0.62854938815E+03  0.64085816382E+03  0.12499941121E+03 0.  0.
    9000005    1    3    3    0    0  0.49005944393E+02  0.98791018752E+01 -0.50651828014E+03  0.50898030154E+03  0.10000000000E+01 0.  0.
    9000005    1    3    3    0    0 -0.49005944393E+02 -0.98791018752E+01 -0.12203110801E+03  0.13187786229E+03  0.10000000000E+01 0.  0.
<mgrwt>
<rscale>  0 0.12499941E+03</rscale>
<asrwt>0</asrwt>
<pdfrwt beam="2">  1        4 0.97646683E-01 0.12499941E+03</pdfrwt>
<pdfrwt beam="1">  1       -4 0.94682940E-03 0.12499941E+03</pdfrwt>
<totfact> 0.46386631E+03</totfact>
</mgrwt>
</event>
<event>
 5    1  0.3284464E-002  0.1250000E+03  0.7818608E-02  0.1235069E+00
          4   -1    0    0  501    0  0.00000000000E+00  0.00000000000E+00  0.48949097455E+02  0.48965569961E+02  0.12700000000E+01 0. -1.
         -4   -1    0    0    0  501 -0.00000000000E+00 -0.00000000000E+00 -0.79767331346E+02  0.79777440734E+02  0.12700000000E+01 0. -1.
         25    2    1    2    0    0  0.00000000000E+00  0.00000000000E+00 -0.30818233891E+02  0.12874301069E+03  0.12499999705E+03 0.  0.
    9000005    1    3    3    0    0 -0.70089853932E+01  0.23018681462E+02  0.43991647199E+02  0.50152274083E+02  0.10000000000E+01 0.  0.
    9000005    1    3    3    0    0  0.70089853932E+01 -0.23018681462E+02 -0.74809881090E+02  0.78590736612E+02  0.10000000000E+01 0.  0.
<mgrwt>
<rscale>  0 0.12500000E+03</rscale>
<asrwt>0</asrwt>
<pdfrwt beam="1">  1        4 0.75326751E-02 0.12500000E+03</pdfrwt>
<pdfrwt beam="2">  1       -4 0.12273942E-01 0.12500000E+03</pdfrwt>
<totfact> 0.10371473E+04</totfact>
</mgrwt>
</event>
<event>
 5    1  0.3284464E-002  0.1250012E+03  0.7818608E-02  0.1235067E+00
         -4   -1    0    0    0  501 -0.00000000000E+00  0.00000000000E+00  0.22072474748E+03  0.22072840110E+03  0.12700000000E+01 0.  1.
          4   -1    0    0  501    0  0.00000000000E+00 -0.00000000000E+00 -0.17671136107E+02  0.17716713897E+02  0.12700000000E+01 0.  1.
         25    2    1    2    0    0  0.00000000000E+00  0.00000000000E+00  0.20305361137E+03  0.23844511499E+03  0.12500121508E+03 0.  0.
    9000005    1    3    3    0    0  0.47398915704E+02  0.29333449477E+02  0.15542010983E+03  0.16511668301E+03  0.10000000000E+01 0.  0.
    9000005    1    3    3    0    0 -0.47398915704E+02 -0.29333449477E+02  0.47633501546E+02  0.73328431988E+02  0.10000000000E+01 0.  0.
<mgrwt>
<rscale>  0 0.12500122E+03</rscale>
<asrwt>0</asrwt>
<pdfrwt beam="2">  1        4 0.27224234E-02 0.12500122E+03</pdfrwt>
<pdfrwt beam="1">  1       -4 0.33961440E-01 0.12500122E+03</pdfrwt>
<totfact> 0.84027209E+03</totfact>
</mgrwt>
</event>
<event>
 5    1  0.3284464E-002  0.1249931E+03  0.7818608E-02  0.1235080E+00
         -4   -1    0    0    0  501 -0.00000000000E+00  0.00000000000E+00  0.56399518785E+03  0.56399661774E+03  0.12700000000E+01 0.  1.
          4   -1    0    0  501    0  0.00000000000E+00 -0.00000000000E+00 -0.68655958667E+01  0.69820703667E+01  0.12700000000E+01 0.  1.
         25    2    1    2    0    0  0.00000000000E+00  0.00000000000E+00  0.55712959198E+03  0.57097868810E+03  0.12499311983E+03 0.  0.
    9000005    1    3    3    0    0 -0.51700456494E+02 -0.32394930646E+02  0.34026793140E+03  0.34569586905E+03  0.10000000000E+01 0.  0.
    9000005    1    3    3    0    0  0.51700456494E+02  0.32394930646E+02  0.21686166058E+03  0.22528281906E+03  0.10000000000E+01 0.  0.
<mgrwt>
<rscale>  0 0.12499312E+03</rscale>
<asrwt>0</asrwt>
<pdfrwt beam="2">  1        4 0.10653144E-02 0.12499312E+03</pdfrwt>
<pdfrwt beam="1">  1       -4 0.86777615E-01 0.12499312E+03</pdfrwt>
<totfact> 0.50759943E+03</totfact>
</mgrwt>
</event>
<event>
 5    1  0.3284464E-002  0.1249964E+03  0.7818608E-02  0.1235075E+00
          4   -1    0    0  501    0  0.00000000000E+00  0.00000000000E+00  0.11479920473E+03  0.11480622939E+03  0.12700000000E+01 0. -1.
         -4   -1    0    0    0  501 -0.00000000000E+00 -0.00000000000E+00 -0.34004940799E+02  0.34028648206E+02  0.12700000000E+01 0. -1.
         25    2    1    2    0    0  0.00000000000E+00  0.00000000000E+00  0.80794263930E+02  0.14883487759E+03  0.12499643077E+03 0.  0.
    9000005    1    3    3    0    0 -0.21087012454E+02  0.41968270132E+02 -0.86832027191E+01  0.47774426229E+02  0.10000000000E+01 0.  0.
    9000005    1    3    3    0    0  0.21087012454E+02 -0.41968270132E+02  0.89477466649E+02  0.10106045136E+03  0.10000000000E+01 0.  0.
<mgrwt>
<rscale>  0 0.12499643E+03</rscale>
<asrwt>0</asrwt>
<pdfrwt beam="1">  1        4 0.17663780E-01 0.12499643E+03</pdfrwt>
<pdfrwt beam="2">  1       -4 0.52338935E-02 0.12499643E+03</pdfrwt>
<totfact> 0.99544453E+03</totfact>
</mgrwt>
</event>
<event>
 5    1  0.3284464E-002  0.1250012E+03  0.7818608E-02  0.1235067E+00
          4   -1    0    0  501    0  0.00000000000E+00  0.00000000000E+00  0.12976494334E+03  0.12977115789E+03  0.12700000000E+01 0.  1.
         -4   -1    0    0    0  501 -0.00000000000E+00 -0.00000000000E+00 -0.30082774573E+02  0.30109570339E+02  0.12700000000E+01 0.  1.
         25    2    1    2    0    0  0.00000000000E+00  0.00000000000E+00  0.99682168763E+02  0.15988072823E+03  0.12500124995E+03 0.  0.
    9000005    1    3    3    0    0 -0.16202436780E+02  0.59315411064E+02  0.35570194841E+02  0.71042773794E+02  0.10000000000E+01 0.  0.
    9000005    1    3    3    0    0  0.16202436780E+02 -0.59315411064E+02  0.64111973922E+02  0.88837954431E+02  0.10000000000E+01 0.  0.
<mgrwt>
<rscale>  0 0.12500125E+03</rscale>
<asrwt>0</asrwt>
<pdfrwt beam="1">  1        4 0.19966377E-01 0.12500125E+03</pdfrwt>
<pdfrwt beam="2">  1       -4 0.46306584E-02 0.12500125E+03</pdfrwt>
<totfact> 0.97363049E+03</totfact>
</mgrwt>
</event>
<event>
 5    1  0.3284464E-002  0.1250018E+03  0.7818608E-02  0.1235066E+00
          4   -1    0    0  501    0  0.00000000000E+00  0.00000000000E+00  0.19429275803E+02  0.19470738512E+02  0.12700000000E+01 0. -1.
         -4   -1    0    0    0  501 -0.00000000000E+00 -0.00000000000E+00 -0.20079785944E+03  0.20080187562E+03  0.12700000000E+01 0. -1.
         25    2    1    2    0    0  0.00000000000E+00  0.00000000000E+00 -0.18136858363E+03  0.22027261414E+03  0.12500184562E+03 0.  0.
    9000005    1    3    3    0    0 -0.11631643020E+02 -0.20687803267E+02  0.11187238007E+02  0.26257086997E+02  0.10000000000E+01 0.  0.
    9000005    1    3    3    0    0  0.11631643020E+02  0.20687803267E+02 -0.19255582164E+03  0.19401552714E+03  0.10000000000E+01 0.  0.
<mgrwt>
<rscale>  0 0.12500185E+03</rscale>
<asrwt>0</asrwt>
<pdfrwt beam="1">  1        4 0.29926179E-02 0.12500185E+03</pdfrwt>
<pdfrwt beam="2">  1       -4 0.30895475E-01 0.12500185E+03</pdfrwt>
<totfact> 0.86821652E+03</totfact>
</mgrwt>
</event>
<event>
 5    1  0.3284464E-002  0.1249980E+03  0.7818608E-02  0.1235072E+00
         -4   -1    0    0    0  501 -0.00000000000E+00  0.00000000000E+00  0.19591436371E+02  0.19632556611E+02  0.12700000000E+01 0. -1.
          4   -1    0    0  501    0  0.00000000000E+00 -0.00000000000E+00 -0.19912708152E+03  0.19913113140E+03  0.12700000000E+01 0. -1.
         25    2    1    2    0    0  0.00000000000E+00  0.00000000000E+00 -0.17953564515E+03  0.21876368802E+03  0.12499801325E+03 0.  0.
    9000005    1    3    3    0    0  0.38459362652E+02 -0.48315833709E+02 -0.10651650564E+03  0.12312720388E+03  0.10000000000E+01 0.  0.
    9000005    1    3    3    0    0 -0.38459362652E+02  0.48315833709E+02 -0.73019139511E+02  0.95636484134E+02  0.10000000000E+01 0.  0.
<mgrwt>
<rscale>  0 0.12499801E+03</rscale>
<asrwt>0</asrwt>
<pdfrwt beam="2">  1        4 0.30638409E-01 0.12499801E+03</pdfrwt>
<pdfrwt beam="1">  1       -4 0.30175419E-02 0.12499801E+03</pdfrwt>
<totfact> 0.87068223E+03</totfact>
</mgrwt>
</event>
<event>
 5    1  0.3284464E-002  0.1249999E+03  0.7818608E-02  0.1235069E+00
         -4   -1    0    0    0  501 -0.00000000000E+00  0.00000000000E+00  0.14561419481E+04  0.14561425019E+04  0.12700000000E+01 0.  1.
          4   -1    0    0  501    0  0.00000000000E+00 -0.00000000000E+00 -0.25317024287E+01  0.28323871888E+01  0.12700000000E+01 0.  1.
         25    2    1    2    0    0  0.00000000000E+00  0.00000000000E+00  0.14536102456E+04  0.14589748891E+04  0.12499992299E+03 0.  0.
    9000005    1    3    3    0    0 -0.38353647897E+01  0.58668092619E+02  0.47959690666E+03  0.48318821177E+03  0.10000000000E+01 0.  0.
    9000005    1    3    3    0    0  0.38353647897E+01 -0.58668092619E+02  0.97401333897E+03  0.97578667731E+03  0.10000000000E+01 0.  0.
<mgrwt>
<rscale>  0 0.12499992E+03</rscale>
<asrwt>0</asrwt>
<pdfrwt beam="2">  1        4 0.41266403E-03 0.12499992E+03</pdfrwt>
<pdfrwt beam="1">  1       -4 0.22404547E+00 0.12499992E+03</pdfrwt>
<totfact> 0.18749629E+03</totfact>
</mgrwt>
</event>
<event>
 5    1  0.3284464E-002  0.1250020E+03  0.7818608E-02  0.1235066E+00
         -4   -1    0    0    0  501 -0.00000000000E+00  0.00000000000E+00  0.12649160067E+02  0.12712755421E+02  0.12700000000E+01 0.  1.
          4   -1    0    0  501    0  0.00000000000E+00 -0.00000000000E+00 -0.30798564208E+03  0.30798826053E+03  0.12700000000E+01 0.  1.
         25    2    1    2    0    0  0.00000000000E+00  0.00000000000E+00 -0.29533648201E+03  0.32070101596E+03  0.12500201609E+03 0.  0.
    9000005    1    3    3    0    0 -0.48282851147E+02 -0.39376884402E+02 -0.16013258356E+03  0.17182903439E+03  0.10000000000E+01 0.  0.
    9000005    1    3    3    0    0  0.48282851147E+02  0.39376884402E+02 -0.13520389845E+03  0.14887198157E+03  0.10000000000E+01 0.  0.
<mgrwt>
<rscale>  0 0.12500202E+03</rscale>
<asrwt>0</asrwt>
<pdfrwt beam="2">  1        4 0.47387494E-01 0.12500202E+03</pdfrwt>
<pdfrwt beam="1">  1       -4 0.19511182E-02 0.12500202E+03</pdfrwt>
<totfact> 0.73069563E+03</totfact>
</mgrwt>
</event>
<event>
 5    1  0.3284464E-002  0.1250009E+03  0.7818608E-02  0.1235068E+00
         -4   -1    0    0    0  501 -0.00000000000E+00  0.00000000000E+00  0.13154599071E+03  0.13155212113E+03  0.12700000000E+01 0. -1.
          4   -1    0    0  501    0  0.00000000000E+00 -0.00000000000E+00 -0.29674940468E+02  0.29702104164E+02  0.12700000000E+01 0. -1.
         25    2    1    2    0    0  0.00000000000E+00  0.00000000000E+00  0.10187105025E+03  0.16125422529E+03  0.12500085718E+03 0.  0.
    9000005    1    3    3    0    0 -0.27208583629E+02 -0.31540655687E+02 -0.91605832680E+01  0.42661883105E+02  0.10000000000E+01 0.  0.
    9000005    1    3    3    0    0  0.27208583629E+02  0.31540655687E+02  0.11103163351E+03  0.11859234218E+03  0.10000000000E+01 0.  0.
<mgrwt>
<rscale>  0 0.12500086E+03</rscale>
<asrwt>0</asrwt>
<pdfrwt beam="2">  1        4 0.45679365E-02 0.12500086E+03</pdfrwt>
<pdfrwt beam="1">  1       -4 0.20240406E-01 0.12500086E+03</pdfrwt>
<totfact> 0.97099653E+03</totfact>
</mgrwt>
</event>
<event>
 5    1  0.3284464E-002  0.1250025E+03  0.7818608E-02  0.1235065E+00
          4   -1    0    0  501    0  0.00000000000E+00  0.00000000000E+00  0.51796627130E+02  0.51812194338E+02  0.12700000000E+01 0.  1.
         -4   -1    0    0    0  501 -0.00000000000E+00 -0.00000000000E+00 -0.75385925193E+02  0.75396622054E+02  0.12700000000E+01 0.  1.
         25    2    1    2    0    0  0.00000000000E+00  0.00000000000E+00 -0.23589298062E+02  0.12720881639E+03  0.12500251191E+03 0.  0.
    9000005    1    3    3    0    0  0.35377452690E+02 -0.50073975850E+02 -0.24109467241E+02  0.65888038573E+02  0.10000000000E+01 0.  0.
    9000005    1    3    3    0    0 -0.35377452690E+02  0.50073975850E+02  0.52016917898E+00  0.61320777819E+02  0.10000000000E+01 0.  0.
<mgrwt>
<rscale>  0 0.12500251E+03</rscale>
<asrwt>0</asrwt>
<pdfrwt beam="1">  1        4 0.79707321E-02 0.12500251E+03</pdfrwt>
<pdfrwt beam="2">  1       -4 0.11599855E-01 0.12500251E+03</pdfrwt>
<totfact> 0.10404022E+04</totfact>
</mgrwt>
</event>
<event>
 5    1  0.3284464E-002  0.1249949E+03  0.7818608E-02  0.1235077E+00
          4   -1    0    0  501    0  0.00000000000E+00  0.00000000000E+00  0.24132320333E+03  0.24132654509E+03  0.12700000000E+01 0.  1.
         -4   -1    0    0    0  501 -0.00000000000E+00 -0.00000000000E+00 -0.16157100734E+02  0.16206936914E+02  0.12700000000E+01 0.  1.
         25    2    1    2    0    0  0.00000000000E+00  0.00000000000E+00  0.22516610259E+03  0.25753348200E+03  0.12499488227E+03 0.  0.
    9000005    1    3    3    0    0  0.33648227694E+02 -0.52156138836E+02  0.97659485803E+02  0.11571880233E+03  0.10000000000E+01 0.  0.
    9000005    1    3    3    0    0 -0.33648227694E+02  0.52156138836E+02  0.12750661679E+03  0.14181467967E+03  0.10000000000E+01 0.  0.
<mgrwt>
<rscale>  0 0.12499488E+03</rscale>
<asrwt>0</asrwt>
<pdfrwt beam="1">  1        4 0.37130734E-01 0.12499488E+03</pdfrwt>
<pdfrwt beam="2">  1       -4 0.24897986E-02 0.12499488E+03</pdfrwt>
<totfact> 0.81262712E+03</totfact>
</mgrwt>
</event>
<event>
 5    1  0.3284464E-002  0.1250009E+03  0.7818608E-02  0.1235068E+00
         -4   -1    0    0    0  501 -0.00000000000E+00  0.00000000000E+00  0.25154025513E+02  0.25186065582E+02  0.12700000000E+01 0. -1.
          4   -1    0    0  501    0  0.00000000000E+00 -0.00000000000E+00 -0.15516201341E+03  0.15516721080E+03  0.12700000000E+01 0. -1.
         25    2    1    2    0    0  0.00000000000E+00  0.00000000000E+00 -0.13000798790E+03  0.18035327638E+03  0.12500090953E+03 0.  0.
    9000005    1    3    3    0    0 -0.37222976647E+02 -0.18858431521E+02  0.21158862981E+01  0.41793150213E+02  0.10000000000E+01 0.  0.
    9000005    1    3    3    0    0  0.37222976647E+02  0.18858431521E+02 -0.13212387420E+03  0.13856012616E+03  0.10000000000E+01 0.  0.
<mgrwt>
<rscale>  0 0.12500091E+03</rscale>
<asrwt>0</asrwt>
<pdfrwt beam="2">  1        4 0.23873943E-01 0.12500091E+03</pdfrwt>
<pdfrwt beam="1">  1       -4 0.38727146E-02 0.12500091E+03</pdfrwt>
<totfact> 0.93551543E+03</totfact>
</mgrwt>
</event>
<event>
 5    1  0.3284464E-002  0.1250387E+03  0.7818608E-02  0.1235009E+00
         -4   -1    0    0    0  501 -0.00000000000E+00  0.00000000000E+00  0.28654738916E+03  0.28655020352E+03  0.12700000000E+01 0. -1.
          4   -1    0    0  501    0  0.00000000000E+00 -0.00000000000E+00 -0.13608121860E+02  0.13667255780E+02  0.12700000000E+01 0. -1.
         25    2    1    2    0    0  0.00000000000E+00  0.00000000000E+00  0.27293926730E+03  0.30021745930E+03  0.12503871093E+03 0.  0.
    9000005    1    3    3    0    0 -0.21589470765E+02  0.45533846860E+02  0.47657655484E+02  0.69366336101E+02  0.10000000000E+01 0.  0.
    9000005    1    3    3    0    0  0.21589470765E+02 -0.45533846860E+02  0.22528161182E+03  0.23085112320E+03  0.10000000000E+01 0.  0.
<mgrwt>
<rscale>  0 0.12503871E+03</rscale>
<asrwt>0</asrwt>
<pdfrwt beam="2">  1        4 0.20983225E-02 0.12503871E+03</pdfrwt>
<pdfrwt beam="1">  1       -4 0.44088979E-01 0.12503871E+03</pdfrwt>
<totfact> 0.75506663E+03</totfact>
</mgrwt>
</event>
<event>
 5    1  0.3284464E-002  0.1250015E+03  0.7818608E-02  0.1235067E+00
          4   -1    0    0  501    0  0.00000000000E+00  0.00000000000E+00  0.24807650315E+03  0.24807975394E+03  0.12700000000E+01 0.  1.
         -4   -1    0    0    0  501 -0.00000000000E+00 -0.00000000000E+00 -0.15717554330E+02  0.15768779728E+02  0.12700000000E+01 0.  1.
         25    2    1    2    0    0  0.00000000000E+00  0.00000000000E+00  0.23235894882E+03  0.26384853367E+03  0.12500147048E+03 0.  0.
    9000005    1    3    3    0    0 -0.34566645439E+02 -0.49025436557E+02  0.15316276646E+03  0.16449370637E+03  0.10000000000E+01 0.  0.
    9000005    1    3    3    0    0  0.34566645439E+02  0.49025436557E+02  0.79196182358E+02  0.99354827294E+02  0.10000000000E+01 0.  0.
<mgrwt>
<rscale>  0 0.12500147E+03</rscale>
<asrwt>0</asrwt>
<pdfrwt beam="1">  1        4 0.38169804E-01 0.12500147E+03</pdfrwt>
<pdfrwt beam="2">  1       -4 0.24222759E-02 0.12500147E+03</pdfrwt>
<totfact> 0.80366360E+03</totfact>
</mgrwt>
</event>
<event>
 5    1  0.3284464E-002  0.1250100E+03  0.7818608E-02  0.1235054E+00
         -4   -1    0    0    0  501 -0.00000000000E+00  0.00000000000E+00  0.20188831158E+04  0.20188835152E+04  0.12700000000E+01 0. -1.
          4   -1    0    0  501    0  0.00000000000E+00 -0.00000000000E+00 -0.17263558840E+01  0.21431762966E+01  0.12700000000E+01 0. -1.
         25    2    1    2    0    0  0.00000000000E+00  0.00000000000E+00  0.20171567599E+04  0.20210266915E+04  0.12500997513E+03 0.  0.
    9000005    1    3    3    0    0  0.45388397418E+02 -0.18553202293E+02  0.16350431225E+04  0.16357785120E+04  0.10000000000E+01 0.  0.
    9000005    1    3    3    0    0 -0.45388397418E+02  0.18553202293E+02  0.38211363736E+03  0.38524817948E+03  0.10000000000E+01 0.  0.
<mgrwt>
<rscale>  0 0.12500998E+03</rscale>
<asrwt>0</asrwt>
<pdfrwt beam="2">  1        4 0.29768596E-03 0.12500998E+03</pdfrwt>
<pdfrwt beam="1">  1       -4 0.31063063E+00 0.12500998E+03</pdfrwt>
<totfact> 0.95870290E+02</totfact>
</mgrwt>
</event>
<event>
 5    1  0.3284464E-002  0.1250015E+03  0.7818608E-02  0.1235067E+00
         -4   -1    0    0    0  501 -0.00000000000E+00  0.00000000000E+00  0.38979458763E+03  0.38979665653E+03  0.12700000000E+01 0.  1.
          4   -1    0    0  501    0  0.00000000000E+00 -0.00000000000E+00 -0.99791996283E+01  0.10059688127E+02  0.12700000000E+01 0.  1.
         25    2    1    2    0    0  0.00000000000E+00  0.00000000000E+00  0.37981538800E+03  0.39985634466E+03  0.12500146961E+03 0.  0.
    9000005    1    3    3    0    0 -0.61641111862E+02  0.50272774673E+01  0.21859761724E+03  0.22718014538E+03  0.10000000000E+01 0.  0.
    9000005    1    3    3    0    0  0.61641111862E+02 -0.50272774673E+01  0.16121777076E+03  0.17267619928E+03  0.10000000000E+01 0.  0.
<mgrwt>
<rscale>  0 0.12500147E+03</rscale>
<asrwt>0</asrwt>
<pdfrwt beam="2">  1        4 0.15416121E-02 0.12500147E+03</pdfrwt>
<pdfrwt beam="1">  1       -4 0.59974748E-01 0.12500147E+03</pdfrwt>
<totfact> 0.64564667E+03</totfact>
</mgrwt>
</event>
<event>
 5    1  0.3284464E-002  0.1249996E+03  0.7818608E-02  0.1235070E+00
          4   -1    0    0  501    0  0.00000000000E+00  0.00000000000E+00  0.44857962359E+02  0.44875936614E+02  0.12700000000E+01 0.  1.
         -4   -1    0    0    0  501 -0.00000000000E+00 -0.00000000000E+00 -0.87039750703E+02  0.87049015516E+02  0.12700000000E+01 0.  1.
         25    2    1    2    0    0  0.00000000000E+00  0.00000000000E+00 -0.42181788344E+02  0.13192495213E+03  0.12499955891E+03 0.  0.
    9000005    1    3    3    0    0 -0.58842418244E+02  0.94790580117E+01 -0.40918429147E+02  0.72302147751E+02  0.10000000000E+01 0.  0.
    9000005    1    3    3    0    0  0.58842418244E+02 -0.94790580117E+01 -0.12633591967E+01  0.59622804379E+02  0.10000000000E+01 0.  0.
<mgrwt>
<rscale>  0 0.12499956E+03</rscale>
<asrwt>0</asrwt>
<pdfrwt beam="1">  1        4 0.69033203E-02 0.12499956E+03</pdfrwt>
<pdfrwt beam="2">  1       -4 0.13392826E-01 0.12499956E+03</pdfrwt>
<totfact> 0.10303403E+04</totfact>
</mgrwt>
</event>
<event>
 5    1  0.3284464E-002  0.1249997E+03  0.7818608E-02  0.1235070E+00
          4   -1    0    0  501    0  0.00000000000E+00  0.00000000000E+00  0.33346055387E+02  0.33370230893E+02  0.12700000000E+01 0. -1.
         -4   -1    0    0    0  501 -0.00000000000E+00 -0.00000000000E+00 -0.11707221165E+03  0.11707909993E+03  0.12700000000E+01 0. -1.
         25    2    1    2    0    0  0.00000000000E+00  0.00000000000E+00 -0.83726156262E+02  0.15044933082E+03  0.12499972761E+03 0.  0.
    9000005    1    3    3    0    0 -0.77026795952E+01  0.18702080031E+02  0.29303358830E+02  0.35620021184E+02  0.10000000000E+01 0.  0.
    9000005    1    3    3    0    0  0.77026795952E+01 -0.18702080031E+02 -0.11302951509E+03  0.11482930964E+03  0.10000000000E+01 0.  0.
<mgrwt>
<rscale>  0 0.12499973E+03</rscale>
<asrwt>0</asrwt>
<pdfrwt beam="1">  1        4 0.51325520E-02 0.12499973E+03</pdfrwt>
<pdfrwt beam="2">  1       -4 0.18013499E-01 0.12499973E+03</pdfrwt>
<totfact> 0.99214814E+03</totfact>
</mgrwt>
</event>
<event>
 5    1  0.3284464E-002  0.1249992E+03  0.7818608E-02  0.1235071E+00
         -4   -1    0    0    0  501 -0.00000000000E+00  0.00000000000E+00  0.27869185358E+02  0.27898107328E+02  0.12700000000E+01 0. -1.
          4   -1    0    0  501    0  0.00000000000E+00 -0.00000000000E+00 -0.14005751941E+03  0.14006327728E+03  0.12700000000E+01 0. -1.
         25    2    1    2    0    0  0.00000000000E+00  0.00000000000E+00 -0.11218833405E+03  0.16796138461E+03  0.12499921769E+03 0.  0.
    9000005    1    3    3    0    0 -0.53633387115E+02 -0.70422791300E+01 -0.98138590449E+02  0.11206389626E+03  0.10000000000E+01 0.  0.
    9000005    1    3    3    0    0  0.53633387115E+02  0.70422791300E+01 -0.14049743600E+02  0.55897488352E+02  0.10000000000E+01 0.  0.
<mgrwt>
<rscale>  0 0.12499922E+03</rscale>
<asrwt>0</asrwt>
<pdfrwt beam="2">  1        4 0.21549978E-01 0.12499922E+03</pdfrwt>
<pdfrwt beam="1">  1       -4 0.42902347E-02 0.12499922E+03</pdfrwt>
<totfact> 0.95831158E+03</totfact>
</mgrwt>
</event>
<event>
 5    1  0.3284464E-002  0.1249991E+03  0.7818608E-02  0.1235071E+00
         -4   -1    0    0    0  501 -0.00000000000E+00  0.00000000000E+00  0.17499972572E+03  0.17500433395E+03  0.12700000000E+01 0. -1.
          4   -1    0    0  501    0  0.00000000000E+00 -0.00000000000E+00 -0.22298163815E+02  0.22334301187E+02  0.12700000000E+01 0. -1.
         25    2    1    2    0    0  0.00000000000E+00  0.00000000000E+00  0.15270156190E+03  0.19733863514E+03  0.12499907964E+03 0.  0.
    9000005    1    3    3    0    0  0.32535888705E+02 -0.51445361816E+02  0.98676323943E+02  0.11594492750E+03  0.10000000000E+01 0.  0.
    9000005    1    3    3    0    0 -0.32535888705E+02  0.51445361816E+02  0.54025237959E+02  0.81393707636E+02  0.10000000000E+01 0.  0.
<mgrwt>
<rscale>  0 0.12499908E+03</rscale>
<asrwt>0</asrwt>
<pdfrwt beam="2">  1        4 0.34336211E-02 0.12499908E+03</pdfrwt>
<pdfrwt beam="1">  1       -4 0.26926168E-01 0.12499908E+03</pdfrwt>
<totfact> 0.90587729E+03</totfact>
</mgrwt>
</event>
<event>
 5    1  0.3284464E-002  0.1249965E+03  0.7818608E-02  0.1235075E+00
          4   -1    0    0  501    0  0.00000000000E+00  0.00000000000E+00  0.89230691311E+01  0.90129941040E+01  0.12700000000E+01 0.  1.
         -4   -1    0    0    0  501 -0.00000000000E+00 -0.00000000000E+00 -0.43545994928E+03  0.43546180123E+03  0.12700000000E+01 0.  1.
         25    2    1    2    0    0  0.00000000000E+00  0.00000000000E+00 -0.42653688015E+03  0.44447479533E+03  0.12499653418E+03 0.  0.
    9000005    1    3    3    0    0 -0.78173088169E+01 -0.61985302705E+02 -0.20857072400E+03  0.21772926992E+03  0.10000000000E+01 0.  0.
    9000005    1    3    3    0    0  0.78173088169E+01  0.61985302705E+02 -0.21796615615E+03  0.22674552541E+03  0.10000000000E+01 0.  0.
<mgrwt>
<rscale>  0 0.12499653E+03</rscale>
<asrwt>0</asrwt>
<pdfrwt beam="1">  1        4 0.13798400E-02 0.12499653E+03</pdfrwt>
<pdfrwt beam="2">  1       -4 0.67000882E-01 0.12499653E+03</pdfrwt>
<totfact> 0.60450073E+03</totfact>
</mgrwt>
</event>
<event>
 5    1  0.3284464E-002  0.1249904E+03  0.7818608E-02  0.1235084E+00
          4   -1    0    0  501    0  0.00000000000E+00  0.00000000000E+00  0.14883228788E+03  0.14883770630E+03  0.12700000000E+01 0.  1.
         -4   -1    0    0    0  501 -0.00000000000E+00 -0.00000000000E+00 -0.26220689727E+02  0.26251427957E+02  0.12700000000E+01 0.  1.
         25    2    1    2    0    0  0.00000000000E+00  0.00000000000E+00  0.12261159815E+03  0.17508913425E+03  0.12499040336E+03 0.  0.
    9000005    1    3    3    0    0 -0.46652858615E+02  0.40180453195E+02  0.46369333051E+02  0.77084843410E+02  0.10000000000E+01 0.  0.
    9000005    1    3    3    0    0  0.46652858615E+02 -0.40180453195E+02  0.76242265102E+02  0.98004290844E+02  0.10000000000E+01 0.  0.
<mgrwt>
<rscale>  0 0.12499040E+03</rscale>
<asrwt>0</asrwt>
<pdfrwt beam="1">  1        4 0.22900057E-01 0.12499040E+03</pdfrwt>
<pdfrwt beam="2">  1       -4 0.40367335E-02 0.12499040E+03</pdfrwt>
<totfact> 0.94528866E+03</totfact>
</mgrwt>
</event>
<event>
 5    1  0.3284464E-002  0.1249735E+03  0.7818608E-02  0.1235111E+00
          4   -1    0    0  501    0  0.00000000000E+00  0.00000000000E+00  0.24173179891E+03  0.24173513502E+03  0.12700000000E+01 0. -1.
         -4   -1    0    0    0  501 -0.00000000000E+00 -0.00000000000E+00 -0.16124171681E+02  0.16174109323E+02  0.12700000000E+01 0. -1.
         25    2    1    2    0    0  0.00000000000E+00  0.00000000000E+00  0.22560762723E+03  0.25790924434E+03  0.12497350461E+03 0.  0.
    9000005    1    3    3    0    0  0.54395213566E+02 -0.31274404369E+01  0.49700997124E+02  0.73755062590E+02  0.10000000000E+01 0.  0.
    9000005    1    3    3    0    0 -0.54395213566E+02  0.31274404369E+01  0.17590663011E+03  0.18415418175E+03  0.10000000000E+01 0.  0.
<mgrwt>
<rscale>  0 0.12497350E+03</rscale>
<asrwt>0</asrwt>
<pdfrwt beam="1">  1        4 0.37193605E-01 0.12497350E+03</pdfrwt>
<pdfrwt beam="2">  1       -4 0.24847398E-02 0.12497350E+03</pdfrwt>
<totfact> 0.81248283E+03</totfact>
</mgrwt>
</event>
<event>
 5    1  0.3284464E-002  0.1249532E+03  0.7818608E-02  0.1235143E+00
          4   -1    0    0  501    0  0.00000000000E+00  0.00000000000E+00  0.10550943449E+03  0.10551707760E+03  0.12700000000E+01 0.  1.
         -4   -1    0    0    0  501 -0.00000000000E+00 -0.00000000000E+00 -0.36975123463E+02  0.36996927644E+02  0.12700000000E+01 0.  1.
         25    2    1    2    0    0  0.00000000000E+00  0.00000000000E+00  0.68534311023E+02  0.14251400525E+03  0.12495315084E+03 0.  0.
    9000005    1    3    3    0    0 -0.61539283812E+02 -0.83265952375E+01  0.41994833429E+02  0.74973206381E+02  0.10000000000E+01 0.  0.
    9000005    1    3    3    0    0  0.61539283812E+02  0.83265952375E+01  0.26539477594E+02  0.67540798865E+02  0.10000000000E+01 0.  0.
<mgrwt>
<rscale>  0 0.12495315E+03</rscale>
<asrwt>0</asrwt>
<pdfrwt beam="1">  1        4 0.16234486E-01 0.12495315E+03</pdfrwt>
<pdfrwt beam="2">  1       -4 0.56907458E-02 0.12495315E+03</pdfrwt>
<totfact> 0.10092391E+04</totfact>
</mgrwt>
</event>
<event>
 5    1  0.3284464E-002  0.1249928E+03  0.7818608E-02  0.1235081E+00
         -4   -1    0    0    0  501 -0.00000000000E+00  0.00000000000E+00  0.28420210667E+02  0.28448572448E+02  0.12700000000E+01 0. -1.
          4   -1    0    0  501    0  0.00000000000E+00 -0.00000000000E+00 -0.13733051790E+03  0.13733639010E+03  0.12700000000E+01 0. -1.
         25    2    1    2    0    0  0.00000000000E+00  0.00000000000E+00 -0.10891030723E+03  0.16578496255E+03  0.12499279494E+03 0.  0.
    9000005    1    3    3    0    0 -0.62331235476E+02 -0.44290826434E+01 -0.54458820256E+02  0.82894890028E+02  0.10000000000E+01 0.  0.
    9000005    1    3    3    0    0  0.62331235476E+02  0.44290826434E+01 -0.54451486977E+02  0.82890072524E+02  0.10000000000E+01 0.  0.
<mgrwt>
<rscale>  0 0.12499279E+03</rscale>
<asrwt>0</asrwt>
<pdfrwt beam="2">  1        4 0.21130405E-01 0.12499279E+03</pdfrwt>
<pdfrwt beam="1">  1       -4 0.43749735E-02 0.12499279E+03</pdfrwt>
<totfact> 0.96254517E+03</totfact>
</mgrwt>
</event>
<event>
 5    1  0.3284464E-002  0.1249999E+03  0.7818608E-02  0.1235069E+00
          4   -1    0    0  501    0  0.00000000000E+00  0.00000000000E+00  0.16554742760E+02  0.16603385434E+02  0.12700000000E+01 0.  1.
         -4   -1    0    0    0  501 -0.00000000000E+00 -0.00000000000E+00 -0.23556267763E+03  0.23556610111E+03  0.12700000000E+01 0.  1.
         25    2    1    2    0    0  0.00000000000E+00  0.00000000000E+00 -0.21900793487E+03  0.25216948655E+03  0.12499989763E+03 0.  0.
    9000005    1    3    3    0    0 -0.16076827425E+02  0.36787090492E+02 -0.12891933323E+02  0.42177675988E+02  0.10000000000E+01 0.  0.
    9000005    1    3    3    0    0  0.16076827425E+02 -0.36787090492E+02 -0.20611600155E+03  0.20999181056E+03  0.10000000000E+01 0.  0.
<mgrwt>
<rscale>  0 0.12499990E+03</rscale>
<asrwt>0</asrwt>
<pdfrwt beam="1">  1        4 0.25508888E-02 0.12499990E+03</pdfrwt>
<pdfrwt beam="2">  1       -4 0.36244415E-01 0.12499990E+03</pdfrwt>
<totfact> 0.82017865E+03</totfact>
</mgrwt>
</event>
<event>
 5    1  0.3284464E-002  0.1250046E+03  0.7818608E-02  0.1235062E+00
          4   -1    0    0  501    0  0.00000000000E+00  0.00000000000E+00  0.63881504204E+02  0.63894127112E+02  0.12700000000E+01 0.  1.
         -4   -1    0    0    0  501 -0.00000000000E+00 -0.00000000000E+00 -0.61127654351E+02  0.61140845811E+02  0.12700000000E+01 0.  1.
         25    2    1    2    0    0  0.00000000000E+00  0.00000000000E+00  0.27538498533E+01  0.12503497292E+03  0.12500464297E+03 0.  0.
    9000005    1    3    3    0    0 -0.40067692381E+02 -0.22341102514E+02  0.43825357360E+02  0.63452397764E+02  0.10000000000E+01 0.  0.
    9000005    1    3    3    0    0  0.40067692381E+02  0.22341102514E+02 -0.41071507507E+02  0.61582575159E+02  0.10000000000E+01 0.  0.
<mgrwt>
<rscale>  0 0.12500464E+03</rscale>
<asrwt>0</asrwt>
<pdfrwt beam="1">  1        4 0.98299094E-02 0.12500464E+03</pdfrwt>
<pdfrwt beam="2">  1       -4 0.94062403E-02 0.12500464E+03</pdfrwt>
<totfact> 0.10451006E+04</totfact>
</mgrwt>
</event>
<event>
 5    1  0.3284464E-002  0.1250003E+03  0.7818608E-02  0.1235069E+00
          4   -1    0    0  501    0  0.00000000000E+00  0.00000000000E+00  0.29872859820E+01  0.32460402860E+01  0.12700000000E+01 0. -1.
         -4   -1    0    0    0  501 -0.00000000000E+00 -0.00000000000E+00 -0.12530898111E+04  0.12530904547E+04  0.12700000000E+01 0. -1.
         25    2    1    2    0    0  0.00000000000E+00  0.00000000000E+00 -0.12501025252E+04  0.12563364950E+04  0.12500026100E+03 0.  0.
    9000005    1    3    3    0    0 -0.53328362025E+02  0.15568570926E+02 -0.91267816708E+03  0.91436794085E+03  0.10000000000E+01 0.  0.
    9000005    1    3    3    0    0  0.53328362025E+02 -0.15568570926E+02 -0.33742435808E+03  0.34196855414E+03  0.10000000000E+01 0.  0.
<mgrwt>
<rscale>  0 0.12500026E+03</rscale>
<asrwt>0</asrwt>
<pdfrwt beam="1">  1        4 0.47953714E-03 0.12500026E+03</pdfrwt>
<pdfrwt beam="2">  1       -4 0.19280260E+00 0.12500026E+03</pdfrwt>
<totfact> 0.23283002E+03</totfact>
</mgrwt>
</event>
<event>
 5    1  0.3284464E-002  0.1249974E+03  0.7818608E-02  0.1235073E+00
          4   -1    0    0  501    0  0.00000000000E+00  0.00000000000E+00  0.45670576423E+03  0.45670753002E+03  0.12700000000E+01 0. -1.
         -4   -1    0    0    0  501 -0.00000000000E+00 -0.00000000000E+00 -0.85038100563E+01  0.85981210432E+01  0.12700000000E+01 0. -1.
         25    2    1    2    0    0  0.00000000000E+00  0.00000000000E+00  0.44820195417E+03  0.46530565107E+03  0.12499742873E+03 0.  0.
    9000005    1    3    3    0    0 -0.45242852296E+02  0.43715940597E+01  0.38373870023E+03  0.38642258807E+03  0.10000000000E+01 0.  0.
    9000005    1    3    3    0    0  0.45242852296E+02 -0.43715940597E+01  0.64463253947E+02  0.78883062998E+02  0.10000000000E+01 0.  0.
<mgrwt>
<rscale>  0 0.12499743E+03</rscale>
<asrwt>0</asrwt>
<pdfrwt beam="1">  1        4 0.70269834E-01 0.12499743E+03</pdfrwt>
<pdfrwt beam="2">  1       -4 0.13156687E-02 0.12499743E+03</pdfrwt>
<totfact> 0.58663735E+03</totfact>
</mgrwt>
</event>
<event>
 5    1  0.3284464E-002  0.1250094E+03  0.7818608E-02  0.1235055E+00
         -4   -1    0    0    0  501 -0.00000000000E+00  0.00000000000E+00  0.14137648384E+02  0.14194576494E+02  0.12700000000E+01 0.  1.
          4   -1    0    0  501    0  0.00000000000E+00 -0.00000000000E+00 -0.27572895222E+03  0.27573187700E+03  0.12700000000E+01 0.  1.
         25    2    1    2    0    0  0.00000000000E+00  0.00000000000E+00 -0.26159130384E+03  0.28992645349E+03  0.12500935242E+03 0.  0.
    9000005    1    3    3    0    0  0.41362152069E+02  0.15133344866E+02 -0.23362944542E+03  0.23774684754E+03  0.10000000000E+01 0.  0.
    9000005    1    3    3    0    0 -0.41362152069E+02 -0.15133344866E+02 -0.27961858417E+02  0.52179605946E+02  0.10000000000E+01 0.  0.
<mgrwt>
<rscale>  0 0.12500935E+03</rscale>
<asrwt>0</asrwt>
<pdfrwt beam="2">  1        4 0.42424439E-01 0.12500935E+03</pdfrwt>
<pdfrwt beam="1">  1       -4 0.21796271E-02 0.12500935E+03</pdfrwt>
<totfact> 0.76864105E+03</totfact>
</mgrwt>
</event>
<event>
 5    1  0.3284464E-002  0.1249994E+03  0.7818608E-02  0.1235070E+00
          4   -1    0    0  501    0  0.00000000000E+00  0.00000000000E+00  0.19328303935E+02  0.19369982783E+02  0.12700000000E+01 0. -1.
         -4   -1    0    0    0  501 -0.00000000000E+00 -0.00000000000E+00 -0.20183681960E+03  0.20184081512E+03  0.12700000000E+01 0. -1.
         25    2    1    2    0    0  0.00000000000E+00  0.00000000000E+00 -0.18250851567E+03  0.22121079790E+03  0.12499943527E+03 0.  0.
    9000005    1    3    3    0    0 -0.45134776970E+02  0.16738473291E+02 -0.16177363941E+03  0.16878695148E+03  0.10000000000E+01 0.  0.
    9000005    1    3    3    0    0  0.45134776970E+02 -0.16738473291E+02 -0.20734876251E+02  0.52423846419E+02  0.10000000000E+01 0.  0.
<mgrwt>
<rscale>  0 0.12499944E+03</rscale>
<asrwt>0</asrwt>
<pdfrwt beam="1">  1        4 0.29770988E-02 0.12499944E+03</pdfrwt>
<pdfrwt beam="2">  1       -4 0.31055330E-01 0.12499944E+03</pdfrwt>
<totfact> 0.86678212E+03</totfact>
</mgrwt>
</event>
<event>
 5    1  0.3284464E-002  0.1249995E+03  0.7818608E-02  0.1235070E+00
          4   -1    0    0  501    0  0.00000000000E+00  0.00000000000E+00  0.34021875312E+02  0.34045570927E+02  0.12700000000E+01 0.  1.
         -4   -1    0    0    0  501 -0.00000000000E+00 -0.00000000000E+00 -0.11474775464E+03  0.11475478245E+03  0.12700000000E+01 0.  1.
         25    2    1    2    0    0  0.00000000000E+00  0.00000000000E+00 -0.80725879330E+02  0.14880035338E+03  0.12499951029E+03 0.  0.
    9000005    1    3    3    0    0 -0.56782230297E+02 -0.20872657821E+02 -0.21717575665E+02  0.64284855252E+02  0.10000000000E+01 0.  0.
    9000005    1    3    3    0    0  0.56782230297E+02  0.20872657821E+02 -0.59008303666E+02  0.84515498126E+02  0.10000000000E+01 0.  0.
<mgrwt>
<rscale>  0 0.12499951E+03</rscale>
<asrwt>0</asrwt>
<pdfrwt beam="1">  1        4 0.52364981E-02 0.12499951E+03</pdfrwt>
<pdfrwt beam="2">  1       -4 0.17655864E-01 0.12499951E+03</pdfrwt>
<totfact> 0.99544466E+03</totfact>
</mgrwt>
</event>
<event>
 5    1  0.3284464E-002  0.1250011E+03  0.7818608E-02  0.1235068E+00
         -4   -1    0    0    0  501 -0.00000000000E+00  0.00000000000E+00  0.63305506383E+01  0.64566842407E+01  0.12700000000E+01 0. -1.
          4   -1    0    0  501    0  0.00000000000E+00 -0.00000000000E+00 -0.61084450919E+03  0.61084582941E+03  0.12700000000E+01 0. -1.
         25    2    1    2    0    0  0.00000000000E+00  0.00000000000E+00 -0.60451395855E+03  0.61730251365E+03  0.12500106910E+03 0.  0.
    9000005    1    3    3    0    0 -0.23285129229E+02 -0.50739247333E+02 -0.16357308792E+03  0.17284045694E+03  0.10000000000E+01 0.  0.
    9000005    1    3    3    0    0  0.23285129229E+02  0.50739247333E+02 -0.44094087063E+03  0.44446205671E+03  0.10000000000E+01 0.  0.
<mgrwt>
<rscale>  0 0.12500107E+03</rscale>
<asrwt>0</asrwt>
<pdfrwt beam="2">  1        4 0.93985836E-01 0.12500107E+03</pdfrwt>
<pdfrwt beam="1">  1       -4 0.98373549E-03 0.12500107E+03</pdfrwt>
<totfact> 0.47792226E+03</totfact>
</mgrwt>
</event>
<event>
 5    1  0.3284464E-002  0.1249988E+03  0.7818608E-02  0.1235071E+00
          4   -1    0    0  501    0  0.00000000000E+00  0.00000000000E+00  0.99629482075E+02  0.99637576238E+02  0.12700000000E+01 0.  1.
         -4   -1    0    0    0  501 -0.00000000000E+00 -0.00000000000E+00 -0.39187055447E+02  0.39207629546E+02  0.12700000000E+01 0.  1.
         25    2    1    2    0    0  0.00000000000E+00  0.00000000000E+00  0.60442426628E+02  0.13884520578E+03  0.12499881692E+03 0.  0.
    9000005    1    3    3    0    0  0.30339462520E+02  0.44260654649E+02 -0.53527720486E+01  0.53936450611E+02  0.10000000000E+01 0.  0.
    9000005    1    3    3    0    0 -0.30339462520E+02 -0.44260654649E+02  0.65795198677E+02  0.84908755172E+02  0.10000000000E+01 0.  0.
<mgrwt>
<rscale>  0 0.12499882E+03</rscale>
<asrwt>0</asrwt>
<pdfrwt beam="1">  1        4 0.15329818E-01 0.12499882E+03</pdfrwt>
<pdfrwt beam="2">  1       -4 0.60309831E-02 0.12499882E+03</pdfrwt>
<totfact> 0.10157846E+04</totfact>
</mgrwt>
</event>
<event>
 5    1  0.3284464E-002  0.1250008E+03  0.7818608E-02  0.1235068E+00
          4   -1    0    0  501    0  0.00000000000E+00  0.00000000000E+00  0.25230635803E+02  0.25262578709E+02  0.12700000000E+01 0. -1.
         -4   -1    0    0    0  501 -0.00000000000E+00 -0.00000000000E+00 -0.15469125840E+03  0.15469647160E+03  0.12700000000E+01 0. -1.
         25    2    1    2    0    0  0.00000000000E+00  0.00000000000E+00 -0.12946062260E+03  0.17995905031E+03  0.12500082794E+03 0.  0.
    9000005    1    3    3    0    0  0.55264588798E+02 -0.28610710117E+02 -0.72944497999E+02  0.95888723511E+02  0.10000000000E+01 0.  0.
    9000005    1    3    3    0    0 -0.55264588798E+02  0.28610710117E+02 -0.56516124602E+02  0.84070326801E+02  0.10000000000E+01 0.  0.
<mgrwt>
<rscale>  0 0.12500083E+03</rscale>
<asrwt>0</asrwt>
<pdfrwt beam="1">  1        4 0.38844945E-02 0.12500083E+03</pdfrwt>
<pdfrwt beam="2">  1       -4 0.23801513E-01 0.12500083E+03</pdfrwt>
<totfact> 0.93622637E+03</totfact>
</mgrwt>
</event>
<event>
 5    1  0.3284464E-002  0.1250001E+03  0.7818608E-02  0.1235069E+00
         -4   -1    0    0    0  501 -0.00000000000E+00  0.00000000000E+00  0.13686935178E+02  0.13745730049E+02  0.12700000000E+01 0. -1.
          4   -1    0    0  501    0  0.00000000000E+00 -0.00000000000E+00 -0.28472832563E+03  0.28473115796E+03  0.12700000000E+01 0. -1.
         25    2    1    2    0    0  0.00000000000E+00  0.00000000000E+00 -0.27104139045E+03  0.29847688801E+03  0.12500006936E+03 0.  0.
    9000005    1    3    3    0    0 -0.40342608737E+01 -0.10219680755E+02 -0.28241563761E+03  0.28263104837E+03  0.10000000000E+01 0.  0.
    9000005    1    3    3    0    0  0.40342608737E+01  0.10219680755E+02  0.11374247160E+02  0.15845839643E+02  0.10000000000E+01 0.  0.
<mgrwt>
<rscale>  0 0.12500007E+03</rscale>
<asrwt>0</asrwt>
<pdfrwt beam="2">  1        4 0.43809094E-01 0.12500007E+03</pdfrwt>
<pdfrwt beam="1">  1       -4 0.21104231E-02 0.12500007E+03</pdfrwt>
<totfact> 0.75790178E+03</totfact>
</mgrwt>
</event>
<event>
 5    1  0.3284464E-002  0.1250007E+03  0.7818608E-02  0.1235068E+00
         -4   -1    0    0    0  501 -0.00000000000E+00  0.00000000000E+00  0.12145337003E+03  0.12146000984E+03  0.12700000000E+01 0. -1.
          4   -1    0    0  501    0  0.00000000000E+00 -0.00000000000E+00 -0.32142831885E+02  0.32167911676E+02  0.12700000000E+01 0. -1.
         25    2    1    2    0    0  0.00000000000E+00  0.00000000000E+00  0.89310538141E+02  0.15362792152E+03  0.12500066418E+03 0.  0.
    9000005    1    3    3    0    0  0.39311488150E+02  0.23643066814E+02  0.96811126779E+02  0.10713441080E+03  0.10000000000E+01 0.  0.
    9000005    1    3    3    0    0 -0.39311488150E+02 -0.23643066814E+02 -0.75005886383E+01  0.46493510718E+02  0.10000000000E+01 0.  0.
<mgrwt>
<rscale>  0 0.12500066E+03</rscale>
<asrwt>0</asrwt>
<pdfrwt beam="2">  1        4 0.49474911E-02 0.12500066E+03</pdfrwt>
<pdfrwt beam="1">  1       -4 0.18687573E-01 0.12500066E+03</pdfrwt>
<totfact> 0.98583907E+03</totfact>
</mgrwt>
</event>
<event>
 5    1  0.3284464E-002  0.1250058E+03  0.7818608E-02  0.1235060E+00
          4   -1    0    0  501    0  0.00000000000E+00  0.00000000000E+00  0.27774556852E+02  0.27803577258E+02  0.12700000000E+01 0. -1.
         -4   -1    0    0    0  501 -0.00000000000E+00 -0.00000000000E+00 -0.14054906458E+03  0.14055480232E+03  0.12700000000E+01 0. -1.
         25    2    1    2    0    0  0.00000000000E+00  0.00000000000E+00 -0.11277450773E+03  0.16835837957E+03  0.12500581738E+03 0.  0.
    9000005    1    3    3    0    0  0.37591568003E+02  0.29956296347E+02 -0.25975010586E+01  0.48148236598E+02  0.10000000000E+01 0.  0.
    9000005    1    3    3    0    0 -0.37591568003E+02 -0.29956296347E+02 -0.11017700667E+03  0.12021014298E+03  0.10000000000E+01 0.  0.
<mgrwt>
<rscale>  0 0.12500582E+03</rscale>
<asrwt>0</asrwt>
<pdfrwt beam="1">  1        4 0.42756825E-02 0.12500582E+03</pdfrwt>
<pdfrwt beam="2">  1       -4 0.21625606E-01 0.12500582E+03</pdfrwt>
<totfact> 0.95742614E+03</totfact>
</mgrwt>
</event>
<event>
 5    1  0.3284464E-002  0.1249871E+03  0.7818608E-02  0.1235089E+00
         -4   -1    0    0    0  501 -0.00000000000E+00  0.00000000000E+00  0.33748797299E+02  0.33772684511E+02  0.12700000000E+01 0.  1.
          4   -1    0    0  501    0  0.00000000000E+00 -0.00000000000E+00 -0.11565270270E+03  0.11565967552E+03  0.12700000000E+01 0.  1.
         25    2    1    2    0    0  0.00000000000E+00  0.00000000000E+00 -0.81903905401E+02  0.14943236003E+03  0.12498712136E+03 0.  0.
    9000005    1    3    3    0    0  0.31179737438E+02 -0.26031177509E+02  0.15818016398E+02  0.43600548987E+02  0.10000000000E+01 0.  0.
    9000005    1    3    3    0    0 -0.31179737438E+02  0.26031177509E+02 -0.97721921799E+02  0.10583181105E+03  0.10000000000E+01 0.  0.
<mgrwt>
<rscale>  0 0.12498712E+03</rscale>
<asrwt>0</asrwt>
<pdfrwt beam="2">  1        4 0.17795097E-01 0.12498712E+03</pdfrwt>
<pdfrwt beam="1">  1       -4 0.51944966E-02 0.12498712E+03</pdfrwt>
<totfact> 0.99445791E+03</totfact>
</mgrwt>
</event>
<event>
 5    1  0.3284464E-002  0.1249996E+03  0.7818608E-02  0.1235070E+00
          4   -1    0    0  501    0  0.00000000000E+00  0.00000000000E+00  0.26219972129E+02  0.26250711199E+02  0.12700000000E+01 0. -1.
         -4   -1    0    0    0  501 -0.00000000000E+00 -0.00000000000E+00 -0.14885817292E+03  0.14886359039E+03  0.12700000000E+01 0. -1.
         25    2    1    2    0    0  0.00000000000E+00  0.00000000000E+00 -0.12263820079E+03  0.17511430159E+03  0.12499956131E+03 0.  0.
    9000005    1    3    3    0    0 -0.28189210048E+02  0.48796650731E+02 -0.99156318297E+02  0.11405577646E+03  0.10000000000E+01 0.  0.
    9000005    1    3    3    0    0  0.28189210048E+02 -0.48796650731E+02 -0.23481882489E+02  0.61058525129E+02  0.10000000000E+01 0.  0.
<mgrwt>
<rscale>  0 0.12499956E+03</rscale>
<asrwt>0</asrwt>
<pdfrwt beam="1">  1        4 0.40366232E-02 0.12499956E+03</pdfrwt>
<pdfrwt beam="2">  1       -4 0.22904038E-01 0.12499956E+03</pdfrwt>
<totfact> 0.94504841E+03</totfact>
</mgrwt>
</event>
<event>
 5    1  0.3284464E-002  0.1249998E+03  0.7818608E-02  0.1235070E+00
         -4   -1    0    0    0  501 -0.00000000000E+00  0.00000000000E+00  0.12983518146E+03  0.12984139265E+03  0.12700000000E+01 0.  1.
          4   -1    0    0  501    0  0.00000000000E+00 -0.00000000000E+00 -0.30065770890E+02  0.30092581797E+02  0.12700000000E+01 0.  1.
         25    2    1    2    0    0  0.00000000000E+00  0.00000000000E+00  0.99769410574E+02  0.15993397445E+03  0.12499976359E+03 0.  0.
    9000005    1    3    3    0    0  0.50638487733E+01  0.73778059053E+01 -0.29248066378E+02  0.30602679151E+02  0.10000000000E+01 0.  0.
    9000005    1    3    3    0    0 -0.50638487733E+01 -0.73778059053E+01  0.12901747695E+03  0.12933129530E+03  0.10000000000E+01 0.  0.
<mgrwt>
<rscale>  0 0.12499976E+03</rscale>
<asrwt>0</asrwt>
<pdfrwt beam="2">  1        4 0.46280434E-02 0.12499976E+03</pdfrwt>
<pdfrwt beam="1">  1       -4 0.19977184E-01 0.12499976E+03</pdfrwt>
<totfact> 0.97356033E+03</totfact>
</mgrwt>
</event>
<event>
 5    1  0.3284464E-002  0.1250022E+03  0.7818608E-02  0.1235066E+00
         -4   -1    0    0    0  501 -0.00000000000E+00  0.00000000000E+00  0.18251000529E+01  0.22234860474E+01  0.12700000000E+01 0.  1.
          4   -1    0    0  501    0  0.00000000000E+00 -0.00000000000E+00 -0.19293544255E+04  0.19293548434E+04  0.12700000000E+01 0.  1.
         25    2    1    2    0    0  0.00000000000E+00  0.00000000000E+00 -0.19275293254E+04  0.19315783295E+04  0.12500217069E+03 0.  0.
    9000005    1    3    3    0    0  0.37673035804E+02  0.25436641462E+02 -0.16264358214E+04  0.16270712220E+04  0.10000000000E+01 0.  0.
    9000005    1    3    3    0    0 -0.37673035804E+02 -0.25436641462E+02 -0.30109350400E+03  0.30450710748E+03  0.10000000000E+01 0.  0.
<mgrwt>
<rscale>  0 0.12500217E+03</rscale>
<asrwt>0</asrwt>
<pdfrwt beam="2">  1        4 0.29685296E+00 0.12500217E+03</pdfrwt>
<pdfrwt beam="1">  1       -4 0.31146340E-03 0.12500217E+03</pdfrwt>
<totfact> 0.10780459E+03</totfact>
</mgrwt>
</event>
<event>
 5    1  0.3284464E-002  0.1250008E+03  0.7818608E-02  0.1235068E+00
         -4   -1    0    0    0  501 -0.00000000000E+00  0.00000000000E+00  0.13688110314E+03  0.13688699462E+03  0.12700000000E+01 0.  1.
          4   -1    0    0  501    0  0.00000000000E+00 -0.00000000000E+00 -0.28517252410E+02  0.28545517775E+02  0.12700000000E+01 0.  1.
         25    2    1    2    0    0  0.00000000000E+00  0.00000000000E+00  0.10836385073E+03  0.16543251240E+03  0.12500076805E+03 0.  0.
    9000005    1    3    3    0    0 -0.17850360504E+02 -0.30860788679E+02 -0.13744488347E+02  0.38222174296E+02  0.10000000000E+01 0.  0.
    9000005    1    3    3    0    0  0.17850360504E+02  0.30860788679E+02  0.12210833908E+03  0.12721033810E+03  0.10000000000E+01 0.  0.
<mgrwt>
<rscale>  0 0.12500077E+03</rscale>
<asrwt>0</asrwt>
<pdfrwt beam="2">  1        4 0.43898972E-02 0.12500077E+03</pdfrwt>
<pdfrwt beam="1">  1       -4 0.21061258E-01 0.12500077E+03</pdfrwt>
<totfact> 0.96303883E+03</totfact>
</mgrwt>
</event>
<event>
 5    1  0.3284464E-002  0.1250055E+03  0.7818608E-02  0.1235061E+00
         -4   -1    0    0    0  501 -0.00000000000E+00  0.00000000000E+00  0.22915835018E+02  0.22950999860E+02  0.12700000000E+01 0. -1.
          4   -1    0    0  501    0  0.00000000000E+00 -0.00000000000E+00 -0.17030743636E+03  0.17031217155E+03  0.12700000000E+01 0. -1.
         25    2    1    2    0    0  0.00000000000E+00  0.00000000000E+00 -0.14739160134E+03  0.19326317141E+03  0.12500547699E+03 0.  0.
    9000005    1    3    3    0    0  0.53791648928E+01  0.18973488505E+02 -0.16537809562E+03  0.16655282402E+03  0.10000000000E+01 0.  0.
    9000005    1    3    3    0    0 -0.53791648928E+01 -0.18973488505E+02  0.17986494278E+02  0.26710347385E+02  0.10000000000E+01 0.  0.
<mgrwt>
<rscale>  0 0.12500548E+03</rscale>
<asrwt>0</asrwt>
<pdfrwt beam="2">  1        4 0.26204212E-01 0.12500548E+03</pdfrwt>
<pdfrwt beam="1">  1       -4 0.35285824E-02 0.12500548E+03</pdfrwt>
<totfact> 0.91271419E+03</totfact>
</mgrwt>
</event>
<event>
 5    1  0.3284464E-002  0.1249995E+03  0.7818608E-02  0.1235070E+00
          4   -1    0    0  501    0  0.00000000000E+00  0.00000000000E+00  0.93084624302E+03  0.93084710939E+03  0.12700000000E+01 0. -1.
         -4   -1    0    0    0  501 -0.00000000000E+00 -0.00000000000E+00 -0.40994383007E+01  0.42916540379E+01  0.12700000000E+01 0. -1.
         25    2    1    2    0    0  0.00000000000E+00  0.00000000000E+00  0.92674680472E+03  0.93513876342E+03  0.12499946717E+03 0.  0.
    9000005    1    3    3    0    0  0.62434601688E+02 -0.32996456847E+00  0.48320666132E+03  0.48722465650E+03  0.10000000000E+01 0.  0.
    9000005    1    3    3    0    0 -0.62434601688E+02  0.32996456847E+00  0.44354014341E+03  0.44791410692E+03  0.10000000000E+01 0.  0.
<mgrwt>
<rscale>  0 0.12499947E+03</rscale>
<asrwt>0</asrwt>
<pdfrwt beam="1">  1        4 0.14322194E+00 0.12499947E+03</pdfrwt>
<pdfrwt beam="2">  1       -4 0.64553541E-03 0.12499947E+03</pdfrwt>
<totfact> 0.32849939E+03</totfact>
</mgrwt>
</event>
<event>
 5    1  0.3284464E-002  0.1249991E+03  0.7818608E-02  0.1235071E+00
         -4   -1    0    0    0  501 -0.00000000000E+00  0.00000000000E+00  0.13579460315E+03  0.13580054177E+03  0.12700000000E+01 0. -1.
          4   -1    0    0  501    0  0.00000000000E+00 -0.00000000000E+00 -0.28744852794E+02  0.28772894574E+02  0.12700000000E+01 0. -1.
         25    2    1    2    0    0  0.00000000000E+00  0.00000000000E+00  0.10704975035E+03  0.16457343634E+03  0.12499906759E+03 0.  0.
    9000005    1    3    3    0    0 -0.36653701505E+02 -0.33499902412E+02  0.35729852822E+01  0.49794613358E+02  0.10000000000E+01 0.  0.
    9000005    1    3    3    0    0  0.36653701505E+02  0.33499902412E+02  0.10347676507E+03  0.11477882298E+03  0.10000000000E+01 0.  0.
<mgrwt>
<rscale>  0 0.12499907E+03</rscale>
<asrwt>0</asrwt>
<pdfrwt beam="2">  1        4 0.44248989E-02 0.12499907E+03</pdfrwt>
<pdfrwt beam="1">  1       -4 0.20894091E-01 0.12499907E+03</pdfrwt>
<totfact> 0.96470258E+03</totfact>
</mgrwt>
</event>
<event>
 5    1  0.3284464E-002  0.1249998E+03  0.7818608E-02  0.1235070E+00
         -4   -1    0    0    0  501 -0.00000000000E+00  0.00000000000E+00  0.13669509030E+04  0.13669514930E+04  0.12700000000E+01 0.  1.
          4   -1    0    0  501    0  0.00000000000E+00 -0.00000000000E+00 -0.27159060600E+01  0.29981737319E+01  0.12700000000E+01 0.  1.
         25    2    1    2    0    0  0.00000000000E+00  0.00000000000E+00  0.13642349970E+04  0.13699496667E+04  0.12499984960E+03 0.  0.
    9000005    1    3    3    0    0  0.37476513234E+02 -0.22901159441E+02  0.11693320907E+04  0.11701570367E+04  0.10000000000E+01 0.  0.
    9000005    1    3    3    0    0 -0.37476513234E+02  0.22901159441E+02  0.19490290624E+03  0.19979263002E+03  0.10000000000E+01 0.  0.
<mgrwt>
<rscale>  0 0.12499985E+03</rscale>
<asrwt>0</asrwt>
<pdfrwt beam="2">  1        4 0.43958865E-03 0.12499985E+03</pdfrwt>
<pdfrwt beam="1">  1       -4 0.21032253E+00 0.12499985E+03</pdfrwt>
<totfact> 0.20635063E+03</totfact>
</mgrwt>
</event>
<event>
 5    1  0.3284464E-002  0.1250001E+03  0.7818608E-02  0.1235069E+00
          4   -1    0    0  501    0  0.00000000000E+00  0.00000000000E+00  0.52898389987E+01  0.54401559382E+01  0.12700000000E+01 0. -1.
         -4   -1    0    0    0  501 -0.00000000000E+00 -0.00000000000E+00 -0.72794950024E+03  0.72795060807E+03  0.12700000000E+01 0. -1.
         25    2    1    2    0    0  0.00000000000E+00  0.00000000000E+00 -0.72265966124E+03  0.73339076401E+03  0.12500010703E+03 0.  0.
    9000005    1    3    3    0    0 -0.28794017133E+02  0.43896484689E+02 -0.16243010775E+03  0.17070599490E+03  0.10000000000E+01 0.  0.
    9000005    1    3    3    0    0  0.28794017133E+02 -0.43896484689E+02 -0.56022955349E+03  0.56268476911E+03  0.10000000000E+01 0.  0.
<mgrwt>
<rscale>  0 0.12500011E+03</rscale>
<asrwt>0</asrwt>
<pdfrwt beam="1">  1        4 0.82547002E-03 0.12500011E+03</pdfrwt>
<pdfrwt beam="2">  1       -4 0.11200380E+00 0.12500011E+03</pdfrwt>
<totfact> 0.41381362E+03</totfact>
</mgrwt>
</event>
<event>
 5    1  0.3284464E-002  0.1250005E+03  0.7818608E-02  0.1235068E+00
         -4   -1    0    0    0  501 -0.00000000000E+00  0.00000000000E+00  0.71112155121E+02  0.71123494754E+02  0.12700000000E+01 0.  1.
          4   -1    0    0  501    0  0.00000000000E+00 -0.00000000000E+00 -0.54908224672E+02  0.54922909943E+02  0.12700000000E+01 0.  1.
         25    2    1    2    0    0  0.00000000000E+00  0.00000000000E+00  0.16203930450E+02  0.12604640470E+03  0.12500051510E+03 0.  0.
    9000005    1    3    3    0    0  0.62436787734E+02  0.23075935987E+01  0.68245814334E+01  0.62858987921E+02  0.10000000000E+01 0.  0.
    9000005    1    3    3    0    0 -0.62436787734E+02 -0.23075935987E+01  0.93793490162E+01  0.63187416775E+02  0.10000000000E+01 0.  0.
<mgrwt>
<rscale>  0 0.12500052E+03</rscale>
<asrwt>0</asrwt>
<pdfrwt beam="2">  1        4 0.84494211E-02 0.12500052E+03</pdfrwt>
<pdfrwt beam="1">  1       -4 0.10942333E-01 0.12500052E+03</pdfrwt>
<totfact> 0.10429819E+04</totfact>
</mgrwt>
</event>
<event>
 5    1  0.3284464E-002  0.1249902E+03  0.7818608E-02  0.1235085E+00
          4   -1    0    0  501    0  0.00000000000E+00  0.00000000000E+00  0.46979022928E+02  0.46996185965E+02  0.12700000000E+01 0.  1.
         -4   -1    0    0    0  501 -0.00000000000E+00 -0.00000000000E+00 -0.83098599478E+02  0.83108303648E+02  0.12700000000E+01 0.  1.
         25    2    1    2    0    0  0.00000000000E+00  0.00000000000E+00 -0.36119576551E+02  0.13010448961E+03  0.12499021725E+03 0.  0.
    9000005    1    3    3    0    0 -0.38706398553E+02 -0.48875212112E+02 -0.13684596461E+02  0.63837605126E+02  0.10000000000E+01 0.  0.
    9000005    1    3    3    0    0  0.38706398553E+02  0.48875212112E+02 -0.22434980090E+02  0.66266884487E+02  0.10000000000E+01 0.  0.
<mgrwt>
<rscale>  0 0.12499022E+03</rscale>
<asrwt>0</asrwt>
<pdfrwt beam="1">  1        4 0.72296087E-02 0.12499022E+03</pdfrwt>
<pdfrwt beam="2">  1       -4 0.12786467E-01 0.12499022E+03</pdfrwt>
<totfact> 0.10344557E+04</totfact>
</mgrwt>
</event>
<event>
 5    1  0.3284464E-002  0.1249873E+03  0.7818608E-02  0.1235089E+00
         -4   -1    0    0    0  501 -0.00000000000E+00  0.00000000000E+00  0.12049111538E+02  0.12115856918E+02  0.12700000000E+01 0.  1.
          4   -1    0    0  501    0  0.00000000000E+00 -0.00000000000E+00 -0.32316467746E+03  0.32316717292E+03  0.12700000000E+01 0.  1.
         25    2    1    2    0    0  0.00000000000E+00  0.00000000000E+00 -0.31111556592E+03  0.33528302984E+03  0.12498725832E+03 0.  0.
    9000005    1    3    3    0    0 -0.36709339189E+02 -0.29057819877E+02 -0.44547346593E+02  0.64632797929E+02  0.10000000000E+01 0.  0.
    9000005    1    3    3    0    0  0.36709339189E+02  0.29057819877E+02 -0.26656821932E+03  0.27065023191E+03  0.10000000000E+01 0.  0.
<mgrwt>
<rscale>  0 0.12498726E+03</rscale>
<asrwt>0</asrwt>
<pdfrwt beam="2">  1        4 0.49722962E-01 0.12498726E+03</pdfrwt>
<pdfrwt beam="1">  1       -4 0.18590359E-02 0.12498726E+03</pdfrwt>
<totfact> 0.71394686E+03</totfact>
</mgrwt>
</event>
<event>
 5    1  0.3284464E-002  0.1250020E+03  0.7818608E-02  0.1235066E+00
         -4   -1    0    0    0  501 -0.00000000000E+00  0.00000000000E+00  0.11575758652E+03  0.11576455302E+03  0.12700000000E+01 0. -1.
          4   -1    0    0  501    0  0.00000000000E+00 -0.00000000000E+00 -0.33726247796E+02  0.33750150969E+02  0.12700000000E+01 0. -1.
         25    2    1    2    0    0  0.00000000000E+00  0.00000000000E+00  0.82031338722E+02  0.14951470399E+03  0.12500202469E+03 0.  0.
    9000005    1    3    3    0    0  0.52004154261E+02  0.49094428016E+01 -0.16635322543E-01  0.52244951582E+02  0.10000000000E+01 0.  0.
    9000005    1    3    3    0    0 -0.52004154261E+02 -0.49094428016E+01  0.82047974045E+02  0.97269752410E+02  0.10000000000E+01 0.  0.
<mgrwt>
<rscale>  0 0.12500202E+03</rscale>
<asrwt>0</asrwt>
<pdfrwt beam="2">  1        4 0.51910281E-02 0.12500202E+03</pdfrwt>
<pdfrwt beam="1">  1       -4 0.17811234E-01 0.12500202E+03</pdfrwt>
<totfact> 0.99395993E+03</totfact>
</mgrwt>
</event>
<event>
 5    1  0.3284464E-002  0.1249940E+03  0.7818608E-02  0.1235079E+00
          4   -1    0    0  501    0  0.00000000000E+00  0.00000000000E+00  0.27900637781E+03  0.27900926823E+03  0.12700000000E+01 0. -1.
         -4   -1    0    0    0  501 -0.00000000000E+00 -0.00000000000E+00 -0.13967462492E+02  0.14025081407E+02  0.12700000000E+01 0. -1.
         25    2    1    2    0    0  0.00000000000E+00  0.00000000000E+00  0.26503891532E+03  0.29303434964E+03  0.12499401360E+03 0.  0.
    9000005    1    3    3    0    0 -0.39418488528E+02  0.30567269543E+02  0.22076003991E+03  0.22632757328E+03  0.10000000000E+01 0.  0.
    9000005    1    3    3    0    0  0.39418488528E+02 -0.30567269543E+02  0.44278875413E+02  0.66706776364E+02  0.10000000000E+01 0.  0.
<mgrwt>
<rscale>  0 0.12499401E+03</rscale>
<asrwt>0</asrwt>
<pdfrwt beam="1">  1        4 0.42928709E-01 0.12499401E+03</pdfrwt>
<pdfrwt beam="2">  1       -4 0.21534951E-02 0.12499401E+03</pdfrwt>
<totfact> 0.76491158E+03</totfact>
</mgrwt>
</event>
<event>
 5    1  0.3284464E-002  0.1250017E+03  0.7818608E-02  0.1235067E+00
         -4   -1    0    0    0  501 -0.00000000000E+00  0.00000000000E+00  0.43335026047E+03  0.43335212143E+03  0.12700000000E+01 0. -1.
          4   -1    0    0  501    0  0.00000000000E+00 -0.00000000000E+00 -0.89676928956E+01  0.90571748283E+01  0.12700000000E+01 0. -1.
         25    2    1    2    0    0  0.00000000000E+00  0.00000000000E+00  0.42438256757E+03  0.44240929626E+03  0.12500168701E+03 0.  0.
    9000005    1    3    3    0    0 -0.20023822220E+02 -0.40794091857E+02  0.60365307912E+02  0.75565083114E+02  0.10000000000E+01 0.  0.
    9000005    1    3    3    0    0  0.20023822220E+02  0.40794091857E+02  0.36401725966E+03  0.36684421314E+03  0.10000000000E+01 0.  0.
<mgrwt>
<rscale>  0 0.12500169E+03</rscale>
<asrwt>0</asrwt>
<pdfrwt beam="2">  1        4 0.13866718E-02 0.12500169E+03</pdfrwt>
<pdfrwt beam="1">  1       -4 0.66676278E-01 0.12500169E+03</pdfrwt>
<totfact> 0.60624803E+03</totfact>
</mgrwt>
</event>
<event>
 5    1  0.3284464E-002  0.1250013E+03  0.7818608E-02  0.1235067E+00
         -4   -1    0    0    0  501 -0.00000000000E+00  0.00000000000E+00  0.16535300019E+02  0.16583999720E+02  0.12700000000E+01 0.  1.
          4   -1    0    0  501    0  0.00000000000E+00 -0.00000000000E+00 -0.23584422257E+03  0.23584764197E+03  0.12700000000E+01 0.  1.
         25    2    1    2    0    0  0.00000000000E+00  0.00000000000E+00 -0.21930892255E+03  0.25243164169E+03  0.12500132084E+03 0.  0.
    9000005    1    3    3    0    0  0.43479026734E+02  0.44571398648E+02 -0.98912069205E+02  0.11688298755E+03  0.10000000000E+01 0.  0.
    9000005    1    3    3    0    0 -0.43479026734E+02 -0.44571398648E+02 -0.12039685335E+03  0.13554865414E+03  0.10000000000E+01 0.  0.
<mgrwt>
<rscale>  0 0.12500132E+03</rscale>
<asrwt>0</asrwt>
<pdfrwt beam="2">  1        4 0.36287733E-01 0.12500132E+03</pdfrwt>
<pdfrwt beam="1">  1       -4 0.25479016E-02 0.12500132E+03</pdfrwt>
<totfact> 0.81977635E+03</totfact>
</mgrwt>
</event>
<event>
 5    1  0.3284464E-002  0.1250024E+03  0.7818608E-02  0.1235065E+00
         -4   -1    0    0    0  501 -0.00000000000E+00  0.00000000000E+00  0.86498093304E+03  0.86498186537E+03  0.12700000000E+01 0. -1.
          4   -1    0    0  501    0  0.00000000000E+00 -0.00000000000E+00 -0.44259325694E+01  0.46045389681E+01  0.12700000000E+01 0. -1.
         25    2    1    2    0    0  0.00000000000E+00  0.00000000000E+00  0.86055500047E+03  0.86958640434E+03  0.12500242309E+03 0.  0.
    9000005    1    3    3    0    0  0.25056782276E+02  0.23182608843E+02  0.79442686506E+03  0.79516056217E+03  0.10000000000E+01 0.  0.
    9000005    1    3    3    0    0 -0.25056782276E+02 -0.23182608843E+02  0.66128135406E+02  0.74425842172E+02  0.10000000000E+01 0.  0.
<mgrwt>
<rscale>  0 0.12500242E+03</rscale>
<asrwt>0</asrwt>
<pdfrwt beam="2">  1        4 0.69472325E-03 0.12500242E+03</pdfrwt>
<pdfrwt beam="1">  1       -4 0.13308782E+00 0.12500242E+03</pdfrwt>
<totfact> 0.35337088E+03</totfact>
</mgrwt>
</event>
<event>
 5    1  0.3284464E-002  0.1249998E+03  0.7818608E-02  0.1235070E+00
         -4   -1    0    0    0  501 -0.00000000000E+00  0.00000000000E+00  0.11484581286E+02  0.11554588150E+02  0.12700000000E+01 0. -1.
          4   -1    0    0  501    0  0.00000000000E+00 -0.00000000000E+00 -0.33902411245E+03  0.33902649118E+03  0.12700000000E+01 0. -1.
         25    2    1    2    0    0  0.00000000000E+00  0.00000000000E+00 -0.32753953116E+03  0.35058107933E+03  0.12499979484E+03 0.  0.
    9000005    1    3    3    0    0  0.38343843042E+02 -0.19307376055E+02 -0.36406014951E+02  0.56297628671E+02  0.10000000000E+01 0.  0.
    9000005    1    3    3    0    0 -0.38343843042E+02  0.19307376055E+02 -0.29113351621E+03  0.29428345065E+03  0.10000000000E+01 0.  0.
<mgrwt>
<rscale>  0 0.12499979E+03</rscale>
<asrwt>0</asrwt>
<pdfrwt beam="2">  1        4 0.52163116E-01 0.12499979E+03</pdfrwt>
<pdfrwt beam="1">  1       -4 0.17724270E-02 0.12499979E+03</pdfrwt>
<totfact> 0.69660997E+03</totfact>
</mgrwt>
</event>
<event>
 5    1  0.3284464E-002  0.1250081E+03  0.7818608E-02  0.1235057E+00
          4   -1    0    0  501    0  0.00000000000E+00  0.00000000000E+00  0.25832316124E+03  0.25832628308E+03  0.12700000000E+01 0. -1.
         -4   -1    0    0    0  501 -0.00000000000E+00 -0.00000000000E+00 -0.15093652752E+02  0.15146988262E+02  0.12700000000E+01 0. -1.
         25    2    1    2    0    0  0.00000000000E+00  0.00000000000E+00  0.24322950849E+03  0.27347327135E+03  0.12500814510E+03 0.  0.
    9000005    1    3    3    0    0  0.22607776568E+02 -0.54816362014E+02  0.16480694969E+03  0.17515215035E+03  0.10000000000E+01 0.  0.
    9000005    1    3    3    0    0 -0.22607776568E+02  0.54816362014E+02  0.78422558793E+02  0.98321120994E+02  0.10000000000E+01 0.  0.
<mgrwt>
<rscale>  0 0.12500815E+03</rscale>
<asrwt>0</asrwt>
<pdfrwt beam="1">  1        4 0.39746364E-01 0.12500815E+03</pdfrwt>
<pdfrwt beam="2">  1       -4 0.23264435E-02 0.12500815E+03</pdfrwt>
<totfact> 0.79037222E+03</totfact>
</mgrwt>
</event>
<event>
 5    1  0.3284464E-002  0.1249979E+03  0.7818608E-02  0.1235073E+00
          4   -1    0    0  501    0  0.00000000000E+00  0.00000000000E+00  0.41072563700E+03  0.41072760047E+03  0.12700000000E+01 0. -1.
         -4   -1    0    0    0  501 -0.00000000000E+00 -0.00000000000E+00 -0.94658924876E+01  0.95507078579E+01  0.12700000000E+01 0. -1.
         25    2    1    2    0    0  0.00000000000E+00  0.00000000000E+00  0.40125974451E+03  0.42027830833E+03  0.12499789553E+03 0.  0.
    9000005    1    3    3    0    0 -0.33861511343E+01 -0.57569375684E+02  0.28156383471E+03  0.28741066795E+03  0.10000000000E+01 0.  0.
    9000005    1    3    3    0    0  0.33861511343E+01  0.57569375684E+02  0.11969590981E+03  0.13286764038E+03  0.10000000000E+01 0.  0.
<mgrwt>
<rscale>  0 0.12499790E+03</rscale>
<asrwt>0</asrwt>
<pdfrwt beam="1">  1        4 0.63195245E-01 0.12499790E+03</pdfrwt>
<pdfrwt beam="2">  1       -4 0.14629662E-02 0.12499790E+03</pdfrwt>
<totfact> 0.62630098E+03</totfact>
</mgrwt>
</event>
<event>
 5    1  0.3284464E-002  0.1249957E+03  0.7818608E-02  0.1235076E+00
          4   -1    0    0  501    0  0.00000000000E+00  0.00000000000E+00  0.10551758910E+02  0.10627912123E+02  0.12700000000E+01 0.  1.
         -4   -1    0    0    0  501 -0.00000000000E+00 -0.00000000000E+00 -0.36876522901E+03  0.36876741589E+03  0.12700000000E+01 0.  1.
         25    2    1    2    0    0  0.00000000000E+00  0.00000000000E+00 -0.35821347010E+03  0.37939532802E+03  0.12499569897E+03 0.  0.
    9000005    1    3    3    0    0 -0.34130778610E+02 -0.52240936901E+02 -0.16906020574E+03  0.18021203817E+03  0.10000000000E+01 0.  0.
    9000005    1    3    3    0    0  0.34130778610E+02  0.52240936901E+02 -0.18915326436E+03  0.19918328985E+03  0.10000000000E+01 0.  0.
<mgrwt>
<rscale>  0 0.12499570E+03</rscale>
<asrwt>0</asrwt>
<pdfrwt beam="1">  1        4 0.16293740E-02 0.12499570E+03</pdfrwt>
<pdfrwt beam="2">  1       -4 0.56739129E-01 0.12499570E+03</pdfrwt>
<totfact> 0.66613667E+03</totfact>
</mgrwt>
</event>
<event>
 5    1  0.3284464E-002  0.1250016E+03  0.7818608E-02  0.1235067E+00
         -4   -1    0    0    0  501 -0.00000000000E+00  0.00000000000E+00  0.12857628970E+01  0.18072316474E+01  0.12700000000E+01 0. -1.
          4   -1    0    0  501    0  0.00000000000E+00 -0.00000000000E+00 -0.25254124193E+04  0.25254127387E+04  0.12700000000E+01 0. -1.
         25    2    1    2    0    0  0.00000000000E+00  0.00000000000E+00 -0.25241266564E+04  0.25272199703E+04  0.12500160249E+03 0.  0.
    9000005    1    3    3    0    0  0.32847392829E+02  0.52271152134E+02 -0.10659164812E+04  0.10677032216E+04  0.10000000000E+01 0.  0.
    9000005    1    3    3    0    0 -0.32847392829E+02 -0.52271152134E+02 -0.14582101752E+04  0.14595167487E+04  0.10000000000E+01 0.  0.
<mgrwt>
<rscale>  0 0.12500160E+03</rscale>
<asrwt>0</asrwt>
<pdfrwt beam="2">  1        4 0.38856182E+00 0.12500160E+03</pdfrwt>
<pdfrwt beam="1">  1       -4 0.23794924E-03 0.12500160E+03</pdfrwt>
<totfact> 0.44590053E+02</totfact>
</mgrwt>
</event>
<event>
 5    1  0.3284464E-002  0.1250009E+03  0.7818608E-02  0.1235068E+00
          4   -1    0    0  501    0  0.00000000000E+00  0.00000000000E+00  0.55349680161E+01  0.56788001320E+01  0.12700000000E+01 0. -1.
         -4   -1    0    0    0  501 -0.00000000000E+00 -0.00000000000E+00 -0.69655413985E+03  0.69655529762E+03  0.12700000000E+01 0. -1.
         25    2    1    2    0    0  0.00000000000E+00  0.00000000000E+00 -0.69101917184E+03  0.70223409775E+03  0.12500092881E+03 0.  0.
    9000005    1    3    3    0    0 -0.72637919983E+01  0.10705763856E+02 -0.20430963697E+01  0.13135840160E+02  0.10000000000E+01 0.  0.
    9000005    1    3    3    0    0  0.72637919983E+01 -0.10705763856E+02 -0.68897607547E+03  0.68909825759E+03  0.10000000000E+01 0.  0.
<mgrwt>
<rscale>  0 0.12500093E+03</rscale>
<asrwt>0</asrwt>
<pdfrwt beam="1">  1        4 0.86268716E-03 0.12500093E+03</pdfrwt>
<pdfrwt beam="2">  1       -4 0.10717326E+00 0.12500093E+03</pdfrwt>
<totfact> 0.42968168E+03</totfact>
</mgrwt>
</event>
<event>
 5    1  0.3284464E-002  0.1249931E+03  0.7818608E-02  0.1235080E+00
          4   -1    0    0  501    0  0.00000000000E+00  0.00000000000E+00  0.61694892792E+02  0.61707962992E+02  0.12700000000E+01 0. -1.
         -4   -1    0    0    0  501 -0.00000000000E+00 -0.00000000000E+00 -0.63282505130E+02  0.63295247495E+02  0.12700000000E+01 0. -1.
         25    2    1    2    0    0  0.00000000000E+00  0.00000000000E+00 -0.15876123376E+01  0.12500321049E+03  0.12499312829E+03 0.  0.
    9000005    1    3    3    0    0  0.20468857583E+02  0.51610546819E+02 -0.29470111750E+02  0.62865810742E+02  0.10000000000E+01 0.  0.
    9000005    1    3    3    0    0 -0.20468857583E+02 -0.51610546819E+02  0.27882499412E+02  0.62137399746E+02  0.10000000000E+01 0.  0.
<mgrwt>
<rscale>  0 0.12499313E+03</rscale>
<asrwt>0</asrwt>
<pdfrwt beam="1">  1        4 0.94935075E-02 0.12499313E+03</pdfrwt>
<pdfrwt beam="2">  1       -4 0.97377556E-02 0.12499313E+03</pdfrwt>
<totfact> 0.10454416E+04</totfact>
</mgrwt>
</event>
<event>
 5    1  0.3284464E-002  0.1250113E+03  0.7818608E-02  0.1235052E+00
         -4   -1    0    0    0  501 -0.00000000000E+00  0.00000000000E+00  0.74063825992E+03  0.74063934877E+03  0.12700000000E+01 0. -1.
          4   -1    0    0  501    0  0.00000000000E+00 -0.00000000000E+00 -0.51975702083E+01  0.53504799850E+01  0.12700000000E+01 0. -1.
         25    2    1    2    0    0  0.00000000000E+00  0.00000000000E+00  0.73544068971E+03  0.74598982876E+03  0.12501126562E+03 0.  0.
    9000005    1    3    3    0    0  0.39630156150E+02 -0.24887676113E+01  0.65571747512E+03  0.65691943983E+03  0.10000000000E+01 0.  0.
    9000005    1    3    3    0    0 -0.39630156150E+02  0.24887676113E+01  0.79723214582E+02  0.89070388929E+02  0.10000000000E+01 0.  0.
<mgrwt>
<rscale>  0 0.12501127E+03</rscale>
<asrwt>0</asrwt>
<pdfrwt beam="2">  1        4 0.81147260E-03 0.12501127E+03</pdfrwt>
<pdfrwt beam="1">  1       -4 0.11395614E+00 0.12501127E+03</pdfrwt>
<totfact> 0.40756655E+03</totfact>
</mgrwt>
</event>
<event>
 5    1  0.3284464E-002  0.1250091E+03  0.7818608E-02  0.1235055E+00
         -4   -1    0    0    0  501 -0.00000000000E+00  0.00000000000E+00  0.21430370850E+03  0.21430747158E+03  0.12700000000E+01 0.  1.
          4   -1    0    0  501    0  0.00000000000E+00 -0.00000000000E+00 -0.18204255386E+02  0.18248501696E+02  0.12700000000E+01 0.  1.
         25    2    1    2    0    0  0.00000000000E+00  0.00000000000E+00  0.19609945311E+03  0.23255597328E+03  0.12500914045E+03 0.  0.
    9000005    1    3    3    0    0  0.62920917480E+01  0.47924120653E+02  0.17174976424E+03  0.17842447499E+03  0.10000000000E+01 0.  0.
    9000005    1    3    3    0    0 -0.62920917480E+01 -0.47924120653E+02  0.24349688875E+02  0.54131498292E+02  0.10000000000E+01 0.  0.
<mgrwt>
<rscale>  0 0.12500914E+03</rscale>
<asrwt>0</asrwt>
<pdfrwt beam="2">  1        4 0.28043476E-02 0.12500914E+03</pdfrwt>
<pdfrwt beam="1">  1       -4 0.32973495E-01 0.12500914E+03</pdfrwt>
<totfact> 0.84901350E+03</totfact>
</mgrwt>
</event>
<event>
 5    1  0.3284464E-002  0.1249834E+03  0.7818608E-02  0.1235095E+00
          4   -1    0    0  501    0  0.00000000000E+00  0.00000000000E+00  0.56734621202E+01  0.58138689725E+01  0.12700000000E+01 0.  1.
         -4   -1    0    0    0  501 -0.00000000000E+00 -0.00000000000E+00 -0.67977498665E+03  0.67977617300E+03  0.12700000000E+01 0.  1.
         25    2    1    2    0    0  0.00000000000E+00  0.00000000000E+00 -0.67410152453E+03  0.68559004197E+03  0.12498335999E+03 0.  0.
    9000005    1    3    3    0    0  0.15323193082E+02  0.39466595003E+02 -0.58913080368E+03  0.59065092585E+03  0.10000000000E+01 0.  0.
    9000005    1    3    3    0    0 -0.15323193082E+02 -0.39466595003E+02 -0.84970720858E+02  0.94939116124E+02  0.10000000000E+01 0.  0.
<mgrwt>
<rscale>  0 0.12498336E+03</rscale>
<asrwt>0</asrwt>
<pdfrwt beam="1">  1        4 0.88373265E-03 0.12498336E+03</pdfrwt>
<pdfrwt beam="2">  1       -4 0.10459160E+00 0.12498336E+03</pdfrwt>
<totfact> 0.43874367E+03</totfact>
</mgrwt>
</event>
<event>
 5    1  0.3284464E-002  0.1249844E+03  0.7818608E-02  0.1235094E+00
          4   -1    0    0  501    0  0.00000000000E+00  0.00000000000E+00  0.38791217174E+02  0.38812001106E+02  0.12700000000E+01 0.  1.
         -4   -1    0    0    0  501 -0.00000000000E+00 -0.00000000000E+00 -0.10062248678E+03  0.10063050107E+03  0.12700000000E+01 0.  1.
         25    2    1    2    0    0  0.00000000000E+00  0.00000000000E+00 -0.61831269606E+02  0.13944250218E+03  0.12498442108E+03 0.  0.
    9000005    1    3    3    0    0  0.43645974043E+02  0.19471595614E+02 -0.75823100244E+02  0.89634014842E+02  0.10000000000E+01 0.  0.
    9000005    1    3    3    0    0 -0.43645974043E+02 -0.19471595614E+02  0.13991830639E+02  0.49808487335E+02  0.10000000000E+01 0.  0.
<mgrwt>
<rscale>  0 0.12498442E+03</rscale>
<asrwt>0</asrwt>
<pdfrwt beam="1">  1        4 0.59700949E-02 0.12498442E+03</pdfrwt>
<pdfrwt beam="2">  1       -4 0.15482598E-01 0.12498442E+03</pdfrwt>
<totfact> 0.10148715E+04</totfact>
</mgrwt>
</event>
<event>
 5    1  0.3284464E-002  0.1249843E+03  0.7818608E-02  0.1235094E+00
         -4   -1    0    0    0  501 -0.00000000000E+00  0.00000000000E+00  0.36910339710E+02  0.36932182138E+02  0.12700000000E+01 0.  1.
          4   -1    0    0  501    0  0.00000000000E+00 -0.00000000000E+00 -0.10574715859E+03  0.10575478452E+03  0.12700000000E+01 0.  1.
         25    2    1    2    0    0  0.00000000000E+00  0.00000000000E+00 -0.68836818877E+02  0.14268696666E+03  0.12498425029E+03 0.  0.
    9000005    1    3    3    0    0  0.61686575769E+02 -0.72520420393E+01 -0.42198326037E+02  0.75096767336E+02  0.10000000000E+01 0.  0.
    9000005    1    3    3    0    0 -0.61686575769E+02  0.72520420393E+01 -0.26638492839E+02  0.67590199324E+02  0.10000000000E+01 0.  0.
<mgrwt>
<rscale>  0 0.12498425E+03</rscale>
<asrwt>0</asrwt>
<pdfrwt beam="2">  1        4 0.16271060E-01 0.12498425E+03</pdfrwt>
<pdfrwt beam="1">  1       -4 0.56807807E-02 0.12498425E+03</pdfrwt>
<totfact> 0.10081773E+04</totfact>
</mgrwt>
</event>
<event>
 5    1  0.3284464E-002  0.1249968E+03  0.7818608E-02  0.1235074E+00
          4   -1    0    0  501    0  0.00000000000E+00  0.00000000000E+00  0.53574268367E+01  0.55058988649E+01  0.12700000000E+01 0.  1.
         -4   -1    0    0    0  501 -0.00000000000E+00 -0.00000000000E+00 -0.71897688075E+03  0.71897800241E+03  0.12700000000E+01 0.  1.
         25    2    1    2    0    0  0.00000000000E+00  0.00000000000E+00 -0.71361945391E+03  0.72448390127E+03  0.12499679278E+03 0.  0.
    9000005    1    3    3    0    0 -0.29008243285E+02  0.16777677518E+02 -0.66252331888E+03  0.66337102492E+03  0.10000000000E+01 0.  0.
    9000005    1    3    3    0    0  0.29008243285E+02 -0.16777677518E+02 -0.51096135028E+02  0.61112876354E+02  0.10000000000E+01 0.  0.
<mgrwt>
<rscale>  0 0.12499679E+03</rscale>
<asrwt>0</asrwt>
<pdfrwt beam="1">  1        4 0.83572729E-03 0.12499679E+03</pdfrwt>
<pdfrwt beam="2">  1       -4 0.11062326E+00 0.12499679E+03</pdfrwt>
<totfact> 0.41828251E+03</totfact>
</mgrwt>
</event>
<event>
 5    1  0.3284464E-002  0.1250058E+03  0.7818608E-02  0.1235060E+00
          4   -1    0    0  501    0  0.00000000000E+00  0.00000000000E+00  0.78298236400E+03  0.78298339397E+03  0.12700000000E+01 0. -1.
         -4   -1    0    0    0  501 -0.00000000000E+00 -0.00000000000E+00 -0.49075365162E+01  0.50692025663E+01  0.12700000000E+01 0. -1.
         25    2    1    2    0    0  0.00000000000E+00  0.00000000000E+00  0.77807482748E+03  0.78805259654E+03  0.12500583085E+03 0.  0.
    9000005    1    3    3    0    0 -0.56271647590E+02 -0.25014429591E+02  0.45616805369E+03  0.46030697716E+03  0.10000000000E+01 0.  0.
    9000005    1    3    3    0    0  0.56271647590E+02  0.25014429591E+02  0.32190677379E+03  0.32774561938E+03  0.10000000000E+01 0.  0.
<mgrwt>
<rscale>  0 0.12500583E+03</rscale>
<asrwt>0</asrwt>
<pdfrwt beam="1">  1        4 0.12047130E+00 0.12500583E+03</pdfrwt>
<pdfrwt beam="2">  1       -4 0.76752096E-03 0.12500583E+03</pdfrwt>
<totfact> 0.38798757E+03</totfact>
</mgrwt>
</event>
<event>
 5    1  0.3284464E-002  0.1249997E+03  0.7818608E-02  0.1235070E+00
         -4   -1    0    0    0  501 -0.00000000000E+00  0.00000000000E+00  0.76422165863E+01  0.77470235802E+01  0.12700000000E+01 0. -1.
          4   -1    0    0  501    0  0.00000000000E+00 -0.00000000000E+00 -0.50755149412E+03  0.50755308302E+03  0.12700000000E+01 0. -1.
         25    2    1    2    0    0  0.00000000000E+00  0.00000000000E+00 -0.49990927753E+03  0.51530010660E+03  0.12499965639E+03 0.  0.
    9000005    1    3    3    0    0 -0.43881164504E+02 -0.34846299331E+01 -0.67097459879E+02  0.80254397800E+02  0.10000000000E+01 0.  0.
    9000005    1    3    3    0    0  0.43881164504E+02  0.34846299331E+01 -0.43281181765E+03  0.43504570880E+03  0.10000000000E+01 0.  0.
<mgrwt>
<rscale>  0 0.12499966E+03</rscale>
<asrwt>0</asrwt>
<pdfrwt beam="2">  1        4 0.78093003E-01 0.12499966E+03</pdfrwt>
<pdfrwt beam="1">  1       -4 0.11839103E-02 0.12499966E+03</pdfrwt>
<totfact> 0.54696929E+03</totfact>
</mgrwt>
</event>
<event>
 5    1  0.3284464E-002  0.1249984E+03  0.7818608E-02  0.1235072E+00
         -4   -1    0    0    0  501 -0.00000000000E+00  0.00000000000E+00  0.63801974736E+01  0.65053685370E+01  0.12700000000E+01 0.  1.
          4   -1    0    0  501    0  0.00000000000E+00 -0.00000000000E+00 -0.60615720861E+03  0.60615853904E+03  0.12700000000E+01 0.  1.
         25    2    1    2    0    0  0.00000000000E+00  0.00000000000E+00 -0.59977701113E+03  0.61266390757E+03  0.12499840222E+03 0.  0.
    9000005    1    3    3    0    0  0.49347294276E+02  0.34767379581E+02 -0.37910659720E+03  0.38388375607E+03  0.10000000000E+01 0.  0.
    9000005    1    3    3    0    0 -0.49347294276E+02 -0.34767379581E+02 -0.22067041394E+03  0.22878015150E+03  0.10000000000E+01 0.  0.
<mgrwt>
<rscale>  0 0.12499840E+03</rscale>
<asrwt>0</asrwt>
<pdfrwt beam="2">  1        4 0.93264641E-01 0.12499840E+03</pdfrwt>
<pdfrwt beam="1">  1       -4 0.99130021E-03 0.12499840E+03</pdfrwt>
<totfact> 0.48079564E+03</totfact>
</mgrwt>
</event>
<event>
 5    1  0.3284464E-002  0.1250007E+03  0.7818608E-02  0.1235068E+00
         -4   -1    0    0    0  501 -0.00000000000E+00  0.00000000000E+00  0.16792220738E+02  0.16840177472E+02  0.12700000000E+01 0. -1.
          4   -1    0    0  501    0  0.00000000000E+00 -0.00000000000E+00 -0.23224378758E+03  0.23224725998E+03  0.12700000000E+01 0. -1.
         25    2    1    2    0    0  0.00000000000E+00  0.00000000000E+00 -0.21545156684E+03  0.24908743746E+03  0.12500069537E+03 0.  0.
    9000005    1    3    3    0    0  0.21948662457E+02 -0.51799905601E+02 -0.16194446810E+03  0.17144090746E+03  0.10000000000E+01 0.  0.
    9000005    1    3    3    0    0 -0.21948662457E+02  0.51799905601E+02 -0.53507098744E+02  0.77646529993E+02  0.10000000000E+01 0.  0.
<mgrwt>
<rscale>  0 0.12500070E+03</rscale>
<asrwt>0</asrwt>
<pdfrwt beam="2">  1        4 0.35733767E-01 0.12500070E+03</pdfrwt>
<pdfrwt beam="1">  1       -4 0.25873748E-02 0.12500070E+03</pdfrwt>
<totfact> 0.82461024E+03</totfact>
</mgrwt>
</event>
<event>
 5    1  0.3284464E-002  0.1249988E+03  0.7818608E-02  0.1235071E+00
          4   -1    0    0  501    0  0.00000000000E+00  0.00000000000E+00  0.31862013347E+02  0.31887314006E+02  0.12700000000E+01 0.  1.
         -4   -1    0    0    0  501 -0.00000000000E+00 -0.00000000000E+00 -0.12251938485E+03  0.12252596690E+03  0.12700000000E+01 0.  1.
         25    2    1    2    0    0  0.00000000000E+00  0.00000000000E+00 -0.90657371508E+02  0.15441328091E+03  0.12499880924E+03 0.  0.
    9000005    1    3    3    0    0  0.92089083507E+01  0.13773330742E+02  0.29105420922E+02  0.33505733238E+02  0.10000000000E+01 0.  0.
    9000005    1    3    3    0    0 -0.92089083507E+01 -0.13773330742E+02 -0.11976279243E+03  0.12090754767E+03  0.10000000000E+01 0.  0.
<mgrwt>
<rscale>  0 0.12499881E+03</rscale>
<asrwt>0</asrwt>
<pdfrwt beam="1">  1        4 0.49043008E-02 0.12499881E+03</pdfrwt>
<pdfrwt beam="2">  1       -4 0.18851588E-01 0.12499881E+03</pdfrwt>
<totfact> 0.98433439E+03</totfact>
</mgrwt>
</event>
<event>
 5    1  0.3284464E-002  0.1250002E+03  0.7818608E-02  0.1235069E+00
          4   -1    0    0  501    0  0.00000000000E+00  0.00000000000E+00  0.17816187282E+03  0.17816639927E+03  0.12700000000E+01 0.  1.
         -4   -1    0    0    0  501 -0.00000000000E+00 -0.00000000000E+00 -0.21902149971E+02  0.21938939659E+02  0.12700000000E+01 0.  1.
         25    2    1    2    0    0  0.00000000000E+00  0.00000000000E+00  0.15625972285E+03  0.20010533893E+03  0.12500018272E+03 0.  0.
    9000005    1    3    3    0    0 -0.80728190676E+01  0.30408772221E+02  0.16456631166E+03  0.16754979787E+03  0.10000000000E+01 0.  0.
    9000005    1    3    3    0    0  0.80728190676E+01 -0.30408772221E+02 -0.83065888029E+01  0.32555541052E+02  0.10000000000E+01 0.  0.
<mgrwt>
<rscale>  0 0.12500018E+03</rscale>
<asrwt>0</asrwt>
<pdfrwt beam="1">  1        4 0.27412698E-01 0.12500018E+03</pdfrwt>
<pdfrwt beam="2">  1       -4 0.33727396E-02 0.12500018E+03</pdfrwt>
<totfact> 0.90117373E+03</totfact>
</mgrwt>
</event>
<event>
 5    1  0.3284464E-002  0.1250121E+03  0.7818608E-02  0.1235050E+00
          4   -1    0    0  501    0  0.00000000000E+00  0.00000000000E+00  0.20501382757E+02  0.20540681463E+02  0.12700000000E+01 0. -1.
         -4   -1    0    0    0  501 -0.00000000000E+00 -0.00000000000E+00 -0.19034899174E+03  0.19035322838E+03  0.12700000000E+01 0. -1.
         25    2    1    2    0    0  0.00000000000E+00  0.00000000000E+00 -0.16984760898E+03  0.21089390984E+03  0.12501212314E+03 0.  0.
    9000005    1    3    3    0    0  0.11561217263E+02 -0.50074856722E+01 -0.18819268351E+03  0.18861660262E+03  0.10000000000E+01 0.  0.
    9000005    1    3    3    0    0 -0.11561217263E+02  0.50074856722E+01  0.18345074534E+02  0.22277307221E+02  0.10000000000E+01 0.  0.
<mgrwt>
<rscale>  0 0.12501212E+03</rscale>
<asrwt>0</asrwt>
<pdfrwt beam="1">  1        4 0.31574079E-02 0.12501212E+03</pdfrwt>
<pdfrwt beam="2">  1       -4 0.29287808E-01 0.12501212E+03</pdfrwt>
<totfact> 0.88306168E+03</totfact>
</mgrwt>
</event>
<event>
 5    1  0.3284464E-002  0.1249995E+03  0.7818608E-02  0.1235070E+00
          4   -1    0    0  501    0  0.00000000000E+00  0.00000000000E+00  0.11648501575E+04  0.11648508499E+04  0.12700000000E+01 0.  1.
         -4   -1    0    0    0  501 -0.00000000000E+00 -0.00000000000E+00 -0.32324474010E+01  0.34729837604E+01  0.12700000000E+01 0.  1.
         25    2    1    2    0    0  0.00000000000E+00  0.00000000000E+00  0.11616177101E+04  0.11683238336E+04  0.12499950279E+03 0.  0.
    9000005    1    3    3    0    0 -0.28407976009E+02 -0.55661344185E+02  0.58214992923E+03  0.58549529327E+03  0.10000000000E+01 0.  0.
    9000005    1    3    3    0    0  0.28407976009E+02  0.55661344185E+02  0.57946778091E+03  0.58282854035E+03  0.10000000000E+01 0.  0.
<mgrwt>
<rscale>  0 0.12499950E+03</rscale>
<asrwt>0</asrwt>
<pdfrwt beam="1">  1        4 0.17922633E+00 0.12499950E+03</pdfrwt>
<pdfrwt beam="2">  1       -4 0.51585547E-03 0.12499950E+03</pdfrwt>
<totfact> 0.25557515E+03</totfact>
</mgrwt>
</event>
<event>
 5    1  0.3284464E-002  0.1249909E+03  0.7818608E-02  0.1235083E+00
          4   -1    0    0  501    0  0.00000000000E+00  0.00000000000E+00  0.93284161608E+03  0.93284248059E+03  0.12700000000E+01 0. -1.
         -4   -1    0    0    0  501 -0.00000000000E+00 -0.00000000000E+00 -0.40896712826E+01  0.42823254430E+01  0.12700000000E+01 0. -1.
         25    2    1    2    0    0  0.00000000000E+00  0.00000000000E+00  0.92875194480E+03  0.93712480603E+03  0.12499090813E+03 0.  0.
    9000005    1    3    3    0    0 -0.10838023255E+02  0.53105034467E+02  0.69753323167E+03  0.69963648898E+03  0.10000000000E+01 0.  0.
    9000005    1    3    3    0    0  0.10838023255E+02 -0.53105034467E+02  0.23121871313E+03  0.23748831705E+03  0.10000000000E+01 0.  0.
<mgrwt>
<rscale>  0 0.12499091E+03</rscale>
<asrwt>0</asrwt>
<pdfrwt beam="1">  1        4 0.14352888E+00 0.12499091E+03</pdfrwt>
<pdfrwt beam="2">  1       -4 0.64406668E-03 0.12499091E+03</pdfrwt>
<totfact> 0.32784074E+03</totfact>
</mgrwt>
</event>
<event>
 5    1  0.3284464E-002  0.1250002E+03  0.7818608E-02  0.1235069E+00
          4   -1    0    0  501    0  0.00000000000E+00  0.00000000000E+00  0.22963815088E+02  0.22998906570E+02  0.12700000000E+01 0. -1.
         -4   -1    0    0    0  501 -0.00000000000E+00 -0.00000000000E+00 -0.16993789406E+03  0.16994263955E+03  0.12700000000E+01 0. -1.
         25    2    1    2    0    0  0.00000000000E+00  0.00000000000E+00 -0.14697407897E+03  0.19294154612E+03  0.12500024132E+03 0.  0.
    9000005    1    3    3    0    0  0.10909856642E+02 -0.20895754014E+01  0.21435296699E+02  0.24163262236E+02  0.10000000000E+01 0.  0.
    9000005    1    3    3    0    0 -0.10909856642E+02  0.20895754014E+01 -0.16840937567E+03  0.16877828388E+03  0.10000000000E+01 0.  0.
<mgrwt>
<rscale>  0 0.12500024E+03</rscale>
<asrwt>0</asrwt>
<pdfrwt beam="1">  1        4 0.35359591E-02 0.12500024E+03</pdfrwt>
<pdfrwt beam="2">  1       -4 0.26147355E-01 0.12500024E+03</pdfrwt>
<totfact> 0.91337507E+03</totfact>
</mgrwt>
</event>
<event>
 5    1  0.3284464E-002  0.1250115E+03  0.7818608E-02  0.1235051E+00
         -4   -1    0    0    0  501 -0.00000000000E+00  0.00000000000E+00  0.33907386193E+02  0.33931161761E+02  0.12700000000E+01 0. -1.
          4   -1    0    0  501    0  0.00000000000E+00 -0.00000000000E+00 -0.11515710070E+03  0.11516410353E+03  0.12700000000E+01 0. -1.
         25    2    1    2    0    0  0.00000000000E+00  0.00000000000E+00 -0.81249714507E+02  0.14909526529E+03  0.12501152757E+03 0.  0.
    9000005    1    3    3    0    0  0.33931311520E+02  0.36343398089E+02 -0.85785194078E+02  0.99157833827E+02  0.10000000000E+01 0.  0.
    9000005    1    3    3    0    0 -0.33931311520E+02 -0.36343398089E+02  0.45354795715E+01  0.49937431463E+02  0.10000000000E+01 0.  0.
<mgrwt>
<rscale>  0 0.12501153E+03</rscale>
<asrwt>0</asrwt>
<pdfrwt beam="2">  1        4 0.17718844E-01 0.12501153E+03</pdfrwt>
<pdfrwt beam="1">  1       -4 0.52188886E-02 0.12501153E+03</pdfrwt>
<totfact> 0.99458542E+03</totfact>
</mgrwt>
</event>
<event>
 5    1  0.3284464E-002  0.1250031E+03  0.7818608E-02  0.1235065E+00
          4   -1    0    0  501    0  0.00000000000E+00  0.00000000000E+00  0.46772204091E+03  0.46772376511E+03  0.12700000000E+01 0. -1.
         -4   -1    0    0    0  501 -0.00000000000E+00 -0.00000000000E+00 -0.83020277039E+01  0.83986048839E+01  0.12700000000E+01 0. -1.
         25    2    1    2    0    0  0.00000000000E+00  0.00000000000E+00  0.45942001321E+03  0.47612237000E+03  0.12500305068E+03 0.  0.
    9000005    1    3    3    0    0 -0.36368525673E+02  0.33853734636E+02  0.85338873584E+02  0.98754586491E+02  0.10000000000E+01 0.  0.
    9000005    1    3    3    0    0  0.36368525673E+02 -0.33853734636E+02  0.37408113962E+03  0.37736778351E+03  0.10000000000E+01 0.  0.
<mgrwt>
<rscale>  0 0.12500305E+03</rscale>
<asrwt>0</asrwt>
<pdfrwt beam="1">  1        4 0.71964789E-01 0.12500305E+03</pdfrwt>
<pdfrwt beam="2">  1       -4 0.12847968E-02 0.12500305E+03</pdfrwt>
<totfact> 0.57761894E+03</totfact>
</mgrwt>
</event>
<event>
 5    1  0.3284464E-002  0.1249985E+03  0.7818608E-02  0.1235072E+00
          4   -1    0    0  501    0  0.00000000000E+00  0.00000000000E+00  0.16177751327E+03  0.16178249813E+03  0.12700000000E+01 0. -1.
         -4   -1    0    0    0  501 -0.00000000000E+00 -0.00000000000E+00 -0.24123168152E+02  0.24156575537E+02  0.12700000000E+01 0. -1.
         25    2    1    2    0    0  0.00000000000E+00  0.00000000000E+00  0.13765434512E+03  0.18593907366E+03  0.12499848153E+03 0.  0.
    9000005    1    3    3    0    0  0.25071490896E+02  0.29193306388E+02  0.14206938631E+03  0.14719218499E+03  0.10000000000E+01 0.  0.
    9000005    1    3    3    0    0 -0.25071490896E+02 -0.29193306388E+02 -0.44150411923E+01  0.38746888680E+02  0.10000000000E+01 0.  0.
<mgrwt>
<rscale>  0 0.12499848E+03</rscale>
<asrwt>0</asrwt>
<pdfrwt beam="1">  1        4 0.24891801E-01 0.12499848E+03</pdfrwt>
<pdfrwt beam="2">  1       -4 0.37142100E-02 0.12499848E+03</pdfrwt>
<totfact> 0.92561893E+03</totfact>
</mgrwt>
</event>
<event>
 5    1  0.3284464E-002  0.1250056E+03  0.7818608E-02  0.1235061E+00
         -4   -1    0    0    0  501 -0.00000000000E+00  0.00000000000E+00  0.37546466454E+01  0.39636184770E+01  0.12700000000E+01 0.  1.
          4   -1    0    0  501    0  0.00000000000E+00 -0.00000000000E+00 -0.10120907073E+04  0.10120915041E+04  0.12700000000E+01 0.  1.
         25    2    1    2    0    0  0.00000000000E+00  0.00000000000E+00 -0.10083360606E+04  0.10160551226E+04  0.12500560359E+03 0.  0.
    9000005    1    3    3    0    0 -0.35676095990E+02 -0.48340311912E+02 -0.36432007249E+03  0.36924204094E+03  0.10000000000E+01 0.  0.
    9000005    1    3    3    0    0  0.35676095990E+02  0.48340311912E+02 -0.64401598814E+03  0.64681308162E+03  0.10000000000E+01 0.  0.
<mgrwt>
<rscale>  0 0.12500560E+03</rscale>
<asrwt>0</asrwt>
<pdfrwt beam="2">  1        4 0.15572219E+00 0.12500560E+03</pdfrwt>
<pdfrwt beam="1">  1       -4 0.59377480E-03 0.12500560E+03</pdfrwt>
<totfact> 0.30075117E+03</totfact>
</mgrwt>
</event>
<event>
 5    1  0.3284464E-002  0.1249991E+03  0.7818608E-02  0.1235071E+00
         -4   -1    0    0    0  501 -0.00000000000E+00  0.00000000000E+00  0.72421172460E+02  0.72432307159E+02  0.12700000000E+01 0.  1.
          4   -1    0    0  501    0  0.00000000000E+00 -0.00000000000E+00 -0.53914432737E+02  0.53929388624E+02  0.12700000000E+01 0.  1.
         25    2    1    2    0    0  0.00000000000E+00  0.00000000000E+00  0.18506739723E+02  0.12636169578E+03  0.12499911498E+03 0.  0.
    9000005    1    3    3    0    0  0.40959878552E+02  0.41396986719E+02  0.32167002488E+02  0.66536743304E+02  0.10000000000E+01 0.  0.
    9000005    1    3    3    0    0 -0.40959878552E+02 -0.41396986719E+02 -0.13660262765E+02  0.59824952480E+02  0.10000000000E+01 0.  0.
<mgrwt>
<rscale>  0 0.12499911E+03</rscale>
<asrwt>0</asrwt>
<pdfrwt beam="2">  1        4 0.82965352E-02 0.12499911E+03</pdfrwt>
<pdfrwt beam="1">  1       -4 0.11143726E-01 0.12499911E+03</pdfrwt>
<totfact> 0.10423254E+04</totfact>
</mgrwt>
</event>
<event>
 5    1  0.3284464E-002  0.1250003E+03  0.7818608E-02  0.1235069E+00
         -4   -1    0    0    0  501 -0.00000000000E+00  0.00000000000E+00  0.31240471740E+02  0.31266275354E+02  0.12700000000E+01 0.  1.
          4   -1    0    0  501    0  0.00000000000E+00 -0.00000000000E+00 -0.12495799928E+03  0.12496445288E+03  0.12700000000E+01 0.  1.
         25    2    1    2    0    0  0.00000000000E+00  0.00000000000E+00 -0.93717527538E+02  0.15623072823E+03  0.12500026191E+03 0.  0.
    9000005    1    3    3    0    0  0.50495224252E+02  0.12102541151E+02 -0.34003801807E+01  0.52046150290E+02  0.10000000000E+01 0.  0.
    9000005    1    3    3    0    0 -0.50495224252E+02 -0.12102541151E+02 -0.90317147357E+02  0.10418457794E+03  0.10000000000E+01 0.  0.
<mgrwt>
<rscale>  0 0.12500026E+03</rscale>
<asrwt>0</asrwt>
<pdfrwt beam="2">  1        4 0.19226789E-01 0.12500026E+03</pdfrwt>
<pdfrwt beam="1">  1       -4 0.48087078E-02 0.12500026E+03</pdfrwt>
<totfact> 0.98073854E+03</totfact>
</mgrwt>
</event>
<event>
 4    1  0.3284464E-002  0.1249125E+03  0.7818608E-02  0.1235206E+00
          4   -1    0    0  501    0  0.00000000000E+00  0.00000000000E+00  0.19652375915E+02  0.19693368912E+02  0.12700000000E+01 0. -1.
         -4   -1    0    0    0  501 -0.00000000000E+00 -0.00000000000E+00 -0.19823918140E+03  0.19824324942E+03  0.12700000000E+01 0. -1.
    9000005    1    1    2    0    0  0.40895324773E+02  0.30396536262E+02 -0.26304519207E+02  0.57352460590E+02  0.10000000000E+01 0.  0.
    9000005    1    1    2    0    0 -0.40895324773E+02 -0.30396536262E+02 -0.15228228628E+03  0.16058415775E+03  0.10000000000E+01 0.  0.
<mgrwt>
<rscale>  0 0.12491246E+03</rscale>
<asrwt>0</asrwt>
<pdfrwt beam="1">  1        4 0.30269088E-02 0.12491246E+03</pdfrwt>
<pdfrwt beam="2">  1       -4 0.30501800E-01 0.12491246E+03</pdfrwt>
<totfact> 0.87366660E+03</totfact>
</mgrwt>
</event>
<event>
 5    1  0.3284464E-002  0.1250018E+03  0.7818608E-02  0.1235067E+00
          4   -1    0    0  501    0  0.00000000000E+00  0.00000000000E+00  0.58200057126E+02  0.58213911992E+02  0.12700000000E+01 0.  1.
         -4   -1    0    0    0  501 -0.00000000000E+00 -0.00000000000E+00 -0.67091674164E+02  0.67103693207E+02  0.12700000000E+01 0.  1.
         25    2    1    2    0    0  0.00000000000E+00  0.00000000000E+00 -0.88916170381E+01  0.12531760520E+03  0.12500176527E+03 0.  0.
    9000005    1    3    3    0    0  0.11938569500E+02 -0.25525131590E+02  0.51474142694E+02  0.58691133491E+02  0.10000000000E+01 0.  0.
    9000005    1    3    3    0    0 -0.11938569500E+02  0.25525131590E+02 -0.60365759732E+02  0.66626471709E+02  0.10000000000E+01 0.  0.
<mgrwt>
<rscale>  0 0.12500177E+03</rscale>
<asrwt>0</asrwt>
<pdfrwt beam="1">  1        4 0.89558453E-02 0.12500177E+03</pdfrwt>
<pdfrwt beam="2">  1       -4 0.10323786E-01 0.12500177E+03</pdfrwt>
<totfact> 0.10445551E+04</totfact>
</mgrwt>
</event>
<event>
 5    1  0.3284464E-002  0.1250001E+03  0.7818608E-02  0.1235069E+00
         -4   -1    0    0    0  501 -0.00000000000E+00  0.00000000000E+00  0.22564737180E+03  0.22565094571E+03  0.12700000000E+01 0.  1.
          4   -1    0    0  501    0  0.00000000000E+00 -0.00000000000E+00 -0.17284310057E+02  0.17330905174E+02  0.12700000000E+01 0.  1.
         25    2    1    2    0    0  0.00000000000E+00  0.00000000000E+00  0.20836306174E+03  0.24298185088E+03  0.12500005744E+03 0.  0.
    9000005    1    3    3    0    0  0.20561298277E+02 -0.58045012460E+02  0.83494035856E+02  0.10375087702E+03  0.10000000000E+01 0.  0.
    9000005    1    3    3    0    0 -0.20561298277E+02  0.58045012460E+02  0.12486902589E+03  0.13923097387E+03  0.10000000000E+01 0.  0.
<mgrwt>
<rscale>  0 0.12500006E+03</rscale>
<asrwt>0</asrwt>
<pdfrwt beam="2">  1        4 0.26629837E-02 0.12500006E+03</pdfrwt>
<pdfrwt beam="1">  1       -4 0.34718840E-01 0.12500006E+03</pdfrwt>
<totfact> 0.83355160E+03</totfact>
</mgrwt>
</event>
<event>
 5    1  0.3284464E-002  0.1250009E+03  0.7818608E-02  0.1235068E+00
         -4   -1    0    0    0  501 -0.00000000000E+00  0.00000000000E+00  0.47305743480E+01  0.48980846932E+01  0.12700000000E+01 0. -1.
          4   -1    0    0  501    0  0.00000000000E+00 -0.00000000000E+00 -0.81122303010E+03  0.81122402421E+03  0.12700000000E+01 0. -1.
         25    2    1    2    0    0  0.00000000000E+00  0.00000000000E+00 -0.80649245575E+03  0.81612210891E+03  0.12500086186E+03 0.  0.
    9000005    1    3    3    0    0  0.23652719467E-01 -0.23159597596E+02 -0.24290445342E+02  0.33576677250E+02  0.10000000000E+01 0.  0.
    9000005    1    3    3    0    0 -0.23652719467E-01  0.23159597596E+02 -0.78220201041E+03  0.78254543166E+03  0.10000000000E+01 0.  0.
<mgrwt>
<rscale>  0 0.12500086E+03</rscale>
<asrwt>0</asrwt>
<pdfrwt beam="2">  1        4 0.12481640E+00 0.12500086E+03</pdfrwt>
<pdfrwt beam="1">  1       -4 0.74074320E-03 0.12500086E+03</pdfrwt>
<totfact> 0.37554373E+03</totfact>
</mgrwt>
</event>
<event>
 5    1  0.3284464E-002  0.1250000E+03  0.7818608E-02  0.1235069E+00
         -4   -1    0    0    0  501 -0.00000000000E+00  0.00000000000E+00  0.36143779350E+02  0.36166084744E+02  0.12700000000E+01 0. -1.
          4   -1    0    0  501    0  0.00000000000E+00 -0.00000000000E+00 -0.10801588201E+03  0.10802334778E+03  0.12700000000E+01 0. -1.
         25    2    1    2    0    0  0.00000000000E+00  0.00000000000E+00 -0.71872102658E+02  0.14418943253E+03  0.12499997325E+03 0.  0.
    9000005    1    3    3    0    0  0.53467421706E+02  0.19624807906E+02 -0.62714025509E+01  0.57308191030E+02  0.10000000000E+01 0.  0.
    9000005    1    3    3    0    0 -0.53467421706E+02 -0.19624807906E+02 -0.65600700108E+02  0.86881241496E+02  0.10000000000E+01 0.  0.
<mgrwt>
<rscale>  0 0.12499997E+03</rscale>
<asrwt>0</asrwt>
<pdfrwt beam="2">  1        4 0.16620118E-01 0.12499997E+03</pdfrwt>
<pdfrwt beam="1">  1       -4 0.55628716E-02 0.12499997E+03</pdfrwt>
<totfact> 0.10047489E+04</totfact>
</mgrwt>
</event>
<event>
 5    1  0.3284464E-002  0.1249987E+03  0.7818608E-02  0.1235071E+00
         -4   -1    0    0    0  501 -0.00000000000E+00  0.00000000000E+00  0.76453621881E+03  0.76453727363E+03  0.12700000000E+01 0. -1.
          4   -1    0    0  501    0  0.00000000000E+00 -0.00000000000E+00 -0.50292040355E+01  0.51870794510E+01  0.12700000000E+01 0. -1.
         25    2    1    2    0    0  0.00000000000E+00  0.00000000000E+00  0.75950701477E+03  0.76972435308E+03  0.12499869694E+03 0.  0.
    9000005    1    3    3    0    0 -0.51559967466E+02 -0.34280193556E+02  0.32764526779E+03  0.33344562288E+03  0.10000000000E+01 0.  0.
    9000005    1    3    3    0    0  0.51559967466E+02  0.34280193556E+02  0.43186174698E+03  0.43627873020E+03  0.10000000000E+01 0.  0.
<mgrwt>
<rscale>  0 0.12499870E+03</rscale>
<asrwt>0</asrwt>
<pdfrwt beam="2">  1        4 0.78594965E-03 0.12499870E+03</pdfrwt>
<pdfrwt beam="1">  1       -4 0.11763310E+00 0.12499870E+03</pdfrwt>
<totfact> 0.39649165E+03</totfact>
</mgrwt>
</event>
<event>
 5    1  0.3284464E-002  0.1249974E+03  0.7818608E-02  0.1235073E+00
         -4   -1    0    0    0  501 -0.00000000000E+00  0.00000000000E+00  0.65125049665E+02  0.65137431588E+02  0.12700000000E+01 0.  1.
          4   -1    0    0  501    0  0.00000000000E+00 -0.00000000000E+00 -0.59953414452E+02  0.59966864221E+02  0.12700000000E+01 0.  1.
         25    2    1    2    0    0  0.00000000000E+00  0.00000000000E+00  0.51716352132E+01  0.12510429581E+03  0.12499735605E+03 0.  0.
    9000005    1    3    3    0    0 -0.53670897181E+02  0.14505039163E+02  0.31143076042E+02  0.63732664707E+02  0.10000000000E+01 0.  0.
    9000005    1    3    3    0    0  0.53670897181E+02 -0.14505039163E+02 -0.25971440829E+02  0.61371631102E+02  0.10000000000E+01 0.  0.
<mgrwt>
<rscale>  0 0.12499736E+03</rscale>
<asrwt>0</asrwt>
<pdfrwt beam="2">  1        4 0.92255893E-02 0.12499736E+03</pdfrwt>
<pdfrwt beam="1">  1       -4 0.10021225E-01 0.12499736E+03</pdfrwt>
<totfact> 0.10451222E+04</totfact>
</mgrwt>
</event>
<event>
 5    1  0.3284464E-002  0.1249986E+03  0.7818608E-02  0.1235071E+00
          4   -1    0    0  501    0  0.00000000000E+00  0.00000000000E+00  0.24263421350E+02  0.24296635891E+02  0.12700000000E+01 0. -1.
         -4   -1    0    0    0  501 -0.00000000000E+00 -0.00000000000E+00 -0.16084388732E+03  0.16084890111E+03  0.12700000000E+01 0. -1.
         25    2    1    2    0    0  0.00000000000E+00  0.00000000000E+00 -0.13658046597E+03  0.18514553700E+03  0.12499858474E+03 0.  0.
    9000005    1    3    3    0    0 -0.35523061490E+02 -0.87398545383E+01 -0.14333348771E+03  0.14793161141E+03  0.10000000000E+01 0.  0.
    9000005    1    3    3    0    0  0.35523061490E+02  0.87398545383E+01  0.67530217436E+01  0.37213925588E+02  0.10000000000E+01 0.  0.
<mgrwt>
<rscale>  0 0.12499858E+03</rscale>
<asrwt>0</asrwt>
<pdfrwt beam="1">  1        4 0.37357748E-02 0.12499858E+03</pdfrwt>
<pdfrwt beam="2">  1       -4 0.24748153E-01 0.12499858E+03</pdfrwt>
<totfact> 0.92701844E+03</totfact>
</mgrwt>
</event>
<event>
 5    1  0.3284464E-002  0.1249780E+03  0.7818608E-02  0.1235104E+00
         -4   -1    0    0    0  501 -0.00000000000E+00  0.00000000000E+00  0.11725188795E+03  0.11725876568E+03  0.12700000000E+01 0.  1.
          4   -1    0    0  501    0  0.00000000000E+00 -0.00000000000E+00 -0.33283344958E+02  0.33307565981E+02  0.12700000000E+01 0.  1.
         25    2    1    2    0    0  0.00000000000E+00  0.00000000000E+00  0.83968542992E+02  0.15056633166E+03  0.12497801413E+03 0.  0.
    9000005    1    3    3    0    0  0.22962520652E+02 -0.50898240103E+02  0.75759370289E+02  0.94119022450E+02  0.10000000000E+01 0.  0.
    9000005    1    3    3    0    0 -0.22962520652E+02  0.50898240103E+02  0.82091727028E+01  0.56447309207E+02  0.10000000000E+01 0.  0.
<mgrwt>
<rscale>  0 0.12497801E+03</rscale>
<asrwt>0</asrwt>
<pdfrwt beam="2">  1        4 0.51229069E-02 0.12497801E+03</pdfrwt>
<pdfrwt beam="1">  1       -4 0.18041144E-01 0.12497801E+03</pdfrwt>
<totfact> 0.99240021E+03</totfact>
</mgrwt>
</event>
<event>
 5    1  0.3284464E-002  0.1249980E+03  0.7818608E-02  0.1235072E+00
         -4   -1    0    0    0  501 -0.00000000000E+00  0.00000000000E+00  0.69823360602E+02  0.69834909506E+02  0.12700000000E+01 0.  1.
          4   -1    0    0  501    0  0.00000000000E+00 -0.00000000000E+00 -0.55919565029E+02  0.55933984777E+02  0.12700000000E+01 0.  1.
         25    2    1    2    0    0  0.00000000000E+00  0.00000000000E+00  0.13903795573E+02  0.12576889428E+03  0.12499799693E+03 0.  0.
    9000005    1    3    3    0    0  0.44244542088E+02  0.20344866159E+02 -0.32451233094E+02  0.58528417140E+02  0.10000000000E+01 0.  0.
    9000005    1    3    3    0    0 -0.44244542088E+02 -0.20344866159E+02  0.46355028667E+02  0.67240477142E+02  0.10000000000E+01 0.  0.
<mgrwt>
<rscale>  0 0.12499800E+03</rscale>
<asrwt>0</asrwt>
<pdfrwt beam="2">  1        4 0.86050076E-02 0.12499800E+03</pdfrwt>
<pdfrwt beam="1">  1       -4 0.10744053E-01 0.12499800E+03</pdfrwt>
<totfact> 0.10436501E+04</totfact>
</mgrwt>
</event>
<event>
 4    1  0.3284464E-002  0.1255846E+03  0.7818608E-02  0.1234159E+00
          4   -1    0    0  501    0  0.00000000000E+00  0.00000000000E+00  0.34692420876E+02  0.34715658805E+02  0.12700000000E+01 0.  1.
         -4   -1    0    0    0  501 -0.00000000000E+00 -0.00000000000E+00 -0.11358737717E+03  0.11359447676E+03  0.12700000000E+01 0.  1.
    9000005    1    1    2    0    0 -0.45420500161E+02  0.27074421323E+02  0.52799513412E+00  0.52889742897E+02  0.10000000000E+01 0.  0.
    9000005    1    1    2    0    0  0.45420500161E+02 -0.27074421323E+02 -0.79422951424E+02  0.95420392673E+02  0.10000000000E+01 0.  0.
<mgrwt>
<rscale>  0 0.12558456E+03</rscale>
<asrwt>0</asrwt>
<pdfrwt beam="1">  1        4 0.53396292E-02 0.12558456E+03</pdfrwt>
<pdfrwt beam="2">  1       -4 0.17477315E-01 0.12558456E+03</pdfrwt>
<totfact> 0.98341752E+03</totfact>
</mgrwt>
</event>
<event>
 5    1  0.3284464E-002  0.1250030E+03  0.7818608E-02  0.1235065E+00
          4   -1    0    0  501    0  0.00000000000E+00  0.00000000000E+00  0.27981447111E+02  0.28010253167E+02  0.12700000000E+01 0. -1.
         -4   -1    0    0    0  501 -0.00000000000E+00 -0.00000000000E+00 -0.13950457545E+03  0.13951035615E+03  0.12700000000E+01 0. -1.
         25    2    1    2    0    0  0.00000000000E+00  0.00000000000E+00 -0.11152312834E+03  0.16752060931E+03  0.12500298552E+03 0.  0.
    9000005    1    3    3    0    0  0.11708647124E+02  0.58996868323E+02 -0.78493066300E+02  0.98893297784E+02  0.10000000000E+01 0.  0.
    9000005    1    3    3    0    0 -0.11708647124E+02 -0.58996868323E+02 -0.33030062041E+02  0.68627311530E+02  0.10000000000E+01 0.  0.
<mgrwt>
<rscale>  0 0.12500299E+03</rscale>
<asrwt>0</asrwt>
<pdfrwt beam="1">  1        4 0.43074986E-02 0.12500299E+03</pdfrwt>
<pdfrwt beam="2">  1       -4 0.21464903E-01 0.12500299E+03</pdfrwt>
<totfact> 0.95905717E+03</totfact>
</mgrwt>
</event>
<event>
 5    1  0.3284464E-002  0.1250363E+03  0.7818608E-02  0.1235013E+00
         -4   -1    0    0    0  501 -0.00000000000E+00  0.00000000000E+00  0.61515822686E+03  0.61515953782E+03  0.12700000000E+01 0. -1.
          4   -1    0    0  501    0  0.00000000000E+00 -0.00000000000E+00 -0.62888833811E+01  0.64158362028E+01  0.12700000000E+01 0. -1.
         25    2    1    2    0    0  0.00000000000E+00  0.00000000000E+00  0.60886934347E+03  0.62157537402E+03  0.12503626740E+03 0.  0.
    9000005    1    3    3    0    0 -0.50162274371E+02  0.34759272189E+02  0.37169362463E+03  0.37667175547E+03  0.10000000000E+01 0.  0.
    9000005    1    3    3    0    0  0.50162274371E+02 -0.34759272189E+02  0.23717571884E+03  0.24490361855E+03  0.10000000000E+01 0.  0.
<mgrwt>
<rscale>  0 0.12503627E+03</rscale>
<asrwt>0</asrwt>
<pdfrwt beam="2">  1        4 0.97738721E-03 0.12503627E+03</pdfrwt>
<pdfrwt beam="1">  1       -4 0.94649570E-01 0.12503627E+03</pdfrwt>
<totfact> 0.47495676E+03</totfact>
</mgrwt>
</event>
<event>
 5    1  0.3284464E-002  0.1250015E+03  0.7818608E-02  0.1235067E+00
          4   -1    0    0  501    0  0.00000000000E+00  0.00000000000E+00  0.14074146974E+02  0.14131330902E+02  0.12700000000E+01 0. -1.
         -4   -1    0    0    0  501 -0.00000000000E+00 -0.00000000000E+00 -0.27693308890E+03  0.27693600096E+03  0.12700000000E+01 0. -1.
         25    2    1    2    0    0  0.00000000000E+00  0.00000000000E+00 -0.26285894192E+03  0.29106733186E+03  0.12500147330E+03 0.  0.
    9000005    1    3    3    0    0  0.40454733024E+02  0.45628318697E+02 -0.99603467776E+02  0.11679203605E+03  0.10000000000E+01 0.  0.
    9000005    1    3    3    0    0 -0.40454733024E+02 -0.45628318697E+02 -0.16325547415E+03  0.17427529581E+03  0.10000000000E+01 0.  0.
<mgrwt>
<rscale>  0 0.12500147E+03</rscale>
<asrwt>0</asrwt>
<pdfrwt beam="1">  1        4 0.21698763E-02 0.12500147E+03</pdfrwt>
<pdfrwt beam="2">  1       -4 0.42609710E-01 0.12500147E+03</pdfrwt>
<totfact> 0.76730665E+03</totfact>
</mgrwt>
</event>
<event>
 5    1  0.3284464E-002  0.1250011E+03  0.7818608E-02  0.1235068E+00
         -4   -1    0    0    0  501 -0.00000000000E+00  0.00000000000E+00  0.26364719622E+02  0.26395290125E+02  0.12700000000E+01 0. -1.
          4   -1    0    0  501    0  0.00000000000E+00 -0.00000000000E+00 -0.14804549602E+03  0.14805094323E+03  0.12700000000E+01 0. -1.
         25    2    1    2    0    0  0.00000000000E+00  0.00000000000E+00 -0.12168077640E+03  0.17444623336E+03  0.12500110795E+03 0.  0.
    9000005    1    3    3    0    0 -0.83742413516E+01  0.40911415772E+02 -0.12572176672E+03  0.13247956252E+03  0.10000000000E+01 0.  0.
    9000005    1    3    3    0    0  0.83742413516E+01 -0.40911415772E+02  0.40409903168E+01  0.41966670840E+02  0.10000000000E+01 0.  0.
<mgrwt>
<rscale>  0 0.12500111E+03</rscale>
<asrwt>0</asrwt>
<pdfrwt beam="2">  1        4 0.22779000E-01 0.12500111E+03</pdfrwt>
<pdfrwt beam="1">  1       -4 0.40588814E-02 0.12500111E+03</pdfrwt>
<totfact> 0.94624008E+03</totfact>
</mgrwt>
</event>
<event>
 5    1  0.3284464E-002  0.1249971E+03  0.7818608E-02  0.1235074E+00
         -4   -1    0    0    0  501 -0.00000000000E+00  0.00000000000E+00  0.13279366147E+02  0.13339957468E+02  0.12700000000E+01 0. -1.
          4   -1    0    0  501    0  0.00000000000E+00 -0.00000000000E+00 -0.29341416176E+03  0.29341691025E+03  0.12700000000E+01 0. -1.
         25    2    1    2    0    0  0.00000000000E+00  0.00000000000E+00 -0.28013479561E+03  0.30675686772E+03  0.12499708868E+03 0.  0.
    9000005    1    3    3    0    0 -0.50227846934E+02  0.36797608433E+02 -0.12704268460E+03  0.14148407792E+03  0.10000000000E+01 0.  0.
    9000005    1    3    3    0    0  0.50227846934E+02 -0.36797608433E+02 -0.15309211101E+03  0.16527278980E+03  0.10000000000E+01 0.  0.
<mgrwt>
<rscale>  0 0.12499709E+03</rscale>
<asrwt>0</asrwt>
<pdfrwt beam="2">  1        4 0.45145508E-01 0.12499709E+03</pdfrwt>
<pdfrwt beam="1">  1       -4 0.20478519E-02 0.12499709E+03</pdfrwt>
<totfact> 0.74763844E+03</totfact>
</mgrwt>
</event>
<event>
 5    1  0.3284464E-002  0.1249965E+03  0.7818608E-02  0.1235075E+00
          4   -1    0    0  501    0  0.00000000000E+00  0.00000000000E+00  0.12963464524E+03  0.12964086603E+03  0.12700000000E+01 0.  1.
         -4   -1    0    0    0  501 -0.00000000000E+00 -0.00000000000E+00 -0.30110766544E+02  0.30137537422E+02  0.12700000000E+01 0.  1.
         25    2    1    2    0    0  0.00000000000E+00  0.00000000000E+00  0.99523878695E+02  0.15977840346E+03  0.12499654308E+03 0.  0.
    9000005    1    3    3    0    0 -0.34814660118E+02  0.44727248723E+02  0.83398626895E+02  0.10084105466E+03  0.10000000000E+01 0.  0.
    9000005    1    3    3    0    0  0.34814660118E+02 -0.44727248723E+02  0.16125251800E+02  0.58937348795E+02  0.10000000000E+01 0.  0.
<mgrwt>
<rscale>  0 0.12499654E+03</rscale>
<asrwt>0</asrwt>
<pdfrwt beam="1">  1        4 0.19946329E-01 0.12499654E+03</pdfrwt>
<pdfrwt beam="2">  1       -4 0.46349635E-02 0.12499654E+03</pdfrwt>
<totfact> 0.97393092E+03</totfact>
</mgrwt>
</event>
<event>
 5    1  0.3284464E-002  0.1249977E+03  0.7818608E-02  0.1235073E+00
          4   -1    0    0  501    0  0.00000000000E+00  0.00000000000E+00  0.12262840999E+02  0.12328429315E+02  0.12700000000E+01 0. -1.
         -4   -1    0    0    0  501 -0.00000000000E+00 -0.00000000000E+00 -0.31761550600E+03  0.31761804507E+03  0.12700000000E+01 0. -1.
         25    2    1    2    0    0  0.00000000000E+00  0.00000000000E+00 -0.30535266501E+03  0.32994647438E+03  0.12499770371E+03 0.  0.
    9000005    1    3    3    0    0  0.20449090143E+02 -0.29554117084E+02 -0.17732722588E+02  0.40088160031E+02  0.10000000000E+01 0.  0.
    9000005    1    3    3    0    0 -0.20449090143E+02  0.29554117084E+02 -0.28761994242E+03  0.28985831435E+03  0.10000000000E+01 0.  0.
<mgrwt>
<rscale>  0 0.12499770E+03</rscale>
<asrwt>0</asrwt>
<pdfrwt beam="1">  1        4 0.18918317E-02 0.12499770E+03</pdfrwt>
<pdfrwt beam="2">  1       -4 0.48869158E-01 0.12499770E+03</pdfrwt>
<totfact> 0.71992200E+03</totfact>
</mgrwt>
</event>
<event>
 5    1  0.3284464E-002  0.1249982E+03  0.7818608E-02  0.1235072E+00
          4   -1    0    0  501    0  0.00000000000E+00  0.00000000000E+00  0.67511712158E+01  0.68695860708E+01  0.12700000000E+01 0. -1.
         -4   -1    0    0    0  501 -0.00000000000E+00 -0.00000000000E+00 -0.57343773767E+03  0.57343914401E+03  0.12700000000E+01 0. -1.
         25    2    1    2    0    0  0.00000000000E+00  0.00000000000E+00 -0.56668656645E+03  0.58030873008E+03  0.12499823043E+03 0.  0.
    9000005    1    3    3    0    0 -0.58143039707E+02 -0.20638343097E+02 -0.32943903969E+03  0.33516807000E+03  0.10000000000E+01 0.  0.
    9000005    1    3    3    0    0  0.58143039707E+02  0.20638343097E+02 -0.23724752676E+03  0.24514066008E+03  0.10000000000E+01 0.  0.
<mgrwt>
<rscale>  0 0.12499823E+03</rscale>
<asrwt>0</asrwt>
<pdfrwt beam="1">  1        4 0.10478592E-02 0.12499823E+03</pdfrwt>
<pdfrwt beam="2">  1       -4 0.88230370E-01 0.12499823E+03</pdfrwt>
<totfact> 0.50136609E+03</totfact>
</mgrwt>
</event>
<event>
 5    1  0.3284464E-002  0.1250054E+03  0.7818608E-02  0.1235061E+00
          4   -1    0    0  501    0  0.00000000000E+00  0.00000000000E+00  0.23941631541E+02  0.23975291882E+02  0.12700000000E+01 0. -1.
         -4   -1    0    0    0  501 -0.00000000000E+00 -0.00000000000E+00 -0.16302050321E+03  0.16302545006E+03  0.12700000000E+01 0. -1.
         25    2    1    2    0    0  0.00000000000E+00  0.00000000000E+00 -0.13907887167E+03  0.18700074195E+03  0.12500537965E+03 0.  0.
    9000005    1    3    3    0    0 -0.35518479068E+02 -0.42832039420E+02 -0.11209996629E+03  0.12515409861E+03  0.10000000000E+01 0.  0.
    9000005    1    3    3    0    0  0.35518479068E+02  0.42832039420E+02 -0.26978905380E+02  0.61846643334E+02  0.10000000000E+01 0.  0.
<mgrwt>
<rscale>  0 0.12500538E+03</rscale>
<asrwt>0</asrwt>
<pdfrwt beam="1">  1        4 0.36862978E-02 0.12500538E+03</pdfrwt>
<pdfrwt beam="2">  1       -4 0.25083046E-01 0.12500538E+03</pdfrwt>
<totfact> 0.92360677E+03</totfact>
</mgrwt>
</event>
<event>
 5    1  0.3284464E-002  0.1249982E+03  0.7818608E-02  0.1235072E+00
         -4   -1    0    0    0  501 -0.00000000000E+00  0.00000000000E+00  0.51292156617E+01  0.52841038317E+01  0.12700000000E+01 0. -1.
          4   -1    0    0  501    0  0.00000000000E+00 -0.00000000000E+00 -0.75006400118E+03  0.75006507636E+03  0.12700000000E+01 0. -1.
         25    2    1    2    0    0  0.00000000000E+00  0.00000000000E+00 -0.74493478552E+03  0.75534918019E+03  0.12499819732E+03 0.  0.
    9000005    1    3    3    0    0 -0.30367851031E+02 -0.52524564368E+02 -0.46292935448E+03  0.46688930538E+03  0.10000000000E+01 0.  0.
    9000005    1    3    3    0    0  0.30367851031E+02  0.52524564368E+02 -0.28200543104E+03  0.28845987481E+03  0.10000000000E+01 0.  0.
<mgrwt>
<rscale>  0 0.12499820E+03</rscale>
<asrwt>0</asrwt>
<pdfrwt beam="2">  1        4 0.11540637E+00 0.12499820E+03</pdfrwt>
<pdfrwt beam="1">  1       -4 0.80110788E-03 0.12499820E+03</pdfrwt>
<totfact> 0.40321198E+03</totfact>
</mgrwt>
</event>
<event>
 5    1  0.3284464E-002  0.1249984E+03  0.7818608E-02  0.1235072E+00
         -4   -1    0    0    0  501 -0.00000000000E+00  0.00000000000E+00  0.24868892436E+02  0.24901299384E+02  0.12700000000E+01 0. -1.
          4   -1    0    0  501    0  0.00000000000E+00 -0.00000000000E+00 -0.15693250182E+03  0.15693764057E+03  0.12700000000E+01 0. -1.
         25    2    1    2    0    0  0.00000000000E+00  0.00000000000E+00 -0.13206360938E+03  0.18183893995E+03  0.12499841263E+03 0.  0.
    9000005    1    3    3    0    0 -0.76963901706E+01 -0.10754946366E+02  0.22816923773E+02  0.26391576373E+02  0.10000000000E+01 0.  0.
    9000005    1    3    3    0    0  0.76963901706E+01  0.10754946366E+02 -0.15488053316E+03  0.15544736358E+03  0.10000000000E+01 0.  0.
<mgrwt>
<rscale>  0 0.12499841E+03</rscale>
<asrwt>0</asrwt>
<pdfrwt beam="2">  1        4 0.24146349E-01 0.12499841E+03</pdfrwt>
<pdfrwt beam="1">  1       -4 0.38288717E-02 0.12499841E+03</pdfrwt>
<totfact> 0.93290351E+03</totfact>
</mgrwt>
</event>
<event>
 5    1  0.3284464E-002  0.1250099E+03  0.7818608E-02  0.1235054E+00
          4   -1    0    0  501    0  0.00000000000E+00  0.00000000000E+00  0.15895347342E+02  0.15946001603E+02  0.12700000000E+01 0. -1.
         -4   -1    0    0    0  501 -0.00000000000E+00 -0.00000000000E+00 -0.24534345217E+03  0.24534673917E+03  0.12700000000E+01 0. -1.
         25    2    1    2    0    0  0.00000000000E+00  0.00000000000E+00 -0.22944810482E+03  0.26129274077E+03  0.12500985390E+03 0.  0.
    9000005    1    3    3    0    0  0.10832921120E+02  0.56505508046E+02 -0.16573642095E+03  0.17544168789E+03  0.10000000000E+01 0.  0.
    9000005    1    3    3    0    0 -0.10832921120E+02 -0.56505508046E+02 -0.63711683877E+02  0.85851052888E+02  0.10000000000E+01 0.  0.
<mgrwt>
<rscale>  0 0.12500985E+03</rscale>
<asrwt>0</asrwt>
<pdfrwt beam="1">  1        4 0.24495876E-02 0.12500985E+03</pdfrwt>
<pdfrwt beam="2">  1       -4 0.37749293E-01 0.12500985E+03</pdfrwt>
<totfact> 0.80707283E+03</totfact>
</mgrwt>
</event>
<event>
 5    1  0.3284464E-002  0.1250000E+03  0.7818608E-02  0.1235069E+00
         -4   -1    0    0    0  501 -0.00000000000E+00  0.00000000000E+00  0.59257541979E+02  0.59271149655E+02  0.12700000000E+01 0. -1.
          4   -1    0    0  501    0  0.00000000000E+00 -0.00000000000E+00 -0.65892602819E+02  0.65904840537E+02  0.12700000000E+01 0. -1.
         25    2    1    2    0    0  0.00000000000E+00  0.00000000000E+00 -0.66350608395E+01  0.12517599019E+03  0.12500001795E+03 0.  0.
    9000005    1    3    3    0    0  0.58845074127E+02  0.19503482915E+02 -0.11210410738E+02  0.63006363994E+02  0.10000000000E+01 0.  0.
    9000005    1    3    3    0    0 -0.58845074127E+02 -0.19503482915E+02  0.45753498987E+01  0.62169626198E+02  0.10000000000E+01 0.  0.
<mgrwt>
<rscale>  0 0.12500002E+03</rscale>
<asrwt>0</asrwt>
<pdfrwt beam="2">  1        4 0.10139312E-01 0.12500002E+03</pdfrwt>
<pdfrwt beam="1">  1       -4 0.91185331E-02 0.12500002E+03</pdfrwt>
<totfact> 0.10449037E+04</totfact>
</mgrwt>
</event>
<event>
 5    1  0.3284464E-002  0.1249980E+03  0.7818608E-02  0.1235072E+00
         -4   -1    0    0    0  501 -0.00000000000E+00  0.00000000000E+00  0.20060808413E+02  0.20100968489E+02  0.12700000000E+01 0.  1.
          4   -1    0    0  501    0  0.00000000000E+00 -0.00000000000E+00 -0.19447726991E+03  0.19448141662E+03  0.12700000000E+01 0.  1.
         25    2    1    2    0    0  0.00000000000E+00  0.00000000000E+00 -0.17441646150E+03  0.21458238511E+03  0.12499799182E+03 0.  0.
    9000005    1    3    3    0    0 -0.37527337116E+02 -0.39295064338E+02 -0.14019579882E+03  0.15036045064E+03  0.10000000000E+01 0.  0.
    9000005    1    3    3    0    0  0.37527337116E+02  0.39295064338E+02 -0.34220662681E+02  0.64221934467E+02  0.10000000000E+01 0.  0.
<mgrwt>
<rscale>  0 0.12499799E+03</rscale>
<asrwt>0</asrwt>
<pdfrwt beam="2">  1        4 0.29922987E-01 0.12499799E+03</pdfrwt>
<pdfrwt beam="1">  1       -4 0.30896866E-02 0.12499799E+03</pdfrwt>
<totfact> 0.87736881E+03</totfact>
</mgrwt>
</event>
<event>
 5    1  0.3284464E-002  0.1250043E+03  0.7818608E-02  0.1235063E+00
         -4   -1    0    0    0  501 -0.00000000000E+00  0.00000000000E+00  0.10450976411E+04  0.10450984128E+04  0.12700000000E+01 0.  1.
          4   -1    0    0  501    0  0.00000000000E+00 -0.00000000000E+00 -0.36292751437E+01  0.38450667184E+01  0.12700000000E+01 0.  1.
         25    2    1    2    0    0  0.00000000000E+00  0.00000000000E+00  0.10414683660E+04  0.10489434795E+04  0.12500426326E+03 0.  0.
    9000005    1    3    3    0    0  0.33751910853E+02 -0.92979634488E+01  0.95512872216E+03  0.95577064168E+03  0.10000000000E+01 0.  0.
    9000005    1    3    3    0    0 -0.33751910853E+02  0.92979634488E+01  0.86339643840E+02  0.93172837828E+02  0.10000000000E+01 0.  0.
<mgrwt>
<rscale>  0 0.12500426E+03</rscale>
<asrwt>0</asrwt>
<pdfrwt beam="2">  1        4 0.57500809E-03 0.12500426E+03</pdfrwt>
<pdfrwt beam="1">  1       -4 0.16080109E+00 0.12500426E+03</pdfrwt>
<totfact> 0.29025042E+03</totfact>
</mgrwt>
</event>
<event>
 5    1  0.3284464E-002  0.1249963E+03  0.7818608E-02  0.1235075E+00
         -4   -1    0    0    0  501 -0.00000000000E+00  0.00000000000E+00  0.19196068245E+02  0.19238033582E+02  0.12700000000E+01 0. -1.
          4   -1    0    0  501    0  0.00000000000E+00 -0.00000000000E+00 -0.20321401862E+03  0.20321798706E+03  0.12700000000E+01 0. -1.
         25    2    1    2    0    0  0.00000000000E+00  0.00000000000E+00 -0.18401795038E+03  0.22245602064E+03  0.12499630018E+03 0.  0.
    9000005    1    3    3    0    0 -0.69302749708E+01  0.60698744755E+02 -0.68624191100E+02  0.91883871980E+02  0.10000000000E+01 0.  0.
    9000005    1    3    3    0    0  0.69302749708E+01 -0.60698744755E+02 -0.11539375928E+03  0.13057214866E+03  0.10000000000E+01 0.  0.
<mgrwt>
<rscale>  0 0.12499630E+03</rscale>
<asrwt>0</asrwt>
<pdfrwt beam="2">  1        4 0.31267227E-01 0.12499630E+03</pdfrwt>
<pdfrwt beam="1">  1       -4 0.29567748E-02 0.12499630E+03</pdfrwt>
<totfact> 0.86488349E+03</totfact>
</mgrwt>
</event>
<event>
 5    1  0.3284464E-002  0.1250010E+03  0.7818608E-02  0.1235068E+00
         -4   -1    0    0    0  501 -0.00000000000E+00  0.00000000000E+00  0.50034499060E+02  0.50050614344E+02  0.12700000000E+01 0.  1.
          4   -1    0    0  501    0  0.00000000000E+00 -0.00000000000E+00 -0.78038553746E+02  0.78048887057E+02  0.12700000000E+01 0.  1.
         25    2    1    2    0    0  0.00000000000E+00  0.00000000000E+00 -0.28004054686E+02  0.12809950140E+03  0.12500102072E+03 0.  0.
    9000005    1    3    3    0    0 -0.58737289506E+02  0.48266866271E+01  0.72964947801E+01  0.59393643754E+02  0.10000000000E+01 0.  0.
    9000005    1    3    3    0    0  0.58737289506E+02 -0.48266866271E+01 -0.35300549466E+02  0.68705857646E+02  0.10000000000E+01 0.  0.
<mgrwt>
<rscale>  0 0.12500102E+03</rscale>
<asrwt>0</asrwt>
<pdfrwt beam="2">  1        4 0.12007966E-01 0.12500102E+03</pdfrwt>
<pdfrwt beam="1">  1       -4 0.76996497E-02 0.12500102E+03</pdfrwt>
<totfact> 0.10385100E+04</totfact>
</mgrwt>
</event>
<event>
 5    1  0.3284464E-002  0.1250016E+03  0.7818608E-02  0.1235067E+00
          4   -1    0    0  501    0  0.00000000000E+00  0.00000000000E+00  0.28746174200E+03  0.28746454740E+03  0.12700000000E+01 0.  1.
         -4   -1    0    0    0  501 -0.00000000000E+00 -0.00000000000E+00 -0.13556561662E+02  0.13615919510E+02  0.12700000000E+01 0.  1.
         25    2    1    2    0    0  0.00000000000E+00  0.00000000000E+00  0.27390518034E+03  0.30108046692E+03  0.12500159895E+03 0.  0.
    9000005    1    3    3    0    0  0.32184178859E+01 -0.54494321366E+02  0.21022197224E+03  0.21719637862E+03  0.10000000000E+01 0.  0.
    9000005    1    3    3    0    0 -0.32184178859E+01  0.54494321366E+02  0.63683208103E+02  0.83884088295E+02  0.10000000000E+01 0.  0.
<mgrwt>
<rscale>  0 0.12500160E+03</rscale>
<asrwt>0</asrwt>
<pdfrwt beam="1">  1        4 0.44229664E-01 0.12500160E+03</pdfrwt>
<pdfrwt beam="2">  1       -4 0.20904067E-02 0.12500160E+03</pdfrwt>
<totfact> 0.75460827E+03</totfact>
</mgrwt>
</event>
<event>
 5    1  0.3284464E-002  0.1250000E+03  0.7818608E-02  0.1235069E+00
          4   -1    0    0  501    0  0.00000000000E+00  0.00000000000E+00  0.22128726677E+02  0.22165140296E+02  0.12700000000E+01 0. -1.
         -4   -1    0    0    0  501 -0.00000000000E+00 -0.00000000000E+00 -0.17634024653E+03  0.17634481973E+03  0.12700000000E+01 0. -1.
         25    2    1    2    0    0  0.00000000000E+00  0.00000000000E+00 -0.15421151985E+03  0.19850996003E+03  0.12500004550E+03 0.  0.
    9000005    1    3    3    0    0  0.59683847330E+01  0.53968462844E+02 -0.12623457887E+03  0.13742046973E+03  0.10000000000E+01 0.  0.
    9000005    1    3    3    0    0 -0.59683847330E+01 -0.53968462844E+02 -0.27976940980E+02  0.61089490296E+02  0.10000000000E+01 0.  0.
<mgrwt>
<rscale>  0 0.12500005E+03</rscale>
<asrwt>0</asrwt>
<pdfrwt beam="1">  1        4 0.34075724E-02 0.12500005E+03</pdfrwt>
<pdfrwt beam="2">  1       -4 0.27132421E-01 0.12500005E+03</pdfrwt>
<totfact> 0.90387238E+03</totfact>
</mgrwt>
</event>
<event>
 5    1  0.3284464E-002  0.1249956E+03  0.7818608E-02  0.1235076E+00
         -4   -1    0    0    0  501 -0.00000000000E+00  0.00000000000E+00  0.17687277232E+03  0.17687733175E+03  0.12700000000E+01 0. -1.
          4   -1    0    0  501    0  0.00000000000E+00 -0.00000000000E+00 -0.22060405535E+02  0.22096931741E+02  0.12700000000E+01 0. -1.
         25    2    1    2    0    0  0.00000000000E+00  0.00000000000E+00  0.15481236679E+03  0.19897426350E+03  0.12499555441E+03 0.  0.
    9000005    1    3    3    0    0  0.35672594739E+02  0.30304145268E+02  0.11500931249E+02  0.48209404222E+02  0.10000000000E+01 0.  0.
    9000005    1    3    3    0    0 -0.35672594739E+02 -0.30304145268E+02  0.14331143554E+03  0.15076485927E+03  0.10000000000E+01 0.  0.
<mgrwt>
<rscale>  0 0.12499555E+03</rscale>
<asrwt>0</asrwt>
<pdfrwt beam="2">  1        4 0.33970691E-02 0.12499555E+03</pdfrwt>
<pdfrwt beam="1">  1       -4 0.27214355E-01 0.12499555E+03</pdfrwt>
<totfact> 0.90317780E+03</totfact>
</mgrwt>
</event>
<event>
 5    1  0.3284464E-002  0.1249973E+03  0.7818608E-02  0.1235074E+00
         -4   -1    0    0    0  501 -0.00000000000E+00  0.00000000000E+00  0.15515271634E+03  0.15515791404E+03  0.12700000000E+01 0. -1.
          4   -1    0    0  501    0  0.00000000000E+00 -0.00000000000E+00 -0.25154068128E+02  0.25186108143E+02  0.12700000000E+01 0. -1.
         25    2    1    2    0    0  0.00000000000E+00  0.00000000000E+00  0.12999864821E+03  0.18034402218E+03  0.12499727117E+03 0.  0.
    9000005    1    3    3    0    0  0.37320930635E+02 -0.48333576785E+02  0.45853582497E+02  0.76371051689E+02  0.10000000000E+01 0.  0.
    9000005    1    3    3    0    0 -0.37320930635E+02  0.48333576785E+02  0.84145065716E+02  0.10397297049E+03  0.10000000000E+01 0.  0.
<mgrwt>
<rscale>  0 0.12499727E+03</rscale>
<asrwt>0</asrwt>
<pdfrwt beam="2">  1        4 0.38727210E-02 0.12499727E+03</pdfrwt>
<pdfrwt beam="1">  1       -4 0.23872513E-01 0.12499727E+03</pdfrwt>
<totfact> 0.93560838E+03</totfact>
</mgrwt>
</event>
<event>
 5    1  0.3284464E-002  0.1249992E+03  0.7818608E-02  0.1235070E+00
          4   -1    0    0  501    0  0.00000000000E+00  0.00000000000E+00  0.13839940248E+03  0.13840522933E+03  0.12700000000E+01 0.  1.
         -4   -1    0    0    0  501 -0.00000000000E+00 -0.00000000000E+00 -0.28203408969E+02  0.28231988550E+02  0.12700000000E+01 0.  1.
         25    2    1    2    0    0  0.00000000000E+00  0.00000000000E+00  0.11019599351E+03  0.16663721788E+03  0.12499922159E+03 0.  0.
    9000005    1    3    3    0    0 -0.33140269622E+02 -0.42784599768E+02  0.96754134995E+02  0.11086551351E+03  0.10000000000E+01 0.  0.
    9000005    1    3    3    0    0  0.33140269622E+02  0.42784599768E+02  0.13441858515E+02  0.55771704369E+02  0.10000000000E+01 0.  0.
<mgrwt>
<rscale>  0 0.12499922E+03</rscale>
<asrwt>0</asrwt>
<pdfrwt beam="1">  1        4 0.21294862E-01 0.12499922E+03</pdfrwt>
<pdfrwt beam="2">  1       -4 0.43416327E-02 0.12499922E+03</pdfrwt>
<totfact> 0.96079905E+03</totfact>
</mgrwt>
</event>
<event>
 5    1  0.3284464E-002  0.1249934E+03  0.7818608E-02  0.1235080E+00
         -4   -1    0    0    0  501 -0.00000000000E+00  0.00000000000E+00  0.49457814929E+03  0.49457977987E+03  0.12700000000E+01 0.  1.
          4   -1    0    0  501    0  0.00000000000E+00 -0.00000000000E+00 -0.78446044460E+01  0.79467426607E+01  0.12700000000E+01 0.  1.
         25    2    1    2    0    0  0.00000000000E+00  0.00000000000E+00  0.48673354484E+03  0.50252652253E+03  0.12499344851E+03 0.  0.
    9000005    1    3    3    0    0  0.15791706249E+02 -0.14027337020E+02  0.69229579592E+01  0.22250202629E+02  0.10000000000E+01 0.  0.
    9000005    1    3    3    0    0 -0.15791706249E+02  0.14027337020E+02  0.47981058688E+03  0.48027631990E+03  0.10000000000E+01 0.  0.
<mgrwt>
<rscale>  0 0.12499345E+03</rscale>
<asrwt>0</asrwt>
<pdfrwt beam="2">  1        4 0.12148444E-02 0.12499345E+03</pdfrwt>
<pdfrwt beam="1">  1       -4 0.76096929E-01 0.12499345E+03</pdfrwt>
<totfact> 0.55676889E+03</totfact>
</mgrwt>
</event>
<event>
 5    1  0.3284464E-002  0.1249949E+03  0.7818608E-02  0.1235077E+00
         -4   -1    0    0    0  501 -0.00000000000E+00  0.00000000000E+00  0.25291938524E+02  0.25323804105E+02  0.12700000000E+01 0.  1.
          4   -1    0    0  501    0  0.00000000000E+00 -0.00000000000E+00 -0.15430207970E+03  0.15430730605E+03  0.12700000000E+01 0.  1.
         25    2    1    2    0    0  0.00000000000E+00  0.00000000000E+00 -0.12901014118E+03  0.17963111015E+03  0.12499487673E+03 0.  0.
    9000005    1    3    3    0    0  0.34679371219E+02  0.46741626326E+02 -0.97197026339E+02  0.11329474987E+03  0.10000000000E+01 0.  0.
    9000005    1    3    3    0    0 -0.34679371219E+02 -0.46741626326E+02 -0.31813114839E+02  0.66336360282E+02  0.10000000000E+01 0.  0.
<mgrwt>
<rscale>  0 0.12499488E+03</rscale>
<asrwt>0</asrwt>
<pdfrwt beam="2">  1        4 0.23741634E-01 0.12499488E+03</pdfrwt>
<pdfrwt beam="1">  1       -4 0.38939208E-02 0.12499488E+03</pdfrwt>
<totfact> 0.93694210E+03</totfact>
</mgrwt>
</event>
<event>
 5    1  0.3284464E-002  0.1249983E+03  0.7818608E-02  0.1235072E+00
         -4   -1    0    0    0  501 -0.00000000000E+00  0.00000000000E+00  0.88016041958E+01  0.88927575261E+01  0.12700000000E+01 0.  1.
          4   -1    0    0  501    0  0.00000000000E+00 -0.00000000000E+00 -0.44142055889E+03  0.44142238583E+03  0.12700000000E+01 0.  1.
         25    2    1    2    0    0  0.00000000000E+00  0.00000000000E+00 -0.43261895470E+03  0.45031514336E+03  0.12499827348E+03 0.  0.
    9000005    1    3    3    0    0  0.46301113839E+02  0.41916953469E+02 -0.22379551449E+03  0.23234942745E+03  0.10000000000E+01 0.  0.
    9000005    1    3    3    0    0 -0.46301113839E+02 -0.41916953469E+02 -0.20882344021E+03  0.21796571591E+03  0.10000000000E+01 0.  0.
<mgrwt>
<rscale>  0 0.12499827E+03</rscale>
<asrwt>0</asrwt>
<pdfrwt beam="2">  1        4 0.67917990E-01 0.12499827E+03</pdfrwt>
<pdfrwt beam="1">  1       -4 0.13612456E-02 0.12499827E+03</pdfrwt>
<totfact> 0.59938790E+03</totfact>
</mgrwt>
</event>
<event>
 5    1  0.3284464E-002  0.1250013E+03  0.7818608E-02  0.1235067E+00
          4   -1    0    0  501    0  0.00000000000E+00  0.00000000000E+00  0.78462447107E+02  0.78472724599E+02  0.12700000000E+01 0. -1.
         -4   -1    0    0    0  501 -0.00000000000E+00 -0.00000000000E+00 -0.49764389342E+02  0.49780592067E+02  0.12700000000E+01 0. -1.
         25    2    1    2    0    0  0.00000000000E+00  0.00000000000E+00  0.28698057765E+02  0.12825331667E+03  0.12500133886E+03 0.  0.
    9000005    1    3    3    0    0 -0.42593437496E+02 -0.44300595424E+02  0.27142656638E+01  0.61523255040E+02  0.10000000000E+01 0.  0.
    9000005    1    3    3    0    0  0.42593437496E+02  0.44300595424E+02  0.25983792102E+02  0.66730061626E+02  0.10000000000E+01 0.  0.
<mgrwt>
<rscale>  0 0.12500134E+03</rscale>
<asrwt>0</asrwt>
<pdfrwt beam="1">  1        4 0.12073183E-01 0.12500134E+03</pdfrwt>
<pdfrwt beam="2">  1       -4 0.76580969E-02 0.12500134E+03</pdfrwt>
<totfact> 0.10381707E+04</totfact>
</mgrwt>
</event>
<event>
 5    1  0.3284464E-002  0.1250106E+03  0.7818608E-02  0.1235053E+00
         -4   -1    0    0    0  501 -0.00000000000E+00  0.00000000000E+00  0.19607639363E+01  0.23361282529E+01  0.12700000000E+01 0.  1.
          4   -1    0    0  501    0  0.00000000000E+00 -0.00000000000E+00 -0.18181063383E+04  0.18181067819E+04  0.12700000000E+01 0.  1.
         25    2    1    2    0    0  0.00000000000E+00  0.00000000000E+00 -0.18161455744E+04  0.18204429101E+04  0.12501056644E+03 0.  0.
    9000005    1    3    3    0    0  0.48442474493E+02 -0.39484111372E+02 -0.90090841877E+03  0.90307399885E+03  0.10000000000E+01 0.  0.
    9000005    1    3    3    0    0 -0.48442474493E+02  0.39484111372E+02 -0.91523715561E+03  0.91736891129E+03  0.10000000000E+01 0.  0.
<mgrwt>
<rscale>  0 0.12501057E+03</rscale>
<asrwt>0</asrwt>
<pdfrwt beam="2">  1        4 0.27973635E+00 0.12501057E+03</pdfrwt>
<pdfrwt beam="1">  1       -4 0.33056574E-03 0.12501057E+03</pdfrwt>
<totfact> 0.12388417E+03</totfact>
</mgrwt>
</event>
<event>
 5    1  0.3284464E-002  0.1249969E+03  0.7818608E-02  0.1235074E+00
          4   -1    0    0  501    0  0.00000000000E+00  0.00000000000E+00  0.36867774224E+03  0.36867992965E+03  0.12700000000E+01 0.  1.
         -4   -1    0    0    0  501 -0.00000000000E+00 -0.00000000000E+00 -0.10554477589E+02  0.10630611326E+02  0.12700000000E+01 0.  1.
         25    2    1    2    0    0  0.00000000000E+00  0.00000000000E+00  0.35812326465E+03  0.37931054097E+03  0.12499685519E+03 0.  0.
    9000005    1    3    3    0    0 -0.10654913109E+02 -0.57748696200E+02  0.11421751087E+03  0.12843316890E+03  0.10000000000E+01 0.  0.
    9000005    1    3    3    0    0  0.10654913109E+02  0.57748696200E+02  0.24390575379E+03  0.25087737207E+03  0.10000000000E+01 0.  0.
<mgrwt>
<rscale>  0 0.12499686E+03</rscale>
<asrwt>0</asrwt>
<pdfrwt beam="1">  1        4 0.56725678E-01 0.12499686E+03</pdfrwt>
<pdfrwt beam="2">  1       -4 0.16297905E-02 0.12499686E+03</pdfrwt>
<totfact> 0.66620627E+03</totfact>
</mgrwt>
</event>
<event>
 5    1  0.3284464E-002  0.1249997E+03  0.7818608E-02  0.1235070E+00
          4   -1    0    0  501    0  0.00000000000E+00  0.00000000000E+00  0.99213693739E+02  0.99221821820E+02  0.12700000000E+01 0. -1.
         -4   -1    0    0    0  501 -0.00000000000E+00 -0.00000000000E+00 -0.39351925503E+02  0.39372413449E+02  0.12700000000E+01 0. -1.
         25    2    1    2    0    0  0.00000000000E+00  0.00000000000E+00  0.59861768236E+02  0.13859423527E+03  0.12499972301E+03 0.  0.
    9000005    1    3    3    0    0 -0.22417811346E+01  0.37223334330E+02  0.85530680884E+02  0.93311840480E+02  0.10000000000E+01 0.  0.
    9000005    1    3    3    0    0  0.22417811346E+01 -0.37223334330E+02 -0.25668912648E+02  0.45282394789E+02  0.10000000000E+01 0.  0.
<mgrwt>
<rscale>  0 0.12499972E+03</rscale>
<asrwt>0</asrwt>
<pdfrwt beam="1">  1        4 0.15265846E-01 0.12499972E+03</pdfrwt>
<pdfrwt beam="2">  1       -4 0.60563437E-02 0.12499972E+03</pdfrwt>
<totfact> 0.10162868E+04</totfact>
</mgrwt>
</event>
<event>
 5    1  0.3284464E-002  0.1249993E+03  0.7818608E-02  0.1235070E+00
          4   -1    0    0  501    0  0.00000000000E+00  0.00000000000E+00  0.66855198403E+01  0.68050771881E+01  0.12700000000E+01 0.  1.
         -4   -1    0    0    0  501 -0.00000000000E+00 -0.00000000000E+00 -0.57897989879E+03  0.57898129167E+03  0.12700000000E+01 0.  1.
         25    2    1    2    0    0  0.00000000000E+00  0.00000000000E+00 -0.57229437895E+03  0.58578636885E+03  0.12499925504E+03 0.  0.
    9000005    1    3    3    0    0  0.36274965943E+02 -0.17546643472E+02 -0.62307603141E+02  0.74209131922E+02  0.10000000000E+01 0.  0.
    9000005    1    3    3    0    0 -0.36274965943E+02  0.17546643472E+02 -0.50998677580E+03  0.51157723693E+03  0.10000000000E+01 0.  0.
<mgrwt>
<rscale>  0 0.12499926E+03</rscale>
<asrwt>0</asrwt>
<pdfrwt beam="1">  1        4 0.10378458E-02 0.12499926E+03</pdfrwt>
<pdfrwt beam="2">  1       -4 0.89083095E-01 0.12499926E+03</pdfrwt>
<totfact> 0.49778115E+03</totfact>
</mgrwt>
</event>
<event>
 5    1  0.3284464E-002  0.1249995E+03  0.7818608E-02  0.1235070E+00
         -4   -1    0    0    0  501 -0.00000000000E+00  0.00000000000E+00  0.74481942621E+03  0.74482050895E+03  0.12700000000E+01 0. -1.
          4   -1    0    0  501    0  0.00000000000E+00 -0.00000000000E+00 -0.51665302555E+01  0.53203322153E+01  0.12700000000E+01 0. -1.
         25    2    1    2    0    0  0.00000000000E+00  0.00000000000E+00  0.73965289595E+03  0.75014084117E+03  0.12499950039E+03 0.  0.
    9000005    1    3    3    0    0  0.43144791750E+02  0.45147600337E+02  0.35582960429E+03  0.36126927099E+03  0.10000000000E+01 0.  0.
    9000005    1    3    3    0    0 -0.43144791750E+02 -0.45147600337E+02  0.38382329166E+03  0.38887157017E+03  0.10000000000E+01 0.  0.
<mgrwt>
<rscale>  0 0.12499950E+03</rscale>
<asrwt>0</asrwt>
<pdfrwt beam="2">  1        4 0.80676526E-03 0.12499950E+03</pdfrwt>
<pdfrwt beam="1">  1       -4 0.11459948E+00 0.12499950E+03</pdfrwt>
<totfact> 0.40567852E+03</totfact>
</mgrwt>
</event>
<event>
 5    1  0.3284464E-002  0.1249987E+03  0.7818608E-02  0.1235071E+00
         -4   -1    0    0    0  501 -0.00000000000E+00  0.00000000000E+00  0.29377035551E+01  0.32004690559E+01  0.12700000000E+01 0. -1.
          4   -1    0    0  501    0  0.00000000000E+00 -0.00000000000E+00 -0.12724823705E+04  0.12724830043E+04  0.12700000000E+01 0. -1.
         25    2    1    2    0    0  0.00000000000E+00  0.00000000000E+00 -0.12695446670E+04  0.12756834733E+04  0.12499865090E+03 0.  0.
    9000005    1    3    3    0    0 -0.40038548987E+02 -0.42611366122E+01 -0.14704361142E+03  0.15246004837E+03  0.10000000000E+01 0.  0.
    9000005    1    3    3    0    0  0.40038548987E+02  0.42611366122E+01 -0.11225010555E+04  0.11232234250E+04  0.10000000000E+01 0.  0.
<mgrwt>
<rscale>  0 0.12499865E+03</rscale>
<asrwt>0</asrwt>
<pdfrwt beam="2">  1        4 0.19578636E+00 0.12499865E+03</pdfrwt>
<pdfrwt beam="1">  1       -4 0.47221689E-03 0.12499865E+03</pdfrwt>
<totfact> 0.22810542E+03</totfact>
</mgrwt>
</event>
<event>
 5    1  0.3284464E-002  0.1249977E+03  0.7818608E-02  0.1235073E+00
          4   -1    0    0  501    0  0.00000000000E+00  0.00000000000E+00  0.25170428929E+03  0.25170749323E+03  0.12700000000E+01 0.  1.
         -4   -1    0    0    0  501 -0.00000000000E+00 -0.00000000000E+00 -0.15489344533E+02  0.15541322147E+02  0.12700000000E+01 0.  1.
         25    2    1    2    0    0  0.00000000000E+00  0.00000000000E+00  0.23621494476E+03  0.26724881538E+03  0.12499771675E+03 0.  0.
    9000005    1    3    3    0    0 -0.44516399900E+02 -0.40682864878E+02  0.83086708248E+02  0.10267037763E+03  0.10000000000E+01 0.  0.
    9000005    1    3    3    0    0  0.44516399900E+02  0.40682864878E+02  0.15312823651E+03  0.16457843775E+03  0.10000000000E+01 0.  0.
<mgrwt>
<rscale>  0 0.12499772E+03</rscale>
<asrwt>0</asrwt>
<pdfrwt beam="1">  1        4 0.38727983E-01 0.12499772E+03</pdfrwt>
<pdfrwt beam="2">  1       -4 0.23872207E-02 0.12499772E+03</pdfrwt>
<totfact> 0.79903490E+03</totfact>
</mgrwt>
</event>
<event>
 5    1  0.3284464E-002  0.1250013E+03  0.7818608E-02  0.1235067E+00
         -4   -1    0    0    0  501 -0.00000000000E+00  0.00000000000E+00  0.13980395245E+03  0.13980972076E+03  0.12700000000E+01 0. -1.
          4   -1    0    0  501    0  0.00000000000E+00 -0.00000000000E+00 -0.27920697117E+02  0.27949565783E+02  0.12700000000E+01 0. -1.
         25    2    1    2    0    0  0.00000000000E+00  0.00000000000E+00  0.11188325533E+03  0.16775928655E+03  0.12500126159E+03 0.  0.
    9000005    1    3    3    0    0  0.15998336493E+02 -0.25025372762E+02  0.12973194026E+03  0.13309242043E+03  0.10000000000E+01 0.  0.
    9000005    1    3    3    0    0 -0.15998336493E+02  0.25025372762E+02 -0.17848684931E+02  0.34666866114E+02  0.10000000000E+01 0.  0.
<mgrwt>
<rscale>  0 0.12500126E+03</rscale>
<asrwt>0</asrwt>
<pdfrwt beam="2">  1        4 0.42981563E-02 0.12500126E+03</pdfrwt>
<pdfrwt beam="1">  1       -4 0.21510965E-01 0.12500126E+03</pdfrwt>
<totfact> 0.95864648E+03</totfact>
</mgrwt>
</event>
<event>
 5    1  0.3284464E-002  0.1250000E+03  0.7818608E-02  0.1235069E+00
         -4   -1    0    0    0  501 -0.00000000000E+00  0.00000000000E+00  0.10600277635E+02  0.10676084766E+02  0.12700000000E+01 0. -1.
          4   -1    0    0  501    0  0.00000000000E+00 -0.00000000000E+00 -0.36711467355E+03  0.36711687027E+03  0.12700000000E+01 0. -1.
         25    2    1    2    0    0  0.00000000000E+00  0.00000000000E+00 -0.35651439592E+03  0.37779295504E+03  0.12500000952E+03 0.  0.
    9000005    1    3    3    0    0 -0.19856778099E+01  0.44911629039E+02 -0.47063357281E+02  0.65091911463E+02  0.10000000000E+01 0.  0.
    9000005    1    3    3    0    0  0.19856778099E+01 -0.44911629039E+02 -0.30945103864E+03  0.31270104357E+03  0.10000000000E+01 0.  0.
<mgrwt>
<rscale>  0 0.12500001E+03</rscale>
<asrwt>0</asrwt>
<pdfrwt beam="2">  1        4 0.56485171E-01 0.12500001E+03</pdfrwt>
<pdfrwt beam="1">  1       -4 0.16368125E-02 0.12500001E+03</pdfrwt>
<totfact> 0.66771443E+03</totfact>
</mgrwt>
</event>
<event>
 5    1  0.3284464E-002  0.1249985E+03  0.7818608E-02  0.1235072E+00
          4   -1    0    0  501    0  0.00000000000E+00  0.00000000000E+00  0.17476475755E+03  0.17476937197E+03  0.12700000000E+01 0. -1.
         -4   -1    0    0    0  501 -0.00000000000E+00 -0.00000000000E+00 -0.22327990105E+02  0.22364079282E+02  0.12700000000E+01 0. -1.
         25    2    1    2    0    0  0.00000000000E+00  0.00000000000E+00  0.15243676744E+03  0.19713345126E+03  0.12499851814E+03 0.  0.
    9000005    1    3    3    0    0 -0.61898114245E+02  0.82273361579E+01  0.72325894226E+02  0.95556792448E+02  0.10000000000E+01 0.  0.
    9000005    1    3    3    0    0  0.61898114245E+02 -0.82273361579E+01  0.80110873216E+02  0.10157665881E+03  0.10000000000E+01 0.  0.
<mgrwt>
<rscale>  0 0.12499852E+03</rscale>
<asrwt>0</asrwt>
<pdfrwt beam="1">  1        4 0.26890016E-01 0.12499852E+03</pdfrwt>
<pdfrwt beam="2">  1       -4 0.34382065E-02 0.12499852E+03</pdfrwt>
<totfact> 0.90623724E+03</totfact>
</mgrwt>
</event>
<event>
 5    1  0.3284464E-002  0.1249979E+03  0.7818608E-02  0.1235073E+00
          4   -1    0    0  501    0  0.00000000000E+00  0.00000000000E+00  0.25499616630E+03  0.25499932887E+03  0.12700000000E+01 0.  1.
         -4   -1    0    0    0  501 -0.00000000000E+00 -0.00000000000E+00 -0.15288762130E+02  0.15341419344E+02  0.12700000000E+01 0.  1.
         25    2    1    2    0    0  0.00000000000E+00  0.00000000000E+00  0.23970740417E+03  0.27034074822E+03  0.12499792212E+03 0.  0.
    9000005    1    3    3    0    0 -0.97947900596E+00  0.98761875358E+01  0.25329141075E+03  0.25348774569E+03  0.10000000000E+01 0.  0.
    9000005    1    3    3    0    0  0.97947900596E+00 -0.98761875358E+01 -0.13584006578E+02  0.16853002524E+02  0.10000000000E+01 0.  0.
<mgrwt>
<rscale>  0 0.12499792E+03</rscale>
<asrwt>0</asrwt>
<pdfrwt beam="1">  1        4 0.39234473E-01 0.12499792E+03</pdfrwt>
<pdfrwt beam="2">  1       -4 0.23564111E-02 0.12499792E+03</pdfrwt>
<totfact> 0.79480107E+03</totfact>
</mgrwt>
</event>
<event>
 5    1  0.3284464E-002  0.1249980E+03  0.7818608E-02  0.1235072E+00
         -4   -1    0    0    0  501 -0.00000000000E+00  0.00000000000E+00  0.27356496687E+03  0.27356791478E+03  0.12700000000E+01 0.  1.
          4   -1    0    0  501    0  0.00000000000E+00 -0.00000000000E+00 -0.14247324516E+02  0.14303816129E+02  0.12700000000E+01 0.  1.
         25    2    1    2    0    0  0.00000000000E+00  0.00000000000E+00  0.25931764235E+03  0.28787173091E+03  0.12499797527E+03 0.  0.
    9000005    1    3    3    0    0  0.38270176574E+02 -0.18501947544E+02  0.23515068424E+03  0.23896395707E+03  0.10000000000E+01 0.  0.
    9000005    1    3    3    0    0 -0.38270176574E+02  0.18501947544E+02  0.24166958111E+02  0.48907773843E+02  0.10000000000E+01 0.  0.
<mgrwt>
<rscale>  0 0.12499798E+03</rscale>
<asrwt>0</asrwt>
<pdfrwt beam="2">  1        4 0.21964686E-02 0.12499798E+03</pdfrwt>
<pdfrwt beam="1">  1       -4 0.42091485E-01 0.12499798E+03</pdfrwt>
<totfact> 0.77149288E+03</totfact>
</mgrwt>
</event>
<event>
 5    1  0.3284464E-002  0.1250005E+03  0.7818608E-02  0.1235068E+00
          4   -1    0    0  501    0  0.00000000000E+00  0.00000000000E+00  0.11383617256E+02  0.11454241216E+02  0.12700000000E+01 0. -1.
         -4   -1    0    0    0  501 -0.00000000000E+00 -0.00000000000E+00 -0.34201654448E+03  0.34201890239E+03  0.12700000000E+01 0. -1.
         25    2    1    2    0    0  0.00000000000E+00  0.00000000000E+00 -0.33063292722E+03  0.35347314361E+03  0.12500052277E+03 0.  0.
    9000005    1    3    3    0    0  0.11281095860E+00 -0.60794705290E+02 -0.12440905424E+03  0.13847245825E+03  0.10000000000E+01 0.  0.
    9000005    1    3    3    0    0 -0.11281095860E+00  0.60794705290E+02 -0.20622387298E+03  0.21500068536E+03  0.10000000000E+01 0.  0.
<mgrwt>
<rscale>  0 0.12500052E+03</rscale>
<asrwt>0</asrwt>
<pdfrwt beam="1">  1        4 0.17569400E-02 0.12500052E+03</pdfrwt>
<pdfrwt beam="2">  1       -4 0.52623536E-01 0.12500052E+03</pdfrwt>
<totfact> 0.69343352E+03</totfact>
</mgrwt>
</event>
<event>
 5    1  0.3284464E-002  0.1249999E+03  0.7818608E-02  0.1235069E+00
          4   -1    0    0  501    0  0.00000000000E+00  0.00000000000E+00  0.13003087694E+02  0.13064960374E+02  0.12700000000E+01 0.  1.
         -4   -1    0    0    0  501 -0.00000000000E+00 -0.00000000000E+00 -0.29963280605E+03  0.29963549750E+03  0.12700000000E+01 0.  1.
         25    2    1    2    0    0  0.00000000000E+00  0.00000000000E+00 -0.28662971836E+03  0.31270045788E+03  0.12499992364E+03 0.  0.
    9000005    1    3    3    0    0  0.45956260191E+02  0.80937766092E+01 -0.24729735695E+03  0.25166340582E+03  0.10000000000E+01 0.  0.
    9000005    1    3    3    0    0 -0.45956260191E+02 -0.80937766092E+01 -0.39332361407E+02  0.61037052062E+02  0.10000000000E+01 0.  0.
<mgrwt>
<rscale>  0 0.12499992E+03</rscale>
<asrwt>0</asrwt>
<pdfrwt beam="1">  1        4 0.20054417E-02 0.12499992E+03</pdfrwt>
<pdfrwt beam="2">  1       -4 0.46102316E-01 0.12499992E+03</pdfrwt>
<totfact> 0.74032931E+03</totfact>
</mgrwt>
</event>
<event>
 5    1  0.3284464E-002  0.1249984E+03  0.7818608E-02  0.1235072E+00
         -4   -1    0    0    0  501 -0.00000000000E+00  0.00000000000E+00  0.24754320453E+02  0.24786877196E+02  0.12700000000E+01 0. -1.
          4   -1    0    0  501    0  0.00000000000E+00 -0.00000000000E+00 -0.15765778509E+03  0.15766290020E+03  0.12700000000E+01 0. -1.
         25    2    1    2    0    0  0.00000000000E+00  0.00000000000E+00 -0.13290346463E+03  0.18244977739E+03  0.12499836143E+03 0.  0.
    9000005    1    3    3    0    0 -0.23196158947E+02 -0.57805914832E+02 -0.59072069481E+02  0.85849257261E+02  0.10000000000E+01 0.  0.
    9000005    1    3    3    0    0  0.23196158947E+02  0.57805914832E+02 -0.73831395153E+02  0.96600520132E+02  0.10000000000E+01 0.  0.
<mgrwt>
<rscale>  0 0.12499836E+03</rscale>
<asrwt>0</asrwt>
<pdfrwt beam="2">  1        4 0.24257941E-01 0.12499836E+03</pdfrwt>
<pdfrwt beam="1">  1       -4 0.38112549E-02 0.12499836E+03</pdfrwt>
<totfact> 0.93181308E+03</totfact>
</mgrwt>
</event>
<event>
 5    1  0.3284464E-002  0.1250109E+03  0.7818608E-02  0.1235052E+00
         -4   -1    0    0    0  501 -0.00000000000E+00  0.00000000000E+00  0.10444746715E+02  0.10521674484E+02  0.12700000000E+01 0.  1.
          4   -1    0    0  501    0  0.00000000000E+00 -0.00000000000E+00 -0.37260671914E+03  0.37260888348E+03  0.12700000000E+01 0.  1.
         25    2    1    2    0    0  0.00000000000E+00  0.00000000000E+00 -0.36216197243E+03  0.38313055797E+03  0.12501092023E+03 0.  0.
    9000005    1    3    3    0    0  0.47860584311E+02 -0.39915657466E+02 -0.16669372743E+03  0.17796542924E+03  0.10000000000E+01 0.  0.
    9000005    1    3    3    0    0 -0.47860584311E+02  0.39915657466E+02 -0.19546824500E+03  0.20516512872E+03  0.10000000000E+01 0.  0.
<mgrwt>
<rscale>  0 0.12501092E+03</rscale>
<asrwt>0</asrwt>
<pdfrwt beam="2">  1        4 0.57330184E-01 0.12501092E+03</pdfrwt>
<pdfrwt beam="1">  1       -4 0.16129684E-02 0.12501092E+03</pdfrwt>
<totfact> 0.66211268E+03</totfact>
</mgrwt>
</event>
<event>
 5    1  0.3284464E-002  0.1249988E+03  0.7818608E-02  0.1235071E+00
         -4   -1    0    0    0  501 -0.00000000000E+00  0.00000000000E+00  0.69017020395E+02  0.69028704205E+02  0.12700000000E+01 0.  1.
          4   -1    0    0  501    0  0.00000000000E+00 -0.00000000000E+00 -0.56573640307E+02  0.56587893383E+02  0.12700000000E+01 0.  1.
         25    2    1    2    0    0  0.00000000000E+00  0.00000000000E+00  0.12443380088E+02  0.12561659759E+03  0.12499876752E+03 0.  0.
    9000005    1    3    3    0    0  0.37519111810E+02  0.40661279384E+02  0.35419548511E+02  0.65700592150E+02  0.10000000000E+01 0.  0.
    9000005    1    3    3    0    0 -0.37519111810E+02 -0.40661279384E+02 -0.22976168423E+02  0.59916005437E+02  0.10000000000E+01 0.  0.
<mgrwt>
<rscale>  0 0.12499877E+03</rscale>
<asrwt>0</asrwt>
<pdfrwt beam="2">  1        4 0.87056321E-02 0.12499877E+03</pdfrwt>
<pdfrwt beam="1">  1       -4 0.10619998E-01 0.12499877E+03</pdfrwt>
<totfact> 0.10439671E+04</totfact>
</mgrwt>
</event>
<event>
 5    1  0.3284464E-002  0.1249961E+03  0.7818608E-02  0.1235075E+00
          4   -1    0    0  501    0  0.00000000000E+00  0.00000000000E+00  0.52186229448E+02  0.52201680471E+02  0.12700000000E+01 0.  1.
         -4   -1    0    0    0  501 -0.00000000000E+00 -0.00000000000E+00 -0.74815567361E+02  0.74826345758E+02  0.12700000000E+01 0.  1.
         25    2    1    2    0    0  0.00000000000E+00  0.00000000000E+00 -0.22629337913E+02  0.12702802623E+03  0.12499612999E+03 0.  0.
    9000005    1    3    3    0    0 -0.53572736367E+02  0.27534150927E+02  0.55943284521E+01  0.60501769065E+02  0.10000000000E+01 0.  0.
    9000005    1    3    3    0    0  0.53572736367E+02 -0.27534150927E+02 -0.28223666365E+02  0.66526257164E+02  0.10000000000E+01 0.  0.
<mgrwt>
<rscale>  0 0.12499613E+03</rscale>
<asrwt>0</asrwt>
<pdfrwt beam="1">  1        4 0.80306683E-02 0.12499613E+03</pdfrwt>
<pdfrwt beam="2">  1       -4 0.11512105E-01 0.12499613E+03</pdfrwt>
<totfact> 0.10409446E+04</totfact>
</mgrwt>
</event>
<event>
 5    1  0.3284464E-002  0.1249971E+03  0.7818608E-02  0.1235074E+00
          4   -1    0    0  501    0  0.00000000000E+00  0.00000000000E+00  0.33681467909E+02  0.33705402838E+02  0.12700000000E+01 0. -1.
         -4   -1    0    0    0  501 -0.00000000000E+00 -0.00000000000E+00 -0.11590231078E+03  0.11590926859E+03  0.12700000000E+01 0. -1.
         25    2    1    2    0    0  0.00000000000E+00  0.00000000000E+00 -0.82220842871E+02  0.14961467142E+03  0.12499713158E+03 0.  0.
    9000005    1    3    3    0    0  0.34927417118E+02 -0.50912872699E+02 -0.52654931302E+02  0.81151628840E+02  0.10000000000E+01 0.  0.
    9000005    1    3    3    0    0 -0.34927417118E+02  0.50912872699E+02 -0.29565911569E+02  0.68463042584E+02  0.10000000000E+01 0.  0.
<mgrwt>
<rscale>  0 0.12499713E+03</rscale>
<asrwt>0</asrwt>
<pdfrwt beam="1">  1        4 0.51841407E-02 0.12499713E+03</pdfrwt>
<pdfrwt beam="2">  1       -4 0.17833501E-01 0.12499713E+03</pdfrwt>
<totfact> 0.99386979E+03</totfact>
</mgrwt>
</event>
<event>
 5    1  0.3284464E-002  0.1250008E+03  0.7818608E-02  0.1235068E+00
          4   -1    0    0  501    0  0.00000000000E+00  0.00000000000E+00  0.23530826878E+04  0.23530830305E+04  0.12700000000E+01 0. -1.
         -4   -1    0    0    0  501 -0.00000000000E+00 -0.00000000000E+00 -0.14167898452E+01  0.19026806000E+01  0.12700000000E+01 0. -1.
         25    2    1    2    0    0  0.00000000000E+00  0.00000000000E+00  0.23516658980E+04  0.23549857111E+04  0.12500081591E+03 0.  0.
    9000005    1    3    3    0    0  0.54670434559E+02 -0.90413581049E+01  0.17201353189E+04  0.17210279248E+04  0.10000000000E+01 0.  0.
    9000005    1    3    3    0    0 -0.54670434559E+02  0.90413581049E+01  0.63153057910E+03  0.63395778638E+03  0.10000000000E+01 0.  0.
<mgrwt>
<rscale>  0 0.12500082E+03</rscale>
<asrwt>0</asrwt>
<pdfrwt beam="1">  1        4 0.36204977E+00 0.12500082E+03</pdfrwt>
<pdfrwt beam="2">  1       -4 0.25537049E-03 0.12500082E+03</pdfrwt>
<totfact> 0.59107244E+02</totfact>
</mgrwt>
</event>
<event>
 5    1  0.3284464E-002  0.1249996E+03  0.7818608E-02  0.1235070E+00
          4   -1    0    0  501    0  0.00000000000E+00  0.00000000000E+00  0.12430428871E+03  0.12431077625E+03  0.12700000000E+01 0.  1.
         -4   -1    0    0    0  501 -0.00000000000E+00 -0.00000000000E+00 -0.31404565154E+02  0.31430234052E+02  0.12700000000E+01 0.  1.
         25    2    1    2    0    0  0.00000000000E+00  0.00000000000E+00  0.92899723559E+02  0.15574101030E+03  0.12499961461E+03 0.  0.
    9000005    1    3    3    0    0 -0.52033973512E+02 -0.34546290763E+02  0.49016998111E+02  0.79401805451E+02  0.10000000000E+01 0.  0.
    9000005    1    3    3    0    0  0.52033973512E+02  0.34546290763E+02  0.43882725448E+02  0.76339204854E+02  0.10000000000E+01 0.  0.
<mgrwt>
<rscale>  0 0.12499961E+03</rscale>
<asrwt>0</asrwt>
<pdfrwt beam="1">  1        4 0.19126211E-01 0.12499961E+03</pdfrwt>
<pdfrwt beam="2">  1       -4 0.48339451E-02 0.12499961E+03</pdfrwt>
<totfact> 0.98171076E+03</totfact>
</mgrwt>
</event>
<event>
 5    1  0.3284464E-002  0.1250009E+03  0.7818608E-02  0.1235068E+00
          4   -1    0    0  501    0  0.00000000000E+00  0.00000000000E+00  0.29874422470E+03  0.29874692416E+03  0.12700000000E+01 0.  1.
         -4   -1    0    0    0  501 -0.00000000000E+00 -0.00000000000E+00 -0.13042148531E+02  0.13103836778E+02  0.12700000000E+01 0.  1.
         25    2    1    2    0    0  0.00000000000E+00  0.00000000000E+00  0.28570207617E+03  0.31185076094E+03  0.12500088307E+03 0.  0.
    9000005    1    3    3    0    0 -0.59600849326E+02  0.14770182083E+02  0.11387649220E+03  0.12938035011E+03  0.10000000000E+01 0.  0.
    9000005    1    3    3    0    0  0.59600849326E+02 -0.14770182083E+02  0.17182558397E+03  0.18247041082E+03  0.10000000000E+01 0.  0.
<mgrwt>
<rscale>  0 0.12500088E+03</rscale>
<asrwt>0</asrwt>
<pdfrwt beam="1">  1        4 0.45965600E-01 0.12500088E+03</pdfrwt>
<pdfrwt beam="2">  1       -4 0.20114374E-02 0.12500088E+03</pdfrwt>
<totfact> 0.74134495E+03</totfact>
</mgrwt>
</event>
<event>
 5    1  0.3284464E-002  0.1250004E+03  0.7818608E-02  0.1235069E+00
          4   -1    0    0  501    0  0.00000000000E+00  0.00000000000E+00  0.12269115971E+03  0.12269773254E+03  0.12700000000E+01 0.  1.
         -4   -1    0    0    0  501 -0.00000000000E+00 -0.00000000000E+00 -0.31818158423E+02  0.31843493926E+02  0.12700000000E+01 0.  1.
         25    2    1    2    0    0  0.00000000000E+00  0.00000000000E+00  0.90873001288E+02  0.15454122647E+03  0.12500035326E+03 0.  0.
    9000005    1    3    3    0    0 -0.49955397804E+02  0.35041078930E+02  0.62108721869E+02  0.87074177082E+02  0.10000000000E+01 0.  0.
    9000005    1    3    3    0    0  0.49955397804E+02 -0.35041078930E+02  0.28764279418E+02  0.67467049386E+02  0.10000000000E+01 0.  0.
<mgrwt>
<rscale>  0 0.12500035E+03</rscale>
<asrwt>0</asrwt>
<pdfrwt beam="1">  1        4 0.18878018E-01 0.12500035E+03</pdfrwt>
<pdfrwt beam="2">  1       -4 0.48975557E-02 0.12500035E+03</pdfrwt>
<totfact> 0.98404855E+03</totfact>
</mgrwt>
</event>
<event>
 5    1  0.3284464E-002  0.1249977E+03  0.7818608E-02  0.1235073E+00
          4   -1    0    0  501    0  0.00000000000E+00  0.00000000000E+00  0.21175986823E+02  0.21214035871E+02  0.12700000000E+01 0.  1.
         -4   -1    0    0    0  501 -0.00000000000E+00 -0.00000000000E+00 -0.18425347897E+03  0.18425785577E+03  0.12700000000E+01 0.  1.
         25    2    1    2    0    0  0.00000000000E+00  0.00000000000E+00 -0.16307749215E+03  0.20547189164E+03  0.12499771922E+03 0.  0.
    9000005    1    3    3    0    0 -0.26176110830E+02 -0.36031715352E+02 -0.94801683199E+01  0.45544998416E+02  0.10000000000E+01 0.  0.
    9000005    1    3    3    0    0  0.26176110830E+02  0.36031715352E+02 -0.15359732383E+03  0.15992689323E+03  0.10000000000E+01 0.  0.
<mgrwt>
<rscale>  0 0.12499772E+03</rscale>
<asrwt>0</asrwt>
<pdfrwt beam="1">  1        4 0.32611078E-02 0.12499772E+03</pdfrwt>
<pdfrwt beam="2">  1       -4 0.28349952E-01 0.12499772E+03</pdfrwt>
<totfact> 0.89225313E+03</totfact>
</mgrwt>
</event>
<event>
 4    1  0.3284464E-002  0.1261493E+03  0.7818608E-02  0.1233284E+00
          4   -1    0    0  501    0  0.00000000000E+00  0.00000000000E+00  0.34575011665E+02  0.34598328451E+02  0.12700000000E+01 0. -1.
         -4   -1    0    0    0  501 -0.00000000000E+00 -0.00000000000E+00 -0.11500046782E+03  0.11500748018E+03  0.12700000000E+01 0. -1.
    9000005    1    1    2    0    0 -0.55129699066E+02  0.22935136566E+02 -0.64287851389E+02  0.87745267933E+02  0.10000000000E+01 0.  0.
    9000005    1    1    2    0    0  0.55129699066E+02 -0.22935136566E+02 -0.16137604763E+02  0.61860540701E+02  0.10000000000E+01 0.  0.
<mgrwt>
<rscale>  0 0.12614929E+03</rscale>
<asrwt>0</asrwt>
<pdfrwt beam="1">  1        4 0.53215656E-02 0.12614929E+03</pdfrwt>
<pdfrwt beam="2">  1       -4 0.17694713E-01 0.12614929E+03</pdfrwt>
<totfact> 0.96854718E+03</totfact>
</mgrwt>
</event>
<event>
 5    1  0.3284464E-002  0.1249990E+03  0.7818608E-02  0.1235071E+00
         -4   -1    0    0    0  501 -0.00000000000E+00  0.00000000000E+00  0.25277871239E+03  0.25278190271E+03  0.12700000000E+01 0. -1.
          4   -1    0    0  501    0  0.00000000000E+00 -0.00000000000E+00 -0.15423615751E+02  0.15475814126E+02  0.12700000000E+01 0. -1.
         25    2    1    2    0    0  0.00000000000E+00  0.00000000000E+00  0.23735509664E+03  0.26825771683E+03  0.12499904296E+03 0.  0.
    9000005    1    3    3    0    0  0.51081535311E+02  0.28971355970E+02  0.72823361828E+02  0.93556959893E+02  0.10000000000E+01 0.  0.
    9000005    1    3    3    0    0 -0.51081535311E+02 -0.28971355970E+02  0.16453173481E+03  0.17470075694E+03  0.10000000000E+01 0.  0.
<mgrwt>
<rscale>  0 0.12499904E+03</rscale>
<asrwt>0</asrwt>
<pdfrwt beam="2">  1        4 0.23771245E-02 0.12499904E+03</pdfrwt>
<pdfrwt beam="1">  1       -4 0.38893295E-01 0.12499904E+03</pdfrwt>
<totfact> 0.79762691E+03</totfact>
</mgrwt>
</event>
<event>
 5    1  0.3284464E-002  0.1250074E+03  0.7818608E-02  0.1235058E+00
          4   -1    0    0  501    0  0.00000000000E+00  0.00000000000E+00  0.51262122130E+01  0.52811884697E+01  0.12700000000E+01 0.  1.
         -4   -1    0    0    0  501 -0.00000000000E+00 -0.00000000000E+00 -0.75060140349E+03  0.75060247789E+03  0.12700000000E+01 0.  1.
         25    2    1    2    0    0  0.00000000000E+00  0.00000000000E+00 -0.74547519127E+03  0.75588366636E+03  0.12500742485E+03 0.  0.
    9000005    1    3    3    0    0  0.25187443475E+02 -0.50458260874E+02 -0.53558063844E+03  0.53854253654E+03  0.10000000000E+01 0.  0.
    9000005    1    3    3    0    0 -0.25187443475E+02  0.50458260874E+02 -0.20989455284E+03  0.21734112982E+03  0.10000000000E+01 0.  0.
<mgrwt>
<rscale>  0 0.12500742E+03</rscale>
<asrwt>0</asrwt>
<pdfrwt beam="1">  1        4 0.80065252E-03 0.12500742E+03</pdfrwt>
<pdfrwt beam="2">  1       -4 0.11548906E+00 0.12500742E+03</pdfrwt>
<totfact> 0.40287776E+03</totfact>
</mgrwt>
</event>
<event>
 5    1  0.3284464E-002  0.1250111E+03  0.7818608E-02  0.1235052E+00
          4   -1    0    0  501    0  0.00000000000E+00  0.00000000000E+00  0.11403319653E+02  0.11473822341E+02  0.12700000000E+01 0. -1.
         -4   -1    0    0    0  501 -0.00000000000E+00 -0.00000000000E+00 -0.34148683746E+03  0.34148919903E+03  0.12700000000E+01 0. -1.
         25    2    1    2    0    0  0.00000000000E+00  0.00000000000E+00 -0.33008351780E+03  0.35296302137E+03  0.12501106244E+03 0.  0.
    9000005    1    3    3    0    0  0.56187461194E+02 -0.27326192067E+02 -0.16086355724E+03  0.17257414528E+03  0.10000000000E+01 0.  0.
    9000005    1    3    3    0    0 -0.56187461194E+02  0.27326192067E+02 -0.16921996056E+03  0.18038887610E+03  0.10000000000E+01 0.  0.
<mgrwt>
<rscale>  0 0.12501106E+03</rscale>
<asrwt>0</asrwt>
<pdfrwt beam="1">  1        4 0.17599621E-02 0.12501106E+03</pdfrwt>
<pdfrwt beam="2">  1       -4 0.52542034E-01 0.12501106E+03</pdfrwt>
<totfact> 0.69382831E+03</totfact>
</mgrwt>
</event>
<event>
 5    1  0.3284464E-002  0.1249982E+03  0.7818608E-02  0.1235072E+00
         -4   -1    0    0    0  501 -0.00000000000E+00  0.00000000000E+00  0.10660889216E+02  0.10736268386E+02  0.12700000000E+01 0.  1.
          4   -1    0    0  501    0  0.00000000000E+00 -0.00000000000E+00 -0.36503133729E+03  0.36503354655E+03  0.12700000000E+01 0.  1.
         25    2    1    2    0    0  0.00000000000E+00  0.00000000000E+00 -0.35437044808E+03  0.37576981494E+03  0.12499815737E+03 0.  0.
    9000005    1    3    3    0    0 -0.27837988040E+02  0.33073388383E+02 -0.41528102269E+02  0.59953197374E+02  0.10000000000E+01 0.  0.
    9000005    1    3    3    0    0  0.27837988040E+02 -0.33073388383E+02 -0.31284234581E+03  0.31581661756E+03  0.10000000000E+01 0.  0.
<mgrwt>
<rscale>  0 0.12499816E+03</rscale>
<asrwt>0</asrwt>
<pdfrwt beam="2">  1        4 0.56164626E-01 0.12499816E+03</pdfrwt>
<pdfrwt beam="1">  1       -4 0.16461054E-02 0.12499816E+03</pdfrwt>
<totfact> 0.66982328E+03</totfact>
</mgrwt>
</event>
<event>
 5    1  0.3284464E-002  0.1250005E+03  0.7818608E-02  0.1235068E+00
         -4   -1    0    0    0  501 -0.00000000000E+00  0.00000000000E+00  0.46386370051E+01  0.48093506074E+01  0.12700000000E+01 0.  1.
          4   -1    0    0  501    0  0.00000000000E+00 -0.00000000000E+00 -0.82673163552E+03  0.82673261098E+03  0.12700000000E+01 0.  1.
         25    2    1    2    0    0  0.00000000000E+00  0.00000000000E+00 -0.82209299851E+03  0.83154196159E+03  0.12500054274E+03 0.  0.
    9000005    1    3    3    0    0 -0.19781610520E+01  0.45721619518E+02 -0.12795943670E+03  0.13590068820E+03  0.10000000000E+01 0.  0.
    9000005    1    3    3    0    0  0.19781610520E+01 -0.45721619518E+02 -0.69413356182E+03  0.69564127340E+03  0.10000000000E+01 0.  0.
<mgrwt>
<rscale>  0 0.12500054E+03</rscale>
<asrwt>0</asrwt>
<pdfrwt beam="2">  1        4 0.12720257E+00 0.12500054E+03</pdfrwt>
<pdfrwt beam="1">  1       -4 0.72684397E-03 0.12500054E+03</pdfrwt>
<totfact> 0.36894366E+03</totfact>
</mgrwt>
</event>
<event>
 5    1  0.3284464E-002  0.1249984E+03  0.7818608E-02  0.1235072E+00
         -4   -1    0    0    0  501 -0.00000000000E+00  0.00000000000E+00  0.26795708010E+02  0.26825787365E+02  0.12700000000E+01 0. -1.
          4   -1    0    0  501    0  0.00000000000E+00 -0.00000000000E+00 -0.14566059402E+03  0.14566613042E+03  0.12700000000E+01 0. -1.
         25    2    1    2    0    0  0.00000000000E+00  0.00000000000E+00 -0.11886488601E+03  0.17249191778E+03  0.12499840228E+03 0.  0.
    9000005    1    3    3    0    0 -0.58524429576E+02 -0.13104284551E+02 -0.35201827729E+02  0.69548542804E+02  0.10000000000E+01 0.  0.
    9000005    1    3    3    0    0  0.58524429576E+02  0.13104284551E+02 -0.83663058282E+02  0.10294337498E+03  0.10000000000E+01 0.  0.
<mgrwt>
<rscale>  0 0.12499840E+03</rscale>
<asrwt>0</asrwt>
<pdfrwt beam="2">  1        4 0.22412061E-01 0.12499840E+03</pdfrwt>
<pdfrwt beam="1">  1       -4 0.41251564E-02 0.12499840E+03</pdfrwt>
<totfact> 0.94989613E+03</totfact>
</mgrwt>
</event>
<event>
 5    1  0.3284464E-002  0.1250265E+03  0.7818608E-02  0.1235028E+00
          4   -1    0    0  501    0  0.00000000000E+00  0.00000000000E+00  0.10753247055E+03  0.10753996988E+03  0.12700000000E+01 0.  1.
         -4   -1    0    0    0  501 -0.00000000000E+00 -0.00000000000E+00 -0.36321796652E+02  0.36343992792E+02  0.12700000000E+01 0.  1.
         25    2    1    2    0    0  0.00000000000E+00  0.00000000000E+00  0.71210673893E+02  0.14388396267E+03  0.12502653573E+03 0.  0.
    9000005    1    3    3    0    0  0.43555742540E+02 -0.23895998039E+02  0.79257772458E+02  0.93546330369E+02  0.10000000000E+01 0.  0.
    9000005    1    3    3    0    0 -0.43555742540E+02  0.23895998039E+02 -0.80470985647E+01  0.50337632302E+02  0.10000000000E+01 0.  0.
<mgrwt>
<rscale>  0 0.12502654E+03</rscale>
<asrwt>0</asrwt>
<pdfrwt beam="1">  1        4 0.16545741E-01 0.12502654E+03</pdfrwt>
<pdfrwt beam="2">  1       -4 0.55902531E-02 0.12502654E+03</pdfrwt>
<totfact> 0.10047708E+04</totfact>
</mgrwt>
</event>
<event>
 5    1  0.3284464E-002  0.1250009E+03  0.7818608E-02  0.1235068E+00
          4   -1    0    0  501    0  0.00000000000E+00  0.00000000000E+00  0.58768750390E+03  0.58768887615E+03  0.12700000000E+01 0.  1.
         -4   -1    0    0    0  501 -0.00000000000E+00 -0.00000000000E+00 -0.65848547818E+01  0.67062070127E+01  0.12700000000E+01 0.  1.
         25    2    1    2    0    0  0.00000000000E+00  0.00000000000E+00  0.58110264912E+03  0.59439508316E+03  0.12500090426E+03 0.  0.
    9000005    1    3    3    0    0 -0.43735800775E+02  0.26431713968E+02  0.11950878211E+03  0.12998001683E+03  0.10000000000E+01 0.  0.
    9000005    1    3    3    0    0  0.43735800775E+02 -0.26431713968E+02  0.46159386701E+03  0.46441506633E+03  0.10000000000E+01 0.  0.
<mgrwt>
<rscale>  0 0.12500090E+03</rscale>
<asrwt>0</asrwt>
<pdfrwt beam="1">  1        4 0.90422902E-01 0.12500090E+03</pdfrwt>
<pdfrwt beam="2">  1       -4 0.10224949E-02 0.12500090E+03</pdfrwt>
<totfact> 0.49222355E+03</totfact>
</mgrwt>
</event>
<event>
 5    1  0.3284464E-002  0.1250010E+03  0.7818608E-02  0.1235068E+00
         -4   -1    0    0    0  501 -0.00000000000E+00  0.00000000000E+00  0.16152185427E+01  0.20547094541E+01  0.12700000000E+01 0. -1.
          4   -1    0    0  501    0  0.00000000000E+00 -0.00000000000E+00 -0.21283842383E+04  0.21283846172E+04  0.12700000000E+01 0. -1.
         25    2    1    2    0    0  0.00000000000E+00  0.00000000000E+00 -0.21267690198E+04  0.21304393267E+04  0.12500104466E+03 0.  0.
    9000005    1    3    3    0    0  0.21904881312E+02 -0.58189752704E+02 -0.11704246841E+04  0.11720754295E+04  0.10000000000E+01 0.  0.
    9000005    1    3    3    0    0 -0.21904881312E+02  0.58189752704E+02 -0.95634433563E+03  0.95836389719E+03  0.10000000000E+01 0.  0.
<mgrwt>
<rscale>  0 0.12500104E+03</rscale>
<asrwt>0</asrwt>
<pdfrwt beam="2">  1        4 0.32747559E+00 0.12500104E+03</pdfrwt>
<pdfrwt beam="1">  1       -4 0.28233300E-03 0.12500104E+03</pdfrwt>
<totfact> 0.82532992E+02</totfact>
</mgrwt>
</event>
<event>
 5    1  0.3284464E-002  0.1250004E+03  0.7818608E-02  0.1235069E+00
          4   -1    0    0  501    0  0.00000000000E+00  0.00000000000E+00  0.61429249861E+02  0.61442376570E+02  0.12700000000E+01 0.  1.
         -4   -1    0    0    0  501 -0.00000000000E+00 -0.00000000000E+00 -0.63563529539E+02  0.63576215580E+02  0.12700000000E+01 0.  1.
         25    2    1    2    0    0  0.00000000000E+00  0.00000000000E+00 -0.21342796777E+01  0.12501859215E+03  0.12500037293E+03 0.  0.
    9000005    1    3    3    0    0 -0.47241547614E+02 -0.24069139613E+02  0.32016163977E+02  0.61944507896E+02  0.10000000000E+01 0.  0.
    9000005    1    3    3    0    0  0.47241547614E+02  0.24069139613E+02 -0.34150443654E+02  0.63074084254E+02  0.10000000000E+01 0.  0.
<mgrwt>
<rscale>  0 0.12500037E+03</rscale>
<asrwt>0</asrwt>
<pdfrwt beam="1">  1        4 0.94526394E-02 0.12500037E+03</pdfrwt>
<pdfrwt beam="2">  1       -4 0.97809901E-02 0.12500037E+03</pdfrwt>
<totfact> 0.10452371E+04</totfact>
</mgrwt>
</event>
<event>
 5    1  0.3284464E-002  0.1249910E+03  0.7818608E-02  0.1235083E+00
         -4   -1    0    0    0  501 -0.00000000000E+00  0.00000000000E+00  0.18818566723E+03  0.18818995258E+03  0.12700000000E+01 0. -1.
          4   -1    0    0  501    0  0.00000000000E+00 -0.00000000000E+00 -0.20730494860E+02  0.20769360056E+02  0.12700000000E+01 0. -1.
         25    2    1    2    0    0  0.00000000000E+00  0.00000000000E+00  0.16745517237E+03  0.20895931263E+03  0.12499103801E+03 0.  0.
    9000005    1    3    3    0    0 -0.17975839284E+01 -0.27047964408E+02 -0.10397052565E+02  0.29050342315E+02  0.10000000000E+01 0.  0.
    9000005    1    3    3    0    0  0.17975839284E+01  0.27047964408E+02  0.17785222493E+03  0.17990897032E+03  0.10000000000E+01 0.  0.
<mgrwt>
<rscale>  0 0.12499104E+03</rscale>
<asrwt>0</asrwt>
<pdfrwt beam="2">  1        4 0.31926261E-02 0.12499104E+03</pdfrwt>
<pdfrwt beam="1">  1       -4 0.28954961E-01 0.12499104E+03</pdfrwt>
<totfact> 0.88663885E+03</totfact>
</mgrwt>
</event>
<event>
 5    1  0.3284464E-002  0.1250003E+03  0.7818608E-02  0.1235069E+00
          4   -1    0    0  501    0  0.00000000000E+00  0.00000000000E+00  0.31808462361E+01  0.34250084347E+01  0.12700000000E+01 0. -1.
         -4   -1    0    0    0  501 -0.00000000000E+00 -0.00000000000E+00 -0.11824244490E+04  0.11824251311E+04  0.12700000000E+01 0. -1.
         25    2    1    2    0    0  0.00000000000E+00  0.00000000000E+00 -0.11792436028E+04  0.11858501395E+04  0.12500031444E+03 0.  0.
    9000005    1    3    3    0    0  0.56465665466E+02  0.64623403964E+01 -0.83612041210E+03  0.83805040227E+03  0.10000000000E+01 0.  0.
    9000005    1    3    3    0    0 -0.56465665466E+02 -0.64623403964E+01 -0.34312319069E+03  0.34779973722E+03  0.10000000000E+01 0.  0.
<mgrwt>
<rscale>  0 0.12500031E+03</rscale>
<asrwt>0</asrwt>
<pdfrwt beam="1">  1        4 0.50819607E-03 0.12500031E+03</pdfrwt>
<pdfrwt beam="2">  1       -4 0.18192995E+00 0.12500031E+03</pdfrwt>
<totfact> 0.25086039E+03</totfact>
</mgrwt>
</event>
<event>
 5    1  0.3284464E-002  0.1250052E+03  0.7818608E-02  0.1235061E+00
          4   -1    0    0  501    0  0.00000000000E+00  0.00000000000E+00  0.99947866694E+01  0.10075150647E+02  0.12700000000E+01 0.  1.
         -4   -1    0    0    0  501 -0.00000000000E+00 -0.00000000000E+00 -0.38921461990E+03  0.38921669189E+03  0.12700000000E+01 0.  1.
         25    2    1    2    0    0  0.00000000000E+00  0.00000000000E+00 -0.37921983323E+03  0.39929184253E+03  0.12500517429E+03 0.  0.
    9000005    1    3    3    0    0 -0.17510380960E+02  0.51876032335E+02 -0.93367517234E+02  0.10824153291E+03  0.10000000000E+01 0.  0.
    9000005    1    3    3    0    0  0.17510380960E+02 -0.51876032335E+02 -0.28585231600E+03  0.29105030962E+03  0.10000000000E+01 0.  0.
<mgrwt>
<rscale>  0 0.12500517E+03</rscale>
<asrwt>0</asrwt>
<pdfrwt beam="1">  1        4 0.15440010E-02 0.12500517E+03</pdfrwt>
<pdfrwt beam="2">  1       -4 0.59885502E-01 0.12500517E+03</pdfrwt>
<totfact> 0.64614346E+03</totfact>
</mgrwt>
</event>
<event>
 5    1  0.3284464E-002  0.1250063E+03  0.7818608E-02  0.1235059E+00
         -4   -1    0    0    0  501 -0.00000000000E+00  0.00000000000E+00  0.63447109556E+01  0.64705685306E+01  0.12700000000E+01 0.  1.
          4   -1    0    0  501    0  0.00000000000E+00 -0.00000000000E+00 -0.60955917347E+03  0.60956049648E+03  0.12700000000E+01 0.  1.
         25    2    1    2    0    0  0.00000000000E+00  0.00000000000E+00 -0.60321446252E+03  0.61603106501E+03  0.12500634090E+03 0.  0.
    9000005    1    3    3    0    0  0.16264532859E+02 -0.30311650073E+01 -0.46192283799E+01  0.17206401752E+02  0.10000000000E+01 0.  0.
    9000005    1    3    3    0    0 -0.16264532859E+02  0.30311650073E+01 -0.59859523414E+03  0.59882466325E+03  0.10000000000E+01 0.  0.
<mgrwt>
<rscale>  0 0.12500634E+03</rscale>
<asrwt>0</asrwt>
<pdfrwt beam="2">  1        4 0.93788072E-01 0.12500634E+03</pdfrwt>
<pdfrwt beam="1">  1       -4 0.98589298E-03 0.12500634E+03</pdfrwt>
<totfact> 0.47864435E+03</totfact>
</mgrwt>
</event>
<event>
 5    1  0.3284464E-002  0.1249996E+03  0.7818608E-02  0.1235070E+00
          4   -1    0    0  501    0  0.00000000000E+00  0.00000000000E+00  0.16613167353E+03  0.16613652774E+03  0.12700000000E+01 0. -1.
         -4   -1    0    0    0  501 -0.00000000000E+00 -0.00000000000E+00 -0.23490458295E+02  0.23524764206E+02  0.12700000000E+01 0. -1.
         25    2    1    2    0    0  0.00000000000E+00  0.00000000000E+00  0.14264121524E+03  0.18966129195E+03  0.12499955752E+03 0.  0.
    9000005    1    3    3    0    0 -0.54524440083E+02 -0.15937534725E+02  0.11083743071E+03  0.12455061472E+03  0.10000000000E+01 0.  0.
    9000005    1    3    3    0    0  0.54524440083E+02  0.15937534725E+02  0.31803784524E+02  0.65110677231E+02  0.10000000000E+01 0.  0.
<mgrwt>
<rscale>  0 0.12499956E+03</rscale>
<asrwt>0</asrwt>
<pdfrwt beam="1">  1        4 0.25561732E-01 0.12499956E+03</pdfrwt>
<pdfrwt beam="2">  1       -4 0.36169288E-02 0.12499956E+03</pdfrwt>
<totfact> 0.91907191E+03</totfact>
</mgrwt>
</event>
<event>
 5    1  0.3284464E-002  0.1250116E+03  0.7818608E-02  0.1235051E+00
         -4   -1    0    0    0  501 -0.00000000000E+00  0.00000000000E+00  0.10429694076E+03  0.10430467273E+03  0.12700000000E+01 0.  1.
          4   -1    0    0  501    0  0.00000000000E+00 -0.00000000000E+00 -0.37440201370E+02  0.37461734859E+02  0.12700000000E+01 0.  1.
         25    2    1    2    0    0  0.00000000000E+00  0.00000000000E+00  0.66856739395E+02  0.14176640759E+03  0.12501156233E+03 0.  0.
    9000005    1    3    3    0    0 -0.17182615414E+02 -0.59967234882E+02  0.37770542810E+02  0.72930963493E+02  0.10000000000E+01 0.  0.
    9000005    1    3    3    0    0  0.17182615414E+02  0.59967234882E+02  0.29086196585E+02  0.68835444094E+02  0.10000000000E+01 0.  0.
<mgrwt>
<rscale>  0 0.12501156E+03</rscale>
<asrwt>0</asrwt>
<pdfrwt beam="2">  1        4 0.57622822E-02 0.12501156E+03</pdfrwt>
<pdfrwt beam="1">  1       -4 0.16047934E-01 0.12501156E+03</pdfrwt>
<totfact> 0.10094477E+04</totfact>
</mgrwt>
</event>
<event>
 5    1  0.3284464E-002  0.1250015E+03  0.7818608E-02  0.1235067E+00
         -4   -1    0    0    0  501 -0.00000000000E+00  0.00000000000E+00  0.29447526659E+01  0.32069406392E+01  0.12700000000E+01 0.  1.
          4   -1    0    0  501    0  0.00000000000E+00 -0.00000000000E+00 -0.12697442383E+04  0.12697448734E+04  0.12700000000E+01 0.  1.
         25    2    1    2    0    0  0.00000000000E+00  0.00000000000E+00 -0.12667994856E+04  0.12729518141E+04  0.12500153652E+03 0.  0.
    9000005    1    3    3    0    0 -0.17930988346E+02  0.23734412915E+02 -0.11930752128E+04  0.11934463985E+04  0.10000000000E+01 0.  0.
    9000005    1    3    3    0    0  0.17930988346E+02 -0.23734412915E+02 -0.73724272856E+02  0.79505415587E+02  0.10000000000E+01 0.  0.
<mgrwt>
<rscale>  0 0.12500154E+03</rscale>
<asrwt>0</asrwt>
<pdfrwt beam="2">  1        4 0.19536507E+00 0.12500154E+03</pdfrwt>
<pdfrwt beam="1">  1       -4 0.47325705E-03 0.12500154E+03</pdfrwt>
<totfact> 0.22875339E+03</totfact>
</mgrwt>
</event>
<event>
 4    1  0.3284464E-002  0.1251026E+03  0.7818608E-02  0.1234909E+00
         -4   -1    0    0    0  501 -0.00000000000E+00  0.00000000000E+00  0.17996266198E+03  0.17996714313E+03  0.12700000000E+01 0. -1.
          4   -1    0    0  501    0  0.00000000000E+00 -0.00000000000E+00 -0.21718240663E+02  0.21755341355E+02  0.12700000000E+01 0. -1.
    9000005    1    1    2    0    0  0.26769445120E+02 -0.59829296147E+01  0.16975411689E+03  0.17195888707E+03  0.10000000000E+01 0.  0.
    9000005    1    1    2    0    0 -0.26769445120E+02  0.59829296147E+01 -0.11509695580E+02  0.29763597416E+02  0.10000000000E+01 0.  0.
<mgrwt>
<rscale>  0 0.12510261E+03</rscale>
<asrwt>0</asrwt>
<pdfrwt beam="2">  1        4 0.33444664E-02 0.12510261E+03</pdfrwt>
<pdfrwt beam="1">  1       -4 0.27689762E-01 0.12510261E+03</pdfrwt>
<totfact> 0.89639846E+03</totfact>
</mgrwt>
</event>
<event>
 5    1  0.3284464E-002  0.1250034E+03  0.7818608E-02  0.1235064E+00
         -4   -1    0    0    0  501 -0.00000000000E+00  0.00000000000E+00  0.85909926263E+01  0.86843568734E+01  0.12700000000E+01 0.  1.
          4   -1    0    0  501    0  0.00000000000E+00 -0.00000000000E+00 -0.45216421670E+03  0.45216600023E+03  0.12700000000E+01 0.  1.
         25    2    1    2    0    0  0.00000000000E+00  0.00000000000E+00 -0.44357322408E+03  0.46085035711E+03  0.12500338606E+03 0.  0.
    9000005    1    3    3    0    0 -0.55688096146E+02 -0.28226451352E+02 -0.21164648741E+03  0.22066520397E+03  0.10000000000E+01 0.  0.
    9000005    1    3    3    0    0  0.55688096146E+02  0.28226451352E+02 -0.23192673666E+03  0.24018515314E+03  0.10000000000E+01 0.  0.
<mgrwt>
<rscale>  0 0.12500339E+03</rscale>
<asrwt>0</asrwt>
<pdfrwt beam="2">  1        4 0.69571026E-01 0.12500339E+03</pdfrwt>
<pdfrwt beam="1">  1       -4 0.13290106E-02 0.12500339E+03</pdfrwt>
<totfact> 0.59030828E+03</totfact>
</mgrwt>
</event>
<event>
 5    1  0.3284464E-002  0.1250007E+03  0.7818608E-02  0.1235068E+00
         -4   -1    0    0    0  501 -0.00000000000E+00  0.00000000000E+00  0.16802661366E+04  0.16802666165E+04  0.12700000000E+01 0.  1.
          4   -1    0    0  501    0  0.00000000000E+00 -0.00000000000E+00 -0.21508439586E+01  0.24978049833E+01  0.12700000000E+01 0.  1.
         25    2    1    2    0    0  0.00000000000E+00  0.00000000000E+00  0.16781152926E+04  0.16827644215E+04  0.12500065197E+03 0.  0.
    9000005    1    3    3    0    0  0.46937859364E+02  0.41155256018E+02  0.87801162438E+03  0.88022856707E+03  0.10000000000E+01 0.  0.
    9000005    1    3    3    0    0 -0.46937859364E+02 -0.41155256018E+02  0.80010366826E+03  0.80253585447E+03  0.10000000000E+01 0.  0.
<mgrwt>
<rscale>  0 0.12500065E+03</rscale>
<asrwt>0</asrwt>
<pdfrwt beam="2">  1        4 0.35762521E-03 0.12500065E+03</pdfrwt>
<pdfrwt beam="1">  1       -4 0.25852928E+00 0.12500065E+03</pdfrwt>
<totfact> 0.14597292E+03</totfact>
</mgrwt>
</event>
<event>
 5    1  0.3284464E-002  0.1250019E+03  0.7818608E-02  0.1235066E+00
          4   -1    0    0  501    0  0.00000000000E+00  0.00000000000E+00  0.83455643146E+01  0.84416434259E+01  0.12700000000E+01 0.  1.
         -4   -1    0    0    0  501 -0.00000000000E+00 -0.00000000000E+00 -0.46530140289E+03  0.46530313606E+03  0.12700000000E+01 0.  1.
         25    2    1    2    0    0  0.00000000000E+00  0.00000000000E+00 -0.45695583857E+03  0.47374477949E+03  0.12500191073E+03 0.  0.
    9000005    1    3    3    0    0 -0.12501547383E+02 -0.30764257841E+02 -0.27840684023E+02  0.43345494972E+02  0.10000000000E+01 0.  0.
    9000005    1    3    3    0    0  0.12501547383E+02  0.30764257841E+02 -0.42911515455E+03  0.43039928451E+03  0.10000000000E+01 0.  0.
<mgrwt>
<rscale>  0 0.12500191E+03</rscale>
<asrwt>0</asrwt>
<pdfrwt beam="1">  1        4 0.12914574E-02 0.12500191E+03</pdfrwt>
<pdfrwt beam="2">  1       -4 0.71592335E-01 0.12500191E+03</pdfrwt>
<totfact> 0.57958161E+03</totfact>
</mgrwt>
</event>
<event>
 5    1  0.3284464E-002  0.1250005E+03  0.7818608E-02  0.1235068E+00
         -4   -1    0    0    0  501 -0.00000000000E+00  0.00000000000E+00  0.38419789399E+02  0.38440774153E+02  0.12700000000E+01 0. -1.
          4   -1    0    0  501    0  0.00000000000E+00 -0.00000000000E+00 -0.10162098898E+03  0.10162892453E+03  0.12700000000E+01 0. -1.
         25    2    1    2    0    0  0.00000000000E+00  0.00000000000E+00 -0.63201199582E+02  0.14006969869E+03  0.12500051544E+03 0.  0.
    9000005    1    3    3    0    0 -0.91167597830E+01  0.48277440578E+02  0.11674448443E+02  0.50508606436E+02  0.10000000000E+01 0.  0.
    9000005    1    3    3    0    0  0.91167597830E+01 -0.48277440578E+02 -0.74875648025E+02  0.89561092249E+02  0.10000000000E+01 0.  0.
<mgrwt>
<rscale>  0 0.12500052E+03</rscale>
<asrwt>0</asrwt>
<pdfrwt beam="2">  1        4 0.15636223E-01 0.12500052E+03</pdfrwt>
<pdfrwt beam="1">  1       -4 0.59129615E-02 0.12500052E+03</pdfrwt>
<totfact> 0.10132024E+04</totfact>
</mgrwt>
</event>
<event>
 5    1  0.3284464E-002  0.1250003E+03  0.7818608E-02  0.1235069E+00
          4   -1    0    0  501    0  0.00000000000E+00  0.00000000000E+00  0.49477766412E+02  0.49494062968E+02  0.12700000000E+01 0. -1.
         -4   -1    0    0    0  501 -0.00000000000E+00 -0.00000000000E+00 -0.78915581054E+02  0.78925799540E+02  0.12700000000E+01 0. -1.
         25    2    1    2    0    0  0.00000000000E+00  0.00000000000E+00 -0.29437814641E+02  0.12841986251E+03  0.12500030462E+03 0.  0.
    9000005    1    3    3    0    0  0.58575169830E+02 -0.20521066653E+02 -0.22205533425E+02  0.65926098109E+02  0.10000000000E+01 0.  0.
    9000005    1    3    3    0    0 -0.58575169830E+02  0.20521066653E+02 -0.72322812163E+01  0.62493764399E+02  0.10000000000E+01 0.  0.
<mgrwt>
<rscale>  0 0.12500030E+03</rscale>
<asrwt>0</asrwt>
<pdfrwt beam="1">  1        4 0.76140037E-02 0.12500030E+03</pdfrwt>
<pdfrwt beam="2">  1       -4 0.12142898E-01 0.12500030E+03</pdfrwt>
<totfact> 0.10378359E+04</totfact>
</mgrwt>
</event>
<event>
 5    1  0.3284464E-002  0.1250000E+03  0.7818608E-02  0.1235069E+00
         -4   -1    0    0    0  501 -0.00000000000E+00  0.00000000000E+00  0.11452329717E+03  0.11453033875E+03  0.12700000000E+01 0.  1.
          4   -1    0    0  501    0  0.00000000000E+00 -0.00000000000E+00 -0.34088877112E+02  0.34112526185E+02  0.12700000000E+01 0.  1.
         25    2    1    2    0    0  0.00000000000E+00  0.00000000000E+00  0.80434420059E+02  0.14864286494E+03  0.12500002147E+03 0.  0.
    9000005    1    3    3    0    0 -0.22112262006E+02 -0.38095446281E+02  0.92930394776E+02  0.10284587222E+03  0.10000000000E+01 0.  0.
    9000005    1    3    3    0    0  0.22112262006E+02  0.38095446281E+02 -0.12495974717E+02  0.45796992723E+02  0.10000000000E+01 0.  0.
<mgrwt>
<rscale>  0 0.12500002E+03</rscale>
<asrwt>0</asrwt>
<pdfrwt beam="2">  1        4 0.52468035E-02 0.12500002E+03</pdfrwt>
<pdfrwt beam="1">  1       -4 0.17621329E-01 0.12500002E+03</pdfrwt>
<totfact> 0.99574865E+03</totfact>
</mgrwt>
</event>
<event>
 5    1  0.3284464E-002  0.1250186E+03  0.7818608E-02  0.1235040E+00
          4   -1    0    0  501    0  0.00000000000E+00  0.00000000000E+00  0.43042221835E+02  0.43060954013E+02  0.12700000000E+01 0.  1.
         -4   -1    0    0    0  501 -0.00000000000E+00 -0.00000000000E+00 -0.90738026579E+02  0.90746913818E+02  0.12700000000E+01 0.  1.
         25    2    1    2    0    0  0.00000000000E+00  0.00000000000E+00 -0.47695804744E+02  0.13380786783E+03  0.12501862143E+03 0.  0.
    9000005    1    3    3    0    0  0.26351261899E+02  0.49752467409E+02 -0.52898646665E+02  0.77259069603E+02  0.10000000000E+01 0.  0.
    9000005    1    3    3    0    0 -0.26351261899E+02 -0.49752467409E+02  0.52028419213E+01  0.56548798228E+02  0.10000000000E+01 0.  0.
<mgrwt>
<rscale>  0 0.12501862E+03</rscale>
<asrwt>0</asrwt>
<pdfrwt beam="1">  1        4 0.66240049E-02 0.12501862E+03</pdfrwt>
<pdfrwt beam="2">  1       -4 0.13961821E-01 0.12501862E+03</pdfrwt>
<totfact> 0.10258950E+04</totfact>
</mgrwt>
</event>
<event>
 5    1  0.3284464E-002  0.1250028E+03  0.7818608E-02  0.1235065E+00
         -4   -1    0    0    0  501 -0.00000000000E+00  0.00000000000E+00  0.44508460064E+02  0.44526575405E+02  0.12700000000E+01 0.  1.
          4   -1    0    0  501    0  0.00000000000E+00 -0.00000000000E+00 -0.87727623283E+02  0.87736815459E+02  0.12700000000E+01 0.  1.
         25    2    1    2    0    0  0.00000000000E+00  0.00000000000E+00 -0.43219163219E+02  0.13226339086E+03  0.12500283394E+03 0.  0.
    9000005    1    3    3    0    0 -0.48734067648E+02  0.31035258964E+02 -0.46809525361E+02  0.74366177211E+02  0.10000000000E+01 0.  0.
    9000005    1    3    3    0    0  0.48734067648E+02 -0.31035258964E+02  0.35903621423E+01  0.57897213653E+02  0.10000000000E+01 0.  0.
<mgrwt>
<rscale>  0 0.12500283E+03</rscale>
<asrwt>0</asrwt>
<pdfrwt beam="2">  1        4 0.13498658E-01 0.12500283E+03</pdfrwt>
<pdfrwt beam="1">  1       -4 0.68495560E-02 0.12500283E+03</pdfrwt>
<totfact> 0.10295422E+04</totfact>
</mgrwt>
</event>
<event>
 5    1  0.3284464E-002  0.1249925E+03  0.7818608E-02  0.1235081E+00
          4   -1    0    0  501    0  0.00000000000E+00  0.00000000000E+00  0.69215875422E+03  0.69215991934E+03  0.12700000000E+01 0. -1.
         -4   -1    0    0    0  501 -0.00000000000E+00 -0.00000000000E+00 -0.55702518859E+01  0.57131957845E+01  0.12700000000E+01 0. -1.
         25    2    1    2    0    0  0.00000000000E+00  0.00000000000E+00  0.68658850234E+03  0.69787311513E+03  0.12499245289E+03 0.  0.
    9000005    1    3    3    0    0 -0.56928692500E+02  0.60583617463E+01  0.20346591260E+03  0.21136924414E+03  0.10000000000E+01 0.  0.
    9000005    1    3    3    0    0  0.56928692500E+02 -0.60583617463E+01  0.48312258973E+03  0.48650387099E+03  0.10000000000E+01 0.  0.
<mgrwt>
<rscale>  0 0.12499245E+03</rscale>
<asrwt>0</asrwt>
<pdfrwt beam="1">  1        4 0.10649706E+00 0.12499245E+03</pdfrwt>
<pdfrwt beam="2">  1       -4 0.86804706E-03 0.12499245E+03</pdfrwt>
<totfact> 0.43206332E+03</totfact>
</mgrwt>
</event>
<event>
 5    1  0.3284464E-002  0.1249960E+03  0.7818608E-02  0.1235076E+00
          4   -1    0    0  501    0  0.00000000000E+00  0.00000000000E+00  0.82994899303E+01  0.83960963015E+01  0.12700000000E+01 0. -1.
         -4   -1    0    0    0  501 -0.00000000000E+00 -0.00000000000E+00 -0.46781050518E+03  0.46781222906E+03  0.12700000000E+01 0. -1.
         25    2    1    2    0    0  0.00000000000E+00  0.00000000000E+00 -0.45951101525E+03  0.47620832536E+03  0.12499598396E+03 0.  0.
    9000005    1    3    3    0    0 -0.27424522358E+02  0.34197390268E+02 -0.60083694986E+02  0.74381559078E+02  0.10000000000E+01 0.  0.
    9000005    1    3    3    0    0  0.27424522358E+02 -0.34197390268E+02 -0.39942732026E+03  0.40182676628E+03  0.10000000000E+01 0.  0.
<mgrwt>
<rscale>  0 0.12499598E+03</rscale>
<asrwt>0</asrwt>
<pdfrwt beam="1">  1        4 0.12844088E-02 0.12499598E+03</pdfrwt>
<pdfrwt beam="2">  1       -4 0.71978390E-01 0.12499598E+03</pdfrwt>
<totfact> 0.57763858E+03</totfact>
</mgrwt>
</event>
<event>
 5    1  0.3284464E-002  0.1249983E+03  0.7818608E-02  0.1235072E+00
         -4   -1    0    0    0  501 -0.00000000000E+00  0.00000000000E+00  0.63486761026E+02  0.63499462404E+02  0.12700000000E+01 0.  1.
          4   -1    0    0  501    0  0.00000000000E+00 -0.00000000000E+00 -0.61501459058E+02  0.61514570358E+02  0.12700000000E+01 0.  1.
         25    2    1    2    0    0  0.00000000000E+00  0.00000000000E+00  0.19853019678E+01  0.12501403276E+03  0.12499826784E+03 0.  0.
    9000005    1    3    3    0    0  0.40178359405E+02  0.47392995624E+02  0.76826756043E+01  0.62613258206E+02  0.10000000000E+01 0.  0.
    9000005    1    3    3    0    0 -0.40178359405E+02 -0.47392995624E+02 -0.56973736365E+01  0.62400774555E+02  0.10000000000E+01 0.  0.
<mgrwt>
<rscale>  0 0.12499827E+03</rscale>
<asrwt>0</asrwt>
<pdfrwt beam="2">  1        4 0.94637485E-02 0.12499827E+03</pdfrwt>
<pdfrwt beam="1">  1       -4 0.97691796E-02 0.12499827E+03</pdfrwt>
<totfact> 0.10452967E+04</totfact>
</mgrwt>
</event>
<event>
 5    1  0.3284464E-002  0.1250030E+03  0.7818608E-02  0.1235065E+00
         -4   -1    0    0    0  501 -0.00000000000E+00  0.00000000000E+00  0.18743451855E+03  0.18743882107E+03  0.12700000000E+01 0. -1.
          4   -1    0    0  501    0  0.00000000000E+00 -0.00000000000E+00 -0.20817722674E+02  0.20856425325E+02  0.12700000000E+01 0. -1.
         25    2    1    2    0    0  0.00000000000E+00  0.00000000000E+00  0.16661679588E+03  0.20829524640E+03  0.12500301197E+03 0.  0.
    9000005    1    3    3    0    0 -0.27578319094E+02 -0.22750402681E+02 -0.21024821928E+01  0.35826874516E+02  0.10000000000E+01 0.  0.
    9000005    1    3    3    0    0  0.27578319094E+02  0.22750402681E+02  0.16871927807E+03  0.17246837188E+03  0.10000000000E+01 0.  0.
<mgrwt>
<rscale>  0 0.12500301E+03</rscale>
<asrwt>0</asrwt>
<pdfrwt beam="2">  1        4 0.32060347E-02 0.12500301E+03</pdfrwt>
<pdfrwt beam="1">  1       -4 0.28839388E-01 0.12500301E+03</pdfrwt>
<totfact> 0.88749071E+03</totfact>
</mgrwt>
</event>
<event>
 5    1  0.3284464E-002  0.1250007E+03  0.7818608E-02  0.1235068E+00
          4   -1    0    0  501    0  0.00000000000E+00  0.00000000000E+00  0.98400044948E+00  0.16065979225E+01  0.12700000000E+01 0. -1.
         -4   -1    0    0    0  501 -0.00000000000E+00 -0.00000000000E+00 -0.30151242641E+04  0.30151245316E+04  0.12700000000E+01 0. -1.
         25    2    1    2    0    0  0.00000000000E+00  0.00000000000E+00 -0.30141402636E+04  0.30167311295E+04  0.12500071471E+03 0.  0.
    9000005    1    3    3    0    0 -0.39099341972E+02  0.40664595417E+02 -0.21559604184E+04  0.21566985634E+04  0.10000000000E+01 0.  0.
    9000005    1    3    3    0    0  0.39099341972E+02 -0.40664595417E+02 -0.85817984526E+03  0.86003256606E+03  0.10000000000E+01 0.  0.
<mgrwt>
<rscale>  0 0.12500071E+03</rscale>
<asrwt>0</asrwt>
<pdfrwt beam="1">  1        4 0.19929979E-03 0.12500071E+03</pdfrwt>
<pdfrwt beam="2">  1       -4 0.46390756E+00 0.12500071E+03</pdfrwt>
<totfact> 0.17550391E+02</totfact>
</mgrwt>
</event>
<event>
 5    1  0.3284464E-002  0.1250050E+03  0.7818608E-02  0.1235061E+00
          4   -1    0    0  501    0  0.00000000000E+00  0.00000000000E+00  0.40212807340E+02  0.40232856898E+02  0.12700000000E+01 0.  1.
         -4   -1    0    0    0  501 -0.00000000000E+00 -0.00000000000E+00 -0.97098880305E+02  0.97107185401E+02  0.12700000000E+01 0.  1.
         25    2    1    2    0    0  0.00000000000E+00  0.00000000000E+00 -0.56886072965E+02  0.13734004230E+03  0.12500504758E+03 0.  0.
    9000005    1    3    3    0    0 -0.43414405033E+02  0.10455472461E+02  0.19591072182E+02  0.48774353691E+02  0.10000000000E+01 0.  0.
    9000005    1    3    3    0    0  0.43414405033E+02 -0.10455472461E+02 -0.76477145147E+02  0.88565688608E+02  0.10000000000E+01 0.  0.
<mgrwt>
<rscale>  0 0.12500505E+03</rscale>
<asrwt>0</asrwt>
<pdfrwt beam="1">  1        4 0.61887669E-02 0.12500505E+03</pdfrwt>
<pdfrwt beam="2">  1       -4 0.14940470E-01 0.12500505E+03</pdfrwt>
<totfact> 0.10187821E+04</totfact>
</mgrwt>
</event>
<event>
 5    1  0.3284464E-002  0.1250018E+03  0.7818608E-02  0.1235066E+00
         -4   -1    0    0    0  501 -0.00000000000E+00  0.00000000000E+00  0.25439274803E+03  0.25439591811E+03  0.12700000000E+01 0.  1.
          4   -1    0    0  501    0  0.00000000000E+00 -0.00000000000E+00 -0.15326108814E+02  0.15378638151E+02  0.12700000000E+01 0.  1.
         25    2    1    2    0    0  0.00000000000E+00  0.00000000000E+00  0.23906663922E+03  0.26977455626E+03  0.12500181286E+03 0.  0.
    9000005    1    3    3    0    0 -0.35567395529E+02  0.44725871393E+02  0.64938987918E+02  0.86507313843E+02  0.10000000000E+01 0.  0.
    9000005    1    3    3    0    0  0.35567395529E+02 -0.44725871393E+02  0.17412765130E+03  0.18326724242E+03  0.10000000000E+01 0.  0.
<mgrwt>
<rscale>  0 0.12500181E+03</rscale>
<asrwt>0</asrwt>
<pdfrwt beam="2">  1        4 0.23621476E-02 0.12500181E+03</pdfrwt>
<pdfrwt beam="1">  1       -4 0.39141628E-01 0.12500181E+03</pdfrwt>
<totfact> 0.79550405E+03</totfact>
</mgrwt>
</event>
<event>
 5    1  0.3284464E-002  0.1250013E+03  0.7818608E-02  0.1235067E+00
          4   -1    0    0  501    0  0.00000000000E+00  0.00000000000E+00  0.23794542023E+02  0.23828410146E+02  0.12700000000E+01 0. -1.
         -4   -1    0    0    0  501 -0.00000000000E+00 -0.00000000000E+00 -0.16401619594E+03  0.16402111276E+03  0.12700000000E+01 0. -1.
         25    2    1    2    0    0  0.00000000000E+00  0.00000000000E+00 -0.14022165392E+03  0.18784952291E+03  0.12500132411E+03 0.  0.
    9000005    1    3    3    0    0 -0.57895246074E+02 -0.62621155487E+00 -0.34768927159E+02  0.67543541177E+02  0.10000000000E+01 0.  0.
    9000005    1    3    3    0    0  0.57895246074E+02  0.62621155487E+00 -0.10545272676E+03  0.12030598173E+03  0.10000000000E+01 0.  0.
<mgrwt>
<rscale>  0 0.12500132E+03</rscale>
<asrwt>0</asrwt>
<pdfrwt beam="1">  1        4 0.36636823E-02 0.12500132E+03</pdfrwt>
<pdfrwt beam="2">  1       -4 0.25236244E-01 0.12500132E+03</pdfrwt>
<totfact> 0.92220107E+03</totfact>
</mgrwt>
</event>
<event>
 5    1  0.3284464E-002  0.1249972E+03  0.7818608E-02  0.1235074E+00
         -4   -1    0    0    0  501 -0.00000000000E+00  0.00000000000E+00  0.77865818339E+03  0.77865921908E+03  0.12700000000E+01 0.  1.
          4   -1    0    0  501    0  0.00000000000E+00 -0.00000000000E+00 -0.49349823059E+01  0.50957776992E+01  0.12700000000E+01 0.  1.
         25    2    1    2    0    0  0.00000000000E+00  0.00000000000E+00  0.77372320108E+03  0.78375499678E+03  0.12499721230E+03 0.  0.
    9000005    1    3    3    0    0  0.27594339289E+01  0.25424706712E+01 -0.42587836932E+01  0.57633212011E+01  0.10000000000E+01 0.  0.
    9000005    1    3    3    0    0 -0.27594339289E+01 -0.25424706712E+01  0.77798198478E+03  0.77799167558E+03  0.10000000000E+01 0.  0.
<mgrwt>
<rscale>  0 0.12499721E+03</rscale>
<asrwt>0</asrwt>
<pdfrwt beam="2">  1        4 0.77167649E-03 0.12499721E+03</pdfrwt>
<pdfrwt beam="1">  1       -4 0.11980603E+00 0.12499721E+03</pdfrwt>
<totfact> 0.39002685E+03</totfact>
</mgrwt>
</event>
<event>
 5    1  0.3284464E-002  0.1250014E+03  0.7818608E-02  0.1235067E+00
          4   -1    0    0  501    0  0.00000000000E+00  0.00000000000E+00  0.17768331678E+04  0.17768336216E+04  0.12700000000E+01 0.  1.
         -4   -1    0    0    0  501 -0.00000000000E+00 -0.00000000000E+00 -0.20145787401E+01  0.23814759079E+01  0.12700000000E+01 0.  1.
         25    2    1    2    0    0  0.00000000000E+00  0.00000000000E+00  0.17748185890E+04  0.17792150976E+04  0.12500135749E+03 0.  0.
    9000005    1    3    3    0    0  0.20744831952E+02  0.51869814104E+02  0.12860785448E+04  0.12872916721E+04  0.10000000000E+01 0.  0.
    9000005    1    3    3    0    0 -0.20744831952E+02 -0.51869814104E+02  0.48874004421E+03  0.49192342542E+03  0.10000000000E+01 0.  0.
<mgrwt>
<rscale>  0 0.12500136E+03</rscale>
<asrwt>0</asrwt>
<pdfrwt beam="1">  1        4 0.27338880E+00 0.12500136E+03</pdfrwt>
<pdfrwt beam="2">  1       -4 0.33819099E-03 0.12500136E+03</pdfrwt>
<totfact> 0.13025896E+03</totfact>
</mgrwt>
</event>
<event>
 5    1  0.3284464E-002  0.1250019E+03  0.7818608E-02  0.1235066E+00
         -4   -1    0    0    0  501 -0.00000000000E+00  0.00000000000E+00  0.82018320009E+01  0.82995751801E+01  0.12700000000E+01 0. -1.
          4   -1    0    0  501    0  0.00000000000E+00 -0.00000000000E+00 -0.47336012806E+03  0.47336183173E+03  0.12700000000E+01 0. -1.
         25    2    1    2    0    0  0.00000000000E+00  0.00000000000E+00 -0.46515829606E+03  0.48166140691E+03  0.12500188204E+03 0.  0.
    9000005    1    3    3    0    0 -0.28005870311E+02 -0.27678201331E+02 -0.45589872418E+02  0.60248220454E+02  0.10000000000E+01 0.  0.
    9000005    1    3    3    0    0  0.28005870311E+02  0.27678201331E+02 -0.41956842365E+03  0.42141318646E+03  0.10000000000E+01 0.  0.
<mgrwt>
<rscale>  0 0.12500188E+03</rscale>
<asrwt>0</asrwt>
<pdfrwt beam="2">  1        4 0.72832263E-01 0.12500188E+03</pdfrwt>
<pdfrwt beam="1">  1       -4 0.12694704E-02 0.12500188E+03</pdfrwt>
<totfact> 0.57313464E+03</totfact>
</mgrwt>
</event>
<event>
 5    1  0.3284464E-002  0.1249996E+03  0.7818608E-02  0.1235070E+00
          4   -1    0    0  501    0  0.00000000000E+00  0.00000000000E+00  0.12107610439E+02  0.12174035097E+02  0.12700000000E+01 0.  1.
         -4   -1    0    0    0  501 -0.00000000000E+00 -0.00000000000E+00 -0.32167515877E+03  0.32167766580E+03  0.12700000000E+01 0.  1.
         25    2    1    2    0    0  0.00000000000E+00  0.00000000000E+00 -0.30956754834E+03  0.33385170089E+03  0.12499956483E+03 0.  0.
    9000005    1    3    3    0    0  0.37915540606E+02 -0.43071576891E+02 -0.88685690817E+02  0.10563569809E+03  0.10000000000E+01 0.  0.
    9000005    1    3    3    0    0 -0.37915540606E+02  0.43071576891E+02 -0.22088185752E+03  0.22821600280E+03  0.10000000000E+01 0.  0.
<mgrwt>
<rscale>  0 0.12499956E+03</rscale>
<asrwt>0</asrwt>
<pdfrwt beam="1">  1        4 0.18680120E-02 0.12499956E+03</pdfrwt>
<pdfrwt beam="2">  1       -4 0.49493782E-01 0.12499956E+03</pdfrwt>
<totfact> 0.71539074E+03</totfact>
</mgrwt>
</event>
<event>
 5    1  0.3284464E-002  0.1250020E+03  0.7818608E-02  0.1235066E+00
         -4   -1    0    0    0  501 -0.00000000000E+00  0.00000000000E+00  0.42534857976E+03  0.42535047573E+03  0.12700000000E+01 0. -1.
          4   -1    0    0  501    0  0.00000000000E+00 -0.00000000000E+00 -0.91381008000E+01  0.92259301011E+01  0.12700000000E+01 0. -1.
         25    2    1    2    0    0  0.00000000000E+00  0.00000000000E+00  0.41621047896E+03  0.43457640583E+03  0.12500195882E+03 0.  0.
    9000005    1    3    3    0    0 -0.42613751399E+02  0.45694784435E+02  0.20395181697E+03  0.21331031100E+03  0.10000000000E+01 0.  0.
    9000005    1    3    3    0    0  0.42613751399E+02 -0.45694784435E+02  0.21225866199E+03  0.22126609483E+03  0.10000000000E+01 0.  0.
<mgrwt>
<rscale>  0 0.12500196E+03</rscale>
<asrwt>0</asrwt>
<pdfrwt beam="2">  1        4 0.14127639E-02 0.12500196E+03</pdfrwt>
<pdfrwt beam="1">  1       -4 0.65445129E-01 0.12500196E+03</pdfrwt>
<totfact> 0.61320707E+03</totfact>
</mgrwt>
</event>
<event>
 5    1  0.3284464E-002  0.1249972E+03  0.7818608E-02  0.1235074E+00
         -4   -1    0    0    0  501 -0.00000000000E+00  0.00000000000E+00  0.11853979660E+03  0.11854659961E+03  0.12700000000E+01 0.  1.
          4   -1    0    0  501    0  0.00000000000E+00 -0.00000000000E+00 -0.32931622072E+02  0.32956101595E+02  0.12700000000E+01 0.  1.
         25    2    1    2    0    0  0.00000000000E+00  0.00000000000E+00  0.85608174531E+02  0.15150270120E+03  0.12499723567E+03 0.  0.
    9000005    1    3    3    0    0  0.28355430242E+02 -0.28992764716E+02 -0.14821981825E+02  0.43189141868E+02  0.10000000000E+01 0.  0.
    9000005    1    3    3    0    0 -0.28355430242E+02  0.28992764716E+02  0.10043015636E+03  0.10831355933E+03  0.10000000000E+01 0.  0.
<mgrwt>
<rscale>  0 0.12499724E+03</rscale>
<asrwt>0</asrwt>
<pdfrwt beam="2">  1        4 0.50688097E-02 0.12499724E+03</pdfrwt>
<pdfrwt beam="1">  1       -4 0.18239298E-01 0.12499724E+03</pdfrwt>
<totfact> 0.99011155E+03</totfact>
</mgrwt>
</event>
<event>
 5    1  0.3284464E-002  0.1250025E+03  0.7818608E-02  0.1235065E+00
          4   -1    0    0  501    0  0.00000000000E+00  0.00000000000E+00  0.10731089084E+03  0.10731840566E+03  0.12700000000E+01 0.  1.
         -4   -1    0    0    0  501 -0.00000000000E+00 -0.00000000000E+00 -0.36382812654E+02  0.36404971592E+02  0.12700000000E+01 0.  1.
         25    2    1    2    0    0  0.00000000000E+00  0.00000000000E+00  0.70928078189E+02  0.14372337725E+03  0.12500246755E+03 0.  0.
    9000005    1    3    3    0    0  0.10523342072E+02 -0.26682454127E+02 -0.28373358327E+02  0.40357670266E+02  0.10000000000E+01 0.  0.
    9000005    1    3    3    0    0 -0.10523342072E+02  0.26682454127E+02  0.99301436515E+02  0.10336570699E+03  0.10000000000E+01 0.  0.
<mgrwt>
<rscale>  0 0.12500247E+03</rscale>
<asrwt>0</asrwt>
<pdfrwt beam="1">  1        4 0.16511650E-01 0.12500247E+03</pdfrwt>
<pdfrwt beam="2">  1       -4 0.55996384E-02 0.12500247E+03</pdfrwt>
<totfact> 0.10056432E+04</totfact>
</mgrwt>
</event>
<event>
 5    1  0.3284464E-002  0.1250006E+03  0.7818608E-02  0.1235068E+00
          4   -1    0    0  501    0  0.00000000000E+00  0.00000000000E+00  0.26486941573E+02  0.26517371172E+02  0.12700000000E+01 0. -1.
         -4   -1    0    0    0  501 -0.00000000000E+00 -0.00000000000E+00 -0.14736188804E+03  0.14736736052E+03  0.12700000000E+01 0. -1.
         25    2    1    2    0    0  0.00000000000E+00  0.00000000000E+00 -0.12087494647E+03  0.17388473169E+03  0.12500058893E+03 0.  0.
    9000005    1    3    3    0    0 -0.26558832529E+02  0.12079494588E+02 -0.13731226993E+03  0.14038142772E+03  0.10000000000E+01 0.  0.
    9000005    1    3    3    0    0  0.26558832529E+02 -0.12079494588E+02  0.16437323461E+02  0.33503303976E+02  0.10000000000E+01 0.  0.
<mgrwt>
<rscale>  0 0.12500059E+03</rscale>
<asrwt>0</asrwt>
<pdfrwt beam="1">  1        4 0.40776759E-02 0.12500059E+03</pdfrwt>
<pdfrwt beam="2">  1       -4 0.22673821E-01 0.12500059E+03</pdfrwt>
<totfact> 0.94728246E+03</totfact>
</mgrwt>
</event>
<event>
 5    1  0.3284464E-002  0.1249991E+03  0.7818608E-02  0.1235071E+00
         -4   -1    0    0    0  501 -0.00000000000E+00  0.00000000000E+00  0.11008844421E+02  0.11081857042E+02  0.12700000000E+01 0. -1.
          4   -1    0    0  501    0  0.00000000000E+00 -0.00000000000E+00 -0.35357650178E+03  0.35357878261E+03  0.12700000000E+01 0. -1.
         25    2    1    2    0    0  0.00000000000E+00  0.00000000000E+00 -0.34256765736E+03  0.36466063965E+03  0.12499912897E+03 0.  0.
    9000005    1    3    3    0    0 -0.32846090859E+01 -0.62112997704E+02 -0.18888038541E+03  0.19886078832E+03  0.10000000000E+01 0.  0.
    9000005    1    3    3    0    0  0.32846090859E+01  0.62112997704E+02 -0.15368727195E+03  0.16579985133E+03  0.10000000000E+01 0.  0.
<mgrwt>
<rscale>  0 0.12499913E+03</rscale>
<asrwt>0</asrwt>
<pdfrwt beam="2">  1        4 0.54402168E-01 0.12499913E+03</pdfrwt>
<pdfrwt beam="1">  1       -4 0.16994604E-02 0.12499913E+03</pdfrwt>
<totfact> 0.68142574E+03</totfact>
</mgrwt>
</event>
<event>
 5    1  0.3284464E-002  0.1250011E+03  0.7818608E-02  0.1235068E+00
         -4   -1    0    0    0  501 -0.00000000000E+00  0.00000000000E+00  0.21919826095E+01  0.25333155667E+01  0.12700000000E+01 0.  1.
          4   -1    0    0  501    0  0.00000000000E+00 -0.00000000000E+00 -0.16530212710E+04  0.16530217589E+04  0.12700000000E+01 0.  1.
         25    2    1    2    0    0  0.00000000000E+00  0.00000000000E+00 -0.16508292884E+04  0.16555550744E+04  0.12500106026E+03 0.  0.
    9000005    1    3    3    0    0 -0.36719965762E+02 -0.23641737216E+02 -0.23340226116E+03  0.23745505499E+03  0.10000000000E+01 0.  0.
    9000005    1    3    3    0    0  0.36719965762E+02  0.23641737216E+02 -0.14174270272E+04  0.14181000195E+04  0.10000000000E+01 0.  0.
<mgrwt>
<rscale>  0 0.12500106E+03</rscale>
<asrwt>0</asrwt>
<pdfrwt beam="2">  1        4 0.25433633E+00 0.12500106E+03</pdfrwt>
<pdfrwt beam="1">  1       -4 0.36352332E-03 0.12500106E+03</pdfrwt>
<totfact> 0.15062828E+03</totfact>
</mgrwt>
</event>
<event>
 5    1  0.3284464E-002  0.1250007E+03  0.7818608E-02  0.1235068E+00
         -4   -1    0    0    0  501 -0.00000000000E+00  0.00000000000E+00  0.16749893525E+03  0.16750374984E+03  0.12700000000E+01 0. -1.
          4   -1    0    0  501    0  0.00000000000E+00 -0.00000000000E+00 -0.23298868784E+02  0.23333456379E+02  0.12700000000E+01 0. -1.
         25    2    1    2    0    0  0.00000000000E+00  0.00000000000E+00  0.14420006647E+03  0.19083720622E+03  0.12500072043E+03 0.  0.
    9000005    1    3    3    0    0  0.51619214963E+02  0.27163296279E+02  0.37863137661E+02  0.69548581665E+02  0.10000000000E+01 0.  0.
    9000005    1    3    3    0    0 -0.51619214963E+02 -0.27163296279E+02  0.10633692881E+03  0.12128862455E+03  0.10000000000E+01 0.  0.
<mgrwt>
<rscale>  0 0.12500072E+03</rscale>
<asrwt>0</asrwt>
<pdfrwt beam="2">  1        4 0.35874725E-02 0.12500072E+03</pdfrwt>
<pdfrwt beam="1">  1       -4 0.25772097E-01 0.12500072E+03</pdfrwt>
<totfact> 0.91700368E+03</totfact>
</mgrwt>
</event>
<event>
 5    1  0.3284464E-002  0.1249971E+03  0.7818608E-02  0.1235074E+00
         -4   -1    0    0    0  501 -0.00000000000E+00  0.00000000000E+00  0.38977024921E+01  0.40993883345E+01  0.12700000000E+01 0.  1.
          4   -1    0    0  501    0  0.00000000000E+00 -0.00000000000E+00 -0.97667091373E+03  0.97667173944E+03  0.12700000000E+01 0.  1.
         25    2    1    2    0    0  0.00000000000E+00  0.00000000000E+00 -0.97277321124E+03  0.98077112778E+03  0.12499713828E+03 0.  0.
    9000005    1    3    3    0    0  0.28235774681E+02 -0.13889472601E+02 -0.62764085726E+02  0.70217568158E+02  0.10000000000E+01 0.  0.
    9000005    1    3    3    0    0 -0.28235774681E+02  0.13889472601E+02 -0.91000912551E+03  0.91055355962E+03  0.10000000000E+01 0.  0.
<mgrwt>
<rscale>  0 0.12499714E+03</rscale>
<asrwt>0</asrwt>
<pdfrwt beam="2">  1        4 0.15027245E+00 0.12499714E+03</pdfrwt>
<pdfrwt beam="1">  1       -4 0.61522513E-03 0.12499714E+03</pdfrwt>
<totfact> 0.31250033E+03</totfact>
</mgrwt>
</event>
<event>
 5    1  0.3284464E-002  0.1249967E+03  0.7818608E-02  0.1235074E+00
         -4   -1    0    0    0  501 -0.00000000000E+00  0.00000000000E+00  0.57104628250E+03  0.57104769473E+03  0.12700000000E+01 0. -1.
          4   -1    0    0  501    0  0.00000000000E+00 -0.00000000000E+00 -0.67797708770E+01  0.68976947704E+01  0.12700000000E+01 0. -1.
         25    2    1    2    0    0  0.00000000000E+00  0.00000000000E+00  0.56426651162E+03  0.57794538950E+03  0.12499670838E+03 0.  0.
    9000005    1    3    3    0    0  0.50644235950E+02 -0.23166253694E+01  0.11320486219E+03  0.12404251776E+03  0.10000000000E+01 0.  0.
    9000005    1    3    3    0    0 -0.50644235950E+02  0.23166253694E+01  0.45106164943E+03  0.45390287174E+03  0.10000000000E+01 0.  0.
<mgrwt>
<rscale>  0 0.12499671E+03</rscale>
<asrwt>0</asrwt>
<pdfrwt beam="2">  1        4 0.10522216E-02 0.12499671E+03</pdfrwt>
<pdfrwt beam="1">  1       -4 0.87862437E-01 0.12499671E+03</pdfrwt>
<totfact> 0.50293664E+03</totfact>
</mgrwt>
</event>
<event>
 5    1  0.3284464E-002  0.1249613E+03  0.7818608E-02  0.1235130E+00
         -4   -1    0    0    0  501 -0.00000000000E+00  0.00000000000E+00  0.51310842703E+02  0.51326557247E+02  0.12700000000E+01 0.  1.
          4   -1    0    0  501    0  0.00000000000E+00 -0.00000000000E+00 -0.76049289907E+02  0.76059893475E+02  0.12700000000E+01 0.  1.
         25    2    1    2    0    0  0.00000000000E+00  0.00000000000E+00 -0.24738447204E+02  0.12738645072E+03  0.12496126223E+03 0.  0.
    9000005    1    3    3    0    0  0.13056113713E+02 -0.37148468092E+02  0.37073181249E+02  0.54091510931E+02  0.10000000000E+01 0.  0.
    9000005    1    3    3    0    0 -0.13056113713E+02  0.37148468092E+02 -0.61811628454E+02  0.73294939791E+02  0.10000000000E+01 0.  0.
<mgrwt>
<rscale>  0 0.12496126E+03</rscale>
<asrwt>0</asrwt>
<pdfrwt beam="2">  1        4 0.11701915E-01 0.12496126E+03</pdfrwt>
<pdfrwt beam="1">  1       -4 0.78960002E-02 0.12496126E+03</pdfrwt>
<totfact> 0.10409861E+04</totfact>
</mgrwt>
</event>
<event>
 5    1  0.3284464E-002  0.1250004E+03  0.7818608E-02  0.1235069E+00
         -4   -1    0    0    0  501 -0.00000000000E+00  0.00000000000E+00  0.37949085769E+02  0.37970330664E+02  0.12700000000E+01 0. -1.
          4   -1    0    0  501    0  0.00000000000E+00 -0.00000000000E+00 -0.10288067689E+03  0.10288851529E+03  0.12700000000E+01 0. -1.
         25    2    1    2    0    0  0.00000000000E+00  0.00000000000E+00 -0.64931591123E+02  0.14085884595E+03  0.12500041183E+03 0.  0.
    9000005    1    3    3    0    0 -0.71831287920E+01  0.93632338464E+01 -0.10161916024E+03  0.10230699495E+03  0.10000000000E+01 0.  0.
    9000005    1    3    3    0    0  0.71831287920E+01 -0.93632338464E+01  0.36687569121E+02  0.38551850998E+02  0.10000000000E+01 0.  0.
<mgrwt>
<rscale>  0 0.12500041E+03</rscale>
<asrwt>0</asrwt>
<pdfrwt beam="2">  1        4 0.15830034E-01 0.12500041E+03</pdfrwt>
<pdfrwt beam="1">  1       -4 0.58405581E-02 0.12500041E+03</pdfrwt>
<totfact> 0.10115723E+04</totfact>
</mgrwt>
</event>
<event>
 5    1  0.3284464E-002  0.1250080E+03  0.7818608E-02  0.1235057E+00
         -4   -1    0    0    0  501 -0.00000000000E+00  0.00000000000E+00  0.44259417477E+02  0.44277634709E+02  0.12700000000E+01 0.  1.
          4   -1    0    0  501    0  0.00000000000E+00 -0.00000000000E+00 -0.88228384573E+02  0.88237524582E+02  0.12700000000E+01 0.  1.
         25    2    1    2    0    0  0.00000000000E+00  0.00000000000E+00 -0.43968967096E+02  0.13251515929E+03  0.12500798924E+03 0.  0.
    9000005    1    3    3    0    0  0.10124684557E+02  0.60839796764E+02 -0.32677856454E+02  0.69805676059E+02  0.10000000000E+01 0.  0.
    9000005    1    3    3    0    0 -0.10124684557E+02 -0.60839796764E+02 -0.11291110642E+02  0.62709483231E+02  0.10000000000E+01 0.  0.
<mgrwt>
<rscale>  0 0.12500799E+03</rscale>
<asrwt>0</asrwt>
<pdfrwt beam="2">  1        4 0.13575702E-01 0.12500799E+03</pdfrwt>
<pdfrwt beam="1">  1       -4 0.68112456E-02 0.12500799E+03</pdfrwt>
<totfact> 0.10288861E+04</totfact>
</mgrwt>
</event>
<event>
 5    1  0.3284464E-002  0.1249953E+03  0.7818608E-02  0.1235077E+00
          4   -1    0    0  501    0  0.00000000000E+00  0.00000000000E+00  0.51337760634E+02  0.51353466942E+02  0.12700000000E+01 0. -1.
         -4   -1    0    0    0  501 -0.00000000000E+00 -0.00000000000E+00 -0.76050837575E+02  0.76061440927E+02  0.12700000000E+01 0. -1.
         25    2    1    2    0    0  0.00000000000E+00  0.00000000000E+00 -0.24713076941E+02  0.12741490787E+03  0.12499529021E+03 0.  0.
    9000005    1    3    3    0    0  0.98935925558E+01 -0.51156544908E+02  0.22808795277E+02  0.56886873728E+02  0.10000000000E+01 0.  0.
    9000005    1    3    3    0    0 -0.98935925558E+01  0.51156544908E+02 -0.47521872218E+02  0.70528034140E+02  0.10000000000E+01 0.  0.
<mgrwt>
<rscale>  0 0.12499529E+03</rscale>
<asrwt>0</asrwt>
<pdfrwt beam="1">  1        4 0.79001409E-02 0.12499529E+03</pdfrwt>
<pdfrwt beam="2">  1       -4 0.11702153E-01 0.12499529E+03</pdfrwt>
<totfact> 0.10401250E+04</totfact>
</mgrwt>
</event>
<event>
 5    1  0.3284464E-002  0.1250012E+03  0.7818608E-02  0.1235067E+00
         -4   -1    0    0    0  501 -0.00000000000E+00  0.00000000000E+00  0.86528816391E+02  0.86538135905E+02  0.12700000000E+01 0. -1.
          4   -1    0    0  501    0  0.00000000000E+00 -0.00000000000E+00 -0.45124104843E+02  0.45141973128E+02  0.12700000000E+01 0. -1.
         25    2    1    2    0    0  0.00000000000E+00  0.00000000000E+00  0.41404711547E+02  0.13168010903E+03  0.12500120390E+03 0.  0.
    9000005    1    3    3    0    0  0.58477088183E+02 -0.48165823155E+01  0.43358610107E+02  0.72963952593E+02  0.10000000000E+01 0.  0.
    9000005    1    3    3    0    0 -0.58477088183E+02  0.48165823155E+01 -0.19538985595E+01  0.58716156440E+02  0.10000000000E+01 0.  0.
<mgrwt>
<rscale>  0 0.12500120E+03</rscale>
<asrwt>0</asrwt>
<pdfrwt beam="2">  1        4 0.69442614E-02 0.12500120E+03</pdfrwt>
<pdfrwt beam="1">  1       -4 0.13314217E-01 0.12500120E+03</pdfrwt>
<totfact> 0.10308251E+04</totfact>
</mgrwt>
</event>
<event>
 5    1  0.3284464E-002  0.1250017E+03  0.7818608E-02  0.1235067E+00
          4   -1    0    0  501    0  0.00000000000E+00  0.00000000000E+00  0.22552701262E+03  0.22553058844E+03  0.12700000000E+01 0. -1.
         -4   -1    0    0    0  501 -0.00000000000E+00 -0.00000000000E+00 -0.17294007760E+02  0.17340576818E+02  0.12700000000E+01 0. -1.
         25    2    1    2    0    0  0.00000000000E+00  0.00000000000E+00  0.20823300486E+03  0.24287116526E+03  0.12500167439E+03 0.  0.
    9000005    1    3    3    0    0 -0.45008902772E+02 -0.43211084176E+02  0.11094603120E+03  0.12729108753E+03  0.10000000000E+01 0.  0.
    9000005    1    3    3    0    0  0.45008902772E+02  0.43211084176E+02  0.97286973660E+02  0.11558007773E+03  0.10000000000E+01 0.  0.
<mgrwt>
<rscale>  0 0.12500167E+03</rscale>
<asrwt>0</asrwt>
<pdfrwt beam="1">  1        4 0.34700316E-01 0.12500167E+03</pdfrwt>
<pdfrwt beam="2">  1       -4 0.26644742E-02 0.12500167E+03</pdfrwt>
<totfact> 0.83368500E+03</totfact>
</mgrwt>
</event>
<event>
 5    1  0.3284464E-002  0.1250056E+03  0.7818608E-02  0.1235061E+00
         -4   -1    0    0    0  501 -0.00000000000E+00  0.00000000000E+00  0.15370044032E+03  0.15370568712E+03  0.12700000000E+01 0. -1.
          4   -1    0    0  501    0  0.00000000000E+00 -0.00000000000E+00 -0.25395421317E+02  0.25427157212E+02  0.12700000000E+01 0. -1.
         25    2    1    2    0    0  0.00000000000E+00  0.00000000000E+00  0.12830501900E+03  0.17913284434E+03  0.12500559195E+03 0.  0.
    9000005    1    3    3    0    0 -0.53765770187E+02  0.30054115153E+02  0.79290268206E+02  0.10040893642E+03  0.10000000000E+01 0.  0.
    9000005    1    3    3    0    0  0.53765770187E+02 -0.30054115153E+02  0.49014750796E+02  0.78723907913E+02  0.10000000000E+01 0.  0.
<mgrwt>
<rscale>  0 0.12500559E+03</rscale>
<asrwt>0</asrwt>
<pdfrwt beam="2">  1        4 0.39098328E-02 0.12500559E+03</pdfrwt>
<pdfrwt beam="1">  1       -4 0.23649066E-01 0.12500559E+03</pdfrwt>
<totfact> 0.93761570E+03</totfact>
</mgrwt>
</event>
<event>
 5    1  0.3284464E-002  0.1250011E+03  0.7818608E-02  0.1235068E+00
         -4   -1    0    0    0  501 -0.00000000000E+00  0.00000000000E+00  0.14823485853E+03  0.14824029879E+03  0.12700000000E+01 0.  1.
          4   -1    0    0  501    0  0.00000000000E+00 -0.00000000000E+00 -0.26330995227E+02  0.26361604838E+02  0.12700000000E+01 0.  1.
         25    2    1    2    0    0  0.00000000000E+00  0.00000000000E+00  0.12190386331E+03  0.17460190362E+03  0.12500109144E+03 0.  0.
    9000005    1    3    3    0    0  0.47659585482E+02 -0.98344475930E+01  0.61878863063E+01  0.49065694581E+02  0.10000000000E+01 0.  0.
    9000005    1    3    3    0    0 -0.47659585482E+02  0.98344475930E+01  0.11571597700E+03  0.12553620904E+03  0.10000000000E+01 0.  0.
<mgrwt>
<rscale>  0 0.12500109E+03</rscale>
<asrwt>0</asrwt>
<pdfrwt beam="2">  1        4 0.40536954E-02 0.12500109E+03</pdfrwt>
<pdfrwt beam="1">  1       -4 0.22808136E-01 0.12500109E+03</pdfrwt>
<totfact> 0.94595485E+03</totfact>
</mgrwt>
</event>
<event>
 5    1  0.3284464E-002  0.1249990E+03  0.7818608E-02  0.1235071E+00
         -4   -1    0    0    0  501 -0.00000000000E+00  0.00000000000E+00  0.29645853254E+02  0.29673043578E+02  0.12700000000E+01 0.  1.
          4   -1    0    0  501    0  0.00000000000E+00 -0.00000000000E+00 -0.13167094185E+03  0.13167706645E+03  0.12700000000E+01 0.  1.
         25    2    1    2    0    0  0.00000000000E+00  0.00000000000E+00 -0.10202508860E+03  0.16135011003E+03  0.12499895720E+03 0.  0.
    9000005    1    3    3    0    0 -0.59966216782E+02 -0.14559783452E+02 -0.38283127092E+02  0.72625975169E+02  0.10000000000E+01 0.  0.
    9000005    1    3    3    0    0  0.59966216782E+02  0.14559783452E+02 -0.63741961507E+02  0.88724134857E+02  0.10000000000E+01 0.  0.
<mgrwt>
<rscale>  0 0.12499896E+03</rscale>
<asrwt>0</asrwt>
<pdfrwt beam="2">  1        4 0.20259630E-01 0.12499896E+03</pdfrwt>
<pdfrwt beam="1">  1       -4 0.45634633E-02 0.12499896E+03</pdfrwt>
<totfact> 0.97085400E+03</totfact>
</mgrwt>
</event>
<event>
 5    1  0.3284464E-002  0.1249992E+03  0.7818608E-02  0.1235071E+00
          4   -1    0    0  501    0  0.00000000000E+00  0.00000000000E+00  0.51843145450E+03  0.51843301006E+03  0.12700000000E+01 0. -1.
         -4   -1    0    0    0  501 -0.00000000000E+00 -0.00000000000E+00 -0.74795589584E+01  0.75866133560E+01  0.12700000000E+01 0. -1.
         25    2    1    2    0    0  0.00000000000E+00  0.00000000000E+00  0.51095189554E+03  0.52601962341E+03  0.12499921862E+03 0.  0.
    9000005    1    3    3    0    0  0.79478035660E+01  0.20665703538E+02  0.50139241051E+03  0.50188204610E+03  0.10000000000E+01 0.  0.
    9000005    1    3    3    0    0 -0.79478035660E+01 -0.20665703538E+02  0.95594850327E+01  0.24137577309E+02  0.10000000000E+01 0.  0.
<mgrwt>
<rscale>  0 0.12499922E+03</rscale>
<asrwt>0</asrwt>
<pdfrwt beam="1">  1        4 0.79767035E-01 0.12499922E+03</pdfrwt>
<pdfrwt beam="2">  1       -4 0.11590561E-02 0.12499922E+03</pdfrwt>
<totfact> 0.53901533E+03</totfact>
</mgrwt>
</event>
<event>
 5    1  0.3284464E-002  0.1249998E+03  0.7818608E-02  0.1235070E+00
          4   -1    0    0  501    0  0.00000000000E+00  0.00000000000E+00  0.85247473786E+02  0.85256933366E+02  0.12700000000E+01 0.  1.
         -4   -1    0    0    0  501 -0.00000000000E+00 -0.00000000000E+00 -0.45801521785E+02  0.45819125896E+02  0.12700000000E+01 0.  1.
         25    2    1    2    0    0  0.00000000000E+00  0.00000000000E+00  0.39445952001E+02  0.13107605926E+03  0.12499980073E+03 0.  0.
    9000005    1    3    3    0    0 -0.16181296405E+02  0.57855375652E+02  0.37768782790E+02  0.70968724087E+02  0.10000000000E+01 0.  0.
    9000005    1    3    3    0    0  0.16181296405E+02 -0.57855375652E+02  0.16771692113E+01  0.60107335174E+02  0.10000000000E+01 0.  0.
<mgrwt>
<rscale>  0 0.12499980E+03</rscale>
<asrwt>0</asrwt>
<pdfrwt beam="1">  1        4 0.13117078E-01 0.12499980E+03</pdfrwt>
<pdfrwt beam="2">  1       -4 0.70484699E-02 0.12499980E+03</pdfrwt>
<totfact> 0.10321505E+04</totfact>
</mgrwt>
</event>
<event>
 5    1  0.3284464E-002  0.1250144E+03  0.7818608E-02  0.1235047E+00
         -4   -1    0    0    0  501 -0.00000000000E+00  0.00000000000E+00  0.26408647664E+03  0.26408953035E+03  0.12700000000E+01 0. -1.
          4   -1    0    0  501    0  0.00000000000E+00 -0.00000000000E+00 -0.14764554307E+02  0.14819074326E+02  0.12700000000E+01 0. -1.
         25    2    1    2    0    0  0.00000000000E+00  0.00000000000E+00  0.24932192233E+03  0.27890860468E+03  0.12501435442E+03 0.  0.
    9000005    1    3    3    0    0 -0.50440230108E+02  0.18060627460E+02  0.52860328702E+02  0.75270295788E+02  0.10000000000E+01 0.  0.
    9000005    1    3    3    0    0  0.50440230108E+02 -0.18060627460E+02  0.19646159363E+03  0.20363830889E+03  0.10000000000E+01 0.  0.
<mgrwt>
<rscale>  0 0.12501435E+03</rscale>
<asrwt>0</asrwt>
<pdfrwt beam="2">  1        4 0.22758985E-02 0.12501435E+03</pdfrwt>
<pdfrwt beam="1">  1       -4 0.40633120E-01 0.12501435E+03</pdfrwt>
<totfact> 0.78298048E+03</totfact>
</mgrwt>
</event>
<event>
 5    1  0.3284464E-002  0.1250019E+03  0.7818608E-02  0.1235066E+00
         -4   -1    0    0    0  501 -0.00000000000E+00  0.00000000000E+00  0.56863473510E+02  0.56877653957E+02  0.12700000000E+01 0. -1.
          4   -1    0    0  501    0  0.00000000000E+00 -0.00000000000E+00 -0.68668745633E+02  0.68680488690E+02  0.12700000000E+01 0. -1.
         25    2    1    2    0    0  0.00000000000E+00  0.00000000000E+00 -0.11805272122E+02  0.12555814265E+03  0.12500193093E+03 0.  0.
    9000005    1    3    3    0    0 -0.56098777744E+02  0.25811933454E+02 -0.15539172634E+02  0.63685121176E+02  0.10000000000E+01 0.  0.
    9000005    1    3    3    0    0  0.56098777744E+02 -0.25811933454E+02  0.37339005119E+01  0.61873021472E+02  0.10000000000E+01 0.  0.
<mgrwt>
<rscale>  0 0.12500193E+03</rscale>
<asrwt>0</asrwt>
<pdfrwt beam="2">  1        4 0.10566417E-01 0.12500193E+03</pdfrwt>
<pdfrwt beam="1">  1       -4 0.87502208E-02 0.12500193E+03</pdfrwt>
<totfact> 0.10440215E+04</totfact>
</mgrwt>
</event>
<event>
 5    1  0.3284464E-002  0.1250010E+03  0.7818608E-02  0.1235068E+00
         -4   -1    0    0    0  501 -0.00000000000E+00  0.00000000000E+00  0.16051897574E+03  0.16052399968E+03  0.12700000000E+01 0. -1.
          4   -1    0    0  501    0  0.00000000000E+00 -0.00000000000E+00 -0.24313539351E+02  0.24346685519E+02  0.12700000000E+01 0. -1.
         25    2    1    2    0    0  0.00000000000E+00  0.00000000000E+00  0.13620543639E+03  0.18487068520E+03  0.12500099737E+03 0.  0.
    9000005    1    3    3    0    0  0.82783307257E+01  0.49304884157E+02  0.12355480352E+03  0.13329025409E+03  0.10000000000E+01 0.  0.
    9000005    1    3    3    0    0 -0.82783307257E+01 -0.49304884157E+02  0.12650632865E+02  0.51580431108E+02  0.10000000000E+01 0.  0.
<mgrwt>
<rscale>  0 0.12500100E+03</rscale>
<asrwt>0</asrwt>
<pdfrwt beam="2">  1        4 0.37434806E-02 0.12500100E+03</pdfrwt>
<pdfrwt beam="1">  1       -4 0.24698164E-01 0.12500100E+03</pdfrwt>
<totfact> 0.92745465E+03</totfact>
</mgrwt>
</event>
<event>
 5    1  0.3284464E-002  0.1250047E+03  0.7818608E-02  0.1235062E+00
          4   -1    0    0  501    0  0.00000000000E+00  0.00000000000E+00  0.11724785668E+03  0.11725473464E+03  0.12700000000E+01 0. -1.
         -4   -1    0    0    0  501 -0.00000000000E+00 -0.00000000000E+00 -0.33298707742E+02  0.33322917599E+02  0.12700000000E+01 0. -1.
         25    2    1    2    0    0  0.00000000000E+00  0.00000000000E+00  0.83949148938E+02  0.15057765224E+03  0.12500467890E+03 0.  0.
    9000005    1    3    3    0    0  0.24857370499E+02 -0.85747161191E+01  0.11026594428E+03  0.11336222074E+03  0.10000000000E+01 0.  0.
    9000005    1    3    3    0    0 -0.24857370499E+02  0.85747161191E+01 -0.26316795339E+02  0.37215431498E+02  0.10000000000E+01 0.  0.
<mgrwt>
<rscale>  0 0.12500468E+03</rscale>
<asrwt>0</asrwt>
<pdfrwt beam="1">  1        4 0.18040523E-01 0.12500468E+03</pdfrwt>
<pdfrwt beam="2">  1       -4 0.51252694E-02 0.12500468E+03</pdfrwt>
<totfact> 0.99178233E+03</totfact>
</mgrwt>
</event>
<event>
 5    1  0.3284464E-002  0.1250012E+03  0.7818608E-02  0.1235067E+00
          4   -1    0    0  501    0  0.00000000000E+00  0.00000000000E+00  0.30435765376E+02  0.30462250639E+02  0.12700000000E+01 0. -1.
         -4   -1    0    0    0  501 -0.00000000000E+00 -0.00000000000E+00 -0.12826117862E+03  0.12826746603E+03  0.12700000000E+01 0. -1.
         25    2    1    2    0    0  0.00000000000E+00  0.00000000000E+00 -0.97825413247E+02  0.15872971667E+03  0.12500124590E+03 0.  0.
    9000005    1    3    3    0    0  0.36494651890E+02  0.50707960531E+02 -0.47041710223E+02  0.78211759848E+02  0.10000000000E+01 0.  0.
    9000005    1    3    3    0    0 -0.36494651890E+02 -0.50707960531E+02 -0.50783703024E+02  0.80517956821E+02  0.10000000000E+01 0.  0.
<mgrwt>
<rscale>  0 0.12500125E+03</rscale>
<asrwt>0</asrwt>
<pdfrwt beam="1">  1        4 0.46849465E-02 0.12500125E+03</pdfrwt>
<pdfrwt beam="2">  1       -4 0.19735010E-01 0.12500125E+03</pdfrwt>
<totfact> 0.97585513E+03</totfact>
</mgrwt>
</event>
<event>
 5    1  0.3284464E-002  0.1250002E+03  0.7818608E-02  0.1235069E+00
         -4   -1    0    0    0  501 -0.00000000000E+00  0.00000000000E+00  0.11478624556E+03  0.11479327101E+03  0.12700000000E+01 0.  1.
          4   -1    0    0  501    0  0.00000000000E+00 -0.00000000000E+00 -0.34010820462E+02  0.34034523774E+02  0.12700000000E+01 0.  1.
         25    2    1    2    0    0  0.00000000000E+00  0.00000000000E+00  0.80775425094E+02  0.14882779478E+03  0.12500017280E+03 0.  0.
    9000005    1    3    3    0    0 -0.86667799584E+01  0.45214720933E+02 -0.99260752643E+01  0.47106379972E+02  0.10000000000E+01 0.  0.
    9000005    1    3    3    0    0  0.86667799584E+01 -0.45214720933E+02  0.90701500358E+02  0.10172141481E+03  0.10000000000E+01 0.  0.
<mgrwt>
<rscale>  0 0.12500017E+03</rscale>
<asrwt>0</asrwt>
<pdfrwt beam="2">  1        4 0.52347976E-02 0.12500017E+03</pdfrwt>
<pdfrwt beam="1">  1       -4 0.17661786E-01 0.12500017E+03</pdfrwt>
<totfact> 0.99537487E+03</totfact>
</mgrwt>
</event>
<event>
 5    1  0.3284464E-002  0.1250031E+03  0.7818608E-02  0.1235064E+00
         -4   -1    0    0    0  501 -0.00000000000E+00  0.00000000000E+00  0.80845113961E+01  0.81836559381E+01  0.12700000000E+01 0. -1.
          4   -1    0    0  501    0  0.00000000000E+00 -0.00000000000E+00 -0.48015588890E+03  0.48015756845E+03  0.12700000000E+01 0. -1.
         25    2    1    2    0    0  0.00000000000E+00  0.00000000000E+00 -0.47207137750E+03  0.48834122439E+03  0.12500306390E+03 0.  0.
    9000005    1    3    3    0    0  0.45071027737E+02  0.32088161508E+02 -0.34955644078E+03  0.35390924393E+03  0.10000000000E+01 0.  0.
    9000005    1    3    3    0    0 -0.45071027737E+02 -0.32088161508E+02 -0.12251493672E+03  0.13443198046E+03  0.10000000000E+01 0.  0.
<mgrwt>
<rscale>  0 0.12500306E+03</rscale>
<asrwt>0</asrwt>
<pdfrwt beam="2">  1        4 0.73877870E-01 0.12500306E+03</pdfrwt>
<pdfrwt beam="1">  1       -4 0.12515271E-02 0.12500306E+03</pdfrwt>
<totfact> 0.56776611E+03</totfact>
</mgrwt>
</event>
<event>
 5    1  0.3284464E-002  0.1249975E+03  0.7818608E-02  0.1235073E+00
          4   -1    0    0  501    0  0.00000000000E+00  0.00000000000E+00  0.25028746494E+02  0.25060946731E+02  0.12700000000E+01 0. -1.
         -4   -1    0    0    0  501 -0.00000000000E+00 -0.00000000000E+00 -0.15592906829E+03  0.15593424010E+03  0.12700000000E+01 0. -1.
         25    2    1    2    0    0  0.00000000000E+00  0.00000000000E+00 -0.13090032179E+03  0.18099518684E+03  0.12499745362E+03 0.  0.
    9000005    1    3    3    0    0  0.47120724851E+02 -0.39587612494E+02 -0.49751034850E+02  0.79143586235E+02  0.10000000000E+01 0.  0.
    9000005    1    3    3    0    0 -0.47120724851E+02  0.39587612494E+02 -0.81149286943E+02  0.10185160060E+03  0.10000000000E+01 0.  0.
<mgrwt>
<rscale>  0 0.12499745E+03</rscale>
<asrwt>0</asrwt>
<pdfrwt beam="1">  1        4 0.38534513E-02 0.12499745E+03</pdfrwt>
<pdfrwt beam="2">  1       -4 0.23991961E-01 0.12499745E+03</pdfrwt>
<totfact> 0.93443507E+03</totfact>
</mgrwt>
</event>
<event>
 5    1  0.3284464E-002  0.1249875E+03  0.7818608E-02  0.1235089E+00
         -4   -1    0    0    0  501 -0.00000000000E+00  0.00000000000E+00  0.21775945328E+03  0.21776315665E+03  0.12700000000E+01 0. -1.
          4   -1    0    0  501    0  0.00000000000E+00 -0.00000000000E+00 -0.17908428005E+02  0.17953403399E+02  0.12700000000E+01 0. -1.
         25    2    1    2    0    0  0.00000000000E+00  0.00000000000E+00  0.19985102528E+03  0.23571656005E+03  0.12498745688E+03 0.  0.
    9000005    1    3    3    0    0 -0.27987343441E+01  0.13013359588E+02 -0.15212837447E+02  0.20238845443E+02  0.10000000000E+01 0.  0.
    9000005    1    3    3    0    0  0.27987343441E+01 -0.13013359588E+02  0.21506386272E+03  0.21547771460E+03  0.10000000000E+01 0.  0.
<mgrwt>
<rscale>  0 0.12498746E+03</rscale>
<asrwt>0</asrwt>
<pdfrwt beam="2">  1        4 0.27588872E-02 0.12498746E+03</pdfrwt>
<pdfrwt beam="1">  1       -4 0.33505200E-01 0.12498746E+03</pdfrwt>
<totfact> 0.84463096E+03</totfact>
</mgrwt>
</event>
<event>
 5    1  0.3284464E-002  0.1249997E+03  0.7818608E-02  0.1235070E+00
          4   -1    0    0  501    0  0.00000000000E+00  0.00000000000E+00  0.31892759235E+03  0.31893012097E+03  0.12700000000E+01 0. -1.
         -4   -1    0    0    0  501 -0.00000000000E+00 -0.00000000000E+00 -0.12212517248E+02  0.12278374385E+02  0.12700000000E+01 0. -1.
         25    2    1    2    0    0  0.00000000000E+00  0.00000000000E+00  0.30671507510E+03  0.33120849536E+03  0.12499972040E+03 0.  0.
    9000005    1    3    3    0    0  0.12062582266E+02  0.35923527225E+02  0.21691756601E+02  0.43675370675E+02  0.10000000000E+01 0.  0.
    9000005    1    3    3    0    0 -0.12062582266E+02 -0.35923527225E+02  0.28502331850E+03  0.28753312468E+03  0.10000000000E+01 0.  0.
<mgrwt>
<rscale>  0 0.12499972E+03</rscale>
<asrwt>0</asrwt>
<pdfrwt beam="1">  1        4 0.49071040E-01 0.12499972E+03</pdfrwt>
<pdfrwt beam="2">  1       -4 0.18841094E-02 0.12499972E+03</pdfrwt>
<totfact> 0.71843006E+03</totfact>
</mgrwt>
</event>
<event>
 5    1  0.3284464E-002  0.1250018E+03  0.7818608E-02  0.1235066E+00
          4   -1    0    0  501    0  0.00000000000E+00  0.00000000000E+00  0.32028290931E+02  0.32053460343E+02  0.12700000000E+01 0. -1.
         -4   -1    0    0    0  501 -0.00000000000E+00 -0.00000000000E+00 -0.12188958196E+03  0.12189619801E+03  0.12700000000E+01 0. -1.
         25    2    1    2    0    0  0.00000000000E+00  0.00000000000E+00 -0.89861291027E+02  0.15394965835E+03  0.12500178272E+03 0.  0.
    9000005    1    3    3    0    0  0.57758782383E+02 -0.23858271382E+02 -0.45250299032E+02  0.77161412754E+02  0.10000000000E+01 0.  0.
    9000005    1    3    3    0    0 -0.57758782383E+02  0.23858271382E+02 -0.44610991994E+02  0.76788245601E+02  0.10000000000E+01 0.  0.
<mgrwt>
<rscale>  0 0.12500178E+03</rscale>
<asrwt>0</asrwt>
<pdfrwt beam="1">  1        4 0.49298745E-02 0.12500178E+03</pdfrwt>
<pdfrwt beam="2">  1       -4 0.18754688E-01 0.12500178E+03</pdfrwt>
<totfact> 0.98518139E+03</totfact>
</mgrwt>
</event>
<event>
 5    1  0.3284464E-002  0.1250124E+03  0.7818608E-02  0.1235050E+00
         -4   -1    0    0    0  501 -0.00000000000E+00  0.00000000000E+00  0.16168519584E+03  0.16169018354E+03  0.12700000000E+01 0.  1.
          4   -1    0    0  501    0  0.00000000000E+00 -0.00000000000E+00 -0.24142350366E+02  0.24175731244E+02  0.12700000000E+01 0.  1.
         25    2    1    2    0    0  0.00000000000E+00  0.00000000000E+00  0.13754284547E+03  0.18586591478E+03  0.12501241514E+03 0.  0.
    9000005    1    3    3    0    0 -0.37431150851E+02 -0.20518111749E+02  0.89961384169E+00  0.42707063454E+02  0.10000000000E+01 0.  0.
    9000005    1    3    3    0    0  0.37431150851E+02  0.20518111749E+02  0.13664323163E+03  0.14315885133E+03  0.10000000000E+01 0.  0.
<mgrwt>
<rscale>  0 0.12501242E+03</rscale>
<asrwt>0</asrwt>
<pdfrwt beam="2">  1        4 0.37171591E-02 0.12501242E+03</pdfrwt>
<pdfrwt beam="1">  1       -4 0.24877598E-01 0.12501242E+03</pdfrwt>
<totfact> 0.92545899E+03</totfact>
</mgrwt>
</event>
<event>
 5    1  0.3284464E-002  0.1250031E+03  0.7818608E-02  0.1235064E+00
          4   -1    0    0  501    0  0.00000000000E+00  0.00000000000E+00  0.96908636254E+01  0.97737269148E+01  0.12700000000E+01 0. -1.
         -4   -1    0    0    0  501 -0.00000000000E+00 -0.00000000000E+00 -0.40130579242E+03  0.40130780198E+03  0.12700000000E+01 0. -1.
         25    2    1    2    0    0  0.00000000000E+00  0.00000000000E+00 -0.39161492879E+03  0.41108152889E+03  0.12500308374E+03 0.  0.
    9000005    1    3    3    0    0 -0.39344404390E+02 -0.17012163868E+01 -0.35538167739E+03  0.35755840491E+03  0.10000000000E+01 0.  0.
    9000005    1    3    3    0    0  0.39344404390E+02  0.17012163868E+01 -0.36233251400E+02  0.53523123984E+02  0.10000000000E+01 0.  0.
<mgrwt>
<rscale>  0 0.12500308E+03</rscale>
<asrwt>0</asrwt>
<pdfrwt beam="1">  1        4 0.14974311E-02 0.12500308E+03</pdfrwt>
<pdfrwt beam="2">  1       -4 0.61745869E-01 0.12500308E+03</pdfrwt>
<totfact> 0.63484782E+03</totfact>
</mgrwt>
</event>
<event>
 5    1  0.3284464E-002  0.1250049E+03  0.7818608E-02  0.1235062E+00
          4   -1    0    0  501    0  0.00000000000E+00  0.00000000000E+00  0.14121547776E+03  0.14122118842E+03  0.12700000000E+01 0.  1.
         -4   -1    0    0    0  501 -0.00000000000E+00 -0.00000000000E+00 -0.27642967058E+02  0.27672125466E+02  0.12700000000E+01 0.  1.
         25    2    1    2    0    0  0.00000000000E+00  0.00000000000E+00  0.11357251070E+03  0.16889331389E+03  0.12500494506E+03 0.  0.
    9000005    1    3    3    0    0  0.30448123951E+02  0.47876624209E+02  0.21391235518E+02  0.60645233570E+02  0.10000000000E+01 0.  0.
    9000005    1    3    3    0    0 -0.30448123951E+02 -0.47876624209E+02  0.92181275187E+02  0.10824808032E+03  0.10000000000E+01 0.  0.
<mgrwt>
<rscale>  0 0.12500495E+03</rscale>
<asrwt>0</asrwt>
<pdfrwt beam="1">  1        4 0.21728141E-01 0.12500495E+03</pdfrwt>
<pdfrwt beam="2">  1       -4 0.42554463E-02 0.12500495E+03</pdfrwt>
<totfact> 0.95644477E+03</totfact>
</mgrwt>
</event>
<event>
 5    1  0.3284464E-002  0.1250021E+03  0.7818608E-02  0.1235066E+00
         -4   -1    0    0    0  501 -0.00000000000E+00  0.00000000000E+00  0.16235785071E+02  0.16285380465E+02  0.12700000000E+01 0.  1.
          4   -1    0    0  501    0  0.00000000000E+00 -0.00000000000E+00 -0.24018514759E+03  0.24018850518E+03  0.12700000000E+01 0.  1.
         25    2    1    2    0    0  0.00000000000E+00  0.00000000000E+00 -0.22394936252E+03  0.25647388565E+03  0.12500214817E+03 0.  0.
    9000005    1    3    3    0    0  0.86733382694E+01 -0.31396121606E+02 -0.22140159259E+03  0.22378697114E+03  0.10000000000E+01 0.  0.
    9000005    1    3    3    0    0 -0.86733382694E+01  0.31396121606E+02 -0.25477699257E+01  0.32686914510E+02  0.10000000000E+01 0.  0.
<mgrwt>
<rscale>  0 0.12500215E+03</rscale>
<asrwt>0</asrwt>
<pdfrwt beam="2">  1        4 0.36955632E-01 0.12500215E+03</pdfrwt>
<pdfrwt beam="1">  1       -4 0.25018866E-02 0.12500215E+03</pdfrwt>
<totfact> 0.81399569E+03</totfact>
</mgrwt>
</event>
<event>
 4    1  0.3284464E-002  0.1250749E+03  0.7818608E-02  0.1234952E+00
          4   -1    0    0  501    0  0.00000000000E+00  0.00000000000E+00  0.97288322623E+02  0.97296611549E+02  0.12700000000E+01 0.  1.
         -4   -1    0    0    0  501 -0.00000000000E+00 -0.00000000000E+00 -0.40179398964E+02  0.40199465184E+02  0.12700000000E+01 0.  1.
    9000005    1    1    2    0    0  0.53501361344E+02 -0.12978277237E+02  0.61148648460E+02  0.82286016760E+02  0.10000000000E+01 0.  0.
    9000005    1    1    2    0    0 -0.53501361344E+02  0.12978277237E+02 -0.40397248006E+01  0.55210059972E+02  0.10000000000E+01 0.  0.
<mgrwt>
<rscale>  0 0.12507495E+03</rscale>
<asrwt>0</asrwt>
<pdfrwt beam="1">  1        4 0.14969615E-01 0.12507495E+03</pdfrwt>
<pdfrwt beam="2">  1       -4 0.61836271E-02 0.12507495E+03</pdfrwt>
<totfact> 0.10168532E+04</totfact>
</mgrwt>
</event>
<event>
 5    1  0.3284464E-002  0.1250045E+03  0.7818608E-02  0.1235062E+00
         -4   -1    0    0    0  501 -0.00000000000E+00  0.00000000000E+00  0.84005767158E+03  0.84005863157E+03  0.12700000000E+01 0.  1.
          4   -1    0    0  501    0  0.00000000000E+00 -0.00000000000E+00 -0.45626224957E+01  0.47360768616E+01  0.12700000000E+01 0.  1.
         25    2    1    2    0    0  0.00000000000E+00  0.00000000000E+00  0.83549504908E+03  0.84479470843E+03  0.12500448934E+03 0.  0.
    9000005    1    3    3    0    0  0.24025564742E+01  0.18685047829E+02  0.15050780205E+02  0.24133571530E+02  0.10000000000E+01 0.  0.
    9000005    1    3    3    0    0 -0.24025564742E+01 -0.18685047829E+02  0.82044426888E+03  0.82066113690E+03  0.10000000000E+01 0.  0.
<mgrwt>
<rscale>  0 0.12500449E+03</rscale>
<asrwt>0</asrwt>
<pdfrwt beam="2">  1        4 0.71535809E-03 0.12500449E+03</pdfrwt>
<pdfrwt beam="1">  1       -4 0.12925312E+00 0.12500449E+03</pdfrwt>
<totfact> 0.36337701E+03</totfact>
</mgrwt>
</event>
<event>
 5    1  0.3284464E-002  0.1250065E+03  0.7818608E-02  0.1235059E+00
         -4   -1    0    0    0  501 -0.00000000000E+00  0.00000000000E+00  0.22029267925E+03  0.22029634003E+03  0.12700000000E+01 0. -1.
          4   -1    0    0  501    0  0.00000000000E+00 -0.00000000000E+00 -0.17707385049E+02  0.17752869776E+02  0.12700000000E+01 0. -1.
         25    2    1    2    0    0  0.00000000000E+00  0.00000000000E+00  0.20258529420E+03  0.23804920980E+03  0.12500649928E+03 0.  0.
    9000005    1    3    3    0    0  0.11130390925E+02  0.59467523666E+02  0.13112293786E+03  0.14441086111E+03  0.10000000000E+01 0.  0.
    9000005    1    3    3    0    0 -0.11130390925E+02 -0.59467523666E+02  0.71462356339E+02  0.93638348697E+02  0.10000000000E+01 0.  0.
<mgrwt>
<rscale>  0 0.12500650E+03</rscale>
<asrwt>0</asrwt>
<pdfrwt beam="2">  1        4 0.27279936E-02 0.12500650E+03</pdfrwt>
<pdfrwt beam="1">  1       -4 0.33894961E-01 0.12500650E+03</pdfrwt>
<totfact> 0.84076579E+03</totfact>
</mgrwt>
</event>
<event>
 5    1  0.3284464E-002  0.1249972E+03  0.7818608E-02  0.1235074E+00
          4   -1    0    0  501    0  0.00000000000E+00  0.00000000000E+00  0.10495994894E+02  0.10572549778E+02  0.12700000000E+01 0.  1.
         -4   -1    0    0    0  501 -0.00000000000E+00 -0.00000000000E+00 -0.37071901414E+03  0.37072118950E+03  0.12700000000E+01 0.  1.
         25    2    1    2    0    0  0.00000000000E+00  0.00000000000E+00 -0.36022301924E+03  0.38129373928E+03  0.12499716804E+03 0.  0.
    9000005    1    3    3    0    0  0.91551857809E+01  0.61644012331E+02 -0.16604271988E+03  0.17735553701E+03  0.10000000000E+01 0.  0.
    9000005    1    3    3    0    0 -0.91551857809E+01 -0.61644012331E+02 -0.19418029936E+03  0.20393820227E+03  0.10000000000E+01 0.  0.
<mgrwt>
<rscale>  0 0.12499717E+03</rscale>
<asrwt>0</asrwt>
<pdfrwt beam="1">  1        4 0.16208249E-02 0.12499717E+03</pdfrwt>
<pdfrwt beam="2">  1       -4 0.57039741E-01 0.12499717E+03</pdfrwt>
<totfact> 0.66417881E+03</totfact>
</mgrwt>
</event>
<event>
 5    1  0.3284464E-002  0.1250002E+03  0.7818608E-02  0.1235069E+00
          4   -1    0    0  501    0  0.00000000000E+00  0.00000000000E+00  0.19968059560E+02  0.20008405799E+02  0.12700000000E+01 0. -1.
         -4   -1    0    0    0  501 -0.00000000000E+00 -0.00000000000E+00 -0.19538564391E+03  0.19538977135E+03  0.12700000000E+01 0. -1.
         25    2    1    2    0    0  0.00000000000E+00  0.00000000000E+00 -0.17541758435E+03  0.21539817715E+03  0.12500018327E+03 0.  0.
    9000005    1    3    3    0    0 -0.44563252311E+02 -0.36058356138E+02 -0.13058707273E+03  0.14261862455E+03  0.10000000000E+01 0.  0.
    9000005    1    3    3    0    0  0.44563252311E+02  0.36058356138E+02 -0.44830511622E+02  0.72779552597E+02  0.10000000000E+01 0.  0.
<mgrwt>
<rscale>  0 0.12500018E+03</rscale>
<asrwt>0</asrwt>
<pdfrwt beam="1">  1        4 0.30754304E-02 0.12500018E+03</pdfrwt>
<pdfrwt beam="2">  1       -4 0.30062750E-01 0.12500018E+03</pdfrwt>
<totfact> 0.87601449E+03</totfact>
</mgrwt>
</event>
<event>
 5    1  0.3284464E-002  0.1249933E+03  0.7818608E-02  0.1235080E+00
          4   -1    0    0  501    0  0.00000000000E+00  0.00000000000E+00  0.11448826632E+03  0.11449531006E+03  0.12700000000E+01 0.  1.
         -4   -1    0    0    0  501 -0.00000000000E+00 -0.00000000000E+00 -0.34095648570E+02  0.34119292950E+02  0.12700000000E+01 0.  1.
         25    2    1    2    0    0  0.00000000000E+00  0.00000000000E+00  0.80392617754E+02  0.14861460301E+03  0.12499330877E+03 0.  0.
    9000005    1    3    3    0    0 -0.30173622077E+02 -0.49535692171E+02  0.67841051921E+02  0.89261641223E+02  0.10000000000E+01 0.  0.
    9000005    1    3    3    0    0  0.30173622077E+02  0.49535692171E+02  0.12551565833E+02  0.59352961787E+02  0.10000000000E+01 0.  0.
<mgrwt>
<rscale>  0 0.12499331E+03</rscale>
<asrwt>0</asrwt>
<pdfrwt beam="1">  1        4 0.17615940E-01 0.12499331E+03</pdfrwt>
<pdfrwt beam="2">  1       -4 0.52478451E-02 0.12499331E+03</pdfrwt>
<totfact> 0.99595575E+03</totfact>
</mgrwt>
</event>
<event>
 5    1  0.3284464E-002  0.1250016E+03  0.7818608E-02  0.1235067E+00
         -4   -1    0    0    0  501 -0.00000000000E+00  0.00000000000E+00  0.17461970008E+02  0.17508092316E+02  0.12700000000E+01 0.  1.
          4   -1    0    0  501    0  0.00000000000E+00 -0.00000000000E+00 -0.22336318047E+03  0.22336679093E+03  0.12700000000E+01 0.  1.
         25    2    1    2    0    0  0.00000000000E+00  0.00000000000E+00 -0.20590121046E+03  0.24087488324E+03  0.12500160362E+03 0.  0.
    9000005    1    3    3    0    0  0.59683282591E+02  0.14683077775E+02 -0.81178077492E+02  0.10182616196E+03  0.10000000000E+01 0.  0.
    9000005    1    3    3    0    0 -0.59683282591E+02 -0.14683077775E+02 -0.12472313297E+03  0.13904872129E+03  0.10000000000E+01 0.  0.
<mgrwt>
<rscale>  0 0.12500160E+03</rscale>
<asrwt>0</asrwt>
<pdfrwt beam="2">  1        4 0.34367390E-01 0.12500160E+03</pdfrwt>
<pdfrwt beam="1">  1       -4 0.26902827E-02 0.12500160E+03</pdfrwt>
<totfact> 0.83664251E+03</totfact>
</mgrwt>
</event>
<event>
 5    1  0.3284464E-002  0.1249998E+03  0.7818608E-02  0.1235070E+00
         -4   -1    0    0    0  501 -0.00000000000E+00  0.00000000000E+00  0.84232099455E+02  0.84241673052E+02  0.12700000000E+01 0. -1.
          4   -1    0    0  501    0  0.00000000000E+00 -0.00000000000E+00 -0.46353785140E+02  0.46371179593E+02  0.12700000000E+01 0. -1.
         25    2    1    2    0    0  0.00000000000E+00  0.00000000000E+00  0.37878314315E+02  0.13061285264E+03  0.12499980232E+03 0.  0.
    9000005    1    3    3    0    0  0.34955805093E+01 -0.87989045598E+01 -0.45605141443E+02  0.46588289629E+02  0.10000000000E+01 0.  0.
    9000005    1    3    3    0    0 -0.34955805093E+01  0.87989045598E+01  0.83483455758E+02  0.84024563015E+02  0.10000000000E+01 0.  0.
<mgrwt>
<rscale>  0 0.12499980E+03</rscale>
<asrwt>0</asrwt>
<pdfrwt beam="2">  1        4 0.71334261E-02 0.12499980E+03</pdfrwt>
<pdfrwt beam="1">  1       -4 0.12960859E-01 0.12499980E+03</pdfrwt>
<totfact> 0.10331442E+04</totfact>
</mgrwt>
</event>
<event>
 5    1  0.3284464E-002  0.1249958E+03  0.7818608E-02  0.1235076E+00
         -4   -1    0    0    0  501 -0.00000000000E+00  0.00000000000E+00  0.19536910365E+02  0.19578145127E+02  0.12700000000E+01 0.  1.
          4   -1    0    0  501    0  0.00000000000E+00 -0.00000000000E+00 -0.19967444839E+03  0.19967848718E+03  0.12700000000E+01 0.  1.
         25    2    1    2    0    0  0.00000000000E+00  0.00000000000E+00 -0.18013753803E+03  0.21925663230E+03  0.12499575274E+03 0.  0.
    9000005    1    3    3    0    0 -0.41981217318E+02 -0.23534031697E+02 -0.20152221510E+02  0.52186064109E+02  0.10000000000E+01 0.  0.
    9000005    1    3    3    0    0  0.41981217318E+02  0.23534031697E+02 -0.15998531652E+03  0.16707056820E+03  0.10000000000E+01 0.  0.
<mgrwt>
<rscale>  0 0.12499575E+03</rscale>
<asrwt>0</asrwt>
<pdfrwt beam="2">  1        4 0.30722627E-01 0.12499575E+03</pdfrwt>
<pdfrwt beam="1">  1       -4 0.30091612E-02 0.12499575E+03</pdfrwt>
<totfact> 0.86994369E+03</totfact>
</mgrwt>
</event>
<event>
 5    1  0.3284464E-002  0.1250036E+03  0.7818608E-02  0.1235064E+00
         -4   -1    0    0    0  501 -0.00000000000E+00  0.00000000000E+00  0.10445973182E+02  0.10522891985E+02  0.12700000000E+01 0. -1.
          4   -1    0    0  501    0  0.00000000000E+00 -0.00000000000E+00 -0.37251960909E+03  0.37252177393E+03  0.12700000000E+01 0. -1.
         25    2    1    2    0    0  0.00000000000E+00  0.00000000000E+00 -0.36207363590E+03  0.38304466592E+03  0.12500359303E+03 0.  0.
    9000005    1    3    3    0    0  0.16897601782E+02  0.55116556701E+02 -0.25496835764E+03  0.26140624928E+03  0.10000000000E+01 0.  0.
    9000005    1    3    3    0    0 -0.16897601782E+02 -0.55116556701E+02 -0.10710527827E+03  0.12163841664E+03  0.10000000000E+01 0.  0.
<mgrwt>
<rscale>  0 0.12500359E+03</rscale>
<asrwt>0</asrwt>
<pdfrwt beam="2">  1        4 0.57316782E-01 0.12500359E+03</pdfrwt>
<pdfrwt beam="1">  1       -4 0.16131564E-02 0.12500359E+03</pdfrwt>
<totfact> 0.66230688E+03</totfact>
</mgrwt>
</event>
<event>
 5    1  0.3284464E-002  0.1249916E+03  0.7818608E-02  0.1235082E+00
          4   -1    0    0  501    0  0.00000000000E+00  0.00000000000E+00  0.25775539209E+02  0.25806807658E+02  0.12700000000E+01 0. -1.
         -4   -1    0    0    0  501 -0.00000000000E+00 -0.00000000000E+00 -0.15140260679E+03  0.15140793323E+03  0.12700000000E+01 0. -1.
         25    2    1    2    0    0  0.00000000000E+00  0.00000000000E+00 -0.12562706758E+03  0.17721474088E+03  0.12499161683E+03 0.  0.
    9000005    1    3    3    0    0 -0.45497142436E+02  0.20536171785E+02 -0.95180624191E+01  0.50826349796E+02  0.10000000000E+01 0.  0.
    9000005    1    3    3    0    0  0.45497142436E+02 -0.20536171785E+02 -0.11610900516E+03  0.12638839109E+03  0.10000000000E+01 0.  0.
<mgrwt>
<rscale>  0 0.12499162E+03</rscale>
<asrwt>0</asrwt>
<pdfrwt beam="1">  1        4 0.39682827E-02 0.12499162E+03</pdfrwt>
<pdfrwt beam="2">  1       -4 0.23295523E-01 0.12499162E+03</pdfrwt>
<totfact> 0.94138474E+03</totfact>
</mgrwt>
</event>
<event>
 5    1  0.3284464E-002  0.1250005E+03  0.7818608E-02  0.1235069E+00
          4   -1    0    0  501    0  0.00000000000E+00  0.00000000000E+00  0.70552420268E+03  0.70552534573E+03  0.12700000000E+01 0.  1.
         -4   -1    0    0    0  501 -0.00000000000E+00 -0.00000000000E+00 -0.54627153133E+01  0.56084007163E+01  0.12700000000E+01 0.  1.
         25    2    1    2    0    0  0.00000000000E+00  0.00000000000E+00  0.70006148736E+03  0.71113374644E+03  0.12500047696E+03 0.  0.
    9000005    1    3    3    0    0  0.12749248065E+02 -0.54802590764E+02  0.19533334142E+03  0.20327808920E+03  0.10000000000E+01 0.  0.
    9000005    1    3    3    0    0 -0.12749248065E+02  0.54802590764E+02  0.50472814595E+03  0.50785565724E+03  0.10000000000E+01 0.  0.
<mgrwt>
<rscale>  0 0.12500048E+03</rscale>
<asrwt>0</asrwt>
<pdfrwt beam="1">  1        4 0.10855353E+00 0.12500048E+03</pdfrwt>
<pdfrwt beam="2">  1       -4 0.85171187E-03 0.12500048E+03</pdfrwt>
<totfact> 0.42504984E+03</totfact>
</mgrwt>
</event>
<event>
 5    1  0.3284464E-002  0.1250017E+03  0.7818608E-02  0.1235067E+00
         -4   -1    0    0    0  501 -0.00000000000E+00  0.00000000000E+00  0.96755850784E+02  0.96764185321E+02  0.12700000000E+01 0.  1.
          4   -1    0    0  501    0  0.00000000000E+00 -0.00000000000E+00 -0.40353238197E+02  0.40373218017E+02  0.12700000000E+01 0.  1.
         25    2    1    2    0    0  0.00000000000E+00  0.00000000000E+00  0.56402612586E+02  0.13713740334E+03  0.12500165074E+03 0.  0.
    9000005    1    3    3    0    0  0.71960700197E+01  0.17737018288E+02  0.93466027520E+02  0.95411129025E+02  0.10000000000E+01 0.  0.
    9000005    1    3    3    0    0 -0.71960700197E+01 -0.17737018288E+02 -0.37063414934E+02  0.41726274313E+02  0.10000000000E+01 0.  0.
<mgrwt>
<rscale>  0 0.12500165E+03</rscale>
<asrwt>0</asrwt>
<pdfrwt beam="2">  1        4 0.62103685E-02 0.12500165E+03</pdfrwt>
<pdfrwt beam="1">  1       -4 0.14887694E-01 0.12500165E+03</pdfrwt>
<totfact> 0.10192834E+04</totfact>
</mgrwt>
</event>
<event>
 5    1  0.3284464E-002  0.1250037E+03  0.7818608E-02  0.1235063E+00
         -4   -1    0    0    0  501 -0.00000000000E+00  0.00000000000E+00  0.25659277989E+02  0.25690687942E+02  0.12700000000E+01 0. -1.
          4   -1    0    0  501    0  0.00000000000E+00 -0.00000000000E+00 -0.15211726351E+03  0.15212256492E+03  0.12700000000E+01 0. -1.
         25    2    1    2    0    0  0.00000000000E+00  0.00000000000E+00 -0.12645798552E+03  0.17781325286E+03  0.12500372311E+03 0.  0.
    9000005    1    3    3    0    0  0.22361916993E+02  0.38829832485E+02 -0.12632451959E+01  0.44837562499E+02  0.10000000000E+01 0.  0.
    9000005    1    3    3    0    0 -0.22361916993E+02 -0.38829832485E+02 -0.12519474032E+03  0.13297569036E+03  0.10000000000E+01 0.  0.
<mgrwt>
<rscale>  0 0.12500372E+03</rscale>
<asrwt>0</asrwt>
<pdfrwt beam="2">  1        4 0.23405479E-01 0.12500372E+03</pdfrwt>
<pdfrwt beam="1">  1       -4 0.39504053E-02 0.12500372E+03</pdfrwt>
<totfact> 0.94004263E+03</totfact>
</mgrwt>
</event>
<event>
 5    1  0.3284464E-002  0.1250012E+03  0.7818608E-02  0.1235067E+00
         -4   -1    0    0    0  501 -0.00000000000E+00  0.00000000000E+00  0.57816587159E+01  0.59194997683E+01  0.12700000000E+01 0. -1.
          4   -1    0    0  501    0  0.00000000000E+00 -0.00000000000E+00 -0.66754373838E+03  0.66754494647E+03  0.12700000000E+01 0. -1.
         25    2    1    2    0    0  0.00000000000E+00  0.00000000000E+00 -0.66176207967E+03  0.67346444624E+03  0.12500124103E+03 0.  0.
    9000005    1    3    3    0    0  0.37817776139E+02  0.27682018889E+02 -0.10816462931E+03  0.11788581507E+03  0.10000000000E+01 0.  0.
    9000005    1    3    3    0    0 -0.37817776139E+02 -0.27682018889E+02 -0.55359745036E+03  0.55557863116E+03  0.10000000000E+01 0.  0.
<mgrwt>
<rscale>  0 0.12500124E+03</rscale>
<asrwt>0</asrwt>
<pdfrwt beam="2">  1        4 0.10270967E+00 0.12500124E+03</pdfrwt>
<pdfrwt beam="1">  1       -4 0.90018257E-03 0.12500124E+03</pdfrwt>
<totfact> 0.44523783E+03</totfact>
</mgrwt>
</event>
<event>
 5    1  0.3284464E-002  0.1250040E+03  0.7818608E-02  0.1235063E+00
         -4   -1    0    0    0  501 -0.00000000000E+00  0.00000000000E+00  0.48963968603E+03  0.48964133305E+03  0.12700000000E+01 0. -1.
          4   -1    0    0  501    0  0.00000000000E+00 -0.00000000000E+00 -0.79261093897E+01  0.80272106025E+01  0.12700000000E+01 0. -1.
         25    2    1    2    0    0  0.00000000000E+00  0.00000000000E+00  0.48171357664E+03  0.49766854365E+03  0.12500403764E+03 0.  0.
    9000005    1    3    3    0    0 -0.44432476924E+02  0.41718440559E+02  0.18585986242E+03  0.19560051571E+03  0.10000000000E+01 0.  0.
    9000005    1    3    3    0    0  0.44432476924E+02 -0.41718440559E+02  0.29585371422E+03  0.30206802794E+03  0.10000000000E+01 0.  0.
<mgrwt>
<rscale>  0 0.12500404E+03</rscale>
<asrwt>0</asrwt>
<pdfrwt beam="2">  1        4 0.12273050E-02 0.12500404E+03</pdfrwt>
<pdfrwt beam="1">  1       -4 0.75337095E-01 0.12500404E+03</pdfrwt>
<totfact> 0.56040732E+03</totfact>
</mgrwt>
</event>
<event>
 5    1  0.3284464E-002  0.1250008E+03  0.7818608E-02  0.1235068E+00
          4   -1    0    0  501    0  0.00000000000E+00  0.00000000000E+00  0.53288988411E+01  0.54781441071E+01  0.12700000000E+01 0. -1.
         -4   -1    0    0    0  501 -0.00000000000E+00 -0.00000000000E+00 -0.72276818124E+03  0.72276929702E+03  0.12700000000E+01 0. -1.
         25    2    1    2    0    0  0.00000000000E+00  0.00000000000E+00 -0.71743928240E+03  0.72824744113E+03  0.12500084631E+03 0.  0.
    9000005    1    3    3    0    0 -0.10401945488E+02  0.52103515271E+02 -0.16705363923E+03  0.17530229649E+03  0.10000000000E+01 0.  0.
    9000005    1    3    3    0    0  0.10401945488E+02 -0.52103515271E+02 -0.55038564317E+03  0.55294514464E+03  0.10000000000E+01 0.  0.
<mgrwt>
<rscale>  0 0.12500085E+03</rscale>
<asrwt>0</asrwt>
<pdfrwt beam="1">  1        4 0.83139740E-03 0.12500085E+03</pdfrwt>
<pdfrwt beam="2">  1       -4 0.11120659E+00 0.12500085E+03</pdfrwt>
<totfact> 0.41636044E+03</totfact>
</mgrwt>
</event>
<event>
 5    1  0.3284464E-002  0.1250002E+03  0.7818608E-02  0.1235069E+00
         -4   -1    0    0    0  501 -0.00000000000E+00  0.00000000000E+00  0.26432085838E+02  0.26462578517E+02  0.12700000000E+01 0. -1.
          4   -1    0    0  501    0  0.00000000000E+00 -0.00000000000E+00 -0.14766637290E+03  0.14767183409E+03  0.12700000000E+01 0. -1.
         25    2    1    2    0    0  0.00000000000E+00  0.00000000000E+00 -0.12123428706E+03  0.17413441261E+03  0.12500016519E+03 0.  0.
    9000005    1    3    3    0    0 -0.42113071233E+02  0.16326916469E+02 -0.45344159667E+00  0.45180577457E+02  0.10000000000E+01 0.  0.
    9000005    1    3    3    0    0  0.42113071233E+02 -0.16326916469E+02 -0.12078084546E+03  0.12895383515E+03  0.10000000000E+01 0.  0.
<mgrwt>
<rscale>  0 0.12500017E+03</rscale>
<asrwt>0</asrwt>
<pdfrwt beam="2">  1        4 0.22720669E-01 0.12500017E+03</pdfrwt>
<pdfrwt beam="1">  1       -4 0.40692405E-02 0.12500017E+03</pdfrwt>
<totfact> 0.94683260E+03</totfact>
</mgrwt>
</event>
<event>
 5    1  0.3284464E-002  0.1249987E+03  0.7818608E-02  0.1235071E+00
         -4   -1    0    0    0  501 -0.00000000000E+00  0.00000000000E+00  0.22198632842E+03  0.22198996127E+03  0.12700000000E+01 0. -1.
          4   -1    0    0  501    0  0.00000000000E+00 -0.00000000000E+00 -0.17569733326E+02  0.17615573484E+02  0.12700000000E+01 0. -1.
         25    2    1    2    0    0  0.00000000000E+00  0.00000000000E+00  0.20441659509E+03  0.23960553475E+03  0.12499867174E+03 0.  0.
    9000005    1    3    3    0    0 -0.52301923869E+02  0.25261224408E+02  0.58014431882E+02  0.82099299665E+02  0.10000000000E+01 0.  0.
    9000005    1    3    3    0    0  0.52301923869E+02 -0.25261224408E+02  0.14640216321E+03  0.15750623509E+03  0.10000000000E+01 0.  0.
<mgrwt>
<rscale>  0 0.12499867E+03</rscale>
<asrwt>0</asrwt>
<pdfrwt beam="2">  1        4 0.27068414E-02 0.12499867E+03</pdfrwt>
<pdfrwt beam="1">  1       -4 0.34155549E-01 0.12499867E+03</pdfrwt>
<totfact> 0.83858633E+03</totfact>
</mgrwt>
</event>
<event>
 5    1  0.3284464E-002  0.1250132E+03  0.7818608E-02  0.1235049E+00
         -4   -1    0    0    0  501 -0.00000000000E+00  0.00000000000E+00  0.21885043999E+03  0.21885412489E+03  0.12700000000E+01 0. -1.
          4   -1    0    0  501    0  0.00000000000E+00 -0.00000000000E+00 -0.17826281420E+02  0.17871463545E+02  0.12700000000E+01 0. -1.
         25    2    1    2    0    0  0.00000000000E+00  0.00000000000E+00  0.20102415857E+03  0.23672558844E+03  0.12501316688E+03 0.  0.
    9000005    1    3    3    0    0  0.14641581906E+02 -0.49032858703E+02  0.32566846886E+02  0.60664624530E+02  0.10000000000E+01 0.  0.
    9000005    1    3    3    0    0 -0.14641581906E+02  0.49032858703E+02  0.16845731168E+03  0.17606096391E+03  0.10000000000E+01 0.  0.
<mgrwt>
<rscale>  0 0.12501317E+03</rscale>
<asrwt>0</asrwt>
<pdfrwt beam="2">  1        4 0.27462639E-02 0.12501317E+03</pdfrwt>
<pdfrwt beam="1">  1       -4 0.33673057E-01 0.12501317E+03</pdfrwt>
<totfact> 0.84262718E+03</totfact>
</mgrwt>
</event>
<event>
 5    1  0.3284464E-002  0.1249996E+03  0.7818608E-02  0.1235070E+00
         -4   -1    0    0    0  501 -0.00000000000E+00  0.00000000000E+00  0.71893548770E+02  0.71904765175E+02  0.12700000000E+01 0. -1.
          4   -1    0    0  501    0  0.00000000000E+00 -0.00000000000E+00 -0.54310543832E+02  0.54325390669E+02  0.12700000000E+01 0. -1.
         25    2    1    2    0    0  0.00000000000E+00  0.00000000000E+00  0.17583004938E+02  0.12623015584E+03  0.12499956073E+03 0.  0.
    9000005    1    3    3    0    0  0.38381861747E+02  0.25651318050E+02  0.51325814214E+02  0.69039819189E+02  0.10000000000E+01 0.  0.
    9000005    1    3    3    0    0 -0.38381861747E+02 -0.25651318050E+02 -0.33742809276E+02  0.57190336655E+02  0.10000000000E+01 0.  0.
<mgrwt>
<rscale>  0 0.12499956E+03</rscale>
<asrwt>0</asrwt>
<pdfrwt beam="2">  1        4 0.83574732E-02 0.12499956E+03</pdfrwt>
<pdfrwt beam="1">  1       -4 0.11062551E-01 0.12499956E+03</pdfrwt>
<totfact> 0.10426023E+04</totfact>
</mgrwt>
</event>
<event>
 5    1  0.3284464E-002  0.1250023E+03  0.7818608E-02  0.1235066E+00
          4   -1    0    0  501    0  0.00000000000E+00  0.00000000000E+00  0.56267929906E+02  0.56282260401E+02  0.12700000000E+01 0.  1.
         -4   -1    0    0    0  501 -0.00000000000E+00 -0.00000000000E+00 -0.69395904158E+02  0.69407524188E+02  0.12700000000E+01 0.  1.
         25    2    1    2    0    0  0.00000000000E+00  0.00000000000E+00 -0.13127974252E+02  0.12568978459E+03  0.12500231295E+03 0.  0.
    9000005    1    3    3    0    0  0.31579017067E+02 -0.46353049870E+02 -0.34275583780E+02  0.65739297186E+02  0.10000000000E+01 0.  0.
    9000005    1    3    3    0    0 -0.31579017067E+02  0.46353049870E+02  0.21147609527E+02  0.59950487403E+02  0.10000000000E+01 0.  0.
<mgrwt>
<rscale>  0 0.12500231E+03</rscale>
<asrwt>0</asrwt>
<pdfrwt beam="1">  1        4 0.86586008E-02 0.12500231E+03</pdfrwt>
<pdfrwt beam="2">  1       -4 0.10678289E-01 0.12500231E+03</pdfrwt>
<totfact> 0.10437224E+04</totfact>
</mgrwt>
</event>
<event>
 4    1  0.3284464E-002  0.1249027E+03  0.7818608E-02  0.1235221E+00
          4   -1    0    0  501    0  0.00000000000E+00  0.00000000000E+00  0.46726895457E+02  0.46744151068E+02  0.12700000000E+01 0.  1.
         -4   -1    0    0    0  501 -0.00000000000E+00 -0.00000000000E+00 -0.83429829039E+02  0.83439494686E+02  0.12700000000E+01 0.  1.
    9000005    1    1    2    0    0  0.19794318903E+02  0.27414593767E+02 -0.73066680116E+02  0.80517791545E+02  0.10000000000E+01 0.  0.
    9000005    1    1    2    0    0 -0.19794318903E+02 -0.27414593767E+02  0.36363746534E+02  0.49665854208E+02  0.10000000000E+01 0.  0.
<mgrwt>
<rscale>  0 0.12490267E+03</rscale>
<asrwt>0</asrwt>
<pdfrwt beam="1">  1        4 0.71908240E-02 0.12490267E+03</pdfrwt>
<pdfrwt beam="2">  1       -4 0.12837429E-01 0.12490267E+03</pdfrwt>
<totfact> 0.10363332E+04</totfact>
</mgrwt>
</event>
<event>
 5    1  0.3284464E-002  0.1250022E+03  0.7818608E-02  0.1235066E+00
         -4   -1    0    0    0  501 -0.00000000000E+00  0.00000000000E+00  0.14101922816E+02  0.14158994565E+02  0.12700000000E+01 0. -1.
          4   -1    0    0  501    0  0.00000000000E+00 -0.00000000000E+00 -0.27639295160E+03  0.27639586935E+03  0.12700000000E+01 0. -1.
         25    2    1    2    0    0  0.00000000000E+00  0.00000000000E+00 -0.26229102878E+03  0.29055486392E+03  0.12500218064E+03 0.  0.
    9000005    1    3    3    0    0 -0.12250443880E+02 -0.30147016993E+02 -0.71334641049E+01  0.33328701129E+02  0.10000000000E+01 0.  0.
    9000005    1    3    3    0    0  0.12250443880E+02  0.30147016993E+02 -0.25515756468E+03  0.25722616279E+03  0.10000000000E+01 0.  0.
<mgrwt>
<rscale>  0 0.12500218E+03</rscale>
<asrwt>0</asrwt>
<pdfrwt beam="2">  1        4 0.42526603E-01 0.12500218E+03</pdfrwt>
<pdfrwt beam="1">  1       -4 0.21741414E-02 0.12500218E+03</pdfrwt>
<totfact> 0.76795384E+03</totfact>
</mgrwt>
</event>
<event>
 5    1  0.3284464E-002  0.1250001E+03  0.7818608E-02  0.1235069E+00
          4   -1    0    0  501    0  0.00000000000E+00  0.00000000000E+00  0.86868587622E+01  0.87792035604E+01  0.12700000000E+01 0.  1.
         -4   -1    0    0    0  501 -0.00000000000E+00 -0.00000000000E+00 -0.44720336007E+03  0.44720516339E+03  0.12700000000E+01 0.  1.
         25    2    1    2    0    0  0.00000000000E+00  0.00000000000E+00 -0.43851650131E+03  0.45598436695E+03  0.12500008392E+03 0.  0.
    9000005    1    3    3    0    0  0.48990385956E+02 -0.37127050996E+02 -0.26033196866E+03  0.26749244800E+03  0.10000000000E+01 0.  0.
    9000005    1    3    3    0    0 -0.48990385956E+02  0.37127050996E+02 -0.17818453265E+03  0.18849191894E+03  0.10000000000E+01 0.  0.
<mgrwt>
<rscale>  0 0.12500008E+03</rscale>
<asrwt>0</asrwt>
<pdfrwt beam="1">  1        4 0.13436823E-02 0.12500008E+03</pdfrwt>
<pdfrwt beam="2">  1       -4 0.68807741E-01 0.12500008E+03</pdfrwt>
<totfact> 0.59448751E+03</totfact>
</mgrwt>
</event>
<event>
 5    1  0.3284464E-002  0.1250010E+03  0.7818608E-02  0.1235068E+00
          4   -1    0    0  501    0  0.00000000000E+00  0.00000000000E+00  0.97687138012E+01  0.98509222578E+01  0.12700000000E+01 0.  1.
         -4   -1    0    0    0  501 -0.00000000000E+00 -0.00000000000E+00 -0.39812094545E+03  0.39812297109E+03  0.12700000000E+01 0.  1.
         25    2    1    2    0    0  0.00000000000E+00  0.00000000000E+00 -0.38835223165E+03  0.40797389334E+03  0.12500096729E+03 0.  0.
    9000005    1    3    3    0    0  0.20676362718E+02 -0.54459047427E+02 -0.26802747453E+03  0.27428639580E+03  0.10000000000E+01 0.  0.
    9000005    1    3    3    0    0 -0.20676362718E+02  0.54459047427E+02 -0.12032475712E+03  0.13368749754E+03  0.10000000000E+01 0.  0.
<mgrwt>
<rscale>  0 0.12500097E+03</rscale>
<asrwt>0</asrwt>
<pdfrwt beam="1">  1        4 0.15093589E-02 0.12500097E+03</pdfrwt>
<pdfrwt beam="2">  1       -4 0.61255843E-01 0.12500097E+03</pdfrwt>
<totfact> 0.63783221E+03</totfact>
</mgrwt>
</event>
<event>
 5    1  0.3284464E-002  0.1250176E+03  0.7818608E-02  0.1235042E+00
         -4   -1    0    0    0  501 -0.00000000000E+00  0.00000000000E+00  0.12715424083E+02  0.12778689667E+02  0.12700000000E+01 0. -1.
          4   -1    0    0  501    0  0.00000000000E+00 -0.00000000000E+00 -0.30646499536E+03  0.30646762681E+03  0.12700000000E+01 0. -1.
         25    2    1    2    0    0  0.00000000000E+00  0.00000000000E+00 -0.29374957128E+03  0.31924631647E+03  0.12501759859E+03 0.  0.
    9000005    1    3    3    0    0 -0.51378661927E+02 -0.16246050966E+02 -0.22773393845E+03  0.23402445983E+03  0.10000000000E+01 0.  0.
    9000005    1    3    3    0    0  0.51378661927E+02  0.16246050966E+02 -0.66015632823E+02  0.85221856647E+02  0.10000000000E+01 0.  0.
<mgrwt>
<rscale>  0 0.12501760E+03</rscale>
<asrwt>0</asrwt>
<pdfrwt beam="2">  1        4 0.47153524E-01 0.12501760E+03</pdfrwt>
<pdfrwt beam="1">  1       -4 0.19612883E-02 0.12501760E+03</pdfrwt>
<totfact> 0.73217290E+03</totfact>
</mgrwt>
</event>
<event>
 5    1  0.3284464E-002  0.1249937E+03  0.7818608E-02  0.1235079E+00
          4   -1    0    0  501    0  0.00000000000E+00  0.00000000000E+00  0.14989534145E+02  0.15043238809E+02  0.12700000000E+01 0.  1.
         -4   -1    0    0    0  501 -0.00000000000E+00 -0.00000000000E+00 -0.26005085978E+03  0.26005396089E+03  0.12700000000E+01 0.  1.
         25    2    1    2    0    0  0.00000000000E+00  0.00000000000E+00 -0.24506132564E+03  0.27509719970E+03  0.12499366367E+03 0.  0.
    9000005    1    3    3    0    0  0.27349877769E+02  0.48414786358E+02 -0.18527903713E+03  0.19344593289E+03  0.10000000000E+01 0.  0.
    9000005    1    3    3    0    0 -0.27349877769E+02 -0.48414786358E+02 -0.59782288509E+02  0.81651266808E+02  0.10000000000E+01 0.  0.
<mgrwt>
<rscale>  0 0.12499366E+03</rscale>
<asrwt>0</asrwt>
<pdfrwt beam="1">  1        4 0.23104520E-02 0.12499366E+03</pdfrwt>
<pdfrwt beam="2">  1       -4 0.40012191E-01 0.12499366E+03</pdfrwt>
<totfact> 0.78843814E+03</totfact>
</mgrwt>
</event>
<event>
 5    1  0.3284464E-002  0.1249994E+03  0.7818608E-02  0.1235070E+00
         -4   -1    0    0    0  501 -0.00000000000E+00  0.00000000000E+00  0.42049268179E+01  0.43925288325E+01  0.12700000000E+01 0.  1.
          4   -1    0    0  501    0  0.00000000000E+00 -0.00000000000E+00 -0.90850261161E+03  0.90850349928E+03  0.12700000000E+01 0.  1.
         25    2    1    2    0    0  0.00000000000E+00  0.00000000000E+00 -0.90429768479E+03  0.91289602811E+03  0.12499942168E+03 0.  0.
    9000005    1    3    3    0    0 -0.61143572230E+02 -0.77179556935E+01 -0.37656490360E+03  0.38157598180E+03  0.10000000000E+01 0.  0.
    9000005    1    3    3    0    0  0.61143572230E+02  0.77179556935E+01 -0.52773278119E+03  0.53132004631E+03  0.10000000000E+01 0.  0.
<mgrwt>
<rscale>  0 0.12499942E+03</rscale>
<asrwt>0</asrwt>
<pdfrwt beam="2">  1        4 0.13978398E+00 0.12499942E+03</pdfrwt>
<pdfrwt beam="1">  1       -4 0.66141175E-03 0.12499942E+03</pdfrwt>
<totfact> 0.33671369E+03</totfact>
</mgrwt>
</event>
<event>
 5    1  0.3284464E-002  0.1249963E+03  0.7818608E-02  0.1235075E+00
          4   -1    0    0  501    0  0.00000000000E+00  0.00000000000E+00  0.61577712174E+02  0.61590807241E+02  0.12700000000E+01 0. -1.
         -4   -1    0    0    0  501 -0.00000000000E+00 -0.00000000000E+00 -0.63406124680E+02  0.63418842208E+02  0.12700000000E+01 0. -1.
         25    2    1    2    0    0  0.00000000000E+00  0.00000000000E+00 -0.18284125064E+01  0.12500964945E+03  0.12499627740E+03 0.  0.
    9000005    1    3    3    0    0  0.12451853475E+02 -0.28786902761E+02  0.53140469622E+02  0.61714211793E+02  0.10000000000E+01 0.  0.
    9000005    1    3    3    0    0 -0.12451853475E+02  0.28786902761E+02 -0.54968882129E+02  0.63295437656E+02  0.10000000000E+01 0.  0.
<mgrwt>
<rscale>  0 0.12499628E+03</rscale>
<asrwt>0</asrwt>
<pdfrwt beam="1">  1        4 0.94754797E-02 0.12499628E+03</pdfrwt>
<pdfrwt beam="2">  1       -4 0.97567741E-02 0.12499628E+03</pdfrwt>
<totfact> 0.10453532E+04</totfact>
</mgrwt>
</event>
<event>
 5    1  0.3284464E-002  0.1250003E+03  0.7818608E-02  0.1235069E+00
          4   -1    0    0  501    0  0.00000000000E+00  0.00000000000E+00  0.87449596344E+02  0.87458817742E+02  0.12700000000E+01 0.  1.
         -4   -1    0    0    0  501 -0.00000000000E+00 -0.00000000000E+00 -0.44648203241E+02  0.44666261906E+02  0.12700000000E+01 0.  1.
         25    2    1    2    0    0  0.00000000000E+00  0.00000000000E+00  0.42801393103E+02  0.13212507965E+03  0.12500030968E+03 0.  0.
    9000005    1    3    3    0    0 -0.50715356735E+02  0.19937458768E+02  0.53733775000E+02  0.76536711757E+02  0.10000000000E+01 0.  0.
    9000005    1    3    3    0    0  0.50715356735E+02 -0.19937458768E+02 -0.10932381896E+02  0.55588367891E+02  0.10000000000E+01 0.  0.
<mgrwt>
<rscale>  0 0.12500031E+03</rscale>
<asrwt>0</asrwt>
<pdfrwt beam="1">  1        4 0.13455882E-01 0.12500031E+03</pdfrwt>
<pdfrwt beam="2">  1       -4 0.68710529E-02 0.12500031E+03</pdfrwt>
<totfact> 0.10298957E+04</totfact>
</mgrwt>
</event>
<event>
 5    1  0.3284464E-002  0.1249985E+03  0.7818608E-02  0.1235072E+00
          4   -1    0    0  501    0  0.00000000000E+00  0.00000000000E+00  0.29844575090E+03  0.29844845305E+03  0.12700000000E+01 0. -1.
         -4   -1    0    0    0  501 -0.00000000000E+00 -0.00000000000E+00 -0.13054746711E+02  0.13116375707E+02  0.12700000000E+01 0. -1.
         25    2    1    2    0    0  0.00000000000E+00  0.00000000000E+00  0.28539100419E+03  0.31156482876E+03  0.12499846899E+03 0.  0.
    9000005    1    3    3    0    0 -0.15451755690E+02 -0.52149878259E+01  0.29306050999E+03  0.29351561350E+03  0.10000000000E+01 0.  0.
    9000005    1    3    3    0    0  0.15451755690E+02  0.52149878259E+01 -0.76695058095E+01  0.18049215254E+02  0.10000000000E+01 0.  0.
<mgrwt>
<rscale>  0 0.12499847E+03</rscale>
<asrwt>0</asrwt>
<pdfrwt beam="1">  1        4 0.45919676E-01 0.12499847E+03</pdfrwt>
<pdfrwt beam="2">  1       -4 0.20133713E-02 0.12499847E+03</pdfrwt>
<totfact> 0.74173215E+03</totfact>
</mgrwt>
</event>
<event>
 5    1  0.3284464E-002  0.1249999E+03  0.7818608E-02  0.1235069E+00
         -4   -1    0    0    0  501 -0.00000000000E+00  0.00000000000E+00  0.14225754214E+03  0.14226321097E+03  0.12700000000E+01 0.  1.
          4   -1    0    0  501    0  0.00000000000E+00 -0.00000000000E+00 -0.27438046196E+02  0.27467422141E+02  0.12700000000E+01 0.  1.
         25    2    1    2    0    0  0.00000000000E+00  0.00000000000E+00  0.11481949594E+03  0.16973063311E+03  0.12499988467E+03 0.  0.
    9000005    1    3    3    0    0  0.46808824778E+02  0.13541454490E+02  0.42833149529E+01  0.48926310445E+02  0.10000000000E+01 0.  0.
    9000005    1    3    3    0    0 -0.46808824778E+02 -0.13541454490E+02  0.11053618099E+03  0.12080432266E+03  0.10000000000E+01 0.  0.
<mgrwt>
<rscale>  0 0.12499988E+03</rscale>
<asrwt>0</asrwt>
<pdfrwt beam="2">  1        4 0.42239337E-02 0.12499988E+03</pdfrwt>
<pdfrwt beam="1">  1       -4 0.21888471E-01 0.12499988E+03</pdfrwt>
<totfact> 0.95499114E+03</totfact>
</mgrwt>
</event>
<event>
 5    1  0.3284464E-002  0.1250037E+03  0.7818608E-02  0.1235063E+00
         -4   -1    0    0    0  501 -0.00000000000E+00  0.00000000000E+00  0.23652884191E+02  0.23686954860E+02  0.12700000000E+01 0. -1.
          4   -1    0    0  501    0  0.00000000000E+00 -0.00000000000E+00 -0.16500339088E+03  0.16500827828E+03  0.12700000000E+01 0. -1.
         25    2    1    2    0    0  0.00000000000E+00  0.00000000000E+00 -0.14135050669E+03  0.18869523314E+03  0.12500370102E+03 0.  0.
    9000005    1    3    3    0    0 -0.10466958045E+02  0.30228790640E+01  0.22215707832E+02  0.24763535350E+02  0.10000000000E+01 0.  0.
    9000005    1    3    3    0    0  0.10466958045E+02 -0.30228790640E+01 -0.16356621452E+03  0.16393169779E+03  0.10000000000E+01 0.  0.
<mgrwt>
<rscale>  0 0.12500370E+03</rscale>
<asrwt>0</asrwt>
<pdfrwt beam="2">  1        4 0.25388133E-01 0.12500370E+03</pdfrwt>
<pdfrwt beam="1">  1       -4 0.36419021E-02 0.12500370E+03</pdfrwt>
<totfact> 0.92067203E+03</totfact>
</mgrwt>
</event>
<event>
 5    1  0.3284464E-002  0.1250013E+03  0.7818608E-02  0.1235067E+00
          4   -1    0    0  501    0  0.00000000000E+00  0.00000000000E+00  0.11250951551E+02  0.11322403049E+02  0.12700000000E+01 0.  1.
         -4   -1    0    0    0  501 -0.00000000000E+00 -0.00000000000E+00 -0.34602819946E+03  0.34603053004E+03  0.12700000000E+01 0.  1.
         25    2    1    2    0    0  0.00000000000E+00  0.00000000000E+00 -0.33477724791E+03  0.35735293309E+03  0.12500125228E+03 0.  0.
    9000005    1    3    3    0    0 -0.39949352987E+01  0.61056419414E+02 -0.20371696749E+03  0.21270977576E+03  0.10000000000E+01 0.  0.
    9000005    1    3    3    0    0  0.39949352987E+01 -0.61056419414E+02 -0.13106028042E+03  0.14464315733E+03  0.10000000000E+01 0.  0.
<mgrwt>
<rscale>  0 0.12500125E+03</rscale>
<asrwt>0</asrwt>
<pdfrwt beam="1">  1        4 0.17365914E-02 0.12500125E+03</pdfrwt>
<pdfrwt beam="2">  1       -4 0.53240775E-01 0.12500125E+03</pdfrwt>
<totfact> 0.68921241E+03</totfact>
</mgrwt>
</event>
<event>
 5    1  0.3284464E-002  0.1249987E+03  0.7818608E-02  0.1235071E+00
          4   -1    0    0  501    0  0.00000000000E+00  0.00000000000E+00  0.11067384532E+04  0.11067391819E+04  0.12700000000E+01 0. -1.
         -4   -1    0    0    0  501 -0.00000000000E+00 -0.00000000000E+00 -0.34144410986E+01  0.36429806499E+01  0.12700000000E+01 0. -1.
         25    2    1    2    0    0  0.00000000000E+00  0.00000000000E+00  0.11033240121E+04  0.11103821625E+04  0.12499868466E+03 0.  0.
    9000005    1    3    3    0    0 -0.50717980473E+01 -0.45673695955E+01  0.11034611232E+04  0.11034826843E+04  0.10000000000E+01 0.  0.
    9000005    1    3    3    0    0  0.50717980473E+01  0.45673695955E+01 -0.13711114692E+00  0.68994782354E+01  0.10000000000E+01 0.  0.
<mgrwt>
<rscale>  0 0.12499868E+03</rscale>
<asrwt>0</asrwt>
<pdfrwt beam="1">  1        4 0.17028541E+00 0.12499868E+03</pdfrwt>
<pdfrwt beam="2">  1       -4 0.54293364E-03 0.12499868E+03</pdfrwt>
<totfact> 0.27182229E+03</totfact>
</mgrwt>
</event>
<event>
 5    1  0.3284464E-002  0.1249862E+03  0.7818608E-02  0.1235091E+00
          4   -1    0    0  501    0  0.00000000000E+00  0.00000000000E+00  0.64100441996E+01  0.65346435741E+01  0.12700000000E+01 0. -1.
         -4   -1    0    0    0  501 -0.00000000000E+00 -0.00000000000E+00 -0.60327044529E+03  0.60327178209E+03  0.12700000000E+01 0. -1.
         25    2    1    2    0    0  0.00000000000E+00  0.00000000000E+00 -0.59686040109E+03  0.60980642566E+03  0.12498615278E+03 0.  0.
    9000005    1    3    3    0    0  0.38095255755E+02 -0.91263592093E+01 -0.60915701130E+02  0.72431081641E+02  0.10000000000E+01 0.  0.
    9000005    1    3    3    0    0 -0.38095255755E+02  0.91263592093E+01 -0.53594469996E+03  0.53737534402E+03  0.10000000000E+01 0.  0.
<mgrwt>
<rscale>  0 0.12498615E+03</rscale>
<asrwt>0</asrwt>
<pdfrwt beam="1">  1        4 0.99584852E-03 0.12498615E+03</pdfrwt>
<pdfrwt beam="2">  1       -4 0.92820481E-01 0.12498615E+03</pdfrwt>
<totfact> 0.48269062E+03</totfact>
</mgrwt>
</event>
<event>
 5    1  0.3284464E-002  0.1249980E+03  0.7818608E-02  0.1235072E+00
         -4   -1    0    0    0  501 -0.00000000000E+00  0.00000000000E+00  0.93650463674E+02  0.93659074555E+02  0.12700000000E+01 0. -1.
          4   -1    0    0  501    0  0.00000000000E+00 -0.00000000000E+00 -0.41689426344E+02  0.41708766092E+02  0.12700000000E+01 0. -1.
         25    2    1    2    0    0  0.00000000000E+00  0.00000000000E+00  0.51961037330E+02  0.13536784065E+03  0.12499801151E+03 0.  0.
    9000005    1    3    3    0    0 -0.49180342173E+02 -0.47508855848E+01 -0.15453828460E+02  0.51779318112E+02  0.10000000000E+01 0.  0.
    9000005    1    3    3    0    0  0.49180342173E+02  0.47508855848E+01  0.67414865790E+02  0.83588522535E+02  0.10000000000E+01 0.  0.
<mgrwt>
<rscale>  0 0.12499801E+03</rscale>
<asrwt>0</asrwt>
<pdfrwt beam="2">  1        4 0.64159080E-02 0.12499801E+03</pdfrwt>
<pdfrwt beam="1">  1       -4 0.14409913E-01 0.12499801E+03</pdfrwt>
<totfact> 0.10230782E+04</totfact>
</mgrwt>
</event>
<event>
 5    1  0.3284464E-002  0.1250017E+03  0.7818608E-02  0.1235067E+00
          4   -1    0    0  501    0  0.00000000000E+00  0.00000000000E+00  0.37673614626E+03  0.37673828688E+03  0.12700000000E+01 0. -1.
         -4   -1    0    0    0  501 -0.00000000000E+00 -0.00000000000E+00 -0.10327879122E+02  0.10405670913E+02  0.12700000000E+01 0. -1.
         25    2    1    2    0    0  0.00000000000E+00  0.00000000000E+00  0.36640826714E+03  0.38714395779E+03  0.12500170329E+03 0.  0.
    9000005    1    3    3    0    0 -0.35235730621E+02  0.23089269855E+02  0.40243581757E+02  0.58268490348E+02  0.10000000000E+01 0.  0.
    9000005    1    3    3    0    0  0.35235730621E+02 -0.23089269855E+02  0.32616468538E+03  0.32887546744E+03  0.10000000000E+01 0.  0.
<mgrwt>
<rscale>  0 0.12500170E+03</rscale>
<asrwt>0</asrwt>
<pdfrwt beam="1">  1        4 0.57965553E-01 0.12500170E+03</pdfrwt>
<pdfrwt beam="2">  1       -4 0.15950532E-02 0.12500170E+03</pdfrwt>
<totfact> 0.65820181E+03</totfact>
</mgrwt>
</event>
<event>
 5    1  0.3284464E-002  0.1250071E+03  0.7818608E-02  0.1235058E+00
         -4   -1    0    0    0  501 -0.00000000000E+00  0.00000000000E+00  0.46558334640E+02  0.46575652700E+02  0.12700000000E+01 0. -1.
          4   -1    0    0  501    0  0.00000000000E+00 -0.00000000000E+00 -0.83871963458E+02  0.83881578158E+02  0.12700000000E+01 0. -1.
         25    2    1    2    0    0  0.00000000000E+00  0.00000000000E+00 -0.37313628818E+02  0.13045723086E+03  0.12500712855E+03 0.  0.
    9000005    1    3    3    0    0 -0.66177320156E+01  0.29542183228E+02 -0.75713691747E+02  0.81548133546E+02  0.10000000000E+01 0.  0.
    9000005    1    3    3    0    0  0.66177320156E+01 -0.29542183228E+02  0.38400062929E+02  0.48909097312E+02  0.10000000000E+01 0.  0.
<mgrwt>
<rscale>  0 0.12500713E+03</rscale>
<asrwt>0</asrwt>
<pdfrwt beam="2">  1        4 0.12905451E-01 0.12500713E+03</pdfrwt>
<pdfrwt beam="1">  1       -4 0.71648925E-02 0.12500713E+03</pdfrwt>
<totfact> 0.10333073E+04</totfact>
</mgrwt>
</event>
<event>
 5    1  0.3284464E-002  0.1250004E+03  0.7818608E-02  0.1235069E+00
         -4   -1    0    0    0  501 -0.00000000000E+00  0.00000000000E+00  0.27578800008E+03  0.27579092423E+03  0.12700000000E+01 0.  1.
          4   -1    0    0  501    0  0.00000000000E+00 -0.00000000000E+00 -0.14132567883E+02  0.14189516375E+02  0.12700000000E+01 0.  1.
         25    2    1    2    0    0  0.00000000000E+00  0.00000000000E+00  0.26165543220E+03  0.28998044060E+03  0.12500036294E+03 0.  0.
    9000005    1    3    3    0    0  0.57981082089E+02 -0.70038021066E+01  0.18241024356E+03  0.19153421647E+03  0.10000000000E+01 0.  0.
    9000005    1    3    3    0    0 -0.57981082089E+02  0.70038021066E+01  0.79245188640E+02  0.98446224137E+02  0.10000000000E+01 0.  0.
<mgrwt>
<rscale>  0 0.12500036E+03</rscale>
<asrwt>0</asrwt>
<pdfrwt beam="2">  1        4 0.21788467E-02 0.12500036E+03</pdfrwt>
<pdfrwt beam="1">  1       -4 0.42433531E-01 0.12500036E+03</pdfrwt>
<totfact> 0.76872489E+03</totfact>
</mgrwt>
</event>
<event>
 5    1  0.3284464E-002  0.1250035E+03  0.7818608E-02  0.1235064E+00
          4   -1    0    0  501    0  0.00000000000E+00  0.00000000000E+00  0.62333636264E+01  0.63614245338E+01  0.12700000000E+01 0. -1.
         -4   -1    0    0    0  501 -0.00000000000E+00 -0.00000000000E+00 -0.62020213025E+03  0.62020343055E+03  0.12700000000E+01 0. -1.
         25    2    1    2    0    0  0.00000000000E+00  0.00000000000E+00 -0.61396876662E+03  0.62656485508E+03  0.12500348490E+03 0.  0.
    9000005    1    3    3    0    0  0.11361989240E+01 -0.40592385342E+02 -0.68886609340E+02  0.79971230090E+02  0.10000000000E+01 0.  0.
    9000005    1    3    3    0    0 -0.11361989240E+01  0.40592385342E+02 -0.54508215728E+03  0.54659362499E+03  0.10000000000E+01 0.  0.
<mgrwt>
<rscale>  0 0.12500348E+03</rscale>
<asrwt>0</asrwt>
<pdfrwt beam="1">  1        4 0.96893037E-03 0.12500348E+03</pdfrwt>
<pdfrwt beam="2">  1       -4 0.95425615E-01 0.12500348E+03</pdfrwt>
<totfact> 0.47228988E+03</totfact>
</mgrwt>
</event>
<event>
 5    1  0.3284464E-002  0.1249979E+03  0.7818608E-02  0.1235073E+00
         -4   -1    0    0    0  501 -0.00000000000E+00  0.00000000000E+00  0.10196589752E+02  0.10275375544E+02  0.12700000000E+01 0. -1.
          4   -1    0    0  501    0  0.00000000000E+00 -0.00000000000E+00 -0.38152650405E+03  0.38152861779E+03  0.12700000000E+01 0. -1.
         25    2    1    2    0    0  0.00000000000E+00  0.00000000000E+00 -0.37132991430E+03  0.39180399334E+03  0.12499785574E+03 0.  0.
    9000005    1    3    3    0    0 -0.35299446048E+02  0.51258450132E+02 -0.20329525759E+03  0.21261100950E+03  0.10000000000E+01 0.  0.
    9000005    1    3    3    0    0  0.35299446048E+02 -0.51258450132E+02 -0.16803465671E+03  0.17919298384E+03  0.10000000000E+01 0.  0.
<mgrwt>
<rscale>  0 0.12499786E+03</rscale>
<asrwt>0</asrwt>
<pdfrwt beam="2">  1        4 0.58702597E-01 0.12499786E+03</pdfrwt>
<pdfrwt beam="1">  1       -4 0.15749294E-02 0.12499786E+03</pdfrwt>
<totfact> 0.65360906E+03</totfact>
</mgrwt>
</event>
<event>
 5    1  0.3284464E-002  0.1250441E+03  0.7818608E-02  0.1235000E+00
         -4   -1    0    0    0  501 -0.00000000000E+00  0.00000000000E+00  0.33153476455E+02  0.33177792288E+02  0.12700000000E+01 0.  1.
          4   -1    0    0  501    0  0.00000000000E+00 -0.00000000000E+00 -0.11783551669E+03  0.11784236035E+03  0.12700000000E+01 0.  1.
         25    2    1    2    0    0  0.00000000000E+00  0.00000000000E+00 -0.84682040234E+02  0.15102015264E+03  0.12504414647E+03 0.  0.
    9000005    1    3    3    0    0 -0.71335010498E+01  0.18912499756E+02  0.29103812651E+02  0.35448573950E+02  0.10000000000E+01 0.  0.
    9000005    1    3    3    0    0  0.71335010498E+01 -0.18912499756E+02 -0.11378585289E+03  0.11557157869E+03  0.10000000000E+01 0.  0.
<mgrwt>
<rscale>  0 0.12504415E+03</rscale>
<asrwt>0</asrwt>
<pdfrwt beam="2">  1        4 0.18130938E-01 0.12504415E+03</pdfrwt>
<pdfrwt beam="1">  1       -4 0.51029318E-02 0.12504415E+03</pdfrwt>
<totfact> 0.99002348E+03</totfact>
</mgrwt>
</event>
<event>
 5    1  0.3284464E-002  0.1250002E+03  0.7818608E-02  0.1235069E+00
          4   -1    0    0  501    0  0.00000000000E+00  0.00000000000E+00  0.27481568593E+03  0.27481862042E+03  0.12700000000E+01 0. -1.
         -4   -1    0    0    0  501 -0.00000000000E+00 -0.00000000000E+00 -0.14182740408E+02  0.14239488245E+02  0.12700000000E+01 0. -1.
         25    2    1    2    0    0  0.00000000000E+00  0.00000000000E+00  0.26063294552E+03  0.28905810867E+03  0.12500023159E+03 0.  0.
    9000005    1    3    3    0    0 -0.52450167935E+02 -0.27560205135E+02  0.84375879763E+02  0.10310613032E+03  0.10000000000E+01 0.  0.
    9000005    1    3    3    0    0  0.52450167935E+02  0.27560205135E+02  0.17625706576E+03  0.18595197835E+03  0.10000000000E+01 0.  0.
<mgrwt>
<rscale>  0 0.12500023E+03</rscale>
<asrwt>0</asrwt>
<pdfrwt beam="1">  1        4 0.42283925E-01 0.12500023E+03</pdfrwt>
<pdfrwt beam="2">  1       -4 0.21865511E-02 0.12500023E+03</pdfrwt>
<totfact> 0.76991798E+03</totfact>
</mgrwt>
</event>
<event>
 5    1  0.3284464E-002  0.1249979E+03  0.7818608E-02  0.1235072E+00
         -4   -1    0    0    0  501 -0.00000000000E+00  0.00000000000E+00  0.12330677420E+02  0.12395906810E+02  0.12700000000E+01 0. -1.
          4   -1    0    0  501    0  0.00000000000E+00 -0.00000000000E+00 -0.31587858956E+03  0.31588114259E+03  0.12700000000E+01 0. -1.
         25    2    1    2    0    0  0.00000000000E+00  0.00000000000E+00 -0.30354791214E+03  0.32827704940E+03  0.12499794477E+03 0.  0.
    9000005    1    3    3    0    0 -0.27758528192E+02  0.55788892217E+02 -0.13940397601E+03  0.15270037626E+03  0.10000000000E+01 0.  0.
    9000005    1    3    3    0    0  0.27758528192E+02 -0.55788892217E+02 -0.16414393613E+03  0.17557667314E+03  0.10000000000E+01 0.  0.
<mgrwt>
<rscale>  0 0.12499794E+03</rscale>
<asrwt>0</asrwt>
<pdfrwt beam="2">  1        4 0.48601914E-01 0.12499794E+03</pdfrwt>
<pdfrwt beam="1">  1       -4 0.19022416E-02 0.12499794E+03</pdfrwt>
<totfact> 0.72185665E+03</totfact>
</mgrwt>
</event>
<event>
 5    1  0.3284464E-002  0.1250003E+03  0.7818608E-02  0.1235069E+00
          4   -1    0    0  501    0  0.00000000000E+00  0.00000000000E+00  0.95783985791E+01  0.96622264174E+01  0.12700000000E+01 0.  1.
         -4   -1    0    0    0  501 -0.00000000000E+00 -0.00000000000E+00 -0.40595925819E+03  0.40596124472E+03  0.12700000000E+01 0.  1.
         25    2    1    2    0    0  0.00000000000E+00  0.00000000000E+00 -0.39638085961E+03  0.41562347113E+03  0.12500033556E+03 0.  0.
    9000005    1    3    3    0    0 -0.60740631727E+02  0.89730161095E+01 -0.23687061220E+03  0.24470109580E+03  0.10000000000E+01 0.  0.
    9000005    1    3    3    0    0  0.60740631727E+02 -0.89730161095E+01 -0.15951024741E+03  0.17092237533E+03  0.10000000000E+01 0.  0.
<mgrwt>
<rscale>  0 0.12500034E+03</rscale>
<asrwt>0</asrwt>
<pdfrwt beam="1">  1        4 0.14802012E-02 0.12500034E+03</pdfrwt>
<pdfrwt beam="2">  1       -4 0.62461858E-01 0.12500034E+03</pdfrwt>
<totfact> 0.63060653E+03</totfact>
</mgrwt>
</event>
<event>
 5    1  0.3284464E-002  0.1249986E+03  0.7818608E-02  0.1235071E+00
         -4   -1    0    0    0  501 -0.00000000000E+00  0.00000000000E+00  0.63507760995E+01  0.64765158122E+01  0.12700000000E+01 0. -1.
          4   -1    0    0  501    0  0.00000000000E+00 -0.00000000000E+00 -0.60891288057E+03  0.60891420498E+03  0.12700000000E+01 0. -1.
         25    2    1    2    0    0  0.00000000000E+00  0.00000000000E+00 -0.60256210447E+03  0.61539072079E+03  0.12499859796E+03 0.  0.
    9000005    1    3    3    0    0 -0.44031175804E+02 -0.11663102752E+02 -0.51190978489E+03  0.51393326442E+03  0.10000000000E+01 0.  0.
    9000005    1    3    3    0    0  0.44031175804E+02  0.11663102752E+02 -0.90652319585E+02  0.10145745638E+03  0.10000000000E+01 0.  0.
<mgrwt>
<rscale>  0 0.12499860E+03</rscale>
<asrwt>0</asrwt>
<pdfrwt beam="2">  1        4 0.93688633E-01 0.12499860E+03</pdfrwt>
<pdfrwt beam="1">  1       -4 0.98681712E-03 0.12499860E+03</pdfrwt>
<totfact> 0.47911785E+03</totfact>
</mgrwt>
</event>
<event>
 5    1  0.3284464E-002  0.1250034E+03  0.7818608E-02  0.1235064E+00
          4   -1    0    0  501    0  0.00000000000E+00  0.00000000000E+00  0.12417998453E+02  0.12482771550E+02  0.12700000000E+01 0.  1.
         -4   -1    0    0    0  501 -0.00000000000E+00 -0.00000000000E+00 -0.31369621415E+03  0.31369878494E+03  0.12700000000E+01 0.  1.
         25    2    1    2    0    0  0.00000000000E+00  0.00000000000E+00 -0.30127821570E+03  0.32618155649E+03  0.12500337811E+03 0.  0.
    9000005    1    3    3    0    0  0.55666959652E+02 -0.18882508436E+02 -0.95279508810E+02  0.11195777919E+03  0.10000000000E+01 0.  0.
    9000005    1    3    3    0    0 -0.55666959652E+02  0.18882508436E+02 -0.20599870689E+03  0.21422377730E+03  0.10000000000E+01 0.  0.
<mgrwt>
<rscale>  0 0.12500338E+03</rscale>
<asrwt>0</asrwt>
<pdfrwt beam="1">  1        4 0.19156418E-02 0.12500338E+03</pdfrwt>
<pdfrwt beam="2">  1       -4 0.48266130E-01 0.12500338E+03</pdfrwt>
<totfact> 0.72421475E+03</totfact>
</mgrwt>
</event>
<event>
 5    1  0.3284464E-002  0.1249656E+03  0.7818608E-02  0.1235123E+00
         -4   -1    0    0    0  501 -0.00000000000E+00  0.00000000000E+00  0.24855276171E+02  0.24887700849E+02  0.12700000000E+01 0.  1.
          4   -1    0    0  501    0  0.00000000000E+00 -0.00000000000E+00 -0.15693581230E+03  0.15694095094E+03  0.12700000000E+01 0.  1.
         25    2    1    2    0    0  0.00000000000E+00  0.00000000000E+00 -0.13208053613E+03  0.18182865179E+03  0.12496555761E+03 0.  0.
    9000005    1    3    3    0    0 -0.26567901749E+02 -0.21539823590E+02 -0.14211038227E+03  0.14617174198E+03  0.10000000000E+01 0.  0.
    9000005    1    3    3    0    0  0.26567901749E+02  0.21539823590E+02  0.10029846143E+02  0.35656909811E+02  0.10000000000E+01 0.  0.
<mgrwt>
<rscale>  0 0.12496556E+03</rscale>
<asrwt>0</asrwt>
<pdfrwt beam="2">  1        4 0.24146860E-01 0.12496556E+03</pdfrwt>
<pdfrwt beam="1">  1       -4 0.38267782E-02 0.12496556E+03</pdfrwt>
<totfact> 0.93360939E+03</totfact>
</mgrwt>
</event>
<event>
 5    1  0.3284464E-002  0.1250338E+03  0.7818608E-02  0.1235016E+00
         -4   -1    0    0    0  501 -0.00000000000E+00  0.00000000000E+00  0.30539432281E+02  0.30565827717E+02  0.12700000000E+01 0.  1.
          4   -1    0    0  501    0  0.00000000000E+00 -0.00000000000E+00 -0.12789281398E+03  0.12789911950E+03  0.12700000000E+01 0.  1.
         25    2    1    2    0    0  0.00000000000E+00  0.00000000000E+00 -0.97353381704E+02  0.15846494722E+03  0.12503382969E+03 0.  0.
    9000005    1    3    3    0    0 -0.38553039503E+02  0.17043596719E+02  0.98226388235E+01  0.43293247481E+02  0.10000000000E+01 0.  0.
    9000005    1    3    3    0    0  0.38553039503E+02 -0.17043596719E+02 -0.10717602053E+03  0.11517169974E+03  0.10000000000E+01 0.  0.
<mgrwt>
<rscale>  0 0.12503383E+03</rscale>
<asrwt>0</asrwt>
<pdfrwt beam="2">  1        4 0.19678333E-01 0.12503383E+03</pdfrwt>
<pdfrwt beam="1">  1       -4 0.47008897E-02 0.12503383E+03</pdfrwt>
<totfact> 0.97565329E+03</totfact>
</mgrwt>
</event>
<event>
 5    1  0.3284464E-002  0.1249995E+03  0.7818608E-02  0.1235070E+00
         -4   -1    0    0    0  501 -0.00000000000E+00  0.00000000000E+00  0.12482582983E+02  0.12547022671E+02  0.12700000000E+01 0. -1.
          4   -1    0    0  501    0  0.00000000000E+00 -0.00000000000E+00 -0.31206222226E+03  0.31206480651E+03  0.12700000000E+01 0. -1.
         25    2    1    2    0    0  0.00000000000E+00  0.00000000000E+00 -0.29957963928E+03  0.32461182918E+03  0.12499951750E+03 0.  0.
    9000005    1    3    3    0    0 -0.37447759155E+02  0.24125889927E+02 -0.26360497287E+03  0.26734430039E+03  0.10000000000E+01 0.  0.
    9000005    1    3    3    0    0  0.37447759155E+02 -0.24125889927E+02 -0.35974666410E+02  0.57267528791E+02  0.10000000000E+01 0.  0.
<mgrwt>
<rscale>  0 0.12499952E+03</rscale>
<asrwt>0</asrwt>
<pdfrwt beam="2">  1        4 0.48014723E-01 0.12499952E+03</pdfrwt>
<pdfrwt beam="1">  1       -4 0.19255533E-02 0.12499952E+03</pdfrwt>
<totfact> 0.72611725E+03</totfact>
</mgrwt>
</event>
<event>
 5    1  0.3284464E-002  0.1250042E+03  0.7818608E-02  0.1235063E+00
         -4   -1    0    0    0  501 -0.00000000000E+00  0.00000000000E+00  0.72214023795E+02  0.72225190430E+02  0.12700000000E+01 0. -1.
          4   -1    0    0  501    0  0.00000000000E+00 -0.00000000000E+00 -0.54073466868E+02  0.54088378781E+02  0.12700000000E+01 0. -1.
         25    2    1    2    0    0  0.00000000000E+00  0.00000000000E+00  0.18140556927E+02  0.12631356921E+03  0.12500415178E+03 0.  0.
    9000005    1    3    3    0    0  0.33083844314E+02  0.18868254213E+02 -0.40996261388E+02  0.55966465133E+02  0.10000000000E+01 0.  0.
    9000005    1    3    3    0    0 -0.33083844314E+02 -0.18868254213E+02  0.59136818315E+02  0.70347104078E+02  0.10000000000E+01 0.  0.
<mgrwt>
<rscale>  0 0.12500415E+03</rscale>
<asrwt>0</asrwt>
<pdfrwt beam="2">  1        4 0.83210009E-02 0.12500415E+03</pdfrwt>
<pdfrwt beam="1">  1       -4 0.11111856E-01 0.12500415E+03</pdfrwt>
<totfact> 0.10423120E+04</totfact>
</mgrwt>
</event>
<event>
 5    1  0.3284464E-002  0.1250006E+03  0.7818608E-02  0.1235068E+00
         -4   -1    0    0    0  501 -0.00000000000E+00  0.00000000000E+00  0.29597430708E+03  0.29597703180E+03  0.12700000000E+01 0.  1.
          4   -1    0    0  501    0  0.00000000000E+00 -0.00000000000E+00 -0.13164716273E+02  0.13225832849E+02  0.12700000000E+01 0.  1.
         25    2    1    2    0    0  0.00000000000E+00  0.00000000000E+00  0.28280959081E+03  0.30920286465E+03  0.12500058741E+03 0.  0.
    9000005    1    3    3    0    0  0.89118324823E+01 -0.54032532102E+02  0.66935067503E+02  0.86488372312E+02  0.10000000000E+01 0.  0.
    9000005    1    3    3    0    0 -0.89118324823E+01  0.54032532102E+02  0.21587452331E+03  0.22271449234E+03  0.10000000000E+01 0.  0.
<mgrwt>
<rscale>  0 0.12500059E+03</rscale>
<asrwt>0</asrwt>
<pdfrwt beam="2">  1        4 0.20302519E-02 0.12500059E+03</pdfrwt>
<pdfrwt beam="1">  1       -4 0.45539418E-01 0.12500059E+03</pdfrwt>
<totfact> 0.74457790E+03</totfact>
</mgrwt>
</event>
<event>
 5    1  0.3284464E-002  0.1249909E+03  0.7818608E-02  0.1235083E+00
         -4   -1    0    0    0  501 -0.00000000000E+00  0.00000000000E+00  0.11597603652E+03  0.11598298990E+03  0.12700000000E+01 0.  1.
          4   -1    0    0  501    0  0.00000000000E+00 -0.00000000000E+00 -0.33656707556E+02  0.33680660081E+02  0.12700000000E+01 0.  1.
         25    2    1    2    0    0  0.00000000000E+00  0.00000000000E+00  0.82319328963E+02  0.14966364998E+03  0.12499094449E+03 0.  0.
    9000005    1    3    3    0    0 -0.30731851280E+02 -0.53740301446E+02  0.51335231365E+02  0.80428680592E+02  0.10000000000E+01 0.  0.
    9000005    1    3    3    0    0  0.30731851280E+02  0.53740301446E+02  0.30984097598E+02  0.69234969391E+02  0.10000000000E+01 0.  0.
<mgrwt>
<rscale>  0 0.12499094E+03</rscale>
<asrwt>0</asrwt>
<pdfrwt beam="2">  1        4 0.51803324E-02 0.12499094E+03</pdfrwt>
<pdfrwt beam="1">  1       -4 0.17844844E-01 0.12499094E+03</pdfrwt>
<totfact> 0.99391042E+03</totfact>
</mgrwt>
</event>
<event>
 5    1  0.3284464E-002  0.1249994E+03  0.7818608E-02  0.1235070E+00
          4   -1    0    0  501    0  0.00000000000E+00  0.00000000000E+00  0.19099241623E+03  0.19099663860E+03  0.12700000000E+01 0.  1.
         -4   -1    0    0    0  501 -0.00000000000E+00 -0.00000000000E+00 -0.20428022624E+02  0.20467462186E+02  0.12700000000E+01 0.  1.
         25    2    1    2    0    0  0.00000000000E+00  0.00000000000E+00  0.17056439361E+03  0.21146410079E+03  0.12499941422E+03 0.  0.
    9000005    1    3    3    0    0 -0.47202007241E+02 -0.17380200372E+01  0.16062838912E+02  0.49900551050E+02  0.10000000000E+01 0.  0.
    9000005    1    3    3    0    0  0.47202007241E+02  0.17380200372E+01  0.15450155469E+03  0.16156354974E+03  0.10000000000E+01 0.  0.
<mgrwt>
<rscale>  0 0.12499941E+03</rscale>
<asrwt>0</asrwt>
<pdfrwt beam="1">  1        4 0.29386806E-01 0.12499941E+03</pdfrwt>
<pdfrwt beam="2">  1       -4 0.31461314E-02 0.12499941E+03</pdfrwt>
<totfact> 0.88238487E+03</totfact>
</mgrwt>
</event>
<event>
 5    1  0.3284464E-002  0.1250020E+03  0.7818608E-02  0.1235066E+00
         -4   -1    0    0    0  501 -0.00000000000E+00  0.00000000000E+00  0.17383007519E+02  0.17429338783E+02  0.12700000000E+01 0. -1.
          4   -1    0    0  501    0  0.00000000000E+00 -0.00000000000E+00 -0.22437667201E+03  0.22438026616E+03  0.12700000000E+01 0. -1.
         25    2    1    2    0    0  0.00000000000E+00  0.00000000000E+00 -0.20699366449E+03  0.24180960494E+03  0.12500203160E+03 0.  0.
    9000005    1    3    3    0    0 -0.39347535394E+02  0.48179742102E+02 -0.91912607361E+02  0.11098848356E+03  0.10000000000E+01 0.  0.
    9000005    1    3    3    0    0  0.39347535394E+02 -0.48179742102E+02 -0.11508105713E+03  0.13082112139E+03  0.10000000000E+01 0.  0.
<mgrwt>
<rscale>  0 0.12500203E+03</rscale>
<asrwt>0</asrwt>
<pdfrwt beam="2">  1        4 0.34523326E-01 0.12500203E+03</pdfrwt>
<pdfrwt beam="1">  1       -4 0.26781494E-02 0.12500203E+03</pdfrwt>
<totfact> 0.83524813E+03</totfact>
</mgrwt>
</event>
<event>
 5    1  0.3284464E-002  0.1250178E+03  0.7818608E-02  0.1235041E+00
         -4   -1    0    0    0  501 -0.00000000000E+00  0.00000000000E+00  0.12430054984E+03  0.12430703758E+03  0.12700000000E+01 0.  1.
          4   -1    0    0  501    0  0.00000000000E+00 -0.00000000000E+00 -0.31414679165E+02  0.31440339805E+02  0.12700000000E+01 0.  1.
         25    2    1    2    0    0  0.00000000000E+00  0.00000000000E+00  0.92885870678E+02  0.15574737738E+03  0.12501784109E+03 0.  0.
    9000005    1    3    3    0    0  0.14592708383E+02 -0.86551502232E+01 -0.28497018125E+02  0.33180397908E+02  0.10000000000E+01 0.  0.
    9000005    1    3    3    0    0 -0.14592708383E+02  0.86551502232E+01  0.12138288880E+03  0.12256697947E+03  0.10000000000E+01 0.  0.
<mgrwt>
<rscale>  0 0.12501784E+03</rscale>
<asrwt>0</asrwt>
<pdfrwt beam="2">  1        4 0.48355007E-02 0.12501784E+03</pdfrwt>
<pdfrwt beam="1">  1       -4 0.19125634E-01 0.12501784E+03</pdfrwt>
<totfact> 0.98129603E+03</totfact>
</mgrwt>
</event>
<event>
 5    1  0.3284464E-002  0.1250008E+03  0.7818608E-02  0.1235068E+00
         -4   -1    0    0    0  501 -0.00000000000E+00  0.00000000000E+00  0.35117088223E+03  0.35117317868E+03  0.12700000000E+01 0. -1.
          4   -1    0    0  501    0  0.00000000000E+00 -0.00000000000E+00 -0.11085046488E+02  0.11157560470E+02  0.12700000000E+01 0. -1.
         25    2    1    2    0    0  0.00000000000E+00  0.00000000000E+00  0.34008583574E+03  0.36233073915E+03  0.12500075545E+03 0.  0.
    9000005    1    3    3    0    0  0.45586046076E+01 -0.61843665585E+02  0.14761319600E+03  0.16011269619E+03  0.10000000000E+01 0.  0.
    9000005    1    3    3    0    0 -0.45586046076E+01  0.61843665585E+02  0.19247263974E+03  0.20221804296E+03  0.10000000000E+01 0.  0.
<mgrwt>
<rscale>  0 0.12500076E+03</rscale>
<asrwt>0</asrwt>
<pdfrwt beam="2">  1        4 0.17111461E-02 0.12500076E+03</pdfrwt>
<pdfrwt beam="1">  1       -4 0.54032054E-01 0.12500076E+03</pdfrwt>
<totfact> 0.68387840E+03</totfact>
</mgrwt>
</event>
<event>
 5    1  0.3284464E-002  0.1249963E+03  0.7818608E-02  0.1235075E+00
          4   -1    0    0  501    0  0.00000000000E+00  0.00000000000E+00  0.28057307803E+03  0.28057595231E+03  0.12700000000E+01 0.  1.
         -4   -1    0    0    0  501 -0.00000000000E+00 -0.00000000000E+00 -0.13889656409E+02  0.13947596753E+02  0.12700000000E+01 0.  1.
         25    2    1    2    0    0  0.00000000000E+00  0.00000000000E+00  0.26668342162E+03  0.29452354906E+03  0.12499629429E+03 0.  0.
    9000005    1    3    3    0    0  0.17571971390E+02  0.51038727281E+02  0.20752802683E+03  0.21443555625E+03  0.10000000000E+01 0.  0.
    9000005    1    3    3    0    0 -0.17571971390E+02 -0.51038727281E+02  0.59155394783E+02  0.80087992814E+02  0.10000000000E+01 0.  0.
<mgrwt>
<rscale>  0 0.12499629E+03</rscale>
<asrwt>0</asrwt>
<pdfrwt beam="1">  1        4 0.43169766E-01 0.12499629E+03</pdfrwt>
<pdfrwt beam="2">  1       -4 0.21415483E-02 0.12499629E+03</pdfrwt>
<totfact> 0.76297248E+03</totfact>
</mgrwt>
</event>
<event>
 5    1  0.3284464E-002  0.1250033E+03  0.7818608E-02  0.1235064E+00
         -4   -1    0    0    0  501 -0.00000000000E+00  0.00000000000E+00  0.47494155127E+01  0.49162839332E+01  0.12700000000E+01 0. -1.
          4   -1    0    0  501    0  0.00000000000E+00 -0.00000000000E+00 -0.80814634889E+03  0.80814734679E+03  0.12700000000E+01 0. -1.
         25    2    1    2    0    0  0.00000000000E+00  0.00000000000E+00 -0.80339693337E+03  0.81306363072E+03  0.12500334014E+03 0.  0.
    9000005    1    3    3    0    0  0.37817869034E+02 -0.36108433823E+02 -0.17907828807E+03  0.18655841838E+03  0.10000000000E+01 0.  0.
    9000005    1    3    3    0    0 -0.37817869034E+02  0.36108433823E+02 -0.62431864530E+03  0.62650521234E+03  0.10000000000E+01 0.  0.
<mgrwt>
<rscale>  0 0.12500334E+03</rscale>
<asrwt>0</asrwt>
<pdfrwt beam="2">  1        4 0.12434301E+00 0.12500334E+03</pdfrwt>
<pdfrwt beam="1">  1       -4 0.74359275E-03 0.12500334E+03</pdfrwt>
<totfact> 0.37685425E+03</totfact>
</mgrwt>
</event>
<event>
 5    1  0.3284464E-002  0.1250029E+03  0.7818608E-02  0.1235065E+00
          4   -1    0    0  501    0  0.00000000000E+00  0.00000000000E+00  0.37380960129E+02  0.37402527724E+02  0.12700000000E+01 0.  1.
         -4   -1    0    0    0  501 -0.00000000000E+00 -0.00000000000E+00 -0.10444766038E+03  0.10445538119E+03  0.12700000000E+01 0.  1.
         25    2    1    2    0    0  0.00000000000E+00  0.00000000000E+00 -0.67066700252E+02  0.14185790891E+03  0.12500289612E+03 0.  0.
    9000005    1    3    3    0    0 -0.43398743647E+02 -0.32520528495E+02  0.17086881146E+01  0.54267442714E+02  0.10000000000E+01 0.  0.
    9000005    1    3    3    0    0  0.43398743647E+02  0.32520528495E+02 -0.68775388366E+02  0.87590466197E+02  0.10000000000E+01 0.  0.
<mgrwt>
<rscale>  0 0.12500290E+03</rscale>
<asrwt>0</asrwt>
<pdfrwt beam="1">  1        4 0.57531699E-02 0.12500290E+03</pdfrwt>
<pdfrwt beam="2">  1       -4 0.16071124E-01 0.12500290E+03</pdfrwt>
<totfact> 0.10094565E+04</totfact>
</mgrwt>
</event>
<event>
 5    1  0.3284464E-002  0.1250010E+03  0.7818608E-02  0.1235068E+00
         -4   -1    0    0    0  501 -0.00000000000E+00  0.00000000000E+00  0.10817194817E+02  0.10891492263E+02  0.12700000000E+01 0.  1.
          4   -1    0    0  501    0  0.00000000000E+00 -0.00000000000E+00 -0.35980943613E+03  0.35981167745E+03  0.12700000000E+01 0.  1.
         25    2    1    2    0    0  0.00000000000E+00  0.00000000000E+00 -0.34899224131E+03  0.37070316971E+03  0.12500102215E+03 0.  0.
    9000005    1    3    3    0    0  0.12812857741E+02  0.60815460713E+02 -0.19385772589E+03  0.20357924126E+03  0.10000000000E+01 0.  0.
    9000005    1    3    3    0    0 -0.12812857741E+02 -0.60815460713E+02 -0.15513451543E+03  0.16712392845E+03  0.10000000000E+01 0.  0.
<mgrwt>
<rscale>  0 0.12500102E+03</rscale>
<asrwt>0</asrwt>
<pdfrwt beam="2">  1        4 0.55361176E-01 0.12500102E+03</pdfrwt>
<pdfrwt beam="1">  1       -4 0.16700717E-02 0.12500102E+03</pdfrwt>
<totfact> 0.67503915E+03</totfact>
</mgrwt>
</event>
<event>
 5    1  0.3284464E-002  0.1249980E+03  0.7818608E-02  0.1235072E+00
          4   -1    0    0  501    0  0.00000000000E+00  0.00000000000E+00  0.36394693340E+01  0.38546902643E+01  0.12700000000E+01 0.  1.
         -4   -1    0    0    0  501 -0.00000000000E+00 -0.00000000000E+00 -0.10422287573E+04  0.10422295311E+04  0.12700000000E+01 0.  1.
         25    2    1    2    0    0  0.00000000000E+00  0.00000000000E+00 -0.10385892880E+04  0.10460842213E+04  0.12499795621E+03 0.  0.
    9000005    1    3    3    0    0 -0.39311002626E+02 -0.30848368579E+02 -0.83333647730E+03  0.83483391233E+03  0.10000000000E+01 0.  0.
    9000005    1    3    3    0    0  0.39311002626E+02  0.30848368579E+02 -0.20525281067E+03  0.21125030901E+03  0.10000000000E+01 0.  0.
<mgrwt>
<rscale>  0 0.12499796E+03</rscale>
<asrwt>0</asrwt>
<pdfrwt beam="1">  1        4 0.57653417E-03 0.12499796E+03</pdfrwt>
<pdfrwt beam="2">  1       -4 0.16035927E+00 0.12499796E+03</pdfrwt>
<totfact> 0.29118693E+03</totfact>
</mgrwt>
</event>
<event>
 5    1  0.3284464E-002  0.1249980E+03  0.7818608E-02  0.1235072E+00
          4   -1    0    0  501    0  0.00000000000E+00  0.00000000000E+00  0.16277370769E+02  0.16326839839E+02  0.12700000000E+01 0. -1.
         -4   -1    0    0    0  501 -0.00000000000E+00 -0.00000000000E+00 -0.23955757206E+03  0.23956093845E+03  0.12700000000E+01 0. -1.
         25    2    1    2    0    0  0.00000000000E+00  0.00000000000E+00 -0.22328020129E+03  0.25588777829E+03  0.12499802714E+03 0.  0.
    9000005    1    3    3    0    0 -0.40347205802E+02  0.17807137623E+02 -0.21006457873E+02  0.48859619716E+02  0.10000000000E+01 0.  0.
    9000005    1    3    3    0    0  0.40347205802E+02 -0.17807137623E+02 -0.20227374342E+03  0.20702815857E+03  0.10000000000E+01 0.  0.
<mgrwt>
<rscale>  0 0.12499803E+03</rscale>
<asrwt>0</asrwt>
<pdfrwt beam="1">  1        4 0.25082753E-02 0.12499803E+03</pdfrwt>
<pdfrwt beam="2">  1       -4 0.36859073E-01 0.12499803E+03</pdfrwt>
<totfact> 0.81490219E+03</totfact>
</mgrwt>
</event>
<event>
 5    1  0.3284464E-002  0.1250031E+03  0.7818608E-02  0.1235064E+00
          4   -1    0    0  501    0  0.00000000000E+00  0.00000000000E+00  0.48712942293E+02  0.48729494630E+02  0.12700000000E+01 0.  1.
         -4   -1    0    0    0  501 -0.00000000000E+00 -0.00000000000E+00 -0.80157983190E+02  0.80168043316E+02  0.12700000000E+01 0.  1.
         25    2    1    2    0    0  0.00000000000E+00  0.00000000000E+00 -0.31445040897E+02  0.12889753795E+03  0.12500313873E+03 0.  0.
    9000005    1    3    3    0    0  0.35720505810E+02 -0.47912342941E+02 -0.34564706324E+02  0.69045391336E+02  0.10000000000E+01 0.  0.
    9000005    1    3    3    0    0 -0.35720505810E+02  0.47912342941E+02  0.31196654274E+01  0.59852146610E+02  0.10000000000E+01 0.  0.
<mgrwt>
<rscale>  0 0.12500314E+03</rscale>
<asrwt>0</asrwt>
<pdfrwt beam="1">  1        4 0.74963459E-02 0.12500314E+03</pdfrwt>
<pdfrwt beam="2">  1       -4 0.12334045E-01 0.12500314E+03</pdfrwt>
<totfact> 0.10367414E+04</totfact>
</mgrwt>
</event>
<event>
 5    1  0.3284464E-002  0.1249995E+03  0.7818608E-02  0.1235070E+00
          4   -1    0    0  501    0  0.00000000000E+00  0.00000000000E+00  0.84604643470E+02  0.84614174916E+02  0.12700000000E+01 0.  1.
         -4   -1    0    0    0  501 -0.00000000000E+00 -0.00000000000E+00 -0.46149410598E+02  0.46166882053E+02  0.12700000000E+01 0.  1.
         25    2    1    2    0    0  0.00000000000E+00  0.00000000000E+00  0.38455232872E+02  0.13078105697E+03  0.12499951971E+03 0.  0.
    9000005    1    3    3    0    0 -0.28176348441E+01 -0.54601239672E+02 -0.12437479493E+02  0.56079633879E+02  0.10000000000E+01 0.  0.
    9000005    1    3    3    0    0  0.28176348441E+01  0.54601239672E+02  0.50892712365E+02  0.74701423090E+02  0.10000000000E+01 0.  0.
<mgrwt>
<rscale>  0 0.12499952E+03</rscale>
<asrwt>0</asrwt>
<pdfrwt beam="1">  1        4 0.13018176E-01 0.12499952E+03</pdfrwt>
<pdfrwt beam="2">  1       -4 0.71019865E-02 0.12499952E+03</pdfrwt>
<totfact> 0.10327897E+04</totfact>
</mgrwt>
</event>
<event>
 5    1  0.3284464E-002  0.1250108E+03  0.7818608E-02  0.1235052E+00
         -4   -1    0    0    0  501 -0.00000000000E+00  0.00000000000E+00  0.18852267464E+03  0.18852695233E+03  0.12700000000E+01 0. -1.
          4   -1    0    0  501    0  0.00000000000E+00 -0.00000000000E+00 -0.20699918694E+02  0.20738841191E+02  0.12700000000E+01 0. -1.
         25    2    1    2    0    0  0.00000000000E+00  0.00000000000E+00  0.16782275595E+03  0.20926579352E+03  0.12501077923E+03 0.  0.
    9000005    1    3    3    0    0  0.55532757978E+02 -0.28344377457E+02  0.91137240770E+02  0.11042774831E+03  0.10000000000E+01 0.  0.
    9000005    1    3    3    0    0 -0.55532757978E+02  0.28344377457E+02  0.76685515175E+02  0.98838045204E+02  0.10000000000E+01 0.  0.
<mgrwt>
<rscale>  0 0.12501078E+03</rscale>
<asrwt>0</asrwt>
<pdfrwt beam="2">  1        4 0.31879260E-02 0.12501078E+03</pdfrwt>
<pdfrwt beam="1">  1       -4 0.29006811E-01 0.12501078E+03</pdfrwt>
<totfact> 0.88574578E+03</totfact>
</mgrwt>
</event>
<event>
 5    1  0.3284464E-002  0.1250043E+03  0.7818608E-02  0.1235063E+00
         -4   -1    0    0    0  501 -0.00000000000E+00  0.00000000000E+00  0.69941540154E+02  0.69953069548E+02  0.12700000000E+01 0. -1.
          4   -1    0    0  501    0  0.00000000000E+00 -0.00000000000E+00 -0.55830671294E+02  0.55845113996E+02  0.12700000000E+01 0. -1.
         25    2    1    2    0    0  0.00000000000E+00  0.00000000000E+00  0.14110868860E+02  0.12579818354E+03  0.12500426538E+03 0.  0.
    9000005    1    3    3    0    0 -0.20762361291E+02  0.57966009664E+02  0.17818342953E+02  0.64106374631E+02  0.10000000000E+01 0.  0.
    9000005    1    3    3    0    0  0.20762361291E+02 -0.57966009664E+02 -0.37074740928E+01  0.61691808913E+02  0.10000000000E+01 0.  0.
<mgrwt>
<rscale>  0 0.12500427E+03</rscale>
<asrwt>0</asrwt>
<pdfrwt beam="2">  1        4 0.85913319E-02 0.12500427E+03</pdfrwt>
<pdfrwt beam="1">  1       -4 0.10762235E-01 0.12500427E+03</pdfrwt>
<totfact> 0.10434381E+04</totfact>
</mgrwt>
</event>
<event>
 5    1  0.3284464E-002  0.1249986E+03  0.7818608E-02  0.1235071E+00
         -4   -1    0    0    0  501 -0.00000000000E+00  0.00000000000E+00  0.35573198715E+02  0.35595861653E+02  0.12700000000E+01 0. -1.
          4   -1    0    0  501    0  0.00000000000E+00 -0.00000000000E+00 -0.10974503177E+03  0.10975237992E+03  0.12700000000E+01 0. -1.
         25    2    1    2    0    0  0.00000000000E+00  0.00000000000E+00 -0.74171833059E+02  0.14534824158E+03  0.12499860203E+03 0.  0.
    9000005    1    3    3    0    0  0.56094731566E+02  0.18824956239E+02 -0.13709182396E+02  0.60744872778E+02  0.10000000000E+01 0.  0.
    9000005    1    3    3    0    0 -0.56094731566E+02 -0.18824956239E+02 -0.60462650663E+02  0.84603368799E+02  0.10000000000E+01 0.  0.
<mgrwt>
<rscale>  0 0.12499860E+03</rscale>
<asrwt>0</asrwt>
<pdfrwt beam="2">  1        4 0.16886159E-01 0.12499860E+03</pdfrwt>
<pdfrwt beam="1">  1       -4 0.54751084E-02 0.12499860E+03</pdfrwt>
<totfact> 0.10024233E+04</totfact>
</mgrwt>
</event>
<event>
 5    1  0.3284464E-002  0.1250030E+03  0.7818608E-02  0.1235065E+00
         -4   -1    0    0    0  501 -0.00000000000E+00  0.00000000000E+00  0.24846111278E+03  0.24846435854E+03  0.12700000000E+01 0.  1.
          4   -1    0    0  501    0  0.00000000000E+00 -0.00000000000E+00 -0.15693541949E+02  0.15744845471E+02  0.12700000000E+01 0.  1.
         25    2    1    2    0    0  0.00000000000E+00  0.00000000000E+00  0.23276757083E+03  0.26420920401E+03  0.12500304577E+03 0.  0.
    9000005    1    3    3    0    0  0.20872221077E+02  0.27189213451E+01  0.24075384873E+03  0.24167428043E+03  0.10000000000E+01 0.  0.
    9000005    1    3    3    0    0 -0.20872221077E+02 -0.27189213451E+01 -0.79862778951E+01  0.22534923576E+02  0.10000000000E+01 0.  0.
<mgrwt>
<rscale>  0 0.12500305E+03</rscale>
<asrwt>0</asrwt>
<pdfrwt beam="2">  1        4 0.24185874E-02 0.12500305E+03</pdfrwt>
<pdfrwt beam="1">  1       -4 0.38228979E-01 0.12500305E+03</pdfrwt>
<totfact> 0.80313522E+03</totfact>
</mgrwt>
</event>
<event>
 5    1  0.3284464E-002  0.1250182E+03  0.7818608E-02  0.1235041E+00
         -4   -1    0    0    0  501 -0.00000000000E+00  0.00000000000E+00  0.11797166596E+02  0.11865329312E+02  0.12700000000E+01 0.  1.
          4   -1    0    0  501    0  0.00000000000E+00 -0.00000000000E+00 -0.33019056861E+03  0.33019301098E+03  0.12700000000E+01 0.  1.
         25    2    1    2    0    0  0.00000000000E+00  0.00000000000E+00 -0.31839340201E+03  0.34205834029E+03  0.12501819754E+03 0.  0.
    9000005    1    3    3    0    0 -0.33859676225E+02 -0.20322184218E+02 -0.29174555064E+03  0.29440777022E+03  0.10000000000E+01 0.  0.
    9000005    1    3    3    0    0  0.33859676225E+02  0.20322184218E+02 -0.26647851373E+02  0.47650570073E+02  0.10000000000E+01 0.  0.
<mgrwt>
<rscale>  0 0.12501820E+03</rscale>
<asrwt>0</asrwt>
<pdfrwt beam="2">  1        4 0.50803973E-01 0.12501820E+03</pdfrwt>
<pdfrwt beam="1">  1       -4 0.18203801E-02 0.12501820E+03</pdfrwt>
<totfact> 0.70578727E+03</totfact>
</mgrwt>
</event>
<event>
 5    1  0.3284464E-002  0.1250006E+03  0.7818608E-02  0.1235068E+00
         -4   -1    0    0    0  501 -0.00000000000E+00  0.00000000000E+00  0.71987215657E+01  0.73098900252E+01  0.12700000000E+01 0. -1.
          4   -1    0    0  501    0  0.00000000000E+00 -0.00000000000E+00 -0.53836671284E+03  0.53836821079E+03  0.12700000000E+01 0. -1.
         25    2    1    2    0    0  0.00000000000E+00  0.00000000000E+00 -0.53116799127E+03  0.54567810082E+03  0.12500061904E+03 0.  0.
    9000005    1    3    3    0    0 -0.40983016751E+02  0.41827887024E+02 -0.36083674258E+03  0.36555893450E+03  0.10000000000E+01 0.  0.
    9000005    1    3    3    0    0  0.40983016751E+02 -0.41827887024E+02 -0.17033124869E+03  0.18011916632E+03  0.10000000000E+01 0.  0.
<mgrwt>
<rscale>  0 0.12500062E+03</rscale>
<asrwt>0</asrwt>
<pdfrwt beam="2">  1        4 0.82834283E-01 0.12500062E+03</pdfrwt>
<pdfrwt beam="1">  1       -4 0.11161627E-02 0.12500062E+03</pdfrwt>
<totfact> 0.52485977E+03</totfact>
</mgrwt>
</event>
<event>
 5    1  0.3284464E-002  0.1249978E+03  0.7818608E-02  0.1235073E+00
         -4   -1    0    0    0  501 -0.00000000000E+00  0.00000000000E+00  0.25777987669E+03  0.25778300512E+03  0.12700000000E+01 0. -1.
          4   -1    0    0  501    0  0.00000000000E+00 -0.00000000000E+00 -0.15123072058E+02  0.15176304177E+02  0.12700000000E+01 0. -1.
         25    2    1    2    0    0  0.00000000000E+00  0.00000000000E+00  0.24265680464E+03  0.27295930930E+03  0.12499783876E+03 0.  0.
    9000005    1    3    3    0    0 -0.50022766036E+02  0.14974206558E+02  0.46359588310E+02  0.69833483460E+02  0.10000000000E+01 0.  0.
    9000005    1    3    3    0    0  0.50022766036E+02 -0.14974206558E+02  0.19629721633E+03  0.20312582584E+03  0.10000000000E+01 0.  0.
<mgrwt>
<rscale>  0 0.12499784E+03</rscale>
<asrwt>0</asrwt>
<pdfrwt beam="2">  1        4 0.23309618E-02 0.12499784E+03</pdfrwt>
<pdfrwt beam="1">  1       -4 0.39662780E-01 0.12499784E+03</pdfrwt>
<totfact> 0.79124807E+03</totfact>
</mgrwt>
</event>
<event>
 5    1  0.3284464E-002  0.1250010E+03  0.7818608E-02  0.1235068E+00
         -4   -1    0    0    0  501 -0.00000000000E+00  0.00000000000E+00  0.56518003138E+03  0.56518145827E+03  0.12700000000E+01 0.  1.
          4   -1    0    0  501    0  0.00000000000E+00 -0.00000000000E+00 -0.68518412262E+01  0.69685456294E+01  0.12700000000E+01 0.  1.
         25    2    1    2    0    0  0.00000000000E+00  0.00000000000E+00  0.55832819015E+03  0.57215000390E+03  0.12500103616E+03 0.  0.
    9000005    1    3    3    0    0 -0.16263227136E+01 -0.59374506308E+02  0.36807631813E+03  0.37283931243E+03  0.10000000000E+01 0.  0.
    9000005    1    3    3    0    0  0.16263227136E+01  0.59374506308E+02  0.19025187202E+03  0.19931069146E+03  0.10000000000E+01 0.  0.
<mgrwt>
<rscale>  0 0.12500104E+03</rscale>
<asrwt>0</asrwt>
<pdfrwt beam="2">  1        4 0.10632162E-02 0.12500104E+03</pdfrwt>
<pdfrwt beam="1">  1       -4 0.86959880E-01 0.12500104E+03</pdfrwt>
<totfact> 0.50672972E+03</totfact>
</mgrwt>
</event>
<event>
 5    1  0.3284464E-002  0.1250033E+03  0.7818608E-02  0.1235064E+00
         -4   -1    0    0    0  501 -0.00000000000E+00  0.00000000000E+00  0.22978015781E+02  0.23013085608E+02  0.12700000000E+01 0. -1.
          4   -1    0    0  501    0  0.00000000000E+00 -0.00000000000E+00 -0.16984136219E+03  0.16984611038E+03  0.12700000000E+01 0. -1.
         25    2    1    2    0    0  0.00000000000E+00  0.00000000000E+00 -0.14686334641E+03  0.19285919599E+03  0.12500330779E+03 0.  0.
    9000005    1    3    3    0    0  0.64778798697E+01  0.11151537932E+02  0.20910208939E+02  0.24587731976E+02  0.10000000000E+01 0.  0.
    9000005    1    3    3    0    0 -0.64778798697E+01 -0.11151537932E+02 -0.16777355535E+03  0.16827146401E+03  0.10000000000E+01 0.  0.
<mgrwt>
<rscale>  0 0.12500331E+03</rscale>
<asrwt>0</asrwt>
<pdfrwt beam="2">  1        4 0.26132502E-01 0.12500331E+03</pdfrwt>
<pdfrwt beam="1">  1       -4 0.35381424E-02 0.12500331E+03</pdfrwt>
<totfact> 0.91345424E+03</totfact>
</mgrwt>
</event>
<event>
 5    1  0.3284464E-002  0.1249995E+03  0.7818608E-02  0.1235070E+00
         -4   -1    0    0    0  501 -0.00000000000E+00  0.00000000000E+00  0.15434619011E+03  0.15435141496E+03  0.12700000000E+01 0.  1.
          4   -1    0    0  501    0  0.00000000000E+00 -0.00000000000E+00 -0.25286571629E+02  0.25318443964E+02  0.12700000000E+01 0.  1.
         25    2    1    2    0    0  0.00000000000E+00  0.00000000000E+00  0.12905961848E+03  0.17966985893E+03  0.12499949234E+03 0.  0.
    9000005    1    3    3    0    0 -0.51011342146E+02  0.25388368978E+02  0.10141416628E+03  0.11632952948E+03  0.10000000000E+01 0.  0.
    9000005    1    3    3    0    0  0.51011342146E+02 -0.25388368978E+02  0.27645452199E+02  0.63340329445E+02  0.10000000000E+01 0.  0.
<mgrwt>
<rscale>  0 0.12499949E+03</rscale>
<asrwt>0</asrwt>
<pdfrwt beam="2">  1        4 0.38930955E-02 0.12499949E+03</pdfrwt>
<pdfrwt beam="1">  1       -4 0.23748421E-01 0.12499949E+03</pdfrwt>
<totfact> 0.93677530E+03</totfact>
</mgrwt>
</event>
<event>
 5    1  0.3284464E-002  0.1250026E+03  0.7818608E-02  0.1235065E+00
          4   -1    0    0  501    0  0.00000000000E+00  0.00000000000E+00  0.44488426888E+03  0.44488608159E+03  0.12700000000E+01 0. -1.
         -4   -1    0    0    0  501 -0.00000000000E+00 -0.00000000000E+00 -0.87329811110E+01  0.88248432895E+01  0.12700000000E+01 0. -1.
         25    2    1    2    0    0  0.00000000000E+00  0.00000000000E+00  0.43615128777E+03  0.45371092488E+03  0.12500263012E+03 0.  0.
    9000005    1    3    3    0    0 -0.57170942656E+02 -0.95253778170E+01  0.13325101466E+03  0.14531373787E+03  0.10000000000E+01 0.  0.
    9000005    1    3    3    0    0  0.57170942656E+02  0.95253778170E+01  0.30290027311E+03  0.30839718701E+03  0.10000000000E+01 0.  0.
<mgrwt>
<rscale>  0 0.12500263E+03</rscale>
<asrwt>0</asrwt>
<pdfrwt beam="1">  1        4 0.68450953E-01 0.12500263E+03</pdfrwt>
<pdfrwt beam="2">  1       -4 0.13507410E-02 0.12500263E+03</pdfrwt>
<totfact> 0.59640196E+03</totfact>
</mgrwt>
</event>
<event>
 5    1  0.3284464E-002  0.1250010E+03  0.7818608E-02  0.1235068E+00
         -4   -1    0    0    0  501 -0.00000000000E+00  0.00000000000E+00  0.21254093301E+03  0.21254472731E+03  0.12700000000E+01 0. -1.
          4   -1    0    0  501    0  0.00000000000E+00 -0.00000000000E+00 -0.18353202733E+02  0.18397090818E+02  0.12700000000E+01 0. -1.
         25    2    1    2    0    0  0.00000000000E+00  0.00000000000E+00  0.19418773028E+03  0.23094181812E+03  0.12500099507E+03 0.  0.
    9000005    1    3    3    0    0  0.61020012465E+02 -0.17379700217E+01  0.72386111874E+02  0.94695362364E+02  0.10000000000E+01 0.  0.
    9000005    1    3    3    0    0 -0.61020012465E+02  0.17379700217E+01  0.12180161840E+03  0.13624645576E+03  0.10000000000E+01 0.  0.
<mgrwt>
<rscale>  0 0.12500100E+03</rscale>
<asrwt>0</asrwt>
<pdfrwt beam="2">  1        4 0.28272375E-02 0.12500100E+03</pdfrwt>
<pdfrwt beam="1">  1       -4 0.32702273E-01 0.12500100E+03</pdfrwt>
<totfact> 0.85163298E+03</totfact>
</mgrwt>
</event>
<event>
 5    1  0.3284464E-002  0.1249995E+03  0.7818608E-02  0.1235070E+00
          4   -1    0    0  501    0  0.00000000000E+00  0.00000000000E+00  0.42903985731E+02  0.42922778238E+02  0.12700000000E+01 0. -1.
         -4   -1    0    0    0  501 -0.00000000000E+00 -0.00000000000E+00 -0.91002407539E+02  0.91011268961E+02  0.12700000000E+01 0. -1.
         25    2    1    2    0    0  0.00000000000E+00  0.00000000000E+00 -0.48098421808E+02  0.13393404720E+03  0.12499948327E+03 0.  0.
    9000005    1    3    3    0    0  0.44723475604E+02 -0.31698994808E+02 -0.56197125119E+02  0.78511988980E+02  0.10000000000E+01 0.  0.
    9000005    1    3    3    0    0 -0.44723475604E+02  0.31698994808E+02  0.80987033110E+01  0.55422058219E+02  0.10000000000E+01 0.  0.
<mgrwt>
<rscale>  0 0.12499948E+03</rscale>
<asrwt>0</asrwt>
<pdfrwt beam="1">  1        4 0.66027404E-02 0.12499948E+03</pdfrwt>
<pdfrwt beam="2">  1       -4 0.14002498E-01 0.12499948E+03</pdfrwt>
<totfact> 0.10260707E+04</totfact>
</mgrwt>
</event>
<event>
 5    1  0.3284464E-002  0.1249996E+03  0.7818608E-02  0.1235070E+00
         -4   -1    0    0    0  501 -0.00000000000E+00  0.00000000000E+00  0.26094284063E+02  0.26125171018E+02  0.12700000000E+01 0. -1.
          4   -1    0    0  501    0  0.00000000000E+00 -0.00000000000E+00 -0.14957447307E+03  0.14957986460E+03  0.12700000000E+01 0. -1.
         25    2    1    2    0    0  0.00000000000E+00  0.00000000000E+00 -0.12348018901E+03  0.17570503562E+03  0.12499960986E+03 0.  0.
    9000005    1    3    3    0    0 -0.11897367051E+02 -0.40730832985E+02 -0.12622652405E+03  0.13317163164E+03  0.10000000000E+01 0.  0.
    9000005    1    3    3    0    0  0.11897367051E+02  0.40730832985E+02  0.27463350428E+01  0.42533403985E+02  0.10000000000E+01 0.  0.
<mgrwt>
<rscale>  0 0.12499961E+03</rscale>
<asrwt>0</asrwt>
<pdfrwt beam="2">  1        4 0.23014248E-01 0.12499961E+03</pdfrwt>
<pdfrwt beam="1">  1       -4 0.40172960E-02 0.12499961E+03</pdfrwt>
<totfact> 0.94396700E+03</totfact>
</mgrwt>
</event>
<event>
 5    1  0.3284464E-002  0.1249987E+03  0.7818608E-02  0.1235071E+00
         -4   -1    0    0    0  501 -0.00000000000E+00  0.00000000000E+00  0.34522073648E+02  0.34545426166E+02  0.12700000000E+01 0. -1.
          4   -1    0    0  501    0  0.00000000000E+00 -0.00000000000E+00 -0.11308470222E+03  0.11309183338E+03  0.12700000000E+01 0. -1.
         25    2    1    2    0    0  0.00000000000E+00  0.00000000000E+00 -0.78562628576E+02  0.14763725955E+03  0.12499869518E+03 0.  0.
    9000005    1    3    3    0    0  0.31243003605E+02 -0.27138450273E+02 -0.94586393670E+02  0.10324827662E+03  0.10000000000E+01 0.  0.
    9000005    1    3    3    0    0 -0.31243003605E+02  0.27138450273E+02  0.16023765093E+02  0.44388982927E+02  0.10000000000E+01 0.  0.
<mgrwt>
<rscale>  0 0.12499870E+03</rscale>
<asrwt>0</asrwt>
<pdfrwt beam="2">  1        4 0.17399991E-01 0.12499870E+03</pdfrwt>
<pdfrwt beam="1">  1       -4 0.53134332E-02 0.12499870E+03</pdfrwt>
<totfact> 0.99779708E+03</totfact>
</mgrwt>
</event>
<event>
 5    1  0.3284464E-002  0.1249991E+03  0.7818608E-02  0.1235071E+00
          4   -1    0    0  501    0  0.00000000000E+00  0.00000000000E+00  0.37216325253E+03  0.37216541945E+03  0.12700000000E+01 0. -1.
         -4   -1    0    0    0  501 -0.00000000000E+00 -0.00000000000E+00 -0.10455297890E+02  0.10532148592E+02  0.12700000000E+01 0. -1.
         25    2    1    2    0    0  0.00000000000E+00  0.00000000000E+00  0.36170795464E+03  0.38269756804E+03  0.12499913654E+03 0.  0.
    9000005    1    3    3    0    0  0.54276615633E+02 -0.36187707580E+01  0.27502744832E+03  0.28035717190E+03  0.10000000000E+01 0.  0.
    9000005    1    3    3    0    0 -0.54276615633E+02  0.36187707580E+01  0.86680506321E+02  0.10234039614E+03  0.10000000000E+01 0.  0.
<mgrwt>
<rscale>  0 0.12499914E+03</rscale>
<asrwt>0</asrwt>
<pdfrwt beam="1">  1        4 0.57261963E-01 0.12499914E+03</pdfrwt>
<pdfrwt beam="2">  1       -4 0.16145856E-02 0.12499914E+03</pdfrwt>
<totfact> 0.66272388E+03</totfact>
</mgrwt>
</event>
<event>
 5    1  0.3284464E-002  0.1249867E+03  0.7818608E-02  0.1235090E+00
         -4   -1    0    0    0  501 -0.00000000000E+00  0.00000000000E+00  0.29124817734E+02  0.29152494028E+02  0.12700000000E+01 0. -1.
          4   -1    0    0  501    0  0.00000000000E+00 -0.00000000000E+00 -0.13399816337E+03  0.13400418160E+03  0.12700000000E+01 0. -1.
         25    2    1    2    0    0  0.00000000000E+00  0.00000000000E+00 -0.10487334564E+03  0.16315667563E+03  0.12498672801E+03 0.  0.
    9000005    1    3    3    0    0  0.12742937583E+02  0.23158988432E+02  0.21473180925E+02  0.34070789578E+02  0.10000000000E+01 0.  0.
    9000005    1    3    3    0    0 -0.12742937583E+02 -0.23158988432E+02 -0.12634652656E+03  0.12908588605E+03  0.10000000000E+01 0.  0.
<mgrwt>
<rscale>  0 0.12498673E+03</rscale>
<asrwt>0</asrwt>
<pdfrwt beam="2">  1        4 0.20617694E-01 0.12498673E+03</pdfrwt>
<pdfrwt beam="1">  1       -4 0.44833332E-02 0.12498673E+03</pdfrwt>
<totfact> 0.96766486E+03</totfact>
</mgrwt>
</event>
<event>
 5    1  0.3284464E-002  0.1250046E+03  0.7818608E-02  0.1235062E+00
         -4   -1    0    0    0  501 -0.00000000000E+00  0.00000000000E+00  0.92699492154E+02  0.92708191362E+02  0.12700000000E+01 0.  1.
          4   -1    0    0  501    0  0.00000000000E+00 -0.00000000000E+00 -0.42121693035E+02  0.42140834402E+02  0.12700000000E+01 0.  1.
         25    2    1    2    0    0  0.00000000000E+00  0.00000000000E+00  0.50577799119E+02  0.13484902576E+03  0.12500458386E+03 0.  0.
    9000005    1    3    3    0    0 -0.15482175934E+02  0.32923586137E+02 -0.29524858891E+02  0.46865526651E+02  0.10000000000E+01 0.  0.
    9000005    1    3    3    0    0  0.15482175934E+02 -0.32923586137E+02  0.80102658010E+02  0.87983499112E+02  0.10000000000E+01 0.  0.
<mgrwt>
<rscale>  0 0.12500458E+03</rscale>
<asrwt>0</asrwt>
<pdfrwt beam="2">  1        4 0.64824021E-02 0.12500458E+03</pdfrwt>
<pdfrwt beam="1">  1       -4 0.14263602E-01 0.12500458E+03</pdfrwt>
<totfact> 0.10240195E+04</totfact>
</mgrwt>
</event>
<event>
 4    1  0.3284464E-002  0.1256331E+03  0.7818608E-02  0.1234083E+00
          4   -1    0    0  501    0  0.00000000000E+00  0.00000000000E+00  0.77029597867E+03  0.77029702560E+03  0.12700000000E+01 0.  1.
         -4   -1    0    0    0  501 -0.00000000000E+00 -0.00000000000E+00 -0.50428234283E+01  0.52002853892E+01  0.12700000000E+01 0.  1.
    9000005    1    1    2    0    0  0.26866797853E+02  0.46931897042E+02  0.18543819908E+03  0.19316509381E+03  0.10000000000E+01 0.  0.
    9000005    1    1    2    0    0 -0.26866797853E+02 -0.46931897042E+02  0.57981495616E+03  0.58233221718E+03  0.10000000000E+01 0.  0.
<mgrwt>
<rscale>  0 0.12563315E+03</rscale>
<asrwt>0</asrwt>
<pdfrwt beam="1">  1        4 0.11851922E+00 0.12563315E+03</pdfrwt>
<pdfrwt beam="2">  1       -4 0.78801230E-03 0.12563315E+03</pdfrwt>
<totfact> 0.38842323E+03</totfact>
</mgrwt>
</event>
<event>
 5    1  0.3284464E-002  0.1250016E+03  0.7818608E-02  0.1235067E+00
          4   -1    0    0  501    0  0.00000000000E+00  0.00000000000E+00  0.71751215123E+02  0.71762453773E+02  0.12700000000E+01 0.  1.
         -4   -1    0    0    0  501 -0.00000000000E+00 -0.00000000000E+00 -0.54420054210E+02  0.54434871179E+02  0.12700000000E+01 0.  1.
         25    2    1    2    0    0  0.00000000000E+00  0.00000000000E+00  0.17331160912E+02  0.12619732495E+03  0.12500158274E+03 0.  0.
    9000005    1    3    3    0    0 -0.19119487292E+02 -0.59432382264E+02  0.11446208757E+02  0.63480536787E+02  0.10000000000E+01 0.  0.
    9000005    1    3    3    0    0  0.19119487292E+02  0.59432382264E+02  0.58849521554E+01  0.62716788165E+02  0.10000000000E+01 0.  0.
<mgrwt>
<rscale>  0 0.12500158E+03</rscale>
<asrwt>0</asrwt>
<pdfrwt beam="1">  1        4 0.11040653E-01 0.12500158E+03</pdfrwt>
<pdfrwt beam="2">  1       -4 0.83743203E-02 0.12500158E+03</pdfrwt>
<totfact> 0.10426265E+04</totfact>
</mgrwt>
</event>
<event>
 5    1  0.3284464E-002  0.1250009E+03  0.7818608E-02  0.1235068E+00
          4   -1    0    0  501    0  0.00000000000E+00  0.00000000000E+00  0.53885754332E+01  0.55362121707E+01  0.12700000000E+01 0.  1.
         -4   -1    0    0    0  501 -0.00000000000E+00 -0.00000000000E+00 -0.71497948194E+03  0.71498060987E+03  0.12700000000E+01 0.  1.
         25    2    1    2    0    0  0.00000000000E+00  0.00000000000E+00 -0.70959090650E+03  0.72051682204E+03  0.12500094500E+03 0.  0.
    9000005    1    3    3    0    0 -0.60347515997E+02 -0.13948014999E+01 -0.26157726899E+03  0.26845378710E+03  0.10000000000E+01 0.  0.
    9000005    1    3    3    0    0  0.60347515997E+02  0.13948014999E+01 -0.44801363752E+03  0.45206303494E+03  0.10000000000E+01 0.  0.
<mgrwt>
<rscale>  0 0.12500095E+03</rscale>
<asrwt>0</asrwt>
<pdfrwt beam="1">  1        4 0.84045561E-03 0.12500095E+03</pdfrwt>
<pdfrwt beam="2">  1       -4 0.11000821E+00 0.12500095E+03</pdfrwt>
<totfact> 0.42024676E+03</totfact>
</mgrwt>
</event>
<event>
 5    1  0.3284464E-002  0.1249992E+03  0.7818608E-02  0.1235071E+00
         -4   -1    0    0    0  501 -0.00000000000E+00  0.00000000000E+00  0.27972686979E+02  0.28001502046E+02  0.12700000000E+01 0. -1.
          4   -1    0    0  501    0  0.00000000000E+00 -0.00000000000E+00 -0.13953971770E+03  0.13954549693E+03  0.12700000000E+01 0. -1.
         25    2    1    2    0    0  0.00000000000E+00  0.00000000000E+00 -0.11156703072E+03  0.16754699898E+03  0.12499917810E+03 0.  0.
    9000005    1    3    3    0    0 -0.33921548900E+02  0.45540210693E+02 -0.90752312077E+02  0.10705869613E+03  0.10000000000E+01 0.  0.
    9000005    1    3    3    0    0  0.33921548900E+02 -0.45540210693E+02 -0.20814718640E+02  0.60488302851E+02  0.10000000000E+01 0.  0.
<mgrwt>
<rscale>  0 0.12499918E+03</rscale>
<asrwt>0</asrwt>
<pdfrwt beam="2">  1        4 0.21470310E-01 0.12499918E+03</pdfrwt>
<pdfrwt beam="1">  1       -4 0.43061515E-02 0.12499918E+03</pdfrwt>
<totfact> 0.95908964E+03</totfact>
</mgrwt>
</event>
<event>
 5    1  0.3284464E-002  0.1250003E+03  0.7818608E-02  0.1235069E+00
         -4   -1    0    0    0  501 -0.00000000000E+00  0.00000000000E+00  0.89899658875E+02  0.89908628984E+02  0.12700000000E+01 0. -1.
          4   -1    0    0  501    0  0.00000000000E+00 -0.00000000000E+00 -0.43431033190E+02  0.43449597742E+02  0.12700000000E+01 0. -1.
         25    2    1    2    0    0  0.00000000000E+00  0.00000000000E+00  0.46468625685E+02  0.13335822673E+03  0.12500033385E+03 0.  0.
    9000005    1    3    3    0    0  0.18140165819E+02 -0.55974764778E+02  0.45689965206E+02  0.74503777276E+02  0.10000000000E+01 0.  0.
    9000005    1    3    3    0    0 -0.18140165819E+02  0.55974764778E+02  0.77866047905E+00  0.58854449450E+02  0.10000000000E+01 0.  0.
<mgrwt>
<rscale>  0 0.12500033E+03</rscale>
<asrwt>0</asrwt>
<pdfrwt beam="2">  1        4 0.66838155E-02 0.12500033E+03</pdfrwt>
<pdfrwt beam="1">  1       -4 0.13832835E-01 0.12500033E+03</pdfrwt>
<totfact> 0.10272715E+04</totfact>
</mgrwt>
</event>
<event>
 5    1  0.3284464E-002  0.1249749E+03  0.7818608E-02  0.1235109E+00
          4   -1    0    0  501    0  0.00000000000E+00  0.00000000000E+00  0.24846720115E+02  0.24879155944E+02  0.12700000000E+01 0.  1.
         -4   -1    0    0    0  501 -0.00000000000E+00 -0.00000000000E+00 -0.15701325203E+03  0.15701838813E+03  0.12700000000E+01 0.  1.
         25    2    1    2    0    0  0.00000000000E+00  0.00000000000E+00 -0.13216653191E+03  0.18189754408E+03  0.12497489501E+03 0.  0.
    9000005    1    3    3    0    0 -0.29054432240E+02 -0.47438618534E+02 -0.24682844512E+02  0.60867276713E+02  0.10000000000E+01 0.  0.
    9000005    1    3    3    0    0  0.29054432240E+02  0.47438618534E+02 -0.10748368740E+03  0.12103026736E+03  0.10000000000E+01 0.  0.
<mgrwt>
<rscale>  0 0.12497490E+03</rscale>
<asrwt>0</asrwt>
<pdfrwt beam="1">  1        4 0.38254626E-02 0.12497490E+03</pdfrwt>
<pdfrwt beam="2">  1       -4 0.24158775E-01 0.12497490E+03</pdfrwt>
<totfact> 0.93329065E+03</totfact>
</mgrwt>
</event>
<event>
 5    1  0.3284464E-002  0.1249948E+03  0.7818608E-02  0.1235077E+00
          4   -1    0    0  501    0  0.00000000000E+00  0.00000000000E+00  0.18672724638E+03  0.18673156520E+03  0.12700000000E+01 0. -1.
         -4   -1    0    0    0  501 -0.00000000000E+00 -0.00000000000E+00 -0.20893960964E+02  0.20932522656E+02  0.12700000000E+01 0. -1.
         25    2    1    2    0    0  0.00000000000E+00  0.00000000000E+00  0.16583328542E+03  0.20766408785E+03  0.12499477922E+03 0.  0.
    9000005    1    3    3    0    0  0.41238563550E+02 -0.15651537624E+02  0.93766203833E+01  0.45105551360E+02  0.10000000000E+01 0.  0.
    9000005    1    3    3    0    0 -0.41238563550E+02  0.15651537624E+02  0.15645666503E+03  0.16255853650E+03  0.10000000000E+01 0.  0.
<mgrwt>
<rscale>  0 0.12499478E+03</rscale>
<asrwt>0</asrwt>
<pdfrwt beam="1">  1        4 0.28730567E-01 0.12499478E+03</pdfrwt>
<pdfrwt beam="2">  1       -4 0.32177541E-02 0.12499478E+03</pdfrwt>
<totfact> 0.88869166E+03</totfact>
</mgrwt>
</event>
<event>
 5    1  0.3284464E-002  0.1250006E+03  0.7818608E-02  0.1235068E+00
         -4   -1    0    0    0  501 -0.00000000000E+00  0.00000000000E+00  0.16934681453E+02  0.16982235892E+02  0.12700000000E+01 0.  1.
          4   -1    0    0  501    0  0.00000000000E+00 -0.00000000000E+00 -0.23029503358E+03  0.23029853537E+03  0.12700000000E+01 0.  1.
         25    2    1    2    0    0  0.00000000000E+00  0.00000000000E+00 -0.21336035213E+03  0.24728077126E+03  0.12500055990E+03 0.  0.
    9000005    1    3    3    0    0 -0.30033436406E+02 -0.54488080782E+02 -0.11827047650E+03  0.13364080163E+03  0.10000000000E+01 0.  0.
    9000005    1    3    3    0    0  0.30033436406E+02  0.54488080782E+02 -0.95089875634E+02  0.11363996963E+03  0.10000000000E+01 0.  0.
<mgrwt>
<rscale>  0 0.12500056E+03</rscale>
<asrwt>0</asrwt>
<pdfrwt beam="2">  1        4 0.35433930E-01 0.12500056E+03</pdfrwt>
<pdfrwt beam="1">  1       -4 0.26092632E-02 0.12500056E+03</pdfrwt>
<totfact> 0.82723805E+03</totfact>
</mgrwt>
</event>
<event>
 5    1  0.3284464E-002  0.1250016E+03  0.7818608E-02  0.1235067E+00
          4   -1    0    0  501    0  0.00000000000E+00  0.00000000000E+00  0.13109379586E+04  0.13109385738E+04  0.12700000000E+01 0. -1.
         -4   -1    0    0    0  501 -0.00000000000E+00 -0.00000000000E+00 -0.28438523488E+01  0.31145459030E+01  0.12700000000E+01 0. -1.
         25    2    1    2    0    0  0.00000000000E+00  0.00000000000E+00  0.13080941063E+04  0.13140531197E+04  0.12500164204E+03 0.  0.
    9000005    1    3    3    0    0  0.56994245753E+02 -0.24386152012E+02  0.73703699374E+03  0.73964015481E+03  0.10000000000E+01 0.  0.
    9000005    1    3    3    0    0 -0.56994245753E+02  0.24386152012E+02  0.57105711253E+03  0.57441296489E+03  0.10000000000E+01 0.  0.
<mgrwt>
<rscale>  0 0.12500164E+03</rscale>
<asrwt>0</asrwt>
<pdfrwt beam="1">  1        4 0.20170403E+00 0.12500164E+03</pdfrwt>
<pdfrwt beam="2">  1       -4 0.45838474E-03 0.12500164E+03</pdfrwt>
<totfact> 0.21898405E+03</totfact>
</mgrwt>
</event>
<event>
 5    1  0.3284464E-002  0.1250005E+03  0.7818608E-02  0.1235069E+00
          4   -1    0    0  501    0  0.00000000000E+00  0.00000000000E+00  0.10823874161E+03  0.10824619202E+03  0.12700000000E+01 0.  1.
         -4   -1    0    0    0  501 -0.00000000000E+00 -0.00000000000E+00 -0.36069596554E+02  0.36091947794E+02  0.12700000000E+01 0.  1.
         25    2    1    2    0    0  0.00000000000E+00  0.00000000000E+00  0.72169145059E+02  0.14433813981E+03  0.12500045242E+03 0.  0.
    9000005    1    3    3    0    0  0.86100264877E+01 -0.61865394032E+02  0.33828102102E+02  0.71040833516E+02  0.10000000000E+01 0.  0.
    9000005    1    3    3    0    0 -0.86100264877E+01  0.61865394032E+02  0.38341042957E+02  0.73297306293E+02  0.10000000000E+01 0.  0.
<mgrwt>
<rscale>  0 0.12500045E+03</rscale>
<asrwt>0</asrwt>
<pdfrwt beam="1">  1        4 0.16654406E-01 0.12500045E+03</pdfrwt>
<pdfrwt beam="2">  1       -4 0.55514612E-02 0.12500045E+03</pdfrwt>
<totfact> 0.10044351E+04</totfact>
</mgrwt>
</event>
<event>
 5    1  0.3284464E-002  0.1249963E+03  0.7818608E-02  0.1235075E+00
          4   -1    0    0  501    0  0.00000000000E+00  0.00000000000E+00  0.97509531992E+02  0.97517802115E+02  0.12700000000E+01 0.  1.
         -4   -1    0    0    0  501 -0.00000000000E+00 -0.00000000000E+00 -0.40037782125E+02  0.40057919285E+02  0.12700000000E+01 0.  1.
         25    2    1    2    0    0  0.00000000000E+00  0.00000000000E+00  0.57471749867E+02  0.13757572140E+03  0.12499630829E+03 0.  0.
    9000005    1    3    3    0    0  0.88612306877E-01  0.10203038080E+02 -0.39120143491E+02  0.40441259438E+02  0.10000000000E+01 0.  0.
    9000005    1    3    3    0    0 -0.88612306877E-01 -0.10203038080E+02  0.96591893358E+02  0.97134461962E+02  0.10000000000E+01 0.  0.
<mgrwt>
<rscale>  0 0.12499631E+03</rscale>
<asrwt>0</asrwt>
<pdfrwt beam="1">  1        4 0.15003652E-01 0.12499631E+03</pdfrwt>
<pdfrwt beam="2">  1       -4 0.61618440E-02 0.12499631E+03</pdfrwt>
<totfact> 0.10184910E+04</totfact>
</mgrwt>
</event>
<event>
 5    1  0.3284464E-002  0.1249998E+03  0.7818608E-02  0.1235070E+00
         -4   -1    0    0    0  501 -0.00000000000E+00  0.00000000000E+00  0.37611515949E+01  0.39697810166E+01  0.12700000000E+01 0. -1.
          4   -1    0    0  501    0  0.00000000000E+00 -0.00000000000E+00 -0.10103384700E+04  0.10103392682E+04  0.12700000000E+01 0. -1.
         25    2    1    2    0    0  0.00000000000E+00  0.00000000000E+00 -0.10065773184E+04  0.10143090492E+04  0.12499979756E+03 0.  0.
    9000005    1    3    3    0    0 -0.24075951771E+02  0.24080010594E+02 -0.78091244420E+02  0.85198244225E+02  0.10000000000E+01 0.  0.
    9000005    1    3    3    0    0  0.24075951771E+02 -0.24080010594E+02 -0.92848607401E+03  0.92911080501E+03  0.10000000000E+01 0.  0.
<mgrwt>
<rscale>  0 0.12499980E+03</rscale>
<asrwt>0</asrwt>
<pdfrwt beam="2">  1        4 0.15545259E+00 0.12499980E+03</pdfrwt>
<pdfrwt beam="1">  1       -4 0.59474933E-03 0.12499980E+03</pdfrwt>
<totfact> 0.30136008E+03</totfact>
</mgrwt>
</event>
<event>
 5    1  0.3284464E-002  0.1250012E+03  0.7818608E-02  0.1235067E+00
         -4   -1    0    0    0  501 -0.00000000000E+00  0.00000000000E+00  0.29626301567E+01  0.32233643054E+01  0.12700000000E+01 0.  1.
          4   -1    0    0  501    0  0.00000000000E+00 -0.00000000000E+00 -0.12626961161E+04  0.12626967548E+04  0.12700000000E+01 0.  1.
         25    2    1    2    0    0  0.00000000000E+00  0.00000000000E+00 -0.12597334859E+04  0.12659201191E+04  0.12500116912E+03 0.  0.
    9000005    1    3    3    0    0  0.37330348329E+02  0.23556603610E+02 -0.10778600285E+04  0.10787639730E+04  0.10000000000E+01 0.  0.
    9000005    1    3    3    0    0 -0.37330348329E+02 -0.23556603610E+02 -0.18187345750E+03  0.18715614610E+03  0.10000000000E+01 0.  0.
<mgrwt>
<rscale>  0 0.12500117E+03</rscale>
<asrwt>0</asrwt>
<pdfrwt beam="2">  1        4 0.19428063E+00 0.12500117E+03</pdfrwt>
<pdfrwt beam="1">  1       -4 0.47589587E-03 0.12500117E+03</pdfrwt>
<totfact> 0.23046901E+03</totfact>
</mgrwt>
</event>
<event>
 5    1  0.3284464E-002  0.1250059E+03  0.7818608E-02  0.1235060E+00
         -4   -1    0    0    0  501 -0.00000000000E+00  0.00000000000E+00  0.45378274504E+02  0.45396042746E+02  0.12700000000E+01 0.  1.
          4   -1    0    0  501    0  0.00000000000E+00 -0.00000000000E+00 -0.86050769019E+02  0.86060140302E+02  0.12700000000E+01 0.  1.
         25    2    1    2    0    0  0.00000000000E+00  0.00000000000E+00 -0.40672494515E+02  0.13145618305E+03  0.12500590487E+03 0.  0.
    9000005    1    3    3    0    0 -0.63009486760E+01  0.12456177429E+02 -0.84395514583E+02  0.85548005190E+02  0.10000000000E+01 0.  0.
    9000005    1    3    3    0    0  0.63009486760E+01 -0.12456177429E+02  0.43723020068E+02  0.45908177857E+02  0.10000000000E+01 0.  0.
<mgrwt>
<rscale>  0 0.12500590E+03</rscale>
<asrwt>0</asrwt>
<pdfrwt beam="2">  1        4 0.13240667E-01 0.12500590E+03</pdfrwt>
<pdfrwt beam="1">  1       -4 0.69833607E-02 0.12500590E+03</pdfrwt>
<totfact> 0.10311946E+04</totfact>
</mgrwt>
</event>
<event>
 5    1  0.3284464E-002  0.1250007E+03  0.7818608E-02  0.1235068E+00
         -4   -1    0    0    0  501 -0.00000000000E+00  0.00000000000E+00  0.72241545661E+03  0.72241657294E+03  0.12700000000E+01 0.  1.
          4   -1    0    0  501    0  0.00000000000E+00 -0.00000000000E+00 -0.53315583484E+01  0.54807311941E+01  0.12700000000E+01 0.  1.
         25    2    1    2    0    0  0.00000000000E+00  0.00000000000E+00  0.71708389827E+03  0.72789730413E+03  0.12500067284E+03 0.  0.
    9000005    1    3    3    0    0  0.46327049849E+02 -0.16888709338E+01  0.11450801903E+03  0.12354001074E+03  0.10000000000E+01 0.  0.
    9000005    1    3    3    0    0 -0.46327049849E+02  0.16888709338E+01  0.60257587924E+03  0.60435729339E+03  0.10000000000E+01 0.  0.
<mgrwt>
<rscale>  0 0.12500067E+03</rscale>
<asrwt>0</asrwt>
<pdfrwt beam="2">  1        4 0.83180071E-03 0.12500067E+03</pdfrwt>
<pdfrwt beam="1">  1       -4 0.11115237E+00 0.12500067E+03</pdfrwt>
<totfact> 0.41653666E+03</totfact>
</mgrwt>
</event>
<event>
 5    1  0.3284464E-002  0.1250042E+03  0.7818608E-02  0.1235063E+00
          4   -1    0    0  501    0  0.00000000000E+00  0.00000000000E+00  0.93570836214E+02  0.93579454421E+02  0.12700000000E+01 0. -1.
         -4   -1    0    0    0  501 -0.00000000000E+00 -0.00000000000E+00 -0.41729078620E+02  0.41748399999E+02  0.12700000000E+01 0. -1.
         25    2    1    2    0    0  0.00000000000E+00  0.00000000000E+00  0.51841757594E+02  0.13532785442E+03  0.12500424133E+03 0.  0.
    9000005    1    3    3    0    0  0.60358297165E+02 -0.14532293267E+02  0.33667499413E+02  0.70631523422E+02  0.10000000000E+01 0.  0.
    9000005    1    3    3    0    0 -0.60358297165E+02  0.14532293267E+02  0.18174258180E+02  0.64696330998E+02  0.10000000000E+01 0.  0.
<mgrwt>
<rscale>  0 0.12500424E+03</rscale>
<asrwt>0</asrwt>
<pdfrwt beam="1">  1        4 0.14397662E-01 0.12500424E+03</pdfrwt>
<pdfrwt beam="2">  1       -4 0.64220074E-02 0.12500424E+03</pdfrwt>
<totfact> 0.10230187E+04</totfact>
</mgrwt>
</event>
<event>
 5    1  0.3284464E-002  0.1249996E+03  0.7818608E-02  0.1235070E+00
          4   -1    0    0  501    0  0.00000000000E+00  0.00000000000E+00  0.12252998644E+02  0.12318639363E+02  0.12700000000E+01 0.  1.
         -4   -1    0    0    0  501 -0.00000000000E+00 -0.00000000000E+00 -0.31787888505E+03  0.31788142202E+03  0.12700000000E+01 0.  1.
         25    2    1    2    0    0  0.00000000000E+00  0.00000000000E+00 -0.30562588641E+03  0.33020006138E+03  0.12499959236E+03 0.  0.
    9000005    1    3    3    0    0 -0.45428705836E+02  0.20363567342E+02 -0.25259384269E+03  0.25745502822E+03  0.10000000000E+01 0.  0.
    9000005    1    3    3    0    0  0.45428705836E+02 -0.20363567342E+02 -0.53032043721E+02  0.72745033164E+02  0.10000000000E+01 0.  0.
<mgrwt>
<rscale>  0 0.12499959E+03</rscale>
<asrwt>0</asrwt>
<pdfrwt beam="1">  1        4 0.18903214E-02 0.12499959E+03</pdfrwt>
<pdfrwt beam="2">  1       -4 0.48909682E-01 0.12499959E+03</pdfrwt>
<totfact> 0.71959817E+03</totfact>
</mgrwt>
</event>
<event>
 5    1  0.3284464E-002  0.1249972E+03  0.7818608E-02  0.1235074E+00
          4   -1    0    0  501    0  0.00000000000E+00  0.00000000000E+00  0.42846945010E+01  0.44689492016E+01  0.12700000000E+01 0.  1.
         -4   -1    0    0    0  501 -0.00000000000E+00 -0.00000000000E+00 -0.89226143458E+03  0.89226233841E+03  0.12700000000E+01 0.  1.
         25    2    1    2    0    0  0.00000000000E+00  0.00000000000E+00 -0.88797674008E+03  0.89673128761E+03  0.12499724499E+03 0.  0.
    9000005    1    3    3    0    0  0.61161592360E+02  0.80491165329E+01 -0.37241018629E+03  0.37748625871E+03  0.10000000000E+01 0.  0.
    9000005    1    3    3    0    0 -0.61161592360E+02 -0.80491165329E+01 -0.51556655379E+03  0.51924502890E+03  0.10000000000E+01 0.  0.
<mgrwt>
<rscale>  0 0.12499724E+03</rscale>
<asrwt>0</asrwt>
<pdfrwt beam="1">  1        4 0.67342744E-03 0.12499724E+03</pdfrwt>
<pdfrwt beam="2">  1       -4 0.13728509E+00 0.12499724E+03</pdfrwt>
<totfact> 0.34287485E+03</totfact>
</mgrwt>
</event>
<event>
 4    1  0.3284464E-002  0.1247849E+03  0.7818608E-02  0.1235406E+00
         -4   -1    0    0    0  501 -0.00000000000E+00  0.00000000000E+00  0.29411344992E+02  0.29438751914E+02  0.12700000000E+01 0. -1.
          4   -1    0    0  501    0  0.00000000000E+00 -0.00000000000E+00 -0.13226568828E+03  0.13227178534E+03  0.12700000000E+01 0. -1.
    9000005    1    1    2    0    0 -0.30103143246E+02  0.34634087205E+02 -0.10619546064E+03  0.11569008208E+03  0.10000000000E+01 0.  0.
    9000005    1    1    2    0    0  0.30103143246E+02 -0.34634087205E+02  0.33411173493E+01  0.46020455180E+02  0.10000000000E+01 0.  0.
<mgrwt>
<rscale>  0 0.12478494E+03</rscale>
<asrwt>0</asrwt>
<pdfrwt beam="2">  1        4 0.20351144E-01 0.12478494E+03</pdfrwt>
<pdfrwt beam="1">  1       -4 0.45273996E-02 0.12478494E+03</pdfrwt>
<totfact> 0.97484378E+03</totfact>
</mgrwt>
</event>
<event>
 5    1  0.3284464E-002  0.1249981E+03  0.7818608E-02  0.1235072E+00
          4   -1    0    0  501    0  0.00000000000E+00  0.00000000000E+00  0.74790768350E+02  0.74801550321E+02  0.12700000000E+01 0. -1.
         -4   -1    0    0    0  501 -0.00000000000E+00 -0.00000000000E+00 -0.52205202183E+02  0.52220647592E+02  0.12700000000E+01 0. -1.
         25    2    1    2    0    0  0.00000000000E+00  0.00000000000E+00  0.22585566167E+02  0.12702219791E+03  0.12499812384E+03 0.  0.
    9000005    1    3    3    0    0 -0.43643524741E+02  0.16973459118E+02 -0.30756942158E+02  0.56034320351E+02  0.10000000000E+01 0.  0.
    9000005    1    3    3    0    0  0.43643524741E+02 -0.16973459118E+02  0.53342508326E+02  0.70987877562E+02  0.10000000000E+01 0.  0.
<mgrwt>
<rscale>  0 0.12499812E+03</rscale>
<asrwt>0</asrwt>
<pdfrwt beam="1">  1        4 0.11508289E-01 0.12499812E+03</pdfrwt>
<pdfrwt beam="2">  1       -4 0.80335871E-02 0.12499812E+03</pdfrwt>
<totfact> 0.10409104E+04</totfact>
</mgrwt>
</event>
<event>
 5    1  0.3284464E-002  0.1249956E+03  0.7818608E-02  0.1235076E+00
         -4   -1    0    0    0  501 -0.00000000000E+00  0.00000000000E+00  0.13526228798E+03  0.13526824996E+03  0.12700000000E+01 0. -1.
          4   -1    0    0  501    0  0.00000000000E+00 -0.00000000000E+00 -0.28856461659E+02  0.28884395085E+02  0.12700000000E+01 0. -1.
         25    2    1    2    0    0  0.00000000000E+00  0.00000000000E+00  0.10640582632E+03  0.16415264505E+03  0.12499556393E+03 0.  0.
    9000005    1    3    3    0    0  0.53301231490E+02  0.21190456148E+02  0.20637154813E+02  0.60966784964E+02  0.10000000000E+01 0.  0.
    9000005    1    3    3    0    0 -0.53301231490E+02 -0.21190456148E+02  0.85768671505E+02  0.10318586009E+03  0.10000000000E+01 0.  0.
<mgrwt>
<rscale>  0 0.12499556E+03</rscale>
<asrwt>0</asrwt>
<pdfrwt beam="2">  1        4 0.44420629E-02 0.12499556E+03</pdfrwt>
<pdfrwt beam="1">  1       -4 0.20812190E-01 0.12499556E+03</pdfrwt>
<totfact> 0.96557731E+03</totfact>
</mgrwt>
</event>
<event>
 5    1  0.3284464E-002  0.1249992E+03  0.7818608E-02  0.1235071E+00
         -4   -1    0    0    0  501 -0.00000000000E+00  0.00000000000E+00  0.11792027209E+01  0.17330375233E+01  0.12700000000E+01 0.  1.
          4   -1    0    0  501    0  0.00000000000E+00 -0.00000000000E+00 -0.26820541358E+04  0.26820544365E+04  0.12700000000E+01 0.  1.
         25    2    1    2    0    0  0.00000000000E+00  0.00000000000E+00 -0.26808749331E+04  0.26837874740E+04  0.12499919530E+03 0.  0.
    9000005    1    3    3    0    0  0.47854961574E+02 -0.67269522458E+01 -0.21911249608E+04  0.21916580352E+04  0.10000000000E+01 0.  0.
    9000005    1    3    3    0    0 -0.47854961574E+02  0.67269522458E+01 -0.48974997224E+03  0.49212943880E+03  0.10000000000E+01 0.  0.
<mgrwt>
<rscale>  0 0.12499920E+03</rscale>
<asrwt>0</asrwt>
<pdfrwt beam="2">  1        4 0.41266239E+00 0.12499920E+03</pdfrwt>
<pdfrwt beam="1">  1       -4 0.22404376E-03 0.12499920E+03</pdfrwt>
<totfact> 0.33813191E+02</totfact>
</mgrwt>
</event>
<event>
 5    1  0.3284464E-002  0.1250032E+03  0.7818608E-02  0.1235064E+00
          4   -1    0    0  501    0  0.00000000000E+00  0.00000000000E+00  0.23020695514E+01  0.26291489535E+01  0.12700000000E+01 0.  1.
         -4   -1    0    0    0  501 -0.00000000000E+00 -0.00000000000E+00 -0.15840472945E+04  0.15840478036E+04  0.12700000000E+01 0.  1.
         25    2    1    2    0    0  0.00000000000E+00  0.00000000000E+00 -0.15817452249E+04  0.15866769525E+04  0.12500318052E+03 0.  0.
    9000005    1    3    3    0    0 -0.60662938245E+02  0.13952680838E+02 -0.86129286292E+03  0.86353984569E+03  0.10000000000E+01 0.  0.
    9000005    1    3    3    0    0  0.60662938245E+02 -0.13952680838E+02 -0.72045236200E+03  0.72313710685E+03  0.10000000000E+01 0.  0.
<mgrwt>
<rscale>  0 0.12500318E+03</rscale>
<asrwt>0</asrwt>
<pdfrwt beam="1">  1        4 0.37936493E-03 0.12500318E+03</pdfrwt>
<pdfrwt beam="2">  1       -4 0.24372397E+00 0.12500318E+03</pdfrwt>
<totfact> 0.16287030E+03</totfact>
</mgrwt>
</event>
<event>
 5    1  0.3284464E-002  0.1250009E+03  0.7818608E-02  0.1235068E+00
          4   -1    0    0  501    0  0.00000000000E+00  0.00000000000E+00  0.13156541157E+02  0.13217695534E+02  0.12700000000E+01 0.  1.
         -4   -1    0    0    0  501 -0.00000000000E+00 -0.00000000000E+00 -0.29615870463E+03  0.29616142765E+03  0.12700000000E+01 0.  1.
         25    2    1    2    0    0  0.00000000000E+00  0.00000000000E+00 -0.28300216348E+03  0.30937912319E+03  0.12500086933E+03 0.  0.
    9000005    1    3    3    0    0 -0.46970994522E+02  0.27270435100E+02 -0.65001335895E+02  0.84712009922E+02  0.10000000000E+01 0.  0.
    9000005    1    3    3    0    0  0.46970994522E+02 -0.27270435100E+02 -0.21800082758E+03  0.22466711326E+03  0.10000000000E+01 0.  0.
<mgrwt>
<rscale>  0 0.12500087E+03</rscale>
<asrwt>0</asrwt>
<pdfrwt beam="1">  1        4 0.20289971E-02 0.12500087E+03</pdfrwt>
<pdfrwt beam="2">  1       -4 0.45567786E-01 0.12500087E+03</pdfrwt>
<totfact> 0.74435768E+03</totfact>
</mgrwt>
</event>
<event>
 5    1  0.3284464E-002  0.1250013E+03  0.7818608E-02  0.1235067E+00
          4   -1    0    0  501    0  0.00000000000E+00  0.00000000000E+00  0.39597644221E+02  0.39618005097E+02  0.12700000000E+01 0. -1.
         -4   -1    0    0    0  501 -0.00000000000E+00 -0.00000000000E+00 -0.98600805742E+02  0.98608984342E+02  0.12700000000E+01 0. -1.
         25    2    1    2    0    0  0.00000000000E+00  0.00000000000E+00 -0.59003161521E+02  0.13822698944E+03  0.12500131015E+03 0.  0.
    9000005    1    3    3    0    0  0.35043615880E+02  0.21221053879E+02  0.22681883563E+02  0.46838616372E+02  0.10000000000E+01 0.  0.
    9000005    1    3    3    0    0 -0.35043615880E+02 -0.21221053879E+02 -0.81685045083E+02  0.91388373067E+02  0.10000000000E+01 0.  0.
<mgrwt>
<rscale>  0 0.12500131E+03</rscale>
<asrwt>0</asrwt>
<pdfrwt beam="1">  1        4 0.60941407E-02 0.12500131E+03</pdfrwt>
<pdfrwt beam="2">  1       -4 0.15171550E-01 0.12500131E+03</pdfrwt>
<totfact> 0.10170165E+04</totfact>
</mgrwt>
</event>
<event>
 5    1  0.3284464E-002  0.1249970E+03  0.7818608E-02  0.1235074E+00
         -4   -1    0    0    0  501 -0.00000000000E+00  0.00000000000E+00  0.36692795804E+02  0.36714767654E+02  0.12700000000E+01 0.  1.
          4   -1    0    0  501    0  0.00000000000E+00 -0.00000000000E+00 -0.10639541195E+03  0.10640299142E+03  0.12700000000E+01 0.  1.
         25    2    1    2    0    0  0.00000000000E+00  0.00000000000E+00 -0.69702616144E+02  0.14311775908E+03  0.12499695303E+03 0.  0.
    9000005    1    3    3    0    0 -0.53886204541E+02  0.26831027025E+02 -0.15643348319E+02  0.62204030397E+02  0.10000000000E+01 0.  0.
    9000005    1    3    3    0    0  0.53886204541E+02 -0.26831027025E+02 -0.54059267825E+02  0.80913728679E+02  0.10000000000E+01 0.  0.
<mgrwt>
<rscale>  0 0.12499695E+03</rscale>
<asrwt>0</asrwt>
<pdfrwt beam="2">  1        4 0.16370798E-01 0.12499695E+03</pdfrwt>
<pdfrwt beam="1">  1       -4 0.56473187E-02 0.12499695E+03</pdfrwt>
<totfact> 0.10070063E+04</totfact>
</mgrwt>
</event>
<event>
 4    1  0.3284464E-002  0.1181667E+03  0.7818608E-02  0.1246152E+00
         -4   -1    0    0    0  501 -0.00000000000E+00  0.00000000000E+00  0.21730711206E+02  0.21767790644E+02  0.12700000000E+01 0.  1.
          4   -1    0    0  501    0  0.00000000000E+00 -0.00000000000E+00 -0.16046455207E+03  0.16046957771E+03  0.12700000000E+01 0.  1.
    9000005    1    1    2    0    0 -0.34462343409E+02 -0.47679698521E+02 -0.61085093099E+02  0.84813886618E+02  0.10000000000E+01 0.  0.
    9000005    1    1    2    0    0  0.34462343409E+02  0.47679698521E+02 -0.77648747764E+02  0.97423481736E+02  0.10000000000E+01 0.  0.
<mgrwt>
<rscale>  0 0.11816675E+03</rscale>
<asrwt>0</asrwt>
<pdfrwt beam="2">  1        4 0.24690092E-01 0.11816675E+03</pdfrwt>
<pdfrwt beam="1">  1       -4 0.33464253E-02 0.11816675E+03</pdfrwt>
<totfact> 0.10906265E+04</totfact>
</mgrwt>
</event>
<event>
 5    1  0.3284464E-002  0.1249752E+03  0.7818608E-02  0.1235108E+00
          4   -1    0    0  501    0  0.00000000000E+00  0.00000000000E+00  0.34469344224E+02  0.34492732440E+02  0.12700000000E+01 0. -1.
         -4   -1    0    0    0  501 -0.00000000000E+00 -0.00000000000E+00 -0.11321496026E+03  0.11322208321E+03  0.12700000000E+01 0. -1.
         25    2    1    2    0    0  0.00000000000E+00  0.00000000000E+00 -0.78745616037E+02  0.14771481565E+03  0.12497517641E+03 0.  0.
    9000005    1    3    3    0    0  0.56099987122E+02  0.13384248428E+02 -0.67772958589E+02  0.88997306572E+02  0.10000000000E+01 0.  0.
    9000005    1    3    3    0    0 -0.56099987122E+02 -0.13384248428E+02 -0.10972657447E+02  0.58717509080E+02  0.10000000000E+01 0.  0.
<mgrwt>
<rscale>  0 0.12497518E+03</rscale>
<asrwt>0</asrwt>
<pdfrwt beam="1">  1        4 0.53053231E-02 0.12497518E+03</pdfrwt>
<pdfrwt beam="2">  1       -4 0.17420033E-01 0.12497518E+03</pdfrwt>
<totfact> 0.99816949E+03</totfact>
</mgrwt>
</event>
<event>
 5    1  0.3284464E-002  0.1249918E+03  0.7818608E-02  0.1235082E+00
         -4   -1    0    0    0  501 -0.00000000000E+00  0.00000000000E+00  0.13131277704E+03  0.13131891834E+03  0.12700000000E+01 0. -1.
          4   -1    0    0  501    0  0.00000000000E+00 -0.00000000000E+00 -0.29723400400E+02  0.29750519850E+02  0.12700000000E+01 0. -1.
         25    2    1    2    0    0  0.00000000000E+00  0.00000000000E+00  0.10158937664E+03  0.16106943819E+03  0.12499184963E+03 0.  0.
    9000005    1    3    3    0    0 -0.43686089751E+02  0.27654743124E+02  0.96016230715E+02  0.10905675502E+03  0.10000000000E+01 0.  0.
    9000005    1    3    3    0    0  0.43686089751E+02 -0.27654743124E+02  0.55731459262E+01  0.52012683170E+02  0.10000000000E+01 0.  0.
<mgrwt>
<rscale>  0 0.12499185E+03</rscale>
<asrwt>0</asrwt>
<pdfrwt beam="2">  1        4 0.45753894E-02 0.12499185E+03</pdfrwt>
<pdfrwt beam="1">  1       -4 0.20204524E-01 0.12499185E+03</pdfrwt>
<totfact> 0.97154797E+03</totfact>
</mgrwt>
</event>
<event>
 5    1  0.3284464E-002  0.1249998E+03  0.7818608E-02  0.1235070E+00
         -4   -1    0    0    0  501 -0.00000000000E+00  0.00000000000E+00  0.19379224413E+03  0.19379640550E+03  0.12700000000E+01 0.  1.
          4   -1    0    0  501    0  0.00000000000E+00 -0.00000000000E+00 -0.20132450053E+02  0.20172467502E+02  0.12700000000E+01 0.  1.
         25    2    1    2    0    0  0.00000000000E+00  0.00000000000E+00  0.17365979408E+03  0.21396887300E+03  0.12499981814E+03 0.  0.
    9000005    1    3    3    0    0  0.40620568922E+02 -0.46807649418E+02  0.10055085528E+03  0.11812053658E+03  0.10000000000E+01 0.  0.
    9000005    1    3    3    0    0 -0.40620568922E+02  0.46807649418E+02  0.73108938794E+02  0.95848336423E+02  0.10000000000E+01 0.  0.
<mgrwt>
<rscale>  0 0.12499982E+03</rscale>
<asrwt>0</asrwt>
<pdfrwt beam="2">  1        4 0.31006982E-02 0.12499982E+03</pdfrwt>
<pdfrwt beam="1">  1       -4 0.29817591E-01 0.12499982E+03</pdfrwt>
<totfact> 0.87832141E+03</totfact>
</mgrwt>
</event>
<event>
 5    1  0.3284464E-002  0.1249984E+03  0.7818608E-02  0.1235072E+00
         -4   -1    0    0    0  501 -0.00000000000E+00  0.00000000000E+00  0.47812752735E+03  0.47812921403E+03  0.12700000000E+01 0. -1.
          4   -1    0    0  501    0  0.00000000000E+00 -0.00000000000E+00 -0.81186099957E+01  0.82173431389E+01  0.12700000000E+01 0. -1.
         25    2    1    2    0    0  0.00000000000E+00  0.00000000000E+00  0.47000891735E+03  0.48634655717E+03  0.12499836510E+03 0.  0.
    9000005    1    3    3    0    0 -0.50549033784E+02  0.16936291794E+02  0.36186588742E+03  0.36577310355E+03  0.10000000000E+01 0.  0.
    9000005    1    3    3    0    0  0.50549033784E+02 -0.16936291794E+02  0.10814302993E+03  0.12057345362E+03  0.10000000000E+01 0.  0.
<mgrwt>
<rscale>  0 0.12499837E+03</rscale>
<asrwt>0</asrwt>
<pdfrwt beam="2">  1        4 0.12567415E-02 0.12499837E+03</pdfrwt>
<pdfrwt beam="1">  1       -4 0.73565807E-01 0.12499837E+03</pdfrwt>
<totfact> 0.56941534E+03</totfact>
</mgrwt>
</event>
<event>
 5    1  0.3284464E-002  0.1250011E+03  0.7818608E-02  0.1235068E+00
          4   -1    0    0  501    0  0.00000000000E+00  0.00000000000E+00  0.12821776910E+03  0.12822405863E+03  0.12700000000E+01 0.  1.
         -4   -1    0    0    0  501 -0.00000000000E+00 -0.00000000000E+00 -0.30445986076E+02  0.30472462456E+02  0.12700000000E+01 0.  1.
         25    2    1    2    0    0  0.00000000000E+00  0.00000000000E+00  0.97771783022E+02  0.15869652109E+03  0.12500105700E+03 0.  0.
    9000005    1    3    3    0    0  0.54866155081E+02  0.14559031644E+02  0.15705479328E+02  0.58906047709E+02  0.10000000000E+01 0.  0.
    9000005    1    3    3    0    0 -0.54866155081E+02 -0.14559031644E+02  0.82066303694E+02  0.99790473382E+02  0.10000000000E+01 0.  0.
<mgrwt>
<rscale>  0 0.12500106E+03</rscale>
<asrwt>0</asrwt>
<pdfrwt beam="1">  1        4 0.19728331E-01 0.12500106E+03</pdfrwt>
<pdfrwt beam="2">  1       -4 0.46865183E-02 0.12500106E+03</pdfrwt>
<totfact> 0.97592356E+03</totfact>
</mgrwt>
</event>
<event>
 5    1  0.3284464E-002  0.1250009E+03  0.7818608E-02  0.1235068E+00
         -4   -1    0    0    0  501 -0.00000000000E+00  0.00000000000E+00  0.62524107941E+02  0.62537004836E+02  0.12700000000E+01 0. -1.
          4   -1    0    0  501    0  0.00000000000E+00 -0.00000000000E+00 -0.62450970831E+02  0.62463882827E+02  0.12700000000E+01 0. -1.
         25    2    1    2    0    0  0.00000000000E+00  0.00000000000E+00  0.73137109885E-01  0.12500088766E+03  0.12500086627E+03 0.  0.
    9000005    1    3    3    0    0 -0.28883115517E+01  0.13279932172E+02 -0.60960205732E+02  0.62464755062E+02  0.10000000000E+01 0.  0.
    9000005    1    3    3    0    0  0.28883115517E+01 -0.13279932172E+02  0.61033342842E+02  0.62536132600E+02  0.10000000000E+01 0.  0.
<mgrwt>
<rscale>  0 0.12500087E+03</rscale>
<asrwt>0</asrwt>
<pdfrwt beam="2">  1        4 0.96098270E-02 0.12500087E+03</pdfrwt>
<pdfrwt beam="1">  1       -4 0.96210788E-02 0.12500087E+03</pdfrwt>
<totfact> 0.10452639E+04</totfact>
</mgrwt>
</event>
<event>
 5    1  0.3284464E-002  0.1250059E+03  0.7818608E-02  0.1235060E+00
          4   -1    0    0  501    0  0.00000000000E+00  0.00000000000E+00  0.18733367101E+04  0.18733371406E+04  0.12700000000E+01 0.  1.
         -4   -1    0    0    0  501 -0.00000000000E+00 -0.00000000000E+00 -0.18915528929E+01  0.22783486008E+01  0.12700000000E+01 0.  1.
         25    2    1    2    0    0  0.00000000000E+00  0.00000000000E+00  0.18714451572E+04  0.18756154892E+04  0.12500594727E+03 0.  0.
    9000005    1    3    3    0    0 -0.49168684200E+02 -0.25906547705E+02  0.50687690114E+03  0.50991558285E+03  0.10000000000E+01 0.  0.
    9000005    1    3    3    0    0  0.49168684200E+02  0.25906547705E+02  0.13645682561E+04  0.13656999064E+04  0.10000000000E+01 0.  0.
<mgrwt>
<rscale>  0 0.12500595E+03</rscale>
<asrwt>0</asrwt>
<pdfrwt beam="1">  1        4 0.28823436E+00 0.12500595E+03</pdfrwt>
<pdfrwt beam="2">  1       -4 0.32079597E-03 0.12500595E+03</pdfrwt>
<totfact> 0.11571987E+03</totfact>
</mgrwt>
</event>
<event>
 5    1  0.3284464E-002  0.1249969E+03  0.7818608E-02  0.1235074E+00
          4   -1    0    0  501    0  0.00000000000E+00  0.00000000000E+00  0.34133862058E+03  0.34134098318E+03  0.12700000000E+01 0.  1.
         -4   -1    0    0    0  501 -0.00000000000E+00 -0.00000000000E+00 -0.11405694591E+02  0.11476182689E+02  0.12700000000E+01 0.  1.
         25    2    1    2    0    0  0.00000000000E+00  0.00000000000E+00  0.32993292599E+03  0.35281716587E+03  0.12499686749E+03 0.  0.
    9000005    1    3    3    0    0 -0.10978795628E+02 -0.44858812752E+02  0.46141462671E+02  0.65290746760E+02  0.10000000000E+01 0.  0.
    9000005    1    3    3    0    0  0.10978795628E+02  0.44858812752E+02  0.28379146332E+03  0.28752641911E+03  0.10000000000E+01 0.  0.
<mgrwt>
<rscale>  0 0.12499687E+03</rscale>
<asrwt>0</asrwt>
<pdfrwt beam="1">  1        4 0.52519242E-01 0.12499687E+03</pdfrwt>
<pdfrwt beam="2">  1       -4 0.17603260E-02 0.12499687E+03</pdfrwt>
<totfact> 0.69420548E+03</totfact>
</mgrwt>
</event>
<event>
 5    1  0.3284464E-002  0.1250000E+03  0.7818608E-02  0.1235069E+00
          4   -1    0    0  501    0  0.00000000000E+00  0.00000000000E+00  0.16856972007E+03  0.16857450407E+03  0.12700000000E+01 0.  1.
         -4   -1    0    0    0  501 -0.00000000000E+00 -0.00000000000E+00 -0.23150392291E+02  0.23185201384E+02  0.12700000000E+01 0.  1.
         25    2    1    2    0    0  0.00000000000E+00  0.00000000000E+00  0.14541932778E+03  0.19175970546E+03  0.12500001498E+03 0.  0.
    9000005    1    3    3    0    0 -0.51217389606E+02 -0.33601550046E+02  0.53736296262E+02  0.81491562137E+02  0.10000000000E+01 0.  0.
    9000005    1    3    3    0    0  0.51217389606E+02  0.33601550046E+02  0.91683031516E+02  0.11026814332E+03  0.10000000000E+01 0.  0.
<mgrwt>
<rscale>  0 0.12500001E+03</rscale>
<asrwt>0</asrwt>
<pdfrwt beam="1">  1        4 0.25936850E-01 0.12500001E+03</pdfrwt>
<pdfrwt beam="2">  1       -4 0.35646443E-02 0.12500001E+03</pdfrwt>
<totfact> 0.91541998E+03</totfact>
</mgrwt>
</event>
<event>
 4    1  0.3284464E-002  0.1250695E+03  0.7818608E-02  0.1234961E+00
          4   -1    0    0  501    0  0.00000000000E+00  0.00000000000E+00  0.25060372457E+02  0.25092532110E+02  0.12700000000E+01 0. -1.
         -4   -1    0    0    0  501 -0.00000000000E+00 -0.00000000000E+00 -0.15591208717E+03  0.15591725955E+03  0.12700000000E+01 0. -1.
    9000005    1    1    2    0    0  0.51366238423E+02 -0.33394329684E+02 -0.47353951333E+02  0.77440741291E+02  0.10000000000E+01 0.  0.
    9000005    1    1    2    0    0 -0.51366238423E+02  0.33394329684E+02 -0.83497763376E+02  0.10356905037E+03  0.10000000000E+01 0.  0.
<mgrwt>
<rscale>  0 0.12506947E+03</rscale>
<asrwt>0</asrwt>
<pdfrwt beam="1">  1        4 0.38583137E-02 0.12506947E+03</pdfrwt>
<pdfrwt beam="2">  1       -4 0.23989346E-01 0.12506947E+03</pdfrwt>
<totfact> 0.93290167E+03</totfact>
</mgrwt>
</event>
<event>
 5    1  0.3284464E-002  0.1250009E+03  0.7818608E-02  0.1235068E+00
         -4   -1    0    0    0  501 -0.00000000000E+00  0.00000000000E+00  0.29519064483E+03  0.29519337678E+03  0.12700000000E+01 0. -1.
          4   -1    0    0  501    0  0.00000000000E+00 -0.00000000000E+00 -0.13199900883E+02  0.13260855302E+02  0.12700000000E+01 0. -1.
         25    2    1    2    0    0  0.00000000000E+00  0.00000000000E+00  0.28199074394E+03  0.30845423208E+03  0.12500093447E+03 0.  0.
    9000005    1    3    3    0    0  0.11758911859E+02 -0.37034275552E+02  0.20220814410E+02  0.43814277458E+02  0.10000000000E+01 0.  0.
    9000005    1    3    3    0    0 -0.11758911859E+02  0.37034275552E+02  0.26176992953E+03  0.26463995462E+03  0.10000000000E+01 0.  0.
<mgrwt>
<rscale>  0 0.12500093E+03</rscale>
<asrwt>0</asrwt>
<pdfrwt beam="2">  1        4 0.20356530E-02 0.12500093E+03</pdfrwt>
<pdfrwt beam="1">  1       -4 0.45418844E-01 0.12500093E+03</pdfrwt>
<totfact> 0.74548900E+03</totfact>
</mgrwt>
</event>
<event>
 5    1  0.3284464E-002  0.1250000E+03  0.7818608E-02  0.1235069E+00
          4   -1    0    0  501    0  0.00000000000E+00  0.00000000000E+00  0.10534747984E+03  0.10535513471E+03  0.12700000000E+01 0. -1.
         -4   -1    0    0    0  501 -0.00000000000E+00 -0.00000000000E+00 -0.37059785648E+02  0.37081540047E+02  0.12700000000E+01 0. -1.
         25    2    1    2    0    0  0.00000000000E+00  0.00000000000E+00  0.68287694197E+02  0.14243667476E+03  0.12499998855E+03 0.  0.
    9000005    1    3    3    0    0  0.37776597336E+02 -0.25248347589E+02 -0.14744261124E+02  0.47780159045E+02  0.10000000000E+01 0.  0.
    9000005    1    3    3    0    0 -0.37776597336E+02  0.25248347589E+02  0.83031955321E+02  0.94656515712E+02  0.10000000000E+01 0.  0.
<mgrwt>
<rscale>  0 0.12499999E+03</rscale>
<asrwt>0</asrwt>
<pdfrwt beam="1">  1        4 0.16209567E-01 0.12499999E+03</pdfrwt>
<pdfrwt beam="2">  1       -4 0.57037678E-02 0.12499999E+03</pdfrwt>
<totfact> 0.10083334E+04</totfact>
</mgrwt>
</event>
<event>
 5    1  0.3284464E-002  0.1249974E+03  0.7818608E-02  0.1235073E+00
          4   -1    0    0  501    0  0.00000000000E+00  0.00000000000E+00  0.95239414667E+02  0.95247881898E+02  0.12700000000E+01 0.  1.
         -4   -1    0    0    0  501 -0.00000000000E+00 -0.00000000000E+00 -0.40993257693E+02  0.41012925722E+02  0.12700000000E+01 0.  1.
         25    2    1    2    0    0  0.00000000000E+00  0.00000000000E+00  0.54246156974E+02  0.13626080762E+03  0.12499744856E+03 0.  0.
    9000005    1    3    3    0    0  0.31583998037E+02 -0.50699449151E+02  0.71081523235E+01  0.60162354556E+02  0.10000000000E+01 0.  0.
    9000005    1    3    3    0    0 -0.31583998037E+02  0.50699449151E+02  0.47138004650E+02  0.76098453064E+02  0.10000000000E+01 0.  0.
<mgrwt>
<rscale>  0 0.12499745E+03</rscale>
<asrwt>0</asrwt>
<pdfrwt beam="1">  1        4 0.14654382E-01 0.12499745E+03</pdfrwt>
<pdfrwt beam="2">  1       -4 0.63088194E-02 0.12499745E+03</pdfrwt>
<totfact> 0.10212152E+04</totfact>
</mgrwt>
</event>
<event>
 5    1  0.3284464E-002  0.1249980E+03  0.7818608E-02  0.1235072E+00
          4   -1    0    0  501    0  0.00000000000E+00  0.00000000000E+00  0.12716918761E+01  0.17972479594E+01  0.12700000000E+01 0. -1.
         -4   -1    0    0    0  501 -0.00000000000E+00 -0.00000000000E+00 -0.25450612435E+04  0.25450615604E+04  0.12700000000E+01 0. -1.
         25    2    1    2    0    0  0.00000000000E+00  0.00000000000E+00 -0.25437895517E+04  0.25468588084E+04  0.12499802641E+03 0.  0.
    9000005    1    3    3    0    0 -0.40816869086E+02 -0.37234546202E+02 -0.18668707685E+04  0.18676883826E+04  0.10000000000E+01 0.  0.
    9000005    1    3    3    0    0  0.40816869086E+02  0.37234546202E+02 -0.67691878313E+03  0.67917042573E+03  0.10000000000E+01 0.  0.
<mgrwt>
<rscale>  0 0.12499803E+03</rscale>
<asrwt>0</asrwt>
<pdfrwt beam="1">  1        4 0.23609871E-03 0.12499803E+03</pdfrwt>
<pdfrwt beam="2">  1       -4 0.39158496E+00 0.12499803E+03</pdfrwt>
<totfact> 0.43119229E+02</totfact>
</mgrwt>
</event>
<event>
 5    1  0.3284464E-002  0.1250016E+03  0.7818608E-02  0.1235067E+00
          4   -1    0    0  501    0  0.00000000000E+00  0.00000000000E+00  0.29231251660E+03  0.29231527544E+03  0.12700000000E+01 0.  1.
         -4   -1    0    0    0  501 -0.00000000000E+00 -0.00000000000E+00 -0.13330602884E+02  0.13390962372E+02  0.12700000000E+01 0.  1.
         25    2    1    2    0    0  0.00000000000E+00  0.00000000000E+00  0.27898191371E+03  0.30570623782E+03  0.12500158264E+03 0.  0.
    9000005    1    3    3    0    0  0.19788268091E+02  0.36241803951E+02  0.24773309353E+02  0.48163894818E+02  0.10000000000E+01 0.  0.
    9000005    1    3    3    0    0 -0.19788268091E+02 -0.36241803951E+02  0.25420860436E+03  0.25754234300E+03  0.10000000000E+01 0.  0.
<mgrwt>
<rscale>  0 0.12500158E+03</rscale>
<asrwt>0</asrwt>
<pdfrwt beam="1">  1        4 0.44976008E-01 0.12500158E+03</pdfrwt>
<pdfrwt beam="2">  1       -4 0.20557174E-02 0.12500158E+03</pdfrwt>
<totfact> 0.74885960E+03</totfact>
</mgrwt>
</event>
<event>
 5    1  0.3284464E-002  0.1249994E+03  0.7818608E-02  0.1235070E+00
          4   -1    0    0  501    0  0.00000000000E+00  0.00000000000E+00  0.16800089062E+03  0.16800569083E+03  0.12700000000E+01 0. -1.
         -4   -1    0    0    0  501 -0.00000000000E+00 -0.00000000000E+00 -0.23228662774E+02  0.23263354751E+02  0.12700000000E+01 0. -1.
         25    2    1    2    0    0  0.00000000000E+00  0.00000000000E+00  0.14477222785E+03  0.19126904558E+03  0.12499939936E+03 0.  0.
    9000005    1    3    3    0    0 -0.40269184130E+02  0.47732701638E+02  0.75873557011E+02  0.98274180992E+02  0.10000000000E+01 0.  0.
    9000005    1    3    3    0    0  0.40269184130E+02 -0.47732701638E+02  0.68898670840E+02  0.92994864587E+02  0.10000000000E+01 0.  0.
<mgrwt>
<rscale>  0 0.12499940E+03</rscale>
<asrwt>0</asrwt>
<pdfrwt beam="1">  1        4 0.25849328E-01 0.12499940E+03</pdfrwt>
<pdfrwt beam="2">  1       -4 0.35766784E-02 0.12499940E+03</pdfrwt>
<totfact> 0.91628206E+03</totfact>
</mgrwt>
</event>
<event>
 5    1  0.3284464E-002  0.1249709E+03  0.7818608E-02  0.1235115E+00
          4   -1    0    0  501    0  0.00000000000E+00  0.00000000000E+00  0.52164707917E+02  0.52180165313E+02  0.12700000000E+01 0. -1.
         -4   -1    0    0    0  501 -0.00000000000E+00 -0.00000000000E+00 -0.74816246537E+02  0.74827024836E+02  0.12700000000E+01 0. -1.
         25    2    1    2    0    0  0.00000000000E+00  0.00000000000E+00 -0.22651538620E+02  0.12700719015E+03  0.12497093321E+03 0.  0.
    9000005    1    3    3    0    0  0.47614141046E+02 -0.14826479869E+02 -0.49575464948E+02  0.70325369944E+02  0.10000000000E+01 0.  0.
    9000005    1    3    3    0    0 -0.47614141046E+02  0.14826479869E+02  0.26923926329E+02  0.56681820206E+02  0.10000000000E+01 0.  0.
<mgrwt>
<rscale>  0 0.12497093E+03</rscale>
<asrwt>0</asrwt>
<pdfrwt beam="1">  1        4 0.80273578E-02 0.12497093E+03</pdfrwt>
<pdfrwt beam="2">  1       -4 0.11512210E-01 0.12497093E+03</pdfrwt>
<totfact> 0.10415822E+04</totfact>
</mgrwt>
</event>
<event>
 5    1  0.3284464E-002  0.1250035E+03  0.7818608E-02  0.1235064E+00
         -4   -1    0    0    0  501 -0.00000000000E+00  0.00000000000E+00  0.12765518884E+03  0.12766150609E+03  0.12700000000E+01 0.  1.
          4   -1    0    0  501    0  0.00000000000E+00 -0.00000000000E+00 -0.30581457507E+02  0.30607816702E+02  0.12700000000E+01 0.  1.
         25    2    1    2    0    0  0.00000000000E+00  0.00000000000E+00  0.97073731335E+02  0.15826932280E+03  0.12500347684E+03 0.  0.
    9000005    1    3    3    0    0 -0.14827149416E+02 -0.60454448463E+02  0.55572959602E+02  0.83450215923E+02  0.10000000000E+01 0.  0.
    9000005    1    3    3    0    0  0.14827149416E+02  0.60454448463E+02  0.41500771733E+02  0.74819106872E+02  0.10000000000E+01 0.  0.
<mgrwt>
<rscale>  0 0.12500348E+03</rscale>
<asrwt>0</asrwt>
<pdfrwt beam="2">  1        4 0.47073532E-02 0.12500348E+03</pdfrwt>
<pdfrwt beam="1">  1       -4 0.19641773E-01 0.12500348E+03</pdfrwt>
<totfact> 0.97669852E+03</totfact>
</mgrwt>
</event>
<event>
 5    1  0.3284464E-002  0.1250012E+03  0.7818608E-02  0.1235067E+00
          4   -1    0    0  501    0  0.00000000000E+00  0.00000000000E+00  0.54302294895E+02  0.54317143987E+02  0.12700000000E+01 0.  1.
         -4   -1    0    0    0  501 -0.00000000000E+00 -0.00000000000E+00 -0.71906381103E+02  0.71917595506E+02  0.12700000000E+01 0.  1.
         25    2    1    2    0    0  0.00000000000E+00  0.00000000000E+00 -0.17604086208E+02  0.12623473949E+03  0.12500122241E+03 0.  0.
    9000005    1    3    3    0    0 -0.48466631170E+02  0.35288417739E+02 -0.26612394844E+02  0.65601115257E+02  0.10000000000E+01 0.  0.
    9000005    1    3    3    0    0  0.48466631170E+02 -0.35288417739E+02  0.90083086364E+01  0.60633624236E+02  0.10000000000E+01 0.  0.
<mgrwt>
<rscale>  0 0.12500122E+03</rscale>
<asrwt>0</asrwt>
<pdfrwt beam="1">  1        4 0.83562041E-02 0.12500122E+03</pdfrwt>
<pdfrwt beam="2">  1       -4 0.11064525E-01 0.12500122E+03</pdfrwt>
<totfact> 0.10425532E+04</totfact>
</mgrwt>
</event>
<event>
 5    1  0.3284464E-002  0.1249997E+03  0.7818608E-02  0.1235070E+00
         -4   -1    0    0    0  501 -0.00000000000E+00  0.00000000000E+00  0.29670643234E+02  0.29697810861E+02  0.12700000000E+01 0. -1.
          4   -1    0    0  501    0  0.00000000000E+00 -0.00000000000E+00 -0.13156256476E+03  0.13156869440E+03  0.12700000000E+01 0. -1.
         25    2    1    2    0    0  0.00000000000E+00  0.00000000000E+00 -0.10189192153E+03  0.16126650526E+03  0.12499968819E+03 0.  0.
    9000005    1    3    3    0    0 -0.38222916565E+02  0.46818626481E+02 -0.30455323757E+02  0.67686792519E+02  0.10000000000E+01 0.  0.
    9000005    1    3    3    0    0  0.38222916565E+02 -0.46818626481E+02 -0.71436597769E+02  0.93579712743E+02  0.10000000000E+01 0.  0.
<mgrwt>
<rscale>  0 0.12499969E+03</rscale>
<asrwt>0</asrwt>
<pdfrwt beam="2">  1        4 0.20242956E-01 0.12499969E+03</pdfrwt>
<pdfrwt beam="1">  1       -4 0.45672758E-02 0.12499969E+03</pdfrwt>
<totfact> 0.97099848E+03</totfact>
</mgrwt>
</event>
<event>
 5    1  0.3284464E-002  0.1250055E+03  0.7818608E-02  0.1235061E+00
         -4   -1    0    0    0  501 -0.00000000000E+00  0.00000000000E+00  0.66801382954E+01  0.67997902649E+01  0.12700000000E+01 0.  1.
          4   -1    0    0  501    0  0.00000000000E+00 -0.00000000000E+00 -0.57949591754E+03  0.57949730917E+03  0.12700000000E+01 0.  1.
         25    2    1    2    0    0  0.00000000000E+00  0.00000000000E+00 -0.57281577924E+03  0.58629709944E+03  0.12500548734E+03 0.  0.
    9000005    1    3    3    0    0  0.59394070710E+02 -0.53871968079E+00 -0.37755265930E+03  0.38219753583E+03  0.10000000000E+01 0.  0.
    9000005    1    3    3    0    0 -0.59394070710E+02  0.53871968079E+00 -0.19526311994E+03  0.20409956361E+03  0.10000000000E+01 0.  0.
<mgrwt>
<rscale>  0 0.12500549E+03</rscale>
<asrwt>0</asrwt>
<pdfrwt beam="2">  1        4 0.89162490E-01 0.12500549E+03</pdfrwt>
<pdfrwt beam="1">  1       -4 0.10370251E-02 0.12500549E+03</pdfrwt>
<totfact> 0.49738190E+03</totfact>
</mgrwt>
</event>
<event>
 5    1  0.3284464E-002  0.1250005E+03  0.7818608E-02  0.1235068E+00
          4   -1    0    0  501    0  0.00000000000E+00  0.00000000000E+00  0.25160111110E+01  0.28183704353E+01  0.12700000000E+01 0. -1.
         -4   -1    0    0    0  501 -0.00000000000E+00 -0.00000000000E+00 -0.14642653573E+04  0.14642659080E+04  0.12700000000E+01 0. -1.
         25    2    1    2    0    0  0.00000000000E+00  0.00000000000E+00 -0.14617493462E+04  0.14670842785E+04  0.12500051642E+03 0.  0.
    9000005    1    3    3    0    0  0.15392571137E+02 -0.34840304167E+02 -0.14940757051E+03  0.15418949434E+03  0.10000000000E+01 0.  0.
    9000005    1    3    3    0    0 -0.15392571137E+02  0.34840304167E+02 -0.13123417757E+04  0.13128947841E+04  0.10000000000E+01 0.  0.
<mgrwt>
<rscale>  0 0.12500052E+03</rscale>
<asrwt>0</asrwt>
<pdfrwt beam="1">  1        4 0.41038058E-03 0.12500052E+03</pdfrwt>
<pdfrwt beam="2">  1       -4 0.22529425E+00 0.12500052E+03</pdfrwt>
<totfact> 0.18585388E+03</totfact>
</mgrwt>
</event>
<event>
 5    1  0.3284464E-002  0.1250026E+03  0.7818608E-02  0.1235065E+00
          4   -1    0    0  501    0  0.00000000000E+00  0.00000000000E+00  0.70964585966E+03  0.70964699607E+03  0.12700000000E+01 0.  1.
         -4   -1    0    0    0  501 -0.00000000000E+00 -0.00000000000E+00 -0.54303262307E+01  0.55768578045E+01  0.12700000000E+01 0.  1.
         25    2    1    2    0    0  0.00000000000E+00  0.00000000000E+00  0.70421553343E+03  0.71522385388E+03  0.12500257449E+03 0.  0.
    9000005    1    3    3    0    0 -0.20947182209E+02 -0.52661213016E+02  0.20143936265E+03  0.20926252560E+03  0.10000000000E+01 0.  0.
    9000005    1    3    3    0    0  0.20947182209E+02  0.52661213016E+02  0.50277617078E+03  0.50596132827E+03  0.10000000000E+01 0.  0.
<mgrwt>
<rscale>  0 0.12500257E+03</rscale>
<asrwt>0</asrwt>
<pdfrwt beam="1">  1        4 0.10918755E+00 0.12500257E+03</pdfrwt>
<pdfrwt beam="2">  1       -4 0.84679459E-03 0.12500257E+03</pdfrwt>
<totfact> 0.42292788E+03</totfact>
</mgrwt>
</event>
<event>
 5    1  0.3284464E-002  0.1250043E+03  0.7818608E-02  0.1235063E+00
         -4   -1    0    0    0  501 -0.00000000000E+00  0.00000000000E+00  0.33843730121E+02  0.33867550376E+02  0.12700000000E+01 0. -1.
          4   -1    0    0  501    0  0.00000000000E+00 -0.00000000000E+00 -0.11536018194E+03  0.11536717244E+03  0.12700000000E+01 0. -1.
         25    2    1    2    0    0  0.00000000000E+00  0.00000000000E+00 -0.81516451817E+02  0.14923472282E+03  0.12500428224E+03 0.  0.
    9000005    1    3    3    0    0  0.33249934305E+02  0.52333580043E+02 -0.50094298482E+02  0.79717002401E+02  0.10000000000E+01 0.  0.
    9000005    1    3    3    0    0 -0.33249934305E+02 -0.52333580043E+02 -0.31422153335E+02  0.69517720415E+02  0.10000000000E+01 0.  0.
<mgrwt>
<rscale>  0 0.12500428E+03</rscale>
<asrwt>0</asrwt>
<pdfrwt beam="2">  1        4 0.17750090E-01 0.12500428E+03</pdfrwt>
<pdfrwt beam="1">  1       -4 0.52090978E-02 0.12500428E+03</pdfrwt>
<totfact> 0.99446878E+03</totfact>
</mgrwt>
</event>
<event>
 5    1  0.3284464E-002  0.1249985E+03  0.7818608E-02  0.1235072E+00
         -4   -1    0    0    0  501 -0.00000000000E+00  0.00000000000E+00  0.61487273528E+03  0.61487404685E+03  0.12700000000E+01 0. -1.
          4   -1    0    0  501    0  0.00000000000E+00 -0.00000000000E+00 -0.62879894974E+01  0.64149600092E+01  0.12700000000E+01 0. -1.
         25    2    1    2    0    0  0.00000000000E+00  0.00000000000E+00  0.60858474578E+03  0.62128900686E+03  0.12499854897E+03 0.  0.
    9000005    1    3    3    0    0 -0.50515622668E+02 -0.19709701650E+02  0.14990186799E+03  0.15941101122E+03  0.10000000000E+01 0.  0.
    9000005    1    3    3    0    0  0.50515622668E+02  0.19709701650E+02  0.45868287779E+03  0.46187799563E+03  0.10000000000E+01 0.  0.
<mgrwt>
<rscale>  0 0.12499855E+03</rscale>
<asrwt>0</asrwt>
<pdfrwt beam="2">  1        4 0.97725087E-03 0.12499855E+03</pdfrwt>
<pdfrwt beam="1">  1       -4 0.94605671E-01 0.12499855E+03</pdfrwt>
<totfact> 0.47552295E+03</totfact>
</mgrwt>
</event>
<event>
 5    1  0.3284464E-002  0.1249686E+03  0.7818608E-02  0.1235118E+00
          4   -1    0    0  501    0  0.00000000000E+00  0.00000000000E+00  0.50489967524E+01  0.52062720065E+01  0.12700000000E+01 0.  1.
         -4   -1    0    0    0  501 -0.00000000000E+00 -0.00000000000E+00 -0.76126332485E+03  0.76126438421E+03  0.12700000000E+01 0.  1.
         25    2    1    2    0    0  0.00000000000E+00  0.00000000000E+00 -0.75621432810E+03  0.76647065622E+03  0.12496862333E+03 0.  0.
    9000005    1    3    3    0    0  0.11205271475E+02 -0.25527374353E+02 -0.35185528268E+02  0.44902409175E+02  0.10000000000E+01 0.  0.
    9000005    1    3    3    0    0 -0.11205271475E+02  0.25527374353E+02 -0.72102879983E+03  0.72156824704E+03  0.10000000000E+01 0.  0.
<mgrwt>
<rscale>  0 0.12496862E+03</rscale>
<asrwt>0</asrwt>
<pdfrwt beam="1">  1        4 0.78894892E-03 0.12496862E+03</pdfrwt>
<pdfrwt beam="2">  1       -4 0.11712952E+00 0.12496862E+03</pdfrwt>
<totfact> 0.39825795E+03</totfact>
</mgrwt>
</event>
<event>
 5    1  0.3284464E-002  0.1249994E+03  0.7818608E-02  0.1235070E+00
          4   -1    0    0  501    0  0.00000000000E+00  0.00000000000E+00  0.40494095126E+02  0.40514005481E+02  0.12700000000E+01 0.  1.
         -4   -1    0    0    0  501 -0.00000000000E+00 -0.00000000000E+00 -0.96415910467E+02  0.96424274387E+02  0.12700000000E+01 0.  1.
         25    2    1    2    0    0  0.00000000000E+00  0.00000000000E+00 -0.55921815341E+02  0.13693827987E+03  0.12499937225E+03 0.  0.
    9000005    1    3    3    0    0 -0.50441958813E+02  0.36268131706E+02 -0.20575973789E+02  0.65453336689E+02  0.10000000000E+01 0.  0.
    9000005    1    3    3    0    0  0.50441958813E+02 -0.36268131706E+02 -0.35345841552E+02  0.71484943179E+02  0.10000000000E+01 0.  0.
<mgrwt>
<rscale>  0 0.12499937E+03</rscale>
<asrwt>0</asrwt>
<pdfrwt beam="1">  1        4 0.62320358E-02 0.12499937E+03</pdfrwt>
<pdfrwt beam="2">  1       -4 0.14835392E-01 0.12499937E+03</pdfrwt>
<totfact> 0.10197521E+04</totfact>
</mgrwt>
</event>
<event>
 5    1  0.3284464E-002  0.1250012E+03  0.7818608E-02  0.1235067E+00
          4   -1    0    0  501    0  0.00000000000E+00  0.00000000000E+00  0.47757105847E+03  0.47757274712E+03  0.12700000000E+01 0.  1.
         -4   -1    0    0    0  501 -0.00000000000E+00 -0.00000000000E+00 -0.81285541350E+01  0.82271679408E+01  0.12700000000E+01 0.  1.
         25    2    1    2    0    0  0.00000000000E+00  0.00000000000E+00  0.46944250433E+03  0.48579991506E+03  0.12500117037E+03 0.  0.
    9000005    1    3    3    0    0 -0.59792446095E+02 -0.17927033765E+02  0.24625530604E+03  0.25404564729E+03  0.10000000000E+01 0.  0.
    9000005    1    3    3    0    0  0.59792446095E+02  0.17927033765E+02  0.22318719829E+03  0.23175426777E+03  0.10000000000E+01 0.  0.
<mgrwt>
<rscale>  0 0.12500117E+03</rscale>
<asrwt>0</asrwt>
<pdfrwt beam="1">  1        4 0.73480209E-01 0.12500117E+03</pdfrwt>
<pdfrwt beam="2">  1       -4 0.12582620E-02 0.12500117E+03</pdfrwt>
<totfact> 0.56981719E+03</totfact>
</mgrwt>
</event>
<event>
 5    1  0.3284464E-002  0.1249989E+03  0.7818608E-02  0.1235071E+00
         -4   -1    0    0    0  501 -0.00000000000E+00  0.00000000000E+00  0.11383707721E+04  0.11383714805E+04  0.12700000000E+01 0. -1.
          4   -1    0    0  501    0  0.00000000000E+00 -0.00000000000E+00 -0.33131322582E+01  0.35482031171E+01  0.12700000000E+01 0. -1.
         25    2    1    2    0    0  0.00000000000E+00  0.00000000000E+00  0.11350576398E+04  0.11419196836E+04  0.12499887249E+03 0.  0.
    9000005    1    3    3    0    0 -0.36450078672E+02 -0.31579677250E+02  0.20448325782E+03  0.21009589948E+03  0.10000000000E+01 0.  0.
    9000005    1    3    3    0    0  0.36450078672E+02  0.31579677250E+02  0.93057438200E+03  0.93182378414E+03  0.10000000000E+01 0.  0.
<mgrwt>
<rscale>  0 0.12499887E+03</rscale>
<asrwt>0</asrwt>
<pdfrwt beam="2">  1        4 0.52784862E-03 0.12499887E+03</pdfrwt>
<pdfrwt beam="1">  1       -4 0.17515240E+00 0.12499887E+03</pdfrwt>
<totfact> 0.26286090E+03</totfact>
</mgrwt>
</event>
<event>
 5    1  0.3284464E-002  0.1250294E+03  0.7818608E-02  0.1235023E+00
         -4   -1    0    0    0  501 -0.00000000000E+00  0.00000000000E+00  0.32986371429E+01  0.35346721206E+01  0.12700000000E+01 0. -1.
          4   -1    0    0  501    0  0.00000000000E+00 -0.00000000000E+00 -0.11435982541E+04  0.11435989592E+04  0.12700000000E+01 0. -1.
         25    2    1    2    0    0  0.00000000000E+00  0.00000000000E+00 -0.11402996169E+04  0.11471336314E+04  0.12502940403E+03 0.  0.
    9000005    1    3    3    0    0  0.29665343730E+02 -0.52485493074E+01 -0.10726391676E+04  0.10730626095E+04  0.10000000000E+01 0.  0.
    9000005    1    3    3    0    0 -0.29665343730E+02  0.52485493074E+01 -0.67660449281E+02  0.74071021900E+02  0.10000000000E+01 0.  0.
<mgrwt>
<rscale>  0 0.12502940E+03</rscale>
<asrwt>0</asrwt>
<pdfrwt beam="2">  1        4 0.17595610E+00 0.12502940E+03</pdfrwt>
<pdfrwt beam="1">  1       -4 0.52569433E-03 0.12502940E+03</pdfrwt>
<totfact> 0.26123193E+03</totfact>
</mgrwt>
</event>
<event>
 5    1  0.3284464E-002  0.1250021E+03  0.7818608E-02  0.1235066E+00
          4   -1    0    0  501    0  0.00000000000E+00  0.00000000000E+00  0.28086243668E+02  0.28114942351E+02  0.12700000000E+01 0. -1.
         -4   -1    0    0    0  501 -0.00000000000E+00 -0.00000000000E+00 -0.13898260039E+03  0.13898840279E+03  0.12700000000E+01 0. -1.
         25    2    1    2    0    0  0.00000000000E+00  0.00000000000E+00 -0.11089635672E+03  0.16710334514E+03  0.12500210408E+03 0.  0.
    9000005    1    3    3    0    0 -0.32138725865E+02  0.45911126404E+02 -0.18482403511E+02  0.59019729476E+02  0.10000000000E+01 0.  0.
    9000005    1    3    3    0    0  0.32138725865E+02 -0.45911126404E+02 -0.92413953211E+02  0.10808361567E+03  0.10000000000E+01 0.  0.
<mgrwt>
<rscale>  0 0.12500210E+03</rscale>
<asrwt>0</asrwt>
<pdfrwt beam="1">  1        4 0.43236146E-02 0.12500210E+03</pdfrwt>
<pdfrwt beam="2">  1       -4 0.21384592E-01 0.12500210E+03</pdfrwt>
<totfact> 0.95985993E+03</totfact>
</mgrwt>
</event>
<event>
 5    1  0.3284464E-002  0.1249983E+03  0.7818608E-02  0.1235072E+00
          4   -1    0    0  501    0  0.00000000000E+00  0.00000000000E+00  0.30003542796E+03  0.30003811580E+03  0.12700000000E+01 0.  1.
         -4   -1    0    0    0  501 -0.00000000000E+00 -0.00000000000E+00 -0.12985206604E+02  0.13047164081E+02  0.12700000000E+01 0.  1.
         25    2    1    2    0    0  0.00000000000E+00  0.00000000000E+00  0.28705022136E+03  0.31308527988E+03  0.12499825157E+03 0.  0.
    9000005    1    3    3    0    0 -0.51135922398E+02  0.19344102740E+02  0.67715968159E+02  0.87037516129E+02  0.10000000000E+01 0.  0.
    9000005    1    3    3    0    0  0.51135922398E+02 -0.19344102740E+02  0.21933425320E+03  0.22604776375E+03  0.10000000000E+01 0.  0.
<mgrwt>
<rscale>  0 0.12499825E+03</rscale>
<asrwt>0</asrwt>
<pdfrwt beam="1">  1        4 0.46164264E-01 0.12499825E+03</pdfrwt>
<pdfrwt beam="2">  1       -4 0.20026970E-02 0.12499825E+03</pdfrwt>
<totfact> 0.73989029E+03</totfact>
</mgrwt>
</event>
<event>
 5    1  0.3284464E-002  0.1249998E+03  0.7818608E-02  0.1235070E+00
         -4   -1    0    0    0  501 -0.00000000000E+00  0.00000000000E+00  0.19949839400E+03  0.19950243634E+03  0.12700000000E+01 0. -1.
          4   -1    0    0  501    0  0.00000000000E+00 -0.00000000000E+00 -0.19555458565E+02  0.19596654298E+02  0.12700000000E+01 0. -1.
         25    2    1    2    0    0  0.00000000000E+00  0.00000000000E+00  0.17994293543E+03  0.21909909064E+03  0.12499980603E+03 0.  0.
    9000005    1    3    3    0    0  0.17923421960E+02 -0.56643042628E+02  0.56003642152E+02  0.81652258189E+02  0.10000000000E+01 0.  0.
    9000005    1    3    3    0    0 -0.17923421960E+02  0.56643042628E+02  0.12393929328E+03  0.13744683245E+03  0.10000000000E+01 0.  0.
<mgrwt>
<rscale>  0 0.12499981E+03</rscale>
<asrwt>0</asrwt>
<pdfrwt beam="2">  1        4 0.30120120E-02 0.12499981E+03</pdfrwt>
<pdfrwt beam="1">  1       -4 0.30695540E-01 0.12499981E+03</pdfrwt>
<totfact> 0.87011484E+03</totfact>
</mgrwt>
</event>
<event>
 5    1  0.3284464E-002  0.1250017E+03  0.7818608E-02  0.1235067E+00
         -4   -1    0    0    0  501 -0.00000000000E+00  0.00000000000E+00  0.46615140428E+02  0.46632437392E+02  0.12700000000E+01 0.  1.
          4   -1    0    0  501    0  0.00000000000E+00 -0.00000000000E+00 -0.83762462998E+02  0.83772090266E+02  0.12700000000E+01 0.  1.
         25    2    1    2    0    0  0.00000000000E+00  0.00000000000E+00 -0.37147322570E+02  0.13040452766E+03  0.12500166903E+03 0.  0.
    9000005    1    3    3    0    0  0.46450018351E+02  0.13818688242E+02 -0.59735278385E+02  0.76927653241E+02  0.10000000000E+01 0.  0.
    9000005    1    3    3    0    0 -0.46450018351E+02 -0.13818688242E+02  0.22587955814E+02  0.53476874417E+02  0.10000000000E+01 0.  0.
<mgrwt>
<rscale>  0 0.12500167E+03</rscale>
<asrwt>0</asrwt>
<pdfrwt beam="2">  1        4 0.12888604E-01 0.12500167E+03</pdfrwt>
<pdfrwt beam="1">  1       -4 0.71736312E-02 0.12500167E+03</pdfrwt>
<totfact> 0.10335472E+04</totfact>
</mgrwt>
</event>
<event>
 5    1  0.3284464E-002  0.1249893E+03  0.7818608E-02  0.1235086E+00
         -4   -1    0    0    0  501 -0.00000000000E+00  0.00000000000E+00  0.41734999773E+02  0.41754318412E+02  0.12700000000E+01 0.  1.
          4   -1    0    0  501    0  0.00000000000E+00 -0.00000000000E+00 -0.93535232893E+02  0.93543854380E+02  0.12700000000E+01 0.  1.
         25    2    1    2    0    0  0.00000000000E+00  0.00000000000E+00 -0.51800233119E+02  0.13529817279E+03  0.12498932518E+03 0.  0.
    9000005    1    3    3    0    0 -0.38702788328E+02 -0.43707103482E+02 -0.17832944878E+01  0.58415724410E+02  0.10000000000E+01 0.  0.
    9000005    1    3    3    0    0  0.38702788328E+02  0.43707103482E+02 -0.50016938632E+02  0.76882448382E+02  0.10000000000E+01 0.  0.
<mgrwt>
<rscale>  0 0.12498933E+03</rscale>
<asrwt>0</asrwt>
<pdfrwt beam="2">  1        4 0.14392185E-01 0.12498933E+03</pdfrwt>
<pdfrwt beam="1">  1       -4 0.64229184E-02 0.12498933E+03</pdfrwt>
<totfact> 0.10234254E+04</totfact>
</mgrwt>
</event>
<event>
 5    1  0.3284464E-002  0.1250018E+03  0.7818608E-02  0.1235066E+00
          4   -1    0    0  501    0  0.00000000000E+00  0.00000000000E+00  0.30477629455E+02  0.30504078370E+02  0.12700000000E+01 0. -1.
         -4   -1    0    0    0  501 -0.00000000000E+00 -0.00000000000E+00 -0.12808629136E+03  0.12809258735E+03  0.12700000000E+01 0. -1.
         25    2    1    2    0    0  0.00000000000E+00  0.00000000000E+00 -0.97608661908E+02  0.15859666572E+03  0.12500180598E+03 0.  0.
    9000005    1    3    3    0    0 -0.22190019286E+02  0.29657685306E+02  0.15055620950E+02  0.39995586954E+02  0.10000000000E+01 0.  0.
    9000005    1    3    3    0    0  0.22190019286E+02 -0.29657685306E+02 -0.11266428286E+03  0.11860107877E+03  0.10000000000E+01 0.  0.
<mgrwt>
<rscale>  0 0.12500181E+03</rscale>
<asrwt>0</asrwt>
<pdfrwt beam="1">  1        4 0.46913850E-02 0.12500181E+03</pdfrwt>
<pdfrwt beam="2">  1       -4 0.19708102E-01 0.12500181E+03</pdfrwt>
<totfact> 0.97610058E+03</totfact>
</mgrwt>
</event>
<event>
 5    1  0.3284464E-002  0.1249976E+03  0.7818608E-02  0.1235073E+00
          4   -1    0    0  501    0  0.00000000000E+00  0.00000000000E+00  0.91333264793E+02  0.91342094117E+02  0.12700000000E+01 0. -1.
         -4   -1    0    0    0  501 -0.00000000000E+00 -0.00000000000E+00 -0.42747244223E+02  0.42766105606E+02  0.12700000000E+01 0. -1.
         25    2    1    2    0    0  0.00000000000E+00  0.00000000000E+00  0.48586020569E+02  0.13410819972E+03  0.12499763133E+03 0.  0.
    9000005    1    3    3    0    0  0.58421452392E+02  0.67031921769E+00  0.50525088039E+00  0.58436039444E+02  0.10000000000E+01 0.  0.
    9000005    1    3    3    0    0 -0.58421452392E+02 -0.67031921769E+00  0.48080769689E+02  0.75672160279E+02  0.10000000000E+01 0.  0.
<mgrwt>
<rscale>  0 0.12499763E+03</rscale>
<asrwt>0</asrwt>
<pdfrwt beam="1">  1        4 0.14053401E-01 0.12499763E+03</pdfrwt>
<pdfrwt beam="2">  1       -4 0.65786292E-02 0.12499763E+03</pdfrwt>
<totfact> 0.10257450E+04</totfact>
</mgrwt>
</event>
<event>
 5    1  0.3284464E-002  0.1250000E+03  0.7818608E-02  0.1235069E+00
          4   -1    0    0  501    0  0.00000000000E+00  0.00000000000E+00  0.99366202514E+02  0.99374318121E+02  0.12700000000E+01 0.  1.
         -4   -1    0    0    0  501 -0.00000000000E+00 -0.00000000000E+00 -0.39291649207E+02  0.39312168566E+02  0.12700000000E+01 0.  1.
         25    2    1    2    0    0  0.00000000000E+00  0.00000000000E+00  0.60074553307E+02  0.13868648669E+03  0.12499995854E+03 0.  0.
    9000005    1    3    3    0    0  0.62210968868E+02 -0.49812483511E+01  0.33585905070E+02  0.70880395752E+02  0.10000000000E+01 0.  0.
    9000005    1    3    3    0    0 -0.62210968868E+02  0.49812483511E+01  0.26488648238E+02  0.67806090936E+02  0.10000000000E+01 0.  0.
<mgrwt>
<rscale>  0 0.12499996E+03</rscale>
<asrwt>0</asrwt>
<pdfrwt beam="1">  1        4 0.15289311E-01 0.12499996E+03</pdfrwt>
<pdfrwt beam="2">  1       -4 0.60470718E-02 0.12499996E+03</pdfrwt>
<totfact> 0.10160891E+04</totfact>
</mgrwt>
</event>
<event>
 5    1  0.3284464E-002  0.1250009E+03  0.7818608E-02  0.1235068E+00
          4   -1    0    0  501    0  0.00000000000E+00  0.00000000000E+00  0.94926075931E+01  0.95771863779E+01  0.12700000000E+01 0.  1.
         -4   -1    0    0    0  501 -0.00000000000E+00 -0.00000000000E+00 -0.40959961735E+03  0.40960158622E+03  0.12700000000E+01 0.  1.
         25    2    1    2    0    0  0.00000000000E+00  0.00000000000E+00 -0.40010700976E+03  0.41917877260E+03  0.12500089655E+03 0.  0.
    9000005    1    3    3    0    0  0.45091202608E+01 -0.56270510743E+02 -0.11015948228E+03  0.12378535488E+03  0.10000000000E+01 0.  0.
    9000005    1    3    3    0    0 -0.45091202608E+01  0.56270510743E+02 -0.28994752748E+03  0.29539341772E+03  0.10000000000E+01 0.  0.
<mgrwt>
<rscale>  0 0.12500090E+03</rscale>
<asrwt>0</asrwt>
<pdfrwt beam="1">  1        4 0.14670590E-02 0.12500090E+03</pdfrwt>
<pdfrwt beam="2">  1       -4 0.63021970E-01 0.12500090E+03</pdfrwt>
<totfact> 0.62728035E+03</totfact>
</mgrwt>
</event>
<event>
 5    1  0.3284464E-002  0.1249995E+03  0.7818608E-02  0.1235070E+00
          4   -1    0    0  501    0  0.00000000000E+00  0.00000000000E+00  0.72748778295E+03  0.72748889149E+03  0.12700000000E+01 0.  1.
         -4   -1    0    0    0  501 -0.00000000000E+00 -0.00000000000E+00 -0.52932386940E+01  0.54434617544E+01  0.12700000000E+01 0.  1.
         25    2    1    2    0    0  0.00000000000E+00  0.00000000000E+00  0.72219454425E+03  0.73293235324E+03  0.12499949872E+03 0.  0.
    9000005    1    3    3    0    0 -0.35024485421E+01  0.44864159014E+02  0.61534254253E+03  0.61698663240E+03  0.10000000000E+01 0.  0.
    9000005    1    3    3    0    0  0.35024485421E+01 -0.44864159014E+02  0.10685200172E+03  0.11594572084E+03  0.10000000000E+01 0.  0.
<mgrwt>
<rscale>  0 0.12499950E+03</rscale>
<asrwt>0</asrwt>
<pdfrwt beam="1">  1        4 0.11193283E+00 0.12499950E+03</pdfrwt>
<pdfrwt beam="2">  1       -4 0.82598535E-03 0.12499950E+03</pdfrwt>
<totfact> 0.41404545E+03</totfact>
</mgrwt>
</event>
<event>
 5    1  0.3284464E-002  0.1249956E+03  0.7818608E-02  0.1235076E+00
         -4   -1    0    0    0  501 -0.00000000000E+00  0.00000000000E+00  0.90905444279E+02  0.90914315152E+02  0.12700000000E+01 0. -1.
          4   -1    0    0  501    0  0.00000000000E+00 -0.00000000000E+00 -0.42947103055E+02  0.42965876702E+02  0.12700000000E+01 0. -1.
         25    2    1    2    0    0  0.00000000000E+00  0.00000000000E+00  0.47958341224E+02  0.13388019185E+03  0.12499561304E+03 0.  0.
    9000005    1    3    3    0    0  0.43688775152E+02 -0.44528998634E+02  0.20053256356E+02  0.65533761406E+02  0.10000000000E+01 0.  0.
    9000005    1    3    3    0    0 -0.43688775152E+02  0.44528998634E+02  0.27905084868E+02  0.68346430449E+02  0.10000000000E+01 0.  0.
<mgrwt>
<rscale>  0 0.12499561E+03</rscale>
<asrwt>0</asrwt>
<pdfrwt beam="2">  1        4 0.66093731E-02 0.12499561E+03</pdfrwt>
<pdfrwt beam="1">  1       -4 0.13987579E-01 0.12499561E+03</pdfrwt>
<totfact> 0.10262743E+04</totfact>
</mgrwt>
</event>
<event>
 5    1  0.3284464E-002  0.1249979E+03  0.7818608E-02  0.1235073E+00
          4   -1    0    0  501    0  0.00000000000E+00  0.00000000000E+00  0.40962329043E+02  0.40982011915E+02  0.12700000000E+01 0. -1.
         -4   -1    0    0    0  501 -0.00000000000E+00 -0.00000000000E+00 -0.95312029367E+02  0.95320490148E+02  0.12700000000E+01 0. -1.
         25    2    1    2    0    0  0.00000000000E+00  0.00000000000E+00 -0.54349700324E+02  0.13630250206E+03  0.12499792856E+03 0.  0.
    9000005    1    3    3    0    0  0.45416436932E+02  0.81472109002E+01  0.18780236342E+02  0.49826971271E+02  0.10000000000E+01 0.  0.
    9000005    1    3    3    0    0 -0.45416436932E+02 -0.81472109002E+01 -0.73129936665E+02  0.86475530792E+02  0.10000000000E+01 0.  0.
<mgrwt>
<rscale>  0 0.12499793E+03</rscale>
<asrwt>0</asrwt>
<pdfrwt beam="1">  1        4 0.63040617E-02 0.12499793E+03</pdfrwt>
<pdfrwt beam="2">  1       -4 0.14665554E-01 0.12499793E+03</pdfrwt>
<totfact> 0.10211167E+04</totfact>
</mgrwt>
</event>
<event>
 5    1  0.3284464E-002  0.1250097E+03  0.7818608E-02  0.1235054E+00
          4   -1    0    0  501    0  0.00000000000E+00  0.00000000000E+00  0.88541607168E+02  0.88550714847E+02  0.12700000000E+01 0.  1.
         -4   -1    0    0    0  501 -0.00000000000E+00 -0.00000000000E+00 -0.44103985270E+02  0.44122266677E+02  0.12700000000E+01 0.  1.
         25    2    1    2    0    0  0.00000000000E+00  0.00000000000E+00  0.44437621898E+02  0.13267298152E+03  0.12500967077E+03 0.  0.
    9000005    1    3    3    0    0 -0.50886971747E+02  0.28919891017E+02 -0.10333985233E+01  0.58548372330E+02  0.10000000000E+01 0.  0.
    9000005    1    3    3    0    0  0.50886971747E+02 -0.28919891017E+02  0.45471020422E+02  0.74124609194E+02  0.10000000000E+01 0.  0.
<mgrwt>
<rscale>  0 0.12500967E+03</rscale>
<asrwt>0</asrwt>
<pdfrwt beam="1">  1        4 0.13623892E-01 0.12500967E+03</pdfrwt>
<pdfrwt beam="2">  1       -4 0.67873354E-02 0.12500967E+03</pdfrwt>
<totfact> 0.10285111E+04</totfact>
</mgrwt>
</event>
<event>
 5    1  0.3284464E-002  0.1249963E+03  0.7818608E-02  0.1235075E+00
         -4   -1    0    0    0  501 -0.00000000000E+00  0.00000000000E+00  0.49782619142E+03  0.49782781136E+03  0.12700000000E+01 0.  1.
          4   -1    0    0  501    0  0.00000000000E+00 -0.00000000000E+00 -0.77931142021E+01  0.78959185005E+01  0.12700000000E+01 0.  1.
         25    2    1    2    0    0  0.00000000000E+00  0.00000000000E+00  0.49003307722E+03  0.50572372986E+03  0.12499629665E+03 0.  0.
    9000005    1    3    3    0    0  0.46128897594E+01  0.19908467828E+02  0.60887775775E+01  0.21347108834E+02  0.10000000000E+01 0.  0.
    9000005    1    3    3    0    0 -0.46128897594E+01 -0.19908467828E+02  0.48394429964E+03  0.48437662103E+03  0.10000000000E+01 0.  0.
<mgrwt>
<rscale>  0 0.12499630E+03</rscale>
<asrwt>0</asrwt>
<pdfrwt beam="2">  1        4 0.12069729E-02 0.12499630E+03</pdfrwt>
<pdfrwt beam="1">  1       -4 0.76596698E-01 0.12499630E+03</pdfrwt>
<totfact> 0.55427495E+03</totfact>
</mgrwt>
</event>
<event>
 5    1  0.3284464E-002  0.1249993E+03  0.7818608E-02  0.1235070E+00
          4   -1    0    0  501    0  0.00000000000E+00  0.00000000000E+00  0.76801624147E+03  0.76801729151E+03  0.12700000000E+01 0.  1.
         -4   -1    0    0    0  501 -0.00000000000E+00 -0.00000000000E+00 -0.50057458305E+01  0.51643384203E+01  0.12700000000E+01 0.  1.
         25    2    1    2    0    0  0.00000000000E+00  0.00000000000E+00  0.76301049564E+03  0.77318162993E+03  0.12499926563E+03 0.  0.
    9000005    1    3    3    0    0 -0.32676744397E+02 -0.16579570736E+02  0.68385516660E+02  0.77590145502E+02  0.10000000000E+01 0.  0.
    9000005    1    3    3    0    0  0.32676744397E+02  0.16579570736E+02  0.69462497898E+03  0.69559148443E+03  0.10000000000E+01 0.  0.
<mgrwt>
<rscale>  0 0.12499927E+03</rscale>
<asrwt>0</asrwt>
<pdfrwt beam="1">  1        4 0.11816852E+00 0.12499927E+03</pdfrwt>
<pdfrwt beam="2">  1       -4 0.78239564E-03 0.12499927E+03</pdfrwt>
<totfact> 0.39489781E+03</totfact>
</mgrwt>
</event>
<event>
 5    1  0.3284464E-002  0.1249986E+03  0.7818608E-02  0.1235071E+00
         -4   -1    0    0    0  501 -0.00000000000E+00  0.00000000000E+00  0.28304231816E+04  0.28304234665E+04  0.12700000000E+01 0.  1.
          4   -1    0    0  501    0  0.00000000000E+00 -0.00000000000E+00 -0.10875386367E+01  0.16720168319E+01  0.12700000000E+01 0.  1.
         25    2    1    2    0    0  0.00000000000E+00  0.00000000000E+00  0.28293356430E+04  0.28320954834E+04  0.12499858516E+03 0.  0.
    9000005    1    3    3    0    0 -0.78572653972E-02  0.35069511478E+02  0.24277390905E+03  0.24529582469E+03  0.10000000000E+01 0.  0.
    9000005    1    3    3    0    0  0.78572653972E-02 -0.35069511478E+02  0.25865617339E+04  0.25867996587E+04  0.10000000000E+01 0.  0.
<mgrwt>
<rscale>  0 0.12499859E+03</rscale>
<asrwt>0</asrwt>
<pdfrwt beam="2">  1        4 0.21229742E-03 0.12499859E+03</pdfrwt>
<pdfrwt beam="1">  1       -4 0.43549059E+00 0.12499859E+03</pdfrwt>
<totfact> 0.25537977E+02</totfact>
</mgrwt>
</event>
<event>
 5    1  0.3284464E-002  0.1249994E+03  0.7818608E-02  0.1235070E+00
          4   -1    0    0  501    0  0.00000000000E+00  0.00000000000E+00  0.11396904106E+03  0.11397611688E+03  0.12700000000E+01 0.  1.
         -4   -1    0    0    0  501 -0.00000000000E+00 -0.00000000000E+00 -0.34254442532E+02  0.34277977379E+02  0.12700000000E+01 0.  1.
         25    2    1    2    0    0  0.00000000000E+00  0.00000000000E+00  0.79714598527E+02  0.14825409426E+03  0.12499943699E+03 0.  0.
    9000005    1    3    3    0    0 -0.41578457277E+02  0.20802777207E+01 -0.15419191111E+02  0.44405485241E+02  0.10000000000E+01 0.  0.
    9000005    1    3    3    0    0  0.41578457277E+02 -0.20802777207E+01  0.95133789637E+02  0.10384860902E+03  0.10000000000E+01 0.  0.
<mgrwt>
<rscale>  0 0.12499944E+03</rscale>
<asrwt>0</asrwt>
<pdfrwt beam="1">  1        4 0.17536053E-01 0.12499944E+03</pdfrwt>
<pdfrwt beam="2">  1       -4 0.52722689E-02 0.12499944E+03</pdfrwt>
<totfact> 0.99654126E+03</totfact>
</mgrwt>
</event>
<event>
 5    1  0.3284464E-002  0.1250000E+03  0.7818608E-02  0.1235069E+00
          4   -1    0    0  501    0  0.00000000000E+00  0.00000000000E+00  0.33449818827E+01  0.35779608433E+01  0.12700000000E+01 0.  1.
         -4   -1    0    0    0  501 -0.00000000000E+00 -0.00000000000E+00 -0.11282601797E+04  0.11282608945E+04  0.12700000000E+01 0.  1.
         25    2    1    2    0    0  0.00000000000E+00  0.00000000000E+00 -0.11249151979E+04  0.11318388553E+04  0.12499996849E+03 0.  0.
    9000005    1    3    3    0    0 -0.24292965713E+02 -0.25178722503E+02 -0.93607755099E+02  0.99937620868E+02  0.10000000000E+01 0.  0.
    9000005    1    3    3    0    0  0.24292965713E+02  0.25178722503E+02 -0.10313074428E+04  0.10319012345E+04  0.10000000000E+01 0.  0.
<mgrwt>
<rscale>  0 0.12499997E+03</rscale>
<asrwt>0</asrwt>
<pdfrwt beam="1">  1        4 0.53258994E-03 0.12499997E+03</pdfrwt>
<pdfrwt beam="2">  1       -4 0.17359617E+00 0.12499997E+03</pdfrwt>
<totfact> 0.26569629E+03</totfact>
</mgrwt>
</event>
<event>
 5    1  0.3284464E-002  0.1250214E+03  0.7818608E-02  0.1235036E+00
         -4   -1    0    0    0  501 -0.00000000000E+00  0.00000000000E+00  0.15065157882E+03  0.15065693181E+03  0.12700000000E+01 0. -1.
          4   -1    0    0  501    0  0.00000000000E+00 -0.00000000000E+00 -0.25916567945E+02  0.25947666447E+02  0.12700000000E+01 0. -1.
         25    2    1    2    0    0  0.00000000000E+00  0.00000000000E+00  0.12473501088E+03  0.17660459825E+03  0.12502144291E+03 0.  0.
    9000005    1    3    3    0    0  0.63963345480E-01 -0.59294149185E+02  0.34442757327E+02  0.68579178700E+02  0.10000000000E+01 0.  0.
    9000005    1    3    3    0    0 -0.63963345480E-01  0.59294149185E+02  0.90292253549E+02  0.10802541955E+03  0.10000000000E+01 0.  0.
<mgrwt>
<rscale>  0 0.12502144E+03</rscale>
<asrwt>0</asrwt>
<pdfrwt beam="2">  1        4 0.39899682E-02 0.12502144E+03</pdfrwt>
<pdfrwt beam="1">  1       -4 0.23179970E-01 0.12502144E+03</pdfrwt>
<totfact> 0.94186474E+03</totfact>
</mgrwt>
</event>
<event>
 5    1  0.3284464E-002  0.1249995E+03  0.7818608E-02  0.1235070E+00
         -4   -1    0    0    0  501 -0.00000000000E+00  0.00000000000E+00  0.27244445148E+03  0.27244741152E+03  0.12700000000E+01 0.  1.
          4   -1    0    0  501    0  0.00000000000E+00 -0.00000000000E+00 -0.14306492553E+02  0.14362751448E+02  0.12700000000E+01 0.  1.
         25    2    1    2    0    0  0.00000000000E+00  0.00000000000E+00  0.25813795893E+03  0.28681016297E+03  0.12499945496E+03 0.  0.
    9000005    1    3    3    0    0  0.52452935012E+02  0.49160521694E+01  0.20619044620E+03  0.21281677110E+03  0.10000000000E+01 0.  0.
    9000005    1    3    3    0    0 -0.52452935012E+02 -0.49160521694E+01  0.51947512735E+02  0.73993391865E+02  0.10000000000E+01 0.  0.
<mgrwt>
<rscale>  0 0.12499945E+03</rscale>
<asrwt>0</asrwt>
<pdfrwt beam="2">  1        4 0.22055544E-02 0.12499945E+03</pdfrwt>
<pdfrwt beam="1">  1       -4 0.41919081E-01 0.12499945E+03</pdfrwt>
<totfact> 0.77284645E+03</totfact>
</mgrwt>
</event>
<event>
 5    1  0.3284464E-002  0.1249996E+03  0.7818608E-02  0.1235070E+00
         -4   -1    0    0    0  501 -0.00000000000E+00  0.00000000000E+00  0.16928048096E+02  0.16975621118E+02  0.12700000000E+01 0. -1.
          4   -1    0    0  501    0  0.00000000000E+00 -0.00000000000E+00 -0.23038166359E+03  0.23038516406E+03  0.12700000000E+01 0. -1.
         25    2    1    2    0    0  0.00000000000E+00  0.00000000000E+00 -0.21345361549E+03  0.24736078517E+03  0.12499964830E+03 0.  0.
    9000005    1    3    3    0    0 -0.35032356411E+02  0.28738983970E+02 -0.21564700428E+02  0.50191946564E+02  0.10000000000E+01 0.  0.
    9000005    1    3    3    0    0  0.35032356411E+02 -0.28738983970E+02 -0.19188891506E+03  0.19716883861E+03  0.10000000000E+01 0.  0.
<mgrwt>
<rscale>  0 0.12499965E+03</rscale>
<asrwt>0</asrwt>
<pdfrwt beam="2">  1        4 0.35447259E-01 0.12499965E+03</pdfrwt>
<pdfrwt beam="1">  1       -4 0.26082440E-02 0.12499965E+03</pdfrwt>
<totfact> 0.82713828E+03</totfact>
</mgrwt>
</event>
<event>
 5    1  0.3284464E-002  0.1249891E+03  0.7818608E-02  0.1235086E+00
         -4   -1    0    0    0  501 -0.00000000000E+00  0.00000000000E+00  0.16561756994E+02  0.16610379127E+02  0.12700000000E+01 0. -1.
          4   -1    0    0  501    0  0.00000000000E+00 -0.00000000000E+00 -0.23542254705E+03  0.23542597257E+03  0.12700000000E+01 0. -1.
         25    2    1    2    0    0  0.00000000000E+00  0.00000000000E+00 -0.21886079006E+03  0.25203635170E+03  0.12498910813E+03 0.  0.
    9000005    1    3    3    0    0 -0.49482803196E+02  0.78136482660E+01 -0.34116831605E+02  0.60618141758E+02  0.10000000000E+01 0.  0.
    9000005    1    3    3    0    0  0.49482803196E+02 -0.78136482660E+01 -0.18474395845E+03  0.19141820994E+03  0.10000000000E+01 0.  0.
<mgrwt>
<rscale>  0 0.12498911E+03</rscale>
<asrwt>0</asrwt>
<pdfrwt beam="2">  1        4 0.36222855E-01 0.12498911E+03</pdfrwt>
<pdfrwt beam="1">  1       -4 0.25519665E-02 0.12498911E+03</pdfrwt>
<totfact> 0.82056706E+03</totfact>
</mgrwt>
</event>
<event>
 5    1  0.3284464E-002  0.1250047E+03  0.7818608E-02  0.1235062E+00
         -4   -1    0    0    0  501 -0.00000000000E+00  0.00000000000E+00  0.33729686981E+02  0.33753587718E+02  0.12700000000E+01 0.  1.
          4   -1    0    0  501    0  0.00000000000E+00 -0.00000000000E+00 -0.11575072537E+03  0.11575769229E+03  0.12700000000E+01 0.  1.
         25    2    1    2    0    0  0.00000000000E+00  0.00000000000E+00 -0.82021038391E+02  0.14951128001E+03  0.12500468835E+03 0.  0.
    9000005    1    3    3    0    0  0.19329320886E+02  0.97556012884E+00 -0.11208187323E+03  0.11374498086E+03  0.10000000000E+01 0.  0.
    9000005    1    3    3    0    0 -0.19329320886E+02 -0.97556012884E+00  0.30060834840E+02  0.35766299148E+02  0.10000000000E+01 0.  0.
<mgrwt>
<rscale>  0 0.12500469E+03</rscale>
<asrwt>0</asrwt>
<pdfrwt beam="2">  1        4 0.17810178E-01 0.12500469E+03</pdfrwt>
<pdfrwt beam="1">  1       -4 0.51915571E-02 0.12500469E+03</pdfrwt>
<totfact> 0.99390718E+03</totfact>
</mgrwt>
</event>
<event>
 5    1  0.3284464E-002  0.1250014E+03  0.7818608E-02  0.1235067E+00
         -4   -1    0    0    0  501 -0.00000000000E+00  0.00000000000E+00  0.14041057391E+03  0.14041631731E+03  0.12700000000E+01 0. -1.
          4   -1    0    0  501    0  0.00000000000E+00 -0.00000000000E+00 -0.27800027523E+02  0.27829021367E+02  0.12700000000E+01 0. -1.
         25    2    1    2    0    0  0.00000000000E+00  0.00000000000E+00  0.11261054639E+03  0.16824533867E+03  0.12500143530E+03 0.  0.
    9000005    1    3    3    0    0  0.50519784735E+02  0.31538532174E+02  0.30824104708E+02  0.67067526363E+02  0.10000000000E+01 0.  0.
    9000005    1    3    3    0    0 -0.50519784735E+02 -0.31538532174E+02  0.81786441680E+02  0.10117781231E+03  0.10000000000E+01 0.  0.
<mgrwt>
<rscale>  0 0.12500144E+03</rscale>
<asrwt>0</asrwt>
<pdfrwt beam="2">  1        4 0.42795995E-02 0.12500144E+03</pdfrwt>
<pdfrwt beam="1">  1       -4 0.21604299E-01 0.12500144E+03</pdfrwt>
<totfact> 0.95773196E+03</totfact>
</mgrwt>
</event>
<event>
 5    1  0.3284464E-002  0.1250018E+03  0.7818608E-02  0.1235067E+00
          4   -1    0    0  501    0  0.00000000000E+00  0.00000000000E+00  0.18669818398E+04  0.18669822718E+04  0.12700000000E+01 0. -1.
         -4   -1    0    0    0  501 -0.00000000000E+00 -0.00000000000E+00 -0.18991528390E+01  0.22846622302E+01  0.12700000000E+01 0. -1.
         25    2    1    2    0    0  0.00000000000E+00  0.00000000000E+00  0.18650826870E+04  0.18692669340E+04  0.12500176513E+03 0.  0.
    9000005    1    3    3    0    0 -0.41136423442E+02  0.23167111405E+02  0.15448200797E+04  0.15455416524E+04  0.10000000000E+01 0.  0.
    9000005    1    3    3    0    0  0.41136423442E+02 -0.23167111405E+02  0.32026260724E+03  0.32372528165E+03  0.10000000000E+01 0.  0.
<mgrwt>
<rscale>  0 0.12500177E+03</rscale>
<asrwt>0</asrwt>
<pdfrwt beam="1">  1        4 0.28725677E+00 0.12500177E+03</pdfrwt>
<pdfrwt beam="2">  1       -4 0.32186616E-03 0.12500177E+03</pdfrwt>
<totfact> 0.11665305E+03</totfact>
</mgrwt>
</event>
<event>
 5    1  0.3284464E-002  0.1250044E+03  0.7818608E-02  0.1235062E+00
         -4   -1    0    0    0  501 -0.00000000000E+00  0.00000000000E+00  0.22892040169E+04  0.22892043692E+04  0.12700000000E+01 0.  1.
          4   -1    0    0  501    0  0.00000000000E+00 -0.00000000000E+00 -0.14698088833E+01  0.19424824719E+01  0.12700000000E+01 0.  1.
         25    2    1    2    0    0  0.00000000000E+00  0.00000000000E+00  0.22877342080E+04  0.22911468517E+04  0.12500435722E+03 0.  0.
    9000005    1    3    3    0    0  0.39511425806E+02  0.42219303123E+01  0.25980354156E+03  0.26282666850E+03  0.10000000000E+01 0.  0.
    9000005    1    3    3    0    0 -0.39511425806E+02 -0.42219303123E+01  0.20279306665E+04  0.20283201832E+04  0.10000000000E+01 0.  0.
<mgrwt>
<rscale>  0 0.12500436E+03</rscale>
<asrwt>0</asrwt>
<pdfrwt beam="2">  1        4 0.26251060E-03 0.12500436E+03</pdfrwt>
<pdfrwt beam="1">  1       -4 0.35222223E+00 0.12500436E+03</pdfrwt>
<totfact> 0.65230595E+02</totfact>
</mgrwt>
</event>
<event>
 5    1  0.3284464E-002  0.1249995E+03  0.7818608E-02  0.1235070E+00
         -4   -1    0    0    0  501 -0.00000000000E+00  0.00000000000E+00  0.39701879247E+02  0.39722186694E+02  0.12700000000E+01 0. -1.
          4   -1    0    0  501    0  0.00000000000E+00 -0.00000000000E+00 -0.98339261277E+02  0.98347461627E+02  0.12700000000E+01 0. -1.
         25    2    1    2    0    0  0.00000000000E+00  0.00000000000E+00 -0.58637382030E+02  0.13806964832E+03  0.12499954086E+03 0.  0.
    9000005    1    3    3    0    0  0.48882305946E+02 -0.29677276415E+02 -0.57152773793E+02  0.80855798322E+02  0.10000000000E+01 0.  0.
    9000005    1    3    3    0    0 -0.48882305946E+02  0.29677276415E+02 -0.14846082375E+01  0.57213849999E+02  0.10000000000E+01 0.  0.
<mgrwt>
<rscale>  0 0.12499954E+03</rscale>
<asrwt>0</asrwt>
<pdfrwt beam="2">  1        4 0.15131310E-01 0.12499954E+03</pdfrwt>
<pdfrwt beam="1">  1       -4 0.61101744E-02 0.12499954E+03</pdfrwt>
<totfact> 0.10173856E+04</totfact>
</mgrwt>
</event>
<event>
 5    1  0.3284464E-002  0.1249991E+03  0.7818608E-02  0.1235071E+00
          4   -1    0    0  501    0  0.00000000000E+00  0.00000000000E+00  0.23001387219E+03  0.23001737826E+03  0.12700000000E+01 0.  1.
         -4   -1    0    0    0  501 -0.00000000000E+00 -0.00000000000E+00 -0.16955029799E+02  0.17002527326E+02  0.12700000000E+01 0.  1.
         25    2    1    2    0    0  0.00000000000E+00  0.00000000000E+00  0.21305884239E+03  0.24701990558E+03  0.12499905373E+03 0.  0.
    9000005    1    3    3    0    0 -0.37568504468E+02  0.36587779061E+02  0.39364706347E+02  0.65579251370E+02  0.10000000000E+01 0.  0.
    9000005    1    3    3    0    0  0.37568504468E+02 -0.36587779061E+02  0.17369413605E+03  0.18144065421E+03  0.10000000000E+01 0.  0.
<mgrwt>
<rscale>  0 0.12499905E+03</rscale>
<asrwt>0</asrwt>
<pdfrwt beam="1">  1        4 0.35390674E-01 0.12499905E+03</pdfrwt>
<pdfrwt beam="2">  1       -4 0.26123894E-02 0.12499905E+03</pdfrwt>
<totfact> 0.82764604E+03</totfact>
</mgrwt>
</event>
<event>
 5    1  0.3284464E-002  0.1249989E+03  0.7818608E-02  0.1235071E+00
         -4   -1    0    0    0  501 -0.00000000000E+00  0.00000000000E+00  0.14017097430E+03  0.14017672752E+03  0.12700000000E+01 0.  1.
          4   -1    0    0  501    0  0.00000000000E+00 -0.00000000000E+00 -0.27846484714E+02  0.27875430237E+02  0.12700000000E+01 0.  1.
         25    2    1    2    0    0  0.00000000000E+00  0.00000000000E+00  0.11232448959E+03  0.16805215775E+03  0.12499894705E+03 0.  0.
    9000005    1    3    3    0    0 -0.90182009402E+01 -0.16186021754E+02  0.13639961872E+03  0.13765598873E+03  0.10000000000E+01 0.  0.
    9000005    1    3    3    0    0  0.90182009402E+01  0.16186021754E+02 -0.24075129128E+02  0.30396169018E+02  0.10000000000E+01 0.  0.
<mgrwt>
<rscale>  0 0.12499895E+03</rscale>
<asrwt>0</asrwt>
<pdfrwt beam="2">  1        4 0.42867437E-02 0.12499895E+03</pdfrwt>
<pdfrwt beam="1">  1       -4 0.21567434E-01 0.12499895E+03</pdfrwt>
<totfact> 0.95814730E+03</totfact>
</mgrwt>
</event>
<event>
 5    1  0.3284464E-002  0.1250031E+03  0.7818608E-02  0.1235064E+00
          4   -1    0    0  501    0  0.00000000000E+00  0.00000000000E+00  0.41020369234E+03  0.41020565831E+03  0.12700000000E+01 0.  1.
         -4   -1    0    0    0  501 -0.00000000000E+00 -0.00000000000E+00 -0.94788363494E+01  0.95635369262E+01  0.12700000000E+01 0.  1.
         25    2    1    2    0    0  0.00000000000E+00  0.00000000000E+00  0.40072485599E+03  0.41976919524E+03  0.12500306820E+03 0.  0.
    9000005    1    3    3    0    0  0.56125030714E+02  0.27022621975E+02  0.21722001001E+03  0.22597737480E+03  0.10000000000E+01 0.  0.
    9000005    1    3    3    0    0 -0.56125030714E+02 -0.27022621975E+02  0.18350484598E+03  0.19379182044E+03  0.10000000000E+01 0.  0.
<mgrwt>
<rscale>  0 0.12500307E+03</rscale>
<asrwt>0</asrwt>
<pdfrwt beam="1">  1        4 0.63114914E-01 0.12500307E+03</pdfrwt>
<pdfrwt beam="2">  1       -4 0.14649495E-02 0.12500307E+03</pdfrwt>
<totfact> 0.62670192E+03</totfact>
</mgrwt>
</event>
<event>
 5    1  0.3284464E-002  0.1249979E+03  0.7818608E-02  0.1235073E+00
          4   -1    0    0  501    0  0.00000000000E+00  0.00000000000E+00  0.10864187312E+03  0.10864929588E+03  0.12700000000E+01 0. -1.
         -4   -1    0    0    0  501 -0.00000000000E+00 -0.00000000000E+00 -0.35934221714E+02  0.35956657105E+02  0.12700000000E+01 0. -1.
         25    2    1    2    0    0  0.00000000000E+00  0.00000000000E+00  0.72707651410E+02  0.14460595299E+03  0.12499791625E+03 0.  0.
    9000005    1    3    3    0    0 -0.36281836553E+02 -0.26146052663E+02  0.86848542218E+02  0.97691642524E+02  0.10000000000E+01 0.  0.
    9000005    1    3    3    0    0  0.36281836553E+02  0.26146052663E+02 -0.14140890808E+02  0.46914310465E+02  0.10000000000E+01 0.  0.
<mgrwt>
<rscale>  0 0.12499792E+03</rscale>
<asrwt>0</asrwt>
<pdfrwt beam="1">  1        4 0.16716431E-01 0.12499792E+03</pdfrwt>
<pdfrwt beam="2">  1       -4 0.55306386E-02 0.12499792E+03</pdfrwt>
<totfact> 0.10039472E+04</totfact>
</mgrwt>
</event>
<event>
 5    1  0.3284464E-002  0.1250002E+03  0.7818608E-02  0.1235069E+00
          4   -1    0    0  501    0  0.00000000000E+00  0.00000000000E+00  0.68427222933E+02  0.68439007433E+02  0.12700000000E+01 0. -1.
         -4   -1    0    0    0  501 -0.00000000000E+00 -0.00000000000E+00 -0.57062655945E+02  0.57076786906E+02  0.12700000000E+01 0. -1.
         25    2    1    2    0    0  0.00000000000E+00  0.00000000000E+00  0.11364566988E+02  0.12551579434E+03  0.12500024498E+03 0.  0.
    9000005    1    3    3    0    0 -0.21425580557E+02 -0.33496527815E+02 -0.42726431697E+02  0.58374830564E+02  0.10000000000E+01 0.  0.
    9000005    1    3    3    0    0  0.21425580557E+02  0.33496527815E+02  0.54090998685E+02  0.67140963775E+02  0.10000000000E+01 0.  0.
<mgrwt>
<rscale>  0 0.12500024E+03</rscale>
<asrwt>0</asrwt>
<pdfrwt beam="1">  1        4 0.10529259E-01 0.12500024E+03</pdfrwt>
<pdfrwt beam="2">  1       -4 0.87808637E-02 0.12500024E+03</pdfrwt>
<totfact> 0.10441548E+04</totfact>
</mgrwt>
</event>
<event>
 5    1  0.3284464E-002  0.1250255E+03  0.7818608E-02  0.1235029E+00
          4   -1    0    0  501    0  0.00000000000E+00  0.00000000000E+00  0.60203424708E+01  0.61528386511E+01  0.12700000000E+01 0. -1.
         -4   -1    0    0    0  501 -0.00000000000E+00 -0.00000000000E+00 -0.64190830564E+03  0.64190956197E+03  0.12700000000E+01 0. -1.
         25    2    1    2    0    0  0.00000000000E+00  0.00000000000E+00 -0.63588796317E+03  0.64806240062E+03  0.12502549099E+03 0.  0.
    9000005    1    3    3    0    0  0.47006423372E+02  0.38644673268E+02 -0.24394070224E+03  0.25141813940E+03  0.10000000000E+01 0.  0.
    9000005    1    3    3    0    0 -0.47006423372E+02 -0.38644673268E+02 -0.39194726093E+03  0.39664426122E+03  0.10000000000E+01 0.  0.
<mgrwt>
<rscale>  0 0.12502549E+03</rscale>
<asrwt>0</asrwt>
<pdfrwt beam="1">  1        4 0.93649570E-03 0.12502549E+03</pdfrwt>
<pdfrwt beam="2">  1       -4 0.98765359E-01 0.12502549E+03</pdfrwt>
<totfact> 0.45942039E+03</totfact>
</mgrwt>
</event>
<event>
 5    1  0.3284464E-002  0.1249977E+03  0.7818608E-02  0.1235073E+00
          4   -1    0    0  501    0  0.00000000000E+00  0.00000000000E+00  0.15857195830E+03  0.15857704392E+03  0.12700000000E+01 0. -1.
         -4   -1    0    0    0  501 -0.00000000000E+00 -0.00000000000E+00 -0.24611171903E+02  0.24643917757E+02  0.12700000000E+01 0. -1.
         25    2    1    2    0    0  0.00000000000E+00  0.00000000000E+00  0.13396078639E+03  0.18322096167E+03  0.12499771400E+03 0.  0.
    9000005    1    3    3    0    0 -0.18590943178E+02  0.36899614801E+02  0.13569946550E+03  0.14185397308E+03  0.10000000000E+01 0.  0.
    9000005    1    3    3    0    0  0.18590943178E+02 -0.36899614801E+02 -0.17386791059E+01  0.41366988599E+02  0.10000000000E+01 0.  0.
<mgrwt>
<rscale>  0 0.12499771E+03</rscale>
<asrwt>0</asrwt>
<pdfrwt beam="1">  1        4 0.24398595E-01 0.12499771E+03</pdfrwt>
<pdfrwt beam="2">  1       -4 0.37892444E-02 0.12499771E+03</pdfrwt>
<totfact> 0.93045180E+03</totfact>
</mgrwt>
</event>
<event>
 5    1  0.3284464E-002  0.1250005E+03  0.7818608E-02  0.1235068E+00
         -4   -1    0    0    0  501 -0.00000000000E+00  0.00000000000E+00  0.12182647782E+03  0.12183309730E+03  0.12700000000E+01 0.  1.
          4   -1    0    0  501    0  0.00000000000E+00 -0.00000000000E+00 -0.32044242811E+02  0.32069399703E+02  0.12700000000E+01 0.  1.
         25    2    1    2    0    0  0.00000000000E+00  0.00000000000E+00  0.89782235008E+02  0.15390249700E+03  0.12500051544E+03 0.  0.
    9000005    1    3    3    0    0 -0.15184535611E+02 -0.60285354091E+02  0.37066538489E+02  0.72386616962E+02  0.10000000000E+01 0.  0.
    9000005    1    3    3    0    0  0.15184535611E+02  0.60285354091E+02  0.52715696519E+02  0.81515880042E+02  0.10000000000E+01 0.  0.
<mgrwt>
<rscale>  0 0.12500052E+03</rscale>
<asrwt>0</asrwt>
<pdfrwt beam="2">  1        4 0.49323277E-02 0.12500052E+03</pdfrwt>
<pdfrwt beam="1">  1       -4 0.18744980E-01 0.12500052E+03</pdfrwt>
<totfact> 0.98530241E+03</totfact>
</mgrwt>
</event>
<event>
 5    1  0.3284464E-002  0.1249988E+03  0.7818608E-02  0.1235071E+00
         -4   -1    0    0    0  501 -0.00000000000E+00  0.00000000000E+00  0.16122076116E+02  0.16172020229E+02  0.12700000000E+01 0. -1.
          4   -1    0    0  501    0  0.00000000000E+00 -0.00000000000E+00 -0.24186115545E+03  0.24186448978E+03  0.12700000000E+01 0. -1.
         25    2    1    2    0    0  0.00000000000E+00  0.00000000000E+00 -0.22573907934E+03  0.25803651001E+03  0.12499883423E+03 0.  0.
    9000005    1    3    3    0    0  0.16554354606E+02 -0.22100542930E+02 -0.22859433373E+03  0.23025822475E+03  0.10000000000E+01 0.  0.
    9000005    1    3    3    0    0 -0.16554354606E+02  0.22100542930E+02  0.28552543899E+01  0.27778285258E+02  0.10000000000E+01 0.  0.
<mgrwt>
<rscale>  0 0.12499883E+03</rscale>
<asrwt>0</asrwt>
<pdfrwt beam="2">  1        4 0.37213504E-01 0.12499883E+03</pdfrwt>
<pdfrwt beam="1">  1       -4 0.24844179E-02 0.12499883E+03</pdfrwt>
<totfact> 0.81184509E+03</totfact>
</mgrwt>
</event>
<event>
 5    1  0.3284464E-002  0.1250020E+03  0.7818608E-02  0.1235066E+00
         -4   -1    0    0    0  501 -0.00000000000E+00  0.00000000000E+00  0.42821465608E+01  0.44665063717E+01  0.12700000000E+01 0. -1.
          4   -1    0    0  501    0  0.00000000000E+00 -0.00000000000E+00 -0.89283888915E+03  0.89283979239E+03  0.12700000000E+01 0. -1.
         25    2    1    2    0    0  0.00000000000E+00  0.00000000000E+00 -0.88855674259E+03  0.89730629876E+03  0.12500203598E+03 0.  0.
    9000005    1    3    3    0    0  0.59109592542E+02 -0.14193687226E+02 -0.54829551020E+03  0.55165602615E+03  0.10000000000E+01 0.  0.
    9000005    1    3    3    0    0 -0.59109592542E+02  0.14193687226E+02 -0.34026123239E+03  0.34565027261E+03  0.10000000000E+01 0.  0.
<mgrwt>
<rscale>  0 0.12500204E+03</rscale>
<asrwt>0</asrwt>
<pdfrwt beam="2">  1        4 0.13737394E+00 0.12500204E+03</pdfrwt>
<pdfrwt beam="1">  1       -4 0.67304349E-03 0.12500204E+03</pdfrwt>
<totfact> 0.34261783E+03</totfact>
</mgrwt>
</event>
<event>
 5    1  0.3284464E-002  0.1250013E+03  0.7818608E-02  0.1235067E+00
         -4   -1    0    0    0  501 -0.00000000000E+00  0.00000000000E+00  0.48244135362E+03  0.48244302521E+03  0.12700000000E+01 0. -1.
          4   -1    0    0  501    0  0.00000000000E+00 -0.00000000000E+00 -0.80455075269E+01  0.81451268477E+01  0.12700000000E+01 0. -1.
         25    2    1    2    0    0  0.00000000000E+00  0.00000000000E+00  0.47439584609E+03  0.49058815206E+03  0.12500126463E+03 0.  0.
    9000005    1    3    3    0    0  0.16504052747E+02 -0.48756524113E+02  0.37627439369E+03  0.37978020189E+03  0.10000000000E+01 0.  0.
    9000005    1    3    3    0    0 -0.16504052747E+02  0.48756524113E+02  0.98121452398E+02  0.11080795017E+03  0.10000000000E+01 0.  0.
<mgrwt>
<rscale>  0 0.12500126E+03</rscale>
<asrwt>0</asrwt>
<pdfrwt beam="2">  1        4 0.12455619E-02 0.12500126E+03</pdfrwt>
<pdfrwt beam="1">  1       -4 0.74229545E-01 0.12500126E+03</pdfrwt>
<totfact> 0.56600497E+03</totfact>
</mgrwt>
</event>
<event>
 5    1  0.3284464E-002  0.1249996E+03  0.7818608E-02  0.1235070E+00
          4   -1    0    0  501    0  0.00000000000E+00  0.00000000000E+00  0.48146659674E+02  0.48163406625E+02  0.12700000000E+01 0. -1.
         -4   -1    0    0    0  501 -0.00000000000E+00 -0.00000000000E+00 -0.81095977995E+02  0.81105921775E+02  0.12700000000E+01 0. -1.
         25    2    1    2    0    0  0.00000000000E+00  0.00000000000E+00 -0.32949318322E+02  0.12926932840E+03  0.12499960675E+03 0.  0.
    9000005    1    3    3    0    0 -0.12098821579E+02  0.91160355885E+00  0.46921942743E+02  0.48475573390E+02  0.10000000000E+01 0.  0.
    9000005    1    3    3    0    0  0.12098821579E+02 -0.91160355885E+00 -0.79871261065E+02  0.80793755011E+02  0.10000000000E+01 0.  0.
<mgrwt>
<rscale>  0 0.12499961E+03</rscale>
<asrwt>0</asrwt>
<pdfrwt beam="1">  1        4 0.74092315E-02 0.12499961E+03</pdfrwt>
<pdfrwt beam="2">  1       -4 0.12478357E-01 0.12499961E+03</pdfrwt>
<totfact> 0.10360255E+04</totfact>
</mgrwt>
</event>
<event>
 5    1  0.3284464E-002  0.1250010E+03  0.7818608E-02  0.1235068E+00
         -4   -1    0    0    0  501 -0.00000000000E+00  0.00000000000E+00  0.38210284072E+03  0.38210495127E+03  0.12700000000E+01 0. -1.
          4   -1    0    0  501    0  0.00000000000E+00 -0.00000000000E+00 -0.10181610421E+02  0.10260511233E+02  0.12700000000E+01 0. -1.
         25    2    1    2    0    0  0.00000000000E+00  0.00000000000E+00  0.37192123030E+03  0.39236546250E+03  0.12500101847E+03 0.  0.
    9000005    1    3    3    0    0  0.41393524189E+02  0.38143755082E+02  0.10074986413E+03  0.11541189289E+03  0.10000000000E+01 0.  0.
    9000005    1    3    3    0    0 -0.41393524189E+02 -0.38143755082E+02  0.27117136616E+03  0.27695356962E+03  0.10000000000E+01 0.  0.
<mgrwt>
<rscale>  0 0.12500102E+03</rscale>
<asrwt>0</asrwt>
<pdfrwt beam="2">  1        4 0.15726334E-02 0.12500102E+03</pdfrwt>
<pdfrwt beam="1">  1       -4 0.58791277E-01 0.12500102E+03</pdfrwt>
<totfact> 0.65300684E+03</totfact>
</mgrwt>
</event>
<event>
 5    1  0.3284464E-002  0.1249919E+03  0.7818608E-02  0.1235082E+00
          4   -1    0    0  501    0  0.00000000000E+00  0.00000000000E+00  0.13690030892E+01  0.18673696630E+01  0.12700000000E+01 0. -1.
         -4   -1    0    0    0  501 -0.00000000000E+00 -0.00000000000E+00 -0.24131553530E+04  0.24131556872E+04  0.12700000000E+01 0. -1.
         25    2    1    2    0    0  0.00000000000E+00  0.00000000000E+00 -0.24117863499E+04  0.24150230568E+04  0.12499186978E+03 0.  0.
    9000005    1    3    3    0    0  0.46375076760E+02  0.37428371817E+02 -0.15690186336E+04  0.15701503123E+04  0.10000000000E+01 0.  0.
    9000005    1    3    3    0    0 -0.46375076760E+02 -0.37428371817E+02 -0.84276771631E+03  0.84487274451E+03  0.10000000000E+01 0.  0.
<mgrwt>
<rscale>  0 0.12499187E+03</rscale>
<asrwt>0</asrwt>
<pdfrwt beam="1">  1        4 0.24897939E-03 0.12499187E+03</pdfrwt>
<pdfrwt beam="2">  1       -4 0.37129015E+00 0.12499187E+03</pdfrwt>
<totfact> 0.53729052E+02</totfact>
</mgrwt>
</event>
<event>
 5    1  0.3284464E-002  0.1249970E+03  0.7818608E-02  0.1235074E+00
          4   -1    0    0  501    0  0.00000000000E+00  0.00000000000E+00  0.22066289225E+03  0.22066654689E+03  0.12700000000E+01 0. -1.
         -4   -1    0    0    0  501 -0.00000000000E+00 -0.00000000000E+00 -0.17674902541E+02  0.17720470644E+02  0.12700000000E+01 0. -1.
         25    2    1    2    0    0  0.00000000000E+00  0.00000000000E+00  0.20298798971E+03  0.23838701754E+03  0.12499698461E+03 0.  0.
    9000005    1    3    3    0    0 -0.10727533697E+02 -0.39269188109E+02  0.19191571361E+03  0.19618815011E+03  0.10000000000E+01 0.  0.
    9000005    1    3    3    0    0  0.10727533697E+02  0.39269188109E+02  0.11072276104E+02  0.42198867427E+02  0.10000000000E+01 0.  0.
<mgrwt>
<rscale>  0 0.12499698E+03</rscale>
<asrwt>0</asrwt>
<pdfrwt beam="1">  1        4 0.33951924E-01 0.12499698E+03</pdfrwt>
<pdfrwt beam="2">  1       -4 0.27230022E-02 0.12499698E+03</pdfrwt>
<totfact> 0.84043830E+03</totfact>
</mgrwt>
</event>
<event>
 5    1  0.3284464E-002  0.1249904E+03  0.7818608E-02  0.1235084E+00
          4   -1    0    0  501    0  0.00000000000E+00  0.00000000000E+00  0.21233115752E+03  0.21233495557E+03  0.12700000000E+01 0. -1.
         -4   -1    0    0    0  501 -0.00000000000E+00 -0.00000000000E+00 -0.18368247543E+02  0.18412099766E+02  0.12700000000E+01 0. -1.
         25    2    1    2    0    0  0.00000000000E+00  0.00000000000E+00  0.19396290998E+03  0.23074705533E+03  0.12499037201E+03 0.  0.
    9000005    1    3    3    0    0 -0.45949892763E+02 -0.17120263067E+02  0.25477959744E+02  0.55268639255E+02  0.10000000000E+01 0.  0.
    9000005    1    3    3    0    0  0.45949892763E+02  0.17120263067E+02  0.16848495024E+03  0.17547841608E+03  0.10000000000E+01 0.  0.
<mgrwt>
<rscale>  0 0.12499037E+03</rscale>
<asrwt>0</asrwt>
<pdfrwt beam="1">  1        4 0.32669999E-01 0.12499037E+03</pdfrwt>
<pdfrwt beam="2">  1       -4 0.28295495E-02 0.12499037E+03</pdfrwt>
<totfact> 0.85213318E+03</totfact>
</mgrwt>
</event>
<event>
 5    1  0.3284464E-002  0.1250209E+03  0.7818608E-02  0.1235037E+00
          4   -1    0    0  501    0  0.00000000000E+00  0.00000000000E+00  0.33965886586E+03  0.33966124014E+03  0.12700000000E+01 0.  1.
         -4   -1    0    0    0  501 -0.00000000000E+00 -0.00000000000E+00 -0.11466889901E+02  0.11537004117E+02  0.12700000000E+01 0.  1.
         25    2    1    2    0    0  0.00000000000E+00  0.00000000000E+00  0.32819197596E+03  0.35119824426E+03  0.12502093301E+03 0.  0.
    9000005    1    3    3    0    0  0.13989438037E+02 -0.60367379880E+02  0.18702661275E+03  0.19702760925E+03  0.10000000000E+01 0.  0.
    9000005    1    3    3    0    0 -0.13989438037E+02  0.60367379880E+02  0.14116536320E+03  0.15417063501E+03  0.10000000000E+01 0.  0.
<mgrwt>
<rscale>  0 0.12502093E+03</rscale>
<asrwt>0</asrwt>
<pdfrwt beam="1">  1        4 0.52260775E-01 0.12502093E+03</pdfrwt>
<pdfrwt beam="2">  1       -4 0.17697133E-02 0.12502093E+03</pdfrwt>
<totfact> 0.69560714E+03</totfact>
</mgrwt>
</event>
<event>
 5    1  0.3284464E-002  0.1249820E+03  0.7818608E-02  0.1235097E+00
         -4   -1    0    0    0  501 -0.00000000000E+00  0.00000000000E+00  0.65065500250E+02  0.65077893503E+02  0.12700000000E+01 0.  1.
          4   -1    0    0  501    0  0.00000000000E+00 -0.00000000000E+00 -0.59993504647E+02  0.60006945430E+02  0.12700000000E+01 0.  1.
         25    2    1    2    0    0  0.00000000000E+00  0.00000000000E+00  0.50719956027E+01  0.12508483893E+03  0.12498196586E+03 0.  0.
    9000005    1    3    3    0    0  0.43232504541E+02 -0.24223359190E+02 -0.35551894693E+02  0.60998014685E+02  0.10000000000E+01 0.  0.
    9000005    1    3    3    0    0 -0.43232504541E+02  0.24223359190E+02  0.40623890296E+02  0.64086824247E+02  0.10000000000E+01 0.  0.
<mgrwt>
<rscale>  0 0.12498197E+03</rscale>
<asrwt>0</asrwt>
<pdfrwt beam="2">  1        4 0.92317572E-02 0.12498197E+03</pdfrwt>
<pdfrwt beam="1">  1       -4 0.10012064E-01 0.12498197E+03</pdfrwt>
<totfact> 0.10455281E+04</totfact>
</mgrwt>
</event>
<event>
 5    1  0.3284464E-002  0.1249970E+03  0.7818608E-02  0.1235074E+00
         -4   -1    0    0    0  501 -0.00000000000E+00  0.00000000000E+00  0.32917912667E+03  0.32918157654E+03  0.12700000000E+01 0. -1.
          4   -1    0    0  501    0  0.00000000000E+00 -0.00000000000E+00 -0.11829592557E+02  0.11897569502E+02  0.12700000000E+01 0. -1.
         25    2    1    2    0    0  0.00000000000E+00  0.00000000000E+00  0.31734953411E+03  0.34107914605E+03  0.12499702823E+03 0.  0.
    9000005    1    3    3    0    0  0.20758138852E+02 -0.49610675296E+02  0.71829055842E+02  0.89735905272E+02  0.10000000000E+01 0.  0.
    9000005    1    3    3    0    0 -0.20758138852E+02  0.49610675296E+02  0.24552047827E+03  0.25134324077E+03  0.10000000000E+01 0.  0.
<mgrwt>
<rscale>  0 0.12499703E+03</rscale>
<asrwt>0</asrwt>
<pdfrwt beam="2">  1        4 0.18253546E-02 0.12499703E+03</pdfrwt>
<pdfrwt beam="1">  1       -4 0.50648365E-01 0.12499703E+03</pdfrwt>
<totfact> 0.70721886E+03</totfact>
</mgrwt>
</event>
<event>
 5    1  0.3284464E-002  0.1249984E+03  0.7818608E-02  0.1235072E+00
         -4   -1    0    0    0  501 -0.00000000000E+00  0.00000000000E+00  0.42402305922E+02  0.42421320672E+02  0.12700000000E+01 0.  1.
          4   -1    0    0  501    0  0.00000000000E+00 -0.00000000000E+00 -0.92077137554E+02  0.92085895555E+02  0.12700000000E+01 0.  1.
         25    2    1    2    0    0  0.00000000000E+00  0.00000000000E+00 -0.49674831632E+02  0.13450721623E+03  0.12499840927E+03 0.  0.
    9000005    1    3    3    0    0 -0.79851587057E+01 -0.59581616994E+02 -0.43207021499E+02  0.74037683311E+02  0.10000000000E+01 0.  0.
    9000005    1    3    3    0    0  0.79851587057E+01  0.59581616994E+02 -0.64678101332E+01  0.60469532916E+02  0.10000000000E+01 0.  0.
<mgrwt>
<rscale>  0 0.12499841E+03</rscale>
<asrwt>0</asrwt>
<pdfrwt beam="2">  1        4 0.14167850E-01 0.12499841E+03</pdfrwt>
<pdfrwt beam="1">  1       -4 0.65255681E-02 0.12499841E+03</pdfrwt>
<totfact> 0.10248836E+04</totfact>
</mgrwt>
</event>
<event>
 5    1  0.3284464E-002  0.1250025E+03  0.7818608E-02  0.1235065E+00
          4   -1    0    0  501    0  0.00000000000E+00  0.00000000000E+00  0.12095542722E+04  0.12095549390E+04  0.12700000000E+01 0. -1.
         -4   -1    0    0    0  501 -0.00000000000E+00 -0.00000000000E+00 -0.31040793765E+01  0.33538349356E+01  0.12700000000E+01 0. -1.
         25    2    1    2    0    0  0.00000000000E+00  0.00000000000E+00  0.12064501929E+04  0.12129087739E+04  0.12500250383E+03 0.  0.
    9000005    1    3    3    0    0 -0.62090482976E+02  0.46384891521E+01  0.65517311455E+03  0.65812578865E+03  0.10000000000E+01 0.  0.
    9000005    1    3    3    0    0  0.62090482976E+02 -0.46384891521E+01  0.55127707830E+03  0.55478298524E+03  0.10000000000E+01 0.  0.
<mgrwt>
<rscale>  0 0.12500250E+03</rscale>
<asrwt>0</asrwt>
<pdfrwt beam="1">  1        4 0.18610482E+00 0.12500250E+03</pdfrwt>
<pdfrwt beam="2">  1       -4 0.49681318E-03 0.12500250E+03</pdfrwt>
<totfact> 0.24375966E+03</totfact>
</mgrwt>
</event>
<event>
 5    1  0.3284464E-002  0.1249939E+03  0.7818608E-02  0.1235079E+00
         -4   -1    0    0    0  501 -0.00000000000E+00  0.00000000000E+00  0.34357589921E+02  0.34381054160E+02  0.12700000000E+01 0. -1.
          4   -1    0    0  501    0  0.00000000000E+00 -0.00000000000E+00 -0.11361708381E+03  0.11362418155E+03  0.12700000000E+01 0. -1.
         25    2    1    2    0    0  0.00000000000E+00  0.00000000000E+00 -0.79259493886E+02  0.14800523571E+03  0.12499392956E+03 0.  0.
    9000005    1    3    3    0    0  0.31805859592E+02  0.51496505423E+02 -0.58025935464E+02  0.83854111179E+02  0.10000000000E+01 0.  0.
    9000005    1    3    3    0    0 -0.31805859592E+02 -0.51496505423E+02 -0.21233558422E+02  0.64151124530E+02  0.10000000000E+01 0.  0.
<mgrwt>
<rscale>  0 0.12499393E+03</rscale>
<asrwt>0</asrwt>
<pdfrwt beam="2">  1        4 0.17481902E-01 0.12499393E+03</pdfrwt>
<pdfrwt beam="1">  1       -4 0.52881340E-02 0.12499393E+03</pdfrwt>
<totfact> 0.99716446E+03</totfact>
</mgrwt>
</event>
<event>
 4    1  0.3284464E-002  0.1248940E+03  0.7818608E-02  0.1235235E+00
         -4   -1    0    0    0  501 -0.00000000000E+00  0.00000000000E+00  0.35639937902E+03  0.35640164178E+03  0.12700000000E+01 0. -1.
          4   -1    0    0  501    0  0.00000000000E+00 -0.00000000000E+00 -0.10902575170E+02  0.10976294700E+02  0.12700000000E+01 0. -1.
    9000005    1    1    2    0    0 -0.46747255985E+02 -0.18082908509E+02  0.28227125222E+03  0.28668860694E+03  0.10000000000E+01 0.  0.
    9000005    1    1    2    0    0  0.46747255985E+02  0.18082908509E+02  0.63225551628E+02  0.80689329536E+02  0.10000000000E+01 0.  0.
<mgrwt>
<rscale>  0 0.12489398E+03</rscale>
<asrwt>0</asrwt>
<pdfrwt beam="2">  1        4 0.16831640E-02 0.12489398E+03</pdfrwt>
<pdfrwt beam="1">  1       -4 0.54836521E-01 0.12489398E+03</pdfrwt>
<totfact> 0.68013451E+03</totfact>
</mgrwt>
</event>
<event>
 5    1  0.3284464E-002  0.1250025E+03  0.7818608E-02  0.1235065E+00
         -4   -1    0    0    0  501 -0.00000000000E+00  0.00000000000E+00  0.98076957617E+01  0.98895801808E+01  0.12700000000E+01 0.  1.
          4   -1    0    0  501    0  0.00000000000E+00 -0.00000000000E+00 -0.39656114112E+03  0.39656317473E+03  0.12700000000E+01 0.  1.
         25    2    1    2    0    0  0.00000000000E+00  0.00000000000E+00 -0.38675344536E+03  0.40645275491E+03  0.12500245787E+03 0.  0.
    9000005    1    3    3    0    0  0.27411195358E+02 -0.20296414797E+02 -0.36364432401E+03  0.36524171786E+03  0.10000000000E+01 0.  0.
    9000005    1    3    3    0    0 -0.27411195358E+02  0.20296414797E+02 -0.23109121355E+02  0.41211037046E+02  0.10000000000E+01 0.  0.
<mgrwt>
<rscale>  0 0.12500246E+03</rscale>
<asrwt>0</asrwt>
<pdfrwt beam="2">  1        4 0.61015849E-01 0.12500246E+03</pdfrwt>
<pdfrwt beam="1">  1       -4 0.15153318E-02 0.12500246E+03</pdfrwt>
<totfact> 0.63926541E+03</totfact>
</mgrwt>
</event>
<event>
 5    1  0.3284464E-002  0.1249966E+03  0.7818608E-02  0.1235075E+00
          4   -1    0    0  501    0  0.00000000000E+00  0.00000000000E+00  0.29865625300E+03  0.29865895325E+03  0.12700000000E+01 0.  1.
         -4   -1    0    0    0  501 -0.00000000000E+00 -0.00000000000E+00 -0.13045116112E+02  0.13106790392E+02  0.12700000000E+01 0.  1.
         25    2    1    2    0    0  0.00000000000E+00  0.00000000000E+00  0.28561113688E+03  0.31176574364E+03  0.12499662953E+03 0.  0.
    9000005    1    3    3    0    0 -0.85937757259E+01 -0.45555477911E+02  0.24732044232E+03  0.25162979898E+03  0.10000000000E+01 0.  0.
    9000005    1    3    3    0    0  0.85937757259E+01  0.45555477911E+02  0.38290694568E+02  0.60135944654E+02  0.10000000000E+01 0.  0.
<mgrwt>
<rscale>  0 0.12499663E+03</rscale>
<asrwt>0</asrwt>
<pdfrwt beam="1">  1        4 0.45952065E-01 0.12499663E+03</pdfrwt>
<pdfrwt beam="2">  1       -4 0.20118929E-02 0.12499663E+03</pdfrwt>
<totfact> 0.74151820E+03</totfact>
</mgrwt>
</event>
<event>
 5    1  0.3284464E-002  0.1250007E+03  0.7818608E-02  0.1235068E+00
          4   -1    0    0  501    0  0.00000000000E+00  0.00000000000E+00  0.12895256429E+02  0.12957644013E+02  0.12700000000E+01 0.  1.
         -4   -1    0    0    0  501 -0.00000000000E+00 -0.00000000000E+00 -0.30213025300E+03  0.30213292220E+03  0.12700000000E+01 0.  1.
         25    2    1    2    0    0  0.00000000000E+00  0.00000000000E+00 -0.28923499657E+03  0.31509056622E+03  0.12500072670E+03 0.  0.
    9000005    1    3    3    0    0 -0.59255400994E+02 -0.54520014943E+01 -0.96501078418E+02  0.11337718026E+03  0.10000000000E+01 0.  0.
    9000005    1    3    3    0    0  0.59255400994E+02  0.54520014943E+01 -0.19273391815E+03  0.20171338596E+03  0.10000000000E+01 0.  0.
<mgrwt>
<rscale>  0 0.12500073E+03</rscale>
<asrwt>0</asrwt>
<pdfrwt beam="1">  1        4 0.19888902E-02 0.12500073E+03</pdfrwt>
<pdfrwt beam="2">  1       -4 0.46486576E-01 0.12500073E+03</pdfrwt>
<totfact> 0.73742681E+03</totfact>
</mgrwt>
</event>
<event>
 5    1  0.3284464E-002  0.1250134E+03  0.7818608E-02  0.1235048E+00
          4   -1    0    0  501    0  0.00000000000E+00  0.00000000000E+00  0.38508889595E+02  0.38529825822E+02  0.12700000000E+01 0.  1.
         -4   -1    0    0    0  501 -0.00000000000E+00 -0.00000000000E+00 -0.10140689110E+03  0.10141484340E+03  0.12700000000E+01 0.  1.
         25    2    1    2    0    0  0.00000000000E+00  0.00000000000E+00 -0.62898001506E+02  0.13994466923E+03  0.12501340669E+03 0.  0.
    9000005    1    3    3    0    0  0.25451024946E+00  0.49518125009E+02 -0.74134342187E+02  0.89157221645E+02  0.10000000000E+01 0.  0.
    9000005    1    3    3    0    0 -0.25451024946E+00 -0.49518125009E+02  0.11236340682E+02  0.50787447581E+02  0.10000000000E+01 0.  0.
<mgrwt>
<rscale>  0 0.12501341E+03</rscale>
<asrwt>0</asrwt>
<pdfrwt beam="1">  1        4 0.59266668E-02 0.12501341E+03</pdfrwt>
<pdfrwt beam="2">  1       -4 0.15603282E-01 0.12501341E+03</pdfrwt>
<totfact> 0.10131672E+04</totfact>
</mgrwt>
</event>
<event>
 5    1  0.3284464E-002  0.1249984E+03  0.7818608E-02  0.1235072E+00
         -4   -1    0    0    0  501 -0.00000000000E+00  0.00000000000E+00  0.49917782478E+03  0.49917944033E+03  0.12700000000E+01 0.  1.
          4   -1    0    0  501    0  0.00000000000E+00 -0.00000000000E+00 -0.77719975133E+01  0.78750774819E+01  0.12700000000E+01 0.  1.
         25    2    1    2    0    0  0.00000000000E+00  0.00000000000E+00  0.49140582726E+03  0.50705451781E+03  0.12499838785E+03 0.  0.
    9000005    1    3    3    0    0 -0.38077272316E+02 -0.35564852450E+02  0.38566127997E+03  0.38916623731E+03  0.10000000000E+01 0.  0.
    9000005    1    3    3    0    0  0.38077272316E+02  0.35564852450E+02  0.10574454730E+03  0.11788828050E+03  0.10000000000E+01 0.  0.
<mgrwt>
<rscale>  0 0.12499839E+03</rscale>
<asrwt>0</asrwt>
<pdfrwt beam="2">  1        4 0.12037455E-02 0.12499839E+03</pdfrwt>
<pdfrwt beam="1">  1       -4 0.76804639E-01 0.12499839E+03</pdfrwt>
<totfact> 0.55323108E+03</totfact>
</mgrwt>
</event>
<event>
 5    1  0.3284464E-002  0.1249934E+03  0.7818608E-02  0.1235080E+00
         -4   -1    0    0    0  501 -0.00000000000E+00  0.00000000000E+00  0.20157792294E+03  0.20158192359E+03  0.12700000000E+01 0. -1.
          4   -1    0    0  501    0  0.00000000000E+00 -0.00000000000E+00 -0.19351321930E+02  0.19392951308E+02  0.12700000000E+01 0. -1.
         25    2    1    2    0    0  0.00000000000E+00  0.00000000000E+00  0.18222660101E+03  0.22097487490E+03  0.12499344470E+03 0.  0.
    9000005    1    3    3    0    0 -0.97507257650E+01 -0.44687068284E+02  0.15841180278E+02  0.48414395766E+02  0.10000000000E+01 0.  0.
    9000005    1    3    3    0    0  0.97507257650E+01  0.44687068284E+02  0.16638542073E+03  0.17256047913E+03  0.10000000000E+01 0.  0.
<mgrwt>
<rscale>  0 0.12499344E+03</rscale>
<asrwt>0</asrwt>
<pdfrwt beam="2">  1        4 0.29806364E-02 0.12499344E+03</pdfrwt>
<pdfrwt beam="1">  1       -4 0.31015499E-01 0.12499344E+03</pdfrwt>
<totfact> 0.86727019E+03</totfact>
</mgrwt>
</event>
<event>
 5    1  0.3284464E-002  0.1250012E+03  0.7818608E-02  0.1235067E+00
          4   -1    0    0  501    0  0.00000000000E+00  0.00000000000E+00  0.84380495014E+02  0.84390051776E+02  0.12700000000E+01 0.  1.
         -4   -1    0    0    0  501 -0.00000000000E+00 -0.00000000000E+00 -0.46273295809E+02  0.46290720507E+02  0.12700000000E+01 0.  1.
         25    2    1    2    0    0  0.00000000000E+00  0.00000000000E+00  0.38107199204E+02  0.13068077228E+03  0.12500122245E+03 0.  0.
    9000005    1    3    3    0    0 -0.30240907921E+02 -0.23610003827E+02  0.70624242204E+02  0.80378656243E+02  0.10000000000E+01 0.  0.
    9000005    1    3    3    0    0  0.30240907921E+02  0.23610003827E+02 -0.32517043000E+02  0.50302116039E+02  0.10000000000E+01 0.  0.
<mgrwt>
<rscale>  0 0.12500122E+03</rscale>
<asrwt>0</asrwt>
<pdfrwt beam="1">  1        4 0.12983690E-01 0.12500122E+03</pdfrwt>
<pdfrwt beam="2">  1       -4 0.71210442E-02 0.12500122E+03</pdfrwt>
<totfact> 0.10329653E+04</totfact>
</mgrwt>
</event>
<event>
 5    1  0.3284464E-002  0.1250022E+03  0.7818608E-02  0.1235066E+00
          4   -1    0    0  501    0  0.00000000000E+00  0.00000000000E+00  0.94272013935E+02  0.94280568048E+02  0.12700000000E+01 0. -1.
         -4   -1    0    0    0  501 -0.00000000000E+00 -0.00000000000E+00 -0.41417248544E+02  0.41436715326E+02  0.12700000000E+01 0. -1.
         25    2    1    2    0    0  0.00000000000E+00  0.00000000000E+00  0.52854765391E+02  0.13571728337E+03  0.12500221911E+03 0.  0.
    9000005    1    3    3    0    0 -0.17641314947E+02  0.51028961845E+02  0.60592490043E+02  0.81164159514E+02  0.10000000000E+01 0.  0.
    9000005    1    3    3    0    0  0.17641314947E+02 -0.51028961845E+02 -0.77377246515E+01  0.54553123859E+02  0.10000000000E+01 0.  0.
<mgrwt>
<rscale>  0 0.12500222E+03</rscale>
<asrwt>0</asrwt>
<pdfrwt beam="1">  1        4 0.14505542E-01 0.12500222E+03</pdfrwt>
<pdfrwt beam="2">  1       -4 0.63740399E-02 0.12500222E+03</pdfrwt>
<totfact> 0.10222463E+04</totfact>
</mgrwt>
</event>
<event>
 5    1  0.3284464E-002  0.1249982E+03  0.7818608E-02  0.1235072E+00
          4   -1    0    0  501    0  0.00000000000E+00  0.00000000000E+00  0.29037716156E+03  0.29037993880E+03  0.12700000000E+01 0.  1.
         -4   -1    0    0    0  501 -0.00000000000E+00 -0.00000000000E+00 -0.13419124681E+02  0.13479087774E+02  0.12700000000E+01 0.  1.
         25    2    1    2    0    0  0.00000000000E+00  0.00000000000E+00  0.27695803688E+03  0.30385902657E+03  0.12499821533E+03 0.  0.
    9000005    1    3    3    0    0  0.41480141502E+02 -0.22571894759E+02  0.23796953465E+03  0.24261201948E+03  0.10000000000E+01 0.  0.
    9000005    1    3    3    0    0 -0.41480141502E+02  0.22571894759E+02  0.38988502226E+02  0.61247007093E+02  0.10000000000E+01 0.  0.
<mgrwt>
<rscale>  0 0.12499822E+03</rscale>
<asrwt>0</asrwt>
<pdfrwt beam="1">  1        4 0.44678234E-01 0.12499822E+03</pdfrwt>
<pdfrwt beam="2">  1       -4 0.20693070E-02 0.12499822E+03</pdfrwt>
<totfact> 0.75120280E+03</totfact>
</mgrwt>
</event>
<event>
 5    1  0.3284464E-002  0.1250026E+03  0.7818608E-02  0.1235065E+00
          4   -1    0    0  501    0  0.00000000000E+00  0.00000000000E+00  0.34673633271E+03  0.34673865853E+03  0.12700000000E+01 0.  1.
         -4   -1    0    0    0  501 -0.00000000000E+00 -0.00000000000E+00 -0.11228068165E+02  0.11299664363E+02  0.12700000000E+01 0.  1.
         25    2    1    2    0    0  0.00000000000E+00  0.00000000000E+00  0.33550826454E+03  0.35803832289E+03  0.12500258031E+03 0.  0.
    9000005    1    3    3    0    0  0.24807727895E+02  0.14113612374E+02  0.32699170768E+03  0.32823649143E+03  0.10000000000E+01 0.  0.
    9000005    1    3    3    0    0 -0.24807727895E+02 -0.14113612374E+02  0.85165568629E+01  0.29801831460E+02  0.10000000000E+01 0.  0.
<mgrwt>
<rscale>  0 0.12500258E+03</rscale>
<asrwt>0</asrwt>
<pdfrwt beam="1">  1        4 0.53349725E-01 0.12500258E+03</pdfrwt>
<pdfrwt beam="2">  1       -4 0.17330818E-02 0.12500258E+03</pdfrwt>
<totfact> 0.68845279E+03</totfact>
</mgrwt>
</event>
<event>
 5    1  0.3284464E-002  0.1249864E+03  0.7818608E-02  0.1235091E+00
         -4   -1    0    0    0  501 -0.00000000000E+00  0.00000000000E+00  0.58868175513E+02  0.58881873172E+02  0.12700000000E+01 0.  1.
          4   -1    0    0  501    0  0.00000000000E+00 -0.00000000000E+00 -0.66313943146E+02  0.66326103124E+02  0.12700000000E+01 0.  1.
         25    2    1    2    0    0  0.00000000000E+00  0.00000000000E+00 -0.74457676328E+01  0.12520797630E+03  0.12498639075E+03 0.  0.
    9000005    1    3    3    0    0 -0.57980215055E+02 -0.22949168839E+02 -0.77337026791E+01  0.62842500311E+02  0.10000000000E+01 0.  0.
    9000005    1    3    3    0    0  0.57980215055E+02  0.22949168839E+02  0.28793504637E+00  0.62365475985E+02  0.10000000000E+01 0.  0.
<mgrwt>
<rscale>  0 0.12498639E+03</rscale>
<asrwt>0</asrwt>
<pdfrwt beam="2">  1        4 0.10204134E-01 0.12498639E+03</pdfrwt>
<pdfrwt beam="1">  1       -4 0.90586314E-02 0.12498639E+03</pdfrwt>
<totfact> 0.10451561E+04</totfact>
</mgrwt>
</event>
<event>
 5    1  0.3284464E-002  0.1249591E+03  0.7818608E-02  0.1235133E+00
          4   -1    0    0  501    0  0.00000000000E+00  0.00000000000E+00  0.28227692830E+03  0.28227978523E+03  0.12700000000E+01 0.  1.
         -4   -1    0    0    0  501 -0.00000000000E+00 -0.00000000000E+00 -0.13797206332E+02  0.13855533284E+02  0.12700000000E+01 0.  1.
         25    2    1    2    0    0  0.00000000000E+00  0.00000000000E+00  0.26847972197E+03  0.29613531852E+03  0.12495905635E+03 0.  0.
    9000005    1    3    3    0    0 -0.42049421252E+02 -0.11317120916E+02  0.24039420347E+03  0.24430842007E+03  0.10000000000E+01 0.  0.
    9000005    1    3    3    0    0  0.42049421252E+02  0.11317120916E+02  0.28085518496E+02  0.51826898447E+02  0.10000000000E+01 0.  0.
<mgrwt>
<rscale>  0 0.12495906E+03</rscale>
<asrwt>0</asrwt>
<pdfrwt beam="1">  1        4 0.43431928E-01 0.12495906E+03</pdfrwt>
<pdfrwt beam="2">  1       -4 0.21273535E-02 0.12495906E+03</pdfrwt>
<totfact> 0.76155400E+03</totfact>
</mgrwt>
</event>
<event>
 5    1  0.3284464E-002  0.1249987E+03  0.7818608E-02  0.1235071E+00
         -4   -1    0    0    0  501 -0.00000000000E+00  0.00000000000E+00  0.35489791160E+01  0.37693703407E+01  0.12700000000E+01 0. -1.
          4   -1    0    0  501    0  0.00000000000E+00 -0.00000000000E+00 -0.10672793130E+04  0.10672800686E+04  0.12700000000E+01 0. -1.
         25    2    1    2    0    0  0.00000000000E+00  0.00000000000E+00 -0.10637303338E+04  0.10710494389E+04  0.12499870982E+03 0.  0.
    9000005    1    3    3    0    0  0.39310309247E+02 -0.21348062374E+02 -0.15796798465E+03  0.16418259456E+03  0.10000000000E+01 0.  0.
    9000005    1    3    3    0    0 -0.39310309247E+02  0.21348062374E+02 -0.90576234919E+03  0.90686684436E+03  0.10000000000E+01 0.  0.
<mgrwt>
<rscale>  0 0.12499871E+03</rscale>
<asrwt>0</asrwt>
<pdfrwt beam="2">  1        4 0.16421358E+00 0.12499871E+03</pdfrwt>
<pdfrwt beam="1">  1       -4 0.56300893E-03 0.12499871E+03</pdfrwt>
<totfact> 0.28347368E+03</totfact>
</mgrwt>
</event>
<event>
 5    1  0.3284464E-002  0.1249878E+03  0.7818608E-02  0.1235088E+00
         -4   -1    0    0    0  501 -0.00000000000E+00  0.00000000000E+00  0.25012996293E+03  0.25013318703E+03  0.12700000000E+01 0.  1.
          4   -1    0    0  501    0  0.00000000000E+00 -0.00000000000E+00 -0.15584685490E+02  0.15636346178E+02  0.12700000000E+01 0.  1.
         25    2    1    2    0    0  0.00000000000E+00  0.00000000000E+00  0.23454527744E+03  0.26576953321E+03  0.12498782986E+03 0.  0.
    9000005    1    3    3    0    0 -0.56553316676E+02  0.26525303605E+02  0.12071448793E+03  0.13592224599E+03  0.10000000000E+01 0.  0.
    9000005    1    3    3    0    0  0.56553316676E+02 -0.26525303605E+02  0.11383078950E+03  0.12984728721E+03  0.10000000000E+01 0.  0.
<mgrwt>
<rscale>  0 0.12498783E+03</rscale>
<asrwt>0</asrwt>
<pdfrwt beam="2">  1        4 0.24018659E-02 0.12498783E+03</pdfrwt>
<pdfrwt beam="1">  1       -4 0.38485753E-01 0.12498783E+03</pdfrwt>
<totfact> 0.80124841E+03</totfact>
</mgrwt>
</event>
<event>
 5    1  0.3284464E-002  0.1250016E+03  0.7818608E-02  0.1235067E+00
         -4   -1    0    0    0  501 -0.00000000000E+00  0.00000000000E+00  0.29644315268E+02  0.29671507001E+02  0.12700000000E+01 0. -1.
          4   -1    0    0  501    0  0.00000000000E+00 -0.00000000000E+00 -0.13168323832E+03  0.13168936235E+03  0.12700000000E+01 0. -1.
         25    2    1    2    0    0  0.00000000000E+00  0.00000000000E+00 -0.10203892305E+03  0.16136086935E+03  0.12500155334E+03 0.  0.
    9000005    1    3    3    0    0 -0.28386956908E+02 -0.31371417685E+02 -0.11039056976E+03  0.11822462968E+03  0.10000000000E+01 0.  0.
    9000005    1    3    3    0    0  0.28386956908E+02  0.31371417685E+02  0.83516467079E+01  0.43136239669E+02  0.10000000000E+01 0.  0.
<mgrwt>
<rscale>  0 0.12500155E+03</rscale>
<asrwt>0</asrwt>
<pdfrwt beam="2">  1        4 0.20261522E-01 0.12500155E+03</pdfrwt>
<pdfrwt beam="1">  1       -4 0.45632267E-02 0.12500155E+03</pdfrwt>
<totfact> 0.97077671E+03</totfact>
</mgrwt>
</event>
<event>
 5    1  0.3284464E-002  0.1250021E+03  0.7818608E-02  0.1235066E+00
         -4   -1    0    0    0  501 -0.00000000000E+00  0.00000000000E+00  0.25393879908E+03  0.25394197482E+03  0.12700000000E+01 0.  1.
          4   -1    0    0  501    0  0.00000000000E+00 -0.00000000000E+00 -0.15353667800E+02  0.15406103170E+02  0.12700000000E+01 0.  1.
         25    2    1    2    0    0  0.00000000000E+00  0.00000000000E+00  0.23858513128E+03  0.26934807799E+03  0.12500208899E+03 0.  0.
    9000005    1    3    3    0    0 -0.45385038633E+02 -0.27214516135E+02  0.47667057608E+02  0.71229067109E+02  0.10000000000E+01 0.  0.
    9000005    1    3    3    0    0  0.45385038633E+02  0.27214516135E+02  0.19091807367E+03  0.19811901089E+03  0.10000000000E+01 0.  0.
<mgrwt>
<rscale>  0 0.12500209E+03</rscale>
<asrwt>0</asrwt>
<pdfrwt beam="2">  1        4 0.23663806E-02 0.12500209E+03</pdfrwt>
<pdfrwt beam="1">  1       -4 0.39071785E-01 0.12500209E+03</pdfrwt>
<totfact> 0.79608130E+03</totfact>
</mgrwt>
</event>
<event>
 5    1  0.3284464E-002  0.1250306E+03  0.7818608E-02  0.1235021E+00
         -4   -1    0    0    0  501 -0.00000000000E+00  0.00000000000E+00  0.21983797173E+04  0.21983800842E+04  0.12700000000E+01 0. -1.
          4   -1    0    0  501    0  0.00000000000E+00 -0.00000000000E+00 -0.15505164549E+01  0.20042458125E+01  0.12700000000E+01 0. -1.
         25    2    1    2    0    0  0.00000000000E+00  0.00000000000E+00  0.21968292009E+04  0.22003843300E+04  0.12503064347E+03 0.  0.
    9000005    1    3    3    0    0 -0.53861550467E+01 -0.20889040788E+02  0.21308789544E+04  0.21309883812E+04  0.10000000000E+01 0.  0.
    9000005    1    3    3    0    0  0.53861550467E+01  0.20889040788E+02  0.65950246511E+02  0.69395948773E+02  0.10000000000E+01 0.  0.
<mgrwt>
<rscale>  0 0.12503064E+03</rscale>
<asrwt>0</asrwt>
<pdfrwt beam="2">  1        4 0.27347190E-03 0.12503064E+03</pdfrwt>
<pdfrwt beam="1">  1       -4 0.33824666E+00 0.12503064E+03</pdfrwt>
<totfact> 0.74623265E+02</totfact>
</mgrwt>
</event>
<event>
 5    1  0.3284464E-002  0.1249997E+03  0.7818608E-02  0.1235070E+00
         -4   -1    0    0    0  501 -0.00000000000E+00  0.00000000000E+00  0.13074942045E+02  0.13136476296E+02  0.12700000000E+01 0. -1.
          4   -1    0    0  501    0  0.00000000000E+00 -0.00000000000E+00 -0.29799277371E+03  0.29799547997E+03  0.12700000000E+01 0. -1.
         25    2    1    2    0    0  0.00000000000E+00  0.00000000000E+00 -0.28491783167E+03  0.31113195627E+03  0.12499969364E+03 0.  0.
    9000005    1    3    3    0    0  0.57615620933E+02  0.21161724789E+02 -0.11323469341E+03  0.12880401455E+03  0.10000000000E+01 0.  0.
    9000005    1    3    3    0    0 -0.57615620933E+02 -0.21161724789E+02 -0.17168313826E+03  0.18232794172E+03  0.10000000000E+01 0.  0.
<mgrwt>
<rscale>  0 0.12499969E+03</rscale>
<asrwt>0</asrwt>
<pdfrwt beam="2">  1        4 0.45849979E-01 0.12499969E+03</pdfrwt>
<pdfrwt beam="1">  1       -4 0.20164713E-02 0.12499969E+03</pdfrwt>
<totfact> 0.74223858E+03</totfact>
</mgrwt>
</event>
<event>
 5    1  0.3284464E-002  0.1249996E+03  0.7818608E-02  0.1235070E+00
         -4   -1    0    0    0  501 -0.00000000000E+00  0.00000000000E+00  0.20072349078E+02  0.20112486110E+02  0.12700000000E+01 0. -1.
          4   -1    0    0  501    0  0.00000000000E+00 -0.00000000000E+00 -0.19437079231E+03  0.19437494130E+03  0.12700000000E+01 0. -1.
         25    2    1    2    0    0  0.00000000000E+00  0.00000000000E+00 -0.17429844323E+03  0.21448742741E+03  0.12499963681E+03 0.  0.
    9000005    1    3    3    0    0  0.24108737664E+02  0.41917808482E+02 -0.19226854182E+02  0.52048110642E+02  0.10000000000E+01 0.  0.
    9000005    1    3    3    0    0 -0.24108737664E+02 -0.41917808482E+02 -0.15507158905E+03  0.16243931676E+03  0.10000000000E+01 0.  0.
<mgrwt>
<rscale>  0 0.12499964E+03</rscale>
<asrwt>0</asrwt>
<pdfrwt beam="2">  1        4 0.29906604E-01 0.12499964E+03</pdfrwt>
<pdfrwt beam="1">  1       -4 0.30914605E-02 0.12499964E+03</pdfrwt>
<totfact> 0.87748942E+03</totfact>
</mgrwt>
</event>
<event>
 5    1  0.3284464E-002  0.1250001E+03  0.7818608E-02  0.1235069E+00
          4   -1    0    0  501    0  0.00000000000E+00  0.00000000000E+00  0.70778648868E+01  0.71909019848E+01  0.12700000000E+01 0. -1.
         -4   -1    0    0    0  501 -0.00000000000E+00 -0.00000000000E+00 -0.54741193691E+03  0.54741341011E+03  0.12700000000E+01 0. -1.
         25    2    1    2    0    0  0.00000000000E+00  0.00000000000E+00 -0.54033407202E+03  0.55460431210E+03  0.12500013443E+03 0.  0.
    9000005    1    3    3    0    0 -0.19513649602E+01 -0.31651292333E+02 -0.50908305661E+03  0.51007075064E+03  0.10000000000E+01 0.  0.
    9000005    1    3    3    0    0  0.19513649602E+01  0.31651292333E+02 -0.31251015407E+02  0.44533561452E+02  0.10000000000E+01 0.  0.
<mgrwt>
<rscale>  0 0.12500013E+03</rscale>
<asrwt>0</asrwt>
<pdfrwt beam="1">  1        4 0.10977112E-02 0.12500013E+03</pdfrwt>
<pdfrwt beam="2">  1       -4 0.84225996E-01 0.12500013E+03</pdfrwt>
<totfact> 0.51864367E+03</totfact>
</mgrwt>
</event>
<event>
 5    1  0.3284464E-002  0.1250040E+03  0.7818608E-02  0.1235063E+00
          4   -1    0    0  501    0  0.00000000000E+00  0.00000000000E+00  0.55326128384E+02  0.55340702760E+02  0.12700000000E+01 0. -1.
         -4   -1    0    0    0  501 -0.00000000000E+00 -0.00000000000E+00 -0.70579022295E+02  0.70590447569E+02  0.12700000000E+01 0. -1.
         25    2    1    2    0    0  0.00000000000E+00  0.00000000000E+00 -0.15252893911E+02  0.12593115033E+03  0.12500401534E+03 0.  0.
    9000005    1    3    3    0    0 -0.31137934532E+02 -0.53993245562E+02 -0.12205422959E+02  0.63520184846E+02  0.10000000000E+01 0.  0.
    9000005    1    3    3    0    0  0.31137934532E+02  0.53993245562E+02 -0.30474709518E+01  0.62410965483E+02  0.10000000000E+01 0.  0.
<mgrwt>
<rscale>  0 0.12500402E+03</rscale>
<asrwt>0</asrwt>
<pdfrwt beam="1">  1        4 0.85137120E-02 0.12500402E+03</pdfrwt>
<pdfrwt beam="2">  1       -4 0.10860311E-01 0.12500402E+03</pdfrwt>
<totfact> 0.10431521E+04</totfact>
</mgrwt>
</event>
<event>
 5    1  0.3284464E-002  0.1250025E+03  0.7818608E-02  0.1235065E+00
         -4   -1    0    0    0  501 -0.00000000000E+00  0.00000000000E+00  0.51597916761E+01  0.53137886805E+01  0.12700000000E+01 0.  1.
          4   -1    0    0  501    0  0.00000000000E+00 -0.00000000000E+00 -0.74579973018E+03  0.74580081150E+03  0.12700000000E+01 0.  1.
         25    2    1    2    0    0  0.00000000000E+00  0.00000000000E+00 -0.74063993851E+03  0.75111460018E+03  0.12500249637E+03 0.  0.
    9000005    1    3    3    0    0  0.28483224220E+02 -0.14848956839E+01 -0.70443863026E+03  0.70501651241E+03  0.10000000000E+01 0.  0.
    9000005    1    3    3    0    0 -0.28483224220E+02  0.14848956839E+01 -0.36201308247E+02  0.46098087769E+02  0.10000000000E+01 0.  0.
<mgrwt>
<rscale>  0 0.12500250E+03</rscale>
<asrwt>0</asrwt>
<pdfrwt beam="2">  1        4 0.11475026E+00 0.12500250E+03</pdfrwt>
<pdfrwt beam="1">  1       -4 0.80574380E-03 0.12500250E+03</pdfrwt>
<totfact> 0.40518694E+03</totfact>
</mgrwt>
</event>
<event>
 5    1  0.3284464E-002  0.1250050E+03  0.7818608E-02  0.1235061E+00
         -4   -1    0    0    0  501 -0.00000000000E+00  0.00000000000E+00  0.42303025995E+03  0.42303216631E+03  0.12700000000E+01 0.  1.
          4   -1    0    0  501    0  0.00000000000E+00 -0.00000000000E+00 -0.91891182442E+01  0.92764645262E+01  0.12700000000E+01 0.  1.
         25    2    1    2    0    0  0.00000000000E+00  0.00000000000E+00  0.41384114171E+03  0.43230863084E+03  0.12500504681E+03 0.  0.
    9000005    1    3    3    0    0 -0.49843391116E+02 -0.28445802336E+02  0.12136356129E+03  0.13425215572E+03  0.10000000000E+01 0.  0.
    9000005    1    3    3    0    0  0.49843391116E+02  0.28445802336E+02  0.29247758042E+03  0.29805647511E+03  0.10000000000E+01 0.  0.
<mgrwt>
<rscale>  0 0.12500505E+03</rscale>
<asrwt>0</asrwt>
<pdfrwt beam="2">  1        4 0.14205761E-02 0.12500505E+03</pdfrwt>
<pdfrwt beam="1">  1       -4 0.65088444E-01 0.12500505E+03</pdfrwt>
<totfact> 0.61520438E+03</totfact>
</mgrwt>
</event>
<event>
 5    1  0.3284464E-002  0.1249982E+03  0.7818608E-02  0.1235072E+00
         -4   -1    0    0    0  501 -0.00000000000E+00  0.00000000000E+00  0.13602236319E+03  0.13602829186E+03  0.12700000000E+01 0.  1.
          4   -1    0    0  501    0  0.00000000000E+00 -0.00000000000E+00 -0.28696277826E+02  0.28724367027E+02  0.12700000000E+01 0.  1.
         25    2    1    2    0    0  0.00000000000E+00  0.00000000000E+00  0.10732608536E+03  0.16475265889E+03  0.12499820003E+03 0.  0.
    9000005    1    3    3    0    0  0.31369244013E+02  0.30838911961E+02 -0.48387873043E+01  0.44266034648E+02  0.10000000000E+01 0.  0.
    9000005    1    3    3    0    0 -0.31369244013E+02 -0.30838911961E+02  0.11216487266E+03  0.12048662424E+03  0.10000000000E+01 0.  0.
<mgrwt>
<rscale>  0 0.12499820E+03</rscale>
<asrwt>0</asrwt>
<pdfrwt beam="2">  1        4 0.44174288E-02 0.12499820E+03</pdfrwt>
<pdfrwt beam="1">  1       -4 0.20929134E-01 0.12499820E+03</pdfrwt>
<totfact> 0.96438155E+03</totfact>
</mgrwt>
</event>
<event>
 5    1  0.3284464E-002  0.1249977E+03  0.7818608E-02  0.1235073E+00
          4   -1    0    0  501    0  0.00000000000E+00  0.00000000000E+00  0.37522752365E+02  0.37544238506E+02  0.12700000000E+01 0.  1.
         -4   -1    0    0    0  501 -0.00000000000E+00 -0.00000000000E+00 -0.10404457988E+03  0.10405233060E+03  0.12700000000E+01 0.  1.
         25    2    1    2    0    0  0.00000000000E+00  0.00000000000E+00 -0.66521827520E+02  0.14159656911E+03  0.12499773936E+03 0.  0.
    9000005    1    3    3    0    0  0.34137514943E+02  0.40670272719E+02 -0.70585846244E+02  0.88333474400E+02  0.10000000000E+01 0.  0.
    9000005    1    3    3    0    0 -0.34137514943E+02 -0.40670272719E+02  0.40640187243E+01  0.53263094707E+02  0.10000000000E+01 0.  0.
<mgrwt>
<rscale>  0 0.12499774E+03</rscale>
<asrwt>0</asrwt>
<pdfrwt beam="1">  1        4 0.57749801E-02 0.12499774E+03</pdfrwt>
<pdfrwt beam="2">  1       -4 0.16009107E-01 0.12499774E+03</pdfrwt>
<totfact> 0.10101117E+04</totfact>
</mgrwt>
</event>
<event>
 5    1  0.3284464E-002  0.1250494E+03  0.7818608E-02  0.1234992E+00
          4   -1    0    0  501    0  0.00000000000E+00  0.00000000000E+00  0.27812831308E+02  0.27841811819E+02  0.12700000000E+01 0. -1.
         -4   -1    0    0    0  501 -0.00000000000E+00 -0.00000000000E+00 -0.14045365144E+03  0.14045939308E+03  0.12700000000E+01 0. -1.
         25    2    1    2    0    0  0.00000000000E+00  0.00000000000E+00 -0.11264082014E+03  0.16830120490E+03  0.12504935509E+03 0.  0.
    9000005    1    3    3    0    0 -0.84359331714E+00 -0.30914124756E+02 -0.12944434807E+03  0.13309107411E+03  0.10000000000E+01 0.  0.
    9000005    1    3    3    0    0  0.84359331714E+00  0.30914124756E+02  0.16803527937E+02  0.35210130790E+02  0.10000000000E+01 0.  0.
<mgrwt>
<rscale>  0 0.12504936E+03</rscale>
<asrwt>0</asrwt>
<pdfrwt beam="1">  1        4 0.42815682E-02 0.12504936E+03</pdfrwt>
<pdfrwt beam="2">  1       -4 0.21610924E-01 0.12504936E+03</pdfrwt>
<totfact> 0.95659760E+03</totfact>
</mgrwt>
</event>
<event>
 5    1  0.3284464E-002  0.1249996E+03  0.7818608E-02  0.1235070E+00
          4   -1    0    0  501    0  0.00000000000E+00  0.00000000000E+00  0.17865521003E+03  0.17865972398E+03  0.12700000000E+01 0. -1.
         -4   -1    0    0    0  501 -0.00000000000E+00 -0.00000000000E+00 -0.21841370966E+02  0.21878262858E+02  0.12700000000E+01 0. -1.
         25    2    1    2    0    0  0.00000000000E+00  0.00000000000E+00  0.15681383907E+03  0.20053798684E+03  0.12499961617E+03 0.  0.
    9000005    1    3    3    0    0  0.12125356354E+01  0.62277701267E+02  0.86467464649E+02  0.10657206370E+03  0.10000000000E+01 0.  0.
    9000005    1    3    3    0    0 -0.12125356354E+01 -0.62277701267E+02  0.70346374417E+02  0.93965923139E+02  0.10000000000E+01 0.  0.
<mgrwt>
<rscale>  0 0.12499962E+03</rscale>
<asrwt>0</asrwt>
<pdfrwt beam="1">  1        4 0.27488602E-01 0.12499962E+03</pdfrwt>
<pdfrwt beam="2">  1       -4 0.33633960E-02 0.12499962E+03</pdfrwt>
<totfact> 0.90045622E+03</totfact>
</mgrwt>
</event>
<event>
 5    1  0.3284464E-002  0.1249989E+03  0.7818608E-02  0.1235071E+00
         -4   -1    0    0    0  501 -0.00000000000E+00  0.00000000000E+00  0.50520900153E+02  0.50536860333E+02  0.12700000000E+01 0. -1.
          4   -1    0    0  501    0  0.00000000000E+00 -0.00000000000E+00 -0.77284770281E+02  0.77295204362E+02  0.12700000000E+01 0. -1.
         25    2    1    2    0    0  0.00000000000E+00  0.00000000000E+00 -0.26763870127E+02  0.12783206470E+03  0.12499892808E+03 0.  0.
    9000005    1    3    3    0    0  0.15771778210E+02  0.35935487000E+02  0.36352358593E+02  0.53503291386E+02  0.10000000000E+01 0.  0.
    9000005    1    3    3    0    0 -0.15771778210E+02 -0.35935487000E+02 -0.63116228720E+02  0.74328773310E+02  0.10000000000E+01 0.  0.
<mgrwt>
<rscale>  0 0.12499893E+03</rscale>
<asrwt>0</asrwt>
<pdfrwt beam="2">  1        4 0.11891995E-01 0.12499893E+03</pdfrwt>
<pdfrwt beam="1">  1       -4 0.77744766E-02 0.12499893E+03</pdfrwt>
<totfact> 0.10391367E+04</totfact>
</mgrwt>
</event>
<event>
 5    1  0.3284464E-002  0.1249986E+03  0.7818608E-02  0.1235072E+00
          4   -1    0    0  501    0  0.00000000000E+00  0.00000000000E+00  0.10693031779E+03  0.10693785935E+03  0.12700000000E+01 0.  1.
         -4   -1    0    0    0  501 -0.00000000000E+00 -0.00000000000E+00 -0.36510086059E+02  0.36532167799E+02  0.12700000000E+01 0.  1.
         25    2    1    2    0    0  0.00000000000E+00  0.00000000000E+00  0.70420231733E+02  0.14347002715E+03  0.12499855861E+03 0.  0.
    9000005    1    3    3    0    0 -0.23796742318E+00  0.25885490548E+02 -0.30072314768E+02  0.39692056698E+02  0.10000000000E+01 0.  0.
    9000005    1    3    3    0    0  0.23796742318E+00 -0.25885490548E+02  0.10049254650E+03  0.10377797045E+03  0.10000000000E+01 0.  0.
<mgrwt>
<rscale>  0 0.12499856E+03</rscale>
<asrwt>0</asrwt>
<pdfrwt beam="1">  1        4 0.16453097E-01 0.12499856E+03</pdfrwt>
<pdfrwt beam="2">  1       -4 0.56192151E-02 0.12499856E+03</pdfrwt>
<totfact> 0.10062494E+04</totfact>
</mgrwt>
</event>
<event>
 5    1  0.3284464E-002  0.1250032E+03  0.7818608E-02  0.1235064E+00
          4   -1    0    0  501    0  0.00000000000E+00  0.00000000000E+00  0.47112075478E+02  0.47129190061E+02  0.12700000000E+01 0.  1.
         -4   -1    0    0    0  501 -0.00000000000E+00 -0.00000000000E+00 -0.82881208055E+02  0.82890937676E+02  0.12700000000E+01 0.  1.
         25    2    1    2    0    0  0.00000000000E+00  0.00000000000E+00 -0.35769132578E+02  0.13002012774E+03  0.12500321104E+03 0.  0.
    9000005    1    3    3    0    0  0.19412924756E+02 -0.41144311477E+02  0.26680481365E+02  0.52750015170E+02  0.10000000000E+01 0.  0.
    9000005    1    3    3    0    0 -0.19412924756E+02  0.41144311477E+02 -0.62449613943E+02  0.77270112567E+02  0.10000000000E+01 0.  0.
<mgrwt>
<rscale>  0 0.12500321E+03</rscale>
<asrwt>0</asrwt>
<pdfrwt beam="1">  1        4 0.72500765E-02 0.12500321E+03</pdfrwt>
<pdfrwt beam="2">  1       -4 0.12753020E-01 0.12500321E+03</pdfrwt>
<totfact> 0.10343327E+04</totfact>
</mgrwt>
</event>
<event>
 5    1  0.3284464E-002  0.1250227E+03  0.7818608E-02  0.1235034E+00
          4   -1    0    0  501    0  0.00000000000E+00  0.00000000000E+00  0.47311384726E+01  0.48986295274E+01  0.12700000000E+01 0.  1.
         -4   -1    0    0    0  501 -0.00000000000E+00 -0.00000000000E+00 -0.81141280245E+03  0.81141379633E+03  0.12700000000E+01 0.  1.
         25    2    1    2    0    0  0.00000000000E+00  0.00000000000E+00 -0.80668166398E+03  0.81631242586E+03  0.12502267641E+03 0.  0.
    9000005    1    3    3    0    0  0.36478850589E+02 -0.15116931349E+01 -0.73458216386E+03  0.73548959695E+03  0.10000000000E+01 0.  0.
    9000005    1    3    3    0    0 -0.36478850589E+02  0.15116931349E+01 -0.72099500119E+02  0.80822828914E+02  0.10000000000E+01 0.  0.
<mgrwt>
<rscale>  0 0.12502268E+03</rscale>
<asrwt>0</asrwt>
<pdfrwt beam="1">  1        4 0.74082848E-03 0.12502268E+03</pdfrwt>
<pdfrwt beam="2">  1       -4 0.12484559E+00 0.12502268E+03</pdfrwt>
<totfact> 0.37528230E+03</totfact>
</mgrwt>
</event>
<event>
 5    1  0.3284464E-002  0.1250071E+03  0.7818608E-02  0.1235058E+00
         -4   -1    0    0    0  501 -0.00000000000E+00  0.00000000000E+00  0.53589369600E+01  0.55073682773E+01  0.12700000000E+01 0.  1.
          4   -1    0    0  501    0  0.00000000000E+00 -0.00000000000E+00 -0.71889800623E+03  0.71889912801E+03  0.12700000000E+01 0.  1.
         25    2    1    2    0    0  0.00000000000E+00  0.00000000000E+00 -0.71353906927E+03  0.72440649629E+03  0.12500707379E+03 0.  0.
    9000005    1    3    3    0    0 -0.12306847593E+02  0.60893765225E+02 -0.39615071584E+03  0.40099363936E+03  0.10000000000E+01 0.  0.
    9000005    1    3    3    0    0  0.12306847593E+02 -0.60893765225E+02 -0.31738835342E+03  0.32341285693E+03  0.10000000000E+01 0.  0.
<mgrwt>
<rscale>  0 0.12500707E+03</rscale>
<asrwt>0</asrwt>
<pdfrwt beam="2">  1        4 0.11061112E+00 0.12500707E+03</pdfrwt>
<pdfrwt beam="1">  1       -4 0.83595650E-03 0.12500707E+03</pdfrwt>
<totfact> 0.41822739E+03</totfact>
</mgrwt>
</event>
<event>
 5    1  0.3284464E-002  0.1250540E+03  0.7818608E-02  0.1234985E+00
         -4   -1    0    0    0  501 -0.00000000000E+00  0.00000000000E+00  0.53460043453E+02  0.53475126423E+02  0.12700000000E+01 0.  1.
          4   -1    0    0  501    0  0.00000000000E+00 -0.00000000000E+00 -0.73100769554E+02  0.73111800753E+02  0.12700000000E+01 0.  1.
         25    2    1    2    0    0  0.00000000000E+00  0.00000000000E+00 -0.19640726101E+02  0.12658692718E+03  0.12505395640E+03 0.  0.
    9000005    1    3    3    0    0  0.92684703151E+01 -0.22315993460E+02 -0.68187531647E+02  0.72349482225E+02  0.10000000000E+01 0.  0.
    9000005    1    3    3    0    0 -0.92684703151E+01  0.22315993460E+02  0.48546805546E+02  0.54237444951E+02  0.10000000000E+01 0.  0.
<mgrwt>
<rscale>  0 0.12505396E+03</rscale>
<asrwt>0</asrwt>
<pdfrwt beam="2">  1        4 0.11248281E-01 0.12505396E+03</pdfrwt>
<pdfrwt beam="1">  1       -4 0.82266309E-02 0.12505396E+03</pdfrwt>
<totfact> 0.10405455E+04</totfact>
</mgrwt>
</event>
<event>
 5    1  0.3284464E-002  0.1249981E+03  0.7818608E-02  0.1235072E+00
          4   -1    0    0  501    0  0.00000000000E+00  0.00000000000E+00  0.20465349654E+03  0.20465743707E+03  0.12700000000E+01 0.  1.
         -4   -1    0    0    0  501 -0.00000000000E+00 -0.00000000000E+00 -0.19061294871E+02  0.19103556270E+02  0.12700000000E+01 0.  1.
         25    2    1    2    0    0  0.00000000000E+00  0.00000000000E+00  0.18559220167E+03  0.22376099334E+03  0.12499806726E+03 0.  0.
    9000005    1    3    3    0    0  0.25588017692E+02  0.34579589904E+02  0.17393859880E+03  0.17918183737E+03  0.10000000000E+01 0.  0.
    9000005    1    3    3    0    0 -0.25588017692E+02 -0.34579589904E+02  0.11653602866E+02  0.44579155971E+02  0.10000000000E+01 0.  0.
<mgrwt>
<rscale>  0 0.12499807E+03</rscale>
<asrwt>0</asrwt>
<pdfrwt beam="1">  1        4 0.31488706E-01 0.12499807E+03</pdfrwt>
<pdfrwt beam="2">  1       -4 0.29360610E-02 0.12499807E+03</pdfrwt>
<totfact> 0.86280422E+03</totfact>
</mgrwt>
</event>
<event>
 5    1  0.3284464E-002  0.1250007E+03  0.7818608E-02  0.1235068E+00
          4   -1    0    0  501    0  0.00000000000E+00  0.00000000000E+00  0.15518144407E+02  0.15570025878E+02  0.12700000000E+01 0.  1.
         -4   -1    0    0    0  501 -0.00000000000E+00 -0.00000000000E+00 -0.25125081269E+03  0.25125402241E+03  0.12700000000E+01 0.  1.
         25    2    1    2    0    0  0.00000000000E+00  0.00000000000E+00 -0.23573266828E+03  0.26682404829E+03  0.12500072739E+03 0.  0.
    9000005    1    3    3    0    0  0.13564828225E+01 -0.62526550988E+01 -0.25056030856E+03  0.25064397852E+03  0.10000000000E+01 0.  0.
    9000005    1    3    3    0    0 -0.13564828225E+01  0.62526550988E+01  0.14827640280E+02  0.16180069768E+02  0.10000000000E+01 0.  0.
<mgrwt>
<rscale>  0 0.12500073E+03</rscale>
<asrwt>0</asrwt>
<pdfrwt beam="1">  1        4 0.23916448E-02 0.12500073E+03</pdfrwt>
<pdfrwt beam="2">  1       -4 0.38658206E-01 0.12500073E+03</pdfrwt>
<totfact> 0.79956546E+03</totfact>
</mgrwt>
</event>
<event>
 5    1  0.3284464E-002  0.1250031E+03  0.7818608E-02  0.1235064E+00
         -4   -1    0    0    0  501 -0.00000000000E+00  0.00000000000E+00  0.67763665123E+02  0.67775564999E+02  0.12700000000E+01 0.  1.
          4   -1    0    0  501    0  0.00000000000E+00 -0.00000000000E+00 -0.57624139184E+02  0.57638132488E+02  0.12700000000E+01 0.  1.
         25    2    1    2    0    0  0.00000000000E+00  0.00000000000E+00  0.10139525939E+02  0.12541369749E+03  0.12500314208E+03 0.  0.
    9000005    1    3    3    0    0 -0.54970676584E+02  0.66298128882E+01 -0.24003276132E+02  0.60356333289E+02  0.10000000000E+01 0.  0.
    9000005    1    3    3    0    0  0.54970676584E+02 -0.66298128882E+01  0.34142802071E+02  0.65057364197E+02  0.10000000000E+01 0.  0.
<mgrwt>
<rscale>  0 0.12500314E+03</rscale>
<asrwt>0</asrwt>
<pdfrwt beam="2">  1        4 0.88672439E-02 0.12500314E+03</pdfrwt>
<pdfrwt beam="1">  1       -4 0.10427171E-01 0.12500314E+03</pdfrwt>
<totfact> 0.10443123E+04</totfact>
</mgrwt>
</event>
<event>
 5    1  0.3284464E-002  0.1250003E+03  0.7818608E-02  0.1235069E+00
          4   -1    0    0  501    0  0.00000000000E+00  0.00000000000E+00  0.55218549067E+02  0.55233151830E+02  0.12700000000E+01 0.  1.
         -4   -1    0    0    0  501 -0.00000000000E+00 -0.00000000000E+00 -0.70712329389E+02  0.70723733128E+02  0.12700000000E+01 0.  1.
         25    2    1    2    0    0  0.00000000000E+00  0.00000000000E+00 -0.15493780322E+02  0.12595688496E+03  0.12500031856E+03 0.  0.
    9000005    1    3    3    0    0 -0.12730511414E+02 -0.61065639690E+02 -0.39508826902E+01  0.62511500907E+02  0.10000000000E+01 0.  0.
    9000005    1    3    3    0    0  0.12730511414E+02  0.61065639690E+02 -0.11542897632E+02  0.63445384051E+02  0.10000000000E+01 0.  0.
<mgrwt>
<rscale>  0 0.12500032E+03</rscale>
<asrwt>0</asrwt>
<pdfrwt beam="1">  1        4 0.84971618E-02 0.12500032E+03</pdfrwt>
<pdfrwt beam="2">  1       -4 0.10880821E-01 0.12500032E+03</pdfrwt>
<totfact> 0.10431827E+04</totfact>
</mgrwt>
</event>
<event>
 5    1  0.3284464E-002  0.1249962E+03  0.7818608E-02  0.1235075E+00
         -4   -1    0    0    0  501 -0.00000000000E+00  0.00000000000E+00  0.32253311692E+01  0.34663613705E+01  0.12700000000E+01 0.  1.
          4   -1    0    0  501    0  0.00000000000E+00 -0.00000000000E+00 -0.11671796658E+04  0.11671803567E+04  0.12700000000E+01 0.  1.
         25    2    1    2    0    0  0.00000000000E+00  0.00000000000E+00 -0.11639543346E+04  0.11706467181E+04  0.12499618200E+03 0.  0.
    9000005    1    3    3    0    0  0.52268516707E+02  0.20886081243E+02 -0.32776312514E+03  0.33256261430E+03  0.10000000000E+01 0.  0.
    9000005    1    3    3    0    0 -0.52268516707E+02 -0.20886081243E+02 -0.83619120946E+03  0.83808410378E+03  0.10000000000E+01 0.  0.
<mgrwt>
<rscale>  0 0.12499618E+03</rscale>
<asrwt>0</asrwt>
<pdfrwt beam="2">  1        4 0.17958437E+00 0.12499618E+03</pdfrwt>
<pdfrwt beam="1">  1       -4 0.51479966E-03 0.12499618E+03</pdfrwt>
<totfact> 0.25496436E+03</totfact>
</mgrwt>
</event>
<event>
 5    1  0.3284464E-002  0.1250008E+03  0.7818608E-02  0.1235068E+00
          4   -1    0    0  501    0  0.00000000000E+00  0.00000000000E+00  0.76059956865E+02  0.76070558946E+02  0.12700000000E+01 0.  1.
         -4   -1    0    0    0  501 -0.00000000000E+00 -0.00000000000E+00 -0.51336141825E+02  0.51351848628E+02  0.12700000000E+01 0.  1.
         25    2    1    2    0    0  0.00000000000E+00  0.00000000000E+00  0.24723815040E+02  0.12742240757E+03  0.12500081168E+03 0.  0.
    9000005    1    3    3    0    0  0.29959120752E+02 -0.27462437748E+02 -0.36029487926E+02  0.54321804125E+02  0.10000000000E+01 0.  0.
    9000005    1    3    3    0    0 -0.29959120752E+02  0.27462437748E+02  0.60753302966E+02  0.73100603448E+02  0.10000000000E+01 0.  0.
<mgrwt>
<rscale>  0 0.12500081E+03</rscale>
<asrwt>0</asrwt>
<pdfrwt beam="1">  1        4 0.11703556E-01 0.12500081E+03</pdfrwt>
<pdfrwt beam="2">  1       -4 0.78998918E-02 0.12500081E+03</pdfrwt>
<totfact> 0.10399791E+04</totfact>
</mgrwt>
</event>
<event>
 5    1  0.3284464E-002  0.1250009E+03  0.7818608E-02  0.1235068E+00
         -4   -1    0    0    0  501 -0.00000000000E+00  0.00000000000E+00  0.28081399088E+02  0.28110102716E+02  0.12700000000E+01 0.  1.
          4   -1    0    0  501    0  0.00000000000E+00 -0.00000000000E+00 -0.13900385409E+03  0.13900965561E+03  0.12700000000E+01 0.  1.
         25    2    1    2    0    0  0.00000000000E+00  0.00000000000E+00 -0.11092245501E+03  0.16711975833E+03  0.12500089039E+03 0.  0.
    9000005    1    3    3    0    0 -0.32649606324E+02 -0.12691449799E+02 -0.12465055521E+03  0.12948293558E+03  0.10000000000E+01 0.  0.
    9000005    1    3    3    0    0  0.32649606324E+02  0.12691449799E+02  0.13728100208E+02  0.37636822746E+02  0.10000000000E+01 0.  0.
<mgrwt>
<rscale>  0 0.12500089E+03</rscale>
<asrwt>0</asrwt>
<pdfrwt beam="2">  1        4 0.21387862E-01 0.12500089E+03</pdfrwt>
<pdfrwt beam="1">  1       -4 0.43228696E-02 0.12500089E+03</pdfrwt>
<totfact> 0.95985524E+03</totfact>
</mgrwt>
</event>
<event>
 5    1  0.3284464E-002  0.1249937E+03  0.7818608E-02  0.1235079E+00
          4   -1    0    0  501    0  0.00000000000E+00  0.00000000000E+00  0.71836210769E+03  0.71836323031E+03  0.12700000000E+01 0.  1.
         -4   -1    0    0    0  501 -0.00000000000E+00 -0.00000000000E+00 -0.53618666890E+01  0.55102190874E+01  0.12700000000E+01 0.  1.
         25    2    1    2    0    0  0.00000000000E+00  0.00000000000E+00  0.71300024100E+03  0.72387344940E+03  0.12499370816E+03 0.  0.
    9000005    1    3    3    0    0 -0.14461232539E+02  0.60509863486E+02  0.32258974878E+03  0.32853571624E+03  0.10000000000E+01 0.  0.
    9000005    1    3    3    0    0  0.14461232539E+02 -0.60509863486E+02  0.39041049222E+03  0.39533773316E+03  0.10000000000E+01 0.  0.
<mgrwt>
<rscale>  0 0.12499371E+03</rscale>
<asrwt>0</asrwt>
<pdfrwt beam="1">  1        4 0.11052874E+00 0.12499371E+03</pdfrwt>
<pdfrwt beam="2">  1       -4 0.83640067E-03 0.12499371E+03</pdfrwt>
<totfact> 0.41861762E+03</totfact>
</mgrwt>
</event>
