<event>
 5    1  0.3206158E-002  0.1249981E+03  0.7818608E-02  0.1235072E+00
          4   -1    0    0  501    0  0.00000000000E+00  0.00000000000E+00  0.17021262660E+03  0.17021736443E+03  0.12700000000E+01 0. -1.
         -4   -1    0    0    0  501 -0.00000000000E+00 -0.00000000000E+00 -0.22925893373E+02  0.22961042811E+02  0.12700000000E+01 0. -1.
         25    2    1    2    0    0  0.00000000000E+00  0.00000000000E+00  0.14728673323E+03  0.19317840725E+03  0.12499806095E+03 0.  0.
    9000005    1    3    3    0    0  0.59990683789E+02  0.67217544668E+01  0.98613989117E+02  0.11562777769E+03  0.10000000000E+01 0.  0.
    9000005    1    3    3    0    0 -0.59990683789E+02 -0.67217544668E+01  0.48672744113E+02  0.77550629553E+02  0.10000000000E+01 0.  0.
<mgrwt>
<rscale>  0 0.12499806E+03</rscale>
<asrwt>0</asrwt>
<pdfrwt beam="1">  1        4 0.26189627E-01 0.12499806E+03</pdfrwt>
<pdfrwt beam="2">  1       -4 0.35301286E-02 0.12499806E+03</pdfrwt>
<totfact> 0.91301168E+03</totfact>
</mgrwt>
</event>
<event>
 5    1  0.3206158E-002  0.1250001E+03  0.7818608E-02  0.1235069E+00
          4   -1    0    0  501    0  0.00000000000E+00  0.00000000000E+00  0.10939486743E+03  0.10940223910E+03  0.12700000000E+01 0.  1.
         -4   -1    0    0    0  501 -0.00000000000E+00 -0.00000000000E+00 -0.35688013146E+02  0.35710603220E+02  0.12700000000E+01 0.  1.
         25    2    1    2    0    0  0.00000000000E+00  0.00000000000E+00  0.73706854288E+02  0.14511284232E+03  0.12500014655E+03 0.  0.
    9000005    1    3    3    0    0 -0.40788355885E+02 -0.42246025024E+02  0.12040465647E+02  0.59953226929E+02  0.10000000000E+01 0.  0.
    9000005    1    3    3    0    0  0.40788355885E+02  0.42246025024E+02  0.61666388640E+02  0.85159615394E+02  0.10000000000E+01 0.  0.
<mgrwt>
<rscale>  0 0.12500015E+03</rscale>
<asrwt>0</asrwt>
<pdfrwt beam="1">  1        4 0.16832284E-01 0.12500015E+03</pdfrwt>
<pdfrwt beam="2">  1       -4 0.54927684E-02 0.12500015E+03</pdfrwt>
<totfact> 0.10028663E+04</totfact>
</mgrwt>
</event>
<event>
 5    1  0.3206158E-002  0.1249998E+03  0.7818608E-02  0.1235070E+00
          4   -1    0    0  501    0  0.00000000000E+00  0.00000000000E+00  0.11783740605E+03  0.11784424960E+03  0.12700000000E+01 0. -1.
         -4   -1    0    0    0  501 -0.00000000000E+00 -0.00000000000E+00 -0.33129405549E+02  0.33153739036E+02  0.12700000000E+01 0. -1.
         25    2    1    2    0    0  0.00000000000E+00  0.00000000000E+00  0.84708000498E+02  0.15099798864E+03  0.12499978890E+03 0.  0.
    9000005    1    3    3    0    0 -0.40573292266E+02  0.46657764054E+02  0.31408699986E+02  0.69358816502E+02  0.10000000000E+01 0.  0.
    9000005    1    3    3    0    0  0.40573292266E+02 -0.46657764054E+02  0.53299300512E+02  0.81639172135E+02  0.10000000000E+01 0.  0.
<mgrwt>
<rscale>  0 0.12499979E+03</rscale>
<asrwt>0</asrwt>
<pdfrwt beam="1">  1        4 0.18131230E-01 0.12499979E+03</pdfrwt>
<pdfrwt beam="2">  1       -4 0.50992298E-02 0.12499979E+03</pdfrwt>
<totfact> 0.99105606E+03</totfact>
</mgrwt>
</event>
<event>
 5    1  0.3206158E-002  0.1250004E+03  0.7818608E-02  0.1235069E+00
         -4   -1    0    0    0  501 -0.00000000000E+00  0.00000000000E+00  0.12204330776E+02  0.12270231851E+02  0.12700000000E+01 0.  1.
          4   -1    0    0  501    0  0.00000000000E+00 -0.00000000000E+00 -0.31914379162E+03  0.31914631852E+03  0.12700000000E+01 0.  1.
         25    2    1    2    0    0  0.00000000000E+00  0.00000000000E+00 -0.30693946084E+03  0.33141655037E+03  0.12500038897E+03 0.  0.
    9000005    1    3    3    0    0 -0.18817531486E+02  0.58438682044E+02 -0.18440004436E+03  0.19435420091E+03  0.10000000000E+01 0.  0.
    9000005    1    3    3    0    0  0.18817531486E+02 -0.58438682044E+02 -0.12253941648E+03  0.13706234947E+03  0.10000000000E+01 0.  0.
<mgrwt>
<rscale>  0 0.12500039E+03</rscale>
<asrwt>0</asrwt>
<pdfrwt beam="2">  1        4 0.49104302E-01 0.12500039E+03</pdfrwt>
<pdfrwt beam="1">  1       -4 0.18828533E-02 0.12500039E+03</pdfrwt>
<totfact> 0.71817925E+03</totfact>
</mgrwt>
</event>
<event>
 5    1  0.3206158E-002  0.1249991E+03  0.7818608E-02  0.1235071E+00
         -4   -1    0    0    0  501 -0.00000000000E+00  0.00000000000E+00  0.52032803908E+01  0.53560271494E+01  0.12700000000E+01 0. -1.
          4   -1    0    0  501    0  0.00000000000E+00 -0.00000000000E+00 -0.73970409411E+03  0.73970518434E+03  0.12700000000E+01 0. -1.
         25    2    1    2    0    0  0.00000000000E+00  0.00000000000E+00 -0.73450081372E+03  0.74506121149E+03  0.12499905406E+03 0.  0.
    9000005    1    3    3    0    0  0.16379028488E+02 -0.89423517468E+01 -0.72273785406E+03  0.72297942151E+03  0.10000000000E+01 0.  0.
    9000005    1    3    3    0    0 -0.16379028488E+02  0.89423517468E+01 -0.11762959655E+02  0.22081789982E+02  0.10000000000E+01 0.  0.
<mgrwt>
<rscale>  0 0.12499905E+03</rscale>
<asrwt>0</asrwt>
<pdfrwt beam="2">  1        4 0.11381238E+00 0.12499905E+03</pdfrwt>
<pdfrwt beam="1">  1       -4 0.81233888E-03 0.12499905E+03</pdfrwt>
<totfact> 0.40812347E+03</totfact>
</mgrwt>
</event>
<event>
 5    1  0.3206158E-002  0.1249982E+03  0.7818608E-02  0.1235072E+00
         -4   -1    0    0    0  501 -0.00000000000E+00  0.00000000000E+00  0.84518980553E+03  0.84519075969E+03  0.12700000000E+01 0. -1.
          4   -1    0    0  501    0  0.00000000000E+00 -0.00000000000E+00 -0.45333886006E+01  0.47079201569E+01  0.12700000000E+01 0. -1.
         25    2    1    2    0    0  0.00000000000E+00  0.00000000000E+00  0.84065641692E+03  0.84989867985E+03  0.12499821874E+03 0.  0.
    9000005    1    3    3    0    0 -0.38981392370E+01 -0.45344867060E+02  0.71149221185E+03  0.71294706674E+03  0.10000000000E+01 0.  0.
    9000005    1    3    3    0    0  0.38981392370E+01  0.45344867060E+02  0.12916420508E+03  0.13695161310E+03  0.10000000000E+01 0.  0.
<mgrwt>
<rscale>  0 0.12499822E+03</rscale>
<asrwt>0</asrwt>
<pdfrwt beam="2">  1        4 0.71094364E-03 0.12499822E+03</pdfrwt>
<pdfrwt beam="1">  1       -4 0.13004264E+00 0.12499822E+03</pdfrwt>
<totfact> 0.36132890E+03</totfact>
</mgrwt>
</event>
<event>
 5    1  0.3206158E-002  0.1250019E+03  0.7818608E-02  0.1235066E+00
          4   -1    0    0  501    0  0.00000000000E+00  0.00000000000E+00  0.13867452027E+03  0.13868033556E+03  0.12700000000E+01 0.  1.
         -4   -1    0    0    0  501 -0.00000000000E+00 -0.00000000000E+00 -0.28148625341E+02  0.28177260487E+02  0.12700000000E+01 0.  1.
         25    2    1    2    0    0  0.00000000000E+00  0.00000000000E+00  0.11052589493E+03  0.16685759605E+03  0.12500193563E+03 0.  0.
    9000005    1    3    3    0    0  0.15464643628E+02 -0.53524478693E+02  0.93049673861E+02  0.10845859499E+03  0.10000000000E+01 0.  0.
    9000005    1    3    3    0    0 -0.15464643628E+02  0.53524478693E+02  0.17476221069E+02  0.58399001060E+02  0.10000000000E+01 0.  0.
<mgrwt>
<rscale>  0 0.12500194E+03</rscale>
<asrwt>0</asrwt>
<pdfrwt beam="1">  1        4 0.21337192E-01 0.12500194E+03</pdfrwt>
<pdfrwt beam="2">  1       -4 0.43332077E-02 0.12500194E+03</pdfrwt>
<totfact> 0.96032570E+03</totfact>
</mgrwt>
</event>
<event>
 5    1  0.3206158E-002  0.1249897E+03  0.7818608E-02  0.1235085E+00
         -4   -1    0    0    0  501 -0.00000000000E+00  0.00000000000E+00  0.12970323908E+03  0.12970945659E+03  0.12700000000E+01 0.  1.
          4   -1    0    0  501    0  0.00000000000E+00 -0.00000000000E+00 -0.30091550895E+02  0.30118338853E+02  0.12700000000E+01 0.  1.
         25    2    1    2    0    0  0.00000000000E+00  0.00000000000E+00  0.99611688189E+02  0.15982779544E+03  0.12498974267E+03 0.  0.
    9000005    1    3    3    0    0 -0.13668828661E+02  0.60694952677E+02  0.42361192447E+02  0.75274064477E+02  0.10000000000E+01 0.  0.
    9000005    1    3    3    0    0  0.13668828661E+02 -0.60694952677E+02  0.57250495742E+02  0.84553730965E+02  0.10000000000E+01 0.  0.
<mgrwt>
<rscale>  0 0.12498974E+03</rscale>
<asrwt>0</asrwt>
<pdfrwt beam="2">  1        4 0.46320083E-02 0.12498974E+03</pdfrwt>
<pdfrwt beam="1">  1       -4 0.19956883E-01 0.12498974E+03</pdfrwt>
<totfact> 0.97398450E+03</totfact>
</mgrwt>
</event>
<event>
 5    1  0.3206158E-002  0.1250012E+03  0.7818608E-02  0.1235067E+00
          4   -1    0    0  501    0  0.00000000000E+00  0.00000000000E+00  0.31036751618E+02  0.31062724462E+02  0.12700000000E+01 0. -1.
         -4   -1    0    0    0  501 -0.00000000000E+00 -0.00000000000E+00 -0.12577954779E+03  0.12578595924E+03  0.12700000000E+01 0. -1.
         25    2    1    2    0    0  0.00000000000E+00  0.00000000000E+00 -0.94742796170E+02  0.15684868370E+03  0.12500124861E+03 0.  0.
    9000005    1    3    3    0    0  0.53582573985E+02  0.30215812439E+02 -0.61187653538E+02  0.86769905507E+02  0.10000000000E+01 0.  0.
    9000005    1    3    3    0    0 -0.53582573985E+02 -0.30215812439E+02 -0.33555142632E+02  0.70078778195E+02  0.10000000000E+01 0.  0.
<mgrwt>
<rscale>  0 0.12500125E+03</rscale>
<asrwt>0</asrwt>
<pdfrwt beam="1">  1        4 0.47773760E-02 0.12500125E+03</pdfrwt>
<pdfrwt beam="2">  1       -4 0.19353191E-01 0.12500125E+03</pdfrwt>
<totfact> 0.97951047E+03</totfact>
</mgrwt>
</event>
<event>
 5    1  0.3206158E-002  0.1249993E+03  0.7818608E-02  0.1235070E+00
         -4   -1    0    0    0  501 -0.00000000000E+00  0.00000000000E+00  0.86540612365E+03  0.86540705552E+03  0.12700000000E+01 0.  1.
          4   -1    0    0  501    0  0.00000000000E+00 -0.00000000000E+00 -0.44234375378E+01  0.46021407683E+01  0.12700000000E+01 0.  1.
         25    2    1    2    0    0  0.00000000000E+00  0.00000000000E+00  0.86098268611E+03  0.87000919629E+03  0.12499926339E+03 0.  0.
    9000005    1    3    3    0    0  0.59591941244E+02  0.13533916464E+02  0.33951926235E+03  0.34497637000E+03  0.10000000000E+01 0.  0.
    9000005    1    3    3    0    0 -0.59591941244E+02 -0.13533916464E+02  0.52146342376E+03  0.52503282629E+03  0.10000000000E+01 0.  0.
<mgrwt>
<rscale>  0 0.12499926E+03</rscale>
<asrwt>0</asrwt>
<pdfrwt beam="2">  1        4 0.69434750E-03 0.12499926E+03</pdfrwt>
<pdfrwt beam="1">  1       -4 0.13315311E+00 0.12499926E+03</pdfrwt>
<totfact> 0.35322824E+03</totfact>
</mgrwt>
</event>
<event>
 5    1  0.3206158E-002  0.1249997E+03  0.7818608E-02  0.1235070E+00
         -4   -1    0    0    0  501 -0.00000000000E+00  0.00000000000E+00  0.37154853915E+03  0.37155070965E+03  0.12700000000E+01 0.  1.
          4   -1    0    0  501    0  0.00000000000E+00 -0.00000000000E+00 -0.10472818359E+02  0.10549541430E+02  0.12700000000E+01 0.  1.
         25    2    1    2    0    0  0.00000000000E+00  0.00000000000E+00  0.36107572079E+03  0.38210025108E+03  0.12499970293E+03 0.  0.
    9000005    1    3    3    0    0 -0.22035969606E+02  0.14921031097E+02  0.35337630940E+03  0.35437838135E+03  0.10000000000E+01 0.  0.
    9000005    1    3    3    0    0  0.22035969606E+02 -0.14921031097E+02  0.76994113874E+01  0.27721869727E+02  0.10000000000E+01 0.  0.
<mgrwt>
<rscale>  0 0.12499970E+03</rscale>
<asrwt>0</asrwt>
<pdfrwt beam="2">  1        4 0.16172717E-02 0.12499970E+03</pdfrwt>
<pdfrwt beam="1">  1       -4 0.57167379E-01 0.12499970E+03</pdfrwt>
<totfact> 0.66332175E+03</totfact>
</mgrwt>
</event>
<event>
 5    1  0.3206158E-002  0.1250040E+03  0.7818608E-02  0.1235063E+00
         -4   -1    0    0    0  501 -0.00000000000E+00  0.00000000000E+00  0.56411914526E+03  0.56412057484E+03  0.12700000000E+01 0.  1.
          4   -1    0    0  501    0  0.00000000000E+00 -0.00000000000E+00 -0.68652818795E+01  0.69817616176E+01  0.12700000000E+01 0.  1.
         25    2    1    2    0    0  0.00000000000E+00  0.00000000000E+00  0.55725386338E+03  0.57110233645E+03  0.12500404172E+03 0.  0.
    9000005    1    3    3    0    0 -0.37544037514E+02  0.12081009028E+02  0.57152526977E+02  0.69447223643E+02  0.10000000000E+01 0.  0.
    9000005    1    3    3    0    0  0.37544037514E+02 -0.12081009028E+02  0.50010133641E+03  0.50165511281E+03  0.10000000000E+01 0.  0.
<mgrwt>
<rscale>  0 0.12500404E+03</rscale>
<asrwt>0</asrwt>
<pdfrwt beam="2">  1        4 0.10652668E-02 0.12500404E+03</pdfrwt>
<pdfrwt beam="1">  1       -4 0.86796657E-01 0.12500404E+03</pdfrwt>
<totfact> 0.50739531E+03</totfact>
</mgrwt>
</event>
<event>
 5    1  0.3206158E-002  0.1250000E+03  0.7818608E-02  0.1235069E+00
         -4   -1    0    0    0  501 -0.00000000000E+00  0.00000000000E+00  0.13108008430E+03  0.13108623651E+03  0.12700000000E+01 0. -1.
          4   -1    0    0  501    0  0.00000000000E+00 -0.00000000000E+00 -0.29780085767E+02  0.29807153643E+02  0.12700000000E+01 0. -1.
         25    2    1    2    0    0  0.00000000000E+00  0.00000000000E+00  0.10129999854E+03  0.16089339015E+03  0.12499997316E+03 0.  0.
    9000005    1    3    3    0    0  0.57083975495E+02 -0.23184823718E+02  0.37203650652E+02  0.71980746946E+02  0.10000000000E+01 0.  0.
    9000005    1    3    3    0    0 -0.57083975495E+02  0.23184823718E+02  0.64096347886E+02  0.88912643204E+02  0.10000000000E+01 0.  0.
<mgrwt>
<rscale>  0 0.12499997E+03</rscale>
<asrwt>0</asrwt>
<pdfrwt beam="2">  1        4 0.45841070E-02 0.12499997E+03</pdfrwt>
<pdfrwt beam="1">  1       -4 0.20168722E-01 0.12499997E+03</pdfrwt>
<totfact> 0.97170881E+03</totfact>
</mgrwt>
</event>
<event>
 5    1  0.3206158E-002  0.1250002E+03  0.7818608E-02  0.1235069E+00
          4   -1    0    0  501    0  0.00000000000E+00  0.00000000000E+00  0.30310616015E+01  0.32863710125E+01  0.12700000000E+01 0.  1.
         -4   -1    0    0    0  501 -0.00000000000E+00 -0.00000000000E+00 -0.12364056302E+04  0.12364062825E+04  0.12700000000E+01 0.  1.
         25    2    1    2    0    0  0.00000000000E+00  0.00000000000E+00 -0.12333745686E+04  0.12396926535E+04  0.12500019437E+03 0.  0.
    9000005    1    3    3    0    0 -0.12877729791E+02 -0.74419761740E+01 -0.14729968216E+02  0.20956881867E+02  0.10000000000E+01 0.  0.
    9000005    1    3    3    0    0  0.12877729791E+02  0.74419761740E+01 -0.12186446004E+04  0.12187357716E+04  0.10000000000E+01 0.  0.
<mgrwt>
<rscale>  0 0.12500019E+03</rscale>
<asrwt>0</asrwt>
<pdfrwt beam="1">  1        4 0.48600751E-03 0.12500019E+03</pdfrwt>
<pdfrwt beam="2">  1       -4 0.19023555E+00 0.12500019E+03</pdfrwt>
<totfact> 0.23696753E+03</totfact>
</mgrwt>
</event>
<event>
 5    1  0.3206158E-002  0.1250008E+03  0.7818608E-02  0.1235068E+00
          4   -1    0    0  501    0  0.00000000000E+00  0.00000000000E+00  0.19527447874E+03  0.19527860853E+03  0.12700000000E+01 0. -1.
         -4   -1    0    0    0  501 -0.00000000000E+00 -0.00000000000E+00 -0.19979652016E+02  0.20019974892E+02  0.12700000000E+01 0. -1.
         25    2    1    2    0    0  0.00000000000E+00  0.00000000000E+00  0.17529482673E+03  0.21529858342E+03  0.12500081498E+03 0.  0.
    9000005    1    3    3    0    0  0.34324311930E+02  0.44561630632E+02  0.40749266796E+02  0.69465099571E+02  0.10000000000E+01 0.  0.
    9000005    1    3    3    0    0 -0.34324311930E+02 -0.44561630632E+02  0.13454555993E+03  0.14583348385E+03  0.10000000000E+01 0.  0.
<mgrwt>
<rscale>  0 0.12500081E+03</rscale>
<asrwt>0</asrwt>
<pdfrwt beam="1">  1        4 0.30045648E-01 0.12500081E+03</pdfrwt>
<pdfrwt beam="2">  1       -4 0.30772120E-02 0.12500081E+03</pdfrwt>
<totfact> 0.87616201E+03</totfact>
</mgrwt>
</event>
<event>
 5    1  0.3206158E-002  0.1250031E+03  0.7818608E-02  0.1235064E+00
          4   -1    0    0  501    0  0.00000000000E+00  0.00000000000E+00  0.17459000719E+03  0.17459462624E+03  0.12700000000E+01 0.  1.
         -4   -1    0    0    0  501 -0.00000000000E+00 -0.00000000000E+00 -0.22352014665E+02  0.22388065115E+02  0.12700000000E+01 0.  1.
         25    2    1    2    0    0  0.00000000000E+00  0.00000000000E+00  0.15223799253E+03  0.19698269135E+03  0.12500309726E+03 0.  0.
    9000005    1    3    3    0    0 -0.36762970631E+02  0.48045342942E+02  0.10081332590E+03  0.11757634824E+03  0.10000000000E+01 0.  0.
    9000005    1    3    3    0    0  0.36762970631E+02 -0.48045342942E+02  0.51424666632E+02  0.79406343111E+02  0.10000000000E+01 0.  0.
<mgrwt>
<rscale>  0 0.12500310E+03</rscale>
<asrwt>0</asrwt>
<pdfrwt beam="1">  1        4 0.26863128E-01 0.12500310E+03</pdfrwt>
<pdfrwt beam="2">  1       -4 0.34419001E-02 0.12500310E+03</pdfrwt>
<totfact> 0.90640060E+03</totfact>
</mgrwt>
</event>
<event>
 5    1  0.3206158E-002  0.1249976E+03  0.7818608E-02  0.1235073E+00
         -4   -1    0    0    0  501 -0.00000000000E+00  0.00000000000E+00  0.25280249934E+02  0.25312130229E+02  0.12700000000E+01 0.  1.
          4   -1    0    0  501    0  0.00000000000E+00 -0.00000000000E+00 -0.15437999798E+03  0.15438522169E+03  0.12700000000E+01 0.  1.
         25    2    1    2    0    0  0.00000000000E+00  0.00000000000E+00 -0.12909974805E+03  0.17969735192E+03  0.12499757334E+03 0.  0.
    9000005    1    3    3    0    0  0.47937281635E+02 -0.33161509491E+02 -0.32166058505E+02  0.66583211112E+02  0.10000000000E+01 0.  0.
    9000005    1    3    3    0    0 -0.47937281635E+02  0.33161509491E+02 -0.96933689541E+02  0.11311414081E+03  0.10000000000E+01 0.  0.
<mgrwt>
<rscale>  0 0.12499757E+03</rscale>
<asrwt>0</asrwt>
<pdfrwt beam="2">  1        4 0.23753622E-01 0.12499757E+03</pdfrwt>
<pdfrwt beam="1">  1       -4 0.38921235E-02 0.12499757E+03</pdfrwt>
<totfact> 0.93676607E+03</totfact>
</mgrwt>
</event>
<event>
 5    1  0.3206158E-002  0.1249999E+03  0.7818608E-02  0.1235069E+00
         -4   -1    0    0    0  501 -0.00000000000E+00  0.00000000000E+00  0.40543442548E+03  0.40543641458E+03  0.12700000000E+01 0.  1.
          4   -1    0    0  501    0  0.00000000000E+00 -0.00000000000E+00 -0.95908377758E+01  0.96745578318E+01  0.12700000000E+01 0.  1.
         25    2    1    2    0    0  0.00000000000E+00  0.00000000000E+00  0.39584358771E+03  0.41511097241E+03  0.12499989395E+03 0.  0.
    9000005    1    3    3    0    0 -0.38438847283E+02 -0.47266354429E+02  0.24412755987E+03  0.25161661060E+03  0.10000000000E+01 0.  0.
    9000005    1    3    3    0    0  0.38438847283E+02  0.47266354429E+02  0.15171602784E+03  0.16349436181E+03  0.10000000000E+01 0.  0.
<mgrwt>
<rscale>  0 0.12499989E+03</rscale>
<asrwt>0</asrwt>
<pdfrwt beam="2">  1        4 0.14821066E-02 0.12499989E+03</pdfrwt>
<pdfrwt beam="1">  1       -4 0.62381114E-01 0.12499989E+03</pdfrwt>
<totfact> 0.63109326E+03</totfact>
</mgrwt>
</event>
<event>
 5    1  0.3206158E-002  0.1250043E+03  0.7818608E-02  0.1235063E+00
         -4   -1    0    0    0  501 -0.00000000000E+00  0.00000000000E+00  0.49200033303E+02  0.49216421823E+02  0.12700000000E+01 0.  1.
          4   -1    0    0  501    0  0.00000000000E+00 -0.00000000000E+00 -0.79365994449E+02  0.79376154952E+02  0.12700000000E+01 0.  1.
         25    2    1    2    0    0  0.00000000000E+00  0.00000000000E+00 -0.30165961146E+02  0.12859257677E+03  0.12500426229E+03 0.  0.
    9000005    1    3    3    0    0 -0.35443595435E+02  0.38815995014E+01 -0.67880746095E+02  0.76681881579E+02  0.10000000000E+01 0.  0.
    9000005    1    3    3    0    0  0.35443595435E+02 -0.38815995014E+01  0.37714784949E+02  0.51910695196E+02  0.10000000000E+01 0.  0.
<mgrwt>
<rscale>  0 0.12500426E+03</rscale>
<asrwt>0</asrwt>
<pdfrwt beam="2">  1        4 0.12212195E-01 0.12500426E+03</pdfrwt>
<pdfrwt beam="1">  1       -4 0.75712781E-02 0.12500426E+03</pdfrwt>
<totfact> 0.10373712E+04</totfact>
</mgrwt>
</event>
<event>
 5    1  0.3206158E-002  0.1250098E+03  0.7818608E-02  0.1235054E+00
         -4   -1    0    0    0  501 -0.00000000000E+00  0.00000000000E+00  0.11622921117E+03  0.11623614941E+03  0.12700000000E+01 0. -1.
          4   -1    0    0  501    0  0.00000000000E+00 -0.00000000000E+00 -0.33593511937E+02  0.33617509490E+02  0.12700000000E+01 0. -1.
         25    2    1    2    0    0  0.00000000000E+00  0.00000000000E+00  0.82635699237E+02  0.14985365890E+03  0.12500984080E+03 0.  0.
    9000005    1    3    3    0    0  0.25289530175E+02 -0.38622660980E+02 -0.91799844737E+01  0.47080169845E+02  0.10000000000E+01 0.  0.
    9000005    1    3    3    0    0 -0.25289530175E+02  0.38622660980E+02  0.91815683711E+02  0.10277348906E+03  0.10000000000E+01 0.  0.
<mgrwt>
<rscale>  0 0.12500984E+03</rscale>
<asrwt>0</asrwt>
<pdfrwt beam="2">  1        4 0.51706124E-02 0.12500984E+03</pdfrwt>
<pdfrwt beam="1">  1       -4 0.17883796E-01 0.12500984E+03</pdfrwt>
<totfact> 0.99310880E+03</totfact>
</mgrwt>
</event>
<event>
 5    1  0.3206158E-002  0.1249985E+03  0.7818608E-02  0.1235072E+00
         -4   -1    0    0    0  501 -0.00000000000E+00  0.00000000000E+00  0.22410440496E+02  0.22446397110E+02  0.12700000000E+01 0. -1.
          4   -1    0    0  501    0  0.00000000000E+00 -0.00000000000E+00 -0.17412268471E+03  0.17412731615E+03  0.12700000000E+01 0. -1.
         25    2    1    2    0    0  0.00000000000E+00  0.00000000000E+00 -0.15171224422E+03  0.19657371326E+03  0.12499847880E+03 0.  0.
    9000005    1    3    3    0    0 -0.28981293702E+02  0.35006694503E+02 -0.84029179832E+01  0.46227622427E+02  0.10000000000E+01 0.  0.
    9000005    1    3    3    0    0  0.28981293702E+02 -0.35006694503E+02 -0.14330932623E+03  0.15034609084E+03  0.10000000000E+01 0.  0.
<mgrwt>
<rscale>  0 0.12499848E+03</rscale>
<asrwt>0</asrwt>
<pdfrwt beam="2">  1        4 0.26791227E-01 0.12499848E+03</pdfrwt>
<pdfrwt beam="1">  1       -4 0.34508823E-02 0.12499848E+03</pdfrwt>
<totfact> 0.90719013E+03</totfact>
</mgrwt>
</event>
<event>
 5    1  0.3206158E-002  0.1249985E+03  0.7818608E-02  0.1235072E+00
         -4   -1    0    0    0  501 -0.00000000000E+00  0.00000000000E+00  0.47352447884E+03  0.47352618192E+03  0.12700000000E+01 0.  1.
          4   -1    0    0  501    0  0.00000000000E+00 -0.00000000000E+00 -0.81985039809E+01  0.82962863695E+01  0.12700000000E+01 0.  1.
         25    2    1    2    0    0  0.00000000000E+00  0.00000000000E+00  0.46532597486E+03  0.48182246828E+03  0.12499851226E+03 0.  0.
    9000005    1    3    3    0    0  0.44977046653E+02  0.33072144247E+02  0.34089875859E+03  0.34544126137E+03  0.10000000000E+01 0.  0.
    9000005    1    3    3    0    0 -0.44977046653E+02 -0.33072144247E+02  0.12442721627E+03  0.13638120692E+03  0.10000000000E+01 0.  0.
<mgrwt>
<rscale>  0 0.12499851E+03</rscale>
<asrwt>0</asrwt>
<pdfrwt beam="2">  1        4 0.12689611E-02 0.12499851E+03</pdfrwt>
<pdfrwt beam="1">  1       -4 0.72857571E-01 0.12499851E+03</pdfrwt>
<totfact> 0.57304701E+03</totfact>
</mgrwt>
</event>
<event>
 5    1  0.3206158E-002  0.1250030E+03  0.7818608E-02  0.1235065E+00
          4   -1    0    0  501    0  0.00000000000E+00  0.00000000000E+00  0.16453448222E+02  0.16502389475E+02  0.12700000000E+01 0.  1.
         -4   -1    0    0    0  501 -0.00000000000E+00 -0.00000000000E+00 -0.23702049399E+03  0.23702389642E+03  0.12700000000E+01 0.  1.
         25    2    1    2    0    0  0.00000000000E+00  0.00000000000E+00 -0.22056704577E+03  0.25352628589E+03  0.12500302380E+03 0.  0.
    9000005    1    3    3    0    0  0.10889451529E+02  0.14055094722E+02  0.11225394209E+02  0.21050779496E+02  0.10000000000E+01 0.  0.
    9000005    1    3    3    0    0 -0.10889451529E+02 -0.14055094722E+02 -0.23179243998E+03  0.23247550640E+03  0.10000000000E+01 0.  0.
<mgrwt>
<rscale>  0 0.12500302E+03</rscale>
<asrwt>0</asrwt>
<pdfrwt beam="1">  1        4 0.25353263E-02 0.12500302E+03</pdfrwt>
<pdfrwt beam="2">  1       -4 0.36468715E-01 0.12500302E+03</pdfrwt>
<totfact> 0.81817717E+03</totfact>
</mgrwt>
</event>
<event>
 5    1  0.3206158E-002  0.1249917E+03  0.7818608E-02  0.1235082E+00
         -4   -1    0    0    0  501 -0.00000000000E+00  0.00000000000E+00  0.60862737939E+02  0.60875986805E+02  0.12700000000E+01 0.  1.
          4   -1    0    0  501    0  0.00000000000E+00 -0.00000000000E+00 -0.64146226908E+02  0.64158797733E+02  0.12700000000E+01 0.  1.
         25    2    1    2    0    0  0.00000000000E+00  0.00000000000E+00 -0.32834889692E+01  0.12503478454E+03  0.12499166390E+03 0.  0.
    9000005    1    3    3    0    0  0.49065956129E+01  0.27091433474E+02 -0.57756627462E+02  0.63991002992E+02  0.10000000000E+01 0.  0.
    9000005    1    3    3    0    0 -0.49065956129E+01 -0.27091433474E+02  0.54473138492E+02  0.61043781546E+02  0.10000000000E+01 0.  0.
<mgrwt>
<rscale>  0 0.12499166E+03</rscale>
<asrwt>0</asrwt>
<pdfrwt beam="2">  1        4 0.98706364E-02 0.12499166E+03</pdfrwt>
<pdfrwt beam="1">  1       -4 0.93654843E-02 0.12499166E+03</pdfrwt>
<totfact> 0.10454077E+04</totfact>
</mgrwt>
</event>
<event>
 5    1  0.3206158E-002  0.1250040E+03  0.7818608E-02  0.1235063E+00
          4   -1    0    0  501    0  0.00000000000E+00  0.00000000000E+00  0.15302559012E+03  0.15303086006E+03  0.12700000000E+01 0.  1.
         -4   -1    0    0    0  501 -0.00000000000E+00 -0.00000000000E+00 -0.25506884915E+02  0.25538482298E+02  0.12700000000E+01 0.  1.
         25    2    1    2    0    0  0.00000000000E+00  0.00000000000E+00  0.12751870520E+03  0.17856934236E+03  0.12500395935E+03 0.  0.
    9000005    1    3    3    0    0 -0.19770170507E+02  0.33046243115E+01 -0.20797275812E+02  0.28901675816E+02  0.10000000000E+01 0.  0.
    9000005    1    3    3    0    0  0.19770170507E+02 -0.33046243115E+01  0.14831598102E+03  0.14966766654E+03  0.10000000000E+01 0.  0.
<mgrwt>
<rscale>  0 0.12500396E+03</rscale>
<asrwt>0</asrwt>
<pdfrwt beam="1">  1        4 0.23545235E-01 0.12500396E+03</pdfrwt>
<pdfrwt beam="2">  1       -4 0.39269720E-02 0.12500396E+03</pdfrwt>
<totfact> 0.93866827E+03</totfact>
</mgrwt>
</event>
<event>
 5    1  0.3206158E-002  0.1250039E+03  0.7818608E-02  0.1235063E+00
         -4   -1    0    0    0  501 -0.00000000000E+00  0.00000000000E+00  0.40717627469E+02  0.40737428572E+02  0.12700000000E+01 0. -1.
          4   -1    0    0  501    0  0.00000000000E+00 -0.00000000000E+00 -0.95893813977E+02  0.95902223432E+02  0.12700000000E+01 0. -1.
         25    2    1    2    0    0  0.00000000000E+00  0.00000000000E+00 -0.55176186508E+02  0.13663965200E+03  0.12500393171E+03 0.  0.
    9000005    1    3    3    0    0 -0.35378629992E+02 -0.50950762022E+02 -0.19272891733E+02  0.64962080990E+02  0.10000000000E+01 0.  0.
    9000005    1    3    3    0    0  0.35378629992E+02  0.50950762022E+02 -0.35903294775E+02  0.71677571014E+02  0.10000000000E+01 0.  0.
<mgrwt>
<rscale>  0 0.12500393E+03</rscale>
<asrwt>0</asrwt>
<pdfrwt beam="2">  1        4 0.14755064E-01 0.12500393E+03</pdfrwt>
<pdfrwt beam="1">  1       -4 0.62664205E-02 0.12500393E+03</pdfrwt>
<totfact> 0.10202721E+04</totfact>
</mgrwt>
</event>
<event>
 5    1  0.3206158E-002  0.1250016E+03  0.7818608E-02  0.1235067E+00
         -4   -1    0    0    0  501 -0.00000000000E+00  0.00000000000E+00  0.49996377906E+03  0.49996539207E+03  0.12700000000E+01 0.  1.
          4   -1    0    0  501    0  0.00000000000E+00 -0.00000000000E+00 -0.77600192947E+01  0.78632562883E+01  0.12700000000E+01 0.  1.
         25    2    1    2    0    0  0.00000000000E+00  0.00000000000E+00  0.49220375976E+03  0.50782864836E+03  0.12500157987E+03 0.  0.
    9000005    1    3    3    0    0  0.98578906121E+01 -0.44922886302E+02  0.41798805623E+03  0.42051190098E+03  0.10000000000E+01 0.  0.
    9000005    1    3    3    0    0 -0.98578906121E+01  0.44922886302E+02  0.74215703536E+02  0.87316747376E+02  0.10000000000E+01 0.  0.
<mgrwt>
<rscale>  0 0.12500158E+03</rscale>
<asrwt>0</asrwt>
<pdfrwt beam="2">  1        4 0.12019140E-02 0.12500158E+03</pdfrwt>
<pdfrwt beam="1">  1       -4 0.76925605E-01 0.12500158E+03</pdfrwt>
<totfact> 0.55260097E+03</totfact>
</mgrwt>
</event>
<event>
 5    1  0.3206158E-002  0.1249974E+03  0.7818608E-02  0.1235073E+00
          4   -1    0    0  501    0  0.00000000000E+00  0.00000000000E+00  0.84826932092E+01  0.85772363895E+01  0.12700000000E+01 0.  1.
         -4   -1    0    0    0  501 -0.00000000000E+00 -0.00000000000E+00 -0.45782998480E+03  0.45783174626E+03  0.12700000000E+01 0.  1.
         25    2    1    2    0    0  0.00000000000E+00  0.00000000000E+00 -0.44934729159E+03  0.46640898265E+03  0.12499740251E+03 0.  0.
    9000005    1    3    3    0    0 -0.89867910261E+01  0.19718191066E+01 -0.45530717719E+03  0.45540122539E+03  0.10000000000E+01 0.  0.
    9000005    1    3    3    0    0  0.89867910261E+01 -0.19718191066E+01  0.59598855997E+01  0.11007757260E+02  0.10000000000E+01 0.  0.
<mgrwt>
<rscale>  0 0.12499740E+03</rscale>
<asrwt>0</asrwt>
<pdfrwt beam="1">  1        4 0.13124381E-02 0.12499740E+03</pdfrwt>
<pdfrwt beam="2">  1       -4 0.70442771E-01 0.12499740E+03</pdfrwt>
<totfact> 0.58571541E+03</totfact>
</mgrwt>
</event>
<event>
 5    1  0.3206158E-002  0.1249963E+03  0.7818608E-02  0.1235075E+00
         -4   -1    0    0    0  501 -0.00000000000E+00  0.00000000000E+00  0.67895543242E+02  0.67907420008E+02  0.12700000000E+01 0. -1.
          4   -1    0    0  501    0  0.00000000000E+00 -0.00000000000E+00 -0.57505943625E+02  0.57519965684E+02  0.12700000000E+01 0. -1.
         25    2    1    2    0    0  0.00000000000E+00  0.00000000000E+00  0.10389599617E+02  0.12542738569E+03  0.12499634115E+03 0.  0.
    9000005    1    3    3    0    0 -0.53188397315E+02  0.32801689362E+02  0.49391834798E+01  0.62692519230E+02  0.10000000000E+01 0.  0.
    9000005    1    3    3    0    0  0.53188397315E+02 -0.32801689362E+02  0.54504161374E+01  0.62734866462E+02  0.10000000000E+01 0.  0.
<mgrwt>
<rscale>  0 0.12499634E+03</rscale>
<asrwt>0</asrwt>
<pdfrwt beam="2">  1        4 0.88490605E-02 0.12499634E+03</pdfrwt>
<pdfrwt beam="1">  1       -4 0.10447460E-01 0.12499634E+03</pdfrwt>
<totfact> 0.10444422E+04</totfact>
</mgrwt>
</event>
<event>
 5    1  0.3206158E-002  0.1249992E+03  0.7818608E-02  0.1235071E+00
         -4   -1    0    0    0  501 -0.00000000000E+00  0.00000000000E+00  0.55794598831E+02  0.55809050867E+02  0.12700000000E+01 0. -1.
          4   -1    0    0  501    0  0.00000000000E+00 -0.00000000000E+00 -0.69981061659E+02  0.69992584542E+02  0.12700000000E+01 0. -1.
         25    2    1    2    0    0  0.00000000000E+00  0.00000000000E+00 -0.14186462828E+02  0.12580163541E+03  0.12499918297E+03 0.  0.
    9000005    1    3    3    0    0 -0.16773892216E+02  0.58202101396E+02  0.83791696523E+01  0.61156018109E+02  0.10000000000E+01 0.  0.
    9000005    1    3    3    0    0  0.16773892216E+02 -0.58202101396E+02 -0.22565632480E+02  0.64645617301E+02  0.10000000000E+01 0.  0.
<mgrwt>
<rscale>  0 0.12499918E+03</rscale>
<asrwt>0</asrwt>
<pdfrwt beam="2">  1        4 0.10768315E-01 0.12499918E+03</pdfrwt>
<pdfrwt beam="1">  1       -4 0.85857825E-02 0.12499918E+03</pdfrwt>
<totfact> 0.10435502E+04</totfact>
</mgrwt>
</event>
<event>
 5    1  0.3206158E-002  0.1249989E+03  0.7818608E-02  0.1235071E+00
          4   -1    0    0  501    0  0.00000000000E+00  0.00000000000E+00  0.18040148000E+03  0.18040595025E+03  0.12700000000E+01 0. -1.
         -4   -1    0    0    0  501 -0.00000000000E+00 -0.00000000000E+00 -0.21629362402E+02  0.21666615285E+02  0.12700000000E+01 0. -1.
         25    2    1    2    0    0  0.00000000000E+00  0.00000000000E+00  0.15877211759E+03  0.20207256553E+03  0.12499894566E+03 0.  0.
    9000005    1    3    3    0    0 -0.28025182760E+01  0.59331071815E+02  0.47991071315E+02  0.76368665809E+02  0.10000000000E+01 0.  0.
    9000005    1    3    3    0    0  0.28025182760E+01 -0.59331071815E+02  0.11078104628E+03  0.12570389972E+03  0.10000000000E+01 0.  0.
<mgrwt>
<rscale>  0 0.12499895E+03</rscale>
<asrwt>0</asrwt>
<pdfrwt beam="1">  1        4 0.27757285E-01 0.12499895E+03</pdfrwt>
<pdfrwt beam="2">  1       -4 0.33308035E-02 0.12499895E+03</pdfrwt>
<totfact> 0.89789241E+03</totfact>
</mgrwt>
</event>
<event>
 5    1  0.3206158E-002  0.1249988E+03  0.7818608E-02  0.1235071E+00
         -4   -1    0    0    0  501 -0.00000000000E+00  0.00000000000E+00  0.82385056157E+02  0.82394844365E+02  0.12700000000E+01 0.  1.
          4   -1    0    0  501    0  0.00000000000E+00 -0.00000000000E+00 -0.47392553723E+02  0.47409567055E+02  0.12700000000E+01 0.  1.
         25    2    1    2    0    0  0.00000000000E+00  0.00000000000E+00  0.34992502434E+02  0.12980441142E+03  0.12499883999E+03 0.  0.
    9000005    1    3    3    0    0 -0.35803485369E+02  0.46858529277E+02  0.38968876076E+02  0.70690767666E+02  0.10000000000E+01 0.  0.
    9000005    1    3    3    0    0  0.35803485369E+02 -0.46858529277E+02 -0.39763736418E+01  0.59113643755E+02  0.10000000000E+01 0.  0.
<mgrwt>
<rscale>  0 0.12499884E+03</rscale>
<asrwt>0</asrwt>
<pdfrwt beam="2">  1        4 0.72932239E-02 0.12499884E+03</pdfrwt>
<pdfrwt beam="1">  1       -4 0.12676685E-01 0.12499884E+03</pdfrwt>
<totfact> 0.10348964E+04</totfact>
</mgrwt>
</event>
<event>
 5    1  0.3206158E-002  0.1250015E+03  0.7818608E-02  0.1235067E+00
          4   -1    0    0  501    0  0.00000000000E+00  0.00000000000E+00  0.80614876319E+01  0.81609118877E+01  0.12700000000E+01 0.  1.
         -4   -1    0    0    0  501 -0.00000000000E+00 -0.00000000000E+00 -0.48149868981E+03  0.48150036469E+03  0.12700000000E+01 0.  1.
         25    2    1    2    0    0  0.00000000000E+00  0.00000000000E+00 -0.47343720218E+03  0.48966127657E+03  0.12500152545E+03 0.  0.
    9000005    1    3    3    0    0 -0.23902700529E+02  0.10849451969E+01 -0.46286359200E+03  0.46348270841E+03  0.10000000000E+01 0.  0.
    9000005    1    3    3    0    0  0.23902700529E+02 -0.10849451969E+01 -0.10573610182E+02  0.26178568161E+02  0.10000000000E+01 0.  0.
<mgrwt>
<rscale>  0 0.12500153E+03</rscale>
<asrwt>0</asrwt>
<pdfrwt beam="1">  1        4 0.12480061E-02 0.12500153E+03</pdfrwt>
<pdfrwt beam="2">  1       -4 0.74084476E-01 0.12500153E+03</pdfrwt>
<totfact> 0.56673650E+03</totfact>
</mgrwt>
</event>
<event>
 5    1  0.3206158E-002  0.1250012E+03  0.7818608E-02  0.1235067E+00
          4   -1    0    0  501    0  0.00000000000E+00  0.00000000000E+00  0.15204454921E+03  0.15204985315E+03  0.12700000000E+01 0.  1.
         -4   -1    0    0    0  501 -0.00000000000E+00 -0.00000000000E+00 -0.25670528474E+02  0.25701924678E+02  0.12700000000E+01 0.  1.
         25    2    1    2    0    0  0.00000000000E+00  0.00000000000E+00  0.12637402073E+03  0.17775177783E+03  0.12500120561E+03 0.  0.
    9000005    1    3    3    0    0  0.38028964280E+02  0.20996346994E+02 -0.69669502635E+00  0.43457267462E+02  0.10000000000E+01 0.  0.
    9000005    1    3    3    0    0 -0.38028964280E+02 -0.20996346994E+02  0.12707071576E+03  0.13429451037E+03  0.10000000000E+01 0.  0.
<mgrwt>
<rscale>  0 0.12500121E+03</rscale>
<asrwt>0</asrwt>
<pdfrwt beam="1">  1        4 0.23394292E-01 0.12500121E+03</pdfrwt>
<pdfrwt beam="2">  1       -4 0.39521351E-02 0.12500121E+03</pdfrwt>
<totfact> 0.94020720E+03</totfact>
</mgrwt>
</event>
<event>
 5    1  0.3206158E-002  0.1249993E+03  0.7818608E-02  0.1235070E+00
         -4   -1    0    0    0  501 -0.00000000000E+00  0.00000000000E+00  0.26693453291E+02  0.26723647741E+02  0.12700000000E+01 0. -1.
          4   -1    0    0  501    0  0.00000000000E+00 -0.00000000000E+00 -0.14622015617E+03  0.14622567137E+03  0.12700000000E+01 0. -1.
         25    2    1    2    0    0  0.00000000000E+00  0.00000000000E+00 -0.11952670287E+03  0.17294931912E+03  0.12499933713E+03 0.  0.
    9000005    1    3    3    0    0  0.40497724120E+02 -0.75287488005E+00 -0.12560559266E+03  0.13197877628E+03  0.10000000000E+01 0.  0.
    9000005    1    3    3    0    0 -0.40497724120E+02  0.75287488005E+00  0.60788897884E+01  0.40970542839E+02  0.10000000000E+01 0.  0.
<mgrwt>
<rscale>  0 0.12499934E+03</rscale>
<asrwt>0</asrwt>
<pdfrwt beam="2">  1        4 0.22498155E-01 0.12499934E+03</pdfrwt>
<pdfrwt beam="1">  1       -4 0.41094321E-02 0.12499934E+03</pdfrwt>
<totfact> 0.94903177E+03</totfact>
</mgrwt>
</event>
<event>
 5    1  0.3206158E-002  0.1249940E+03  0.7818608E-02  0.1235079E+00
          4   -1    0    0  501    0  0.00000000000E+00  0.00000000000E+00  0.88792401248E+02  0.88801483205E+02  0.12700000000E+01 0. -1.
         -4   -1    0    0    0  501 -0.00000000000E+00 -0.00000000000E+00 -0.43968373011E+02  0.43986710780E+02  0.12700000000E+01 0. -1.
         25    2    1    2    0    0  0.00000000000E+00  0.00000000000E+00  0.44824028237E+02  0.13278819398E+03  0.12499404368E+03 0.  0.
    9000005    1    3    3    0    0  0.27660965578E+02 -0.18367981710E+02 -0.33826336026E+02  0.47410260258E+02  0.10000000000E+01 0.  0.
    9000005    1    3    3    0    0 -0.27660965578E+02  0.18367981710E+02  0.78650364263E+02  0.85377933727E+02  0.10000000000E+01 0.  0.
<mgrwt>
<rscale>  0 0.12499404E+03</rscale>
<asrwt>0</asrwt>
<pdfrwt beam="1">  1        4 0.13662479E-01 0.12499404E+03</pdfrwt>
<pdfrwt beam="2">  1       -4 0.67664743E-02 0.12499404E+03</pdfrwt>
<totfact> 0.10286285E+04</totfact>
</mgrwt>
</event>
<event>
 5    1  0.3206158E-002  0.1249670E+03  0.7818608E-02  0.1235121E+00
         -4   -1    0    0    0  501 -0.00000000000E+00  0.00000000000E+00  0.43758104000E+02  0.43776529850E+02  0.12700000000E+01 0.  1.
          4   -1    0    0  501    0  0.00000000000E+00 -0.00000000000E+00 -0.89180274126E+02  0.89189316586E+02  0.12700000000E+01 0.  1.
         25    2    1    2    0    0  0.00000000000E+00  0.00000000000E+00 -0.45422170125E+02  0.13296584644E+03  0.12496696675E+03 0.  0.
    9000005    1    3    3    0    0  0.82613136888E+01  0.37221120089E+02  0.29949511848E+02  0.48493652620E+02  0.10000000000E+01 0.  0.
    9000005    1    3    3    0    0 -0.82613136888E+01 -0.37221120089E+02 -0.75371681973E+02  0.84472193816E+02  0.10000000000E+01 0.  0.
<mgrwt>
<rscale>  0 0.12496697E+03</rscale>
<asrwt>0</asrwt>
<pdfrwt beam="2">  1        4 0.13722155E-01 0.12496697E+03</pdfrwt>
<pdfrwt beam="1">  1       -4 0.67341290E-02 0.12496697E+03</pdfrwt>
<totfact> 0.10288790E+04</totfact>
</mgrwt>
</event>
<event>
 5    1  0.3206158E-002  0.1249949E+03  0.7818608E-02  0.1235077E+00
         -4   -1    0    0    0  501 -0.00000000000E+00  0.00000000000E+00  0.32803935819E+01  0.35176529181E+01  0.12700000000E+01 0.  1.
          4   -1    0    0  501    0  0.00000000000E+00 -0.00000000000E+00 -0.11488953903E+04  0.11488960922E+04  0.12700000000E+01 0.  1.
         25    2    1    2    0    0  0.00000000000E+00  0.00000000000E+00 -0.11456149967E+04  0.11524137452E+04  0.12499487714E+03 0.  0.
    9000005    1    3    3    0    0  0.24217332539E+01 -0.12576627369E+02 -0.11367098252E+04  0.11367824167E+04  0.10000000000E+01 0.  0.
    9000005    1    3    3    0    0 -0.24217332539E+01  0.12576627369E+02 -0.89051715443E+01  0.15631328419E+02  0.10000000000E+01 0.  0.
<mgrwt>
<rscale>  0 0.12499488E+03</rscale>
<asrwt>0</asrwt>
<pdfrwt beam="2">  1        4 0.17677113E+00 0.12499488E+03</pdfrwt>
<pdfrwt beam="1">  1       -4 0.52298156E-03 0.12499488E+03</pdfrwt>
<totfact> 0.25996314E+03</totfact>
</mgrwt>
</event>
<event>
 5    1  0.3206158E-002  0.1250021E+03  0.7818608E-02  0.1235066E+00
         -4   -1    0    0    0  501 -0.00000000000E+00  0.00000000000E+00  0.41707748147E+02  0.41727079403E+02  0.12700000000E+01 0. -1.
          4   -1    0    0  501    0  0.00000000000E+00 -0.00000000000E+00 -0.93615431660E+02  0.93624045763E+02  0.12700000000E+01 0. -1.
         25    2    1    2    0    0  0.00000000000E+00  0.00000000000E+00 -0.51907683513E+02  0.13535112517E+03  0.12500207789E+03 0.  0.
    9000005    1    3    3    0    0 -0.11574481529E+02  0.76483085360E+01 -0.91932293414E+02  0.92978555692E+02  0.10000000000E+01 0.  0.
    9000005    1    3    3    0    0  0.11574481529E+02 -0.76483085360E+01  0.40024609901E+02  0.42372569474E+02  0.10000000000E+01 0.  0.
<mgrwt>
<rscale>  0 0.12500208E+03</rscale>
<asrwt>0</asrwt>
<pdfrwt beam="2">  1        4 0.14404524E-01 0.12500208E+03</pdfrwt>
<pdfrwt beam="1">  1       -4 0.64187263E-02 0.12500208E+03</pdfrwt>
<totfact> 0.10230196E+04</totfact>
</mgrwt>
</event>
<event>
 5    1  0.3206158E-002  0.1249958E+03  0.7818608E-02  0.1235076E+00
         -4   -1    0    0    0  501 -0.00000000000E+00  0.00000000000E+00  0.18189433468E+03  0.18189876824E+03  0.12700000000E+01 0.  1.
          4   -1    0    0  501    0  0.00000000000E+00 -0.00000000000E+00 -0.21450448728E+02  0.21488011789E+02  0.12700000000E+01 0.  1.
         25    2    1    2    0    0  0.00000000000E+00  0.00000000000E+00  0.16044388595E+03  0.20338678003E+03  0.12499576694E+03 0.  0.
    9000005    1    3    3    0    0 -0.44144810580E+02 -0.15198076690E+02  0.12636661878E+02  0.48378001815E+02  0.10000000000E+01 0.  0.
    9000005    1    3    3    0    0  0.44144810580E+02  0.15198076690E+02  0.14780722407E+03  0.15500877822E+03  0.10000000000E+01 0.  0.
<mgrwt>
<rscale>  0 0.12499577E+03</rscale>
<asrwt>0</asrwt>
<pdfrwt beam="2">  1        4 0.33032996E-02 0.12499577E+03</pdfrwt>
<pdfrwt beam="1">  1       -4 0.27986974E-01 0.12499577E+03</pdfrwt>
<totfact> 0.89575908E+03</totfact>
</mgrwt>
</event>
<event>
 5    1  0.3206158E-002  0.1250024E+03  0.7818608E-02  0.1235066E+00
         -4   -1    0    0    0  501 -0.00000000000E+00  0.00000000000E+00  0.56880617947E+02  0.56894794121E+02  0.12700000000E+01 0. -1.
          4   -1    0    0  501    0  0.00000000000E+00 -0.00000000000E+00 -0.68648518716E+02  0.68660265234E+02  0.12700000000E+01 0. -1.
         25    2    1    2    0    0  0.00000000000E+00  0.00000000000E+00 -0.11767900769E+02  0.12555505935E+03  0.12500235774E+03 0.  0.
    9000005    1    3    3    0    0  0.59113122491E+02  0.19857201583E+02 -0.17759209769E+01  0.62392496349E+02  0.10000000000E+01 0.  0.
    9000005    1    3    3    0    0 -0.59113122491E+02 -0.19857201583E+02 -0.99919797921E+01  0.63162563006E+02  0.10000000000E+01 0.  0.
<mgrwt>
<rscale>  0 0.12500236E+03</rscale>
<asrwt>0</asrwt>
<pdfrwt beam="2">  1        4 0.10563305E-01 0.12500236E+03</pdfrwt>
<pdfrwt beam="1">  1       -4 0.87528583E-02 0.12500236E+03</pdfrwt>
<totfact> 0.10440183E+04</totfact>
</mgrwt>
</event>
<event>
 5    1  0.3206158E-002  0.1250023E+03  0.7818608E-02  0.1235066E+00
          4   -1    0    0  501    0  0.00000000000E+00  0.00000000000E+00  0.24376537548E+02  0.24409598171E+02  0.12700000000E+01 0. -1.
         -4   -1    0    0    0  501 -0.00000000000E+00 -0.00000000000E+00 -0.16010814188E+03  0.16011317871E+03  0.12700000000E+01 0. -1.
         25    2    1    2    0    0  0.00000000000E+00  0.00000000000E+00 -0.13573160433E+03  0.18452277688E+03  0.12500234707E+03 0.  0.
    9000005    1    3    3    0    0 -0.50282444792E+02  0.17960436559E+02 -0.11580095419E+03  0.12752161592E+03  0.10000000000E+01 0.  0.
    9000005    1    3    3    0    0  0.50282444792E+02 -0.17960436559E+02 -0.19930650143E+02  0.57001160960E+02  0.10000000000E+01 0.  0.
<mgrwt>
<rscale>  0 0.12500235E+03</rscale>
<asrwt>0</asrwt>
<pdfrwt beam="1">  1        4 0.37531672E-02 0.12500235E+03</pdfrwt>
<pdfrwt beam="2">  1       -4 0.24634952E-01 0.12500235E+03</pdfrwt>
<totfact> 0.92804284E+03</totfact>
</mgrwt>
</event>
<event>
 5    1  0.3206158E-002  0.1250010E+03  0.7818608E-02  0.1235068E+00
          4   -1    0    0  501    0  0.00000000000E+00  0.00000000000E+00  0.52941224077E+01  0.54443210842E+01  0.12700000000E+01 0.  1.
         -4   -1    0    0    0  501 -0.00000000000E+00 -0.00000000000E+00 -0.72738672528E+03  0.72738783398E+03  0.12700000000E+01 0.  1.
         25    2    1    2    0    0  0.00000000000E+00  0.00000000000E+00 -0.72209260287E+03  0.73283215506E+03  0.12500096145E+03 0.  0.
    9000005    1    3    3    0    0  0.11087173697E+02  0.48653436644E+01 -0.16192564135E+01  0.12256385311E+02  0.10000000000E+01 0.  0.
    9000005    1    3    3    0    0 -0.11087173697E+02 -0.48653436644E+01 -0.72047334646E+03  0.72057576975E+03  0.10000000000E+01 0.  0.
<mgrwt>
<rscale>  0 0.12500096E+03</rscale>
<asrwt>0</asrwt>
<pdfrwt beam="1">  1        4 0.82611998E-03 0.12500096E+03</pdfrwt>
<pdfrwt beam="2">  1       -4 0.11191721E+00 0.12500096E+03</pdfrwt>
<totfact> 0.41408198E+03</totfact>
</mgrwt>
</event>
<event>
 5    1  0.3206158E-002  0.1250107E+03  0.7818608E-02  0.1235053E+00
         -4   -1    0    0    0  501 -0.00000000000E+00  0.00000000000E+00  0.48014451875E+01  0.49665658043E+01  0.12700000000E+01 0.  1.
          4   -1    0    0  501    0  0.00000000000E+00 -0.00000000000E+00 -0.79977540601E+03  0.79977641436E+03  0.12700000000E+01 0.  1.
         25    2    1    2    0    0  0.00000000000E+00  0.00000000000E+00 -0.79497396082E+03  0.80474298016E+03  0.12501066246E+03 0.  0.
    9000005    1    3    3    0    0  0.57963476235E+02  0.20923871435E+02 -0.33048132038E+03  0.33617923210E+03  0.10000000000E+01 0.  0.
    9000005    1    3    3    0    0 -0.57963476235E+02 -0.20923871435E+02 -0.46449264044E+03  0.46856374806E+03  0.10000000000E+01 0.  0.
<mgrwt>
<rscale>  0 0.12501066E+03</rscale>
<asrwt>0</asrwt>
<pdfrwt beam="2">  1        4 0.12305505E+00 0.12501066E+03</pdfrwt>
<pdfrwt beam="1">  1       -4 0.75146366E-03 0.12501066E+03</pdfrwt>
<totfact> 0.38045027E+03</totfact>
</mgrwt>
</event>
<event>
 5    1  0.3206158E-002  0.1250041E+03  0.7818608E-02  0.1235063E+00
         -4   -1    0    0    0  501 -0.00000000000E+00  0.00000000000E+00  0.10866479473E+02  0.10940442227E+02  0.12700000000E+01 0.  1.
          4   -1    0    0  501    0  0.00000000000E+00 -0.00000000000E+00 -0.35820621389E+03  0.35820846524E+03  0.12700000000E+01 0.  1.
         25    2    1    2    0    0  0.00000000000E+00  0.00000000000E+00 -0.34733973442E+03  0.36914890747E+03  0.12500409905E+03 0.  0.
    9000005    1    3    3    0    0 -0.12463156553E+02  0.55844327352E+02 -0.24788525024E+03  0.25440522097E+03  0.10000000000E+01 0.  0.
    9000005    1    3    3    0    0  0.12463156553E+02 -0.55844327352E+02 -0.99454484180E+02  0.11474368650E+03  0.10000000000E+01 0.  0.
<mgrwt>
<rscale>  0 0.12500410E+03</rscale>
<asrwt>0</asrwt>
<pdfrwt beam="2">  1        4 0.55114502E-01 0.12500410E+03</pdfrwt>
<pdfrwt beam="1">  1       -4 0.16776290E-02 0.12500410E+03</pdfrwt>
<totfact> 0.67661943E+03</totfact>
</mgrwt>
</event>
<event>
 5    1  0.3206158E-002  0.1249992E+03  0.7818608E-02  0.1235071E+00
         -4   -1    0    0    0  501 -0.00000000000E+00  0.00000000000E+00  0.12628868457E+04  0.12628874843E+04  0.12700000000E+01 0.  1.
          4   -1    0    0  501    0  0.00000000000E+00 -0.00000000000E+00 -0.29620424635E+01  0.32228241584E+01  0.12700000000E+01 0.  1.
         25    2    1    2    0    0  0.00000000000E+00  0.00000000000E+00  0.12599248032E+04  0.12661103084E+04  0.12499921326E+03 0.  0.
    9000005    1    3    3    0    0  0.56229435666E+02 -0.22567598626E+02  0.47496804811E+03  0.47881801624E+03  0.10000000000E+01 0.  0.
    9000005    1    3    3    0    0 -0.56229435666E+02  0.22567598626E+02  0.78495675514E+03  0.78729229221E+03  0.10000000000E+01 0.  0.
<mgrwt>
<rscale>  0 0.12499921E+03</rscale>
<asrwt>0</asrwt>
<pdfrwt beam="2">  1        4 0.47580745E-03 0.12499921E+03</pdfrwt>
<pdfrwt beam="1">  1       -4 0.19431065E+00 0.12499921E+03</pdfrwt>
<totfact> 0.23043126E+03</totfact>
</mgrwt>
</event>
<event>
 5    1  0.3206158E-002  0.1249948E+03  0.7818608E-02  0.1235077E+00
          4   -1    0    0  501    0  0.00000000000E+00  0.00000000000E+00  0.44350955023E+02  0.44369134671E+02  0.12700000000E+01 0.  1.
         -4   -1    0    0    0  501 -0.00000000000E+00 -0.00000000000E+00 -0.88027729437E+02  0.88036890278E+02  0.12700000000E+01 0.  1.
         25    2    1    2    0    0  0.00000000000E+00  0.00000000000E+00 -0.43676774414E+02  0.13240602495E+03  0.12499477917E+03 0.  0.
    9000005    1    3    3    0    0  0.25282684404E+01 -0.38267373725E+02  0.30423925141E+02  0.48963243909E+02  0.10000000000E+01 0.  0.
    9000005    1    3    3    0    0 -0.25282684404E+01  0.38267373725E+02 -0.74100699555E+02  0.83442781040E+02  0.10000000000E+01 0.  0.
<mgrwt>
<rscale>  0 0.12499478E+03</rscale>
<asrwt>0</asrwt>
<pdfrwt beam="1">  1        4 0.68253270E-02 0.12499478E+03</pdfrwt>
<pdfrwt beam="2">  1       -4 0.13544831E-01 0.12499478E+03</pdfrwt>
<totfact> 0.10294252E+04</totfact>
</mgrwt>
</event>
<event>
 5    1  0.3206158E-002  0.1249935E+03  0.7818608E-02  0.1235079E+00
         -4   -1    0    0    0  501 -0.00000000000E+00  0.00000000000E+00  0.13114995627E+02  0.13176342827E+02  0.12700000000E+01 0.  1.
          4   -1    0    0  501    0  0.00000000000E+00 -0.00000000000E+00 -0.29705758300E+03  0.29706029778E+03  0.12700000000E+01 0.  1.
         25    2    1    2    0    0  0.00000000000E+00  0.00000000000E+00 -0.28394258738E+03  0.31023664061E+03  0.12499352084E+03 0.  0.
    9000005    1    3    3    0    0  0.15259577240E+02  0.98159133697E+01 -0.29038785745E+03  0.29095586368E+03  0.10000000000E+01 0.  0.
    9000005    1    3    3    0    0 -0.15259577240E+02 -0.98159133697E+01  0.64452700754E+01  0.19280776934E+02  0.10000000000E+01 0.  0.
<mgrwt>
<rscale>  0 0.12499352E+03</rscale>
<asrwt>0</asrwt>
<pdfrwt beam="2">  1        4 0.45706089E-01 0.12499352E+03</pdfrwt>
<pdfrwt beam="1">  1       -4 0.20226197E-02 0.12499352E+03</pdfrwt>
<totfact> 0.74343144E+03</totfact>
</mgrwt>
</event>
<event>
 5    1  0.3206158E-002  0.1249985E+03  0.7818608E-02  0.1235072E+00
         -4   -1    0    0    0  501 -0.00000000000E+00  0.00000000000E+00  0.98315970705E+01  0.99132840651E+01  0.12700000000E+01 0.  1.
          4   -1    0    0  501    0  0.00000000000E+00 -0.00000000000E+00 -0.39558026322E+03  0.39558230187E+03  0.12700000000E+01 0.  1.
         25    2    1    2    0    0  0.00000000000E+00  0.00000000000E+00 -0.38574866615E+03  0.40549558593E+03  0.12499854708E+03 0.  0.
    9000005    1    3    3    0    0 -0.59854630628E+02  0.40291857766E+01 -0.24965346186E+03  0.25676187833E+03  0.10000000000E+01 0.  0.
    9000005    1    3    3    0    0  0.59854630628E+02 -0.40291857766E+01 -0.13609520429E+03  0.14873370760E+03  0.10000000000E+01 0.  0.
<mgrwt>
<rscale>  0 0.12499855E+03</rscale>
<asrwt>0</asrwt>
<pdfrwt beam="2">  1        4 0.60864930E-01 0.12499855E+03</pdfrwt>
<pdfrwt beam="1">  1       -4 0.15189941E-02 0.12499855E+03</pdfrwt>
<totfact> 0.64023841E+03</totfact>
</mgrwt>
</event>
<event>
 5    1  0.3206158E-002  0.1250156E+03  0.7818608E-02  0.1235045E+00
          4   -1    0    0  501    0  0.00000000000E+00  0.00000000000E+00  0.16360687489E+02  0.16409905396E+02  0.12700000000E+01 0. -1.
         -4   -1    0    0    0  501 -0.00000000000E+00 -0.00000000000E+00 -0.23840812475E+03  0.23841150737E+03  0.12700000000E+01 0. -1.
         25    2    1    2    0    0  0.00000000000E+00  0.00000000000E+00 -0.22204743726E+03  0.25482141277E+03  0.12501555107E+03 0.  0.
    9000005    1    3    3    0    0 -0.31804359315E+01 -0.62191499821E+02 -0.12187174049E+03  0.13686350483E+03  0.10000000000E+01 0.  0.
    9000005    1    3    3    0    0  0.31804359315E+01  0.62191499821E+02 -0.10017569677E+03  0.11795790794E+03  0.10000000000E+01 0.  0.
<mgrwt>
<rscale>  0 0.12501555E+03</rscale>
<asrwt>0</asrwt>
<pdfrwt beam="1">  1        4 0.25210752E-02 0.12501555E+03</pdfrwt>
<pdfrwt beam="2">  1       -4 0.36682217E-01 0.12501555E+03</pdfrwt>
<totfact> 0.81610076E+03</totfact>
</mgrwt>
</event>
<event>
 5    1  0.3206158E-002  0.1249993E+03  0.7818608E-02  0.1235070E+00
         -4   -1    0    0    0  501 -0.00000000000E+00  0.00000000000E+00  0.50747914030E+02  0.50763802836E+02  0.12700000000E+01 0. -1.
          4   -1    0    0  501    0  0.00000000000E+00 -0.00000000000E+00 -0.76939580233E+02  0.76950061121E+02  0.12700000000E+01 0. -1.
         25    2    1    2    0    0  0.00000000000E+00  0.00000000000E+00 -0.26191666203E+02  0.12771386396E+03  0.12499931067E+03 0.  0.
    9000005    1    3    3    0    0 -0.12745326437E+02  0.28278635242E+02  0.42332476537E+02  0.52489647806E+02  0.10000000000E+01 0.  0.
    9000005    1    3    3    0    0  0.12745326437E+02 -0.28278635242E+02 -0.68524142740E+02  0.75224216150E+02  0.10000000000E+01 0.  0.
<mgrwt>
<rscale>  0 0.12499931E+03</rscale>
<asrwt>0</asrwt>
<pdfrwt beam="2">  1        4 0.11838887E-01 0.12499931E+03</pdfrwt>
<pdfrwt beam="1">  1       -4 0.78093998E-02 0.12499931E+03</pdfrwt>
<totfact> 0.10393833E+04</totfact>
</mgrwt>
</event>
<event>
 5    1  0.3206158E-002  0.1250002E+03  0.7818608E-02  0.1235069E+00
          4   -1    0    0  501    0  0.00000000000E+00  0.00000000000E+00  0.24833896721E+01  0.27892874115E+01  0.12700000000E+01 0.  1.
         -4   -1    0    0    0  501 -0.00000000000E+00 -0.00000000000E+00 -0.14813937037E+04  0.14813942481E+04  0.12700000000E+01 0.  1.
         25    2    1    2    0    0  0.00000000000E+00  0.00000000000E+00 -0.14789103140E+04  0.14841835355E+04  0.12500020041E+03 0.  0.
    9000005    1    3    3    0    0  0.23672657167E+02  0.57555025891E+02 -0.80692187088E+03  0.80931877614E+03  0.10000000000E+01 0.  0.
    9000005    1    3    3    0    0 -0.23672657167E+02 -0.57555025891E+02 -0.67198844312E+03  0.67486475933E+03  0.10000000000E+01 0.  0.
<mgrwt>
<rscale>  0 0.12500020E+03</rscale>
<asrwt>0</asrwt>
<pdfrwt beam="1">  1        4 0.40563361E-03 0.12500020E+03</pdfrwt>
<pdfrwt beam="2">  1       -4 0.22792963E+00 0.12500020E+03</pdfrwt>
<totfact> 0.18243277E+03</totfact>
</mgrwt>
</event>
<event>
 5    1  0.3206158E-002  0.1249993E+03  0.7818608E-02  0.1235070E+00
         -4   -1    0    0    0  501 -0.00000000000E+00  0.00000000000E+00  0.21051800105E+02  0.21090073202E+02  0.12700000000E+01 0. -1.
          4   -1    0    0  501    0  0.00000000000E+00 -0.00000000000E+00 -0.18534321132E+03  0.18534756238E+03  0.12700000000E+01 0. -1.
         25    2    1    2    0    0  0.00000000000E+00  0.00000000000E+00 -0.16429141121E+03  0.20643763559E+03  0.12499931835E+03 0.  0.
    9000005    1    3    3    0    0  0.32877388723E+02  0.34094089639E+02 -0.14820022363E+02  0.49638318872E+02  0.10000000000E+01 0.  0.
    9000005    1    3    3    0    0 -0.32877388723E+02 -0.34094089639E+02 -0.14947138885E+03  0.15679931671E+03  0.10000000000E+01 0.  0.
<mgrwt>
<rscale>  0 0.12499932E+03</rscale>
<asrwt>0</asrwt>
<pdfrwt beam="2">  1        4 0.28517618E-01 0.12499932E+03</pdfrwt>
<pdfrwt beam="1">  1       -4 0.32420174E-02 0.12499932E+03</pdfrwt>
<totfact> 0.89062345E+03</totfact>
</mgrwt>
</event>
<event>
 5    1  0.3206158E-002  0.1250018E+03  0.7818608E-02  0.1235067E+00
          4   -1    0    0  501    0  0.00000000000E+00  0.00000000000E+00  0.25576491696E+02  0.25608003192E+02  0.12700000000E+01 0. -1.
         -4   -1    0    0    0  501 -0.00000000000E+00 -0.00000000000E+00 -0.15260424611E+03  0.15260953060E+03  0.12700000000E+01 0. -1.
         25    2    1    2    0    0  0.00000000000E+00  0.00000000000E+00 -0.12702775441E+03  0.17821753379E+03  0.12500175583E+03 0.  0.
    9000005    1    3    3    0    0  0.53997509931E+02 -0.18913119214E+02 -0.27674021363E+02  0.63563264670E+02  0.10000000000E+01 0.  0.
    9000005    1    3    3    0    0 -0.53997509931E+02  0.18913119214E+02 -0.99353733048E+02  0.11465426912E+03  0.10000000000E+01 0.  0.
<mgrwt>
<rscale>  0 0.12500176E+03</rscale>
<asrwt>0</asrwt>
<pdfrwt beam="1">  1        4 0.39376754E-02 0.12500176E+03</pdfrwt>
<pdfrwt beam="2">  1       -4 0.23480406E-01 0.12500176E+03</pdfrwt>
<totfact> 0.93935142E+03</totfact>
</mgrwt>
</event>
<event>
 5    1  0.3206158E-002  0.1250031E+03  0.7818608E-02  0.1235064E+00
          4   -1    0    0  501    0  0.00000000000E+00  0.00000000000E+00  0.60909443029E+02  0.60922681738E+02  0.12700000000E+01 0.  1.
         -4   -1    0    0    0  501 -0.00000000000E+00 -0.00000000000E+00 -0.64108780506E+02  0.64121358672E+02  0.12700000000E+01 0.  1.
         25    2    1    2    0    0  0.00000000000E+00  0.00000000000E+00 -0.31993374771E+01  0.12504404041E+03  0.12500310509E+03 0.  0.
    9000005    1    3    3    0    0 -0.30052074427E+02 -0.25135620638E+02 -0.50303572998E+02  0.63768142976E+02  0.10000000000E+01 0.  0.
    9000005    1    3    3    0    0  0.30052074427E+02  0.25135620638E+02  0.47104235521E+02  0.61275897433E+02  0.10000000000E+01 0.  0.
<mgrwt>
<rscale>  0 0.12500311E+03</rscale>
<asrwt>0</asrwt>
<pdfrwt beam="1">  1        4 0.93726695E-02 0.12500311E+03</pdfrwt>
<pdfrwt beam="2">  1       -4 0.98648752E-02 0.12500311E+03</pdfrwt>
<totfact> 0.10451173E+04</totfact>
</mgrwt>
</event>
<event>
 5    1  0.3206158E-002  0.1249983E+03  0.7818608E-02  0.1235072E+00
         -4   -1    0    0    0  501 -0.00000000000E+00  0.00000000000E+00  0.41342801527E+02  0.41362303346E+02  0.12700000000E+01 0. -1.
          4   -1    0    0  501    0  0.00000000000E+00 -0.00000000000E+00 -0.94435840779E+02  0.94444380053E+02  0.12700000000E+01 0. -1.
         25    2    1    2    0    0  0.00000000000E+00  0.00000000000E+00 -0.53093039252E+02  0.13580668340E+03  0.12499833774E+03 0.  0.
    9000005    1    3    3    0    0 -0.44378776420E+02 -0.42099547584E+02 -0.40430304595E+02  0.73331147768E+02  0.10000000000E+01 0.  0.
    9000005    1    3    3    0    0  0.44378776420E+02  0.42099547584E+02 -0.12662734657E+02  0.62475535631E+02  0.10000000000E+01 0.  0.
<mgrwt>
<rscale>  0 0.12499834E+03</rscale>
<asrwt>0</asrwt>
<pdfrwt beam="2">  1        4 0.14530748E-01 0.12499834E+03</pdfrwt>
<pdfrwt beam="1">  1       -4 0.63625880E-02 0.12499834E+03</pdfrwt>
<totfact> 0.10221479E+04</totfact>
</mgrwt>
</event>
<event>
 5    1  0.3206158E-002  0.1250005E+03  0.7818608E-02  0.1235069E+00
          4   -1    0    0  501    0  0.00000000000E+00  0.00000000000E+00  0.12063065037E+02  0.12129733636E+02  0.12700000000E+01 0. -1.
         -4   -1    0    0    0  501 -0.00000000000E+00 -0.00000000000E+00 -0.32286128375E+03  0.32286378156E+03  0.12700000000E+01 0. -1.
         25    2    1    2    0    0  0.00000000000E+00  0.00000000000E+00 -0.31079821871E+03  0.33499351519E+03  0.12500048988E+03 0.  0.
    9000005    1    3    3    0    0  0.18387684791E+02  0.59203320337E+02 -0.17652485999E+03  0.18709667631E+03  0.10000000000E+01 0.  0.
    9000005    1    3    3    0    0 -0.18387684791E+02 -0.59203320337E+02 -0.13427335872E+03  0.14789683889E+03  0.10000000000E+01 0.  0.
<mgrwt>
<rscale>  0 0.12500049E+03</rscale>
<asrwt>0</asrwt>
<pdfrwt beam="1">  1        4 0.18611769E-02 0.12500049E+03</pdfrwt>
<pdfrwt beam="2">  1       -4 0.49676281E-01 0.12500049E+03</pdfrwt>
<totfact> 0.71406857E+03</totfact>
</mgrwt>
</event>
<event>
 5    1  0.3206158E-002  0.1249997E+03  0.7818608E-02  0.1235070E+00
          4   -1    0    0  501    0  0.00000000000E+00  0.00000000000E+00  0.13324349434E+02  0.13384737123E+02  0.12700000000E+01 0. -1.
         -4   -1    0    0    0  501 -0.00000000000E+00 -0.00000000000E+00 -0.29244047164E+03  0.29244322929E+03  0.12700000000E+01 0. -1.
         25    2    1    2    0    0  0.00000000000E+00  0.00000000000E+00 -0.27911612221E+03  0.30582796641E+03  0.12499974144E+03 0.  0.
    9000005    1    3    3    0    0 -0.49186718230E+02 -0.25755523914E+02 -0.69388270573E+02  0.88873012526E+02  0.10000000000E+01 0.  0.
    9000005    1    3    3    0    0  0.49186718230E+02  0.25755523914E+02 -0.20972785164E+03  0.21695495388E+03  0.10000000000E+01 0.  0.
<mgrwt>
<rscale>  0 0.12499974E+03</rscale>
<asrwt>0</asrwt>
<pdfrwt beam="1">  1        4 0.20547575E-02 0.12499974E+03</pdfrwt>
<pdfrwt beam="2">  1       -4 0.44995694E-01 0.12499974E+03</pdfrwt>
<totfact> 0.74873989E+03</totfact>
</mgrwt>
</event>
<event>
 5    1  0.3206158E-002  0.1249996E+03  0.7818608E-02  0.1235070E+00
         -4   -1    0    0    0  501 -0.00000000000E+00  0.00000000000E+00  0.54169178544E+03  0.54169327420E+03  0.12700000000E+01 0. -1.
          4   -1    0    0  501    0  0.00000000000E+00 -0.00000000000E+00 -0.71537326361E+01  0.72655894894E+01  0.12700000000E+01 0. -1.
         25    2    1    2    0    0  0.00000000000E+00  0.00000000000E+00  0.53453805280E+03  0.54895886369E+03  0.12499961651E+03 0.  0.
    9000005    1    3    3    0    0 -0.13593290754E+02  0.58873627605E+02  0.33730840022E+03  0.34267891449E+03  0.10000000000E+01 0.  0.
    9000005    1    3    3    0    0  0.13593290754E+02 -0.58873627605E+02  0.19722965259E+03  0.20627994920E+03  0.10000000000E+01 0.  0.
<mgrwt>
<rscale>  0 0.12499962E+03</rscale>
<asrwt>0</asrwt>
<pdfrwt beam="2">  1        4 0.11092934E-02 0.12499962E+03</pdfrwt>
<pdfrwt beam="1">  1       -4 0.83345899E-01 0.12499962E+03</pdfrwt>
<totfact> 0.52257021E+03</totfact>
</mgrwt>
</event>
<event>
 5    1  0.3206158E-002  0.1250171E+03  0.7818608E-02  0.1235043E+00
         -4   -1    0    0    0  501 -0.00000000000E+00  0.00000000000E+00  0.25828209430E+01  0.28781702562E+01  0.12700000000E+01 0. -1.
          4   -1    0    0  501    0  0.00000000000E+00 -0.00000000000E+00 -0.14306972206E+04  0.14306977843E+04  0.12700000000E+01 0. -1.
         25    2    1    2    0    0  0.00000000000E+00  0.00000000000E+00 -0.14281143997E+04  0.14335759546E+04  0.12501711445E+03 0.  0.
    9000005    1    3    3    0    0 -0.38409376744E+02  0.39073885166E+02 -0.10588836248E+04  0.10603007024E+04  0.10000000000E+01 0.  0.
    9000005    1    3    3    0    0  0.38409376744E+02 -0.39073885166E+02 -0.36923077489E+03  0.37327525212E+03  0.10000000000E+01 0.  0.
<mgrwt>
<rscale>  0 0.12501711E+03</rscale>
<asrwt>0</asrwt>
<pdfrwt beam="2">  1        4 0.22012943E+00 0.12501711E+03</pdfrwt>
<pdfrwt beam="1">  1       -4 0.42012075E-03 0.12501711E+03</pdfrwt>
<totfact> 0.19264552E+03</totfact>
</mgrwt>
</event>
<event>
 5    1  0.3206158E-002  0.1250346E+03  0.7818608E-02  0.1235015E+00
         -4   -1    0    0    0  501 -0.00000000000E+00  0.00000000000E+00  0.71265577437E+02  0.71276892661E+02  0.12700000000E+01 0. -1.
          4   -1    0    0  501    0  0.00000000000E+00 -0.00000000000E+00 -0.54819921710E+02  0.54834630630E+02  0.12700000000E+01 0. -1.
         25    2    1    2    0    0  0.00000000000E+00  0.00000000000E+00  0.16445655727E+02  0.12611152329E+03  0.12503462206E+03 0.  0.
    9000005    1    3    3    0    0  0.22806095010E+02 -0.52714431775E+02  0.33102771120E+02  0.66300246928E+02  0.10000000000E+01 0.  0.
    9000005    1    3    3    0    0 -0.22806095010E+02  0.52714431775E+02 -0.16657115393E+02  0.59811276363E+02  0.10000000000E+01 0.  0.
<mgrwt>
<rscale>  0 0.12503462E+03</rscale>
<asrwt>0</asrwt>
<pdfrwt beam="2">  1        4 0.84358360E-02 0.12503462E+03</pdfrwt>
<pdfrwt beam="1">  1       -4 0.10965937E-01 0.12503462E+03</pdfrwt>
<totfact> 0.10420370E+04</totfact>
</mgrwt>
</event>
<event>
 5    1  0.3206158E-002  0.1249906E+03  0.7818608E-02  0.1235084E+00
         -4   -1    0    0    0  501 -0.00000000000E+00  0.00000000000E+00  0.38962203896E+02  0.38982896666E+02  0.12700000000E+01 0.  1.
          4   -1    0    0  501    0  0.00000000000E+00 -0.00000000000E+00 -0.10019094073E+03  0.10019898954E+03  0.12700000000E+01 0.  1.
         25    2    1    2    0    0  0.00000000000E+00  0.00000000000E+00 -0.61228736833E+02  0.13918188620E+03  0.12499055657E+03 0.  0.
    9000005    1    3    3    0    0 -0.16262740062E+02  0.36444165228E+02 -0.84157033730E+02  0.93145371434E+02  0.10000000000E+01 0.  0.
    9000005    1    3    3    0    0  0.16262740062E+02 -0.36444165228E+02  0.22928296897E+02  0.46036514769E+02  0.10000000000E+01 0.  0.
<mgrwt>
<rscale>  0 0.12499056E+03</rscale>
<asrwt>0</asrwt>
<pdfrwt beam="2">  1        4 0.15416202E-01 0.12499056E+03</pdfrwt>
<pdfrwt beam="1">  1       -4 0.59963961E-02 0.12499056E+03</pdfrwt>
<totfact> 0.10152730E+04</totfact>
</mgrwt>
</event>
<event>
 5    1  0.3206158E-002  0.1250088E+03  0.7818608E-02  0.1235055E+00
          4   -1    0    0  501    0  0.00000000000E+00  0.00000000000E+00  0.32725613483E+02  0.32750246989E+02  0.12700000000E+01 0. -1.
         -4   -1    0    0    0  501 -0.00000000000E+00 -0.00000000000E+00 -0.11930760688E+03  0.11931436611E+03  0.12700000000E+01 0. -1.
         25    2    1    2    0    0  0.00000000000E+00  0.00000000000E+00 -0.86581993401E+02  0.15206461310E+03  0.12500881959E+03 0.  0.
    9000005    1    3    3    0    0 -0.19824186903E+01  0.58330041402E+02 -0.70477007479E+02  0.91511377964E+02  0.10000000000E+01 0.  0.
    9000005    1    3    3    0    0  0.19824186903E+01 -0.58330041402E+02 -0.16104985923E+02  0.60553235135E+02  0.10000000000E+01 0.  0.
<mgrwt>
<rscale>  0 0.12500882E+03</rscale>
<asrwt>0</asrwt>
<pdfrwt beam="1">  1        4 0.50371246E-02 0.12500882E+03</pdfrwt>
<pdfrwt beam="2">  1       -4 0.18357431E-01 0.12500882E+03</pdfrwt>
<totfact> 0.98874107E+03</totfact>
</mgrwt>
</event>
<event>
 5    1  0.3206158E-002  0.1249950E+03  0.7818608E-02  0.1235077E+00
          4   -1    0    0  501    0  0.00000000000E+00  0.00000000000E+00  0.48472201889E+02  0.48488836405E+02  0.12700000000E+01 0.  1.
         -4   -1    0    0    0  501 -0.00000000000E+00 -0.00000000000E+00 -0.80545574762E+02  0.80555586484E+02  0.12700000000E+01 0.  1.
         25    2    1    2    0    0  0.00000000000E+00  0.00000000000E+00 -0.32073372873E+02  0.12904442289E+03  0.12499504723E+03 0.  0.
    9000005    1    3    3    0    0 -0.13577248702E+02 -0.73123249198E+00 -0.79004939513E+02  0.80172668976E+02  0.10000000000E+01 0.  0.
    9000005    1    3    3    0    0  0.13577248702E+02  0.73123249198E+00  0.46931566640E+02  0.48871753913E+02  0.10000000000E+01 0.  0.
<mgrwt>
<rscale>  0 0.12499505E+03</rscale>
<asrwt>0</asrwt>
<pdfrwt beam="1">  1        4 0.74593116E-02 0.12499505E+03</pdfrwt>
<pdfrwt beam="2">  1       -4 0.12393677E-01 0.12499505E+03</pdfrwt>
<totfact> 0.10366151E+04</totfact>
</mgrwt>
</event>
<event>
 5    1  0.3206158E-002  0.1250012E+03  0.7818608E-02  0.1235067E+00
         -4   -1    0    0    0  501 -0.00000000000E+00  0.00000000000E+00  0.24195569235E+03  0.24195902538E+03  0.12700000000E+01 0.  1.
          4   -1    0    0  501    0  0.00000000000E+00 -0.00000000000E+00 -0.16116359105E+02  0.16166320880E+02  0.12700000000E+01 0.  1.
         25    2    1    2    0    0  0.00000000000E+00  0.00000000000E+00  0.22583933325E+03  0.25812534626E+03  0.12500115975E+03 0.  0.
    9000005    1    3    3    0    0  0.46190509874E+02 -0.40780741801E+02  0.13444808694E+03  0.14789834410E+03  0.10000000000E+01 0.  0.
    9000005    1    3    3    0    0 -0.46190509874E+02  0.40780741801E+02  0.91391246308E+02  0.11022700216E+03  0.10000000000E+01 0.  0.
<mgrwt>
<rscale>  0 0.12500116E+03</rscale>
<asrwt>0</asrwt>
<pdfrwt beam="2">  1        4 0.24835397E-02 0.12500116E+03</pdfrwt>
<pdfrwt beam="1">  1       -4 0.37228049E-01 0.12500116E+03</pdfrwt>
<totfact> 0.81167769E+03</totfact>
</mgrwt>
</event>
<event>
 5    1  0.3206158E-002  0.1249979E+03  0.7818608E-02  0.1235073E+00
          4   -1    0    0  501    0  0.00000000000E+00  0.00000000000E+00  0.16221808714E+03  0.16222305846E+03  0.12700000000E+01 0.  1.
         -4   -1    0    0    0  501 -0.00000000000E+00 -0.00000000000E+00 -0.24057327759E+02  0.24090826447E+02  0.12700000000E+01 0.  1.
         25    2    1    2    0    0  0.00000000000E+00  0.00000000000E+00  0.13816075938E+03  0.18631388491E+03  0.12499787309E+03 0.  0.
    9000005    1    3    3    0    0 -0.56950622925E+02 -0.13776470281E+02  0.36699269356E+02  0.69144782566E+02  0.10000000000E+01 0.  0.
    9000005    1    3    3    0    0  0.56950622925E+02  0.13776470281E+02  0.10146149003E+03  0.11716910234E+03  0.10000000000E+01 0.  0.
<mgrwt>
<rscale>  0 0.12499787E+03</rscale>
<asrwt>0</asrwt>
<pdfrwt beam="1">  1        4 0.24959586E-01 0.12499787E+03</pdfrwt>
<pdfrwt beam="2">  1       -4 0.37040868E-02 0.12499787E+03</pdfrwt>
<totfact> 0.92497081E+03</totfact>
</mgrwt>
</event>
<event>
 5    1  0.3206158E-002  0.1250026E+03  0.7818608E-02  0.1235065E+00
          4   -1    0    0  501    0  0.00000000000E+00  0.00000000000E+00  0.24612860061E+02  0.24645603673E+02  0.12700000000E+01 0.  1.
         -4   -1    0    0    0  501 -0.00000000000E+00 -0.00000000000E+00 -0.15857360147E+03  0.15857868704E+03  0.12700000000E+01 0.  1.
         25    2    1    2    0    0  0.00000000000E+00  0.00000000000E+00 -0.13396074141E+03  0.18322429071E+03  0.12500264184E+03 0.  0.
    9000005    1    3    3    0    0 -0.26292827602E+02  0.16861040124E+02 -0.14631876607E+03  0.14961881153E+03  0.10000000000E+01 0.  0.
    9000005    1    3    3    0    0  0.26292827602E+02 -0.16861040124E+02  0.12358024668E+02  0.33605479182E+02  0.10000000000E+01 0.  0.
<mgrwt>
<rscale>  0 0.12500264E+03</rscale>
<asrwt>0</asrwt>
<pdfrwt beam="1">  1        4 0.37895039E-02 0.12500264E+03</pdfrwt>
<pdfrwt beam="2">  1       -4 0.24398848E-01 0.12500264E+03</pdfrwt>
<totfact> 0.93034310E+03</totfact>
</mgrwt>
</event>
<event>
 4    1  0.3206158E-002  0.1248930E+03  0.7818608E-02  0.1235237E+00
          4   -1    0    0  501    0  0.00000000000E+00  0.00000000000E+00  0.71784998398E+02  0.71796231760E+02  0.12700000000E+01 0.  1.
         -4   -1    0    0    0  501 -0.00000000000E+00 -0.00000000000E+00 -0.54299927841E+02  0.54314777579E+02  0.12700000000E+01 0.  1.
    9000005    1    1    2    0    0  0.54744690989E+02  0.28205562522E+02  0.19140034682E+02  0.64497099751E+02  0.10000000000E+01 0.  0.
    9000005    1    1    2    0    0 -0.54744690989E+02 -0.28205562522E+02 -0.16549641246E+01  0.61613909589E+02  0.10000000000E+01 0.  0.
<mgrwt>
<rscale>  0 0.12489299E+03</rscale>
<asrwt>0</asrwt>
<pdfrwt beam="1">  1        4 0.11045852E-01 0.12489299E+03</pdfrwt>
<pdfrwt beam="2">  1       -4 0.83558415E-02 0.12489299E+03</pdfrwt>
<totfact> 0.10453751E+04</totfact>
</mgrwt>
</event>
<event>
 5    1  0.3206158E-002  0.1250024E+03  0.7818608E-02  0.1235066E+00
          4   -1    0    0  501    0  0.00000000000E+00  0.00000000000E+00  0.55289709225E+03  0.55289855084E+03  0.12700000000E+01 0. -1.
         -4   -1    0    0    0  501 -0.00000000000E+00 -0.00000000000E+00 -0.70067771797E+01  0.71209428060E+01  0.12700000000E+01 0. -1.
         25    2    1    2    0    0  0.00000000000E+00  0.00000000000E+00  0.54589031507E+03  0.56001949364E+03  0.12500238867E+03 0.  0.
    9000005    1    3    3    0    0 -0.44765501567E+02 -0.17121556530E+02  0.45261225893E+03  0.45514388358E+03  0.10000000000E+01 0.  0.
    9000005    1    3    3    0    0  0.44765501567E+02  0.17121556530E+02  0.93278056143E+02  0.10487561006E+03  0.10000000000E+01 0.  0.
<mgrwt>
<rscale>  0 0.12500239E+03</rscale>
<asrwt>0</asrwt>
<pdfrwt beam="1">  1        4 0.85070026E-01 0.12500239E+03</pdfrwt>
<pdfrwt beam="2">  1       -4 0.10868594E-02 0.12500239E+03</pdfrwt>
<totfact> 0.51489909E+03</totfact>
</mgrwt>
</event>
<event>
 5    1  0.3206158E-002  0.1250039E+03  0.7818608E-02  0.1235063E+00
         -4   -1    0    0    0  501 -0.00000000000E+00  0.00000000000E+00  0.20505940551E+03  0.20506333824E+03  0.12700000000E+01 0.  1.
          4   -1    0    0  501    0  0.00000000000E+00 -0.00000000000E+00 -0.19025267553E+02  0.19067608803E+02  0.12700000000E+01 0.  1.
         25    2    1    2    0    0  0.00000000000E+00  0.00000000000E+00  0.18603413796E+03  0.22413094704E+03  0.12500392368E+03 0.  0.
    9000005    1    3    3    0    0  0.49673314797E+02 -0.24417297880E+02  0.14504016669E+03  0.15524591007E+03  0.10000000000E+01 0.  0.
    9000005    1    3    3    0    0 -0.49673314797E+02  0.24417297880E+02  0.40993971268E+02  0.68885036975E+02  0.10000000000E+01 0.  0.
<mgrwt>
<rscale>  0 0.12500392E+03</rscale>
<asrwt>0</asrwt>
<pdfrwt beam="2">  1        4 0.29305240E-02 0.12500392E+03</pdfrwt>
<pdfrwt beam="1">  1       -4 0.31551158E-01 0.12500392E+03</pdfrwt>
<totfact> 0.86211321E+03</totfact>
</mgrwt>
</event>
<event>
 5    1  0.3206158E-002  0.1250014E+03  0.7818608E-02  0.1235067E+00
          4   -1    0    0  501    0  0.00000000000E+00  0.00000000000E+00  0.35229616380E+01  0.37448843377E+01  0.12700000000E+01 0. -1.
         -4   -1    0    0    0  501 -0.00000000000E+00 -0.00000000000E+00 -0.10747417318E+04  0.10747424821E+04  0.12700000000E+01 0. -1.
         25    2    1    2    0    0  0.00000000000E+00  0.00000000000E+00 -0.10712187701E+04  0.10784873665E+04  0.12500138463E+03 0.  0.
    9000005    1    3    3    0    0  0.20961776616E+01  0.55102664072E+02 -0.78930773738E+03  0.79123220475E+03  0.10000000000E+01 0.  0.
    9000005    1    3    3    0    0 -0.20961776616E+01 -0.55102664072E+02 -0.28191103275E+03  0.28725516172E+03  0.10000000000E+01 0.  0.
<mgrwt>
<rscale>  0 0.12500138E+03</rscale>
<asrwt>0</asrwt>
<pdfrwt beam="1">  1        4 0.55912365E-03 0.12500138E+03</pdfrwt>
<pdfrwt beam="2">  1       -4 0.16536176E+00 0.12500138E+03</pdfrwt>
<totfact> 0.28120888E+03</totfact>
</mgrwt>
</event>
<event>
 5    1  0.3206158E-002  0.1250003E+03  0.7818608E-02  0.1235069E+00
          4   -1    0    0  501    0  0.00000000000E+00  0.00000000000E+00  0.11001749053E+04  0.11001756383E+04  0.12700000000E+01 0.  1.
         -4   -1    0    0    0  501 -0.00000000000E+00 -0.00000000000E+00 -0.34362667127E+01  0.36634449526E+01  0.12700000000E+01 0.  1.
         25    2    1    2    0    0  0.00000000000E+00  0.00000000000E+00  0.10967386386E+04  0.11038390833E+04  0.12500032155E+03 0.  0.
    9000005    1    3    3    0    0  0.42512952597E+02  0.19288167815E+02  0.18150909107E+03  0.18741914175E+03  0.10000000000E+01 0.  0.
    9000005    1    3    3    0    0 -0.42512952597E+02 -0.19288167815E+02  0.91522954752E+03  0.91641994152E+03  0.10000000000E+01 0.  0.
<mgrwt>
<rscale>  0 0.12500032E+03</rscale>
<asrwt>0</asrwt>
<pdfrwt beam="1">  1        4 0.16927520E+00 0.12500032E+03</pdfrwt>
<pdfrwt beam="2">  1       -4 0.54618810E-03 0.12500032E+03</pdfrwt>
<totfact> 0.27371113E+03</totfact>
</mgrwt>
</event>
<event>
 5    1  0.3206158E-002  0.1250014E+03  0.7818608E-02  0.1235067E+00
         -4   -1    0    0    0  501 -0.00000000000E+00  0.00000000000E+00  0.76384807875E+02  0.76395364874E+02  0.12700000000E+01 0. -1.
          4   -1    0    0  501    0  0.00000000000E+00 -0.00000000000E+00 -0.51118275799E+02  0.51134049523E+02  0.12700000000E+01 0. -1.
         25    2    1    2    0    0  0.00000000000E+00  0.00000000000E+00  0.25266532077E+02  0.12752941440E+03  0.12500141556E+03 0.  0.
    9000005    1    3    3    0    0 -0.32614663820E+02 -0.45049435415E+02  0.41708221090E+02  0.69525129513E+02  0.10000000000E+01 0.  0.
    9000005    1    3    3    0    0  0.32614663820E+02  0.45049435415E+02 -0.16441689013E+02  0.58004284884E+02  0.10000000000E+01 0.  0.
<mgrwt>
<rscale>  0 0.12500142E+03</rscale>
<asrwt>0</asrwt>
<pdfrwt beam="2">  1        4 0.78663756E-02 0.12500142E+03</pdfrwt>
<pdfrwt beam="1">  1       -4 0.11753534E-01 0.12500142E+03</pdfrwt>
<totfact> 0.10397331E+04</totfact>
</mgrwt>
</event>
<event>
 5    1  0.3206158E-002  0.1249864E+03  0.7818608E-02  0.1235091E+00
          4   -1    0    0  501    0  0.00000000000E+00  0.00000000000E+00  0.47969770434E+02  0.47986579118E+02  0.12700000000E+01 0. -1.
         -4   -1    0    0    0  501 -0.00000000000E+00 -0.00000000000E+00 -0.81377767272E+02  0.81387676623E+02  0.12700000000E+01 0. -1.
         25    2    1    2    0    0  0.00000000000E+00  0.00000000000E+00 -0.33407996838E+02  0.12937425574E+03  0.12498641445E+03 0.  0.
    9000005    1    3    3    0    0 -0.51477859890E+02 -0.30432383979E+02  0.20511751920E+01  0.59844025376E+02  0.10000000000E+01 0.  0.
    9000005    1    3    3    0    0  0.51477859890E+02  0.30432383979E+02 -0.35459172030E+02  0.69530230365E+02  0.10000000000E+01 0.  0.
<mgrwt>
<rscale>  0 0.12498641E+03</rscale>
<asrwt>0</asrwt>
<pdfrwt beam="1">  1        4 0.73820199E-02 0.12498641E+03</pdfrwt>
<pdfrwt beam="2">  1       -4 0.12521712E-01 0.12498641E+03</pdfrwt>
<totfact> 0.10361089E+04</totfact>
</mgrwt>
</event>
<event>
 5    1  0.3206158E-002  0.1250069E+03  0.7818608E-02  0.1235058E+00
         -4   -1    0    0    0  501 -0.00000000000E+00  0.00000000000E+00  0.83859201390E+02  0.83868817553E+02  0.12700000000E+01 0.  1.
          4   -1    0    0  501    0  0.00000000000E+00 -0.00000000000E+00 -0.46565269625E+02  0.46582585107E+02  0.12700000000E+01 0.  1.
         25    2    1    2    0    0  0.00000000000E+00  0.00000000000E+00  0.37293931765E+02  0.13045140266E+03  0.12500692425E+03 0.  0.
    9000005    1    3    3    0    0 -0.31094563998E+02  0.34138044362E+02 -0.25298960375E+02  0.52662276623E+02  0.10000000000E+01 0.  0.
    9000005    1    3    3    0    0  0.31094563998E+02 -0.34138044362E+02  0.62592892140E+02  0.77789126037E+02  0.10000000000E+01 0.  0.
<mgrwt>
<rscale>  0 0.12500692E+03</rscale>
<asrwt>0</asrwt>
<pdfrwt beam="2">  1        4 0.71659594E-02 0.12500692E+03</pdfrwt>
<pdfrwt beam="1">  1       -4 0.12903487E-01 0.12500692E+03</pdfrwt>
<totfact> 0.10333245E+04</totfact>
</mgrwt>
</event>
<event>
 5    1  0.3206158E-002  0.1250044E+03  0.7818608E-02  0.1235062E+00
          4   -1    0    0  501    0  0.00000000000E+00  0.00000000000E+00  0.71372708497E+01  0.72493817104E+01  0.12700000000E+01 0.  1.
         -4   -1    0    0    0  501 -0.00000000000E+00 -0.00000000000E+00 -0.54296305901E+03  0.54296454428E+03  0.12700000000E+01 0.  1.
         25    2    1    2    0    0  0.00000000000E+00  0.00000000000E+00 -0.53582578816E+03  0.55021392599E+03  0.12500435633E+03 0.  0.
    9000005    1    3    3    0    0  0.56206479928E+02  0.10661632026E+02 -0.37862616492E+03  0.38292507302E+03  0.10000000000E+01 0.  0.
    9000005    1    3    3    0    0 -0.56206479928E+02 -0.10661632026E+02 -0.15719962324E+03  0.16728885298E+03  0.10000000000E+01 0.  0.
<mgrwt>
<rscale>  0 0.12500436E+03</rscale>
<asrwt>0</asrwt>
<pdfrwt beam="1">  1        4 0.11067803E-02 0.12500436E+03</pdfrwt>
<pdfrwt beam="2">  1       -4 0.83541484E-01 0.12500436E+03</pdfrwt>
<totfact> 0.52164046E+03</totfact>
</mgrwt>
</event>
<event>
 5    1  0.3206158E-002  0.1250020E+03  0.7818608E-02  0.1235066E+00
         -4   -1    0    0    0  501 -0.00000000000E+00  0.00000000000E+00  0.61618926557E+02  0.61632012867E+02  0.12700000000E+01 0. -1.
          4   -1    0    0  501    0  0.00000000000E+00 -0.00000000000E+00 -0.63369552784E+02  0.63382277650E+02  0.12700000000E+01 0. -1.
         25    2    1    2    0    0  0.00000000000E+00  0.00000000000E+00 -0.17506262277E+01  0.12501429052E+03  0.12500203255E+03 0.  0.
    9000005    1    3    3    0    0 -0.25681773811E+02  0.56938246722E+02 -0.28400895458E+01  0.62534658826E+02  0.10000000000E+01 0.  0.
    9000005    1    3    3    0    0  0.25681773811E+02 -0.56938246722E+02  0.10894633181E+01  0.62479631691E+02  0.10000000000E+01 0.  0.
<mgrwt>
<rscale>  0 0.12500203E+03</rscale>
<asrwt>0</asrwt>
<pdfrwt beam="2">  1        4 0.97511474E-02 0.12500203E+03</pdfrwt>
<pdfrwt beam="1">  1       -4 0.94818203E-02 0.12500203E+03</pdfrwt>
<totfact> 0.10452072E+04</totfact>
</mgrwt>
</event>
<event>
 5    1  0.3206158E-002  0.1249782E+03  0.7818608E-02  0.1235103E+00
         -4   -1    0    0    0  501 -0.00000000000E+00  0.00000000000E+00  0.24396628261E+02  0.24429661694E+02  0.12700000000E+01 0.  1.
          4   -1    0    0  501    0  0.00000000000E+00 -0.00000000000E+00 -0.15991472533E+03  0.15991976825E+03  0.12700000000E+01 0.  1.
         25    2    1    2    0    0  0.00000000000E+00  0.00000000000E+00 -0.13551809707E+03  0.18434942994E+03  0.12497822886E+03 0.  0.
    9000005    1    3    3    0    0  0.43145369817E+02  0.34445985806E+02 -0.24606757080E+02  0.60452802820E+02  0.10000000000E+01 0.  0.
    9000005    1    3    3    0    0 -0.43145369817E+02 -0.34445985806E+02 -0.11091133999E+03  0.12389662712E+03  0.10000000000E+01 0.  0.
<mgrwt>
<rscale>  0 0.12497823E+03</rscale>
<asrwt>0</asrwt>
<pdfrwt beam="2">  1        4 0.24605194E-01 0.12497823E+03</pdfrwt>
<pdfrwt beam="1">  1       -4 0.37562565E-02 0.12497823E+03</pdfrwt>
<totfact> 0.92885214E+03</totfact>
</mgrwt>
</event>
<event>
 5    1  0.3206158E-002  0.1249960E+03  0.7818608E-02  0.1235075E+00
          4   -1    0    0  501    0  0.00000000000E+00  0.00000000000E+00  0.97172108794E+01  0.97998513905E+01  0.12700000000E+01 0. -1.
         -4   -1    0    0    0  501 -0.00000000000E+00 -0.00000000000E+00 -0.40018170142E+03  0.40018371662E+03  0.12700000000E+01 0. -1.
         25    2    1    2    0    0  0.00000000000E+00  0.00000000000E+00 -0.39046449054E+03  0.40998356801E+03  0.12499603061E+03 0.  0.
    9000005    1    3    3    0    0  0.40564472864E+02  0.47479839497E+02 -0.20270475439E+03  0.21210853135E+03  0.10000000000E+01 0.  0.
    9000005    1    3    3    0    0 -0.40564472864E+02 -0.47479839497E+02 -0.18775973615E+03  0.19787503667E+03  0.10000000000E+01 0.  0.
<mgrwt>
<rscale>  0 0.12499603E+03</rscale>
<asrwt>0</asrwt>
<pdfrwt beam="1">  1        4 0.15014678E-02 0.12499603E+03</pdfrwt>
<pdfrwt beam="2">  1       -4 0.61572915E-01 0.12499603E+03</pdfrwt>
<totfact> 0.63598821E+03</totfact>
</mgrwt>
</event>
<event>
 5    1  0.3206158E-002  0.1249995E+03  0.7818608E-02  0.1235070E+00
          4   -1    0    0  501    0  0.00000000000E+00  0.00000000000E+00  0.40635499036E+02  0.40655340140E+02  0.12700000000E+01 0. -1.
         -4   -1    0    0    0  501 -0.00000000000E+00 -0.00000000000E+00 -0.96080800189E+02  0.96089193279E+02  0.12700000000E+01 0. -1.
         25    2    1    2    0    0  0.00000000000E+00  0.00000000000E+00 -0.55445301153E+02  0.13674453342E+03  0.12499954400E+03 0.  0.
    9000005    1    3    3    0    0 -0.57461400808E+02  0.22049392152E+02 -0.39567427814E+02  0.73174924809E+02  0.10000000000E+01 0.  0.
    9000005    1    3    3    0    0  0.57461400808E+02 -0.22049392152E+02 -0.15877873339E+02  0.63569608610E+02  0.10000000000E+01 0.  0.
<mgrwt>
<rscale>  0 0.12499954E+03</rscale>
<asrwt>0</asrwt>
<pdfrwt beam="1">  1        4 0.62537871E-02 0.12499954E+03</pdfrwt>
<pdfrwt beam="2">  1       -4 0.14783833E-01 0.12499954E+03</pdfrwt>
<totfact> 0.10201535E+04</totfact>
</mgrwt>
</event>
<event>
 5    1  0.3206158E-002  0.1250008E+03  0.7818608E-02  0.1235068E+00
          4   -1    0    0  501    0  0.00000000000E+00  0.00000000000E+00  0.71742763553E+02  0.71754003527E+02  0.12700000000E+01 0. -1.
         -4   -1    0    0    0  501 -0.00000000000E+00 -0.00000000000E+00 -0.54425797821E+02  0.54440613226E+02  0.12700000000E+01 0. -1.
         25    2    1    2    0    0  0.00000000000E+00  0.00000000000E+00  0.17316965732E+02  0.12619461675E+03  0.12500081598E+03 0.  0.
    9000005    1    3    3    0    0  0.39180352487E+02 -0.40710648834E+02  0.35612608315E+02  0.66796068900E+02  0.10000000000E+01 0.  0.
    9000005    1    3    3    0    0 -0.39180352487E+02  0.40710648834E+02 -0.18295642583E+02  0.59398547853E+02  0.10000000000E+01 0.  0.
<mgrwt>
<rscale>  0 0.12500082E+03</rscale>
<asrwt>0</asrwt>
<pdfrwt beam="1">  1        4 0.11039352E-01 0.12500082E+03</pdfrwt>
<pdfrwt beam="2">  1       -4 0.83752040E-02 0.12500082E+03</pdfrwt>
<totfact> 0.10426505E+04</totfact>
</mgrwt>
</event>
<event>
 5    1  0.3206158E-002  0.1250016E+03  0.7818608E-02  0.1235067E+00
         -4   -1    0    0    0  501 -0.00000000000E+00  0.00000000000E+00  0.55737422050E+03  0.55737566737E+03  0.12700000000E+01 0.  1.
          4   -1    0    0  501    0  0.00000000000E+00 -0.00000000000E+00 -0.69494837917E+01  0.70645753567E+01  0.12700000000E+01 0.  1.
         25    2    1    2    0    0  0.00000000000E+00  0.00000000000E+00  0.55042473671E+03  0.56444024273E+03  0.12500158731E+03 0.  0.
    9000005    1    3    3    0    0 -0.53831970199E+02  0.14510605467E+02  0.14774259242E+03  0.15791552268E+03  0.10000000000E+01 0.  0.
    9000005    1    3    3    0    0  0.53831970199E+02 -0.14510605467E+02  0.40268214428E+03  0.40652472005E+03  0.10000000000E+01 0.  0.
<mgrwt>
<rscale>  0 0.12500159E+03</rscale>
<asrwt>0</asrwt>
<pdfrwt beam="2">  1        4 0.10781155E-02 0.12500159E+03</pdfrwt>
<pdfrwt beam="1">  1       -4 0.85758875E-01 0.12500159E+03</pdfrwt>
<totfact> 0.51190238E+03</totfact>
</mgrwt>
</event>
<event>
 5    1  0.3206158E-002  0.1249977E+03  0.7818608E-02  0.1235073E+00
          4   -1    0    0  501    0  0.00000000000E+00  0.00000000000E+00  0.20683878035E+03  0.20684267924E+03  0.12700000000E+01 0. -1.
         -4   -1    0    0    0  501 -0.00000000000E+00 -0.00000000000E+00 -0.18859356687E+02  0.18902069587E+02  0.12700000000E+01 0. -1.
         25    2    1    2    0    0  0.00000000000E+00  0.00000000000E+00  0.18797942366E+03  0.22574474883E+03  0.12499771159E+03 0.  0.
    9000005    1    3    3    0    0  0.36097719289E+02 -0.28963301171E+02  0.16982389385E+03  0.17602009282E+03  0.10000000000E+01 0.  0.
    9000005    1    3    3    0    0 -0.36097719289E+02  0.28963301171E+02  0.18155529807E+02  0.49724656008E+02  0.10000000000E+01 0.  0.
<mgrwt>
<rscale>  0 0.12499771E+03</rscale>
<asrwt>0</asrwt>
<pdfrwt beam="1">  1        4 0.31824937E-01 0.12499771E+03</pdfrwt>
<pdfrwt beam="2">  1       -4 0.29050250E-02 0.12499771E+03</pdfrwt>
<totfact> 0.85971697E+03</totfact>
</mgrwt>
</event>
<event>
 5    1  0.3206158E-002  0.1249992E+03  0.7818608E-02  0.1235071E+00
          4   -1    0    0  501    0  0.00000000000E+00  0.00000000000E+00  0.22758380627E+03  0.22758734978E+03  0.12700000000E+01 0. -1.
         -4   -1    0    0    0  501 -0.00000000000E+00 -0.00000000000E+00 -0.17136614848E+02  0.17183610461E+02  0.12700000000E+01 0. -1.
         25    2    1    2    0    0  0.00000000000E+00  0.00000000000E+00  0.21044719143E+03  0.24477096024E+03  0.12499921038E+03 0.  0.
    9000005    1    3    3    0    0 -0.86342932322E+01  0.42449664809E+02  0.19342163357E+03  0.19821567394E+03  0.10000000000E+01 0.  0.
    9000005    1    3    3    0    0  0.86342932322E+01 -0.42449664809E+02  0.17025557855E+02  0.46555286298E+02  0.10000000000E+01 0.  0.
<mgrwt>
<rscale>  0 0.12499921E+03</rscale>
<asrwt>0</asrwt>
<pdfrwt beam="1">  1        4 0.35016778E-01 0.12499921E+03</pdfrwt>
<pdfrwt beam="2">  1       -4 0.26402901E-02 0.12499921E+03</pdfrwt>
<totfact> 0.83093373E+03</totfact>
</mgrwt>
</event>
<event>
 5    1  0.3206158E-002  0.1249926E+03  0.7818608E-02  0.1235081E+00
         -4   -1    0    0    0  501 -0.00000000000E+00  0.00000000000E+00  0.18669851616E+02  0.18712997071E+02  0.12700000000E+01 0.  1.
          4   -1    0    0  501    0  0.00000000000E+00 -0.00000000000E+00 -0.20891626023E+03  0.20892012035E+03  0.12700000000E+01 0.  1.
         25    2    1    2    0    0  0.00000000000E+00  0.00000000000E+00 -0.19024640861E+03  0.22763311742E+03  0.12499256041E+03 0.  0.
    9000005    1    3    3    0    0  0.36088002102E+02  0.46462338055E+02 -0.13348440754E+03  0.14587727654E+03  0.10000000000E+01 0.  0.
    9000005    1    3    3    0    0 -0.36088002102E+02 -0.46462338055E+02 -0.56762001068E+02  0.81755840883E+02  0.10000000000E+01 0.  0.
<mgrwt>
<rscale>  0 0.12499256E+03</rscale>
<asrwt>0</asrwt>
<pdfrwt beam="2">  1        4 0.32144577E-01 0.12499256E+03</pdfrwt>
<pdfrwt beam="1">  1       -4 0.28759008E-02 0.12499256E+03</pdfrwt>
<totfact> 0.85688590E+03</totfact>
</mgrwt>
</event>
<event>
 5    1  0.3206158E-002  0.1250046E+03  0.7818608E-02  0.1235062E+00
         -4   -1    0    0    0  501 -0.00000000000E+00  0.00000000000E+00  0.33488260429E+03  0.33488501244E+03  0.12700000000E+01 0.  1.
          4   -1    0    0  501    0  0.00000000000E+00 -0.00000000000E+00 -0.11628371671E+02  0.11697518015E+02  0.12700000000E+01 0.  1.
         25    2    1    2    0    0  0.00000000000E+00  0.00000000000E+00  0.32325423262E+03  0.34658253046E+03  0.12500460595E+03 0.  0.
    9000005    1    3    3    0    0  0.15484793707E+01  0.62474745451E+02  0.16222350573E+03  0.17384751197E+03  0.10000000000E+01 0.  0.
    9000005    1    3    3    0    0 -0.15484793707E+01 -0.62474745451E+02  0.16103072690E+03  0.17273501849E+03  0.10000000000E+01 0.  0.
<mgrwt>
<rscale>  0 0.12500461E+03</rscale>
<asrwt>0</asrwt>
<pdfrwt beam="2">  1        4 0.17944846E-02 0.12500461E+03</pdfrwt>
<pdfrwt beam="1">  1       -4 0.51525902E-01 0.12500461E+03</pdfrwt>
<totfact> 0.70095017E+03</totfact>
</mgrwt>
</event>
<event>
 4    1  0.3206158E-002  0.1248148E+03  0.7818608E-02  0.1235359E+00
         -4   -1    0    0    0  501 -0.00000000000E+00  0.00000000000E+00  0.12356540306E+02  0.12421633884E+02  0.12700000000E+01 0.  1.
          4   -1    0    0  501    0  0.00000000000E+00 -0.00000000000E+00 -0.31429758194E+03  0.31430014781E+03  0.12700000000E+01 0.  1.
    9000005    1    1    2    0    0 -0.54493406400E+02 -0.27975460066E+01 -0.23020912321E+03  0.23658951375E+03  0.10000000000E+01 0.  0.
    9000005    1    1    2    0    0  0.54493406400E+02  0.27975460066E+01 -0.71731918417E+02  0.90132267942E+02  0.10000000000E+01 0.  0.
<mgrwt>
<rscale>  0 0.12481478E+03</rscale>
<asrwt>0</asrwt>
<pdfrwt beam="2">  1        4 0.48358673E-01 0.12481478E+03</pdfrwt>
<pdfrwt beam="1">  1       -4 0.19062110E-02 0.12481478E+03</pdfrwt>
<totfact> 0.72661527E+03</totfact>
</mgrwt>
</event>
<event>
 5    1  0.3206158E-002  0.1250015E+03  0.7818608E-02  0.1235067E+00
          4   -1    0    0  501    0  0.00000000000E+00  0.00000000000E+00  0.34793935498E+02  0.34817105673E+02  0.12700000000E+01 0. -1.
         -4   -1    0    0    0  501 -0.00000000000E+00 -0.00000000000E+00 -0.11220673894E+03  0.11221392589E+03  0.12700000000E+01 0. -1.
         25    2    1    2    0    0  0.00000000000E+00  0.00000000000E+00 -0.77412803445E+02  0.14703103157E+03  0.12500152842E+03 0.  0.
    9000005    1    3    3    0    0  0.38060862796E+02  0.46634552010E+02 -0.18956359414E+02  0.63116988840E+02  0.10000000000E+01 0.  0.
    9000005    1    3    3    0    0 -0.38060862796E+02 -0.46634552010E+02 -0.58456444031E+02  0.83914042726E+02  0.10000000000E+01 0.  0.
<mgrwt>
<rscale>  0 0.12500153E+03</rscale>
<asrwt>0</asrwt>
<pdfrwt beam="1">  1        4 0.53552484E-02 0.12500153E+03</pdfrwt>
<pdfrwt beam="2">  1       -4 0.17264910E-01 0.12500153E+03</pdfrwt>
<totfact> 0.99895407E+03</totfact>
</mgrwt>
</event>
<event>
 5    1  0.3206158E-002  0.1249978E+03  0.7818608E-02  0.1235073E+00
         -4   -1    0    0    0  501 -0.00000000000E+00  0.00000000000E+00  0.10702597999E+03  0.10703351482E+03  0.12700000000E+01 0.  1.
          4   -1    0    0  501    0  0.00000000000E+00 -0.00000000000E+00 -0.36476990050E+02  0.36499091812E+02  0.12700000000E+01 0.  1.
         25    2    1    2    0    0  0.00000000000E+00  0.00000000000E+00  0.70548989945E+02  0.14353260663E+03  0.12499779671E+03 0.  0.
    9000005    1    3    3    0    0 -0.14246205354E+02  0.58064582367E+02  0.56154975627E+02  0.82029454345E+02  0.10000000000E+01 0.  0.
    9000005    1    3    3    0    0  0.14246205354E+02 -0.58064582367E+02  0.14394014318E+02  0.61503152282E+02  0.10000000000E+01 0.  0.
<mgrwt>
<rscale>  0 0.12499780E+03</rscale>
<asrwt>0</asrwt>
<pdfrwt beam="2">  1        4 0.56141245E-02 0.12499780E+03</pdfrwt>
<pdfrwt beam="1">  1       -4 0.16467815E-01 0.12499780E+03</pdfrwt>
<totfact> 0.10061387E+04</totfact>
</mgrwt>
</event>
<event>
 5    1  0.3206158E-002  0.1249959E+03  0.7818608E-02  0.1235076E+00
          4   -1    0    0  501    0  0.00000000000E+00  0.00000000000E+00  0.88853715487E+02  0.88862791177E+02  0.12700000000E+01 0.  1.
         -4   -1    0    0    0  501 -0.00000000000E+00 -0.00000000000E+00 -0.43939337919E+02  0.43957687800E+02  0.12700000000E+01 0.  1.
         25    2    1    2    0    0  0.00000000000E+00  0.00000000000E+00  0.44914377568E+02  0.13282047898E+03  0.12499591323E+03 0.  0.
    9000005    1    3    3    0    0  0.13944750872E+02 -0.43080708569E+02  0.68217957182E+02  0.81884633539E+02  0.10000000000E+01 0.  0.
    9000005    1    3    3    0    0 -0.13944750872E+02  0.43080708569E+02 -0.23303579614E+02  0.50935845438E+02  0.10000000000E+01 0.  0.
<mgrwt>
<rscale>  0 0.12499591E+03</rscale>
<asrwt>0</asrwt>
<pdfrwt beam="1">  1        4 0.13671912E-01 0.12499591E+03</pdfrwt>
<pdfrwt beam="2">  1       -4 0.67620079E-02 0.12499591E+03</pdfrwt>
<totfact> 0.10285165E+04</totfact>
</mgrwt>
</event>
<event>
 4    1  0.3206158E-002  0.1248327E+03  0.7818608E-02  0.1235331E+00
         -4   -1    0    0    0  501 -0.00000000000E+00  0.00000000000E+00  0.11243573509E+02  0.11315071597E+02  0.12700000000E+01 0.  1.
          4   -1    0    0  501    0  0.00000000000E+00 -0.00000000000E+00 -0.34532037198E+03  0.34532270734E+03  0.12700000000E+01 0.  1.
    9000005    1    1    2    0    0  0.53160881097E+01  0.58113455669E+02 -0.10383862847E+03  0.11911714942E+03  0.10000000000E+01 0.  0.
    9000005    1    1    2    0    0 -0.53160881097E+01 -0.58113455669E+02 -0.23023817000E+03  0.23752062952E+03  0.10000000000E+01 0.  0.
<mgrwt>
<rscale>  0 0.12483268E+03</rscale>
<asrwt>0</asrwt>
<pdfrwt beam="2">  1        4 0.53131882E-01 0.12483268E+03</pdfrwt>
<pdfrwt beam="1">  1       -4 0.17354603E-02 0.12483268E+03</pdfrwt>
<totfact> 0.69256478E+03</totfact>
</mgrwt>
</event>
<event>
 5    1  0.3206158E-002  0.1250010E+03  0.7818608E-02  0.1235068E+00
         -4   -1    0    0    0  501 -0.00000000000E+00  0.00000000000E+00  0.13347484380E+04  0.13347490422E+04  0.12700000000E+01 0. -1.
          4   -1    0    0  501    0  0.00000000000E+00 -0.00000000000E+00 -0.27882148617E+01  0.30638280166E+01  0.12700000000E+01 0. -1.
         25    2    1    2    0    0  0.00000000000E+00  0.00000000000E+00  0.13319602232E+04  0.13378128702E+04  0.12500095873E+03 0.  0.
    9000005    1    3    3    0    0 -0.49277230484E+02  0.33595002452E+02  0.86575744282E+03  0.86780978298E+03  0.10000000000E+01 0.  0.
    9000005    1    3    3    0    0  0.49277230484E+02 -0.33595002452E+02  0.46620278034E+03  0.47000308725E+03  0.10000000000E+01 0.  0.
<mgrwt>
<rscale>  0 0.12500096E+03</rscale>
<asrwt>0</asrwt>
<pdfrwt beam="2">  1        4 0.45020341E-03 0.12500096E+03</pdfrwt>
<pdfrwt beam="1">  1       -4 0.20536726E+00 0.12500096E+03</pdfrwt>
<totfact> 0.21352804E+03</totfact>
</mgrwt>
</event>
<event>
 5    1  0.3206158E-002  0.1250008E+03  0.7818608E-02  0.1235068E+00
         -4   -1    0    0    0  501 -0.00000000000E+00  0.00000000000E+00  0.25025947443E+03  0.25026269686E+03  0.12700000000E+01 0.  1.
          4   -1    0    0  501    0  0.00000000000E+00 -0.00000000000E+00 -0.15579828665E+02  0.15631505405E+02  0.12700000000E+01 0.  1.
         25    2    1    2    0    0  0.00000000000E+00  0.00000000000E+00  0.23467964576E+03  0.26589420227E+03  0.12500076265E+03 0.  0.
    9000005    1    3    3    0    0  0.33198596407E+02 -0.29806548633E+02  0.24261424646E+02  0.50795608774E+02  0.10000000000E+01 0.  0.
    9000005    1    3    3    0    0 -0.33198596407E+02  0.29806548633E+02  0.21041822111E+03  0.21509859349E+03  0.10000000000E+01 0.  0.
<mgrwt>
<rscale>  0 0.12500076E+03</rscale>
<asrwt>0</asrwt>
<pdfrwt beam="2">  1        4 0.24011199E-02 0.12500076E+03</pdfrwt>
<pdfrwt beam="1">  1       -4 0.38505678E-01 0.12500076E+03</pdfrwt>
<totfact> 0.80084585E+03</totfact>
</mgrwt>
</event>
<event>
 5    1  0.3206158E-002  0.1249911E+03  0.7818608E-02  0.1235083E+00
          4   -1    0    0  501    0  0.00000000000E+00  0.00000000000E+00  0.68882455366E+01  0.70043434077E+01  0.12700000000E+01 0. -1.
         -4   -1    0    0    0  501 -0.00000000000E+00 -0.00000000000E+00 -0.56215320089E+03  0.56215463546E+03  0.12700000000E+01 0. -1.
         25    2    1    2    0    0  0.00000000000E+00  0.00000000000E+00 -0.55526495535E+03  0.56915897887E+03  0.12499109002E+03 0.  0.
    9000005    1    3    3    0    0 -0.20626710976E+01  0.27895445412E+02 -0.53207555801E+03  0.53281123292E+03  0.10000000000E+01 0.  0.
    9000005    1    3    3    0    0  0.20626710976E+01 -0.27895445412E+02 -0.23189397337E+02  0.36347745950E+02  0.10000000000E+01 0.  0.
<mgrwt>
<rscale>  0 0.12499109E+03</rscale>
<asrwt>0</asrwt>
<pdfrwt beam="1">  1        4 0.10687715E-02 0.12499109E+03</pdfrwt>
<pdfrwt beam="2">  1       -4 0.86494113E-01 0.12499109E+03</pdfrwt>
<totfact> 0.50884072E+03</totfact>
</mgrwt>
</event>
<event>
 5    1  0.3206158E-002  0.1249831E+03  0.7818608E-02  0.1235096E+00
          4   -1    0    0  501    0  0.00000000000E+00  0.00000000000E+00  0.29560537934E+03  0.29560810746E+03  0.12700000000E+01 0.  1.
         -4   -1    0    0    0  501 -0.00000000000E+00 -0.00000000000E+00 -0.13177513022E+02  0.13238570521E+02  0.12700000000E+01 0.  1.
         25    2    1    2    0    0  0.00000000000E+00  0.00000000000E+00  0.28242786632E+03  0.30884667798E+03  0.12498308216E+03 0.  0.
    9000005    1    3    3    0    0  0.45024550629E+01 -0.24985812596E+02  0.13055763905E+00  0.25408265938E+02  0.10000000000E+01 0.  0.
    9000005    1    3    3    0    0 -0.45024550629E+01  0.24985812596E+02  0.28229730868E+03  0.28343841204E+03  0.10000000000E+01 0.  0.
<mgrwt>
<rscale>  0 0.12498308E+03</rscale>
<asrwt>0</asrwt>
<pdfrwt beam="1">  1        4 0.45482653E-01 0.12498308E+03</pdfrwt>
<pdfrwt beam="2">  1       -4 0.20322165E-02 0.12498308E+03</pdfrwt>
<totfact> 0.74530334E+03</totfact>
</mgrwt>
</event>
<event>
 5    1  0.3206158E-002  0.1249980E+03  0.7818608E-02  0.1235072E+00
         -4   -1    0    0    0  501 -0.00000000000E+00  0.00000000000E+00  0.65798037649E+01  0.67012474648E+01  0.12700000000E+01 0.  1.
          4   -1    0    0  501    0  0.00000000000E+00 -0.00000000000E+00 -0.58810313520E+03  0.58810450648E+03  0.12700000000E+01 0.  1.
         25    2    1    2    0    0  0.00000000000E+00  0.00000000000E+00 -0.58152333144E+03  0.59480575394E+03  0.12499799963E+03 0.  0.
    9000005    1    3    3    0    0 -0.44986586243E+02  0.34072841662E+02 -0.41847932822E+03  0.42226851603E+03  0.10000000000E+01 0.  0.
    9000005    1    3    3    0    0  0.44986586243E+02 -0.34072841662E+02 -0.16304400322E+03  0.17253723791E+03  0.10000000000E+01 0.  0.
<mgrwt>
<rscale>  0 0.12499800E+03</rscale>
<asrwt>0</asrwt>
<pdfrwt beam="2">  1        4 0.90486811E-01 0.12499800E+03</pdfrwt>
<pdfrwt beam="1">  1       -4 0.10217253E-02 0.12499800E+03</pdfrwt>
<totfact> 0.49199311E+03</totfact>
</mgrwt>
</event>
<event>
 5    1  0.3206158E-002  0.1249973E+03  0.7818608E-02  0.1235073E+00
          4   -1    0    0  501    0  0.00000000000E+00  0.00000000000E+00  0.19979101567E+03  0.19979505209E+03  0.12700000000E+01 0. -1.
         -4   -1    0    0    0  501 -0.00000000000E+00 -0.00000000000E+00 -0.19525984598E+02  0.19567242384E+02  0.12700000000E+01 0. -1.
         25    2    1    2    0    0  0.00000000000E+00  0.00000000000E+00  0.18026503107E+03  0.21936229448E+03  0.12499733922E+03 0.  0.
    9000005    1    3    3    0    0  0.45529038128E+02  0.33399307237E+02  0.13711357909E+03  0.14828870695E+03  0.10000000000E+01 0.  0.
    9000005    1    3    3    0    0 -0.45529038128E+02 -0.33399307237E+02  0.43151451978E+02  0.71073587531E+02  0.10000000000E+01 0.  0.
<mgrwt>
<rscale>  0 0.12499734E+03</rscale>
<asrwt>0</asrwt>
<pdfrwt beam="1">  1        4 0.30740563E-01 0.12499734E+03</pdfrwt>
<pdfrwt beam="2">  1       -4 0.30074819E-02 0.12499734E+03</pdfrwt>
<totfact> 0.86974528E+03</totfact>
</mgrwt>
</event>
<event>
 5    1  0.3206158E-002  0.1250046E+03  0.7818608E-02  0.1235062E+00
         -4   -1    0    0    0  501 -0.00000000000E+00  0.00000000000E+00  0.92170152626E+02  0.92178901790E+02  0.12700000000E+01 0. -1.
          4   -1    0    0  501    0  0.00000000000E+00 -0.00000000000E+00 -0.42363665781E+02  0.42382697866E+02  0.12700000000E+01 0. -1.
         25    2    1    2    0    0  0.00000000000E+00  0.00000000000E+00  0.49806486845E+02  0.13456159966E+03  0.12500455180E+03 0.  0.
    9000005    1    3    3    0    0  0.10081914591E+02 -0.55143002952E+02  0.54640236900E+02  0.78287618848E+02  0.10000000000E+01 0.  0.
    9000005    1    3    3    0    0 -0.10081914591E+02  0.55143002952E+02 -0.48337500554E+01  0.56273980808E+02  0.10000000000E+01 0.  0.
<mgrwt>
<rscale>  0 0.12500455E+03</rscale>
<asrwt>0</asrwt>
<pdfrwt beam="2">  1        4 0.65196241E-02 0.12500455E+03</pdfrwt>
<pdfrwt beam="1">  1       -4 0.14182160E-01 0.12500455E+03</pdfrwt>
<totfact> 0.10246268E+04</totfact>
</mgrwt>
</event>
<event>
 5    1  0.3206158E-002  0.1250004E+03  0.7818608E-02  0.1235069E+00
         -4   -1    0    0    0  501 -0.00000000000E+00  0.00000000000E+00  0.92106832226E+02  0.92115587404E+02  0.12700000000E+01 0. -1.
          4   -1    0    0  501    0  0.00000000000E+00 -0.00000000000E+00 -0.42389973922E+02  0.42408994201E+02  0.12700000000E+01 0. -1.
         25    2    1    2    0    0  0.00000000000E+00  0.00000000000E+00  0.49716858304E+02  0.13452458160E+03  0.12500038822E+03 0.  0.
    9000005    1    3    3    0    0 -0.19768408387E+02  0.58911584856E+02  0.17727118518E+02  0.64626740064E+02  0.10000000000E+01 0.  0.
    9000005    1    3    3    0    0  0.19768408387E+02 -0.58911584856E+02  0.31989739786E+02  0.69897841540E+02  0.10000000000E+01 0.  0.
<mgrwt>
<rscale>  0 0.12500039E+03</rscale>
<asrwt>0</asrwt>
<pdfrwt beam="2">  1        4 0.65236711E-02 0.12500039E+03</pdfrwt>
<pdfrwt beam="1">  1       -4 0.14172418E-01 0.12500039E+03</pdfrwt>
<totfact> 0.10248011E+04</totfact>
</mgrwt>
</event>
<event>
 5    1  0.3206158E-002  0.1250016E+03  0.7818608E-02  0.1235067E+00
         -4   -1    0    0    0  501 -0.00000000000E+00  0.00000000000E+00  0.20467423040E+02  0.20506786826E+02  0.12700000000E+01 0. -1.
          4   -1    0    0  501    0  0.00000000000E+00 -0.00000000000E+00 -0.19063204807E+03  0.19063627843E+03  0.12700000000E+01 0. -1.
         25    2    1    2    0    0  0.00000000000E+00  0.00000000000E+00 -0.17016462503E+03  0.21114306525E+03  0.12500157756E+03 0.  0.
    9000005    1    3    3    0    0  0.21844818796E+02 -0.17387090734E+02  0.93552586728E+01  0.29462313168E+02  0.10000000000E+01 0.  0.
    9000005    1    3    3    0    0 -0.21844818796E+02  0.17387090734E+02 -0.17951988371E+03  0.18168075209E+03  0.10000000000E+01 0.  0.
<mgrwt>
<rscale>  0 0.12500158E+03</rscale>
<asrwt>0</asrwt>
<pdfrwt beam="2">  1        4 0.29331360E-01 0.12500158E+03</pdfrwt>
<pdfrwt beam="1">  1       -4 0.31521878E-02 0.12500158E+03</pdfrwt>
<totfact> 0.88286430E+03</totfact>
</mgrwt>
</event>
<event>
 5    1  0.3206158E-002  0.1249913E+03  0.7818608E-02  0.1235083E+00
         -4   -1    0    0    0  501 -0.00000000000E+00  0.00000000000E+00  0.12352561281E+03  0.12353214124E+03  0.12700000000E+01 0. -1.
          4   -1    0    0  501    0  0.00000000000E+00 -0.00000000000E+00 -0.31598493541E+02  0.31624005029E+02  0.12700000000E+01 0. -1.
         25    2    1    2    0    0  0.00000000000E+00  0.00000000000E+00  0.91927119268E+02  0.15515614627E+03  0.12499133758E+03 0.  0.
    9000005    1    3    3    0    0  0.59229840988E+02  0.18407947294E+02  0.36535781849E+02  0.71992290853E+02  0.10000000000E+01 0.  0.
    9000005    1    3    3    0    0 -0.59229840988E+02 -0.18407947294E+02  0.55391337420E+02  0.83163855419E+02  0.10000000000E+01 0.  0.
<mgrwt>
<rscale>  0 0.12499134E+03</rscale>
<asrwt>0</asrwt>
<pdfrwt beam="2">  1        4 0.48637712E-02 0.12499134E+03</pdfrwt>
<pdfrwt beam="1">  1       -4 0.19006406E-01 0.12499134E+03</pdfrwt>
<totfact> 0.98304003E+03</totfact>
</mgrwt>
</event>
<event>
 5    1  0.3206158E-002  0.1250056E+03  0.7818608E-02  0.1235061E+00
         -4   -1    0    0    0  501 -0.00000000000E+00  0.00000000000E+00  0.46557796057E+02  0.46575114318E+02  0.12700000000E+01 0.  1.
          4   -1    0    0  501    0  0.00000000000E+00 -0.00000000000E+00 -0.83870876903E+02  0.83880491727E+02  0.12700000000E+01 0.  1.
         25    2    1    2    0    0  0.00000000000E+00  0.00000000000E+00 -0.37313080846E+02  0.13045560604E+03  0.12500559646E+03 0.  0.
    9000005    1    3    3    0    0 -0.15106012016E+02  0.38555369853E+00 -0.81940760396E+02  0.83328437313E+02  0.10000000000E+01 0.  0.
    9000005    1    3    3    0    0  0.15106012016E+02 -0.38555369853E+00  0.44627679550E+02  0.47127168732E+02  0.10000000000E+01 0.  0.
<mgrwt>
<rscale>  0 0.12500560E+03</rscale>
<asrwt>0</asrwt>
<pdfrwt beam="2">  1        4 0.12905284E-01 0.12500560E+03</pdfrwt>
<pdfrwt beam="1">  1       -4 0.71648096E-02 0.12500560E+03</pdfrwt>
<totfact> 0.10333465E+04</totfact>
</mgrwt>
</event>
<event>
 5    1  0.3206158E-002  0.1249966E+03  0.7818608E-02  0.1235075E+00
          4   -1    0    0  501    0  0.00000000000E+00  0.00000000000E+00  0.83419124060E+01  0.84380330996E+01  0.12700000000E+01 0.  1.
         -4   -1    0    0    0  501 -0.00000000000E+00 -0.00000000000E+00 -0.46546357259E+03  0.46546530516E+03  0.12700000000E+01 0.  1.
         25    2    1    2    0    0  0.00000000000E+00  0.00000000000E+00 -0.45712166019E+03  0.47390333826E+03  0.12499664717E+03 0.  0.
    9000005    1    3    3    0    0  0.19357733078E+02 -0.12236123481E+01 -0.45378046125E+03  0.45419591155E+03  0.10000000000E+01 0.  0.
    9000005    1    3    3    0    0 -0.19357733078E+02  0.12236123481E+01 -0.33411989313E+01  0.19707426707E+02  0.10000000000E+01 0.  0.
<mgrwt>
<rscale>  0 0.12499665E+03</rscale>
<asrwt>0</asrwt>
<pdfrwt beam="1">  1        4 0.12908987E-02 0.12499665E+03</pdfrwt>
<pdfrwt beam="2">  1       -4 0.71617287E-01 0.12499665E+03</pdfrwt>
<totfact> 0.57951850E+03</totfact>
</mgrwt>
</event>
<event>
 5    1  0.3206158E-002  0.1250036E+03  0.7818608E-02  0.1235064E+00
          4   -1    0    0  501    0  0.00000000000E+00  0.00000000000E+00  0.16178516289E+02  0.16228286703E+02  0.12700000000E+01 0.  1.
         -4   -1    0    0    0  501 -0.00000000000E+00 -0.00000000000E+00 -0.24103844585E+03  0.24104179156E+03  0.12700000000E+01 0.  1.
         25    2    1    2    0    0  0.00000000000E+00  0.00000000000E+00 -0.22485992956E+03  0.25727007826E+03  0.12500362094E+03 0.  0.
    9000005    1    3    3    0    0 -0.56083115452E+02 -0.24318575352E+02 -0.85693072812E+02  0.10526638435E+03  0.10000000000E+01 0.  0.
    9000005    1    3    3    0    0  0.56083115452E+02  0.24318575352E+02 -0.13916685675E+03  0.15200369391E+03  0.10000000000E+01 0.  0.
<mgrwt>
<rscale>  0 0.12500362E+03</rscale>
<asrwt>0</asrwt>
<pdfrwt beam="1">  1        4 0.24930885E-02 0.12500362E+03</pdfrwt>
<pdfrwt beam="2">  1       -4 0.37086921E-01 0.12500362E+03</pdfrwt>
<totfact> 0.81284147E+03</totfact>
</mgrwt>
</event>
<event>
 5    1  0.3206158E-002  0.1249981E+03  0.7818608E-02  0.1235072E+00
          4   -1    0    0  501    0  0.00000000000E+00  0.00000000000E+00  0.33953753355E+03  0.33953990868E+03  0.12700000000E+01 0. -1.
         -4   -1    0    0    0  501 -0.00000000000E+00 -0.00000000000E+00 -0.11466803893E+02  0.11536918632E+02  0.12700000000E+01 0. -1.
         25    2    1    2    0    0  0.00000000000E+00  0.00000000000E+00  0.32807072966E+03  0.35107682732E+03  0.12499814007E+03 0.  0.
    9000005    1    3    3    0    0  0.41710157058E+02 -0.46036011112E+02  0.18310161897E+03  0.19335525436E+03  0.10000000000E+01 0.  0.
    9000005    1    3    3    0    0 -0.41710157058E+02  0.46036011112E+02  0.14496911069E+03  0.15772157295E+03  0.10000000000E+01 0.  0.
<mgrwt>
<rscale>  0 0.12499814E+03</rscale>
<asrwt>0</asrwt>
<pdfrwt beam="1">  1        4 0.52242124E-01 0.12499814E+03</pdfrwt>
<pdfrwt beam="2">  1       -4 0.17696997E-02 0.12499814E+03</pdfrwt>
<totfact> 0.69609114E+03</totfact>
</mgrwt>
</event>
<event>
 5    1  0.3206158E-002  0.1249958E+03  0.7818608E-02  0.1235076E+00
         -4   -1    0    0    0  501 -0.00000000000E+00  0.00000000000E+00  0.31325931959E+02  0.31351665236E+02  0.12700000000E+01 0. -1.
          4   -1    0    0  501    0  0.00000000000E+00 -0.00000000000E+00 -0.12460840568E+03  0.12461487739E+03  0.12700000000E+01 0. -1.
         25    2    1    2    0    0  0.00000000000E+00  0.00000000000E+00 -0.93282473723E+02  0.15596654262E+03  0.12499576999E+03 0.  0.
    9000005    1    3    3    0    0 -0.58249046147E+02 -0.21614780559E+02 -0.38286222507E+02  0.72986196979E+02  0.10000000000E+01 0.  0.
    9000005    1    3    3    0    0  0.58249046147E+02  0.21614780559E+02 -0.54996251216E+02  0.82980345646E+02  0.10000000000E+01 0.  0.
<mgrwt>
<rscale>  0 0.12499577E+03</rscale>
<asrwt>0</asrwt>
<pdfrwt beam="2">  1        4 0.19173001E-01 0.12499577E+03</pdfrwt>
<pdfrwt beam="1">  1       -4 0.48218515E-02 0.12499577E+03</pdfrwt>
<totfact> 0.98135423E+03</totfact>
</mgrwt>
</event>
<event>
 5    1  0.3206158E-002  0.1249993E+03  0.7818608E-02  0.1235070E+00
          4   -1    0    0  501    0  0.00000000000E+00  0.00000000000E+00  0.32302740107E+02  0.32327695842E+02  0.12700000000E+01 0.  1.
         -4   -1    0    0    0  501 -0.00000000000E+00 -0.00000000000E+00 -0.12084995608E+03  0.12085662905E+03  0.12700000000E+01 0.  1.
         25    2    1    2    0    0  0.00000000000E+00  0.00000000000E+00 -0.88547215976E+02  0.15318432489E+03  0.12499931174E+03 0.  0.
    9000005    1    3    3    0    0 -0.61773112595E+02  0.88803596569E+01 -0.48231126634E+02  0.78879780702E+02  0.10000000000E+01 0.  0.
    9000005    1    3    3    0    0  0.61773112595E+02 -0.88803596569E+01 -0.40316089342E+02  0.74304544189E+02  0.10000000000E+01 0.  0.
<mgrwt>
<rscale>  0 0.12499931E+03</rscale>
<asrwt>0</asrwt>
<pdfrwt beam="1">  1        4 0.49720854E-02 0.12499931E+03</pdfrwt>
<pdfrwt beam="2">  1       -4 0.18594734E-01 0.12499931E+03</pdfrwt>
<totfact> 0.98674224E+03</totfact>
</mgrwt>
</event>
<event>
 5    1  0.3206158E-002  0.1249995E+03  0.7818608E-02  0.1235070E+00
          4   -1    0    0  501    0  0.00000000000E+00  0.00000000000E+00  0.25842546893E+02  0.25873734364E+02  0.12700000000E+01 0.  1.
         -4   -1    0    0    0  501 -0.00000000000E+00 -0.00000000000E+00 -0.15102958379E+03  0.15103492338E+03  0.12700000000E+01 0.  1.
         25    2    1    2    0    0  0.00000000000E+00  0.00000000000E+00 -0.12518703690E+03  0.17690865774E+03  0.12499951591E+03 0.  0.
    9000005    1    3    3    0    0  0.59786139386E+02 -0.90078516181E+01 -0.40229674457E+02  0.72628854874E+02  0.10000000000E+01 0.  0.
    9000005    1    3    3    0    0 -0.59786139386E+02  0.90078516181E+01 -0.84957362438E+02  0.10427980287E+03  0.10000000000E+01 0.  0.
<mgrwt>
<rscale>  0 0.12499952E+03</rscale>
<asrwt>0</asrwt>
<pdfrwt beam="1">  1        4 0.39785863E-02 0.12499952E+03</pdfrwt>
<pdfrwt beam="2">  1       -4 0.23238130E-01 0.12499952E+03</pdfrwt>
<totfact> 0.94177456E+03</totfact>
</mgrwt>
</event>
<event>
 5    1  0.3206158E-002  0.1250077E+03  0.7818608E-02  0.1235057E+00
         -4   -1    0    0    0  501 -0.00000000000E+00  0.00000000000E+00  0.11845462542E+02  0.11913348935E+02  0.12700000000E+01 0. -1.
          4   -1    0    0  501    0  0.00000000000E+00 -0.00000000000E+00 -0.32879692500E+03  0.32879937772E+03  0.12700000000E+01 0. -1.
         25    2    1    2    0    0  0.00000000000E+00  0.00000000000E+00 -0.31695146246E+03  0.34071272665E+03  0.12500772996E+03 0.  0.
    9000005    1    3    3    0    0 -0.81544080076E+01  0.56926349493E+02 -0.22516109814E+03  0.23239110084E+03  0.10000000000E+01 0.  0.
    9000005    1    3    3    0    0  0.81544080076E+01 -0.56926349493E+02 -0.91790364320E+02  0.10832162581E+03  0.10000000000E+01 0.  0.
<mgrwt>
<rscale>  0 0.12500773E+03</rscale>
<asrwt>0</asrwt>
<pdfrwt beam="2">  1        4 0.50589546E-01 0.12500773E+03</pdfrwt>
<pdfrwt beam="1">  1       -4 0.18277898E-02 0.12500773E+03</pdfrwt>
<totfact> 0.70746394E+03</totfact>
</mgrwt>
</event>
<event>
 5    1  0.3206158E-002  0.1249991E+03  0.7818608E-02  0.1235071E+00
         -4   -1    0    0    0  501 -0.00000000000E+00  0.00000000000E+00  0.51169756796E+02  0.51185514656E+02  0.12700000000E+01 0. -1.
          4   -1    0    0  501    0  0.00000000000E+00 -0.00000000000E+00 -0.76305137390E+02  0.76315705409E+02  0.12700000000E+01 0. -1.
         25    2    1    2    0    0  0.00000000000E+00  0.00000000000E+00 -0.25135380594E+02  0.12750122007E+03  0.12499909504E+03 0.  0.
    9000005    1    3    3    0    0  0.10989607305E+02  0.61495549127E+02 -0.14249762896E+02  0.64082211055E+02  0.10000000000E+01 0.  0.
    9000005    1    3    3    0    0 -0.10989607305E+02 -0.61495549127E+02 -0.10885617698E+02  0.63419009010E+02  0.10000000000E+01 0.  0.
<mgrwt>
<rscale>  0 0.12499910E+03</rscale>
<asrwt>0</asrwt>
<pdfrwt beam="2">  1        4 0.11741277E-01 0.12499910E+03</pdfrwt>
<pdfrwt beam="1">  1       -4 0.78742954E-02 0.12499910E+03</pdfrwt>
<totfact> 0.10398486E+04</totfact>
</mgrwt>
</event>
<event>
 5    1  0.3206158E-002  0.1249994E+03  0.7818608E-02  0.1235070E+00
          4   -1    0    0  501    0  0.00000000000E+00  0.00000000000E+00  0.78017038946E+02  0.78027375106E+02  0.12700000000E+01 0. -1.
         -4   -1    0    0    0  501 -0.00000000000E+00 -0.00000000000E+00 -0.50046983994E+02  0.50063095259E+02  0.12700000000E+01 0. -1.
         25    2    1    2    0    0  0.00000000000E+00  0.00000000000E+00  0.27970054952E+02  0.12809047036E+03  0.12499937850E+03 0.  0.
    9000005    1    3    3    0    0  0.50208207051E+02 -0.37147833162E+02  0.11839060236E+02  0.63576638092E+02  0.10000000000E+01 0.  0.
    9000005    1    3    3    0    0 -0.50208207051E+02  0.37147833162E+02  0.16130994716E+02  0.64513832272E+02  0.10000000000E+01 0.  0.
<mgrwt>
<rscale>  0 0.12499938E+03</rscale>
<asrwt>0</asrwt>
<pdfrwt beam="1">  1        4 0.12004656E-01 0.12499938E+03</pdfrwt>
<pdfrwt beam="2">  1       -4 0.77015704E-02 0.12499938E+03</pdfrwt>
<totfact> 0.10385680E+04</totfact>
</mgrwt>
</event>
<event>
 5    1  0.3206158E-002  0.1250088E+03  0.7818608E-02  0.1235056E+00
          4   -1    0    0  501    0  0.00000000000E+00  0.00000000000E+00  0.29561112895E+03  0.29561385701E+03  0.12700000000E+01 0.  1.
         -4   -1    0    0    0  501 -0.00000000000E+00 -0.00000000000E+00 -0.13182707000E+02  0.13243740554E+02  0.12700000000E+01 0.  1.
         25    2    1    2    0    0  0.00000000000E+00  0.00000000000E+00  0.28242842195E+03  0.30885759756E+03  0.12500880789E+03 0.  0.
    9000005    1    3    3    0    0 -0.11904368334E+02 -0.52703343476E+02  0.21881281672E+03  0.22538723380E+03  0.10000000000E+01 0.  0.
    9000005    1    3    3    0    0  0.11904368334E+02  0.52703343476E+02  0.63615605231E+02  0.83470363770E+02  0.10000000000E+01 0.  0.
<mgrwt>
<rscale>  0 0.12500881E+03</rscale>
<asrwt>0</asrwt>
<pdfrwt beam="1">  1        4 0.45483540E-01 0.12500881E+03</pdfrwt>
<pdfrwt beam="2">  1       -4 0.20330135E-02 0.12500881E+03</pdfrwt>
<totfact> 0.74486464E+03</totfact>
</mgrwt>
</event>
<event>
 5    1  0.3206158E-002  0.1249970E+03  0.7818608E-02  0.1235074E+00
         -4   -1    0    0    0  501 -0.00000000000E+00  0.00000000000E+00  0.20237509167E+03  0.20237907656E+03  0.12700000000E+01 0. -1.
          4   -1    0    0  501    0  0.00000000000E+00 -0.00000000000E+00 -0.19276033559E+02  0.19317825183E+02  0.12700000000E+01 0. -1.
         25    2    1    2    0    0  0.00000000000E+00  0.00000000000E+00  0.18309905811E+03  0.22169690174E+03  0.12499700461E+03 0.  0.
    9000005    1    3    3    0    0 -0.16953571732E+01 -0.53579591289E+02  0.14851044180E+03  0.15789236259E+03  0.10000000000E+01 0.  0.
    9000005    1    3    3    0    0  0.16953571732E+01  0.53579591289E+02  0.34588616308E+02  0.63804539155E+02  0.10000000000E+01 0.  0.
<mgrwt>
<rscale>  0 0.12499700E+03</rscale>
<asrwt>0</asrwt>
<pdfrwt beam="2">  1        4 0.29690650E-02 0.12499700E+03</pdfrwt>
<pdfrwt beam="1">  1       -4 0.31138150E-01 0.12499700E+03</pdfrwt>
<totfact> 0.86606341E+03</totfact>
</mgrwt>
</event>
<event>
 5    1  0.3206158E-002  0.1250018E+03  0.7818608E-02  0.1235067E+00
         -4   -1    0    0    0  501 -0.00000000000E+00  0.00000000000E+00  0.69605749546E+02  0.69617334550E+02  0.12700000000E+01 0. -1.
          4   -1    0    0  501    0  0.00000000000E+00 -0.00000000000E+00 -0.56097783152E+02  0.56112157101E+02  0.12700000000E+01 0. -1.
         25    2    1    2    0    0  0.00000000000E+00  0.00000000000E+00  0.13507966394E+02  0.12572949165E+03  0.12500175965E+03 0.  0.
    9000005    1    3    3    0    0 -0.50688253861E+02 -0.32230601940E+02  0.24095272303E+02  0.64727837352E+02  0.10000000000E+01 0.  0.
    9000005    1    3    3    0    0  0.50688253861E+02  0.32230601940E+02 -0.10587305909E+02  0.61001654300E+02  0.10000000000E+01 0.  0.
<mgrwt>
<rscale>  0 0.12500176E+03</rscale>
<asrwt>0</asrwt>
<pdfrwt beam="2">  1        4 0.86324251E-02 0.12500176E+03</pdfrwt>
<pdfrwt beam="1">  1       -4 0.10710574E-01 0.12500176E+03</pdfrwt>
<totfact> 0.10436481E+04</totfact>
</mgrwt>
</event>
<event>
 5    1  0.3206158E-002  0.1249954E+03  0.7818608E-02  0.1235077E+00
          4   -1    0    0  501    0  0.00000000000E+00  0.00000000000E+00  0.37518958758E+03  0.37519173702E+03  0.12700000000E+01 0.  1.
         -4   -1    0    0    0  501 -0.00000000000E+00 -0.00000000000E+00 -0.10369710721E+02  0.10447191031E+02  0.12700000000E+01 0.  1.
         25    2    1    2    0    0  0.00000000000E+00  0.00000000000E+00  0.36481987686E+03  0.38563892805E+03  0.12499536102E+03 0.  0.
    9000005    1    3    3    0    0 -0.33153073125E+02 -0.37887750825E+02  0.68200219076E+02  0.84775455187E+02  0.10000000000E+01 0.  0.
    9000005    1    3    3    0    0  0.33153073125E+02  0.37887750825E+02  0.29661965778E+03  0.30086347286E+03  0.10000000000E+01 0.  0.
<mgrwt>
<rscale>  0 0.12499536E+03</rscale>
<asrwt>0</asrwt>
<pdfrwt beam="1">  1        4 0.57727605E-01 0.12499536E+03</pdfrwt>
<pdfrwt beam="2">  1       -4 0.16014654E-02 0.12499536E+03</pdfrwt>
<totfact> 0.65980670E+03</totfact>
</mgrwt>
</event>
<event>
 5    1  0.3206158E-002  0.1249979E+03  0.7818608E-02  0.1235073E+00
         -4   -1    0    0    0  501 -0.00000000000E+00  0.00000000000E+00  0.10142721350E+03  0.10143516421E+03  0.12700000000E+01 0.  1.
          4   -1    0    0  501    0  0.00000000000E+00 -0.00000000000E+00 -0.38491608634E+02  0.38512554254E+02  0.12700000000E+01 0.  1.
         25    2    1    2    0    0  0.00000000000E+00  0.00000000000E+00  0.62935604871E+02  0.13994771847E+03  0.12499789416E+03 0.  0.
    9000005    1    3    3    0    0 -0.50360741153E+02 -0.16206827530E+02  0.68706144156E+02  0.86720238427E+02  0.10000000000E+01 0.  0.
    9000005    1    3    3    0    0  0.50360741153E+02  0.16206827530E+02 -0.57705392845E+01  0.53227480043E+02  0.10000000000E+01 0.  0.
<mgrwt>
<rscale>  0 0.12499789E+03</rscale>
<asrwt>0</asrwt>
<pdfrwt beam="2">  1        4 0.59240088E-02 0.12499789E+03</pdfrwt>
<pdfrwt beam="1">  1       -4 0.15606409E-01 0.12499789E+03</pdfrwt>
<totfact> 0.10135150E+04</totfact>
</mgrwt>
</event>
<event>
 5    1  0.3206158E-002  0.1249989E+03  0.7818608E-02  0.1235071E+00
         -4   -1    0    0    0  501 -0.00000000000E+00  0.00000000000E+00  0.70553734327E+02  0.70565163696E+02  0.12700000000E+01 0. -1.
          4   -1    0    0  501    0  0.00000000000E+00 -0.00000000000E+00 -0.55341390032E+02  0.55355960390E+02  0.12700000000E+01 0. -1.
         25    2    1    2    0    0  0.00000000000E+00  0.00000000000E+00  0.15212344295E+02  0.12592112409E+03  0.12499885628E+03 0.  0.
    9000005    1    3    3    0    0  0.11164010958E+02  0.40874250320E+02 -0.38665715259E+02  0.57370523934E+02  0.10000000000E+01 0.  0.
    9000005    1    3    3    0    0 -0.11164010958E+02 -0.40874250320E+02  0.53878059554E+02  0.68550600152E+02  0.10000000000E+01 0.  0.
<mgrwt>
<rscale>  0 0.12499886E+03</rscale>
<asrwt>0</asrwt>
<pdfrwt beam="2">  1        4 0.85160600E-02 0.12499886E+03</pdfrwt>
<pdfrwt beam="1">  1       -4 0.10856421E-01 0.12499886E+03</pdfrwt>
<totfact> 0.10432955E+04</totfact>
</mgrwt>
</event>
<event>
 5    1  0.3206158E-002  0.1250006E+03  0.7818608E-02  0.1235068E+00
         -4   -1    0    0    0  501 -0.00000000000E+00  0.00000000000E+00  0.14803271724E+02  0.14857649670E+02  0.12700000000E+01 0. -1.
          4   -1    0    0  501    0  0.00000000000E+00 -0.00000000000E+00 -0.26334014021E+03  0.26334320258E+03  0.12700000000E+01 0. -1.
         25    2    1    2    0    0  0.00000000000E+00  0.00000000000E+00 -0.24853686848E+03  0.27820085225E+03  0.12500055678E+03 0.  0.
    9000005    1    3    3    0    0  0.56045464639E+02 -0.86721162735E+01 -0.18268707138E+03  0.19129000433E+03  0.10000000000E+01 0.  0.
    9000005    1    3    3    0    0 -0.56045464639E+02  0.86721162735E+01 -0.65849797098E+02  0.86910847914E+02  0.10000000000E+01 0.  0.
<mgrwt>
<rscale>  0 0.12500056E+03</rscale>
<asrwt>0</asrwt>
<pdfrwt beam="2">  1        4 0.40518283E-01 0.12500056E+03</pdfrwt>
<pdfrwt beam="1">  1       -4 0.22818451E-02 0.12500056E+03</pdfrwt>
<totfact> 0.78416296E+03</totfact>
</mgrwt>
</event>
<event>
 5    1  0.3206158E-002  0.1249989E+03  0.7818608E-02  0.1235071E+00
         -4   -1    0    0    0  501 -0.00000000000E+00  0.00000000000E+00  0.62702538975E+02  0.62715399177E+02  0.12700000000E+01 0. -1.
          4   -1    0    0  501    0  0.00000000000E+00 -0.00000000000E+00 -0.62271297830E+02  0.62284247073E+02  0.12700000000E+01 0. -1.
         25    2    1    2    0    0  0.00000000000E+00  0.00000000000E+00  0.43124114492E+00  0.12499964625E+03  0.12499890237E+03 0.  0.
    9000005    1    3    3    0    0 -0.41524185452E+02 -0.37851225228E+02 -0.27137936325E+02  0.62405455024E+02  0.10000000000E+01 0.  0.
    9000005    1    3    3    0    0  0.41524185452E+02  0.37851225228E+02  0.27569177470E+02  0.62594191225E+02  0.10000000000E+01 0.  0.
<mgrwt>
<rscale>  0 0.12499890E+03</rscale>
<asrwt>0</asrwt>
<pdfrwt beam="2">  1        4 0.95821850E-02 0.12499890E+03</pdfrwt>
<pdfrwt beam="1">  1       -4 0.96485298E-02 0.12499890E+03</pdfrwt>
<totfact> 0.10453129E+04</totfact>
</mgrwt>
</event>
<event>
 5    1  0.3206158E-002  0.1250007E+03  0.7818608E-02  0.1235068E+00
          4   -1    0    0  501    0  0.00000000000E+00  0.00000000000E+00  0.10928473958E+03  0.10929211868E+03  0.12700000000E+01 0.  1.
         -4   -1    0    0    0  501 -0.00000000000E+00 -0.00000000000E+00 -0.35724287651E+02  0.35746854801E+02  0.12700000000E+01 0.  1.
         25    2    1    2    0    0  0.00000000000E+00  0.00000000000E+00  0.73560451929E+02  0.14503897348E+03  0.12500065496E+03 0.  0.
    9000005    1    3    3    0    0 -0.38544381953E+01  0.62321009735E+02  0.33816107738E+02  0.71016153731E+02  0.10000000000E+01 0.  0.
    9000005    1    3    3    0    0  0.38544381953E+01 -0.62321009735E+02  0.39744344191E+02  0.74022819747E+02  0.10000000000E+01 0.  0.
<mgrwt>
<rscale>  0 0.12500065E+03</rscale>
<asrwt>0</asrwt>
<pdfrwt beam="1">  1        4 0.16815340E-01 0.12500065E+03</pdfrwt>
<pdfrwt beam="2">  1       -4 0.54983478E-02 0.12500065E+03</pdfrwt>
<totfact> 0.10030049E+04</totfact>
</mgrwt>
</event>
<event>
 5    1  0.3206158E-002  0.1250022E+03  0.7818608E-02  0.1235066E+00
          4   -1    0    0  501    0  0.00000000000E+00  0.00000000000E+00  0.35659256042E+03  0.35659482196E+03  0.12700000000E+01 0. -1.
         -4   -1    0    0    0  501 -0.00000000000E+00 -0.00000000000E+00 -0.10915645533E+02  0.10989277383E+02  0.12700000000E+01 0. -1.
         25    2    1    2    0    0  0.00000000000E+00  0.00000000000E+00  0.34567691489E+03  0.36758409934E+03  0.12500216239E+03 0.  0.
    9000005    1    3    3    0    0 -0.53871587437E+02 -0.23107942433E+02  0.23653942929E+03  0.24369658706E+03  0.10000000000E+01 0.  0.
    9000005    1    3    3    0    0  0.53871587437E+02  0.23107942433E+02  0.10913748559E+03  0.12388751228E+03  0.10000000000E+01 0.  0.
<mgrwt>
<rscale>  0 0.12500216E+03</rscale>
<asrwt>0</asrwt>
<pdfrwt beam="1">  1        4 0.54866228E-01 0.12500216E+03</pdfrwt>
<pdfrwt beam="2">  1       -4 0.16851682E-02 0.12500216E+03</pdfrwt>
<totfact> 0.67829202E+03</totfact>
</mgrwt>
</event>
<event>
 5    1  0.3206158E-002  0.1249999E+03  0.7818608E-02  0.1235069E+00
          4   -1    0    0  501    0  0.00000000000E+00  0.00000000000E+00  0.72260895550E+02  0.72272054943E+02  0.12700000000E+01 0.  1.
         -4   -1    0    0    0  501 -0.00000000000E+00 -0.00000000000E+00 -0.54034741324E+02  0.54049663921E+02  0.12700000000E+01 0.  1.
         25    2    1    2    0    0  0.00000000000E+00  0.00000000000E+00  0.18226154225E+02  0.12632171886E+03  0.12499993584E+03 0.  0.
    9000005    1    3    3    0    0 -0.17555310296E+02  0.54689679887E+02 -0.15766267724E+02  0.59571177625E+02  0.10000000000E+01 0.  0.
    9000005    1    3    3    0    0  0.17555310296E+02 -0.54689679887E+02  0.33992421949E+02  0.66750541239E+02  0.10000000000E+01 0.  0.
<mgrwt>
<rscale>  0 0.12499994E+03</rscale>
<asrwt>0</asrwt>
<pdfrwt beam="1">  1        4 0.11119067E-01 0.12499994E+03</pdfrwt>
<pdfrwt beam="2">  1       -4 0.83150434E-02 0.12499994E+03</pdfrwt>
<totfact> 0.10423934E+04</totfact>
</mgrwt>
</event>
<event>
 5    1  0.3206158E-002  0.1250007E+03  0.7818608E-02  0.1235068E+00
          4   -1    0    0  501    0  0.00000000000E+00  0.00000000000E+00  0.30876105355E+02  0.30902213220E+02  0.12700000000E+01 0. -1.
         -4   -1    0    0    0  501 -0.00000000000E+00 -0.00000000000E+00 -0.12643232609E+03  0.12643870444E+03  0.12700000000E+01 0. -1.
         25    2    1    2    0    0  0.00000000000E+00  0.00000000000E+00 -0.95556220737E+02  0.15734091766E+03  0.12500069220E+03 0.  0.
    9000005    1    3    3    0    0  0.24237790440E+01 -0.29139695637E+02 -0.11729659600E+03  0.12089039664E+03  0.10000000000E+01 0.  0.
    9000005    1    3    3    0    0 -0.24237790440E+01  0.29139695637E+02  0.21740375259E+02  0.36450521026E+02  0.10000000000E+01 0.  0.
<mgrwt>
<rscale>  0 0.12500069E+03</rscale>
<asrwt>0</asrwt>
<pdfrwt beam="1">  1        4 0.47526690E-02 0.12500069E+03</pdfrwt>
<pdfrwt beam="2">  1       -4 0.19453626E-01 0.12500069E+03</pdfrwt>
<totfact> 0.97856375E+03</totfact>
</mgrwt>
</event>
<event>
 5    1  0.3206158E-002  0.1249994E+03  0.7818608E-02  0.1235070E+00
          4   -1    0    0  501    0  0.00000000000E+00  0.00000000000E+00  0.42198686883E+02  0.42217793341E+02  0.12700000000E+01 0. -1.
         -4   -1    0    0    0  501 -0.00000000000E+00 -0.00000000000E+00 -0.92522814513E+02  0.92531530331E+02  0.12700000000E+01 0. -1.
         25    2    1    2    0    0  0.00000000000E+00  0.00000000000E+00 -0.50324127630E+02  0.13474932367E+03  0.12499944963E+03 0.  0.
    9000005    1    3    3    0    0  0.30390834958E+02  0.49164876098E+02  0.44870742774E+00  0.57809940577E+02  0.10000000000E+01 0.  0.
    9000005    1    3    3    0    0 -0.30390834958E+02 -0.49164876098E+02 -0.50772835058E+02  0.76939383095E+02  0.10000000000E+01 0.  0.
<mgrwt>
<rscale>  0 0.12499945E+03</rscale>
<asrwt>0</asrwt>
<pdfrwt beam="1">  1        4 0.64942459E-02 0.12499945E+03</pdfrwt>
<pdfrwt beam="2">  1       -4 0.14236419E-01 0.12499945E+03</pdfrwt>
<totfact> 0.10243484E+04</totfact>
</mgrwt>
</event>
<event>
 5    1  0.3206158E-002  0.1249993E+03  0.7818608E-02  0.1235070E+00
          4   -1    0    0  501    0  0.00000000000E+00  0.00000000000E+00  0.81782405294E+02  0.81792265623E+02  0.12700000000E+01 0.  1.
         -4   -1    0    0    0  501 -0.00000000000E+00 -0.00000000000E+00 -0.47742202285E+02  0.47759091061E+02  0.12700000000E+01 0.  1.
         25    2    1    2    0    0  0.00000000000E+00  0.00000000000E+00  0.34040203009E+02  0.12955135668E+03  0.12499927439E+03 0.  0.
    9000005    1    3    3    0    0 -0.22635910736E+02 -0.58162190689E+02  0.20294222414E+02  0.65635968371E+02  0.10000000000E+01 0.  0.
    9000005    1    3    3    0    0  0.22635910736E+02  0.58162190689E+02  0.13745980596E+02  0.63915388313E+02  0.10000000000E+01 0.  0.
<mgrwt>
<rscale>  0 0.12499927E+03</rscale>
<asrwt>0</asrwt>
<pdfrwt beam="1">  1        4 0.12583966E-01 0.12499927E+03</pdfrwt>
<pdfrwt beam="2">  1       -4 0.73470118E-02 0.12499927E+03</pdfrwt>
<totfact> 0.10354284E+04</totfact>
</mgrwt>
</event>
<event>
 5    1  0.3206158E-002  0.1249868E+03  0.7818608E-02  0.1235090E+00
         -4   -1    0    0    0  501 -0.00000000000E+00  0.00000000000E+00  0.30538310950E+03  0.30538575027E+03  0.12700000000E+01 0.  1.
          4   -1    0    0  501    0  0.00000000000E+00 -0.00000000000E+00 -0.12754376152E+02  0.12817449474E+02  0.12700000000E+01 0.  1.
         25    2    1    2    0    0  0.00000000000E+00  0.00000000000E+00  0.29262873335E+03  0.31820319975E+03  0.12498680229E+03 0.  0.
    9000005    1    3    3    0    0  0.58418648921E+02 -0.21317512039E+02  0.13077599804E+03  0.14481207314E+03  0.10000000000E+01 0.  0.
    9000005    1    3    3    0    0 -0.58418648921E+02  0.21317512039E+02  0.16185273531E+03  0.17339112661E+03  0.10000000000E+01 0.  0.
<mgrwt>
<rscale>  0 0.12498680E+03</rscale>
<asrwt>0</asrwt>
<pdfrwt beam="2">  1        4 0.19672667E-02 0.12498680E+03</pdfrwt>
<pdfrwt beam="1">  1       -4 0.46987070E-01 0.12498680E+03</pdfrwt>
<totfact> 0.73391812E+03</totfact>
</mgrwt>
</event>
<event>
 5    1  0.3206158E-002  0.1250049E+03  0.7818608E-02  0.1235062E+00
         -4   -1    0    0    0  501 -0.00000000000E+00  0.00000000000E+00  0.15959661156E+02  0.16010111936E+02  0.12700000000E+01 0. -1.
          4   -1    0    0  501    0  0.00000000000E+00 -0.00000000000E+00 -0.24433840402E+03  0.24434170454E+03  0.12700000000E+01 0. -1.
         25    2    1    2    0    0  0.00000000000E+00  0.00000000000E+00 -0.22837874286E+03  0.26035181648E+03  0.12500487251E+03 0.  0.
    9000005    1    3    3    0    0 -0.30679627155E+02 -0.23396373598E+02 -0.11797558590E+02  0.40358545670E+02  0.10000000000E+01 0.  0.
    9000005    1    3    3    0    0  0.30679627155E+02  0.23396373598E+02 -0.21658118427E+03  0.21999327081E+03  0.10000000000E+01 0.  0.
<mgrwt>
<rscale>  0 0.12500487E+03</rscale>
<asrwt>0</asrwt>
<pdfrwt beam="2">  1        4 0.37594656E-01 0.12500487E+03</pdfrwt>
<pdfrwt beam="1">  1       -4 0.24594674E-02 0.12500487E+03</pdfrwt>
<totfact> 0.80847946E+03</totfact>
</mgrwt>
</event>
<event>
 5    1  0.3206158E-002  0.1250014E+03  0.7818608E-02  0.1235067E+00
         -4   -1    0    0    0  501 -0.00000000000E+00  0.00000000000E+00  0.10777529132E+04  0.10777536615E+04  0.12700000000E+01 0. -1.
          4   -1    0    0  501    0  0.00000000000E+00 -0.00000000000E+00 -0.35124982375E+01  0.37350426863E+01  0.12700000000E+01 0. -1.
         25    2    1    2    0    0  0.00000000000E+00  0.00000000000E+00  0.10742404150E+04  0.10814887042E+04  0.12500139231E+03 0.  0.
    9000005    1    3    3    0    0 -0.78160941342E+01 -0.55863133884E+02  0.30439512046E+03  0.30957902127E+03  0.10000000000E+01 0.  0.
    9000005    1    3    3    0    0  0.78160941342E+01  0.55863133884E+02  0.76984529453E+03  0.77190968291E+03  0.10000000000E+01 0.  0.
<mgrwt>
<rscale>  0 0.12500139E+03</rscale>
<asrwt>0</asrwt>
<pdfrwt beam="2">  1        4 0.55756054E-03 0.12500139E+03</pdfrwt>
<pdfrwt beam="1">  1       -4 0.16582537E+00 0.12500139E+03</pdfrwt>
<totfact> 0.28030714E+03</totfact>
</mgrwt>
</event>
<event>
 5    1  0.3206158E-002  0.1250031E+03  0.7818608E-02  0.1235064E+00
         -4   -1    0    0    0  501 -0.00000000000E+00  0.00000000000E+00  0.20510984499E+03  0.20511377675E+03  0.12700000000E+01 0.  1.
          4   -1    0    0  501    0  0.00000000000E+00 -0.00000000000E+00 -0.19020332826E+02  0.19062685037E+02  0.12700000000E+01 0.  1.
         25    2    1    2    0    0  0.00000000000E+00  0.00000000000E+00  0.18608951216E+03  0.22417646179E+03  0.12500311788E+03 0.  0.
    9000005    1    3    3    0    0  0.59303000597E+02  0.69780187492E+01  0.59981262796E+02  0.84642132016E+02  0.10000000000E+01 0.  0.
    9000005    1    3    3    0    0 -0.59303000597E+02 -0.69780187492E+01  0.12610824937E+03  0.13953432977E+03  0.10000000000E+01 0.  0.
<mgrwt>
<rscale>  0 0.12500312E+03</rscale>
<asrwt>0</asrwt>
<pdfrwt beam="2">  1        4 0.29297653E-02 0.12500312E+03</pdfrwt>
<pdfrwt beam="1">  1       -4 0.31558921E-01 0.12500312E+03</pdfrwt>
<totfact> 0.86205761E+03</totfact>
</mgrwt>
</event>
<event>
 5    1  0.3206158E-002  0.1250127E+03  0.7818608E-02  0.1235049E+00
          4   -1    0    0  501    0  0.00000000000E+00  0.00000000000E+00  0.68789579774E+01  0.69952099936E+01  0.12700000000E+01 0. -1.
         -4   -1    0    0    0  501 -0.00000000000E+00 -0.00000000000E+00 -0.56309420940E+03  0.56309564158E+03  0.12700000000E+01 0. -1.
         25    2    1    2    0    0  0.00000000000E+00  0.00000000000E+00 -0.55621525143E+03  0.57009085157E+03  0.12501269186E+03 0.  0.
    9000005    1    3    3    0    0  0.33420642853E+02 -0.52464630958E+02 -0.30568361710E+03  0.31195023743E+03  0.10000000000E+01 0.  0.
    9000005    1    3    3    0    0 -0.33420642853E+02  0.52464630958E+02 -0.25053163433E+03  0.25814061414E+03  0.10000000000E+01 0.  0.
<mgrwt>
<rscale>  0 0.12501269E+03</rscale>
<asrwt>0</asrwt>
<pdfrwt beam="1">  1        4 0.10673543E-02 0.12501269E+03</pdfrwt>
<pdfrwt beam="2">  1       -4 0.86638895E-01 0.12501269E+03</pdfrwt>
<totfact> 0.50797543E+03</totfact>
</mgrwt>
</event>
<event>
 5    1  0.3206158E-002  0.1250002E+03  0.7818608E-02  0.1235069E+00
          4   -1    0    0  501    0  0.00000000000E+00  0.00000000000E+00  0.32155433470E+03  0.32155684267E+03  0.12700000000E+01 0.  1.
         -4   -1    0    0    0  501 -0.00000000000E+00 -0.00000000000E+00 -0.12112310720E+02  0.12178709742E+02  0.12700000000E+01 0.  1.
         25    2    1    2    0    0  0.00000000000E+00  0.00000000000E+00  0.30944202398E+03  0.33373555241E+03  0.12500021094E+03 0.  0.
    9000005    1    3    3    0    0 -0.53200824706E+00  0.48654492255E+02  0.25941709530E+03  0.26394274376E+03  0.10000000000E+01 0.  0.
    9000005    1    3    3    0    0  0.53200824706E+00 -0.48654492255E+02  0.50024928680E+02  0.69792808647E+02  0.10000000000E+01 0.  0.
<mgrwt>
<rscale>  0 0.12500021E+03</rscale>
<asrwt>0</asrwt>
<pdfrwt beam="1">  1        4 0.49475206E-01 0.12500021E+03</pdfrwt>
<pdfrwt beam="2">  1       -4 0.18687327E-02 0.12500021E+03</pdfrwt>
<totfact> 0.71551362E+03</totfact>
</mgrwt>
</event>
<event>
 5    1  0.3206158E-002  0.1250003E+03  0.7818608E-02  0.1235069E+00
         -4   -1    0    0    0  501 -0.00000000000E+00  0.00000000000E+00  0.20584001109E+02  0.20623142380E+02  0.12700000000E+01 0.  1.
          4   -1    0    0  501    0  0.00000000000E+00 -0.00000000000E+00 -0.18955064681E+03  0.18955490130E+03  0.12700000000E+01 0.  1.
         25    2    1    2    0    0  0.00000000000E+00  0.00000000000E+00 -0.16896664570E+03  0.21017804368E+03  0.12500033074E+03 0.  0.
    9000005    1    3    3    0    0  0.30840766834E+02  0.96958355062E+01  0.54389842873E+01  0.32798546845E+02  0.10000000000E+01 0.  0.
    9000005    1    3    3    0    0 -0.30840766834E+02 -0.96958355062E+01 -0.17440562999E+03  0.17737949683E+03  0.10000000000E+01 0.  0.
<mgrwt>
<rscale>  0 0.12500033E+03</rscale>
<asrwt>0</asrwt>
<pdfrwt beam="2">  1        4 0.29164975E-01 0.12500033E+03</pdfrwt>
<pdfrwt beam="1">  1       -4 0.31701077E-02 0.12500033E+03</pdfrwt>
<totfact> 0.88446159E+03</totfact>
</mgrwt>
</event>
<event>
 5    1  0.3206158E-002  0.1250004E+03  0.7818608E-02  0.1235069E+00
         -4   -1    0    0    0  501 -0.00000000000E+00  0.00000000000E+00  0.10808138891E+02  0.10882498164E+02  0.12700000000E+01 0.  1.
          4   -1    0    0  501    0  0.00000000000E+00 -0.00000000000E+00 -0.36010532530E+03  0.36010756478E+03  0.12700000000E+01 0.  1.
         25    2    1    2    0    0  0.00000000000E+00  0.00000000000E+00 -0.34929718641E+03  0.37099006294E+03  0.12500040947E+03 0.  0.
    9000005    1    3    3    0    0 -0.46509513048E+02  0.33312532830E+02 -0.24928526187E+03  0.25576747532E+03  0.10000000000E+01 0.  0.
    9000005    1    3    3    0    0  0.46509513048E+02 -0.33312532830E+02 -0.10001192454E+03  0.11522258762E+03  0.10000000000E+01 0.  0.
<mgrwt>
<rscale>  0 0.12500041E+03</rscale>
<asrwt>0</asrwt>
<pdfrwt beam="2">  1        4 0.55406702E-01 0.12500041E+03</pdfrwt>
<pdfrwt beam="1">  1       -4 0.16686831E-02 0.12500041E+03</pdfrwt>
<totfact> 0.67474878E+03</totfact>
</mgrwt>
</event>
<event>
 5    1  0.3206158E-002  0.1249663E+03  0.7818608E-02  0.1235122E+00
         -4   -1    0    0    0  501 -0.00000000000E+00  0.00000000000E+00  0.10088910112E+03  0.10089709423E+03  0.12700000000E+01 0.  1.
          4   -1    0    0  501    0  0.00000000000E+00 -0.00000000000E+00 -0.38677459486E+02  0.38698304514E+02  0.12700000000E+01 0.  1.
         25    2    1    2    0    0  0.00000000000E+00  0.00000000000E+00  0.62211641634E+02  0.13959539875E+03  0.12496634346E+03 0.  0.
    9000005    1    3    3    0    0 -0.39281097698E+02 -0.78477465821E+01 -0.22449853255E+02  0.45930247920E+02  0.10000000000E+01 0.  0.
    9000005    1    3    3    0    0  0.39281097698E+02  0.78477465821E+01  0.84661494889E+02  0.93665150828E+02  0.10000000000E+01 0.  0.
<mgrwt>
<rscale>  0 0.12496634E+03</rscale>
<asrwt>0</asrwt>
<pdfrwt beam="2">  1        4 0.59525967E-02 0.12496634E+03</pdfrwt>
<pdfrwt beam="1">  1       -4 0.15523619E-01 0.12496634E+03</pdfrwt>
<totfact> 0.10149673E+04</totfact>
</mgrwt>
</event>
<event>
 5    1  0.3206158E-002  0.1250005E+03  0.7818608E-02  0.1235069E+00
          4   -1    0    0  501    0  0.00000000000E+00  0.00000000000E+00  0.16723231269E+04  0.16723236091E+04  0.12700000000E+01 0. -1.
         -4   -1    0    0    0  501 -0.00000000000E+00 -0.00000000000E+00 -0.21626960391E+01  0.25080179739E+01  0.12700000000E+01 0. -1.
         25    2    1    2    0    0  0.00000000000E+00  0.00000000000E+00  0.16701604309E+04  0.16748316271E+04  0.12500045738E+03 0.  0.
    9000005    1    3    3    0    0  0.71441859299E+01  0.54917511283E+02  0.12230169242E+04  0.12242705458E+04  0.10000000000E+01 0.  0.
    9000005    1    3    3    0    0 -0.71441859299E+01 -0.54917511283E+02  0.44714350668E+03  0.45056108132E+03  0.10000000000E+01 0.  0.
<mgrwt>
<rscale>  0 0.12500046E+03</rscale>
<asrwt>0</asrwt>
<pdfrwt beam="1">  1        4 0.25730771E+00 0.12500046E+03</pdfrwt>
<pdfrwt beam="2">  1       -4 0.35932191E-03 0.12500046E+03</pdfrwt>
<totfact> 0.14731955E+03</totfact>
</mgrwt>
</event>
<event>
 5    1  0.3206158E-002  0.1249695E+03  0.7818608E-02  0.1235117E+00
          4   -1    0    0  501    0  0.00000000000E+00  0.00000000000E+00  0.25750101286E+03  0.25750414467E+03  0.12700000000E+01 0.  1.
         -4   -1    0    0    0  501 -0.00000000000E+00 -0.00000000000E+00 -0.15132624714E+02  0.15185823348E+02  0.12700000000E+01 0.  1.
         25    2    1    2    0    0  0.00000000000E+00  0.00000000000E+00  0.24236838814E+03  0.27268996802E+03  0.12496952863E+03 0.  0.
    9000005    1    3    3    0    0  0.94886382629E+01 -0.78292596815E+01 -0.12474516295E+02  0.17548365167E+02  0.10000000000E+01 0.  0.
    9000005    1    3    3    0    0 -0.94886382629E+01  0.78292596815E+01  0.25484290444E+03  0.25514160285E+03  0.10000000000E+01 0.  0.
<mgrwt>
<rscale>  0 0.12496953E+03</rscale>
<asrwt>0</asrwt>
<pdfrwt beam="1">  1        4 0.39619873E-01 0.12496953E+03</pdfrwt>
<pdfrwt beam="2">  1       -4 0.23324293E-02 0.12496953E+03</pdfrwt>
<totfact> 0.79211120E+03</totfact>
</mgrwt>
</event>
<event>
 5    1  0.3206158E-002  0.1249952E+03  0.7818608E-02  0.1235077E+00
          4   -1    0    0  501    0  0.00000000000E+00  0.00000000000E+00  0.45590188999E+02  0.45607874681E+02  0.12700000000E+01 0.  1.
         -4   -1    0    0    0  501 -0.00000000000E+00 -0.00000000000E+00 -0.85636239143E+02  0.85645655783E+02  0.12700000000E+01 0.  1.
         25    2    1    2    0    0  0.00000000000E+00  0.00000000000E+00 -0.40046050144E+02  0.13125353046E+03  0.12499521242E+03 0.  0.
    9000005    1    3    3    0    0 -0.10635700840E+02 -0.31206442335E+02  0.35719595962E+02  0.48619437587E+02  0.10000000000E+01 0.  0.
    9000005    1    3    3    0    0  0.10635700840E+02  0.31206442335E+02 -0.75765646107E+02  0.82634092877E+02  0.10000000000E+01 0.  0.
<mgrwt>
<rscale>  0 0.12499521E+03</rscale>
<asrwt>0</asrwt>
<pdfrwt beam="1">  1        4 0.70159600E-02 0.12499521E+03</pdfrwt>
<pdfrwt beam="2">  1       -4 0.13176891E-01 0.12499521E+03</pdfrwt>
<totfact> 0.10318772E+04</totfact>
</mgrwt>
</event>
<event>
 5    1  0.3206158E-002  0.1250009E+03  0.7818608E-02  0.1235068E+00
          4   -1    0    0  501    0  0.00000000000E+00  0.00000000000E+00  0.76996730296E+02  0.77007203405E+02  0.12700000000E+01 0. -1.
         -4   -1    0    0    0  501 -0.00000000000E+00 -0.00000000000E+00 -0.50711540268E+02  0.50727440467E+02  0.12700000000E+01 0. -1.
         25    2    1    2    0    0  0.00000000000E+00  0.00000000000E+00  0.26285190028E+02  0.12773464387E+03  0.12500091212E+03 0.  0.
    9000005    1    3    3    0    0 -0.55722557458E+02  0.25381315624E+02  0.37566670562E+00  0.61240147925E+02  0.10000000000E+01 0.  0.
    9000005    1    3    3    0    0  0.55722557458E+02 -0.25381315624E+02  0.25909523323E+02  0.66494495947E+02  0.10000000000E+01 0.  0.
<mgrwt>
<rscale>  0 0.12500091E+03</rscale>
<asrwt>0</asrwt>
<pdfrwt beam="1">  1        4 0.11847679E-01 0.12500091E+03</pdfrwt>
<pdfrwt beam="2">  1       -4 0.78038042E-02 0.12500091E+03</pdfrwt>
<totfact> 0.10393008E+04</totfact>
</mgrwt>
</event>
<event>
 5    1  0.3206158E-002  0.1250019E+03  0.7818608E-02  0.1235066E+00
          4   -1    0    0  501    0  0.00000000000E+00  0.00000000000E+00  0.18583097592E+04  0.18583101931E+04  0.12700000000E+01 0. -1.
         -4   -1    0    0    0  501 -0.00000000000E+00 -0.00000000000E+00 -0.19098145367E+01  0.22935325514E+01  0.12700000000E+01 0. -1.
         25    2    1    2    0    0  0.00000000000E+00  0.00000000000E+00  0.18563999446E+04  0.18606037257E+04  0.12500187847E+03 0.  0.
    9000005    1    3    3    0    0 -0.78007992290E+01  0.21551613779E+02  0.62836714324E+02  0.66893775437E+02  0.10000000000E+01 0.  0.
    9000005    1    3    3    0    0  0.78007992290E+01 -0.21551613779E+02  0.17935632303E+04  0.17937099503E+04  0.10000000000E+01 0.  0.
<mgrwt>
<rscale>  0 0.12500188E+03</rscale>
<asrwt>0</asrwt>
<pdfrwt beam="1">  1        4 0.28592345E+00 0.12500188E+03</pdfrwt>
<pdfrwt beam="2">  1       -4 0.32336767E-03 0.12500188E+03</pdfrwt>
<totfact> 0.11791882E+03</totfact>
</mgrwt>
</event>
<event>
 5    1  0.3206158E-002  0.1250008E+03  0.7818608E-02  0.1235068E+00
         -4   -1    0    0    0  501 -0.00000000000E+00  0.00000000000E+00  0.99771466879E+02  0.99779549524E+02  0.12700000000E+01 0.  1.
          4   -1    0    0  501    0  0.00000000000E+00 -0.00000000000E+00 -0.39132513700E+02  0.39153116459E+02  0.12700000000E+01 0.  1.
         25    2    1    2    0    0  0.00000000000E+00  0.00000000000E+00  0.60638953179E+02  0.13893266598E+03  0.12500081214E+03 0.  0.
    9000005    1    3    3    0    0  0.60605257411E+02 -0.13694026833E+02  0.22882099245E+02  0.66220193767E+02  0.10000000000E+01 0.  0.
    9000005    1    3    3    0    0 -0.60605257411E+02  0.13694026833E+02  0.37756853934E+02  0.72712472216E+02  0.10000000000E+01 0.  0.
<mgrwt>
<rscale>  0 0.12500081E+03</rscale>
<asrwt>0</asrwt>
<pdfrwt beam="2">  1        4 0.60225933E-02 0.12500081E+03</pdfrwt>
<pdfrwt beam="1">  1       -4 0.15351663E-01 0.12500081E+03</pdfrwt>
<totfact> 0.10155569E+04</totfact>
</mgrwt>
</event>
<event>
 5    1  0.3206158E-002  0.1250057E+03  0.7818608E-02  0.1235060E+00
         -4   -1    0    0    0  501 -0.00000000000E+00  0.00000000000E+00  0.73686261051E+02  0.73697204612E+02  0.12700000000E+01 0.  1.
          4   -1    0    0  501    0  0.00000000000E+00 -0.00000000000E+00 -0.52994280783E+02  0.53009496279E+02  0.12700000000E+01 0.  1.
         25    2    1    2    0    0  0.00000000000E+00  0.00000000000E+00  0.20691980268E+02  0.12670670089E+03  0.12500571988E+03 0.  0.
    9000005    1    3    3    0    0 -0.45785803419E+02 -0.34172811060E+02  0.36018215862E+02  0.67545782136E+02  0.10000000000E+01 0.  0.
    9000005    1    3    3    0    0  0.45785803419E+02  0.34172811060E+02 -0.15326235594E+02  0.59160918755E+02  0.10000000000E+01 0.  0.
<mgrwt>
<rscale>  0 0.12500572E+03</rscale>
<asrwt>0</asrwt>
<pdfrwt beam="2">  1        4 0.81549785E-02 0.12500572E+03</pdfrwt>
<pdfrwt beam="1">  1       -4 0.11338360E-01 0.12500572E+03</pdfrwt>
<totfact> 0.10414180E+04</totfact>
</mgrwt>
</event>
<event>
 5    1  0.3206158E-002  0.1250056E+03  0.7818608E-02  0.1235060E+00
         -4   -1    0    0    0  501 -0.00000000000E+00  0.00000000000E+00  0.54794643235E+03  0.54794790411E+03  0.12700000000E+01 0. -1.
          4   -1    0    0  501    0  0.00000000000E+00 -0.00000000000E+00 -0.70714825082E+01  0.71846200222E+01  0.12700000000E+01 0. -1.
         25    2    1    2    0    0  0.00000000000E+00  0.00000000000E+00  0.54087494984E+03  0.55513252414E+03  0.12500563183E+03 0.  0.
    9000005    1    3    3    0    0  0.41544322973E+02  0.42889502480E+02  0.35234237135E+03  0.35736757945E+03  0.10000000000E+01 0.  0.
    9000005    1    3    3    0    0 -0.41544322973E+02 -0.42889502480E+02  0.18853257849E+03  0.19776494469E+03  0.10000000000E+01 0.  0.
<mgrwt>
<rscale>  0 0.12500563E+03</rscale>
<asrwt>0</asrwt>
<pdfrwt beam="2">  1        4 0.10967362E-02 0.12500563E+03</pdfrwt>
<pdfrwt beam="1">  1       -4 0.84308289E-01 0.12500563E+03</pdfrwt>
<totfact> 0.51821635E+03</totfact>
</mgrwt>
</event>
<event>
 5    1  0.3206158E-002  0.1249956E+03  0.7818608E-02  0.1235076E+00
         -4   -1    0    0    0  501 -0.00000000000E+00  0.00000000000E+00  0.36502561146E+01  0.38648764149E+01  0.12700000000E+01 0.  1.
          4   -1    0    0  501    0  0.00000000000E+00 -0.00000000000E+00 -0.10392814917E+04  0.10392822677E+04  0.12700000000E+01 0.  1.
         25    2    1    2    0    0  0.00000000000E+00  0.00000000000E+00 -0.10356312356E+04  0.10431471441E+04  0.12499563228E+03 0.  0.
    9000005    1    3    3    0    0 -0.61698803368E+02  0.94214160084E+01 -0.49213162495E+03  0.49607463319E+03  0.10000000000E+01 0.  0.
    9000005    1    3    3    0    0  0.61698803368E+02 -0.94214160084E+01 -0.54349961064E+03  0.54707251090E+03  0.10000000000E+01 0.  0.
<mgrwt>
<rscale>  0 0.12499563E+03</rscale>
<asrwt>0</asrwt>
<pdfrwt beam="2">  1        4 0.15990580E+00 0.12499563E+03</pdfrwt>
<pdfrwt beam="1">  1       -4 0.57814763E-03 0.12499563E+03</pdfrwt>
<totfact> 0.29212537E+03</totfact>
</mgrwt>
</event>
<event>
 5    1  0.3206158E-002  0.1250026E+03  0.7818608E-02  0.1235065E+00
         -4   -1    0    0    0  501 -0.00000000000E+00  0.00000000000E+00  0.63829435024E+02  0.63842068227E+02  0.12700000000E+01 0.  1.
          4   -1    0    0  501    0  0.00000000000E+00 -0.00000000000E+00 -0.61175493603E+02  0.61188674749E+02  0.12700000000E+01 0.  1.
         25    2    1    2    0    0  0.00000000000E+00  0.00000000000E+00  0.26539414206E+01  0.12503074298E+03  0.12500257311E+03 0.  0.
    9000005    1    3    3    0    0  0.59146964798E+02  0.16455035664E+02  0.13003468754E+02  0.62763220466E+02  0.10000000000E+01 0.  0.
    9000005    1    3    3    0    0 -0.59146964798E+02 -0.16455035664E+02 -0.10349527334E+02  0.62267522510E+02  0.10000000000E+01 0.  0.
<mgrwt>
<rscale>  0 0.12500257E+03</rscale>
<asrwt>0</asrwt>
<pdfrwt beam="2">  1        4 0.94136002E-02 0.12500257E+03</pdfrwt>
<pdfrwt beam="1">  1       -4 0.98218987E-02 0.12500257E+03</pdfrwt>
<totfact> 0.10451587E+04</totfact>
</mgrwt>
</event>
<event>
 5    1  0.3206158E-002  0.1250012E+03  0.7818608E-02  0.1235067E+00
          4   -1    0    0  501    0  0.00000000000E+00  0.00000000000E+00  0.19087335917E+01  0.22926325314E+01  0.12700000000E+01 0.  1.
         -4   -1    0    0    0  501 -0.00000000000E+00 -0.00000000000E+00 -0.18591664013E+04  0.18591668351E+04  0.12700000000E+01 0.  1.
         25    2    1    2    0    0  0.00000000000E+00  0.00000000000E+00 -0.18572576677E+04  0.18614594676E+04  0.12500122103E+03 0.  0.
    9000005    1    3    3    0    0 -0.58336005580E+02  0.20338316062E+02 -0.78846664690E+03  0.79088392949E+03  0.10000000000E+01 0.  0.
    9000005    1    3    3    0    0  0.58336005580E+02 -0.20338316062E+02 -0.10687910208E+04  0.10705755381E+04  0.10000000000E+01 0.  0.
<mgrwt>
<rscale>  0 0.12500122E+03</rscale>
<asrwt>0</asrwt>
<pdfrwt beam="1">  1        4 0.32321686E-03 0.12500122E+03</pdfrwt>
<pdfrwt beam="2">  1       -4 0.28605385E+00 0.12500122E+03</pdfrwt>
<totfact> 0.11779630E+03</totfact>
</mgrwt>
</event>
<event>
 5    1  0.3206158E-002  0.1250004E+03  0.7818608E-02  0.1235069E+00
         -4   -1    0    0    0  501 -0.00000000000E+00  0.00000000000E+00  0.22143242195E+03  0.22143606389E+03  0.12700000000E+01 0.  1.
          4   -1    0    0  501    0  0.00000000000E+00 -0.00000000000E+00 -0.17614274254E+02  0.17659998797E+02  0.12700000000E+01 0.  1.
         25    2    1    2    0    0  0.00000000000E+00  0.00000000000E+00  0.20381814769E+03  0.23909606268E+03  0.12500035945E+03 0.  0.
    9000005    1    3    3    0    0  0.39950111574E+02 -0.37233093635E+02  0.16001923532E+03  0.16908421082E+03  0.10000000000E+01 0.  0.
    9000005    1    3    3    0    0 -0.39950111574E+02  0.37233093635E+02  0.43798912378E+02  0.70011851867E+02  0.10000000000E+01 0.  0.
<mgrwt>
<rscale>  0 0.12500036E+03</rscale>
<asrwt>0</asrwt>
<pdfrwt beam="2">  1        4 0.27136854E-02 0.12500036E+03</pdfrwt>
<pdfrwt beam="1">  1       -4 0.34070329E-01 0.12500036E+03</pdfrwt>
<totfact> 0.83931499E+03</totfact>
</mgrwt>
</event>
<event>
 5    1  0.3206158E-002  0.1250030E+03  0.7818608E-02  0.1235065E+00
          4   -1    0    0  501    0  0.00000000000E+00  0.00000000000E+00  0.13051249086E+03  0.13051866982E+03  0.12700000000E+01 0.  1.
         -4   -1    0    0    0  501 -0.00000000000E+00 -0.00000000000E+00 -0.29911161975E+02  0.29938111341E+02  0.12700000000E+01 0.  1.
         25    2    1    2    0    0  0.00000000000E+00  0.00000000000E+00  0.10060132889E+03  0.16045678116E+03  0.12500300495E+03 0.  0.
    9000005    1    3    3    0    0  0.56430322797E+01 -0.49070143703E+02  0.99443746270E+02  0.11103954921E+03  0.10000000000E+01 0.  0.
    9000005    1    3    3    0    0 -0.56430322797E+01  0.49070143703E+02  0.11575826202E+01  0.49417231953E+02  0.10000000000E+01 0.  0.
<mgrwt>
<rscale>  0 0.12500300E+03</rscale>
<asrwt>0</asrwt>
<pdfrwt beam="1">  1        4 0.20081393E-01 0.12500300E+03</pdfrwt>
<pdfrwt beam="2">  1       -4 0.46042655E-02 0.12500300E+03</pdfrwt>
<totfact> 0.97248225E+03</totfact>
</mgrwt>
</event>
<event>
 5    1  0.3206158E-002  0.1250019E+03  0.7818608E-02  0.1235066E+00
         -4   -1    0    0    0  501 -0.00000000000E+00  0.00000000000E+00  0.19546756684E+03  0.19547169255E+03  0.12700000000E+01 0.  1.
          4   -1    0    0  501    0  0.00000000000E+00 -0.00000000000E+00 -0.19960237671E+02  0.20000599688E+02  0.12700000000E+01 0.  1.
         25    2    1    2    0    0  0.00000000000E+00  0.00000000000E+00  0.17550732917E+03  0.21547229224E+03  0.12500194450E+03 0.  0.
    9000005    1    3    3    0    0  0.24948151874E+02  0.21088111364E+02  0.17958696677E+03  0.18253656444E+03  0.10000000000E+01 0.  0.
    9000005    1    3    3    0    0 -0.24948151874E+02 -0.21088111364E+02 -0.40796375966E+01  0.32935727800E+02  0.10000000000E+01 0.  0.
<mgrwt>
<rscale>  0 0.12500194E+03</rscale>
<asrwt>0</asrwt>
<pdfrwt beam="2">  1        4 0.30742278E-02 0.12500194E+03</pdfrwt>
<pdfrwt beam="1">  1       -4 0.30075356E-01 0.12500194E+03</pdfrwt>
<totfact> 0.87586102E+03</totfact>
</mgrwt>
</event>
<event>
 5    1  0.3206158E-002  0.1250038E+03  0.7818608E-02  0.1235063E+00
          4   -1    0    0  501    0  0.00000000000E+00  0.00000000000E+00  0.43044815407E+01  0.44879239448E+01  0.12700000000E+01 0. -1.
         -4   -1    0    0    0  501 -0.00000000000E+00 -0.00000000000E+00 -0.88842144779E+03  0.88842235552E+03  0.12700000000E+01 0. -1.
         25    2    1    2    0    0  0.00000000000E+00  0.00000000000E+00 -0.88411696625E+03  0.89291027946E+03  0.12500382862E+03 0.  0.
    9000005    1    3    3    0    0 -0.13425601194E+02  0.55394848653E+02 -0.62510124614E+03  0.62769531140E+03  0.10000000000E+01 0.  0.
    9000005    1    3    3    0    0  0.13425601194E+02 -0.55394848653E+02 -0.25901572011E+03  0.26521496807E+03  0.10000000000E+01 0.  0.
<mgrwt>
<rscale>  0 0.12500383E+03</rscale>
<asrwt>0</asrwt>
<pdfrwt beam="1">  1        4 0.67640942E-03 0.12500383E+03</pdfrwt>
<pdfrwt beam="2">  1       -4 0.13669426E+00 0.12500383E+03</pdfrwt>
<totfact> 0.34429858E+03</totfact>
</mgrwt>
</event>
<event>
 5    1  0.3206158E-002  0.1249987E+03  0.7818608E-02  0.1235071E+00
          4   -1    0    0  501    0  0.00000000000E+00  0.00000000000E+00  0.35211512367E+03  0.35211741397E+03  0.12700000000E+01 0. -1.
         -4   -1    0    0    0  501 -0.00000000000E+00 -0.00000000000E+00 -0.11054767477E+02  0.11127478779E+02  0.12700000000E+01 0. -1.
         25    2    1    2    0    0  0.00000000000E+00  0.00000000000E+00  0.34106035619E+03  0.36324489274E+03  0.12499874214E+03 0.  0.
    9000005    1    3    3    0    0 -0.48034762579E+02 -0.38408184911E+02  0.20271251365E+03  0.21183930295E+03  0.10000000000E+01 0.  0.
    9000005    1    3    3    0    0  0.48034762579E+02  0.38408184911E+02  0.13834784255E+03  0.15140558980E+03  0.10000000000E+01 0.  0.
<mgrwt>
<rscale>  0 0.12499874E+03</rscale>
<asrwt>0</asrwt>
<pdfrwt beam="1">  1        4 0.54177327E-01 0.12499874E+03</pdfrwt>
<pdfrwt beam="2">  1       -4 0.17065028E-02 0.12499874E+03</pdfrwt>
<totfact> 0.68293517E+03</totfact>
</mgrwt>
</event>
<event>
 5    1  0.3206158E-002  0.1250022E+03  0.7818608E-02  0.1235066E+00
         -4   -1    0    0    0  501 -0.00000000000E+00  0.00000000000E+00  0.12467338369E+04  0.12467344837E+04  0.12700000000E+01 0.  1.
          4   -1    0    0  501    0  0.00000000000E+00 -0.00000000000E+00 -0.30039322622E+01  0.32613661303E+01  0.12700000000E+01 0.  1.
         25    2    1    2    0    0  0.00000000000E+00  0.00000000000E+00  0.12437299046E+04  0.12499958498E+04  0.12500219609E+03 0.  0.
    9000005    1    3    3    0    0 -0.72423501770E+01  0.34745241960E+02  0.10751164439E+03  0.11322295330E+03  0.10000000000E+01 0.  0.
    9000005    1    3    3    0    0  0.72423501770E+01 -0.34745241960E+02  0.11362182602E+04  0.11367728965E+04  0.10000000000E+01 0.  0.
<mgrwt>
<rscale>  0 0.12500220E+03</rscale>
<asrwt>0</asrwt>
<pdfrwt beam="2">  1        4 0.48199620E-03 0.12500220E+03</pdfrwt>
<pdfrwt beam="1">  1       -4 0.19182489E+00 0.12500220E+03</pdfrwt>
<totfact> 0.23439193E+03</totfact>
</mgrwt>
</event>
<event>
 5    1  0.3206158E-002  0.1250025E+03  0.7818608E-02  0.1235065E+00
          4   -1    0    0  501    0  0.00000000000E+00  0.00000000000E+00  0.48673037892E+01  0.50302630325E+01  0.12700000000E+01 0.  1.
         -4   -1    0    0    0  501 -0.00000000000E+00 -0.00000000000E+00 -0.78920391814E+03  0.78920494000E+03  0.12700000000E+01 0.  1.
         25    2    1    2    0    0  0.00000000000E+00  0.00000000000E+00 -0.78433661436E+03  0.79423520303E+03  0.12500253242E+03 0.  0.
    9000005    1    3    3    0    0 -0.53083765864E+01 -0.51531492926E+02 -0.61425307224E+03  0.61643451427E+03  0.10000000000E+01 0.  0.
    9000005    1    3    3    0    0  0.53083765864E+01  0.51531492926E+02 -0.17008354211E+03  0.17780068876E+03  0.10000000000E+01 0.  0.
<mgrwt>
<rscale>  0 0.12500253E+03</rscale>
<asrwt>0</asrwt>
<pdfrwt beam="1">  1        4 0.76143052E-03 0.12500253E+03</pdfrwt>
<pdfrwt beam="2">  1       -4 0.12142850E+00 0.12500253E+03</pdfrwt>
<totfact> 0.38521278E+03</totfact>
</mgrwt>
</event>
<event>
 5    1  0.3206158E-002  0.1250003E+03  0.7818608E-02  0.1235069E+00
          4   -1    0    0  501    0  0.00000000000E+00  0.00000000000E+00  0.13753849850E+02  0.13812359889E+02  0.12700000000E+01 0. -1.
         -4   -1    0    0    0  501 -0.00000000000E+00 -0.00000000000E+00 -0.28335018106E+03  0.28335302717E+03  0.12700000000E+01 0. -1.
         25    2    1    2    0    0  0.00000000000E+00  0.00000000000E+00 -0.26959633121E+03  0.29716538706E+03  0.12500034186E+03 0.  0.
    9000005    1    3    3    0    0  0.27009360984E+02  0.38757401289E+01 -0.26845208907E+03  0.26983708246E+03  0.10000000000E+01 0.  0.
    9000005    1    3    3    0    0 -0.27009360984E+02 -0.38757401289E+01 -0.11442421364E+01  0.27328304601E+02  0.10000000000E+01 0.  0.
<mgrwt>
<rscale>  0 0.12500034E+03</rscale>
<asrwt>0</asrwt>
<pdfrwt beam="1">  1        4 0.21206968E-02 0.12500034E+03</pdfrwt>
<pdfrwt beam="2">  1       -4 0.43597051E-01 0.12500034E+03</pdfrwt>
<totfact> 0.75955214E+03</totfact>
</mgrwt>
</event>
<event>
 5    1  0.3206158E-002  0.1250002E+03  0.7818608E-02  0.1235069E+00
          4   -1    0    0  501    0  0.00000000000E+00  0.00000000000E+00  0.82220200135E+02  0.82230007967E+02  0.12700000000E+01 0. -1.
         -4   -1    0    0    0  501 -0.00000000000E+00 -0.00000000000E+00 -0.47488621703E+02  0.47505600630E+02  0.12700000000E+01 0. -1.
         25    2    1    2    0    0  0.00000000000E+00  0.00000000000E+00  0.34731578432E+02  0.12973560860E+03  0.12500018239E+03 0.  0.
    9000005    1    3    3    0    0  0.41688752784E+01  0.42448810356E+02 -0.30036973753E+02  0.52177589193E+02  0.10000000000E+01 0.  0.
    9000005    1    3    3    0    0 -0.41688752784E+01 -0.42448810356E+02  0.64768552185E+02  0.77558019404E+02  0.10000000000E+01 0.  0.
<mgrwt>
<rscale>  0 0.12500018E+03</rscale>
<asrwt>0</asrwt>
<pdfrwt beam="1">  1        4 0.12651322E-01 0.12500018E+03</pdfrwt>
<pdfrwt beam="2">  1       -4 0.73080024E-02 0.12500018E+03</pdfrwt>
<totfact> 0.10350124E+04</totfact>
</mgrwt>
</event>
<event>
 5    1  0.3206158E-002  0.1249972E+03  0.7818608E-02  0.1235074E+00
         -4   -1    0    0    0  501 -0.00000000000E+00  0.00000000000E+00  0.11225586551E+02  0.11297198476E+02  0.12700000000E+01 0. -1.
          4   -1    0    0  501    0  0.00000000000E+00 -0.00000000000E+00 -0.34678277269E+03  0.34678509820E+03  0.12700000000E+01 0. -1.
         25    2    1    2    0    0  0.00000000000E+00  0.00000000000E+00 -0.33555718614E+03  0.35808229668E+03  0.12499722407E+03 0.  0.
    9000005    1    3    3    0    0  0.47569326490E+02  0.27295814068E+02 -0.81971957398E+02  0.98632165585E+02  0.10000000000E+01 0.  0.
    9000005    1    3    3    0    0 -0.47569326490E+02 -0.27295814068E+02 -0.25358522874E+03  0.25945013109E+03  0.10000000000E+01 0.  0.
<mgrwt>
<rscale>  0 0.12499722E+03</rscale>
<asrwt>0</asrwt>
<pdfrwt beam="2">  1        4 0.53356875E-01 0.12499722E+03</pdfrwt>
<pdfrwt beam="1">  1       -4 0.17327011E-02 0.12499722E+03</pdfrwt>
<totfact> 0.68848693E+03</totfact>
</mgrwt>
</event>
<event>
 5    1  0.3206158E-002  0.1250009E+03  0.7818608E-02  0.1235068E+00
         -4   -1    0    0    0  501 -0.00000000000E+00  0.00000000000E+00  0.22268264122E+02  0.22304449937E+02  0.12700000000E+01 0.  1.
          4   -1    0    0  501    0  0.00000000000E+00 -0.00000000000E+00 -0.17523930955E+03  0.17524391148E+03  0.12700000000E+01 0.  1.
         25    2    1    2    0    0  0.00000000000E+00  0.00000000000E+00 -0.15297104542E+03  0.19754836142E+03  0.12500085744E+03 0.  0.
    9000005    1    3    3    0    0 -0.47496311799E+01 -0.58437617312E+02 -0.42304451940E+02  0.72306159955E+02  0.10000000000E+01 0.  0.
    9000005    1    3    3    0    0  0.47496311799E+01  0.58437617312E+02 -0.11066659348E+03  0.12524220146E+03  0.10000000000E+01 0.  0.
<mgrwt>
<rscale>  0 0.12500086E+03</rscale>
<asrwt>0</asrwt>
<pdfrwt beam="2">  1        4 0.26963030E-01 0.12500086E+03</pdfrwt>
<pdfrwt beam="1">  1       -4 0.34290244E-02 0.12500086E+03</pdfrwt>
<totfact> 0.90548522E+03</totfact>
</mgrwt>
</event>
<event>
 5    1  0.3206158E-002  0.1249978E+03  0.7818608E-02  0.1235073E+00
         -4   -1    0    0    0  501 -0.00000000000E+00  0.00000000000E+00  0.23621145169E+03  0.23621486577E+03  0.12700000000E+01 0. -1.
          4   -1    0    0  501    0  0.00000000000E+00 -0.00000000000E+00 -0.16508572129E+02  0.16557350445E+02  0.12700000000E+01 0. -1.
         25    2    1    2    0    0  0.00000000000E+00  0.00000000000E+00  0.21970287956E+03  0.25277221622E+03  0.12499775199E+03 0.  0.
    9000005    1    3    3    0    0  0.19269866583E+02 -0.26885361141E+02  0.21706615512E+03  0.21957428379E+03  0.10000000000E+01 0.  0.
    9000005    1    3    3    0    0 -0.19269866583E+02  0.26885361141E+02  0.26367244446E+01  0.33197932429E+02  0.10000000000E+01 0.  0.
<mgrwt>
<rscale>  0 0.12499775E+03</rscale>
<asrwt>0</asrwt>
<pdfrwt beam="2">  1        4 0.25437952E-02 0.12499775E+03</pdfrwt>
<pdfrwt beam="1">  1       -4 0.36344237E-01 0.12499775E+03</pdfrwt>
<totfact> 0.81935302E+03</totfact>
</mgrwt>
</event>
<event>
 5    1  0.3206158E-002  0.1250043E+03  0.7818608E-02  0.1235062E+00
         -4   -1    0    0    0  501 -0.00000000000E+00  0.00000000000E+00  0.18649864988E+02  0.18693056574E+02  0.12700000000E+01 0. -1.
          4   -1    0    0  501    0  0.00000000000E+00 -0.00000000000E+00 -0.20917906960E+03  0.20918292487E+03  0.12700000000E+01 0. -1.
         25    2    1    2    0    0  0.00000000000E+00  0.00000000000E+00 -0.19052920461E+03  0.22787598145E+03  0.12500434037E+03 0.  0.
    9000005    1    3    3    0    0 -0.59510513347E+02  0.11193422763E+02 -0.67098642036E+02  0.90388172207E+02  0.10000000000E+01 0.  0.
    9000005    1    3    3    0    0  0.59510513347E+02 -0.11193422763E+02 -0.12343056258E+03  0.13748780924E+03  0.10000000000E+01 0.  0.
<mgrwt>
<rscale>  0 0.12500434E+03</rscale>
<asrwt>0</asrwt>
<pdfrwt beam="2">  1        4 0.32185013E-01 0.12500434E+03</pdfrwt>
<pdfrwt beam="1">  1       -4 0.28728291E-02 0.12500434E+03</pdfrwt>
<totfact> 0.85628519E+03</totfact>
</mgrwt>
</event>
<event>
 5    1  0.3206158E-002  0.1249932E+03  0.7818608E-02  0.1235080E+00
         -4   -1    0    0    0  501 -0.00000000000E+00  0.00000000000E+00  0.90970520599E+02  0.90979385127E+02  0.12700000000E+01 0.  1.
          4   -1    0    0  501    0  0.00000000000E+00 -0.00000000000E+00 -0.42914725964E+02  0.42933513769E+02  0.12700000000E+01 0.  1.
         25    2    1    2    0    0  0.00000000000E+00  0.00000000000E+00  0.48055794636E+02  0.13391289890E+03  0.12499322019E+03 0.  0.
    9000005    1    3    3    0    0 -0.26314217285E+02  0.39623762636E+02 -0.19389945339E+02  0.51375583471E+02  0.10000000000E+01 0.  0.
    9000005    1    3    3    0    0  0.26314217285E+02 -0.39623762636E+02  0.67445739975E+02  0.82537315424E+02  0.10000000000E+01 0.  0.
<mgrwt>
<rscale>  0 0.12499322E+03</rscale>
<asrwt>0</asrwt>
<pdfrwt beam="2">  1        4 0.66043927E-02 0.12499322E+03</pdfrwt>
<pdfrwt beam="1">  1       -4 0.13997592E-01 0.12499322E+03</pdfrwt>
<totfact> 0.10262605E+04</totfact>
</mgrwt>
</event>
<event>
 5    1  0.3206158E-002  0.1249979E+03  0.7818608E-02  0.1235073E+00
         -4   -1    0    0    0  501 -0.00000000000E+00  0.00000000000E+00  0.11617705639E+02  0.11686915089E+02  0.12700000000E+01 0.  1.
          4   -1    0    0  501    0  0.00000000000E+00 -0.00000000000E+00 -0.33515220265E+03  0.33515460886E+03  0.12700000000E+01 0.  1.
         25    2    1    2    0    0  0.00000000000E+00  0.00000000000E+00 -0.32353449701E+03  0.34684152395E+03  0.12499788790E+03 0.  0.
    9000005    1    3    3    0    0 -0.37216772505E+02 -0.47531633158E+02 -0.20657573718E+03  0.21521821367E+03  0.10000000000E+01 0.  0.
    9000005    1    3    3    0    0  0.37216772505E+02  0.47531633158E+02 -0.11695875983E+03  0.13162331027E+03  0.10000000000E+01 0.  0.
<mgrwt>
<rscale>  0 0.12499789E+03</rscale>
<asrwt>0</asrwt>
<pdfrwt beam="2">  1        4 0.51567379E-01 0.12499789E+03</pdfrwt>
<pdfrwt beam="1">  1       -4 0.17928485E-02 0.12499789E+03</pdfrwt>
<totfact> 0.70076709E+03</totfact>
</mgrwt>
</event>
<event>
 4    1  0.3206158E-002  0.1257243E+03  0.7818608E-02  0.1233942E+00
          4   -1    0    0  501    0  0.00000000000E+00  0.00000000000E+00  0.17931204909E+01  0.21973122434E+01  0.12700000000E+01 0.  1.
         -4   -1    0    0    0  501 -0.00000000000E+00 -0.00000000000E+00 -0.19801579194E+04  0.19801583266E+04  0.12700000000E+01 0.  1.
    9000005    1    1    2    0    0  0.49454317456E+02  0.32761523241E+02 -0.13167528969E+04  0.13180888583E+04  0.10000000000E+01 0.  0.
    9000005    1    1    2    0    0 -0.49454317456E+02 -0.32761523241E+02 -0.66161190200E+03  0.66426678058E+03  0.10000000000E+01 0.  0.
<mgrwt>
<rscale>  0 0.12572431E+03</rscale>
<asrwt>0</asrwt>
<pdfrwt beam="1">  1        4 0.30698928E-03 0.12572431E+03</pdfrwt>
<pdfrwt beam="2">  1       -4 0.30466923E+00 0.12572431E+03</pdfrwt>
<totfact> 0.99342996E+02</totfact>
</mgrwt>
</event>
<event>
 5    1  0.3206158E-002  0.1250022E+03  0.7818608E-02  0.1235066E+00
         -4   -1    0    0    0  501 -0.00000000000E+00  0.00000000000E+00  0.48431320805E+03  0.48431487319E+03  0.12700000000E+01 0. -1.
          4   -1    0    0  501    0  0.00000000000E+00 -0.00000000000E+00 -0.80141471441E+01  0.81141514927E+01  0.12700000000E+01 0. -1.
         25    2    1    2    0    0  0.00000000000E+00  0.00000000000E+00  0.47629906091E+03  0.49242902468E+03  0.12500219570E+03 0.  0.
    9000005    1    3    3    0    0  0.23437962619E+02  0.50972206963E+02  0.12970012930E+03  0.14131747067E+03  0.10000000000E+01 0.  0.
    9000005    1    3    3    0    0 -0.23437962619E+02 -0.50972206963E+02  0.34659893161E+03  0.35111155402E+03  0.10000000000E+01 0.  0.
<mgrwt>
<rscale>  0 0.12500220E+03</rscale>
<asrwt>0</asrwt>
<pdfrwt beam="2">  1        4 0.12407662E-02 0.12500220E+03</pdfrwt>
<pdfrwt beam="1">  1       -4 0.74517558E-01 0.12500220E+03</pdfrwt>
<totfact> 0.56453869E+03</totfact>
</mgrwt>
</event>
<event>
 5    1  0.3206158E-002  0.1250004E+03  0.7818608E-02  0.1235069E+00
         -4   -1    0    0    0  501 -0.00000000000E+00  0.00000000000E+00  0.20280001997E+03  0.20280399650E+03  0.12700000000E+01 0.  1.
          4   -1    0    0  501    0  0.00000000000E+00 -0.00000000000E+00 -0.19236603409E+02  0.19278480509E+02  0.12700000000E+01 0.  1.
         25    2    1    2    0    0  0.00000000000E+00  0.00000000000E+00  0.18356341656E+03  0.22208247701E+03  0.12500039479E+03 0.  0.
    9000005    1    3    3    0    0  0.17209012522E+01 -0.67544604961E+01  0.20211594591E+03  0.20223857157E+03  0.10000000000E+01 0.  0.
    9000005    1    3    3    0    0 -0.17209012522E+01  0.67544604961E+01 -0.18552529357E+02  0.19843905444E+02  0.10000000000E+01 0.  0.
<mgrwt>
<rscale>  0 0.12500039E+03</rscale>
<asrwt>0</asrwt>
<pdfrwt beam="2">  1        4 0.29630047E-02 0.12500039E+03</pdfrwt>
<pdfrwt beam="1">  1       -4 0.31203530E-01 0.12500039E+03</pdfrwt>
<totfact> 0.86539130E+03</totfact>
</mgrwt>
</event>
<event>
 5    1  0.3206158E-002  0.1249990E+03  0.7818608E-02  0.1235071E+00
          4   -1    0    0  501    0  0.00000000000E+00  0.00000000000E+00  0.55373777520E+03  0.55373923157E+03  0.12700000000E+01 0. -1.
         -4   -1    0    0    0  501 -0.00000000000E+00 -0.00000000000E+00 -0.69955805045E+01  0.71099259205E+01  0.12700000000E+01 0. -1.
         25    2    1    2    0    0  0.00000000000E+00  0.00000000000E+00  0.54674219469E+03  0.56084915749E+03  0.12499900000E+03 0.  0.
    9000005    1    3    3    0    0 -0.28876695262E+02 -0.55401659988E+02  0.26705750280E+03  0.27426978918E+03  0.10000000000E+01 0.  0.
    9000005    1    3    3    0    0  0.28876695262E+02  0.55401659988E+02  0.27968469190E+03  0.28657936831E+03  0.10000000000E+01 0.  0.
<mgrwt>
<rscale>  0 0.12499900E+03</rscale>
<asrwt>0</asrwt>
<pdfrwt beam="1">  1        4 0.85199339E-01 0.12499900E+03</pdfrwt>
<pdfrwt beam="2">  1       -4 0.10851509E-02 0.12499900E+03</pdfrwt>
<totfact> 0.51437136E+03</totfact>
</mgrwt>
</event>
<event>
 5    1  0.3206158E-002  0.1249984E+03  0.7818608E-02  0.1235072E+00
          4   -1    0    0  501    0  0.00000000000E+00  0.00000000000E+00  0.37649738285E+01  0.39734025632E+01  0.12700000000E+01 0. -1.
         -4   -1    0    0    0  501 -0.00000000000E+00 -0.00000000000E+00 -0.10093441096E+04  0.10093449086E+04  0.12700000000E+01 0. -1.
         25    2    1    2    0    0  0.00000000000E+00  0.00000000000E+00 -0.10055791358E+04  0.10133183112E+04  0.12499840562E+03 0.  0.
    9000005    1    3    3    0    0  0.50638887900E+02  0.30849092014E+02 -0.66271610270E+03  0.66536425830E+03  0.10000000000E+01 0.  0.
    9000005    1    3    3    0    0 -0.50638887900E+02 -0.30849092014E+02 -0.34286303312E+03  0.34795405289E+03  0.10000000000E+01 0.  0.
<mgrwt>
<rscale>  0 0.12499841E+03</rscale>
<asrwt>0</asrwt>
<pdfrwt beam="1">  1        4 0.59532199E-03 0.12499841E+03</pdfrwt>
<pdfrwt beam="2">  1       -4 0.15529959E+00 0.12499841E+03</pdfrwt>
<totfact> 0.30169372E+03</totfact>
</mgrwt>
</event>
<event>
 5    1  0.3206158E-002  0.1250005E+03  0.7818608E-02  0.1235069E+00
         -4   -1    0    0    0  501 -0.00000000000E+00  0.00000000000E+00  0.13837514963E+03  0.13838097750E+03  0.12700000000E+01 0. -1.
          4   -1    0    0  501    0  0.00000000000E+00 -0.00000000000E+00 -0.28208925490E+02  0.28237499487E+02  0.12700000000E+01 0. -1.
         25    2    1    2    0    0  0.00000000000E+00  0.00000000000E+00  0.11016622414E+03  0.16661847699E+03  0.12500047973E+03 0.  0.
    9000005    1    3    3    0    0  0.61354295374E+02 -0.11639390133E+02  0.51969893248E+02  0.81250813951E+02  0.10000000000E+01 0.  0.
    9000005    1    3    3    0    0 -0.61354295374E+02  0.11639390133E+02  0.58196330891E+02  0.85367663039E+02  0.10000000000E+01 0.  0.
<mgrwt>
<rscale>  0 0.12500048E+03</rscale>
<asrwt>0</asrwt>
<pdfrwt beam="2">  1        4 0.43424810E-02 0.12500048E+03</pdfrwt>
<pdfrwt beam="1">  1       -4 0.21291131E-01 0.12500048E+03</pdfrwt>
<totfact> 0.96080718E+03</totfact>
</mgrwt>
</event>
<event>
 5    1  0.3206158E-002  0.1250029E+03  0.7818608E-02  0.1235065E+00
         -4   -1    0    0    0  501 -0.00000000000E+00  0.00000000000E+00  0.44993049295E+02  0.45010969606E+02  0.12700000000E+01 0. -1.
          4   -1    0    0  501    0  0.00000000000E+00 -0.00000000000E+00 -0.86783112666E+02  0.86792404875E+02  0.12700000000E+01 0. -1.
         25    2    1    2    0    0  0.00000000000E+00  0.00000000000E+00 -0.41790063371E+02  0.13180337448E+03  0.12500288048E+03 0.  0.
    9000005    1    3    3    0    0  0.80896802280E+01  0.51976293446E+02 -0.56471585387E+02  0.77181720393E+02  0.10000000000E+01 0.  0.
    9000005    1    3    3    0    0 -0.80896802280E+01 -0.51976293446E+02  0.14681522017E+02  0.54621654088E+02  0.10000000000E+01 0.  0.
<mgrwt>
<rscale>  0 0.12500288E+03</rscale>
<asrwt>0</asrwt>
<pdfrwt beam="2">  1        4 0.13353341E-01 0.12500288E+03</pdfrwt>
<pdfrwt beam="1">  1       -4 0.69241008E-02 0.12500288E+03</pdfrwt>
<totfact> 0.10305227E+04</totfact>
</mgrwt>
</event>
<event>
 5    1  0.3206158E-002  0.1250022E+03  0.7818608E-02  0.1235066E+00
          4   -1    0    0  501    0  0.00000000000E+00  0.00000000000E+00  0.25232475537E+02  0.25264416117E+02  0.12700000000E+01 0. -1.
         -4   -1    0    0    0  501 -0.00000000000E+00 -0.00000000000E+00 -0.15468333374E+03  0.15468854721E+03  0.12700000000E+01 0. -1.
         25    2    1    2    0    0  0.00000000000E+00  0.00000000000E+00 -0.12945085820E+03  0.17995296332E+03  0.12500217726E+03 0.  0.
    9000005    1    3    3    0    0 -0.49471617088E+02  0.35414079863E+02 -0.44174528096E+02  0.75192997562E+02  0.10000000000E+01 0.  0.
    9000005    1    3    3    0    0  0.49471617088E+02 -0.35414079863E+02 -0.85276330108E+02  0.10475996576E+03  0.10000000000E+01 0.  0.
<mgrwt>
<rscale>  0 0.12500218E+03</rscale>
<asrwt>0</asrwt>
<pdfrwt beam="1">  1        4 0.38847774E-02 0.12500218E+03</pdfrwt>
<pdfrwt beam="2">  1       -4 0.23800293E-01 0.12500218E+03</pdfrwt>
<totfact> 0.93620900E+03</totfact>
</mgrwt>
</event>
<event>
 5    1  0.3206158E-002  0.1249996E+03  0.7818608E-02  0.1235070E+00
          4   -1    0    0  501    0  0.00000000000E+00  0.00000000000E+00  0.13653712018E+03  0.13654302651E+03  0.12700000000E+01 0. -1.
         -4   -1    0    0    0  501 -0.00000000000E+00 -0.00000000000E+00 -0.28588646324E+02  0.28616841172E+02  0.12700000000E+01 0. -1.
         25    2    1    2    0    0  0.00000000000E+00  0.00000000000E+00  0.10794847386E+03  0.16515986768E+03  0.12499963553E+03 0.  0.
    9000005    1    3    3    0    0  0.41740291897E+02  0.44957046426E+02  0.69710222980E+02  0.92864972831E+02  0.10000000000E+01 0.  0.
    9000005    1    3    3    0    0 -0.41740291897E+02 -0.44957046426E+02  0.38238250880E+02  0.72294894850E+02  0.10000000000E+01 0.  0.
<mgrwt>
<rscale>  0 0.12499964E+03</rscale>
<asrwt>0</asrwt>
<pdfrwt beam="1">  1        4 0.21008334E-01 0.12499964E+03</pdfrwt>
<pdfrwt beam="2">  1       -4 0.44008764E-02 0.12499964E+03</pdfrwt>
<totfact> 0.96357913E+03</totfact>
</mgrwt>
</event>
<event>
 5    1  0.3206158E-002  0.1250005E+03  0.7818608E-02  0.1235068E+00
          4   -1    0    0  501    0  0.00000000000E+00  0.00000000000E+00  0.69092169648E+02  0.69103840752E+02  0.12700000000E+01 0. -1.
         -4   -1    0    0    0  501 -0.00000000000E+00 -0.00000000000E+00 -0.56513684615E+02  0.56527952809E+02  0.12700000000E+01 0. -1.
         25    2    1    2    0    0  0.00000000000E+00  0.00000000000E+00  0.12578485032E+02  0.12563179356E+03  0.12500051707E+03 0.  0.
    9000005    1    3    3    0    0 -0.60705215809E+02 -0.14395745267E+02  0.99020601710E+01  0.63177618694E+02  0.10000000000E+01 0.  0.
    9000005    1    3    3    0    0  0.60705215809E+02  0.14395745267E+02  0.26764248614E+01  0.62454174867E+02  0.10000000000E+01 0.  0.
<mgrwt>
<rscale>  0 0.12500052E+03</rscale>
<asrwt>0</asrwt>
<pdfrwt beam="1">  1        4 0.10631560E-01 0.12500052E+03</pdfrwt>
<pdfrwt beam="2">  1       -4 0.86964084E-02 0.12500052E+03</pdfrwt>
<totfact> 0.10438924E+04</totfact>
</mgrwt>
</event>
<event>
 5    1  0.3206158E-002  0.1249997E+03  0.7818608E-02  0.1235070E+00
          4   -1    0    0  501    0  0.00000000000E+00  0.00000000000E+00  0.23519598522E+02  0.23553861990E+02  0.12700000000E+01 0. -1.
         -4   -1    0    0    0  501 -0.00000000000E+00 -0.00000000000E+00 -0.16592652585E+03  0.16593138607E+03  0.12700000000E+01 0. -1.
         25    2    1    2    0    0  0.00000000000E+00  0.00000000000E+00 -0.14240692733E+03  0.18948524806E+03  0.12499970512E+03 0.  0.
    9000005    1    3    3    0    0 -0.22967857715E+01  0.59743988958E+02 -0.98766420616E+02  0.11545746092E+03  0.10000000000E+01 0.  0.
    9000005    1    3    3    0    0  0.22967857715E+01 -0.59743988958E+02 -0.43640506716E+02  0.74027787134E+02  0.10000000000E+01 0.  0.
<mgrwt>
<rscale>  0 0.12499971E+03</rscale>
<asrwt>0</asrwt>
<pdfrwt beam="1">  1        4 0.36214094E-02 0.12499971E+03</pdfrwt>
<pdfrwt beam="2">  1       -4 0.25530167E-01 0.12499971E+03</pdfrwt>
<totfact> 0.91937564E+03</totfact>
</mgrwt>
</event>
<event>
 5    1  0.3206158E-002  0.1250040E+03  0.7818608E-02  0.1235063E+00
         -4   -1    0    0    0  501 -0.00000000000E+00  0.00000000000E+00  0.16516042496E+02  0.16564798814E+02  0.12700000000E+01 0.  1.
          4   -1    0    0  501    0  0.00000000000E+00 -0.00000000000E+00 -0.23612860767E+03  0.23613202295E+03  0.12700000000E+01 0.  1.
         25    2    1    2    0    0  0.00000000000E+00  0.00000000000E+00 -0.21961256518E+03  0.25269682176E+03  0.12500401972E+03 0.  0.
    9000005    1    3    3    0    0  0.23390820414E+02 -0.19974284948E+02  0.16455685097E+00  0.30775471041E+02  0.10000000000E+01 0.  0.
    9000005    1    3    3    0    0 -0.23390820414E+02  0.19974284948E+02 -0.21977712203E+03  0.22192135072E+03  0.10000000000E+01 0.  0.
<mgrwt>
<rscale>  0 0.12500402E+03</rscale>
<asrwt>0</asrwt>
<pdfrwt beam="2">  1        4 0.36331489E-01 0.12500402E+03</pdfrwt>
<pdfrwt beam="1">  1       -4 0.25449430E-02 0.12500402E+03</pdfrwt>
<totfact> 0.81934675E+03</totfact>
</mgrwt>
</event>
<event>
 5    1  0.3206158E-002  0.1249992E+03  0.7818608E-02  0.1235071E+00
          4   -1    0    0  501    0  0.00000000000E+00  0.00000000000E+00  0.45845905704E+02  0.45863492778E+02  0.12700000000E+01 0. -1.
         -4   -1    0    0    0  501 -0.00000000000E+00 -0.00000000000E+00 -0.85164163598E+02  0.85173632430E+02  0.12700000000E+01 0. -1.
         25    2    1    2    0    0  0.00000000000E+00  0.00000000000E+00 -0.39318257894E+02  0.13103712521E+03  0.12499921111E+03 0.  0.
    9000005    1    3    3    0    0 -0.32554758968E+02 -0.16005393260E+02 -0.73001363482E+02  0.81524131490E+02  0.10000000000E+01 0.  0.
    9000005    1    3    3    0    0  0.32554758968E+02  0.16005393260E+02  0.33683105588E+02  0.49512993718E+02  0.10000000000E+01 0.  0.
<mgrwt>
<rscale>  0 0.12499921E+03</rscale>
<asrwt>0</asrwt>
<pdfrwt beam="1">  1        4 0.70552975E-02 0.12499921E+03</pdfrwt>
<pdfrwt beam="2">  1       -4 0.13104260E-01 0.12499921E+03</pdfrwt>
<totfact> 0.10322477E+04</totfact>
</mgrwt>
</event>
<event>
 5    1  0.3206158E-002  0.1249998E+03  0.7818608E-02  0.1235070E+00
         -4   -1    0    0    0  501 -0.00000000000E+00  0.00000000000E+00  0.20158130083E+02  0.20198096654E+02  0.12700000000E+01 0. -1.
          4   -1    0    0  501    0  0.00000000000E+00 -0.00000000000E+00 -0.19354574969E+03  0.19354991636E+03  0.12700000000E+01 0. -1.
         25    2    1    2    0    0  0.00000000000E+00  0.00000000000E+00 -0.17338761960E+03  0.21374801301E+03  0.12499978574E+03 0.  0.
    9000005    1    3    3    0    0  0.10760727258E+02 -0.60626155507E+02 -0.10494447715E+03  0.12167854070E+03  0.10000000000E+01 0.  0.
    9000005    1    3    3    0    0 -0.10760727258E+02  0.60626155507E+02 -0.68443142456E+02  0.92069472313E+02  0.10000000000E+01 0.  0.
<mgrwt>
<rscale>  0 0.12499979E+03</rscale>
<asrwt>0</asrwt>
<pdfrwt beam="2">  1        4 0.29779663E-01 0.12499979E+03</pdfrwt>
<pdfrwt beam="1">  1       -4 0.31046458E-02 0.12499979E+03</pdfrwt>
<totfact> 0.87867838E+03</totfact>
</mgrwt>
</event>
<event>
 5    1  0.3206158E-002  0.1249968E+03  0.7818608E-02  0.1235074E+00
          4   -1    0    0  501    0  0.00000000000E+00  0.00000000000E+00  0.43919606359E+03  0.43919789978E+03  0.12700000000E+01 0. -1.
         -4   -1    0    0    0  501 -0.00000000000E+00 -0.00000000000E+00 -0.88464396264E+01  0.89371356744E+01  0.12700000000E+01 0. -1.
         25    2    1    2    0    0  0.00000000000E+00  0.00000000000E+00  0.43034962396E+03  0.44813503546E+03  0.12499684459E+03 0.  0.
    9000005    1    3    3    0    0 -0.14435259683E+02 -0.55894147880E+02  0.30095861464E+03  0.30644676572E+03  0.10000000000E+01 0.  0.
    9000005    1    3    3    0    0  0.14435259683E+02  0.55894147880E+02  0.12939100932E+03  0.14168826974E+03  0.10000000000E+01 0.  0.
<mgrwt>
<rscale>  0 0.12499684E+03</rscale>
<asrwt>0</asrwt>
<pdfrwt beam="1">  1        4 0.67575741E-01 0.12499684E+03</pdfrwt>
<pdfrwt beam="2">  1       -4 0.13681086E-02 0.12499684E+03</pdfrwt>
<totfact> 0.60129876E+03</totfact>
</mgrwt>
</event>
<event>
 5    1  0.3206158E-002  0.1249993E+03  0.7818608E-02  0.1235070E+00
          4   -1    0    0  501    0  0.00000000000E+00  0.00000000000E+00  0.63623372870E+03  0.63623499623E+03  0.12700000000E+01 0. -1.
         -4   -1    0    0    0  501 -0.00000000000E+00 -0.00000000000E+00 -0.60726134282E+01  0.62039933792E+01  0.12700000000E+01 0. -1.
         25    2    1    2    0    0  0.00000000000E+00  0.00000000000E+00  0.63016111527E+03  0.64243898961E+03  0.12499929671E+03 0.  0.
    9000005    1    3    3    0    0 -0.55880802359E+02  0.27693580160E+02  0.29477606025E+03  0.30130304372E+03  0.10000000000E+01 0.  0.
    9000005    1    3    3    0    0  0.55880802359E+02 -0.27693580160E+02  0.33538505501E+03  0.34113594589E+03  0.10000000000E+01 0.  0.
<mgrwt>
<rscale>  0 0.12499930E+03</rscale>
<asrwt>0</asrwt>
<pdfrwt beam="1">  1        4 0.97892283E-01 0.12499930E+03</pdfrwt>
<pdfrwt beam="2">  1       -4 0.94445219E-03 0.12499930E+03</pdfrwt>
<totfact> 0.46294466E+03</totfact>
</mgrwt>
</event>
<event>
 5    1  0.3206158E-002  0.1249927E+03  0.7818608E-02  0.1235081E+00
          4   -1    0    0  501    0  0.00000000000E+00  0.00000000000E+00  0.89138354645E+02  0.89147401358E+02  0.12700000000E+01 0.  1.
         -4   -1    0    0    0  501 -0.00000000000E+00 -0.00000000000E+00 -0.43796726454E+02  0.43815136062E+02  0.12700000000E+01 0.  1.
         25    2    1    2    0    0  0.00000000000E+00  0.00000000000E+00  0.45341628191E+02  0.13296253742E+03  0.12499269223E+03 0.  0.
    9000005    1    3    3    0    0 -0.21073300856E+00 -0.41816149813E+02  0.72066044075E+02  0.83325563318E+02  0.10000000000E+01 0.  0.
    9000005    1    3    3    0    0  0.21073300856E+00  0.41816149813E+02 -0.26724415884E+02  0.49636974101E+02  0.10000000000E+01 0.  0.
<mgrwt>
<rscale>  0 0.12499269E+03</rscale>
<asrwt>0</asrwt>
<pdfrwt beam="1">  1        4 0.13715705E-01 0.12499269E+03</pdfrwt>
<pdfrwt beam="2">  1       -4 0.67400699E-02 0.12499269E+03</pdfrwt>
<totfact> 0.10282891E+04</totfact>
</mgrwt>
</event>
<event>
 5    1  0.3206158E-002  0.1250026E+03  0.7818608E-02  0.1235065E+00
         -4   -1    0    0    0  501 -0.00000000000E+00  0.00000000000E+00  0.35004504667E+02  0.35027535554E+02  0.12700000000E+01 0. -1.
          4   -1    0    0  501    0  0.00000000000E+00 -0.00000000000E+00 -0.11153414591E+03  0.11154137620E+03  0.12700000000E+01 0. -1.
         25    2    1    2    0    0  0.00000000000E+00  0.00000000000E+00 -0.76529641245E+02  0.14656891175E+03  0.12500263958E+03 0.  0.
    9000005    1    3    3    0    0  0.19705085696E+02  0.14460070973E+02 -0.10570325195E+03  0.10849682727E+03  0.10000000000E+01 0.  0.
    9000005    1    3    3    0    0 -0.19705085696E+02 -0.14460070973E+02  0.29173610708E+02  0.38072084479E+02  0.10000000000E+01 0.  0.
<mgrwt>
<rscale>  0 0.12500264E+03</rscale>
<asrwt>0</asrwt>
<pdfrwt beam="2">  1        4 0.17161427E-01 0.12500264E+03</pdfrwt>
<pdfrwt beam="1">  1       -4 0.53876363E-02 0.12500264E+03</pdfrwt>
<totfact> 0.99986143E+03</totfact>
</mgrwt>
</event>
<event>
 5    1  0.3206158E-002  0.1249939E+03  0.7818608E-02  0.1235079E+00
         -4   -1    0    0    0  501 -0.00000000000E+00  0.00000000000E+00  0.41130818366E+02  0.41150420647E+02  0.12700000000E+01 0.  1.
          4   -1    0    0  501    0  0.00000000000E+00 -0.00000000000E+00 -0.94915656862E+02  0.94924152973E+02  0.12700000000E+01 0.  1.
         25    2    1    2    0    0  0.00000000000E+00  0.00000000000E+00 -0.53784838497E+02  0.13607457362E+03  0.12499392279E+03 0.  0.
    9000005    1    3    3    0    0  0.65402287293E+01 -0.55981264941E+02  0.24848553732E+01  0.56425624697E+02  0.10000000000E+01 0.  0.
    9000005    1    3    3    0    0 -0.65402287293E+01  0.55981264941E+02 -0.56269693870E+02  0.79648948923E+02  0.10000000000E+01 0.  0.
<mgrwt>
<rscale>  0 0.12499392E+03</rscale>
<asrwt>0</asrwt>
<pdfrwt beam="2">  1        4 0.14604570E-01 0.12499392E+03</pdfrwt>
<pdfrwt beam="1">  1       -4 0.63299796E-02 0.12499392E+03</pdfrwt>
<totfact> 0.10216871E+04</totfact>
</mgrwt>
</event>
<event>
 5    1  0.3206158E-002  0.1249887E+03  0.7818608E-02  0.1235087E+00
         -4   -1    0    0    0  501 -0.00000000000E+00  0.00000000000E+00  0.17032408621E+03  0.17032882095E+03  0.12700000000E+01 0. -1.
          4   -1    0    0  501    0  0.00000000000E+00 -0.00000000000E+00 -0.22907436062E+02  0.22942613777E+02  0.12700000000E+01 0. -1.
         25    2    1    2    0    0  0.00000000000E+00  0.00000000000E+00  0.14741665015E+03  0.19327143472E+03  0.12498871444E+03 0.  0.
    9000005    1    3    3    0    0  0.56494397247E+02 -0.73368445186E+01  0.11340663549E+03  0.12691537016E+03  0.10000000000E+01 0.  0.
    9000005    1    3    3    0    0 -0.56494397247E+02  0.73368445186E+01  0.34010014659E+02  0.66356064568E+02  0.10000000000E+01 0.  0.
<mgrwt>
<rscale>  0 0.12498871E+03</rscale>
<asrwt>0</asrwt>
<pdfrwt beam="2">  1        4 0.35272912E-02 0.12498871E+03</pdfrwt>
<pdfrwt beam="1">  1       -4 0.26206775E-01 0.12498871E+03</pdfrwt>
<totfact> 0.91304263E+03</totfact>
</mgrwt>
</event>
<event>
 5    1  0.3206158E-002  0.1249968E+03  0.7818608E-02  0.1235074E+00
         -4   -1    0    0    0  501 -0.00000000000E+00  0.00000000000E+00  0.59566337784E+01  0.60905160676E+01  0.12700000000E+01 0.  1.
          4   -1    0    0  501    0  0.00000000000E+00 -0.00000000000E+00 -0.64832639145E+03  0.64832763534E+03  0.12700000000E+01 0.  1.
         25    2    1    2    0    0  0.00000000000E+00  0.00000000000E+00 -0.64236975767E+03  0.65441815141E+03  0.12499684526E+03 0.  0.
    9000005    1    3    3    0    0 -0.26973867992E+02  0.95856845417E+01 -0.30364695278E+02  0.41743138621E+02  0.10000000000E+01 0.  0.
    9000005    1    3    3    0    0  0.26973867992E+02 -0.95856845417E+01 -0.61200506239E+03  0.61267501279E+03  0.10000000000E+01 0.  0.
<mgrwt>
<rscale>  0 0.12499685E+03</rscale>
<asrwt>0</asrwt>
<pdfrwt beam="2">  1        4 0.99752861E-01 0.12499685E+03</pdfrwt>
<pdfrwt beam="1">  1       -4 0.92680003E-03 0.12499685E+03</pdfrwt>
<totfact> 0.45606332E+03</totfact>
</mgrwt>
</event>
<event>
 5    1  0.3206158E-002  0.1250000E+03  0.7818608E-02  0.1235069E+00
          4   -1    0    0  501    0  0.00000000000E+00  0.00000000000E+00  0.19392620103E+02  0.19434161017E+02  0.12700000000E+01 0.  1.
         -4   -1    0    0    0  501 -0.00000000000E+00 -0.00000000000E+00 -0.20117068292E+03  0.20117469167E+03  0.12700000000E+01 0.  1.
         25    2    1    2    0    0  0.00000000000E+00  0.00000000000E+00 -0.18177806282E+03  0.22060885268E+03  0.12500000704E+03 0.  0.
    9000005    1    3    3    0    0  0.29219642930E+02  0.20222368887E+02 -0.18161297784E+03  0.18505946465E+03  0.10000000000E+01 0.  0.
    9000005    1    3    3    0    0 -0.29219642930E+02 -0.20222368887E+02 -0.16508497513E+00  0.35549388031E+02  0.10000000000E+01 0.  0.
<mgrwt>
<rscale>  0 0.12500001E+03</rscale>
<asrwt>0</asrwt>
<pdfrwt beam="1">  1        4 0.29869840E-02 0.12500001E+03</pdfrwt>
<pdfrwt beam="2">  1       -4 0.30952838E-01 0.12500001E+03</pdfrwt>
<totfact> 0.86772085E+03</totfact>
</mgrwt>
</event>
<event>
 5    1  0.3206158E-002  0.1249971E+03  0.7818608E-02  0.1235074E+00
         -4   -1    0    0    0  501 -0.00000000000E+00  0.00000000000E+00  0.33671417669E+03  0.33671657174E+03  0.12700000000E+01 0. -1.
          4   -1    0    0  501    0  0.00000000000E+00 -0.00000000000E+00 -0.11563336485E+02  0.11632869408E+02  0.12700000000E+01 0. -1.
         25    2    1    2    0    0  0.00000000000E+00  0.00000000000E+00  0.32515084021E+03  0.34834944115E+03  0.12499705701E+03 0.  0.
    9000005    1    3    3    0    0  0.59292310210E+02 -0.16670102456E+02  0.19201550509E+03  0.20165422029E+03  0.10000000000E+01 0.  0.
    9000005    1    3    3    0    0 -0.59292310210E+02  0.16670102456E+02  0.13313533511E+03  0.14669522086E+03  0.10000000000E+01 0.  0.
<mgrwt>
<rscale>  0 0.12499706E+03</rscale>
<asrwt>0</asrwt>
<pdfrwt beam="2">  1        4 0.17845079E-02 0.12499706E+03</pdfrwt>
<pdfrwt beam="1">  1       -4 0.51807710E-01 0.12499706E+03</pdfrwt>
<totfact> 0.69911074E+03</totfact>
</mgrwt>
</event>
<event>
 5    1  0.3206158E-002  0.1249941E+03  0.7818608E-02  0.1235078E+00
          4   -1    0    0  501    0  0.00000000000E+00  0.00000000000E+00  0.17302057589E+03  0.17302523684E+03  0.12700000000E+01 0.  1.
         -4   -1    0    0    0  501 -0.00000000000E+00 -0.00000000000E+00 -0.22551844300E+02  0.22587575818E+02  0.12700000000E+01 0.  1.
         25    2    1    2    0    0  0.00000000000E+00  0.00000000000E+00  0.15046873159E+03  0.19561281266E+03  0.12499413301E+03 0.  0.
    9000005    1    3    3    0    0 -0.36643354741E+02 -0.50555207366E+02  0.79168306780E+02  0.10083246123E+03  0.10000000000E+01 0.  0.
    9000005    1    3    3    0    0  0.36643354741E+02  0.50555207366E+02  0.71300424813E+02  0.94780351429E+02  0.10000000000E+01 0.  0.
<mgrwt>
<rscale>  0 0.12499413E+03</rscale>
<asrwt>0</asrwt>
<pdfrwt beam="1">  1        4 0.26621657E-01 0.12499413E+03</pdfrwt>
<pdfrwt beam="2">  1       -4 0.34726216E-02 0.12499413E+03</pdfrwt>
<totfact> 0.90891709E+03</totfact>
</mgrwt>
</event>
<event>
 5    1  0.3206158E-002  0.1250013E+03  0.7818608E-02  0.1235067E+00
         -4   -1    0    0    0  501 -0.00000000000E+00  0.00000000000E+00  0.10092734183E+02  0.10172324380E+02  0.12700000000E+01 0. -1.
          4   -1    0    0  501    0  0.00000000000E+00 -0.00000000000E+00 -0.38544327392E+03  0.38544536618E+03  0.12700000000E+01 0. -1.
         25    2    1    2    0    0  0.00000000000E+00  0.00000000000E+00 -0.37535053973E+03  0.39561769056E+03  0.12500131761E+03 0.  0.
    9000005    1    3    3    0    0 -0.87885712503E+01 -0.61309237135E+02 -0.16133402838E+03  0.17281704272E+03  0.10000000000E+01 0.  0.
    9000005    1    3    3    0    0  0.87885712503E+01  0.61309237135E+02 -0.21401651136E+03  0.22280064784E+03  0.10000000000E+01 0.  0.
<mgrwt>
<rscale>  0 0.12500132E+03</rscale>
<asrwt>0</asrwt>
<pdfrwt beam="2">  1        4 0.59305237E-01 0.12500132E+03</pdfrwt>
<pdfrwt beam="1">  1       -4 0.15590119E-02 0.12500132E+03</pdfrwt>
<totfact> 0.64979365E+03</totfact>
</mgrwt>
</event>
<event>
 5    1  0.3206158E-002  0.1249995E+03  0.7818608E-02  0.1235070E+00
          4   -1    0    0  501    0  0.00000000000E+00  0.00000000000E+00  0.17079866499E+02  0.17127017826E+02  0.12700000000E+01 0.  1.
         -4   -1    0    0    0  501 -0.00000000000E+00 -0.00000000000E+00 -0.22833911862E+03  0.22834265040E+03  0.12700000000E+01 0.  1.
         25    2    1    2    0    0  0.00000000000E+00  0.00000000000E+00 -0.21125925213E+03  0.24546966823E+03  0.12499954565E+03 0.  0.
    9000005    1    3    3    0    0 -0.18653431888E+02  0.34321592776E+02 -0.20141825218E+03  0.20517366928E+03  0.10000000000E+01 0.  0.
    9000005    1    3    3    0    0  0.18653431888E+02 -0.34321592776E+02 -0.98409999428E+01  0.40295998955E+02  0.10000000000E+01 0.  0.
<mgrwt>
<rscale>  0 0.12499955E+03</rscale>
<asrwt>0</asrwt>
<pdfrwt beam="1">  1        4 0.26315706E-02 0.12499955E+03</pdfrwt>
<pdfrwt beam="2">  1       -4 0.35132992E-01 0.12499955E+03</pdfrwt>
<totfact> 0.82990283E+03</totfact>
</mgrwt>
</event>
<event>
 5    1  0.3206158E-002  0.1250005E+03  0.7818608E-02  0.1235068E+00
         -4   -1    0    0    0  501 -0.00000000000E+00  0.00000000000E+00  0.11790987329E+03  0.11791671263E+03  0.12700000000E+01 0.  1.
          4   -1    0    0  501    0  0.00000000000E+00 -0.00000000000E+00 -0.33109408128E+02  0.33133756300E+02  0.12700000000E+01 0.  1.
         25    2    1    2    0    0  0.00000000000E+00  0.00000000000E+00  0.84800465159E+02  0.15105046894E+03  0.12500050110E+03 0.  0.
    9000005    1    3    3    0    0  0.46104103093E+02 -0.13351386044E+02 -0.59573716703E+01  0.48377041130E+02  0.10000000000E+01 0.  0.
    9000005    1    3    3    0    0 -0.46104103093E+02  0.13351386044E+02  0.90757836830E+02  0.10267342781E+03  0.10000000000E+01 0.  0.
<mgrwt>
<rscale>  0 0.12500050E+03</rscale>
<asrwt>0</asrwt>
<pdfrwt beam="2">  1        4 0.50961542E-02 0.12500050E+03</pdfrwt>
<pdfrwt beam="1">  1       -4 0.18142379E-01 0.12500050E+03</pdfrwt>
<totfact> 0.99093597E+03</totfact>
</mgrwt>
</event>
<event>
 5    1  0.3206158E-002  0.1250264E+03  0.7818608E-02  0.1235028E+00
          4   -1    0    0  501    0  0.00000000000E+00  0.00000000000E+00  0.70180138437E+02  0.70191628639E+02  0.12700000000E+01 0. -1.
         -4   -1    0    0    0  501 -0.00000000000E+00 -0.00000000000E+00 -0.55660529382E+02  0.55675016220E+02  0.12700000000E+01 0. -1.
         25    2    1    2    0    0  0.00000000000E+00  0.00000000000E+00  0.14519609055E+02  0.12586664486E+03  0.12502637018E+03 0.  0.
    9000005    1    3    3    0    0  0.45227656569E-01  0.60329702568E+02  0.23716633505E+02  0.64831734223E+02  0.10000000000E+01 0.  0.
    9000005    1    3    3    0    0 -0.45227656569E-01 -0.60329702568E+02 -0.91970244507E+01  0.61034910636E+02  0.10000000000E+01 0.  0.
<mgrwt>
<rscale>  0 0.12502637E+03</rscale>
<asrwt>0</asrwt>
<pdfrwt beam="1">  1        4 0.10798943E-01 0.12502637E+03</pdfrwt>
<pdfrwt beam="2">  1       -4 0.85651566E-02 0.12502637E+03</pdfrwt>
<totfact> 0.10427676E+04</totfact>
</mgrwt>
</event>
<event>
 5    1  0.3206158E-002  0.1249993E+03  0.7818608E-02  0.1235070E+00
         -4   -1    0    0    0  501 -0.00000000000E+00  0.00000000000E+00  0.36960646444E+03  0.36960864635E+03  0.12700000000E+01 0. -1.
          4   -1    0    0  501    0  0.00000000000E+00 -0.00000000000E+00 -0.10528172326E+02  0.10604494921E+02  0.12700000000E+01 0. -1.
         25    2    1    2    0    0  0.00000000000E+00  0.00000000000E+00  0.35907829211E+03  0.38021314127E+03  0.12499925170E+03 0.  0.
    9000005    1    3    3    0    0  0.28003473549E+02 -0.52400007641E+02  0.23846133134E+03  0.24575345750E+03  0.10000000000E+01 0.  0.
    9000005    1    3    3    0    0 -0.28003473549E+02  0.52400007641E+02  0.12061696078E+03  0.13445968377E+03  0.10000000000E+01 0.  0.
<mgrwt>
<rscale>  0 0.12499925E+03</rscale>
<asrwt>0</asrwt>
<pdfrwt beam="2">  1        4 0.16257578E-02 0.12499925E+03</pdfrwt>
<pdfrwt beam="1">  1       -4 0.56868565E-01 0.12499925E+03</pdfrwt>
<totfact> 0.66524918E+03</totfact>
</mgrwt>
</event>
<event>
 5    1  0.3206158E-002  0.1249951E+03  0.7818608E-02  0.1235077E+00
          4   -1    0    0  501    0  0.00000000000E+00  0.00000000000E+00  0.14409832344E+03  0.14410391985E+03  0.12700000000E+01 0. -1.
         -4   -1    0    0    0  501 -0.00000000000E+00 -0.00000000000E+00 -0.27085086713E+02  0.27114845053E+02  0.12700000000E+01 0. -1.
         25    2    1    2    0    0  0.00000000000E+00  0.00000000000E+00  0.11701323672E+03  0.17121876491E+03  0.12499507145E+03 0.  0.
    9000005    1    3    3    0    0 -0.12721162020E+01 -0.36568575926E+02  0.12789585721E+03  0.13303093368E+03  0.10000000000E+01 0.  0.
    9000005    1    3    3    0    0  0.12721162020E+01  0.36568575926E+02 -0.10882620488E+02  0.38187831224E+02  0.10000000000E+01 0.  0.
<mgrwt>
<rscale>  0 0.12499507E+03</rscale>
<asrwt>0</asrwt>
<pdfrwt beam="1">  1        4 0.22171693E-01 0.12499507E+03</pdfrwt>
<pdfrwt beam="2">  1       -4 0.41696560E-02 0.12499507E+03</pdfrwt>
<totfact> 0.95232495E+03</totfact>
</mgrwt>
</event>
<event>
 5    1  0.3206158E-002  0.1249983E+03  0.7818608E-02  0.1235072E+00
         -4   -1    0    0    0  501 -0.00000000000E+00  0.00000000000E+00  0.40949782365E+02  0.40969471265E+02  0.12700000000E+01 0.  1.
          4   -1    0    0  501    0  0.00000000000E+00 -0.00000000000E+00 -0.95341853146E+02  0.95350311280E+02  0.12700000000E+01 0.  1.
         25    2    1    2    0    0  0.00000000000E+00  0.00000000000E+00 -0.54392070780E+02  0.13631978255E+03  0.12499834299E+03 0.  0.
    9000005    1    3    3    0    0  0.56979032077E+02  0.12005302899E+02 -0.24612056005E+01  0.58290607538E+02  0.10000000000E+01 0.  0.
    9000005    1    3    3    0    0 -0.56979032077E+02 -0.12005302899E+02 -0.51930865180E+02  0.78029175008E+02  0.10000000000E+01 0.  0.
<mgrwt>
<rscale>  0 0.12499834E+03</rscale>
<asrwt>0</asrwt>
<pdfrwt beam="2">  1        4 0.14670142E-01 0.12499834E+03</pdfrwt>
<pdfrwt beam="1">  1       -4 0.63021317E-02 0.12499834E+03</pdfrwt>
<totfact> 0.10210709E+04</totfact>
</mgrwt>
</event>
<event>
 5    1  0.3206158E-002  0.1250003E+03  0.7818608E-02  0.1235069E+00
         -4   -1    0    0    0  501 -0.00000000000E+00  0.00000000000E+00  0.39922772147E+03  0.39922974149E+03  0.12700000000E+01 0.  1.
          4   -1    0    0  501    0  0.00000000000E+00 -0.00000000000E+00 -0.97413007326E+01  0.98237385940E+01  0.12700000000E+01 0.  1.
         25    2    1    2    0    0  0.00000000000E+00  0.00000000000E+00  0.38948642073E+03  0.40905348008E+03  0.12500031052E+03 0.  0.
    9000005    1    3    3    0    0  0.10699593931E+02  0.14399456126E+01  0.39616894155E+03  0.39631727821E+03  0.10000000000E+01 0.  0.
    9000005    1    3    3    0    0 -0.10699593931E+02 -0.14399456126E+01 -0.66825208199E+01  0.12736201873E+02  0.10000000000E+01 0.  0.
<mgrwt>
<rscale>  0 0.12500031E+03</rscale>
<asrwt>0</asrwt>
<pdfrwt beam="2">  1        4 0.15051586E-02 0.12500031E+03</pdfrwt>
<pdfrwt beam="1">  1       -4 0.61426139E-01 0.12500031E+03</pdfrwt>
<totfact> 0.63681248E+03</totfact>
</mgrwt>
</event>
<event>
 5    1  0.3206158E-002  0.1250004E+03  0.7818608E-02  0.1235069E+00
         -4   -1    0    0    0  501 -0.00000000000E+00  0.00000000000E+00  0.69255849215E+01  0.70410671424E+01  0.12700000000E+01 0.  1.
          4   -1    0    0  501    0  0.00000000000E+00 -0.00000000000E+00 -0.55925526842E+03  0.55925671042E+03  0.12700000000E+01 0.  1.
         25    2    1    2    0    0  0.00000000000E+00  0.00000000000E+00 -0.55232968350E+03  0.56629777757E+03  0.12500037442E+03 0.  0.
    9000005    1    3    3    0    0 -0.30973175090E+02  0.41561039329E+02 -0.11801565896E+03  0.12890055596E+03  0.10000000000E+01 0.  0.
    9000005    1    3    3    0    0  0.30973175090E+02 -0.41561039329E+02 -0.43431402453E+03  0.43739722161E+03  0.10000000000E+01 0.  0.
<mgrwt>
<rscale>  0 0.12500037E+03</rscale>
<asrwt>0</asrwt>
<pdfrwt beam="2">  1        4 0.86048231E-01 0.12500037E+03</pdfrwt>
<pdfrwt beam="1">  1       -4 0.10744692E-02 0.12500037E+03</pdfrwt>
<totfact> 0.51066120E+03</totfact>
</mgrwt>
</event>
<event>
 5    1  0.3206158E-002  0.1249846E+03  0.7818608E-02  0.1235093E+00
         -4   -1    0    0    0  501 -0.00000000000E+00  0.00000000000E+00  0.12886950580E+02  0.12949378180E+02  0.12700000000E+01 0.  1.
          4   -1    0    0  501    0  0.00000000000E+00 -0.00000000000E+00 -0.30224624236E+03  0.30224891054E+03  0.12700000000E+01 0.  1.
         25    2    1    2    0    0  0.00000000000E+00  0.00000000000E+00 -0.28935929178E+03  0.31519828872E+03  0.12498464494E+03 0.  0.
    9000005    1    3    3    0    0  0.55385034441E+02 -0.18085471769E+02 -0.20161555080E+03  0.20986761697E+03  0.10000000000E+01 0.  0.
    9000005    1    3    3    0    0 -0.55385034441E+02  0.18085471769E+02 -0.87743740984E+02  0.10533067175E+03  0.10000000000E+01 0.  0.
<mgrwt>
<rscale>  0 0.12498464E+03</rscale>
<asrwt>0</asrwt>
<pdfrwt beam="2">  1        4 0.46504424E-01 0.12498464E+03</pdfrwt>
<pdfrwt beam="1">  1       -4 0.19876154E-02 0.12498464E+03</pdfrwt>
<totfact> 0.73755999E+03</totfact>
</mgrwt>
</event>
<event>
 5    1  0.3206158E-002  0.1250068E+03  0.7818608E-02  0.1235059E+00
         -4   -1    0    0    0  501 -0.00000000000E+00  0.00000000000E+00  0.11899738552E+02  0.11967317059E+02  0.12700000000E+01 0. -1.
          4   -1    0    0  501    0  0.00000000000E+00 -0.00000000000E+00 -0.32730084418E+03  0.32730330811E+03  0.12700000000E+01 0. -1.
         25    2    1    2    0    0  0.00000000000E+00  0.00000000000E+00 -0.31540110563E+03  0.33927062517E+03  0.12500679850E+03 0.  0.
    9000005    1    3    3    0    0  0.45543601263E+02  0.38813589940E+02 -0.20662522662E+03  0.21511787154E+03  0.10000000000E+01 0.  0.
    9000005    1    3    3    0    0 -0.45543601263E+02 -0.38813589940E+02 -0.10877587901E+03  0.12415275363E+03  0.10000000000E+01 0.  0.
<mgrwt>
<rscale>  0 0.12500680E+03</rscale>
<asrwt>0</asrwt>
<pdfrwt beam="2">  1        4 0.50359357E-01 0.12500680E+03</pdfrwt>
<pdfrwt beam="1">  1       -4 0.18361171E-02 0.12500680E+03</pdfrwt>
<totfact> 0.70910601E+03</totfact>
</mgrwt>
</event>
<event>
 5    1  0.3206158E-002  0.1250104E+03  0.7818608E-02  0.1235053E+00
         -4   -1    0    0    0  501 -0.00000000000E+00  0.00000000000E+00  0.18013157332E+04  0.18013161809E+04  0.12700000000E+01 0. -1.
          4   -1    0    0  501    0  0.00000000000E+00 -0.00000000000E+00 -0.19825180490E+01  0.23544166612E+01  0.12700000000E+01 0. -1.
         25    2    1    2    0    0  0.00000000000E+00  0.00000000000E+00  0.17993332152E+04  0.18036705976E+04  0.12501042102E+03 0.  0.
    9000005    1    3    3    0    0  0.30760732579E+02  0.24129108082E+02  0.16031730147E+04  0.16036499467E+04  0.10000000000E+01 0.  0.
    9000005    1    3    3    0    0 -0.30760732579E+02 -0.24129108082E+02  0.19616020046E+03  0.20002065086E+03  0.10000000000E+01 0.  0.
<mgrwt>
<rscale>  0 0.12501042E+03</rscale>
<asrwt>0</asrwt>
<pdfrwt beam="2">  1        4 0.33364589E-03 0.12501042E+03</pdfrwt>
<pdfrwt beam="1">  1       -4 0.27715323E+00 0.12501042E+03</pdfrwt>
<totfact> 0.12644222E+03</totfact>
</mgrwt>
</event>
<event>
 5    1  0.3206158E-002  0.1250156E+03  0.7818608E-02  0.1235045E+00
          4   -1    0    0  501    0  0.00000000000E+00  0.00000000000E+00  0.32680540243E+03  0.32680787010E+03  0.12700000000E+01 0.  1.
         -4   -1    0    0    0  501 -0.00000000000E+00 -0.00000000000E+00 -0.11919561399E+02  0.11987028153E+02  0.12700000000E+01 0.  1.
         25    2    1    2    0    0  0.00000000000E+00  0.00000000000E+00  0.31488584103E+03  0.33879489825E+03  0.12501555983E+03 0.  0.
    9000005    1    3    3    0    0 -0.34284245160E+02  0.35039069665E+02  0.52376639417E+02  0.71745788906E+02  0.10000000000E+01 0.  0.
    9000005    1    3    3    0    0  0.34284245160E+02 -0.35039069665E+02  0.26250920161E+03  0.26704910934E+03  0.10000000000E+01 0.  0.
<mgrwt>
<rscale>  0 0.12501556E+03</rscale>
<asrwt>0</asrwt>
<pdfrwt beam="1">  1        4 0.50283133E-01 0.12501556E+03</pdfrwt>
<pdfrwt beam="2">  1       -4 0.18391583E-02 0.12501556E+03</pdfrwt>
<totfact> 0.70950653E+03</totfact>
</mgrwt>
</event>
<event>
 5    1  0.3206158E-002  0.1249996E+03  0.7818608E-02  0.1235070E+00
         -4   -1    0    0    0  501 -0.00000000000E+00  0.00000000000E+00  0.86043269090E+02  0.86052641190E+02  0.12700000000E+01 0. -1.
          4   -1    0    0  501    0  0.00000000000E+00 -0.00000000000E+00 -0.45377644390E+02  0.45395412879E+02  0.12700000000E+01 0. -1.
         25    2    1    2    0    0  0.00000000000E+00  0.00000000000E+00  0.40665624700E+02  0.13144805407E+03  0.12499959154E+03 0.  0.
    9000005    1    3    3    0    0  0.58850374063E+02  0.20179356344E+02  0.14142583243E+02  0.63808977508E+02  0.10000000000E+01 0.  0.
    9000005    1    3    3    0    0 -0.58850374063E+02 -0.20179356344E+02  0.26523041457E+02  0.67639076561E+02  0.10000000000E+01 0.  0.
<mgrwt>
<rscale>  0 0.12499959E+03</rscale>
<asrwt>0</asrwt>
<pdfrwt beam="2">  1        4 0.69832639E-02 0.12499959E+03</pdfrwt>
<pdfrwt beam="1">  1       -4 0.13239514E-01 0.12499959E+03</pdfrwt>
<totfact> 0.10313588E+04</totfact>
</mgrwt>
</event>
<event>
 5    1  0.3206158E-002  0.1250014E+03  0.7818608E-02  0.1235067E+00
         -4   -1    0    0    0  501 -0.00000000000E+00  0.00000000000E+00  0.27606802573E+03  0.27607094691E+03  0.12700000000E+01 0.  1.
          4   -1    0    0  501    0  0.00000000000E+00 -0.00000000000E+00 -0.14118408947E+02  0.14175414322E+02  0.12700000000E+01 0.  1.
         25    2    1    2    0    0  0.00000000000E+00  0.00000000000E+00  0.26194961678E+03  0.29024636123E+03  0.12500139390E+03 0.  0.
    9000005    1    3    3    0    0 -0.50684471494E+02  0.21570953881E+02  0.62443380923E+02  0.83273029986E+02  0.10000000000E+01 0.  0.
    9000005    1    3    3    0    0  0.50684471494E+02 -0.21570953881E+02  0.19950623585E+03  0.20697333125E+03  0.10000000000E+01 0.  0.
<mgrwt>
<rscale>  0 0.12500139E+03</rscale>
<asrwt>0</asrwt>
<pdfrwt beam="2">  1        4 0.21766727E-02 0.12500139E+03</pdfrwt>
<pdfrwt beam="1">  1       -4 0.42476613E-01 0.12500139E+03</pdfrwt>
<totfact> 0.76836455E+03</totfact>
</mgrwt>
</event>
<event>
 5    1  0.3206158E-002  0.1249501E+03  0.7818608E-02  0.1235147E+00
         -4   -1    0    0    0  501 -0.00000000000E+00  0.00000000000E+00  0.18851919641E+02  0.18894649353E+02  0.12700000000E+01 0.  1.
          4   -1    0    0  501    0  0.00000000000E+00 -0.00000000000E+00 -0.20676265610E+03  0.20676655643E+03  0.12700000000E+01 0.  1.
         25    2    1    2    0    0  0.00000000000E+00  0.00000000000E+00 -0.18791073646E+03  0.22566120578E+03  0.12495012973E+03 0.  0.
    9000005    1    3    3    0    0  0.47882394773E+02 -0.31828063321E+02 -0.13805991111E+03  0.14955697376E+03  0.10000000000E+01 0.  0.
    9000005    1    3    3    0    0 -0.47882394773E+02  0.31828063321E+02 -0.49850825349E+02  0.76104232024E+02  0.10000000000E+01 0.  0.
<mgrwt>
<rscale>  0 0.12495013E+03</rscale>
<asrwt>0</asrwt>
<pdfrwt beam="2">  1        4 0.31813225E-01 0.12495013E+03</pdfrwt>
<pdfrwt beam="1">  1       -4 0.29038824E-02 0.12495013E+03</pdfrwt>
<totfact> 0.86076081E+03</totfact>
</mgrwt>
</event>
<event>
 5    1  0.3206158E-002  0.1249901E+03  0.7818608E-02  0.1235085E+00
         -4   -1    0    0    0  501 -0.00000000000E+00  0.00000000000E+00  0.80809570796E+02  0.80819549815E+02  0.12700000000E+01 0.  1.
          4   -1    0    0  501    0  0.00000000000E+00 -0.00000000000E+00 -0.48309949970E+02  0.48326640335E+02  0.12700000000E+01 0.  1.
         25    2    1    2    0    0  0.00000000000E+00  0.00000000000E+00  0.32499620826E+02  0.12914619015E+03  0.12499005191E+03 0.  0.
    9000005    1    3    3    0    0  0.47812364510E+01 -0.42102541856E+02  0.63702329011E+02  0.76514514794E+02  0.10000000000E+01 0.  0.
    9000005    1    3    3    0    0 -0.47812364510E+01  0.42102541856E+02 -0.31202708185E+02  0.52631675356E+02  0.10000000000E+01 0.  0.
<mgrwt>
<rscale>  0 0.12499005E+03</rscale>
<asrwt>0</asrwt>
<pdfrwt beam="2">  1        4 0.74343515E-02 0.12499005E+03</pdfrwt>
<pdfrwt beam="1">  1       -4 0.12434293E-01 0.12499005E+03</pdfrwt>
<totfact> 0.10365134E+04</totfact>
</mgrwt>
</event>
<event>
 5    1  0.3206158E-002  0.1249964E+03  0.7818608E-02  0.1235075E+00
         -4   -1    0    0    0  501 -0.00000000000E+00  0.00000000000E+00  0.11024654646E+03  0.11025386119E+03  0.12700000000E+01 0.  1.
          4   -1    0    0  501    0  0.00000000000E+00 -0.00000000000E+00 -0.35410032591E+02  0.35432799891E+02  0.12700000000E+01 0.  1.
         25    2    1    2    0    0  0.00000000000E+00  0.00000000000E+00  0.74836513871E+02  0.14568666108E+03  0.12499639758E+03 0.  0.
    9000005    1    3    3    0    0  0.28460834777E+02  0.62727273240E+01  0.10184626588E+03  0.10593879412E+03  0.10000000000E+01 0.  0.
    9000005    1    3    3    0    0 -0.28460834777E+02 -0.62727273240E+01 -0.27009752013E+02  0.39747866963E+02  0.10000000000E+01 0.  0.
<mgrwt>
<rscale>  0 0.12499640E+03</rscale>
<asrwt>0</asrwt>
<pdfrwt beam="2">  1        4 0.54500114E-02 0.12499640E+03</pdfrwt>
<pdfrwt beam="1">  1       -4 0.16963321E-01 0.12499640E+03</pdfrwt>
<totfact> 0.10017868E+04</totfact>
</mgrwt>
</event>
<event>
 5    1  0.3206158E-002  0.1249954E+03  0.7818608E-02  0.1235076E+00
         -4   -1    0    0    0  501 -0.00000000000E+00  0.00000000000E+00  0.91449150578E+02  0.91457968715E+02  0.12700000000E+01 0. -1.
          4   -1    0    0  501    0  0.00000000000E+00 -0.00000000000E+00 -0.42691562630E+02  0.42710448603E+02  0.12700000000E+01 0. -1.
         25    2    1    2    0    0  0.00000000000E+00  0.00000000000E+00  0.48757587948E+02  0.13416841732E+03  0.12499544721E+03 0.  0.
    9000005    1    3    3    0    0  0.18076884287E+02 -0.36201304644E+02  0.75493375393E+02  0.85659546646E+02  0.10000000000E+01 0.  0.
    9000005    1    3    3    0    0 -0.18076884287E+02  0.36201304644E+02 -0.26735787445E+02  0.48508870671E+02  0.10000000000E+01 0.  0.
<mgrwt>
<rscale>  0 0.12499545E+03</rscale>
<asrwt>0</asrwt>
<pdfrwt beam="2">  1        4 0.65700638E-02 0.12499545E+03</pdfrwt>
<pdfrwt beam="1">  1       -4 0.14071231E-01 0.12499545E+03</pdfrwt>
<totfact> 0.10256682E+04</totfact>
</mgrwt>
</event>
<event>
 5    1  0.3206158E-002  0.1249925E+03  0.7818608E-02  0.1235081E+00
          4   -1    0    0  501    0  0.00000000000E+00  0.00000000000E+00  0.32853223745E+03  0.32853469214E+03  0.12700000000E+01 0. -1.
         -4   -1    0    0    0  501 -0.00000000000E+00 -0.00000000000E+00 -0.11852155577E+02  0.11920003852E+02  0.12700000000E+01 0. -1.
         25    2    1    2    0    0  0.00000000000E+00  0.00000000000E+00  0.31668008187E+03  0.34045469599E+03  0.12499250286E+03 0.  0.
    9000005    1    3    3    0    0 -0.33049765572E+02  0.38028700288E+02  0.25902170112E+03  0.26387821187E+03  0.10000000000E+01 0.  0.
    9000005    1    3    3    0    0  0.33049765572E+02 -0.38028700288E+02  0.57658380751E+02  0.76576484124E+02  0.10000000000E+01 0.  0.
<mgrwt>
<rscale>  0 0.12499250E+03</rscale>
<asrwt>0</asrwt>
<pdfrwt beam="1">  1        4 0.50548832E-01 0.12499250E+03</pdfrwt>
<pdfrwt beam="2">  1       -4 0.18288164E-02 0.12499250E+03</pdfrwt>
<totfact> 0.70799329E+03</totfact>
</mgrwt>
</event>
<event>
 5    1  0.3206158E-002  0.1250039E+03  0.7818608E-02  0.1235063E+00
         -4   -1    0    0    0  501 -0.00000000000E+00  0.00000000000E+00  0.37235110881E+02  0.37256762908E+02  0.12700000000E+01 0.  1.
          4   -1    0    0  501    0  0.00000000000E+00 -0.00000000000E+00 -0.10485828174E+03  0.10486597232E+03  0.12700000000E+01 0.  1.
         25    2    1    2    0    0  0.00000000000E+00  0.00000000000E+00 -0.67623170863E+02  0.14212273523E+03  0.12500391446E+03 0.  0.
    9000005    1    3    3    0    0  0.39129213522E+02  0.45019878169E+02 -0.55009151509E+02  0.81147344572E+02  0.10000000000E+01 0.  0.
    9000005    1    3    3    0    0 -0.39129213522E+02 -0.45019878169E+02 -0.12614019354E+02  0.60975390655E+02  0.10000000000E+01 0.  0.
<mgrwt>
<rscale>  0 0.12500391E+03</rscale>
<asrwt>0</asrwt>
<pdfrwt beam="2">  1        4 0.16134300E-01 0.12500391E+03</pdfrwt>
<pdfrwt beam="1">  1       -4 0.57307358E-02 0.12500391E+03</pdfrwt>
<totfact> 0.10088889E+04</totfact>
</mgrwt>
</event>
<event>
 5    1  0.3206158E-002  0.1250063E+03  0.7818608E-02  0.1235059E+00
         -4   -1    0    0    0  501 -0.00000000000E+00  0.00000000000E+00  0.27833299480E+03  0.27833589221E+03  0.12700000000E+01 0. -1.
          4   -1    0    0  501    0  0.00000000000E+00 -0.00000000000E+00 -0.14004150612E+02  0.14061619194E+02  0.12700000000E+01 0. -1.
         25    2    1    2    0    0  0.00000000000E+00  0.00000000000E+00  0.26432884419E+03  0.29239751141E+03  0.12500626707E+03 0.  0.
    9000005    1    3    3    0    0  0.59125281867E+02 -0.16596379592E+02  0.15928171015E+03  0.17071292265E+03  0.10000000000E+01 0.  0.
    9000005    1    3    3    0    0 -0.59125281867E+02  0.16596379592E+02  0.10504713404E+03  0.12168458876E+03  0.10000000000E+01 0.  0.
<mgrwt>
<rscale>  0 0.12500627E+03</rscale>
<asrwt>0</asrwt>
<pdfrwt beam="2">  1        4 0.21591282E-02 0.12500627E+03</pdfrwt>
<pdfrwt beam="1">  1       -4 0.42825106E-01 0.12500627E+03</pdfrwt>
<totfact> 0.76551826E+03</totfact>
</mgrwt>
</event>
<event>
 5    1  0.3206158E-002  0.1250037E+03  0.7818608E-02  0.1235064E+00
         -4   -1    0    0    0  501 -0.00000000000E+00  0.00000000000E+00  0.57185980758E+01  0.58579231774E+01  0.12700000000E+01 0. -1.
          4   -1    0    0  501    0  0.00000000000E+00 -0.00000000000E+00 -0.67475679692E+03  0.67475799209E+03  0.12700000000E+01 0. -1.
         25    2    1    2    0    0  0.00000000000E+00  0.00000000000E+00 -0.66903819885E+03  0.68061591527E+03  0.12500365036E+03 0.  0.
    9000005    1    3    3    0    0  0.48636396012E+02 -0.27461515877E+02 -0.18188637620E+03  0.19027161564E+03  0.10000000000E+01 0.  0.
    9000005    1    3    3    0    0 -0.48636396012E+02  0.27461515877E+02 -0.48715182264E+03  0.49034429963E+03  0.10000000000E+01 0.  0.
<mgrwt>
<rscale>  0 0.12500365E+03</rscale>
<asrwt>0</asrwt>
<pdfrwt beam="2">  1        4 0.10381948E+00 0.12500365E+03</pdfrwt>
<pdfrwt beam="1">  1       -4 0.89059411E-03 0.12500365E+03</pdfrwt>
<totfact> 0.44126398E+03</totfact>
</mgrwt>
</event>
<event>
 5    1  0.3206158E-002  0.1249982E+03  0.7818608E-02  0.1235072E+00
         -4   -1    0    0    0  501 -0.00000000000E+00  0.00000000000E+00  0.25048104288E+01  0.28083759158E+01  0.12700000000E+01 0.  1.
          4   -1    0    0  501    0  0.00000000000E+00 -0.00000000000E+00 -0.14700520147E+04  0.14700525633E+04  0.12700000000E+01 0.  1.
         25    2    1    2    0    0  0.00000000000E+00  0.00000000000E+00 -0.14675472043E+04  0.14728609392E+04  0.12499819784E+03 0.  0.
    9000005    1    3    3    0    0 -0.22524517643E+02  0.14987124061E+02 -0.13975237554E+04  0.13977859689E+04  0.10000000000E+01 0.  0.
    9000005    1    3    3    0    0  0.22524517643E+02 -0.14987124061E+02 -0.70023448859E+02  0.75074970348E+02  0.10000000000E+01 0.  0.
<mgrwt>
<rscale>  0 0.12499820E+03</rscale>
<asrwt>0</asrwt>
<pdfrwt beam="2">  1        4 0.22618459E+00 0.12499820E+03</pdfrwt>
<pdfrwt beam="1">  1       -4 0.40875002E-03 0.12499820E+03</pdfrwt>
<totfact> 0.18470125E+03</totfact>
</mgrwt>
</event>
<event>
 5    1  0.3206158E-002  0.1250025E+03  0.7818608E-02  0.1235065E+00
         -4   -1    0    0    0  501 -0.00000000000E+00  0.00000000000E+00  0.57719624008E+02  0.57733594169E+02  0.12700000000E+01 0. -1.
          4   -1    0    0  501    0  0.00000000000E+00 -0.00000000000E+00 -0.67650858306E+02  0.67662778022E+02  0.12700000000E+01 0. -1.
         25    2    1    2    0    0  0.00000000000E+00  0.00000000000E+00 -0.99312342985E+01  0.12539637219E+03  0.12500248295E+03 0.  0.
    9000005    1    3    3    0    0  0.21072597015E+02  0.48153738340E+02 -0.38874026910E+02  0.65383689321E+02  0.10000000000E+01 0.  0.
    9000005    1    3    3    0    0 -0.21072597015E+02 -0.48153738340E+02  0.28942792611E+02  0.60012682869E+02  0.10000000000E+01 0.  0.
<mgrwt>
<rscale>  0 0.12500248E+03</rscale>
<asrwt>0</asrwt>
<pdfrwt beam="2">  1        4 0.10409816E-01 0.12500248E+03</pdfrwt>
<pdfrwt beam="1">  1       -4 0.88819337E-02 0.12500248E+03</pdfrwt>
<totfact> 0.10443663E+04</totfact>
</mgrwt>
</event>
<event>
 5    1  0.3206158E-002  0.1249960E+03  0.7818608E-02  0.1235076E+00
         -4   -1    0    0    0  501 -0.00000000000E+00  0.00000000000E+00  0.46897746302E+01  0.48586918077E+01  0.12700000000E+01 0. -1.
          4   -1    0    0  501    0  0.00000000000E+00 -0.00000000000E+00 -0.81797201339E+03  0.81797299930E+03  0.12700000000E+01 0. -1.
         25    2    1    2    0    0  0.00000000000E+00  0.00000000000E+00 -0.81328223876E+03  0.82283169111E+03  0.12499596799E+03 0.  0.
    9000005    1    3    3    0    0  0.52879420521E+02 -0.30189099734E+02 -0.49912585077E+03  0.50282723650E+03  0.10000000000E+01 0.  0.
    9000005    1    3    3    0    0 -0.52879420521E+02  0.30189099734E+02 -0.31415638798E+03  0.32000445460E+03  0.10000000000E+01 0.  0.
<mgrwt>
<rscale>  0 0.12499597E+03</rscale>
<asrwt>0</asrwt>
<pdfrwt beam="2">  1        4 0.12585481E+00 0.12499597E+03</pdfrwt>
<pdfrwt beam="1">  1       -4 0.73457391E-03 0.12499597E+03</pdfrwt>
<totfact> 0.37268870E+03</totfact>
</mgrwt>
</event>
<event>
 5    1  0.3206158E-002  0.1250044E+03  0.7818608E-02  0.1235062E+00
          4   -1    0    0  501    0  0.00000000000E+00  0.00000000000E+00  0.42070354545E+03  0.42070546235E+03  0.12700000000E+01 0.  1.
         -4   -1    0    0    0  501 -0.00000000000E+00 -0.00000000000E+00 -0.92403274877E+01  0.93271942234E+01  0.12700000000E+01 0.  1.
         25    2    1    2    0    0  0.00000000000E+00  0.00000000000E+00  0.41146321796E+03  0.43003265657E+03  0.12500442387E+03 0.  0.
    9000005    1    3    3    0    0  0.29491327527E+02 -0.38399071297E+02  0.34166280982E+03  0.34507782120E+03  0.10000000000E+01 0.  0.
    9000005    1    3    3    0    0 -0.29491327527E+02  0.38399071297E+02  0.69800408144E+02  0.84954835371E+02  0.10000000000E+01 0.  0.
<mgrwt>
<rscale>  0 0.12500442E+03</rscale>
<asrwt>0</asrwt>
<pdfrwt beam="1">  1        4 0.64730460E-01 0.12500442E+03</pdfrwt>
<pdfrwt beam="2">  1       -4 0.14284182E-02 0.12500442E+03</pdfrwt>
<totfact> 0.61727004E+03</totfact>
</mgrwt>
</event>
<event>
 5    1  0.3206158E-002  0.1250430E+03  0.7818608E-02  0.1235002E+00
         -4   -1    0    0    0  501 -0.00000000000E+00  0.00000000000E+00  0.12347525175E+03  0.12348178284E+03  0.12700000000E+01 0. -1.
          4   -1    0    0  501    0  0.00000000000E+00 -0.00000000000E+00 -0.31637551421E+02  0.31663031439E+02  0.12700000000E+01 0. -1.
         25    2    1    2    0    0  0.00000000000E+00  0.00000000000E+00  0.91837700326E+02  0.15514481428E+03  0.12504299340E+03 0.  0.
    9000005    1    3    3    0    0 -0.10989811747E+02  0.61535054363E+02  0.46878852419E+02  0.78140678791E+02  0.10000000000E+01 0.  0.
    9000005    1    3    3    0    0  0.10989811747E+02 -0.61535054363E+02  0.44958847907E+02  0.77004135492E+02  0.10000000000E+01 0.  0.
<mgrwt>
<rscale>  0 0.12504299E+03</rscale>
<asrwt>0</asrwt>
<pdfrwt beam="2">  1        4 0.48697779E-02 0.12504299E+03</pdfrwt>
<pdfrwt beam="1">  1       -4 0.18998655E-01 0.12504299E+03</pdfrwt>
<totfact> 0.98192104E+03</totfact>
</mgrwt>
</event>
<event>
 5    1  0.3206158E-002  0.1249984E+03  0.7818608E-02  0.1235072E+00
          4   -1    0    0  501    0  0.00000000000E+00  0.00000000000E+00  0.11276535949E+03  0.11277251084E+03  0.12700000000E+01 0.  1.
         -4   -1    0    0    0  501 -0.00000000000E+00 -0.00000000000E+00 -0.34619740103E+02  0.34643026785E+02  0.12700000000E+01 0.  1.
         25    2    1    2    0    0  0.00000000000E+00  0.00000000000E+00  0.78145619386E+02  0.14741553762E+03  0.12499841160E+03 0.  0.
    9000005    1    3    3    0    0 -0.24316185909E+01 -0.61578330022E+02  0.26853851336E+02  0.67230445699E+02  0.10000000000E+01 0.  0.
    9000005    1    3    3    0    0  0.24316185909E+01  0.61578330022E+02  0.51291768050E+02  0.80185091925E+02  0.10000000000E+01 0.  0.
<mgrwt>
<rscale>  0 0.12499841E+03</rscale>
<asrwt>0</asrwt>
<pdfrwt beam="1">  1        4 0.17350858E-01 0.12499841E+03</pdfrwt>
<pdfrwt beam="2">  1       -4 0.53284553E-02 0.12499841E+03</pdfrwt>
<totfact> 0.99824958E+03</totfact>
</mgrwt>
</event>
<event>
 5    1  0.3206158E-002  0.1250184E+03  0.7818608E-02  0.1235041E+00
          4   -1    0    0  501    0  0.00000000000E+00  0.00000000000E+00  0.36120754775E+03  0.36120978040E+03  0.12700000000E+01 0.  1.
         -4   -1    0    0    0  501 -0.00000000000E+00 -0.00000000000E+00 -0.10778055533E+02  0.10852620931E+02  0.12700000000E+01 0.  1.
         25    2    1    2    0    0  0.00000000000E+00  0.00000000000E+00  0.35042949222E+03  0.37206240133E+03  0.12501840450E+03 0.  0.
    9000005    1    3    3    0    0  0.60193887126E+02 -0.14027698227E+02  0.20286489991E+03  0.21207368526E+03  0.10000000000E+01 0.  0.
    9000005    1    3    3    0    0 -0.60193887126E+02  0.14027698227E+02  0.14756459231E+03  0.15998871607E+03  0.10000000000E+01 0.  0.
<mgrwt>
<rscale>  0 0.12501840E+03</rscale>
<asrwt>0</asrwt>
<pdfrwt beam="1">  1        4 0.55576299E-01 0.12501840E+03</pdfrwt>
<pdfrwt beam="2">  1       -4 0.16640699E-02 0.12501840E+03</pdfrwt>
<totfact> 0.67336321E+03</totfact>
</mgrwt>
</event>
<event>
 5    1  0.3206158E-002  0.1249993E+03  0.7818608E-02  0.1235070E+00
         -4   -1    0    0    0  501 -0.00000000000E+00  0.00000000000E+00  0.11507619002E+03  0.11508319777E+03  0.12700000000E+01 0. -1.
          4   -1    0    0  501    0  0.00000000000E+00 -0.00000000000E+00 -0.33924585517E+02  0.33948349040E+02  0.12700000000E+01 0. -1.
         25    2    1    2    0    0  0.00000000000E+00  0.00000000000E+00  0.81151604501E+02  0.14903154681E+03  0.12499927612E+03 0.  0.
    9000005    1    3    3    0    0 -0.21059718784E+02  0.92025401000E+01 -0.28708786549E+02  0.36788489024E+02  0.10000000000E+01 0.  0.
    9000005    1    3    3    0    0  0.21059718784E+02 -0.92025401000E+01  0.10986039105E+03  0.11224305779E+03  0.10000000000E+01 0.  0.
<mgrwt>
<rscale>  0 0.12499928E+03</rscale>
<asrwt>0</asrwt>
<pdfrwt beam="2">  1        4 0.52215339E-02 0.12499928E+03</pdfrwt>
<pdfrwt beam="1">  1       -4 0.17706397E-01 0.12499928E+03</pdfrwt>
<totfact> 0.99498716E+03</totfact>
</mgrwt>
</event>
<event>
 5    1  0.3206158E-002  0.1249985E+03  0.7818608E-02  0.1235072E+00
          4   -1    0    0  501    0  0.00000000000E+00  0.00000000000E+00  0.13452931929E+02  0.13512745002E+02  0.12700000000E+01 0.  1.
         -4   -1    0    0    0  501 -0.00000000000E+00 -0.00000000000E+00 -0.28965202598E+03  0.28965481017E+03  0.12700000000E+01 0.  1.
         25    2    1    2    0    0  0.00000000000E+00  0.00000000000E+00 -0.27619909406E+03  0.30316755518E+03  0.12499850781E+03 0.  0.
    9000005    1    3    3    0    0  0.10278312916E+02 -0.42682785922E+01 -0.28724092892E+03  0.28745819377E+03  0.10000000000E+01 0.  0.
    9000005    1    3    3    0    0 -0.10278312916E+02  0.42682785922E+01  0.11041834866E+02  0.15709361405E+02  0.10000000000E+01 0.  0.
<mgrwt>
<rscale>  0 0.12499851E+03</rscale>
<asrwt>0</asrwt>
<pdfrwt beam="1">  1        4 0.20744972E-02 0.12499851E+03</pdfrwt>
<pdfrwt beam="2">  1       -4 0.44566661E-01 0.12499851E+03</pdfrwt>
<totfact> 0.75205709E+03</totfact>
</mgrwt>
</event>
<event>
 5    1  0.3206158E-002  0.1250001E+03  0.7818608E-02  0.1235069E+00
          4   -1    0    0  501    0  0.00000000000E+00  0.00000000000E+00  0.11337543947E+02  0.11408453127E+02  0.12700000000E+01 0. -1.
         -4   -1    0    0    0  501 -0.00000000000E+00 -0.00000000000E+00 -0.34339570076E+03  0.34339804921E+03  0.12700000000E+01 0. -1.
         25    2    1    2    0    0  0.00000000000E+00  0.00000000000E+00 -0.33205815682E+03  0.35480650234E+03  0.12500013838E+03 0.  0.
    9000005    1    3    3    0    0 -0.21151810724E+02 -0.57855117195E+02 -0.13617202766E+03  0.14946047906E+03  0.10000000000E+01 0.  0.
    9000005    1    3    3    0    0  0.21151810724E+02  0.57855117195E+02 -0.19588612916E+03  0.20534602328E+03  0.10000000000E+01 0.  0.
<mgrwt>
<rscale>  0 0.12500014E+03</rscale>
<asrwt>0</asrwt>
<pdfrwt beam="1">  1        4 0.17498730E-02 0.12500014E+03</pdfrwt>
<pdfrwt beam="2">  1       -4 0.52835735E-01 0.12500014E+03</pdfrwt>
<totfact> 0.69198790E+03</totfact>
</mgrwt>
</event>
<event>
 5    1  0.3206158E-002  0.1250013E+03  0.7818608E-02  0.1235067E+00
         -4   -1    0    0    0  501 -0.00000000000E+00  0.00000000000E+00  0.40366668915E+02  0.40386642090E+02  0.12700000000E+01 0.  1.
          4   -1    0    0  501    0  0.00000000000E+00 -0.00000000000E+00 -0.96723110638E+02  0.96731447996E+02  0.12700000000E+01 0.  1.
         25    2    1    2    0    0  0.00000000000E+00  0.00000000000E+00 -0.56356441723E+02  0.13711809009E+03  0.12500128841E+03 0.  0.
    9000005    1    3    3    0    0  0.42187516919E+02  0.23529644493E+02  0.15312107981E+02  0.50684232307E+02  0.10000000000E+01 0.  0.
    9000005    1    3    3    0    0 -0.42187516919E+02 -0.23529644493E+02 -0.71668549704E+02  0.86433857779E+02  0.10000000000E+01 0.  0.
<mgrwt>
<rscale>  0 0.12500129E+03</rscale>
<asrwt>0</asrwt>
<pdfrwt beam="2">  1        4 0.14882656E-01 0.12500129E+03</pdfrwt>
<pdfrwt beam="1">  1       -4 0.62124345E-02 0.12500129E+03</pdfrwt>
<totfact> 0.10193321E+04</totfact>
</mgrwt>
</event>
<event>
 5    1  0.3206158E-002  0.1250059E+03  0.7818608E-02  0.1235060E+00
         -4   -1    0    0    0  501 -0.00000000000E+00  0.00000000000E+00  0.13646297490E+03  0.13646888444E+03  0.12700000000E+01 0.  1.
          4   -1    0    0  501    0  0.00000000000E+00 -0.00000000000E+00 -0.28607085049E+02  0.28635261741E+02  0.12700000000E+01 0.  1.
         25    2    1    2    0    0  0.00000000000E+00  0.00000000000E+00  0.10785588985E+03  0.16510414618E+03  0.12500594429E+03 0.  0.
    9000005    1    3    3    0    0 -0.50521818061E+02 -0.32562569680E+02  0.76529968354E+02  0.97317064797E+02  0.10000000000E+01 0.  0.
    9000005    1    3    3    0    0  0.50521818061E+02  0.32562569680E+02  0.31325921500E+02  0.67787081381E+02  0.10000000000E+01 0.  0.
<mgrwt>
<rscale>  0 0.12500594E+03</rscale>
<asrwt>0</asrwt>
<pdfrwt beam="2">  1        4 0.44037121E-02 0.12500594E+03</pdfrwt>
<pdfrwt beam="1">  1       -4 0.20996925E-01 0.12500594E+03</pdfrwt>
<totfact> 0.96354805E+03</totfact>
</mgrwt>
</event>
<event>
 5    1  0.3206158E-002  0.1250018E+03  0.7818608E-02  0.1235066E+00
         -4   -1    0    0    0  501 -0.00000000000E+00  0.00000000000E+00  0.23999363151E+02  0.24032942634E+02  0.12700000000E+01 0. -1.
          4   -1    0    0  501    0  0.00000000000E+00 -0.00000000000E+00 -0.16261963724E+03  0.16262459628E+03  0.12700000000E+01 0. -1.
         25    2    1    2    0    0  0.00000000000E+00  0.00000000000E+00 -0.13862027409E+03  0.18665753891E+03  0.12500182577E+03 0.  0.
    9000005    1    3    3    0    0 -0.22715477655E+02  0.47737697353E+02 -0.19549581323E+02  0.56374345260E+02  0.10000000000E+01 0.  0.
    9000005    1    3    3    0    0  0.22715477655E+02 -0.47737697353E+02 -0.11907069276E+03  0.13028319365E+03  0.10000000000E+01 0.  0.
<mgrwt>
<rscale>  0 0.12500183E+03</rscale>
<asrwt>0</asrwt>
<pdfrwt beam="2">  1        4 0.25021370E-01 0.12500183E+03</pdfrwt>
<pdfrwt beam="1">  1       -4 0.36951743E-02 0.12500183E+03</pdfrwt>
<totfact> 0.92428385E+03</totfact>
</mgrwt>
</event>
<event>
 5    1  0.3206158E-002  0.1249988E+03  0.7818608E-02  0.1235071E+00
         -4   -1    0    0    0  501 -0.00000000000E+00  0.00000000000E+00  0.64982384216E+02  0.64994793318E+02  0.12700000000E+01 0.  1.
          4   -1    0    0  501    0  0.00000000000E+00 -0.00000000000E+00 -0.60086412048E+02  0.60099832053E+02  0.12700000000E+01 0.  1.
         25    2    1    2    0    0  0.00000000000E+00  0.00000000000E+00  0.48959721679E+01  0.12509462537E+03  0.12499877901E+03 0.  0.
    9000005    1    3    3    0    0 -0.24217773072E+02  0.36108404788E+02 -0.42473582683E+02  0.60789165604E+02  0.10000000000E+01 0.  0.
    9000005    1    3    3    0    0  0.24217773072E+02 -0.36108404788E+02  0.47369554851E+02  0.64305459766E+02  0.10000000000E+01 0.  0.
<mgrwt>
<rscale>  0 0.12499878E+03</rscale>
<asrwt>0</asrwt>
<pdfrwt beam="2">  1        4 0.92460503E-02 0.12499878E+03</pdfrwt>
<pdfrwt beam="1">  1       -4 0.99992767E-02 0.12499878E+03</pdfrwt>
<totfact> 0.10451096E+04</totfact>
</mgrwt>
</event>
<event>
 5    1  0.3206158E-002  0.1250092E+03  0.7818608E-02  0.1235055E+00
         -4   -1    0    0    0  501 -0.00000000000E+00  0.00000000000E+00  0.44813452705E+02  0.44831444805E+02  0.12700000000E+01 0. -1.
          4   -1    0    0  501    0  0.00000000000E+00 -0.00000000000E+00 -0.87139658575E+02  0.87148912768E+02  0.12700000000E+01 0. -1.
         25    2    1    2    0    0  0.00000000000E+00  0.00000000000E+00 -0.42326205870E+02  0.13198035757E+03  0.12500922799E+03 0.  0.
    9000005    1    3    3    0    0 -0.43155841278E+02 -0.40815481873E+02 -0.41675845729E+02  0.72568631750E+02  0.10000000000E+01 0.  0.
    9000005    1    3    3    0    0  0.43155841278E+02  0.40815481873E+02 -0.65036014073E+00  0.59411725822E+02  0.10000000000E+01 0.  0.
<mgrwt>
<rscale>  0 0.12500923E+03</rscale>
<asrwt>0</asrwt>
<pdfrwt beam="2">  1        4 0.13408197E-01 0.12500923E+03</pdfrwt>
<pdfrwt beam="1">  1       -4 0.68964732E-02 0.12500923E+03</pdfrwt>
<totfact> 0.10299973E+04</totfact>
</mgrwt>
</event>
<event>
 5    1  0.3206158E-002  0.1250024E+03  0.7818608E-02  0.1235066E+00
         -4   -1    0    0    0  501 -0.00000000000E+00  0.00000000000E+00  0.34761562458E+01  0.37008866837E+01  0.12700000000E+01 0. -1.
          4   -1    0    0  501    0  0.00000000000E+00 -0.00000000000E+00 -0.10883566891E+04  0.10883574301E+04  0.12700000000E+01 0. -1.
         25    2    1    2    0    0  0.00000000000E+00  0.00000000000E+00 -0.10848805329E+04  0.10920583168E+04  0.12500238656E+03 0.  0.
    9000005    1    3    3    0    0  0.38534406434E+02 -0.33413777757E+02 -0.85791845761E+03  0.85943380253E+03  0.10000000000E+01 0.  0.
    9000005    1    3    3    0    0 -0.38534406434E+02  0.33413777757E+02 -0.22696207526E+03  0.23262451425E+03  0.10000000000E+01 0.  0.
<mgrwt>
<rscale>  0 0.12500239E+03</rscale>
<asrwt>0</asrwt>
<pdfrwt beam="2">  1        4 0.16745657E+00 0.12500239E+03</pdfrwt>
<pdfrwt beam="1">  1       -4 0.55213809E-03 0.12500239E+03</pdfrwt>
<totfact> 0.27715593E+03</totfact>
</mgrwt>
</event>
<event>
 5    1  0.3206158E-002  0.1250570E+03  0.7818608E-02  0.1234980E+00
         -4   -1    0    0    0  501 -0.00000000000E+00  0.00000000000E+00  0.17617328880E+02  0.17663045515E+02  0.12700000000E+01 0.  1.
          4   -1    0    0  501    0  0.00000000000E+00 -0.00000000000E+00 -0.22159490605E+03  0.22159854532E+03  0.12700000000E+01 0.  1.
         25    2    1    2    0    0  0.00000000000E+00  0.00000000000E+00 -0.20397757717E+03  0.23926159083E+03  0.12505701444E+03 0.  0.
    9000005    1    3    3    0    0  0.26092325903E+02  0.27725837746E+02 -0.71099949693E+01  0.38743819871E+02  0.10000000000E+01 0.  0.
    9000005    1    3    3    0    0 -0.26092325903E+02 -0.27725837746E+02 -0.19686758220E+03  0.20051777096E+03  0.10000000000E+01 0.  0.
<mgrwt>
<rscale>  0 0.12505701E+03</rscale>
<asrwt>0</asrwt>
<pdfrwt beam="2">  1        4 0.34095319E-01 0.12505701E+03</pdfrwt>
<pdfrwt beam="1">  1       -4 0.27141550E-02 0.12505701E+03</pdfrwt>
<totfact> 0.83800896E+03</totfact>
</mgrwt>
</event>
<event>
 5    1  0.3206158E-002  0.1250046E+03  0.7818608E-02  0.1235062E+00
          4   -1    0    0  501    0  0.00000000000E+00  0.00000000000E+00  0.39133730643E+03  0.39133936718E+03  0.12700000000E+01 0.  1.
         -4   -1    0    0    0  501 -0.00000000000E+00 -0.00000000000E+00 -0.99400404121E+01  0.10020843447E+02  0.12700000000E+01 0.  1.
         25    2    1    2    0    0  0.00000000000E+00  0.00000000000E+00  0.38139726602E+03  0.40136021063E+03  0.12500457651E+03 0.  0.
    9000005    1    3    3    0    0  0.11885021669E+02 -0.15612008147E+02  0.38120675984E+03  0.38171269600E+03  0.10000000000E+01 0.  0.
    9000005    1    3    3    0    0 -0.11885021669E+02  0.15612008147E+02  0.19050617762E+00  0.19647514628E+02  0.10000000000E+01 0.  0.
<mgrwt>
<rscale>  0 0.12500458E+03</rscale>
<asrwt>0</asrwt>
<pdfrwt beam="1">  1        4 0.60212112E-01 0.12500458E+03</pdfrwt>
<pdfrwt beam="2">  1       -4 0.15356112E-02 0.12500458E+03</pdfrwt>
<totfact> 0.64414203E+03</totfact>
</mgrwt>
</event>
<event>
 5    1  0.3206158E-002  0.1250001E+03  0.7818608E-02  0.1235069E+00
          4   -1    0    0  501    0  0.00000000000E+00  0.00000000000E+00  0.21210088933E+04  0.21210092736E+04  0.12700000000E+01 0. -1.
         -4   -1    0    0    0  501 -0.00000000000E+00 -0.00000000000E+00 -0.16223310110E+01  0.20603052952E+01  0.12700000000E+01 0. -1.
         25    2    1    2    0    0  0.00000000000E+00  0.00000000000E+00  0.21193865623E+04  0.21230695789E+04  0.12500014432E+03 0.  0.
    9000005    1    3    3    0    0  0.54434431338E+02 -0.30335332715E+02  0.98017499852E+03  0.98215445193E+03  0.10000000000E+01 0.  0.
    9000005    1    3    3    0    0 -0.54434431338E+02  0.30335332715E+02  0.11392115638E+04  0.11409151269E+04  0.10000000000E+01 0.  0.
<mgrwt>
<rscale>  0 0.12500014E+03</rscale>
<asrwt>0</asrwt>
<pdfrwt beam="1">  1        4 0.32634176E+00 0.12500014E+03</pdfrwt>
<pdfrwt beam="2">  1       -4 0.28330985E-03 0.12500014E+03</pdfrwt>
<totfact> 0.83392780E+02</totfact>
</mgrwt>
</event>
<event>
 5    1  0.3206158E-002  0.1249976E+03  0.7818608E-02  0.1235073E+00
          4   -1    0    0  501    0  0.00000000000E+00  0.00000000000E+00  0.32507108810E+02  0.32531907771E+02  0.12700000000E+01 0. -1.
         -4   -1    0    0    0  501 -0.00000000000E+00 -0.00000000000E+00 -0.12008749331E+03  0.12009420864E+03  0.12700000000E+01 0. -1.
         25    2    1    2    0    0  0.00000000000E+00  0.00000000000E+00 -0.87580384502E+02  0.15262611642E+03  0.12499763063E+03 0.  0.
    9000005    1    3    3    0    0  0.39448732449E+02 -0.46549648172E+02 -0.27316225913E+02  0.66859916504E+02  0.10000000000E+01 0.  0.
    9000005    1    3    3    0    0 -0.39448732449E+02  0.46549648172E+02 -0.60264158589E+02  0.85766199911E+02  0.10000000000E+01 0.  0.
<mgrwt>
<rscale>  0 0.12499763E+03</rscale>
<asrwt>0</asrwt>
<pdfrwt beam="1">  1        4 0.50035179E-02 0.12499763E+03</pdfrwt>
<pdfrwt beam="2">  1       -4 0.18477423E-01 0.12499763E+03</pdfrwt>
<totfact> 0.98788040E+03</totfact>
</mgrwt>
</event>
<event>
 5    1  0.3206158E-002  0.1249881E+03  0.7818608E-02  0.1235088E+00
         -4   -1    0    0    0  501 -0.00000000000E+00  0.00000000000E+00  0.52737171004E+01  0.54244808097E+01  0.12700000000E+01 0. -1.
          4   -1    0    0  501    0  0.00000000000E+00 -0.00000000000E+00 -0.72997231221E+03  0.72997341698E+03  0.12700000000E+01 0. -1.
         25    2    1    2    0    0  0.00000000000E+00  0.00000000000E+00 -0.72469859511E+03  0.73539789779E+03  0.12498805669E+03 0.  0.
    9000005    1    3    3    0    0  0.39146378007E+02  0.41665195414E+02 -0.51074059337E+03  0.51393130001E+03  0.10000000000E+01 0.  0.
    9000005    1    3    3    0    0 -0.39146378007E+02 -0.41665195414E+02 -0.21395800174E+03  0.22146659777E+03  0.10000000000E+01 0.  0.
<mgrwt>
<rscale>  0 0.12498806E+03</rscale>
<asrwt>0</asrwt>
<pdfrwt beam="2">  1        4 0.11231504E+00 0.12498806E+03</pdfrwt>
<pdfrwt beam="1">  1       -4 0.82302386E-03 0.12498806E+03</pdfrwt>
<totfact> 0.41293292E+03</totfact>
</mgrwt>
</event>
<event>
 5    1  0.3206158E-002  0.1249959E+03  0.7818608E-02  0.1235076E+00
          4   -1    0    0  501    0  0.00000000000E+00  0.00000000000E+00  0.20227839160E+03  0.20228237839E+03  0.12700000000E+01 0.  1.
         -4   -1    0    0    0  501 -0.00000000000E+00 -0.00000000000E+00 -0.19284918042E+02  0.19326690453E+02  0.12700000000E+01 0.  1.
         25    2    1    2    0    0  0.00000000000E+00  0.00000000000E+00  0.18299347356E+03  0.22160906884E+03  0.12499587205E+03 0.  0.
    9000005    1    3    3    0    0  0.35983580821E+02 -0.27531453940E+02  0.16779857011E+03  0.17381069925E+03  0.10000000000E+01 0.  0.
    9000005    1    3    3    0    0 -0.35983580821E+02  0.27531453940E+02  0.15194903449E+02  0.47798369592E+02  0.10000000000E+01 0.  0.
<mgrwt>
<rscale>  0 0.12499587E+03</rscale>
<asrwt>0</asrwt>
<pdfrwt beam="1">  1        4 0.31123273E-01 0.12499587E+03</pdfrwt>
<pdfrwt beam="2">  1       -4 0.29704303E-02 0.12499587E+03</pdfrwt>
<totfact> 0.86622358E+03</totfact>
</mgrwt>
</event>
<event>
 5    1  0.3206158E-002  0.1250000E+03  0.7818608E-02  0.1235069E+00
         -4   -1    0    0    0  501 -0.00000000000E+00  0.00000000000E+00  0.53717588698E+02  0.53732599374E+02  0.12700000000E+01 0.  1.
          4   -1    0    0  501    0  0.00000000000E+00 -0.00000000000E+00 -0.72687511523E+02  0.72698605429E+02  0.12700000000E+01 0.  1.
         25    2    1    2    0    0  0.00000000000E+00  0.00000000000E+00 -0.18969922825E+02  0.12643120480E+03  0.12499996630E+03 0.  0.
    9000005    1    3    3    0    0 -0.56923538244E+02 -0.24403617120E+02 -0.10575646784E+01  0.61951143474E+02  0.10000000000E+01 0.  0.
    9000005    1    3    3    0    0  0.56923538244E+02  0.24403617120E+02 -0.17912358147E+02  0.64480061330E+02  0.10000000000E+01 0.  0.
<mgrwt>
<rscale>  0 0.12499997E+03</rscale>
<asrwt>0</asrwt>
<pdfrwt beam="2">  1        4 0.11184702E-01 0.12499997E+03</pdfrwt>
<pdfrwt beam="1">  1       -4 0.82662525E-02 0.12499997E+03</pdfrwt>
<totfact> 0.10421537E+04</totfact>
</mgrwt>
</event>
<event>
 5    1  0.3206158E-002  0.1249959E+03  0.7818608E-02  0.1235076E+00
          4   -1    0    0  501    0  0.00000000000E+00  0.00000000000E+00  0.33100905287E+02  0.33125259710E+02  0.12700000000E+01 0.  1.
         -4   -1    0    0    0  501 -0.00000000000E+00 -0.00000000000E+00 -0.11793153043E+03  0.11793836852E+03  0.12700000000E+01 0.  1.
         25    2    1    2    0    0  0.00000000000E+00  0.00000000000E+00 -0.84830625139E+02  0.15106362823E+03  0.12499593918E+03 0.  0.
    9000005    1    3    3    0    0  0.20240983154E+02  0.28618090303E+02 -0.10493714605E+03  0.11064129931E+03  0.10000000000E+01 0.  0.
    9000005    1    3    3    0    0 -0.20240983154E+02 -0.28618090303E+02  0.20106520915E+02  0.40422328915E+02  0.10000000000E+01 0.  0.
<mgrwt>
<rscale>  0 0.12499594E+03</rscale>
<asrwt>0</asrwt>
<pdfrwt beam="1">  1        4 0.50948464E-02 0.12499594E+03</pdfrwt>
<pdfrwt beam="2">  1       -4 0.18145712E-01 0.12499594E+03</pdfrwt>
<totfact> 0.99101157E+03</totfact>
</mgrwt>
</event>
<event>
 5    1  0.3206158E-002  0.1249908E+03  0.7818608E-02  0.1235084E+00
          4   -1    0    0  501    0  0.00000000000E+00  0.00000000000E+00  0.47103869690E+02  0.47120987254E+02  0.12700000000E+01 0.  1.
         -4   -1    0    0    0  501 -0.00000000000E+00 -0.00000000000E+00 -0.82879218132E+02  0.82888947986E+02  0.12700000000E+01 0.  1.
         25    2    1    2    0    0  0.00000000000E+00  0.00000000000E+00 -0.35775348442E+02  0.13000993524E+03  0.12499083048E+03 0.  0.
    9000005    1    3    3    0    0 -0.36825607061E+02  0.12941268928E+02 -0.68643387982E+02  0.78971618260E+02  0.10000000000E+01 0.  0.
    9000005    1    3    3    0    0  0.36825607061E+02 -0.12941268928E+02  0.32868039540E+02  0.51038316980E+02  0.10000000000E+01 0.  0.
<mgrwt>
<rscale>  0 0.12499083E+03</rscale>
<asrwt>0</asrwt>
<pdfrwt beam="1">  1        4 0.72488144E-02 0.12499083E+03</pdfrwt>
<pdfrwt beam="2">  1       -4 0.12752714E-01 0.12499083E+03</pdfrwt>
<totfact> 0.10346436E+04</totfact>
</mgrwt>
</event>
<event>
 5    1  0.3206158E-002  0.1249969E+03  0.7818608E-02  0.1235074E+00
          4   -1    0    0  501    0  0.00000000000E+00  0.00000000000E+00  0.25368610033E+03  0.25368927924E+03  0.12700000000E+01 0. -1.
         -4   -1    0    0    0  501 -0.00000000000E+00 -0.00000000000E+00 -0.15367729764E+02  0.15420117318E+02  0.12700000000E+01 0. -1.
         25    2    1    2    0    0  0.00000000000E+00  0.00000000000E+00  0.23831837057E+03  0.26910939656E+03  0.12499688622E+03 0.  0.
    9000005    1    3    3    0    0  0.31095857839E+02 -0.18380445618E+02  0.22894298100E+03  0.23177722430E+03  0.10000000000E+01 0.  0.
    9000005    1    3    3    0    0 -0.31095857839E+02  0.18380445618E+02  0.93753895693E+01  0.37332172257E+02  0.10000000000E+01 0.  0.
<mgrwt>
<rscale>  0 0.12499689E+03</rscale>
<asrwt>0</asrwt>
<pdfrwt beam="1">  1        4 0.39032902E-01 0.12499689E+03</pdfrwt>
<pdfrwt beam="2">  1       -4 0.23685406E-02 0.12499689E+03</pdfrwt>
<totfact> 0.79649960E+03</totfact>
</mgrwt>
</event>
<event>
 5    1  0.3206158E-002  0.1250002E+03  0.7818608E-02  0.1235069E+00
          4   -1    0    0  501    0  0.00000000000E+00  0.00000000000E+00  0.40704966644E+02  0.40724773903E+02  0.12700000000E+01 0.  1.
         -4   -1    0    0    0  501 -0.00000000000E+00 -0.00000000000E+00 -0.95917888827E+02  0.95926296171E+02  0.12700000000E+01 0.  1.
         25    2    1    2    0    0  0.00000000000E+00  0.00000000000E+00 -0.55212922183E+02  0.13665107007E+03  0.12500019270E+03 0.  0.
    9000005    1    3    3    0    0  0.24845023325E+02  0.14642316863E+02 -0.88213809013E+02  0.92813515868E+02  0.10000000000E+01 0.  0.
    9000005    1    3    3    0    0 -0.24845023325E+02 -0.14642316863E+02  0.33000886830E+02  0.43837554205E+02  0.10000000000E+01 0.  0.
<mgrwt>
<rscale>  0 0.12500019E+03</rscale>
<asrwt>0</asrwt>
<pdfrwt beam="1">  1        4 0.62644729E-02 0.12500019E+03</pdfrwt>
<pdfrwt beam="2">  1       -4 0.14758769E-01 0.12500019E+03</pdfrwt>
<totfact> 0.10203342E+04</totfact>
</mgrwt>
</event>
<event>
 5    1  0.3206158E-002  0.1250427E+03  0.7818608E-02  0.1235003E+00
         -4   -1    0    0    0  501 -0.00000000000E+00  0.00000000000E+00  0.19213673800E+03  0.19214093522E+03  0.12700000000E+01 0. -1.
          4   -1    0    0  501    0  0.00000000000E+00 -0.00000000000E+00 -0.20320220830E+02  0.20359869218E+02  0.12700000000E+01 0. -1.
         25    2    1    2    0    0  0.00000000000E+00  0.00000000000E+00  0.17181651717E+03  0.21250080444E+03  0.12504269797E+03 0.  0.
    9000005    1    3    3    0    0  0.57807129894E+02  0.18905772403E+02  0.11046637950E+03  0.12610675436E+03  0.10000000000E+01 0.  0.
    9000005    1    3    3    0    0 -0.57807129894E+02 -0.18905772403E+02  0.61350137670E+02  0.86394050078E+02  0.10000000000E+01 0.  0.
<mgrwt>
<rscale>  0 0.12504270E+03</rscale>
<asrwt>0</asrwt>
<pdfrwt beam="2">  1        4 0.31295605E-02 0.12504270E+03</pdfrwt>
<pdfrwt beam="1">  1       -4 0.29562871E-01 0.12504270E+03</pdfrwt>
<totfact> 0.87985090E+03</totfact>
</mgrwt>
</event>
<event>
 5    1  0.3206158E-002  0.1249984E+03  0.7818608E-02  0.1235072E+00
          4   -1    0    0  501    0  0.00000000000E+00  0.00000000000E+00  0.14449830330E+02  0.14505533308E+02  0.12700000000E+01 0.  1.
         -4   -1    0    0    0  501 -0.00000000000E+00 -0.00000000000E+00 -0.26974770741E+03  0.26975069704E+03  0.12700000000E+01 0.  1.
         25    2    1    2    0    0  0.00000000000E+00  0.00000000000E+00 -0.25529787708E+03  0.28425623034E+03  0.12499839379E+03 0.  0.
    9000005    1    3    3    0    0 -0.30348349645E+02 -0.26265058497E+02 -0.23657409704E+03  0.23995661903E+03  0.10000000000E+01 0.  0.
    9000005    1    3    3    0    0  0.30348349645E+02  0.26265058497E+02 -0.18723780037E+02  0.44299611318E+02  0.10000000000E+01 0.  0.
<mgrwt>
<rscale>  0 0.12499839E+03</rscale>
<asrwt>0</asrwt>
<pdfrwt beam="1">  1        4 0.22275658E-02 0.12499839E+03</pdfrwt>
<pdfrwt beam="2">  1       -4 0.41504159E-01 0.12499839E+03</pdfrwt>
<totfact> 0.77619896E+03</totfact>
</mgrwt>
</event>
<event>
 5    1  0.3206158E-002  0.1250002E+03  0.7818608E-02  0.1235069E+00
         -4   -1    0    0    0  501 -0.00000000000E+00  0.00000000000E+00  0.95834886954E+01  0.96672723958E+01  0.12700000000E+01 0.  1.
          4   -1    0    0  501    0  0.00000000000E+00 -0.00000000000E+00 -0.40574485810E+03  0.40574684568E+03  0.12700000000E+01 0.  1.
         25    2    1    2    0    0  0.00000000000E+00  0.00000000000E+00 -0.39616136941E+03  0.41541411807E+03  0.12500023553E+03 0.  0.
    9000005    1    3    3    0    0 -0.61807435333E+02  0.79922295788E+01 -0.18276823595E+03  0.19310427977E+03  0.10000000000E+01 0.  0.
    9000005    1    3    3    0    0  0.61807435333E+02 -0.79922295788E+01 -0.21339313346E+03  0.22230983830E+03  0.10000000000E+01 0.  0.
<mgrwt>
<rscale>  0 0.12500024E+03</rscale>
<asrwt>0</asrwt>
<pdfrwt beam="2">  1        4 0.62428870E-01 0.12500024E+03</pdfrwt>
<pdfrwt beam="1">  1       -4 0.14809810E-02 0.12500024E+03</pdfrwt>
<totfact> 0.63080419E+03</totfact>
</mgrwt>
</event>
<event>
 5    1  0.3206158E-002  0.1250001E+03  0.7818608E-02  0.1235069E+00
          4   -1    0    0  501    0  0.00000000000E+00  0.00000000000E+00  0.28999147880E+01  0.31658183425E+01  0.12700000000E+01 0.  1.
         -4   -1    0    0    0  501 -0.00000000000E+00 -0.00000000000E+00 -0.12877086179E+04  0.12877092442E+04  0.12700000000E+01 0.  1.
         25    2    1    2    0    0  0.00000000000E+00  0.00000000000E+00 -0.12848087031E+04  0.12908750625E+04  0.12500009367E+03 0.  0.
    9000005    1    3    3    0    0 -0.38505262597E+02 -0.38780506934E+02 -0.95541154793E+03  0.95697377649E+03  0.10000000000E+01 0.  0.
    9000005    1    3    3    0    0  0.38505262597E+02  0.38780506934E+02 -0.32939715518E+03  0.33390128602E+03  0.10000000000E+01 0.  0.
<mgrwt>
<rscale>  0 0.12500009E+03</rscale>
<asrwt>0</asrwt>
<pdfrwt beam="1">  1        4 0.46664406E-03 0.12500009E+03</pdfrwt>
<pdfrwt beam="2">  1       -4 0.19812908E+00 0.12500009E+03</pdfrwt>
<totfact> 0.22444930E+03</totfact>
</mgrwt>
</event>
<event>
 5    1  0.3206158E-002  0.1250000E+03  0.7818608E-02  0.1235069E+00
         -4   -1    0    0    0  501 -0.00000000000E+00  0.00000000000E+00  0.59740341669E+02  0.59753839398E+02  0.12700000000E+01 0.  1.
          4   -1    0    0  501    0  0.00000000000E+00 -0.00000000000E+00 -0.65360094106E+02  0.65372431510E+02  0.12700000000E+01 0.  1.
         25    2    1    2    0    0  0.00000000000E+00  0.00000000000E+00 -0.56197524363E+01  0.12512627091E+03  0.12500000822E+03 0.  0.
    9000005    1    3    3    0    0  0.16339851018E+02 -0.38927358371E+02  0.43311826361E+02  0.60491687559E+02  0.10000000000E+01 0.  0.
    9000005    1    3    3    0    0 -0.16339851018E+02  0.38927358371E+02 -0.48931578797E+02  0.64634583348E+02  0.10000000000E+01 0.  0.
<mgrwt>
<rscale>  0 0.12500001E+03</rscale>
<asrwt>0</asrwt>
<pdfrwt beam="2">  1        4 0.10057386E-01 0.12500001E+03</pdfrwt>
<pdfrwt beam="1">  1       -4 0.91928091E-02 0.12500001E+03</pdfrwt>
<totfact> 0.10450119E+04</totfact>
</mgrwt>
</event>
<event>
 4    1  0.3206158E-002  0.1250743E+03  0.7818608E-02  0.1234953E+00
         -4   -1    0    0    0  501 -0.00000000000E+00  0.00000000000E+00  0.18322418110E+03  0.18322858248E+03  0.12700000000E+01 0. -1.
          4   -1    0    0  501    0  0.00000000000E+00 -0.00000000000E+00 -0.21321323023E+02  0.21359113171E+02  0.12700000000E+01 0. -1.
    9000005    1    1    2    0    0 -0.92489726050E+00 -0.50658965105E+02  0.14088948004E+03  0.14972652326E+03  0.10000000000E+01 0.  0.
    9000005    1    1    2    0    0  0.92489726050E+00  0.50658965105E+02  0.21013378036E+02  0.54861172399E+02  0.10000000000E+01 0.  0.
<mgrwt>
<rscale>  0 0.12507434E+03</rscale>
<asrwt>0</asrwt>
<pdfrwt beam="2">  1        4 0.32834491E-02 0.12507434E+03</pdfrwt>
<pdfrwt beam="1">  1       -4 0.28191580E-01 0.12507434E+03</pdfrwt>
<totfact> 0.89219048E+03</totfact>
</mgrwt>
</event>
<event>
 4    1  0.3206158E-002  0.1249071E+03  0.7818608E-02  0.1235215E+00
         -4   -1    0    0    0  501 -0.00000000000E+00  0.00000000000E+00  0.31272279836E+02  0.31298057227E+02  0.12700000000E+01 0.  1.
          4   -1    0    0  501    0  0.00000000000E+00 -0.00000000000E+00 -0.12464489454E+03  0.12465136436E+03  0.12700000000E+01 0.  1.
    9000005    1    1    2    0    0 -0.57954766199E+02  0.20866631840E+02 -0.33876128506E+02  0.70304788828E+02  0.10000000000E+01 0.  0.
    9000005    1    1    2    0    0  0.57954766199E+02 -0.20866631840E+02 -0.59496486201E+02  0.85644632755E+02  0.10000000000E+01 0.  0.
<mgrwt>
<rscale>  0 0.12490707E+03</rscale>
<asrwt>0</asrwt>
<pdfrwt beam="2">  1        4 0.19178618E-01 0.12490707E+03</pdfrwt>
<pdfrwt beam="1">  1       -4 0.48136006E-02 0.12490707E+03</pdfrwt>
<totfact> 0.98334779E+03</totfact>
</mgrwt>
</event>
<event>
 5    1  0.3206158E-002  0.1249923E+03  0.7818608E-02  0.1235081E+00
         -4   -1    0    0    0  501 -0.00000000000E+00  0.00000000000E+00  0.66553725958E+02  0.66565842133E+02  0.12700000000E+01 0. -1.
          4   -1    0    0  501    0  0.00000000000E+00 -0.00000000000E+00 -0.58661577932E+02  0.58675323821E+02  0.12700000000E+01 0. -1.
         25    2    1    2    0    0  0.00000000000E+00  0.00000000000E+00  0.78921480259E+01  0.12524116595E+03  0.12499225436E+03 0.  0.
    9000005    1    3    3    0    0 -0.13993568281E+02  0.16928564458E+02 -0.54671448634E+02  0.58926764238E+02  0.10000000000E+01 0.  0.
    9000005    1    3    3    0    0  0.13993568281E+02 -0.16928564458E+02  0.62563596660E+02  0.66314401715E+02  0.10000000000E+01 0.  0.
<mgrwt>
<rscale>  0 0.12499225E+03</rscale>
<asrwt>0</asrwt>
<pdfrwt beam="2">  1        4 0.90268476E-02 0.12499225E+03</pdfrwt>
<pdfrwt beam="1">  1       -4 0.10241024E-01 0.12499225E+03</pdfrwt>
<totfact> 0.10449456E+04</totfact>
</mgrwt>
</event>
<event>
 5    1  0.3206158E-002  0.1249934E+03  0.7818608E-02  0.1235080E+00
          4   -1    0    0  501    0  0.00000000000E+00  0.00000000000E+00  0.10374407873E+03  0.10375185190E+03  0.12700000000E+01 0. -1.
         -4   -1    0    0    0  501 -0.00000000000E+00 -0.00000000000E+00 -0.37628853866E+02  0.37650279458E+02  0.12700000000E+01 0. -1.
         25    2    1    2    0    0  0.00000000000E+00  0.00000000000E+00  0.66115224869E+02  0.14140213136E+03  0.12499335900E+03 0.  0.
    9000005    1    3    3    0    0  0.38369374843E+02 -0.84141329221E+01 -0.21920925431E+02  0.44994816706E+02  0.10000000000E+01 0.  0.
    9000005    1    3    3    0    0 -0.38369374843E+02  0.84141329221E+01  0.88036150300E+02  0.96407314651E+02  0.10000000000E+01 0.  0.
<mgrwt>
<rscale>  0 0.12499336E+03</rscale>
<asrwt>0</asrwt>
<pdfrwt beam="1">  1        4 0.15962873E-01 0.12499336E+03</pdfrwt>
<pdfrwt beam="2">  1       -4 0.57913005E-02 0.12499336E+03</pdfrwt>
<totfact> 0.10106120E+04</totfact>
</mgrwt>
</event>
<event>
 5    1  0.3206158E-002  0.1250147E+03  0.7818608E-02  0.1235046E+00
         -4   -1    0    0    0  501 -0.00000000000E+00  0.00000000000E+00  0.37547808846E+03  0.37548023625E+03  0.12700000000E+01 0.  1.
          4   -1    0    0  501    0  0.00000000000E+00 -0.00000000000E+00 -0.10364911221E+02  0.10442427142E+02  0.12700000000E+01 0.  1.
         25    2    1    2    0    0  0.00000000000E+00  0.00000000000E+00  0.36511317724E+03  0.38592266339E+03  0.12501467884E+03 0.  0.
    9000005    1    3    3    0    0  0.50316466278E+02 -0.36690734371E+02  0.19895290586E+03  0.20847353673E+03  0.10000000000E+01 0.  0.
    9000005    1    3    3    0    0 -0.50316466278E+02  0.36690734371E+02  0.16616027138E+03  0.17744912666E+03  0.10000000000E+01 0.  0.
<mgrwt>
<rscale>  0 0.12501468E+03</rscale>
<asrwt>0</asrwt>
<pdfrwt beam="2">  1        4 0.16007297E-02 0.12501468E+03</pdfrwt>
<pdfrwt beam="1">  1       -4 0.57771988E-01 0.12501468E+03</pdfrwt>
<totfact> 0.65923974E+03</totfact>
</mgrwt>
</event>
<event>
 5    1  0.3206158E-002  0.1249988E+03  0.7818608E-02  0.1235071E+00
         -4   -1    0    0    0  501 -0.00000000000E+00  0.00000000000E+00  0.46402658055E+01  0.48109216109E+01  0.12700000000E+01 0. -1.
          4   -1    0    0  501    0  0.00000000000E+00 -0.00000000000E+00 -0.82642841395E+03  0.82642938977E+03  0.12700000000E+01 0. -1.
         25    2    1    2    0    0  0.00000000000E+00  0.00000000000E+00 -0.82178814814E+03  0.83124031138E+03  0.12499877936E+03 0.  0.
    9000005    1    3    3    0    0 -0.29419119187E+02  0.49078587372E+02 -0.24385075816E+03  0.25047631538E+03  0.10000000000E+01 0.  0.
    9000005    1    3    3    0    0  0.29419119187E+02 -0.49078587372E+02 -0.57793738998E+03  0.58076399600E+03  0.10000000000E+01 0.  0.
<mgrwt>
<rscale>  0 0.12499878E+03</rscale>
<asrwt>0</asrwt>
<pdfrwt beam="2">  1        4 0.12715592E+00 0.12499878E+03</pdfrwt>
<pdfrwt beam="1">  1       -4 0.72709014E-03 0.12499878E+03</pdfrwt>
<totfact> 0.36908534E+03</totfact>
</mgrwt>
</event>
<event>
 5    1  0.3206158E-002  0.1249932E+03  0.7818608E-02  0.1235080E+00
         -4   -1    0    0    0  501 -0.00000000000E+00  0.00000000000E+00  0.21605209708E+03  0.21605582972E+03  0.12700000000E+01 0. -1.
          4   -1    0    0  501    0  0.00000000000E+00 -0.00000000000E+00 -0.18051957020E+02  0.18096575705E+02  0.12700000000E+01 0. -1.
         25    2    1    2    0    0  0.00000000000E+00  0.00000000000E+00  0.19800014006E+03  0.23415240542E+03  0.12499317381E+03 0.  0.
    9000005    1    3    3    0    0 -0.56599744880E+02 -0.25992764074E+02  0.89509062451E+02  0.10905057160E+03  0.10000000000E+01 0.  0.
    9000005    1    3    3    0    0  0.56599744880E+02  0.25992764074E+02  0.10849107761E+03  0.12510183383E+03  0.10000000000E+01 0.  0.
<mgrwt>
<rscale>  0 0.12499317E+03</rscale>
<asrwt>0</asrwt>
<pdfrwt beam="2">  1        4 0.27809436E-02 0.12499317E+03</pdfrwt>
<pdfrwt beam="1">  1       -4 0.33242502E-01 0.12499317E+03</pdfrwt>
<totfact> 0.84688937E+03</totfact>
</mgrwt>
</event>
<event>
 5    1  0.3206158E-002  0.1250020E+03  0.7818608E-02  0.1235066E+00
          4   -1    0    0  501    0  0.00000000000E+00  0.00000000000E+00  0.14001282454E+02  0.14058762760E+02  0.12700000000E+01 0.  1.
         -4   -1    0    0    0  501 -0.00000000000E+00 -0.00000000000E+00 -0.27837061578E+03  0.27837351281E+03  0.12700000000E+01 0.  1.
         25    2    1    2    0    0  0.00000000000E+00  0.00000000000E+00 -0.26436933333E+03  0.29243227557E+03  0.12500196553E+03 0.  0.
    9000005    1    3    3    0    0 -0.75557910613E+01  0.66633264669E+01 -0.27646994916E+03  0.27665524157E+03  0.10000000000E+01 0.  0.
    9000005    1    3    3    0    0  0.75557910613E+01 -0.66633264669E+01  0.12100615833E+02  0.15777033996E+02  0.10000000000E+01 0.  0.
<mgrwt>
<rscale>  0 0.12500197E+03</rscale>
<asrwt>0</asrwt>
<pdfrwt beam="1">  1        4 0.21586881E-02 0.12500197E+03</pdfrwt>
<pdfrwt beam="2">  1       -4 0.42830889E-01 0.12500197E+03</pdfrwt>
<totfact> 0.76554692E+03</totfact>
</mgrwt>
</event>
<event>
 5    1  0.3206158E-002  0.1250114E+03  0.7818608E-02  0.1235051E+00
         -4   -1    0    0    0  501 -0.00000000000E+00  0.00000000000E+00  0.72233074216E+01  0.73341032244E+01  0.12700000000E+01 0.  1.
          4   -1    0    0  501    0  0.00000000000E+00 -0.00000000000E+00 -0.53665480241E+03  0.53665630514E+03  0.12700000000E+01 0.  1.
         25    2    1    2    0    0  0.00000000000E+00  0.00000000000E+00 -0.52943149499E+03  0.54399040837E+03  0.12501142552E+03 0.  0.
    9000005    1    3    3    0    0 -0.60498765231E+02  0.15351466579E+02 -0.25082081003E+03  0.25847213943E+03  0.10000000000E+01 0.  0.
    9000005    1    3    3    0    0  0.60498765231E+02 -0.15351466579E+02 -0.27861068496E+03  0.28551826893E+03  0.10000000000E+01 0.  0.
<mgrwt>
<rscale>  0 0.12501143E+03</rscale>
<asrwt>0</asrwt>
<pdfrwt beam="2">  1        4 0.82570884E-01 0.12501143E+03</pdfrwt>
<pdfrwt beam="1">  1       -4 0.11199168E-02 0.12501143E+03</pdfrwt>
<totfact> 0.52592626E+03</totfact>
</mgrwt>
</event>
<event>
 5    1  0.3206158E-002  0.1250011E+03  0.7818608E-02  0.1235068E+00
          4   -1    0    0  501    0  0.00000000000E+00  0.00000000000E+00  0.10487200065E+04  0.10487207755E+04  0.12700000000E+01 0.  1.
         -4   -1    0    0    0  501 -0.00000000000E+00 -0.00000000000E+00 -0.36158001279E+01  0.38323505274E+01  0.12700000000E+01 0.  1.
         25    2    1    2    0    0  0.00000000000E+00  0.00000000000E+00  0.10451042063E+04  0.10525531260E+04  0.12500112360E+03 0.  0.
    9000005    1    3    3    0    0 -0.23433223735E+02 -0.30019731203E+02  0.10533930232E+03  0.11201637759E+03  0.10000000000E+01 0.  0.
    9000005    1    3    3    0    0  0.23433223735E+02  0.30019731203E+02  0.93976490402E+03  0.94053674839E+03  0.10000000000E+01 0.  0.
<mgrwt>
<rscale>  0 0.12500112E+03</rscale>
<asrwt>0</asrwt>
<pdfrwt beam="1">  1        4 0.16135826E+00 0.12500112E+03</pdfrwt>
<pdfrwt beam="2">  1       -4 0.57299380E-03 0.12500112E+03</pdfrwt>
<totfact> 0.28914472E+03</totfact>
</mgrwt>
</event>
<event>
 5    1  0.3206158E-002  0.1249990E+03  0.7818608E-02  0.1235071E+00
         -4   -1    0    0    0  501 -0.00000000000E+00  0.00000000000E+00  0.90214073428E+01  0.91103617077E+01  0.12700000000E+01 0. -1.
          4   -1    0    0  501    0  0.00000000000E+00 -0.00000000000E+00 -0.43077669999E+03  0.43077857207E+03  0.12700000000E+01 0. -1.
         25    2    1    2    0    0  0.00000000000E+00  0.00000000000E+00 -0.42175529265E+03  0.43988893378E+03  0.12499898873E+03 0.  0.
    9000005    1    3    3    0    0 -0.18266844709E+02 -0.42605331680E+02 -0.35835836877E+03  0.36134555811E+03  0.10000000000E+01 0.  0.
    9000005    1    3    3    0    0  0.18266844709E+02  0.42605331680E+02 -0.63396923880E+02  0.78543375663E+02  0.10000000000E+01 0.  0.
<mgrwt>
<rscale>  0 0.12499899E+03</rscale>
<asrwt>0</asrwt>
<pdfrwt beam="2">  1        4 0.66280309E-01 0.12499899E+03</pdfrwt>
<pdfrwt beam="1">  1       -4 0.13948958E-02 0.12499899E+03</pdfrwt>
<totfact> 0.60851099E+03</totfact>
</mgrwt>
</event>
<event>
 5    1  0.3206158E-002  0.1250063E+03  0.7818608E-02  0.1235059E+00
          4   -1    0    0  501    0  0.00000000000E+00  0.00000000000E+00  0.22319867575E+02  0.22355969864E+02  0.12700000000E+01 0. -1.
         -4   -1    0    0    0  501 -0.00000000000E+00 -0.00000000000E+00 -0.17484994064E+03  0.17485455282E+03  0.12700000000E+01 0. -1.
         25    2    1    2    0    0  0.00000000000E+00  0.00000000000E+00 -0.15253007306E+03  0.19721052268E+03  0.12500626811E+03 0.  0.
    9000005    1    3    3    0    0  0.35920309653E+02  0.67991542305E+01 -0.15622867928E+03  0.16045216538E+03  0.10000000000E+01 0.  0.
    9000005    1    3    3    0    0 -0.35920309653E+02 -0.67991542305E+01  0.36986062198E+01  0.36758357305E+02  0.10000000000E+01 0.  0.
<mgrwt>
<rscale>  0 0.12500627E+03</rscale>
<asrwt>0</asrwt>
<pdfrwt beam="1">  1        4 0.34369578E-02 0.12500627E+03</pdfrwt>
<pdfrwt beam="2">  1       -4 0.26903122E-01 0.12500627E+03</pdfrwt>
<totfact> 0.90594911E+03</totfact>
</mgrwt>
</event>
<event>
 5    1  0.3206158E-002  0.1250018E+03  0.7818608E-02  0.1235066E+00
          4   -1    0    0  501    0  0.00000000000E+00  0.00000000000E+00  0.61975321066E+03  0.61975451190E+03  0.12700000000E+01 0. -1.
         -4   -1    0    0    0  501 -0.00000000000E+00 -0.00000000000E+00 -0.62378028374E+01  0.63657744414E+01  0.12700000000E+01 0. -1.
         25    2    1    2    0    0  0.00000000000E+00  0.00000000000E+00  0.61351540782E+03  0.62612028634E+03  0.12500182933E+03 0.  0.
    9000005    1    3    3    0    0  0.54741027680E+02  0.15775071055E+02  0.43543169992E+03  0.43914371027E+03  0.10000000000E+01 0.  0.
    9000005    1    3    3    0    0 -0.54741027680E+02 -0.15775071055E+02  0.17808370790E+03  0.18697657607E+03  0.10000000000E+01 0.  0.
<mgrwt>
<rscale>  0 0.12500183E+03</rscale>
<asrwt>0</asrwt>
<pdfrwt beam="1">  1        4 0.95356548E-01 0.12500183E+03</pdfrwt>
<pdfrwt beam="2">  1       -4 0.96960649E-03 0.12500183E+03</pdfrwt>
<totfact> 0.47257391E+03</totfact>
</mgrwt>
</event>
<event>
 5    1  0.3206158E-002  0.1249998E+03  0.7818608E-02  0.1235070E+00
         -4   -1    0    0    0  501 -0.00000000000E+00  0.00000000000E+00  0.39826436542E+01  0.41802333041E+01  0.12700000000E+01 0. -1.
          4   -1    0    0  501    0  0.00000000000E+00 -0.00000000000E+00 -0.95687537458E+03  0.95687621738E+03  0.12700000000E+01 0. -1.
         25    2    1    2    0    0  0.00000000000E+00  0.00000000000E+00 -0.95289273093E+03  0.96105645068E+03  0.12499977896E+03 0.  0.
    9000005    1    3    3    0    0  0.17084419177E+02  0.30061906811E+02 -0.87666333186E+03  0.87734553800E+03  0.10000000000E+01 0.  0.
    9000005    1    3    3    0    0 -0.17084419177E+02 -0.30061906811E+02 -0.76229399067E+02  0.83710912681E+02  0.10000000000E+01 0.  0.
<mgrwt>
<rscale>  0 0.12499978E+03</rscale>
<asrwt>0</asrwt>
<pdfrwt beam="2">  1        4 0.14722668E+00 0.12499978E+03</pdfrwt>
<pdfrwt beam="1">  1       -4 0.62797921E-03 0.12499978E+03</pdfrwt>
<totfact> 0.31926840E+03</totfact>
</mgrwt>
</event>
<event>
 5    1  0.3206158E-002  0.1249982E+03  0.7818608E-02  0.1235072E+00
         -4   -1    0    0    0  501 -0.00000000000E+00  0.00000000000E+00  0.57713893242E+01  0.59094699197E+01  0.12700000000E+01 0. -1.
          4   -1    0    0  501    0  0.00000000000E+00 -0.00000000000E+00 -0.66867156391E+03  0.66867276996E+03  0.12700000000E+01 0. -1.
         25    2    1    2    0    0  0.00000000000E+00  0.00000000000E+00 -0.66290017459E+03  0.67458223988E+03  0.12499822755E+03 0.  0.
    9000005    1    3    3    0    0  0.39326607983E+02  0.46225177722E+02 -0.25107858261E+03  0.25831144729E+03  0.10000000000E+01 0.  0.
    9000005    1    3    3    0    0 -0.39326607983E+02 -0.46225177722E+02 -0.41182159197E+03  0.41627079259E+03  0.10000000000E+01 0.  0.
<mgrwt>
<rscale>  0 0.12499823E+03</rscale>
<asrwt>0</asrwt>
<pdfrwt beam="2">  1        4 0.10288320E+00 0.12499823E+03</pdfrwt>
<pdfrwt beam="1">  1       -4 0.89862093E-03 0.12499823E+03</pdfrwt>
<totfact> 0.44464602E+03</totfact>
</mgrwt>
</event>
<event>
 4    1  0.3206158E-002  0.1250689E+03  0.7818608E-02  0.1234962E+00
          4   -1    0    0  501    0  0.00000000000E+00  0.00000000000E+00  0.31130835113E+02  0.31156729527E+02  0.12700000000E+01 0.  1.
         -4   -1    0    0    0  501 -0.00000000000E+00 -0.00000000000E+00 -0.12553559584E+03  0.12554201975E+03  0.12700000000E+01 0.  1.
    9000005    1    1    2    0    0  0.14905129400E+02 -0.60467961061E+02 -0.54180768860E+02  0.82553576007E+02  0.10000000000E+01 0.  0.
    9000005    1    1    2    0    0 -0.14905129400E+02  0.60467961061E+02 -0.40223991863E+02  0.74145173266E+02  0.10000000000E+01 0.  0.
<mgrwt>
<rscale>  0 0.12506894E+03</rscale>
<asrwt>0</asrwt>
<pdfrwt beam="1">  1        4 0.47918453E-02 0.12506894E+03</pdfrwt>
<pdfrwt beam="2">  1       -4 0.19315654E-01 0.12506894E+03</pdfrwt>
<totfact> 0.97831312E+03</totfact>
</mgrwt>
</event>
<event>
 5    1  0.3206158E-002  0.1249995E+03  0.7818608E-02  0.1235070E+00
         -4   -1    0    0    0  501 -0.00000000000E+00  0.00000000000E+00  0.11000463060E+03  0.11001196141E+03  0.12700000000E+01 0.  1.
          4   -1    0    0  501    0  0.00000000000E+00 -0.00000000000E+00 -0.35489696132E+02  0.35512412359E+02  0.12700000000E+01 0.  1.
         25    2    1    2    0    0  0.00000000000E+00  0.00000000000E+00  0.74514934468E+02  0.14552437377E+03  0.12499947161E+03 0.  0.
    9000005    1    3    3    0    0 -0.30673898499E+02 -0.47841248004E+02  0.67516452184E+02  0.88256129392E+02  0.10000000000E+01 0.  0.
    9000005    1    3    3    0    0  0.30673898499E+02  0.47841248004E+02  0.69984822836E+01  0.57268244377E+02  0.10000000000E+01 0.  0.
<mgrwt>
<rscale>  0 0.12499947E+03</rscale>
<asrwt>0</asrwt>
<pdfrwt beam="2">  1        4 0.54622646E-02 0.12499947E+03</pdfrwt>
<pdfrwt beam="1">  1       -4 0.16926101E-01 0.12499947E+03</pdfrwt>
<totfact> 0.10020464E+04</totfact>
</mgrwt>
</event>
<event>
 5    1  0.3206158E-002  0.1249984E+03  0.7818608E-02  0.1235072E+00
          4   -1    0    0  501    0  0.00000000000E+00  0.00000000000E+00  0.37137307268E+02  0.37159016283E+02  0.12700000000E+01 0.  1.
         -4   -1    0    0    0  501 -0.00000000000E+00 -0.00000000000E+00 -0.10512509660E+03  0.10513276765E+03  0.12700000000E+01 0.  1.
         25    2    1    2    0    0  0.00000000000E+00  0.00000000000E+00 -0.67987789329E+02  0.14229178394E+03  0.12499844910E+03 0.  0.
    9000005    1    3    3    0    0  0.32405304579E+02 -0.22398269204E+02  0.21229107694E+02  0.44760040680E+02  0.10000000000E+01 0.  0.
    9000005    1    3    3    0    0 -0.32405304579E+02  0.22398269204E+02 -0.89216897023E+02  0.97531743257E+02  0.10000000000E+01 0.  0.
<mgrwt>
<rscale>  0 0.12499845E+03</rscale>
<asrwt>0</asrwt>
<pdfrwt beam="1">  1        4 0.57156919E-02 0.12499845E+03</pdfrwt>
<pdfrwt beam="2">  1       -4 0.16175352E-01 0.12499845E+03</pdfrwt>
<totfact> 0.10086659E+04</totfact>
</mgrwt>
</event>
<event>
 5    1  0.3206158E-002  0.1250002E+03  0.7818608E-02  0.1235069E+00
          4   -1    0    0  501    0  0.00000000000E+00  0.00000000000E+00  0.14407563807E+03  0.14408123536E+03  0.12700000000E+01 0.  1.
         -4   -1    0    0    0  501 -0.00000000000E+00 -0.00000000000E+00 -0.27091562998E+02  0.27121314232E+02  0.12700000000E+01 0.  1.
         25    2    1    2    0    0  0.00000000000E+00  0.00000000000E+00  0.11698407507E+03  0.17120254960E+03  0.12500015668E+03 0.  0.
    9000005    1    3    3    0    0 -0.64016708462E+01 -0.37614488940E+02  0.12627679790E+03  0.13191914514E+03  0.10000000000E+01 0.  0.
    9000005    1    3    3    0    0  0.64016708462E+01  0.37614488940E+02 -0.92927228301E+01  0.39283404453E+02  0.10000000000E+01 0.  0.
<mgrwt>
<rscale>  0 0.12500016E+03</rscale>
<asrwt>0</asrwt>
<pdfrwt beam="1">  1        4 0.22168202E-01 0.12500016E+03</pdfrwt>
<pdfrwt beam="2">  1       -4 0.41706520E-02 0.12500016E+03</pdfrwt>
<totfact> 0.95224637E+03</totfact>
</mgrwt>
</event>
<event>
 5    1  0.3206158E-002  0.1250174E+03  0.7818608E-02  0.1235042E+00
         -4   -1    0    0    0  501 -0.00000000000E+00  0.00000000000E+00  0.13516368648E+02  0.13575902233E+02  0.12700000000E+01 0.  1.
          4   -1    0    0  501    0  0.00000000000E+00 -0.00000000000E+00 -0.28838595560E+03  0.28838875201E+03  0.12700000000E+01 0.  1.
         25    2    1    2    0    0  0.00000000000E+00  0.00000000000E+00 -0.27486958695E+03  0.30196465424E+03  0.12501744911E+03 0.  0.
    9000005    1    3    3    0    0 -0.52341010056E+01  0.35021623738E+02 -0.13038482710E+02  0.37748006225E+02  0.10000000000E+01 0.  0.
    9000005    1    3    3    0    0  0.52341010056E+01 -0.35021623738E+02 -0.26183110424E+03  0.26421664802E+03  0.10000000000E+01 0.  0.
<mgrwt>
<rscale>  0 0.12501745E+03</rscale>
<asrwt>0</asrwt>
<pdfrwt beam="2">  1        4 0.44371860E-01 0.12501745E+03</pdfrwt>
<pdfrwt beam="1">  1       -4 0.20842362E-02 0.12501745E+03</pdfrwt>
<totfact> 0.75323880E+03</totfact>
</mgrwt>
</event>
<event>
 5    1  0.3206158E-002  0.1250002E+03  0.7818608E-02  0.1235069E+00
          4   -1    0    0  501    0  0.00000000000E+00  0.00000000000E+00  0.21342895924E+03  0.21343273775E+03  0.12700000000E+01 0. -1.
         -4   -1    0    0    0  501 -0.00000000000E+00 -0.00000000000E+00 -0.18276429879E+02  0.18320501880E+02  0.12700000000E+01 0. -1.
         25    2    1    2    0    0  0.00000000000E+00  0.00000000000E+00  0.19515252936E+03  0.23175323963E+03  0.12500021745E+03 0.  0.
    9000005    1    3    3    0    0  0.22708510585E+02 -0.51715363618E+02  0.47996900195E+02  0.74127307489E+02  0.10000000000E+01 0.  0.
    9000005    1    3    3    0    0 -0.22708510585E+02  0.51715363618E+02  0.14715562916E+03  0.15762593214E+03  0.10000000000E+01 0.  0.
<mgrwt>
<rscale>  0 0.12500022E+03</rscale>
<asrwt>0</asrwt>
<pdfrwt beam="1">  1        4 0.32838908E-01 0.12500022E+03</pdfrwt>
<pdfrwt beam="2">  1       -4 0.28154390E-02 0.12500022E+03</pdfrwt>
<totfact> 0.85040695E+03</totfact>
</mgrwt>
</event>
<event>
 5    1  0.3206158E-002  0.1249978E+03  0.7818608E-02  0.1235073E+00
          4   -1    0    0  501    0  0.00000000000E+00  0.00000000000E+00  0.35109022446E+02  0.35131984816E+02  0.12700000000E+01 0. -1.
         -4   -1    0    0    0  501 -0.00000000000E+00 -0.00000000000E+00 -0.11119365804E+03  0.11120091047E+03  0.12700000000E+01 0. -1.
         25    2    1    2    0    0  0.00000000000E+00  0.00000000000E+00 -0.76084635595E+02  0.14633289528E+03  0.12499777785E+03 0.  0.
    9000005    1    3    3    0    0 -0.62103955136E+02  0.11299388924E+01 -0.30022225854E+02  0.68996464045E+02  0.10000000000E+01 0.  0.
    9000005    1    3    3    0    0  0.62103955136E+02 -0.11299388924E+01 -0.46062409741E+02  0.77336431238E+02  0.10000000000E+01 0.  0.
<mgrwt>
<rscale>  0 0.12499778E+03</rscale>
<asrwt>0</asrwt>
<pdfrwt beam="1">  1        4 0.54037124E-02 0.12499778E+03</pdfrwt>
<pdfrwt beam="2">  1       -4 0.17109041E-01 0.12499778E+03</pdfrwt>
<totfact> 0.10004478E+04</totfact>
</mgrwt>
</event>
<event>
 5    1  0.3206158E-002  0.1250017E+03  0.7818608E-02  0.1235067E+00
          4   -1    0    0  501    0  0.00000000000E+00  0.00000000000E+00  0.98536724778E+02  0.98544908697E+02  0.12700000000E+01 0.  1.
         -4   -1    0    0    0  501 -0.00000000000E+00 -0.00000000000E+00 -0.39623634278E+02  0.39643981806E+02  0.12700000000E+01 0.  1.
         25    2    1    2    0    0  0.00000000000E+00  0.00000000000E+00  0.58913090500E+02  0.13818889050E+03  0.12500166889E+03 0.  0.
    9000005    1    3    3    0    0 -0.28086485723E+02  0.77152312939E+01  0.90579386574E+02  0.95152513085E+02  0.10000000000E+01 0.  0.
    9000005    1    3    3    0    0  0.28086485723E+02 -0.77152312939E+01 -0.31666296074E+02  0.43036377418E+02  0.10000000000E+01 0.  0.
<mgrwt>
<rscale>  0 0.12500167E+03</rscale>
<asrwt>0</asrwt>
<pdfrwt beam="1">  1        4 0.15161691E-01 0.12500167E+03</pdfrwt>
<pdfrwt beam="2">  1       -4 0.60981385E-02 0.12500167E+03</pdfrwt>
<totfact> 0.10170878E+04</totfact>
</mgrwt>
</event>
<event>
 5    1  0.3206158E-002  0.1250036E+03  0.7818608E-02  0.1235064E+00
         -4   -1    0    0    0  501 -0.00000000000E+00  0.00000000000E+00  0.31409079296E+03  0.31409336052E+03  0.12700000000E+01 0. -1.
          4   -1    0    0  501    0  0.00000000000E+00 -0.00000000000E+00 -0.12402357935E+02  0.12467212292E+02  0.12700000000E+01 0. -1.
         25    2    1    2    0    0  0.00000000000E+00  0.00000000000E+00  0.30168843503E+03  0.32656057281E+03  0.12500358350E+03 0.  0.
    9000005    1    3    3    0    0  0.57956695428E+02 -0.74992825977E+01  0.20868748634E+03  0.21671798434E+03  0.10000000000E+01 0.  0.
    9000005    1    3    3    0    0 -0.57956695428E+02  0.74992825977E+01  0.93000948693E+02  0.10984258847E+03  0.10000000000E+01 0.  0.
<mgrwt>
<rscale>  0 0.12500358E+03</rscale>
<asrwt>0</asrwt>
<pdfrwt beam="2">  1        4 0.19132414E-02 0.12500358E+03</pdfrwt>
<pdfrwt beam="1">  1       -4 0.48326846E-01 0.12500358E+03</pdfrwt>
<totfact> 0.72376818E+03</totfact>
</mgrwt>
</event>
<event>
 5    1  0.3206158E-002  0.1249892E+03  0.7818608E-02  0.1235086E+00
          4   -1    0    0  501    0  0.00000000000E+00  0.00000000000E+00  0.20228723607E+02  0.20268550978E+02  0.12700000000E+01 0.  1.
         -4   -1    0    0    0  501 -0.00000000000E+00 -0.00000000000E+00 -0.19283903463E+03  0.19284321657E+03  0.12700000000E+01 0.  1.
         25    2    1    2    0    0  0.00000000000E+00  0.00000000000E+00 -0.17261031102E+03  0.21311176755E+03  0.12498922352E+03 0.  0.
    9000005    1    3    3    0    0  0.56119729883E+02  0.56237541944E+01 -0.13216809366E+03  0.14370266412E+03  0.10000000000E+01 0.  0.
    9000005    1    3    3    0    0 -0.56119729883E+02 -0.56237541944E+01 -0.40442217362E+02  0.69409103427E+02  0.10000000000E+01 0.  0.
<mgrwt>
<rscale>  0 0.12498922E+03</rscale>
<asrwt>0</asrwt>
<pdfrwt beam="1">  1        4 0.31154968E-02 0.12498922E+03</pdfrwt>
<pdfrwt beam="2">  1       -4 0.29670928E-01 0.12498922E+03</pdfrwt>
<totfact> 0.87991389E+03</totfact>
</mgrwt>
</event>
<event>
 5    1  0.3206158E-002  0.1249969E+03  0.7818608E-02  0.1235074E+00
         -4   -1    0    0    0  501 -0.00000000000E+00  0.00000000000E+00  0.27223318756E+01  0.30039958124E+01  0.12700000000E+01 0. -1.
          4   -1    0    0  501    0  0.00000000000E+00 -0.00000000000E+00 -0.13639616936E+04  0.13639622849E+04  0.12700000000E+01 0. -1.
         25    2    1    2    0    0  0.00000000000E+00  0.00000000000E+00 -0.13612393617E+04  0.13669662807E+04  0.12499685026E+03 0.  0.
    9000005    1    3    3    0    0  0.14271434279E+02 -0.40652775356E+02 -0.18562421702E+03  0.19056146496E+03  0.10000000000E+01 0.  0.
    9000005    1    3    3    0    0 -0.14271434279E+02  0.40652775356E+02 -0.11756151447E+04  0.11764048157E+04  0.10000000000E+01 0.  0.
<mgrwt>
<rscale>  0 0.12499685E+03</rscale>
<asrwt>0</asrwt>
<pdfrwt beam="2">  1        4 0.20986145E+00 0.12499685E+03</pdfrwt>
<pdfrwt beam="1">  1       -4 0.44053332E-03 0.12499685E+03</pdfrwt>
<totfact> 0.20702368E+03</totfact>
</mgrwt>
</event>
<event>
 5    1  0.3206158E-002  0.1249937E+03  0.7818608E-02  0.1235079E+00
          4   -1    0    0  501    0  0.00000000000E+00  0.00000000000E+00  0.11726703470E+03  0.11727391154E+03  0.12700000000E+01 0.  1.
         -4   -1    0    0    0  501 -0.00000000000E+00 -0.00000000000E+00 -0.33287402551E+02  0.33311620624E+02  0.12700000000E+01 0.  1.
         25    2    1    2    0    0  0.00000000000E+00  0.00000000000E+00  0.83979632153E+02  0.15058553217E+03  0.12499369536E+03 0.  0.
    9000005    1    3    3    0    0 -0.39982349575E+02 -0.14141517360E+02  0.97280724592E+02  0.10612780111E+03  0.10000000000E+01 0.  0.
    9000005    1    3    3    0    0  0.39982349575E+02  0.14141517360E+02 -0.13301092439E+02  0.44457731058E+02  0.10000000000E+01 0.  0.
<mgrwt>
<rscale>  0 0.12499370E+03</rscale>
<asrwt>0</asrwt>
<pdfrwt beam="1">  1        4 0.18043474E-01 0.12499370E+03</pdfrwt>
<pdfrwt beam="2">  1       -4 0.51235309E-02 0.12499370E+03</pdfrwt>
<totfact> 0.99201183E+03</totfact>
</mgrwt>
</event>
<event>
 5    1  0.3206158E-002  0.1249967E+03  0.7818608E-02  0.1235074E+00
          4   -1    0    0  501    0  0.00000000000E+00  0.00000000000E+00  0.65482201514E+02  0.65494515916E+02  0.12700000000E+01 0. -1.
         -4   -1    0    0    0  501 -0.00000000000E+00 -0.00000000000E+00 -0.59625799847E+02  0.59639323498E+02  0.12700000000E+01 0. -1.
         25    2    1    2    0    0  0.00000000000E+00  0.00000000000E+00  0.58564016673E+01  0.12513383941E+03  0.12499672126E+03 0.  0.
    9000005    1    3    3    0    0 -0.70665113811E+01  0.32426118886E+02  0.55935848983E+02  0.65047736091E+02  0.10000000000E+01 0.  0.
    9000005    1    3    3    0    0  0.70665113811E+01 -0.32426118886E+02 -0.50079447316E+02  0.60086103323E+02  0.10000000000E+01 0.  0.
<mgrwt>
<rscale>  0 0.12499672E+03</rscale>
<asrwt>0</asrwt>
<pdfrwt beam="1">  1        4 0.10076172E-01 0.12499672E+03</pdfrwt>
<pdfrwt beam="2">  1       -4 0.91751875E-02 0.12499672E+03</pdfrwt>
<totfact> 0.10450731E+04</totfact>
</mgrwt>
</event>
<event>
 5    1  0.3206158E-002  0.1250000E+03  0.7818608E-02  0.1235069E+00
         -4   -1    0    0    0  501 -0.00000000000E+00  0.00000000000E+00  0.40199213872E+01  0.42157642201E+01  0.12700000000E+01 0. -1.
          4   -1    0    0  501    0  0.00000000000E+00 -0.00000000000E+00 -0.94842003309E+03  0.94842088340E+03  0.12700000000E+01 0. -1.
         25    2    1    2    0    0  0.00000000000E+00  0.00000000000E+00 -0.94440011171E+03  0.95263664762E+03  0.12500004561E+03 0.  0.
    9000005    1    3    3    0    0  0.27159799590E+01  0.28470341104E+02 -0.89565543461E+03  0.89611248982E+03  0.10000000000E+01 0.  0.
    9000005    1    3    3    0    0 -0.27159799590E+01 -0.28470341104E+02 -0.48744677098E+02  0.56524157801E+02  0.10000000000E+01 0.  0.
<mgrwt>
<rscale>  0 0.12500005E+03</rscale>
<asrwt>0</asrwt>
<pdfrwt beam="2">  1        4 0.14592573E+00 0.12500005E+03</pdfrwt>
<pdfrwt beam="1">  1       -4 0.63358044E-03 0.12500005E+03</pdfrwt>
<totfact> 0.32222549E+03</totfact>
</mgrwt>
</event>
<event>
 5    1  0.3206158E-002  0.1250010E+03  0.7818608E-02  0.1235068E+00
         -4   -1    0    0    0  501 -0.00000000000E+00  0.00000000000E+00  0.36845142403E+03  0.36845361278E+03  0.12700000000E+01 0.  1.
          4   -1    0    0  501    0  0.00000000000E+00 -0.00000000000E+00 -0.10561720563E+02  0.10637802463E+02  0.12700000000E+01 0.  1.
         25    2    1    2    0    0  0.00000000000E+00  0.00000000000E+00  0.35788970347E+03  0.37909141524E+03  0.12500104504E+03 0.  0.
    9000005    1    3    3    0    0  0.61321609481E+02  0.10018319532E+02  0.19920024016E+03  0.20866825872E+03  0.10000000000E+01 0.  0.
    9000005    1    3    3    0    0 -0.61321609481E+02 -0.10018319532E+02  0.15868946331E+03  0.17042315652E+03  0.10000000000E+01 0.  0.
<mgrwt>
<rscale>  0 0.12500105E+03</rscale>
<asrwt>0</asrwt>
<pdfrwt beam="2">  1        4 0.16309011E-02 0.12500105E+03</pdfrwt>
<pdfrwt beam="1">  1       -4 0.56690849E-01 0.12500105E+03</pdfrwt>
<totfact> 0.66636873E+03</totfact>
</mgrwt>
</event>
<event>
 5    1  0.3206158E-002  0.1249643E+03  0.7818608E-02  0.1235125E+00
         -4   -1    0    0    0  501 -0.00000000000E+00  0.00000000000E+00  0.15543165258E+02  0.15594963489E+02  0.12700000000E+01 0.  1.
          4   -1    0    0  501    0  0.00000000000E+00 -0.00000000000E+00 -0.25070166348E+03  0.25070488023E+03  0.12700000000E+01 0.  1.
         25    2    1    2    0    0  0.00000000000E+00  0.00000000000E+00 -0.23515849822E+03  0.26629984372E+03  0.12496434483E+03 0.  0.
    9000005    1    3    3    0    0  0.24368379824E+02 -0.38558531989E+02 -0.20855210673E+03  0.21348433092E+03  0.10000000000E+01 0.  0.
    9000005    1    3    3    0    0 -0.24368379824E+02  0.38558531989E+02 -0.26606391486E+02  0.52815512800E+02  0.10000000000E+01 0.  0.
<mgrwt>
<rscale>  0 0.12496434E+03</rscale>
<asrwt>0</asrwt>
<pdfrwt beam="2">  1        4 0.38573716E-01 0.12496434E+03</pdfrwt>
<pdfrwt beam="1">  1       -4 0.23954883E-02 0.12496434E+03</pdfrwt>
<totfact> 0.80093540E+03</totfact>
</mgrwt>
</event>
<event>
 5    1  0.3206158E-002  0.1249901E+03  0.7818608E-02  0.1235085E+00
          4   -1    0    0  501    0  0.00000000000E+00  0.00000000000E+00  0.45012149944E+02  0.45030062654E+02  0.12700000000E+01 0.  1.
         -4   -1    0    0    0  501 -0.00000000000E+00 -0.00000000000E+00 -0.86728526509E+02  0.86737824566E+02  0.12700000000E+01 0.  1.
         25    2    1    2    0    0  0.00000000000E+00  0.00000000000E+00 -0.41716376565E+02  0.13176788722E+03  0.12499007972E+03 0.  0.
    9000005    1    3    3    0    0  0.46837841626E+02 -0.39119979049E+02 -0.66956477860E+01  0.61400226940E+02  0.10000000000E+01 0.  0.
    9000005    1    3    3    0    0 -0.46837841626E+02  0.39119979049E+02 -0.35020728779E+02  0.70367660280E+02  0.10000000000E+01 0.  0.
<mgrwt>
<rscale>  0 0.12499008E+03</rscale>
<asrwt>0</asrwt>
<pdfrwt beam="1">  1        4 0.69270393E-02 0.12499008E+03</pdfrwt>
<pdfrwt beam="2">  1       -4 0.13344943E-01 0.12499008E+03</pdfrwt>
<totfact> 0.10308962E+04</totfact>
</mgrwt>
</event>
<event>
 5    1  0.3206158E-002  0.1250012E+03  0.7818608E-02  0.1235067E+00
         -4   -1    0    0    0  501 -0.00000000000E+00  0.00000000000E+00  0.59993509942E+02  0.60006950724E+02  0.12700000000E+01 0.  1.
          4   -1    0    0  501    0  0.00000000000E+00 -0.00000000000E+00 -0.65085490299E+02  0.65097879746E+02  0.12700000000E+01 0.  1.
         25    2    1    2    0    0  0.00000000000E+00  0.00000000000E+00 -0.50919803566E+01  0.12510483047E+03  0.12500116137E+03 0.  0.
    9000005    1    3    3    0    0 -0.50267000039E+01  0.62171574929E+02 -0.63897669240E+01  0.62708863516E+02  0.10000000000E+01 0.  0.
    9000005    1    3    3    0    0  0.50267000039E+01 -0.62171574929E+02  0.12977865674E+01  0.62395966954E+02  0.10000000000E+01 0.  0.
<mgrwt>
<rscale>  0 0.12500116E+03</rscale>
<asrwt>0</asrwt>
<pdfrwt beam="2">  1        4 0.10015139E-01 0.12500116E+03</pdfrwt>
<pdfrwt beam="1">  1       -4 0.92317577E-02 0.12500116E+03</pdfrwt>
<totfact> 0.10450312E+04</totfact>
</mgrwt>
</event>
<event>
 5    1  0.3206158E-002  0.1250008E+03  0.7818608E-02  0.1235068E+00
         -4   -1    0    0    0  501 -0.00000000000E+00  0.00000000000E+00  0.10745478419E+04  0.10745485924E+04  0.12700000000E+01 0. -1.
          4   -1    0    0  501    0  0.00000000000E+00 -0.00000000000E+00 -0.35235997258E+01  0.37454846185E+01  0.12700000000E+01 0. -1.
         25    2    1    2    0    0  0.00000000000E+00  0.00000000000E+00  0.10710242422E+04  0.10782940770E+04  0.12500075685E+03 0.  0.
    9000005    1    3    3    0    0  0.52359017065E+02 -0.17037374459E+02  0.79047125530E+03  0.79238724387E+03  0.10000000000E+01 0.  0.
    9000005    1    3    3    0    0 -0.52359017065E+02  0.17037374459E+02  0.28055298689E+03  0.28590683317E+03  0.10000000000E+01 0.  0.
<mgrwt>
<rscale>  0 0.12500076E+03</rscale>
<asrwt>0</asrwt>
<pdfrwt beam="2">  1        4 0.55921704E-03 0.12500076E+03</pdfrwt>
<pdfrwt beam="1">  1       -4 0.16533248E+00 0.12500076E+03</pdfrwt>
<totfact> 0.28126979E+03</totfact>
</mgrwt>
</event>
<event>
 5    1  0.3206158E-002  0.1249980E+03  0.7818608E-02  0.1235072E+00
         -4   -1    0    0    0  501 -0.00000000000E+00  0.00000000000E+00  0.68198909400E+02  0.68210733344E+02  0.12700000000E+01 0. -1.
          4   -1    0    0  501    0  0.00000000000E+00 -0.00000000000E+00 -0.57251665434E+02  0.57265749755E+02  0.12700000000E+01 0. -1.
         25    2    1    2    0    0  0.00000000000E+00  0.00000000000E+00  0.10947243966E+02  0.12547648310E+03  0.12499802263E+03 0.  0.
    9000005    1    3    3    0    0 -0.98039843574E+01 -0.54660737360E+02  0.34240111324E+02  0.65247984961E+02  0.10000000000E+01 0.  0.
    9000005    1    3    3    0    0  0.98039843574E+01  0.54660737360E+02 -0.23292867358E+02  0.60228498137E+02  0.10000000000E+01 0.  0.
<mgrwt>
<rscale>  0 0.12499802E+03</rscale>
<asrwt>0</asrwt>
<pdfrwt beam="2">  1        4 0.88099415E-02 0.12499802E+03</pdfrwt>
<pdfrwt beam="1">  1       -4 0.10494133E-01 0.12499802E+03</pdfrwt>
<totfact> 0.10442940E+04</totfact>
</mgrwt>
</event>
<event>
 5    1  0.3206158E-002  0.1250023E+03  0.7818608E-02  0.1235066E+00
         -4   -1    0    0    0  501 -0.00000000000E+00  0.00000000000E+00  0.95061513966E+01  0.95906107404E+01  0.12700000000E+01 0.  1.
          4   -1    0    0  501    0  0.00000000000E+00 -0.00000000000E+00 -0.40903035799E+03  0.40903232960E+03  0.12700000000E+01 0.  1.
         25    2    1    2    0    0  0.00000000000E+00  0.00000000000E+00 -0.39952420659E+03  0.41862294034E+03  0.12500229808E+03 0.  0.
    9000005    1    3    3    0    0  0.53779744708E+01 -0.32438169455E+02 -0.37773568185E+03  0.37916540294E+03  0.10000000000E+01 0.  0.
    9000005    1    3    3    0    0 -0.53779744708E+01  0.32438169455E+02 -0.21788524748E+02  0.39457537400E+02  0.10000000000E+01 0.  0.
<mgrwt>
<rscale>  0 0.12500230E+03</rscale>
<asrwt>0</asrwt>
<pdfrwt beam="2">  1        4 0.62934383E-01 0.12500230E+03</pdfrwt>
<pdfrwt beam="1">  1       -4 0.14691337E-02 0.12500230E+03</pdfrwt>
<totfact> 0.62777791E+03</totfact>
</mgrwt>
</event>
<event>
 5    1  0.3206158E-002  0.1249845E+03  0.7818608E-02  0.1235093E+00
         -4   -1    0    0    0  501 -0.00000000000E+00  0.00000000000E+00  0.16034986350E+02  0.16085200876E+02  0.12700000000E+01 0. -1.
          4   -1    0    0  501    0  0.00000000000E+00 -0.00000000000E+00 -0.24311495252E+03  0.24311826966E+03  0.12700000000E+01 0. -1.
         25    2    1    2    0    0  0.00000000000E+00  0.00000000000E+00 -0.22707996617E+03  0.25920347053E+03  0.12498451143E+03 0.  0.
    9000005    1    3    3    0    0 -0.90593933317E+01 -0.12042645587E+02  0.12219951344E+02  0.19427432438E+02  0.10000000000E+01 0.  0.
    9000005    1    3    3    0    0  0.90593933317E+01  0.12042645587E+02 -0.23929991752E+03  0.23977603809E+03  0.10000000000E+01 0.  0.
<mgrwt>
<rscale>  0 0.12498451E+03</rscale>
<asrwt>0</asrwt>
<pdfrwt beam="2">  1        4 0.37406416E-01 0.12498451E+03</pdfrwt>
<pdfrwt beam="1">  1       -4 0.24710390E-02 0.12498451E+03</pdfrwt>
<totfact> 0.81045914E+03</totfact>
</mgrwt>
</event>
<event>
 5    1  0.3206158E-002  0.1250018E+03  0.7818608E-02  0.1235066E+00
         -4   -1    0    0    0  501 -0.00000000000E+00  0.00000000000E+00  0.14943985002E+02  0.14997852771E+02  0.12700000000E+01 0.  1.
          4   -1    0    0  501    0  0.00000000000E+00 -0.00000000000E+00 -0.26087467631E+03  0.26087776762E+03  0.12700000000E+01 0.  1.
         25    2    1    2    0    0  0.00000000000E+00  0.00000000000E+00 -0.24593069130E+03  0.27587562039E+03  0.12500181199E+03 0.  0.
    9000005    1    3    3    0    0 -0.49677799981E+02 -0.33306744322E+02 -0.16294386892E+03  0.17357686322E+03  0.10000000000E+01 0.  0.
    9000005    1    3    3    0    0  0.49677799981E+02  0.33306744322E+02 -0.82986822383E+02  0.10229875716E+03  0.10000000000E+01 0.  0.
<mgrwt>
<rscale>  0 0.12500181E+03</rscale>
<asrwt>0</asrwt>
<pdfrwt beam="2">  1        4 0.40138944E-01 0.12500181E+03</pdfrwt>
<pdfrwt beam="1">  1       -4 0.23034563E-02 0.12500181E+03</pdfrwt>
<totfact> 0.78724995E+03</totfact>
</mgrwt>
</event>
<event>
 5    1  0.3206158E-002  0.1249960E+03  0.7818608E-02  0.1235076E+00
          4   -1    0    0  501    0  0.00000000000E+00  0.00000000000E+00  0.26778028897E+01  0.29637017927E+01  0.12700000000E+01 0. -1.
         -4   -1    0    0    0  501 -0.00000000000E+00 -0.00000000000E+00 -0.13844511527E+04  0.13844517352E+04  0.12700000000E+01 0. -1.
         25    2    1    2    0    0  0.00000000000E+00  0.00000000000E+00 -0.13817733498E+04  0.13874154370E+04  0.12499601823E+03 0.  0.
    9000005    1    3    3    0    0  0.56517890804E+02 -0.12439927852E+02 -0.42916547896E+03  0.43305084241E+03  0.10000000000E+01 0.  0.
    9000005    1    3    3    0    0 -0.56517890804E+02  0.12439927852E+02 -0.95260787085E+03  0.95436459458E+03  0.10000000000E+01 0.  0.
<mgrwt>
<rscale>  0 0.12499602E+03</rscale>
<asrwt>0</asrwt>
<pdfrwt beam="1">  1        4 0.43400781E-03 0.12499602E+03</pdfrwt>
<pdfrwt beam="2">  1       -4 0.21301398E+00 0.12499602E+03</pdfrwt>
<totfact> 0.20254439E+03</totfact>
</mgrwt>
</event>
<event>
 5    1  0.3206158E-002  0.1250038E+03  0.7818608E-02  0.1235063E+00
          4   -1    0    0  501    0  0.00000000000E+00  0.00000000000E+00  0.15897119562E+03  0.15897626847E+03  0.12700000000E+01 0.  1.
         -4   -1    0    0    0  501 -0.00000000000E+00 -0.00000000000E+00 -0.24551681607E+02  0.24584506701E+02  0.12700000000E+01 0.  1.
         25    2    1    2    0    0  0.00000000000E+00  0.00000000000E+00  0.13441951401E+03  0.18356077517E+03  0.12500380968E+03 0.  0.
    9000005    1    3    3    0    0  0.52861105573E+02  0.19954155611E+02  0.27998704934E+02  0.63066570277E+02  0.10000000000E+01 0.  0.
    9000005    1    3    3    0    0 -0.52861105573E+02 -0.19954155611E+02  0.10642080908E+03  0.12049420490E+03  0.10000000000E+01 0.  0.
<mgrwt>
<rscale>  0 0.12500381E+03</rscale>
<asrwt>0</asrwt>
<pdfrwt beam="1">  1        4 0.24460022E-01 0.12500381E+03</pdfrwt>
<pdfrwt beam="2">  1       -4 0.37800970E-02 0.12500381E+03</pdfrwt>
<totfact> 0.92972011E+03</totfact>
</mgrwt>
</event>
<event>
 5    1  0.3206158E-002  0.1249940E+03  0.7818608E-02  0.1235079E+00
          4   -1    0    0  501    0  0.00000000000E+00  0.00000000000E+00  0.61601545068E+02  0.61614635069E+02  0.12700000000E+01 0.  1.
         -4   -1    0    0    0  501 -0.00000000000E+00 -0.00000000000E+00 -0.63379238301E+02  0.63391961223E+02  0.12700000000E+01 0.  1.
         25    2    1    2    0    0  0.00000000000E+00  0.00000000000E+00 -0.17776932336E+01  0.12500659629E+03  0.12499395555E+03 0.  0.
    9000005    1    3    3    0    0 -0.28905954775E+02  0.54898024336E+02 -0.83411056375E+01  0.62609275197E+02  0.10000000000E+01 0.  0.
    9000005    1    3    3    0    0  0.28905954775E+02 -0.54898024336E+02  0.65634124039E+01  0.62397321095E+02  0.10000000000E+01 0.  0.
<mgrwt>
<rscale>  0 0.12499396E+03</rscale>
<asrwt>0</asrwt>
<pdfrwt beam="1">  1        4 0.94791464E-02 0.12499396E+03</pdfrwt>
<pdfrwt beam="2">  1       -4 0.97526376E-02 0.12499396E+03</pdfrwt>
<totfact> 0.10454147E+04</totfact>
</mgrwt>
</event>
<event>
 5    1  0.3206158E-002  0.1249995E+03  0.7818608E-02  0.1235070E+00
         -4   -1    0    0    0  501 -0.00000000000E+00  0.00000000000E+00  0.71007355231E+02  0.71018711597E+02  0.12700000000E+01 0.  1.
          4   -1    0    0  501    0  0.00000000000E+00 -0.00000000000E+00 -0.54988372343E+02  0.55003036215E+02  0.12700000000E+01 0.  1.
         25    2    1    2    0    0  0.00000000000E+00  0.00000000000E+00  0.16018982888E+02  0.12602174781E+03  0.12499949243E+03 0.  0.
    9000005    1    3    3    0    0  0.21035912454E+02 -0.15471117809E+02 -0.49229397566E+02  0.55735075883E+02  0.10000000000E+01 0.  0.
    9000005    1    3    3    0    0 -0.21035912454E+02  0.15471117809E+02  0.65248380454E+02  0.70286671929E+02  0.10000000000E+01 0.  0.
<mgrwt>
<rscale>  0 0.12499949E+03</rscale>
<asrwt>0</asrwt>
<pdfrwt beam="2">  1        4 0.84617511E-02 0.12499949E+03</pdfrwt>
<pdfrwt beam="1">  1       -4 0.10926210E-01 0.12499949E+03</pdfrwt>
<totfact> 0.10430600E+04</totfact>
</mgrwt>
</event>
<event>
 5    1  0.3206158E-002  0.1250070E+03  0.7818608E-02  0.1235058E+00
         -4   -1    0    0    0  501 -0.00000000000E+00  0.00000000000E+00  0.16725733759E+04  0.16725738581E+04  0.12700000000E+01 0. -1.
          4   -1    0    0  501    0  0.00000000000E+00 -0.00000000000E+00 -0.21625824439E+01  0.25079200200E+01  0.12700000000E+01 0. -1.
         25    2    1    2    0    0  0.00000000000E+00  0.00000000000E+00  0.16704107935E+04  0.16750817781E+04  0.12500697726E+03 0.  0.
    9000005    1    3    3    0    0 -0.44970409927E+02 -0.86866715701E+01  0.14049599031E+04  0.14057066285E+04  0.10000000000E+01 0.  0.
    9000005    1    3    3    0    0  0.44970409927E+02  0.86866715701E+01  0.26545089034E+03  0.26937514959E+03  0.10000000000E+01 0.  0.
<mgrwt>
<rscale>  0 0.12500698E+03</rscale>
<asrwt>0</asrwt>
<pdfrwt beam="2">  1        4 0.35930709E-03 0.12500698E+03</pdfrwt>
<pdfrwt beam="1">  1       -4 0.25734517E+00 0.12500698E+03</pdfrwt>
<totfact> 0.14725708E+03</totfact>
</mgrwt>
</event>
<event>
 5    1  0.3206158E-002  0.1250139E+03  0.7818608E-02  0.1235048E+00
          4   -1    0    0  501    0  0.00000000000E+00  0.00000000000E+00  0.35957209353E+03  0.35957433633E+03  0.12700000000E+01 0.  1.
         -4   -1    0    0    0  501 -0.00000000000E+00 -0.00000000000E+00 -0.10826630951E+02  0.10900864083E+02  0.12700000000E+01 0.  1.
         25    2    1    2    0    0  0.00000000000E+00  0.00000000000E+00  0.34874546258E+03  0.37047520041E+03  0.12501390503E+03 0.  0.
    9000005    1    3    3    0    0  0.51927365632E+02  0.35231101195E+01  0.71832512016E+02  0.88711743241E+02  0.10000000000E+01 0.  0.
    9000005    1    3    3    0    0 -0.51927365632E+02 -0.35231101195E+01  0.27691295056E+03  0.28176345717E+03  0.10000000000E+01 0.  0.
<mgrwt>
<rscale>  0 0.12501391E+03</rscale>
<asrwt>0</asrwt>
<pdfrwt beam="1">  1        4 0.55324672E-01 0.12501391E+03</pdfrwt>
<pdfrwt beam="2">  1       -4 0.16715181E-02 0.12501391E+03</pdfrwt>
<totfact> 0.67508491E+03</totfact>
</mgrwt>
</event>
<event>
 5    1  0.3206158E-002  0.1250062E+03  0.7818608E-02  0.1235060E+00
         -4   -1    0    0    0  501 -0.00000000000E+00  0.00000000000E+00  0.34898678451E+03  0.34898909533E+03  0.12700000000E+01 0.  1.
          4   -1    0    0  501    0  0.00000000000E+00 -0.00000000000E+00 -0.11155850892E+02  0.11227907602E+02  0.12700000000E+01 0.  1.
         25    2    1    2    0    0  0.00000000000E+00  0.00000000000E+00  0.33783093362E+03  0.36021700293E+03  0.12500619783E+03 0.  0.
    9000005    1    3    3    0    0 -0.11600260382E+02 -0.60573450845E+02  0.13982302091E+03  0.15282403661E+03  0.10000000000E+01 0.  0.
    9000005    1    3    3    0    0  0.11600260382E+02  0.60573450845E+02  0.19800791270E+03  0.20739296633E+03  0.10000000000E+01 0.  0.
<mgrwt>
<rscale>  0 0.12500620E+03</rscale>
<asrwt>0</asrwt>
<pdfrwt beam="2">  1        4 0.17220051E-02 0.12500620E+03</pdfrwt>
<pdfrwt beam="1">  1       -4 0.53696001E-01 0.12500620E+03</pdfrwt>
<totfact> 0.68605583E+03</totfact>
</mgrwt>
</event>
<event>
 5    1  0.3206158E-002  0.1249998E+03  0.7818608E-02  0.1235070E+00
          4   -1    0    0  501    0  0.00000000000E+00  0.00000000000E+00  0.37630949041E+01  0.39716222451E+01  0.12700000000E+01 0. -1.
         -4   -1    0    0    0  501 -0.00000000000E+00 -0.00000000000E+00 -0.10098433846E+04  0.10098441832E+04  0.12700000000E+01 0. -1.
         25    2    1    2    0    0  0.00000000000E+00  0.00000000000E+00 -0.10060802897E+04  0.10138158054E+04  0.12499975213E+03 0.  0.
    9000005    1    3    3    0    0  0.21690844706E+02 -0.51692589857E+02 -0.27906315259E+03  0.28463987726E+03  0.10000000000E+01 0.  0.
    9000005    1    3    3    0    0 -0.21690844706E+02  0.51692589857E+02 -0.72701713708E+03  0.72917592816E+03  0.10000000000E+01 0.  0.
<mgrwt>
<rscale>  0 0.12499975E+03</rscale>
<asrwt>0</asrwt>
<pdfrwt beam="1">  1        4 0.59504048E-03 0.12499975E+03</pdfrwt>
<pdfrwt beam="2">  1       -4 0.15537641E+00 0.12499975E+03</pdfrwt>
<totfact> 0.30152187E+03</totfact>
</mgrwt>
</event>
<event>
 5    1  0.3206158E-002  0.1250033E+03  0.7818608E-02  0.1235064E+00
          4   -1    0    0  501    0  0.00000000000E+00  0.00000000000E+00  0.20005236050E+03  0.20005639165E+03  0.12700000000E+01 0.  1.
         -4   -1    0    0    0  501 -0.00000000000E+00 -0.00000000000E+00 -0.19502292304E+02  0.19543600106E+02  0.12700000000E+01 0.  1.
         25    2    1    2    0    0  0.00000000000E+00  0.00000000000E+00  0.18055006819E+03  0.21959999176E+03  0.12500331698E+03 0.  0.
    9000005    1    3    3    0    0 -0.59156535675E+02 -0.14799092089E+02  0.11429496450E+03  0.12954863083E+03  0.10000000000E+01 0.  0.
    9000005    1    3    3    0    0  0.59156535675E+02  0.14799092089E+02  0.66255103698E+02  0.90051360932E+02  0.10000000000E+01 0.  0.
<mgrwt>
<rscale>  0 0.12500332E+03</rscale>
<asrwt>0</asrwt>
<pdfrwt beam="1">  1        4 0.30780774E-01 0.12500332E+03</pdfrwt>
<pdfrwt beam="2">  1       -4 0.30038403E-02 0.12500332E+03</pdfrwt>
<totfact> 0.86925244E+03</totfact>
</mgrwt>
</event>
<event>
 5    1  0.3206158E-002  0.1250014E+03  0.7818608E-02  0.1235067E+00
          4   -1    0    0  501    0  0.00000000000E+00  0.00000000000E+00  0.71854695057E+01  0.72968398651E+01  0.12700000000E+01 0.  1.
         -4   -1    0    0    0  501 -0.00000000000E+00 -0.00000000000E+00 -0.53935115438E+03  0.53935264960E+03  0.12700000000E+01 0.  1.
         25    2    1    2    0    0  0.00000000000E+00  0.00000000000E+00 -0.53216568487E+03  0.54664948946E+03  0.12500139269E+03 0.  0.
    9000005    1    3    3    0    0  0.29837054351E+01  0.61834588121E+02 -0.22873958176E+03  0.23697091604E+03  0.10000000000E+01 0.  0.
    9000005    1    3    3    0    0 -0.29837054351E+01 -0.61834588121E+02 -0.30342610311E+03  0.30967857342E+03  0.10000000000E+01 0.  0.
<mgrwt>
<rscale>  0 0.12500139E+03</rscale>
<asrwt>0</asrwt>
<pdfrwt beam="1">  1        4 0.11141392E-02 0.12500139E+03</pdfrwt>
<pdfrwt beam="2">  1       -4 0.82985751E-01 0.12500139E+03</pdfrwt>
<totfact> 0.52416706E+03</totfact>
</mgrwt>
</event>
<event>
 5    1  0.3206158E-002  0.1250042E+03  0.7818608E-02  0.1235063E+00
         -4   -1    0    0    0  501 -0.00000000000E+00  0.00000000000E+00  0.28886332373E+03  0.28886611552E+03  0.12700000000E+01 0. -1.
          4   -1    0    0  501    0  0.00000000000E+00 -0.00000000000E+00 -0.13491064615E+02  0.13550709370E+02  0.12700000000E+01 0. -1.
         25    2    1    2    0    0  0.00000000000E+00  0.00000000000E+00  0.27537225911E+03  0.30241682489E+03  0.12500421948E+03 0.  0.
    9000005    1    3    3    0    0 -0.32313630099E+02 -0.53090522949E+02  0.15350208782E+03  0.16560997942E+03  0.10000000000E+01 0.  0.
    9000005    1    3    3    0    0  0.32313630099E+02  0.53090522949E+02  0.12187017129E+03  0.13680684547E+03  0.10000000000E+01 0.  0.
<mgrwt>
<rscale>  0 0.12500422E+03</rscale>
<asrwt>0</asrwt>
<pdfrwt beam="2">  1        4 0.20803512E-02 0.12500422E+03</pdfrwt>
<pdfrwt beam="1">  1       -4 0.44445315E-01 0.12500422E+03</pdfrwt>
<totfact> 0.75289620E+03</totfact>
</mgrwt>
</event>
<event>
 5    1  0.3206158E-002  0.1250053E+03  0.7818608E-02  0.1235061E+00
         -4   -1    0    0    0  501 -0.00000000000E+00  0.00000000000E+00  0.18668702099E+02  0.18711850204E+02  0.12700000000E+01 0. -1.
          4   -1    0    0  501    0  0.00000000000E+00 -0.00000000000E+00 -0.20897161948E+03  0.20897547858E+03  0.12700000000E+01 0. -1.
         25    2    1    2    0    0  0.00000000000E+00  0.00000000000E+00 -0.19030291738E+03  0.22768732878E+03  0.12500527719E+03 0.  0.
    9000005    1    3    3    0    0 -0.40747341748E+01 -0.52910087036E+02 -0.15527214712E+03  0.16409302374E+03  0.10000000000E+01 0.  0.
    9000005    1    3    3    0    0  0.40747341748E+01  0.52910087036E+02 -0.35030770254E+02  0.63594305038E+02  0.10000000000E+01 0.  0.
<mgrwt>
<rscale>  0 0.12500528E+03</rscale>
<asrwt>0</asrwt>
<pdfrwt beam="2">  1        4 0.32153094E-01 0.12500528E+03</pdfrwt>
<pdfrwt beam="1">  1       -4 0.28757241E-02 0.12500528E+03</pdfrwt>
<totfact> 0.85655892E+03</totfact>
</mgrwt>
</event>
<event>
 5    1  0.3206158E-002  0.1250061E+03  0.7818608E-02  0.1235060E+00
         -4   -1    0    0    0  501 -0.00000000000E+00  0.00000000000E+00  0.12669329638E+02  0.12732824254E+02  0.12700000000E+01 0.  1.
          4   -1    0    0  501    0  0.00000000000E+00 -0.00000000000E+00 -0.30751795583E+03  0.30752057827E+03  0.12700000000E+01 0.  1.
         25    2    1    2    0    0  0.00000000000E+00  0.00000000000E+00 -0.29484862619E+03  0.32025340252E+03  0.12500611769E+03 0.  0.
    9000005    1    3    3    0    0 -0.29667257215E+01 -0.44943964093E+02 -0.25841325126E+03  0.26231120791E+03  0.10000000000E+01 0.  0.
    9000005    1    3    3    0    0  0.29667257215E+01  0.44943964093E+02 -0.36435374938E+02  0.57942194615E+02  0.10000000000E+01 0.  0.
<mgrwt>
<rscale>  0 0.12500612E+03</rscale>
<asrwt>0</asrwt>
<pdfrwt beam="2">  1        4 0.47315535E-01 0.12500612E+03</pdfrwt>
<pdfrwt beam="1">  1       -4 0.19542138E-02 0.12500612E+03</pdfrwt>
<totfact> 0.73116083E+03</totfact>
</mgrwt>
</event>
<event>
 5    1  0.3206158E-002  0.1250014E+03  0.7818608E-02  0.1235067E+00
          4   -1    0    0  501    0  0.00000000000E+00  0.00000000000E+00  0.23838252343E+03  0.23838590642E+03  0.12700000000E+01 0. -1.
         -4   -1    0    0    0  501 -0.00000000000E+00 -0.00000000000E+00 -0.16358741082E+02  0.16407964828E+02  0.12700000000E+01 0. -1.
         25    2    1    2    0    0  0.00000000000E+00  0.00000000000E+00  0.22202378235E+03  0.25479387124E+03  0.12500142757E+03 0.  0.
    9000005    1    3    3    0    0 -0.22762276607E+02 -0.54084691119E+02  0.67196655413E+02  0.89216957740E+02  0.10000000000E+01 0.  0.
    9000005    1    3    3    0    0  0.22762276607E+02  0.54084691119E+02  0.15482712694E+03  0.16557691350E+03  0.10000000000E+01 0.  0.
<mgrwt>
<rscale>  0 0.12500143E+03</rscale>
<asrwt>0</asrwt>
<pdfrwt beam="1">  1        4 0.36678278E-01 0.12500143E+03</pdfrwt>
<pdfrwt beam="2">  1       -4 0.25207763E-02 0.12500143E+03</pdfrwt>
<totfact> 0.81639670E+03</totfact>
</mgrwt>
</event>
<event>
 5    1  0.3206158E-002  0.1249723E+03  0.7818608E-02  0.1235113E+00
          4   -1    0    0  501    0  0.00000000000E+00  0.00000000000E+00  0.19280427213E+02  0.19322209333E+02  0.12700000000E+01 0. -1.
         -4   -1    0    0    0  501 -0.00000000000E+00 -0.00000000000E+00 -0.20224923337E+03  0.20225322074E+03  0.12700000000E+01 0. -1.
         25    2    1    2    0    0  0.00000000000E+00  0.00000000000E+00 -0.18296880616E+03  0.22157543007E+03  0.12497234568E+03 0.  0.
    9000005    1    3    3    0    0  0.59436156232E+02 -0.37259590426E+01 -0.12498334241E+03  0.13844990184E+03  0.10000000000E+01 0.  0.
    9000005    1    3    3    0    0 -0.59436156232E+02  0.37259590426E+01 -0.57985463746E+02  0.83125528234E+02  0.10000000000E+01 0.  0.
<mgrwt>
<rscale>  0 0.12497235E+03</rscale>
<asrwt>0</asrwt>
<pdfrwt beam="1">  1        4 0.29697404E-02 0.12497235E+03</pdfrwt>
<pdfrwt beam="2">  1       -4 0.31118786E-01 0.12497235E+03</pdfrwt>
<totfact> 0.86673191E+03</totfact>
</mgrwt>
</event>
<event>
 5    1  0.3206158E-002  0.1250002E+03  0.7818608E-02  0.1235069E+00
          4   -1    0    0  501    0  0.00000000000E+00  0.00000000000E+00  0.90458417022E+02  0.90467331729E+02  0.12700000000E+01 0.  1.
         -4   -1    0    0    0  501 -0.00000000000E+00 -0.00000000000E+00 -0.43162554960E+02  0.43181234937E+02  0.12700000000E+01 0.  1.
         25    2    1    2    0    0  0.00000000000E+00  0.00000000000E+00  0.47295862062E+02  0.13364856667E+03  0.12500016322E+03 0.  0.
    9000005    1    3    3    0    0  0.28690009164E+02 -0.25986691817E+02  0.76101727016E+02  0.85386753260E+02  0.10000000000E+01 0.  0.
    9000005    1    3    3    0    0 -0.28690009164E+02  0.25986691817E+02 -0.28805864955E+02  0.48261813406E+02  0.10000000000E+01 0.  0.
<mgrwt>
<rscale>  0 0.12500016E+03</rscale>
<asrwt>0</asrwt>
<pdfrwt beam="1">  1        4 0.13918802E-01 0.12500016E+03</pdfrwt>
<pdfrwt beam="2">  1       -4 0.66425158E-02 0.12500016E+03</pdfrwt>
<totfact> 0.10266597E+04</totfact>
</mgrwt>
</event>
<event>
 5    1  0.3206158E-002  0.1250010E+03  0.7818608E-02  0.1235068E+00
          4   -1    0    0  501    0  0.00000000000E+00  0.00000000000E+00  0.25931587723E+02  0.25962668235E+02  0.12700000000E+01 0. -1.
         -4   -1    0    0    0  501 -0.00000000000E+00 -0.00000000000E+00 -0.15051506664E+03  0.15052042448E+03  0.12700000000E+01 0. -1.
         25    2    1    2    0    0  0.00000000000E+00  0.00000000000E+00 -0.12458347891E+03  0.17648309271E+03  0.12500095518E+03 0.  0.
    9000005    1    3    3    0    0  0.22418725880E+02 -0.99400428279E+01 -0.14344455912E+03  0.14552919041E+03  0.10000000000E+01 0.  0.
    9000005    1    3    3    0    0 -0.22418725880E+02  0.99400428279E+01  0.18861080200E+02  0.30953902303E+02  0.10000000000E+01 0.  0.
<mgrwt>
<rscale>  0 0.12500096E+03</rscale>
<asrwt>0</asrwt>
<pdfrwt beam="1">  1        4 0.39922781E-02 0.12500096E+03</pdfrwt>
<pdfrwt beam="2">  1       -4 0.23158966E-01 0.12500096E+03</pdfrwt>
<totfact> 0.94251897E+03</totfact>
</mgrwt>
</event>
<event>
 5    1  0.3206158E-002  0.1250002E+03  0.7818608E-02  0.1235069E+00
          4   -1    0    0  501    0  0.00000000000E+00  0.00000000000E+00  0.30017900540E+02  0.30044754165E+02  0.12700000000E+01 0. -1.
         -4   -1    0    0    0  501 -0.00000000000E+00 -0.00000000000E+00 -0.13004292934E+03  0.13004913060E+03  0.12700000000E+01 0. -1.
         25    2    1    2    0    0  0.00000000000E+00  0.00000000000E+00 -0.10002502880E+03  0.16009388477E+03  0.12500018222E+03 0.  0.
    9000005    1    3    3    0    0  0.61337912044E+02 -0.70971645371E+01 -0.62333840365E+02  0.87745181367E+02  0.10000000000E+01 0.  0.
    9000005    1    3    3    0    0 -0.61337912044E+02  0.70971645371E+01 -0.37691188433E+02  0.72348703402E+02  0.10000000000E+01 0.  0.
<mgrwt>
<rscale>  0 0.12500018E+03</rscale>
<asrwt>0</asrwt>
<pdfrwt beam="1">  1        4 0.46206813E-02 0.12500018E+03</pdfrwt>
<pdfrwt beam="2">  1       -4 0.20009147E-01 0.12500018E+03</pdfrwt>
<totfact> 0.97324289E+03</totfact>
</mgrwt>
</event>
<event>
 5    1  0.3206158E-002  0.1249983E+03  0.7818608E-02  0.1235072E+00
         -4   -1    0    0    0  501 -0.00000000000E+00  0.00000000000E+00  0.13721163656E+03  0.13721751385E+03  0.12700000000E+01 0. -1.
          4   -1    0    0  501    0  0.00000000000E+00 -0.00000000000E+00 -0.28447355031E+02  0.28475689776E+02  0.12700000000E+01 0. -1.
         25    2    1    2    0    0  0.00000000000E+00  0.00000000000E+00  0.10876428152E+03  0.16569320362E+03  0.12499827515E+03 0.  0.
    9000005    1    3    3    0    0 -0.27872981168E+02  0.24356746216E+02  0.12112251405E+03  0.12665629703E+03  0.10000000000E+01 0.  0.
    9000005    1    3    3    0    0  0.27872981168E+02 -0.24356746216E+02 -0.12358232529E+02  0.39036906597E+02  0.10000000000E+01 0.  0.
<mgrwt>
<rscale>  0 0.12499828E+03</rscale>
<asrwt>0</asrwt>
<pdfrwt beam="2">  1        4 0.43791478E-02 0.12499828E+03</pdfrwt>
<pdfrwt beam="1">  1       -4 0.21112114E-01 0.12499828E+03</pdfrwt>
<totfact> 0.96260001E+03</totfact>
</mgrwt>
</event>
<event>
 5    1  0.3206158E-002  0.1249993E+03  0.7818608E-02  0.1235070E+00
          4   -1    0    0  501    0  0.00000000000E+00  0.00000000000E+00  0.54582674842E+02  0.54597447677E+02  0.12700000000E+01 0.  1.
         -4   -1    0    0    0  501 -0.00000000000E+00 -0.00000000000E+00 -0.71534907673E+02  0.71546180302E+02  0.12700000000E+01 0.  1.
         25    2    1    2    0    0  0.00000000000E+00  0.00000000000E+00 -0.16952232831E+02  0.12614362798E+03  0.12499934673E+03 0.  0.
    9000005    1    3    3    0    0 -0.29800040983E+01 -0.38268282568E+02  0.41289284857E+02  0.56383924297E+02  0.10000000000E+01 0.  0.
    9000005    1    3    3    0    0  0.29800040983E+01  0.38268282568E+02 -0.58241517689E+02  0.69759703682E+02  0.10000000000E+01 0.  0.
<mgrwt>
<rscale>  0 0.12499935E+03</rscale>
<asrwt>0</asrwt>
<pdfrwt beam="1">  1        4 0.83993381E-02 0.12499935E+03</pdfrwt>
<pdfrwt beam="2">  1       -4 0.11007374E-01 0.12499935E+03</pdfrwt>
<totfact> 0.10427966E+04</totfact>
</mgrwt>
</event>
<event>
 5    1  0.3206158E-002  0.1249984E+03  0.7818608E-02  0.1235072E+00
         -4   -1    0    0    0  501 -0.00000000000E+00  0.00000000000E+00  0.19427714796E+02  0.19469180830E+02  0.12700000000E+01 0. -1.
          4   -1    0    0  501    0  0.00000000000E+00 -0.00000000000E+00 -0.20080273714E+03  0.20080675323E+03  0.12700000000E+01 0. -1.
         25    2    1    2    0    0  0.00000000000E+00  0.00000000000E+00 -0.18137502235E+03  0.22027593406E+03  0.12499835357E+03 0.  0.
    9000005    1    3    3    0    0  0.52274881748E+02  0.34067908525E+02 -0.96756712956E+02  0.11513534277E+03  0.10000000000E+01 0.  0.
    9000005    1    3    3    0    0 -0.52274881748E+02 -0.34067908525E+02 -0.84618309391E+02  0.10514059129E+03  0.10000000000E+01 0.  0.
<mgrwt>
<rscale>  0 0.12499835E+03</rscale>
<asrwt>0</asrwt>
<pdfrwt beam="2">  1        4 0.30896226E-01 0.12499835E+03</pdfrwt>
<pdfrwt beam="1">  1       -4 0.29923780E-02 0.12499835E+03</pdfrwt>
<totfact> 0.86827899E+03</totfact>
</mgrwt>
</event>
<event>
 4    1  0.3206158E-002  0.1253090E+03  0.7818608E-02  0.1234587E+00
         -4   -1    0    0    0  501 -0.00000000000E+00  0.00000000000E+00  0.87440765657E+02  0.87449987986E+02  0.12700000000E+01 0.  1.
          4   -1    0    0  501    0  0.00000000000E+00 -0.00000000000E+00 -0.44873670525E+02  0.44891638491E+02  0.12700000000E+01 0.  1.
    9000005    1    1    2    0    0 -0.60858796189E+02 -0.99016415618E+00  0.36941734364E+02  0.71207199331E+02  0.10000000000E+01 0.  0.
    9000005    1    1    2    0    0  0.60858796189E+02  0.99016415618E+00  0.56253607674E+01  0.61134427146E+02  0.10000000000E+01 0.  0.
<mgrwt>
<rscale>  0 0.12530901E+03</rscale>
<asrwt>0</asrwt>
<pdfrwt beam="2">  1        4 0.69057333E-02 0.12530901E+03</pdfrwt>
<pdfrwt beam="1">  1       -4 0.13454517E-01 0.12530901E+03</pdfrwt>
<totfact> 0.10222980E+04</totfact>
</mgrwt>
</event>
<event>
 5    1  0.3206158E-002  0.1250001E+03  0.7818608E-02  0.1235069E+00
          4   -1    0    0  501    0  0.00000000000E+00  0.00000000000E+00  0.30841687891E+02  0.30867824866E+02  0.12700000000E+01 0. -1.
         -4   -1    0    0    0  501 -0.00000000000E+00 -0.00000000000E+00 -0.12657214784E+03  0.12657851914E+03  0.12700000000E+01 0. -1.
         25    2    1    2    0    0  0.00000000000E+00  0.00000000000E+00 -0.95730459950E+02  0.15744634401E+03  0.12500012112E+03 0.  0.
    9000005    1    3    3    0    0  0.50655004439E+02 -0.92944812332E+01 -0.32803699424E+01  0.51614704136E+02  0.10000000000E+01 0.  0.
    9000005    1    3    3    0    0 -0.50655004439E+02  0.92944812332E+01 -0.92450090007E+02  0.10583163987E+03  0.10000000000E+01 0.  0.
<mgrwt>
<rscale>  0 0.12500012E+03</rscale>
<asrwt>0</asrwt>
<pdfrwt beam="1">  1        4 0.47473757E-02 0.12500012E+03</pdfrwt>
<pdfrwt beam="2">  1       -4 0.19475139E-01 0.12500012E+03</pdfrwt>
<totfact> 0.97837114E+03</totfact>
</mgrwt>
</event>
<event>
 5    1  0.3206158E-002  0.1249943E+03  0.7818608E-02  0.1235078E+00
          4   -1    0    0  501    0  0.00000000000E+00  0.00000000000E+00  0.23818716939E+01  0.26992985693E+01  0.12700000000E+01 0.  1.
         -4   -1    0    0    0  501 -0.00000000000E+00 -0.00000000000E+00 -0.15370803883E+04  0.15370809130E+04  0.12700000000E+01 0.  1.
         25    2    1    2    0    0  0.00000000000E+00  0.00000000000E+00 -0.15346985166E+04  0.15397802115E+04  0.12499425169E+03 0.  0.
    9000005    1    3    3    0    0  0.21302215712E+02 -0.57695696798E+02 -0.90358932646E+03  0.90568054452E+03  0.10000000000E+01 0.  0.
    9000005    1    3    3    0    0 -0.21302215712E+02  0.57695696798E+02 -0.63110919015E+03  0.63409966702E+03  0.10000000000E+01 0.  0.
<mgrwt>
<rscale>  0 0.12499425E+03</rscale>
<asrwt>0</asrwt>
<pdfrwt beam="1">  1        4 0.39090084E-03 0.12499425E+03</pdfrwt>
<pdfrwt beam="2">  1       -4 0.23649762E+00 0.12499425E+03</pdfrwt>
<totfact> 0.17163807E+03</totfact>
</mgrwt>
</event>
<event>
 5    1  0.3206158E-002  0.1249983E+03  0.7818608E-02  0.1235072E+00
          4   -1    0    0  501    0  0.00000000000E+00  0.00000000000E+00  0.16257028960E+03  0.16257525015E+03  0.12700000000E+01 0.  1.
         -4   -1    0    0    0  501 -0.00000000000E+00 -0.00000000000E+00 -0.24005284323E+02  0.24038855535E+02  0.12700000000E+01 0.  1.
         25    2    1    2    0    0  0.00000000000E+00  0.00000000000E+00  0.13856500528E+03  0.18661410569E+03  0.12499825500E+03 0.  0.
    9000005    1    3    3    0    0 -0.21813872920E+02  0.44626475121E+01 -0.17889749130E+02  0.28579772542E+02  0.10000000000E+01 0.  0.
    9000005    1    3    3    0    0  0.21813872920E+02 -0.44626475121E+01  0.15645475441E+03  0.15803433314E+03  0.10000000000E+01 0.  0.
<mgrwt>
<rscale>  0 0.12499825E+03</rscale>
<asrwt>0</asrwt>
<pdfrwt beam="1">  1        4 0.25013778E-01 0.12499825E+03</pdfrwt>
<pdfrwt beam="2">  1       -4 0.36960846E-02 0.12499825E+03</pdfrwt>
<totfact> 0.92443423E+03</totfact>
</mgrwt>
</event>
<event>
 5    1  0.3206158E-002  0.1249991E+03  0.7818608E-02  0.1235071E+00
         -4   -1    0    0    0  501 -0.00000000000E+00  0.00000000000E+00  0.51464083227E+02  0.51479750994E+02  0.12700000000E+01 0. -1.
          4   -1    0    0  501    0  0.00000000000E+00 -0.00000000000E+00 -0.75868802754E+02  0.75879431543E+02  0.12700000000E+01 0. -1.
         25    2    1    2    0    0  0.00000000000E+00  0.00000000000E+00 -0.24404719527E+02  0.12735918254E+03  0.12499908416E+03 0.  0.
    9000005    1    3    3    0    0 -0.52759272206E+02  0.33446029586E+02 -0.10433181794E+02  0.63340579261E+02  0.10000000000E+01 0.  0.
    9000005    1    3    3    0    0  0.52759272206E+02 -0.33446029586E+02 -0.13971537734E+02  0.64018603276E+02  0.10000000000E+01 0.  0.
<mgrwt>
<rscale>  0 0.12499908E+03</rscale>
<asrwt>0</asrwt>
<pdfrwt beam="2">  1        4 0.11674146E-01 0.12499908E+03</pdfrwt>
<pdfrwt beam="1">  1       -4 0.79195741E-02 0.12499908E+03</pdfrwt>
<totfact> 0.10401566E+04</totfact>
</mgrwt>
</event>
<event>
 5    1  0.3206158E-002  0.1250005E+03  0.7818608E-02  0.1235069E+00
         -4   -1    0    0    0  501 -0.00000000000E+00  0.00000000000E+00  0.30515831906E+03  0.30516096177E+03  0.12700000000E+01 0.  1.
          4   -1    0    0  501    0  0.00000000000E+00 -0.00000000000E+00 -0.12766629664E+02  0.12829642746E+02  0.12700000000E+01 0.  1.
         25    2    1    2    0    0  0.00000000000E+00  0.00000000000E+00  0.29239168939E+03  0.31799060452E+03  0.12500049814E+03 0.  0.
    9000005    1    3    3    0    0  0.45813752988E+02  0.14903089181E+01  0.25424965540E+03  0.25835055304E+03  0.10000000000E+01 0.  0.
    9000005    1    3    3    0    0 -0.45813752988E+02 -0.14903089181E+01  0.38142033994E+02  0.59640051482E+02  0.10000000000E+01 0.  0.
<mgrwt>
<rscale>  0 0.12500050E+03</rscale>
<asrwt>0</asrwt>
<pdfrwt beam="2">  1        4 0.19691472E-02 0.12500050E+03</pdfrwt>
<pdfrwt beam="1">  1       -4 0.46952487E-01 0.12500050E+03</pdfrwt>
<totfact> 0.73394941E+03</totfact>
</mgrwt>
</event>
<event>
 5    1  0.3206158E-002  0.1250045E+03  0.7818608E-02  0.1235062E+00
          4   -1    0    0  501    0  0.00000000000E+00  0.00000000000E+00  0.28927546049E+03  0.28927824831E+03  0.12700000000E+01 0. -1.
         -4   -1    0    0    0  501 -0.00000000000E+00 -0.00000000000E+00 -0.13471820390E+02  0.13531549971E+02  0.12700000000E+01 0. -1.
         25    2    1    2    0    0  0.00000000000E+00  0.00000000000E+00  0.27580364010E+03  0.30280979828E+03  0.12500450407E+03 0.  0.
    9000005    1    3    3    0    0 -0.80260140119E+00 -0.43736066856E+02  0.24601874964E+03  0.24987939668E+03  0.10000000000E+01 0.  0.
    9000005    1    3    3    0    0  0.80260140119E+00  0.43736066856E+02  0.29784890464E+02  0.52930401595E+02  0.10000000000E+01 0.  0.
<mgrwt>
<rscale>  0 0.12500450E+03</rscale>
<asrwt>0</asrwt>
<pdfrwt beam="1">  1        4 0.44508723E-01 0.12500450E+03</pdfrwt>
<pdfrwt beam="2">  1       -4 0.20773969E-02 0.12500450E+03</pdfrwt>
<totfact> 0.75240208E+03</totfact>
</mgrwt>
</event>
<event>
 5    1  0.3206158E-002  0.1250014E+03  0.7818608E-02  0.1235067E+00
          4   -1    0    0  501    0  0.00000000000E+00  0.00000000000E+00  0.18377179746E+03  0.18377618573E+03  0.12700000000E+01 0.  1.
         -4   -1    0    0    0  501 -0.00000000000E+00 -0.00000000000E+00 -0.21232835560E+02  0.21270782918E+02  0.12700000000E+01 0.  1.
         25    2    1    2    0    0  0.00000000000E+00  0.00000000000E+00  0.16253896190E+03  0.20504696865E+03  0.12500138086E+03 0.  0.
    9000005    1    3    3    0    0 -0.16677850415E+01 -0.61939794661E+02  0.67941473306E+02  0.91958487724E+02  0.10000000000E+01 0.  0.
    9000005    1    3    3    0    0  0.16677850415E+01  0.61939794661E+02  0.94597488598E+02  0.11308848093E+03  0.10000000000E+01 0.  0.
<mgrwt>
<rscale>  0 0.12500138E+03</rscale>
<asrwt>0</asrwt>
<pdfrwt beam="1">  1        4 0.28275841E-01 0.12500138E+03</pdfrwt>
<pdfrwt beam="2">  1       -4 0.32698467E-02 0.12500138E+03</pdfrwt>
<totfact> 0.89288461E+03</totfact>
</mgrwt>
</event>
<event>
 5    1  0.3206158E-002  0.1249971E+03  0.7818608E-02  0.1235074E+00
          4   -1    0    0  501    0  0.00000000000E+00  0.00000000000E+00  0.20971638727E+03  0.20972023266E+03  0.12700000000E+01 0. -1.
         -4   -1    0    0    0  501 -0.00000000000E+00 -0.00000000000E+00 -0.18599807829E+02  0.18643115386E+02  0.12700000000E+01 0. -1.
         25    2    1    2    0    0  0.00000000000E+00  0.00000000000E+00  0.19111657944E+03  0.22836334805E+03  0.12499708715E+03 0.  0.
    9000005    1    3    3    0    0 -0.26838856943E+02  0.43801245329E+02  0.16056777687E+03  0.16858791269E+03  0.10000000000E+01 0.  0.
    9000005    1    3    3    0    0  0.26838856943E+02 -0.43801245329E+02  0.30548802562E+02  0.59775435359E+02  0.10000000000E+01 0.  0.
<mgrwt>
<rscale>  0 0.12499709E+03</rscale>
<asrwt>0</asrwt>
<pdfrwt beam="1">  1        4 0.32267686E-01 0.12499709E+03</pdfrwt>
<pdfrwt beam="2">  1       -4 0.28651362E-02 0.12499709E+03</pdfrwt>
<totfact> 0.85567103E+03</totfact>
</mgrwt>
</event>
<event>
 5    1  0.3206158E-002  0.1249996E+03  0.7818608E-02  0.1235070E+00
          4   -1    0    0  501    0  0.00000000000E+00  0.00000000000E+00  0.24680156574E+02  0.24712811020E+02  0.12700000000E+01 0. -1.
         -4   -1    0    0    0  501 -0.00000000000E+00 -0.00000000000E+00 -0.15813415991E+03  0.15813925961E+03  0.12700000000E+01 0. -1.
         25    2    1    2    0    0  0.00000000000E+00  0.00000000000E+00 -0.13345400333E+03  0.18285207063E+03  0.12499963491E+03 0.  0.
    9000005    1    3    3    0    0  0.36861721402E+02 -0.34893590921E+02 -0.13401654411E+02  0.52506699887E+02  0.10000000000E+01 0.  0.
    9000005    1    3    3    0    0 -0.36861721402E+02  0.34893590921E+02 -0.12005234892E+03  0.13034537074E+03  0.10000000000E+01 0.  0.
<mgrwt>
<rscale>  0 0.12499963E+03</rscale>
<asrwt>0</asrwt>
<pdfrwt beam="1">  1        4 0.37998514E-02 0.12499963E+03</pdfrwt>
<pdfrwt beam="2">  1       -4 0.24331236E-01 0.12499963E+03</pdfrwt>
<totfact> 0.93106888E+03</totfact>
</mgrwt>
</event>
<event>
 5    1  0.3206158E-002  0.1249901E+03  0.7818608E-02  0.1235085E+00
         -4   -1    0    0    0  501 -0.00000000000E+00  0.00000000000E+00  0.14667003131E+03  0.14667552960E+03  0.12700000000E+01 0. -1.
          4   -1    0    0  501    0  0.00000000000E+00 -0.00000000000E+00 -0.26607536758E+02  0.26637828596E+02  0.12700000000E+01 0. -1.
         25    2    1    2    0    0  0.00000000000E+00  0.00000000000E+00  0.12006249455E+03  0.17331335820E+03  0.12499006973E+03 0.  0.
    9000005    1    3    3    0    0  0.16486125861E+02 -0.37531680524E+01 -0.23382160379E+02  0.28872201861E+02  0.10000000000E+01 0.  0.
    9000005    1    3    3    0    0 -0.16486125861E+02  0.37531680524E+01  0.14344465493E+03  0.14444115634E+03  0.10000000000E+01 0.  0.
<mgrwt>
<rscale>  0 0.12499007E+03</rscale>
<asrwt>0</asrwt>
<pdfrwt beam="2">  1        4 0.40962202E-02 0.12499007E+03</pdfrwt>
<pdfrwt beam="1">  1       -4 0.22567374E-01 0.12499007E+03</pdfrwt>
<totfact> 0.94855788E+03</totfact>
</mgrwt>
</event>
<event>
 5    1  0.3206158E-002  0.1250012E+03  0.7818608E-02  0.1235067E+00
         -4   -1    0    0    0  501 -0.00000000000E+00  0.00000000000E+00  0.19263345700E+02  0.19305164789E+02  0.12700000000E+01 0. -1.
          4   -1    0    0  501    0  0.00000000000E+00 -0.00000000000E+00 -0.20252168537E+03  0.20252566738E+03  0.12700000000E+01 0. -1.
         25    2    1    2    0    0  0.00000000000E+00  0.00000000000E+00 -0.18325833967E+03  0.22183083217E+03  0.12500119615E+03 0.  0.
    9000005    1    3    3    0    0  0.19744984249E+02  0.34072769080E+02 -0.17773998704E+03  0.18205307190E+03  0.10000000000E+01 0.  0.
    9000005    1    3    3    0    0 -0.19744984249E+02 -0.34072769080E+02 -0.55183526321E+01  0.39777760263E+02  0.10000000000E+01 0.  0.
<mgrwt>
<rscale>  0 0.12500120E+03</rscale>
<asrwt>0</asrwt>
<pdfrwt beam="2">  1        4 0.31160704E-01 0.12500120E+03</pdfrwt>
<pdfrwt beam="1">  1       -4 0.29671149E-02 0.12500120E+03</pdfrwt>
<totfact> 0.86577159E+03</totfact>
</mgrwt>
</event>
<event>
 5    1  0.3206158E-002  0.1249999E+03  0.7818608E-02  0.1235069E+00
         -4   -1    0    0    0  501 -0.00000000000E+00  0.00000000000E+00  0.28260310306E+02  0.28288832400E+02  0.12700000000E+01 0. -1.
          4   -1    0    0  501    0  0.00000000000E+00 -0.00000000000E+00 -0.13812256398E+03  0.13812840251E+03  0.12700000000E+01 0. -1.
         25    2    1    2    0    0  0.00000000000E+00  0.00000000000E+00 -0.10986225368E+03  0.16641723491E+03  0.12499992517E+03 0.  0.
    9000005    1    3    3    0    0 -0.59192009964E+02 -0.64011586076E+01 -0.80211718104E+02  0.99897890850E+02  0.10000000000E+01 0.  0.
    9000005    1    3    3    0    0  0.59192009964E+02  0.64011586076E+01 -0.29650535573E+02  0.66519344065E+02  0.10000000000E+01 0.  0.
<mgrwt>
<rscale>  0 0.12499993E+03</rscale>
<asrwt>0</asrwt>
<pdfrwt beam="2">  1        4 0.21252268E-01 0.12499993E+03</pdfrwt>
<pdfrwt beam="1">  1       -4 0.43503833E-02 0.12499993E+03</pdfrwt>
<totfact> 0.96119824E+03</totfact>
</mgrwt>
</event>
<event>
 5    1  0.3206158E-002  0.1250000E+03  0.7818608E-02  0.1235069E+00
         -4   -1    0    0    0  501 -0.00000000000E+00  0.00000000000E+00  0.11370812952E+04  0.11370820044E+04  0.12700000000E+01 0.  1.
          4   -1    0    0  501    0  0.00000000000E+00 -0.00000000000E+00 -0.33172190714E+01  0.35520194774E+01  0.12700000000E+01 0.  1.
         25    2    1    2    0    0  0.00000000000E+00  0.00000000000E+00  0.11337640761E+04  0.11406340239E+04  0.12499998468E+03 0.  0.
    9000005    1    3    3    0    0  0.44789438355E+02  0.40055837387E+02  0.41023741768E+03  0.41461584963E+03  0.10000000000E+01 0.  0.
    9000005    1    3    3    0    0 -0.44789438355E+02 -0.40055837387E+02  0.72352665841E+03  0.72601817424E+03  0.10000000000E+01 0.  0.
<mgrwt>
<rscale>  0 0.12499998E+03</rscale>
<asrwt>0</asrwt>
<pdfrwt beam="2">  1        4 0.52845674E-03 0.12499998E+03</pdfrwt>
<pdfrwt beam="1">  1       -4 0.17495396E+00 0.12499998E+03</pdfrwt>
<totfact> 0.26321500E+03</totfact>
</mgrwt>
</event>
<event>
 5    1  0.3206158E-002  0.1250009E+03  0.7818608E-02  0.1235068E+00
         -4   -1    0    0    0  501 -0.00000000000E+00  0.00000000000E+00  0.40649851910E+02  0.40669686012E+02  0.12700000000E+01 0. -1.
          4   -1    0    0  501    0  0.00000000000E+00 -0.00000000000E+00 -0.96048940514E+02  0.96057336388E+02  0.12700000000E+01 0. -1.
         25    2    1    2    0    0  0.00000000000E+00  0.00000000000E+00 -0.55399088604E+02  0.13672702240E+03  0.12500087854E+03 0.  0.
    9000005    1    3    3    0    0 -0.25878389074E+02  0.10270371199E+02 -0.88895498571E+02  0.93158903020E+02  0.10000000000E+01 0.  0.
    9000005    1    3    3    0    0  0.25878389074E+02 -0.10270371199E+02  0.33496409966E+02  0.43568119380E+02  0.10000000000E+01 0.  0.
<mgrwt>
<rscale>  0 0.12500088E+03</rscale>
<asrwt>0</asrwt>
<pdfrwt beam="2">  1        4 0.14778932E-01 0.12500088E+03</pdfrwt>
<pdfrwt beam="1">  1       -4 0.62559949E-02 0.12500088E+03</pdfrwt>
<totfact> 0.10201594E+04</totfact>
</mgrwt>
</event>
<event>
 5    1  0.3206158E-002  0.1250007E+03  0.7818608E-02  0.1235068E+00
          4   -1    0    0  501    0  0.00000000000E+00  0.00000000000E+00  0.37433970477E+02  0.37455507548E+02  0.12700000000E+01 0.  1.
         -4   -1    0    0    0  501 -0.00000000000E+00 -0.00000000000E+00 -0.10429618214E+03  0.10430391416E+03  0.12700000000E+01 0.  1.
         25    2    1    2    0    0  0.00000000000E+00  0.00000000000E+00 -0.66862211660E+02  0.14175942170E+03  0.12500071317E+03 0.  0.
    9000005    1    3    3    0    0 -0.30700510568E+02 -0.33964472356E+02  0.14806003285E+02  0.48128208619E+02  0.10000000000E+01 0.  0.
    9000005    1    3    3    0    0  0.30700510568E+02  0.33964472356E+02 -0.81668214946E+02  0.93631213086E+02  0.10000000000E+01 0.  0.
<mgrwt>
<rscale>  0 0.12500071E+03</rscale>
<asrwt>0</asrwt>
<pdfrwt beam="1">  1        4 0.57613239E-02 0.12500071E+03</pdfrwt>
<pdfrwt beam="2">  1       -4 0.16047818E-01 0.12500071E+03</pdfrwt>
<totfact> 0.10097088E+04</totfact>
</mgrwt>
</event>
<event>
 5    1  0.3206158E-002  0.1250035E+03  0.7818608E-02  0.1235064E+00
         -4   -1    0    0    0  501 -0.00000000000E+00  0.00000000000E+00  0.80372114187E+03  0.80372214526E+03  0.12700000000E+01 0. -1.
          4   -1    0    0  501    0  0.00000000000E+00 -0.00000000000E+00 -0.47764926881E+01  0.49424470052E+01  0.12700000000E+01 0. -1.
         25    2    1    2    0    0  0.00000000000E+00  0.00000000000E+00  0.79894464918E+03  0.80866459227E+03  0.12500348129E+03 0.  0.
    9000005    1    3    3    0    0  0.34493948437E+02  0.30297134242E+02  0.67376056921E+03  0.67532366569E+03  0.10000000000E+01 0.  0.
    9000005    1    3    3    0    0 -0.34493948437E+02 -0.30297134242E+02  0.12518407997E+03  0.13334092657E+03  0.10000000000E+01 0.  0.
<mgrwt>
<rscale>  0 0.12500348E+03</rscale>
<asrwt>0</asrwt>
<pdfrwt beam="2">  1        4 0.74768830E-03 0.12500348E+03</pdfrwt>
<pdfrwt beam="1">  1       -4 0.12366219E+00 0.12500348E+03</pdfrwt>
<totfact> 0.37877967E+03</totfact>
</mgrwt>
</event>
<event>
 5    1  0.3206158E-002  0.1249968E+03  0.7818608E-02  0.1235074E+00
          4   -1    0    0  501    0  0.00000000000E+00  0.00000000000E+00  0.94666784429E+03  0.94666869617E+03  0.12700000000E+01 0. -1.
         -4   -1    0    0    0  501 -0.00000000000E+00 -0.00000000000E+00 -0.40275039757E+01  0.42229951781E+01  0.12700000000E+01 0. -1.
         25    2    1    2    0    0  0.00000000000E+00  0.00000000000E+00  0.94264034032E+03  0.95089169135E+03  0.12499678992E+03 0.  0.
    9000005    1    3    3    0    0 -0.24693259207E+02 -0.54326864666E+02  0.61239133085E+03  0.61529286309E+03  0.10000000000E+01 0.  0.
    9000005    1    3    3    0    0  0.24693259207E+02  0.54326864666E+02  0.33024900947E+03  0.33559882826E+03  0.10000000000E+01 0.  0.
<mgrwt>
<rscale>  0 0.12499679E+03</rscale>
<asrwt>0</asrwt>
<pdfrwt beam="1">  1        4 0.14565623E+00 0.12499679E+03</pdfrwt>
<pdfrwt beam="2">  1       -4 0.63471966E-03 0.12499679E+03</pdfrwt>
<totfact> 0.32286611E+03</totfact>
</mgrwt>
</event>
<event>
 5    1  0.3206158E-002  0.1249989E+03  0.7818608E-02  0.1235071E+00
          4   -1    0    0  501    0  0.00000000000E+00  0.00000000000E+00  0.58000765304E+03  0.58000904345E+03  0.12700000000E+01 0.  1.
         -4   -1    0    0    0  501 -0.00000000000E+00 -0.00000000000E+00 -0.66734228326E+01  0.67931930859E+01  0.12700000000E+01 0.  1.
         25    2    1    2    0    0  0.00000000000E+00  0.00000000000E+00  0.57333423021E+03  0.58680223654E+03  0.12499890110E+03 0.  0.
    9000005    1    3    3    0    0  0.14462874733E+02 -0.46908254586E+02  0.46821722685E+03  0.47078437804E+03  0.10000000000E+01 0.  0.
    9000005    1    3    3    0    0 -0.14462874733E+02  0.46908254586E+02  0.10511700336E+03  0.11601785849E+03  0.10000000000E+01 0.  0.
<mgrwt>
<rscale>  0 0.12499890E+03</rscale>
<asrwt>0</asrwt>
<pdfrwt beam="1">  1        4 0.89241279E-01 0.12499890E+03</pdfrwt>
<pdfrwt beam="2">  1       -4 0.10360003E-02 0.12499890E+03</pdfrwt>
<totfact> 0.49712624E+03</totfact>
</mgrwt>
</event>
<event>
 5    1  0.3206158E-002  0.1249996E+03  0.7818608E-02  0.1235070E+00
          4   -1    0    0  501    0  0.00000000000E+00  0.00000000000E+00  0.35533736107E+02  0.35556424197E+02  0.12700000000E+01 0. -1.
         -4   -1    0    0    0  501 -0.00000000000E+00 -0.00000000000E+00 -0.10986864766E+03  0.10987598754E+03  0.12700000000E+01 0. -1.
         25    2    1    2    0    0  0.00000000000E+00  0.00000000000E+00 -0.74334911554E+02  0.14543241174E+03  0.12499962924E+03 0.  0.
    9000005    1    3    3    0    0  0.48710866046E+02  0.27442316792E+02 -0.46862595682E+01  0.56114082462E+02  0.10000000000E+01 0.  0.
    9000005    1    3    3    0    0 -0.48710866046E+02 -0.27442316792E+02 -0.69648651986E+02  0.89318329280E+02  0.10000000000E+01 0.  0.
<mgrwt>
<rscale>  0 0.12499963E+03</rscale>
<asrwt>0</asrwt>
<pdfrwt beam="1">  1        4 0.54690385E-02 0.12499963E+03</pdfrwt>
<pdfrwt beam="2">  1       -4 0.16905179E-01 0.12499963E+03</pdfrwt>
<totfact> 0.10022294E+04</totfact>
</mgrwt>
</event>
<event>
 5    1  0.3206158E-002  0.1249991E+03  0.7818608E-02  0.1235071E+00
          4   -1    0    0  501    0  0.00000000000E+00  0.00000000000E+00  0.18682590550E+04  0.18682594867E+04  0.12700000000E+01 0.  1.
         -4   -1    0    0    0  501 -0.00000000000E+00 -0.00000000000E+00 -0.18974920074E+01  0.22832818307E+01  0.12700000000E+01 0.  1.
         25    2    1    2    0    0  0.00000000000E+00  0.00000000000E+00  0.18663615630E+04  0.18705427685E+04  0.12499905972E+03 0.  0.
    9000005    1    3    3    0    0 -0.40430333003E+02  0.42377609737E+02  0.12592265457E+04  0.12605883417E+04  0.10000000000E+01 0.  0.
    9000005    1    3    3    0    0  0.40430333003E+02 -0.42377609737E+02  0.60713501727E+03  0.60995442684E+03  0.10000000000E+01 0.  0.
<mgrwt>
<rscale>  0 0.12499906E+03</rscale>
<asrwt>0</asrwt>
<pdfrwt beam="1">  1        4 0.28745590E+00 0.12499906E+03</pdfrwt>
<pdfrwt beam="2">  1       -4 0.32162927E-03 0.12499906E+03</pdfrwt>
<totfact> 0.11647168E+03</totfact>
</mgrwt>
</event>
<event>
 5    1  0.3206158E-002  0.1249971E+03  0.7818608E-02  0.1235074E+00
          4   -1    0    0  501    0  0.00000000000E+00  0.00000000000E+00  0.13348425353E+02  0.13408704613E+02  0.12700000000E+01 0. -1.
         -4   -1    0    0    0  501 -0.00000000000E+00 -0.00000000000E+00 -0.29190301751E+03  0.29190578023E+03  0.12700000000E+01 0. -1.
         25    2    1    2    0    0  0.00000000000E+00  0.00000000000E+00 -0.27855459216E+03  0.30531448484E+03  0.12499709534E+03 0.  0.
    9000005    1    3    3    0    0 -0.50884508250E+02  0.35355419451E+02 -0.15909521667E+03  0.17073818212E+03  0.10000000000E+01 0.  0.
    9000005    1    3    3    0    0  0.50884508250E+02 -0.35355419451E+02 -0.11945937548E+03  0.13457630273E+03  0.10000000000E+01 0.  0.
<mgrwt>
<rscale>  0 0.12499710E+03</rscale>
<asrwt>0</asrwt>
<pdfrwt beam="1">  1        4 0.20584535E-02 0.12499710E+03</pdfrwt>
<pdfrwt beam="2">  1       -4 0.44913001E-01 0.12499710E+03</pdfrwt>
<totfact> 0.74941831E+03</totfact>
</mgrwt>
</event>
<event>
 5    1  0.3206158E-002  0.1249983E+03  0.7818608E-02  0.1235072E+00
          4   -1    0    0  501    0  0.00000000000E+00  0.00000000000E+00  0.59768923282E+01  0.61103307523E+01  0.12700000000E+01 0. -1.
         -4   -1    0    0    0  501 -0.00000000000E+00 -0.00000000000E+00 -0.64619164397E+03  0.64619289198E+03  0.12700000000E+01 0. -1.
         25    2    1    2    0    0  0.00000000000E+00  0.00000000000E+00 -0.64021475165E+03  0.65230322273E+03  0.12499826462E+03 0.  0.
    9000005    1    3    3    0    0  0.41082593380E+02 -0.14229296731E+02 -0.55435280344E+03  0.55605600711E+03  0.10000000000E+01 0.  0.
    9000005    1    3    3    0    0 -0.41082593380E+02  0.14229296731E+02 -0.85861948207E+02  0.96247215618E+02  0.10000000000E+01 0.  0.
<mgrwt>
<rscale>  0 0.12499826E+03</rscale>
<asrwt>0</asrwt>
<pdfrwt beam="1">  1        4 0.92988290E-03 0.12499826E+03</pdfrwt>
<pdfrwt beam="2">  1       -4 0.99424405E-01 0.12499826E+03</pdfrwt>
<totfact> 0.45725743E+03</totfact>
</mgrwt>
</event>
<event>
 5    1  0.3206158E-002  0.1250001E+03  0.7818608E-02  0.1235069E+00
         -4   -1    0    0    0  501 -0.00000000000E+00  0.00000000000E+00  0.28081491047E+02  0.28110194582E+02  0.12700000000E+01 0. -1.
          4   -1    0    0  501    0  0.00000000000E+00 -0.00000000000E+00 -0.13900168409E+03  0.13900748570E+03  0.12700000000E+01 0. -1.
         25    2    1    2    0    0  0.00000000000E+00  0.00000000000E+00 -0.11092019305E+03  0.16711768028E+03  0.12500011935E+03 0.  0.
    9000005    1    3    3    0    0 -0.99677416553E+01 -0.61381153911E+02 -0.47190980520E+02  0.78070420593E+02  0.10000000000E+01 0.  0.
    9000005    1    3    3    0    0  0.99677416553E+01  0.61381153911E+02 -0.63729212528E+02  0.89047259691E+02  0.10000000000E+01 0.  0.
<mgrwt>
<rscale>  0 0.12500012E+03</rscale>
<asrwt>0</asrwt>
<pdfrwt beam="2">  1        4 0.21387528E-01 0.12500012E+03</pdfrwt>
<pdfrwt beam="1">  1       -4 0.43228837E-02 0.12500012E+03</pdfrwt>
<totfact> 0.95987577E+03</totfact>
</mgrwt>
</event>
<event>
 5    1  0.3206158E-002  0.1250038E+03  0.7818608E-02  0.1235063E+00
          4   -1    0    0  501    0  0.00000000000E+00  0.00000000000E+00  0.24264180590E+03  0.24264512950E+03  0.12700000000E+01 0. -1.
         -4   -1    0    0    0  501 -0.00000000000E+00 -0.00000000000E+00 -0.16071338625E+02  0.16121439924E+02  0.12700000000E+01 0. -1.
         25    2    1    2    0    0  0.00000000000E+00  0.00000000000E+00  0.22657046727E+03  0.25876656942E+03  0.12500384318E+03 0.  0.
    9000005    1    3    3    0    0  0.25969948234E+02 -0.19509780699E+02  0.22380482368E+03  0.22615187122E+03  0.10000000000E+01 0.  0.
    9000005    1    3    3    0    0 -0.25969948234E+02  0.19509780699E+02  0.27656435910E+01  0.32614698200E+02  0.10000000000E+01 0.  0.
<mgrwt>
<rscale>  0 0.12500384E+03</rscale>
<asrwt>0</asrwt>
<pdfrwt beam="1">  1        4 0.37333616E-01 0.12500384E+03</pdfrwt>
<pdfrwt beam="2">  1       -4 0.24766234E-02 0.12500384E+03</pdfrwt>
<totfact> 0.81072531E+03</totfact>
</mgrwt>
</event>
<event>
 5    1  0.3206158E-002  0.1250006E+03  0.7818608E-02  0.1235068E+00
          4   -1    0    0  501    0  0.00000000000E+00  0.00000000000E+00  0.79595465762E+01  0.80602283900E+01  0.12700000000E+01 0. -1.
         -4   -1    0    0    0  501 -0.00000000000E+00 -0.00000000000E+00 -0.48758156744E+03  0.48758322142E+03  0.12700000000E+01 0. -1.
         25    2    1    2    0    0  0.00000000000E+00  0.00000000000E+00 -0.47962202087E+03  0.49564344981E+03  0.12500058576E+03 0.  0.
    9000005    1    3    3    0    0 -0.14221797369E+02 -0.42366175408E+02 -0.41301655441E+03  0.41542848549E+03  0.10000000000E+01 0.  0.
    9000005    1    3    3    0    0  0.14221797369E+02  0.42366175408E+02 -0.66605466457E+02  0.80214964321E+02  0.10000000000E+01 0.  0.
<mgrwt>
<rscale>  0 0.12500059E+03</rscale>
<asrwt>0</asrwt>
<pdfrwt beam="1">  1        4 0.12324180E-02 0.12500059E+03</pdfrwt>
<pdfrwt beam="2">  1       -4 0.75020398E-01 0.12500059E+03</pdfrwt>
<totfact> 0.56203259E+03</totfact>
</mgrwt>
</event>
<event>
 5    1  0.3206158E-002  0.1249997E+03  0.7818608E-02  0.1235070E+00
          4   -1    0    0  501    0  0.00000000000E+00  0.00000000000E+00  0.11470155375E+02  0.11540249751E+02  0.12700000000E+01 0.  1.
         -4   -1    0    0    0  501 -0.00000000000E+00 -0.00000000000E+00 -0.33944742323E+03  0.33944979899E+03  0.12700000000E+01 0.  1.
         25    2    1    2    0    0  0.00000000000E+00  0.00000000000E+00 -0.32797726785E+03  0.35099004874E+03  0.12499970435E+03 0.  0.
    9000005    1    3    3    0    0  0.44555141183E+02  0.40027691653E+02 -0.11392755371E+03  0.12871621576E+03  0.10000000000E+01 0.  0.
    9000005    1    3    3    0    0 -0.44555141183E+02 -0.40027691653E+02 -0.21404971414E+03  0.22227383298E+03  0.10000000000E+01 0.  0.
<mgrwt>
<rscale>  0 0.12499970E+03</rscale>
<asrwt>0</asrwt>
<pdfrwt beam="1">  1        4 0.17702142E-02 0.12499970E+03</pdfrwt>
<pdfrwt beam="2">  1       -4 0.52228248E-01 0.12499970E+03</pdfrwt>
<totfact> 0.69616234E+03</totfact>
</mgrwt>
</event>
<event>
 5    1  0.3206158E-002  0.1249987E+03  0.7818608E-02  0.1235071E+00
          4   -1    0    0  501    0  0.00000000000E+00  0.00000000000E+00  0.31928878750E+03  0.31929131326E+03  0.12700000000E+01 0.  1.
         -4   -1    0    0    0  501 -0.00000000000E+00 -0.00000000000E+00 -0.12198436564E+02  0.12264369311E+02  0.12700000000E+01 0.  1.
         25    2    1    2    0    0  0.00000000000E+00  0.00000000000E+00  0.30709035094E+03  0.33155568257E+03  0.12499874802E+03 0.  0.
    9000005    1    3    3    0    0  0.33323093616E+01  0.57355726869E+02  0.88335993655E+02  0.10538041310E+03  0.10000000000E+01 0.  0.
    9000005    1    3    3    0    0 -0.33323093616E+01 -0.57355726869E+02  0.21875435728E+03  0.22617526947E+03  0.10000000000E+01 0.  0.
<mgrwt>
<rscale>  0 0.12499875E+03</rscale>
<asrwt>0</asrwt>
<pdfrwt beam="1">  1        4 0.49126623E-01 0.12499875E+03</pdfrwt>
<pdfrwt beam="2">  1       -4 0.18819484E-02 0.12499875E+03</pdfrwt>
<totfact> 0.71804472E+03</totfact>
</mgrwt>
</event>
<event>
 5    1  0.3206158E-002  0.1249973E+03  0.7818608E-02  0.1235073E+00
          4   -1    0    0  501    0  0.00000000000E+00  0.00000000000E+00  0.52591314340E+02  0.52606646386E+02  0.12700000000E+01 0. -1.
         -4   -1    0    0    0  501 -0.00000000000E+00 -0.00000000000E+00 -0.74240792076E+02  0.74251653908E+02  0.12700000000E+01 0. -1.
         25    2    1    2    0    0  0.00000000000E+00  0.00000000000E+00 -0.21649477737E+02  0.12685830029E+03  0.12499731384E+03 0.  0.
    9000005    1    3    3    0    0 -0.24238410661E+02  0.55627215388E+02 -0.25986858764E+02  0.66016698430E+02  0.10000000000E+01 0.  0.
    9000005    1    3    3    0    0  0.24238410661E+02 -0.55627215388E+02  0.43373810280E+01  0.60841601864E+02  0.10000000000E+01 0.  0.
<mgrwt>
<rscale>  0 0.12499731E+03</rscale>
<asrwt>0</asrwt>
<pdfrwt beam="1">  1        4 0.80929864E-02 0.12499731E+03</pdfrwt>
<pdfrwt beam="2">  1       -4 0.11423675E-01 0.12499731E+03</pdfrwt>
<totfact> 0.10412857E+04</totfact>
</mgrwt>
</event>
<event>
 5    1  0.3206158E-002  0.1250008E+03  0.7818608E-02  0.1235068E+00
          4   -1    0    0  501    0  0.00000000000E+00  0.00000000000E+00  0.19269990656E+02  0.19311795356E+02  0.12700000000E+01 0. -1.
         -4   -1    0    0    0  501 -0.00000000000E+00 -0.00000000000E+00 -0.20245076462E+03  0.20245474802E+03  0.12700000000E+01 0. -1.
         25    2    1    2    0    0  0.00000000000E+00  0.00000000000E+00 -0.18318077397E+03  0.22176654338E+03  0.12500081524E+03 0.  0.
    9000005    1    3    3    0    0 -0.27744401375E+02 -0.38963826298E+02 -0.20241403353E+02  0.51948493502E+02  0.10000000000E+01 0.  0.
    9000005    1    3    3    0    0  0.27744401375E+02  0.38963826298E+02 -0.16293937061E+03  0.16981804987E+03  0.10000000000E+01 0.  0.
<mgrwt>
<rscale>  0 0.12500082E+03</rscale>
<asrwt>0</asrwt>
<pdfrwt beam="1">  1        4 0.29681362E-02 0.12500082E+03</pdfrwt>
<pdfrwt beam="2">  1       -4 0.31149792E-01 0.12500082E+03</pdfrwt>
<totfact> 0.86588011E+03</totfact>
</mgrwt>
</event>
<event>
 5    1  0.3206158E-002  0.1249997E+03  0.7818608E-02  0.1235070E+00
          4   -1    0    0  501    0  0.00000000000E+00  0.00000000000E+00  0.23493592592E+02  0.23527893933E+02  0.12700000000E+01 0.  1.
         -4   -1    0    0    0  501 -0.00000000000E+00 -0.00000000000E+00 -0.16610983594E+03  0.16611469079E+03  0.12700000000E+01 0.  1.
         25    2    1    2    0    0  0.00000000000E+00  0.00000000000E+00 -0.14261624335E+03  0.18964258472E+03  0.12499966829E+03 0.  0.
    9000005    1    3    3    0    0 -0.40343356032E+02 -0.10619923833E+01  0.10791602571E+01  0.40384140335E+02  0.10000000000E+01 0.  0.
    9000005    1    3    3    0    0  0.40343356032E+02  0.10619923833E+01 -0.14369540360E+03  0.14925844439E+03  0.10000000000E+01 0.  0.
<mgrwt>
<rscale>  0 0.12499967E+03</rscale>
<asrwt>0</asrwt>
<pdfrwt beam="1">  1        4 0.36174110E-02 0.12499967E+03</pdfrwt>
<pdfrwt beam="2">  1       -4 0.25558371E-01 0.12499967E+03</pdfrwt>
<totfact> 0.91910224E+03</totfact>
</mgrwt>
</event>
<event>
 5    1  0.3206158E-002  0.1250005E+03  0.7818608E-02  0.1235069E+00
         -4   -1    0    0    0  501 -0.00000000000E+00  0.00000000000E+00  0.38779960503E+02  0.38800750464E+02  0.12700000000E+01 0.  1.
          4   -1    0    0  501    0  0.00000000000E+00 -0.00000000000E+00 -0.10067758718E+03  0.10068559708E+03  0.12700000000E+01 0.  1.
         25    2    1    2    0    0  0.00000000000E+00  0.00000000000E+00 -0.61897626673E+02  0.13948634755E+03  0.12500049985E+03 0.  0.
    9000005    1    3    3    0    0 -0.28814430282E+02 -0.46787179677E+02  0.22658136235E+01  0.55004049723E+02  0.10000000000E+01 0.  0.
    9000005    1    3    3    0    0  0.28814430282E+02  0.46787179677E+02 -0.64163440297E+02  0.84482297822E+02  0.10000000000E+01 0.  0.
<mgrwt>
<rscale>  0 0.12500050E+03</rscale>
<asrwt>0</asrwt>
<pdfrwt beam="2">  1        4 0.15491075E-01 0.12500050E+03</pdfrwt>
<pdfrwt beam="1">  1       -4 0.59683632E-02 0.12500050E+03</pdfrwt>
<totfact> 0.10144128E+04</totfact>
</mgrwt>
</event>
<event>
 5    1  0.3206158E-002  0.1249935E+03  0.7818608E-02  0.1235079E+00
         -4   -1    0    0    0  501 -0.00000000000E+00  0.00000000000E+00  0.89547505651E+02  0.89556511032E+02  0.12700000000E+01 0.  1.
          4   -1    0    0  501    0  0.00000000000E+00 -0.00000000000E+00 -0.43597134247E+02  0.43615628100E+02  0.12700000000E+01 0.  1.
         25    2    1    2    0    0  0.00000000000E+00  0.00000000000E+00  0.45950371404E+02  0.13317213913E+03  0.12499352787E+03 0.  0.
    9000005    1    3    3    0    0 -0.30612635541E+02 -0.46821664217E+02 -0.66936850026E+01  0.56348976155E+02  0.10000000000E+01 0.  0.
    9000005    1    3    3    0    0  0.30612635541E+02  0.46821664217E+02  0.52644056406E+02  0.76823162977E+02  0.10000000000E+01 0.  0.
<mgrwt>
<rscale>  0 0.12499353E+03</rscale>
<asrwt>0</asrwt>
<pdfrwt beam="2">  1        4 0.67093668E-02 0.12499353E+03</pdfrwt>
<pdfrwt beam="1">  1       -4 0.13778655E-01 0.12499353E+03</pdfrwt>
<totfact> 0.10278243E+04</totfact>
</mgrwt>
</event>
<event>
 5    1  0.3206158E-002  0.1249999E+03  0.7818608E-02  0.1235069E+00
          4   -1    0    0  501    0  0.00000000000E+00  0.00000000000E+00  0.93569921066E+03  0.93570007253E+03  0.12700000000E+01 0.  1.
         -4   -1    0    0    0  501 -0.00000000000E+00 -0.00000000000E+00 -0.40772052115E+01  0.42704217985E+01  0.12700000000E+01 0.  1.
         25    2    1    2    0    0  0.00000000000E+00  0.00000000000E+00  0.93162200545E+03  0.93997049433E+03  0.12499987668E+03 0.  0.
    9000005    1    3    3    0    0 -0.35693216724E+02  0.11658895847E+02  0.90175523781E+02  0.97686031047E+02  0.10000000000E+01 0.  0.
    9000005    1    3    3    0    0  0.35693216724E+02 -0.11658895847E+02  0.84144648167E+03  0.84228446328E+03  0.10000000000E+01 0.  0.
<mgrwt>
<rscale>  0 0.12499988E+03</rscale>
<asrwt>0</asrwt>
<pdfrwt beam="1">  1        4 0.14396872E+00 0.12499988E+03</pdfrwt>
<pdfrwt beam="2">  1       -4 0.64219118E-03 0.12499988E+03</pdfrwt>
<totfact> 0.32674830E+03</totfact>
</mgrwt>
</event>
<event>
 5    1  0.3206158E-002  0.1250022E+03  0.7818608E-02  0.1235066E+00
          4   -1    0    0  501    0  0.00000000000E+00  0.00000000000E+00  0.14318687636E+02  0.14374898804E+02  0.12700000000E+01 0. -1.
         -4   -1    0    0    0  501 -0.00000000000E+00 -0.00000000000E+00 -0.27222522574E+03  0.27222818817E+03  0.12700000000E+01 0. -1.
         25    2    1    2    0    0  0.00000000000E+00  0.00000000000E+00 -0.25790653811E+03  0.28660308697E+03  0.12500218822E+03 0.  0.
    9000005    1    3    3    0    0 -0.22090731260E+02 -0.27908904542E+02 -0.11181797257E+02  0.37322110742E+02  0.10000000000E+01 0.  0.
    9000005    1    3    3    0    0  0.22090731260E+02  0.27908904542E+02 -0.24672474085E+03  0.24928097623E+03  0.10000000000E+01 0.  0.
<mgrwt>
<rscale>  0 0.12500219E+03</rscale>
<asrwt>0</asrwt>
<pdfrwt beam="1">  1        4 0.22074270E-02 0.12500219E+03</pdfrwt>
<pdfrwt beam="2">  1       -4 0.41885352E-01 0.12500219E+03</pdfrwt>
<totfact> 0.77306895E+03</totfact>
</mgrwt>
</event>
<event>
 5    1  0.3206158E-002  0.1249958E+03  0.7818608E-02  0.1235076E+00
         -4   -1    0    0    0  501 -0.00000000000E+00  0.00000000000E+00  0.20891534404E+03  0.20891920418E+03  0.12700000000E+01 0. -1.
          4   -1    0    0  501    0  0.00000000000E+00 -0.00000000000E+00 -0.18670914811E+02  0.18714057815E+02  0.12700000000E+01 0. -1.
         25    2    1    2    0    0  0.00000000000E+00  0.00000000000E+00  0.19024442923E+03  0.22763326200E+03  0.12499583639E+03 0.  0.
    9000005    1    3    3    0    0  0.27481828300E+02  0.31969157190E+02  0.17912556045E+03  0.18402240164E+03  0.10000000000E+01 0.  0.
    9000005    1    3    3    0    0 -0.27481828300E+02 -0.31969157190E+02  0.11118868778E+02  0.43610860357E+02  0.10000000000E+01 0.  0.
<mgrwt>
<rscale>  0 0.12499584E+03</rscale>
<asrwt>0</asrwt>
<pdfrwt beam="2">  1        4 0.28760642E-02 0.12499584E+03</pdfrwt>
<pdfrwt beam="1">  1       -4 0.32144436E-01 0.12499584E+03</pdfrwt>
<totfact> 0.85682303E+03</totfact>
</mgrwt>
</event>
<event>
 4    1  0.3206158E-002  0.1252457E+03  0.7818608E-02  0.1234686E+00
         -4   -1    0    0    0  501 -0.00000000000E+00  0.00000000000E+00  0.23812224644E+03  0.23812563312E+03  0.12700000000E+01 0.  1.
          4   -1    0    0  501    0  0.00000000000E+00 -0.00000000000E+00 -0.16440946418E+02  0.16489924776E+02  0.12700000000E+01 0.  1.
    9000005    1    1    2    0    0 -0.31648055777E+02 -0.53104241565E+02  0.90617251953E+02  0.10970025642E+03  0.10000000000E+01 0.  0.
    9000005    1    1    2    0    0  0.31648055777E+02  0.53104241565E+02  0.13106404807E+03  0.14491530148E+03  0.10000000000E+01 0.  0.
<mgrwt>
<rscale>  0 0.12524569E+03</rscale>
<asrwt>0</asrwt>
<pdfrwt beam="2">  1        4 0.25334047E-02 0.12524569E+03</pdfrwt>
<pdfrwt beam="1">  1       -4 0.36638216E-01 0.12524569E+03</pdfrwt>
<totfact> 0.81222463E+03</totfact>
</mgrwt>
</event>
<event>
 5    1  0.3206158E-002  0.1250000E+03  0.7818608E-02  0.1235069E+00
          4   -1    0    0  501    0  0.00000000000E+00  0.00000000000E+00  0.51839271081E+02  0.51854825486E+02  0.12700000000E+01 0. -1.
         -4   -1    0    0    0  501 -0.00000000000E+00 -0.00000000000E+00 -0.75320838721E+02  0.75331544824E+02  0.12700000000E+01 0. -1.
         25    2    1    2    0    0  0.00000000000E+00  0.00000000000E+00 -0.23481567640E+02  0.12718637031E+03  0.12499995510E+03 0.  0.
    9000005    1    3    3    0    0  0.90453901982E+00 -0.37775365711E+02 -0.62385393828E+02  0.72943360277E+02  0.10000000000E+01 0.  0.
    9000005    1    3    3    0    0 -0.90453901982E+00  0.37775365711E+02  0.38903826188E+02  0.54243010033E+02  0.10000000000E+01 0.  0.
<mgrwt>
<rscale>  0 0.12499996E+03</rscale>
<asrwt>0</asrwt>
<pdfrwt beam="1">  1        4 0.79772925E-02 0.12499996E+03</pdfrwt>
<pdfrwt beam="2">  1       -4 0.11589841E-01 0.12499996E+03</pdfrwt>
<totfact> 0.10405110E+04</totfact>
</mgrwt>
</event>
<event>
 5    1  0.3206158E-002  0.1249989E+03  0.7818608E-02  0.1235071E+00
          4   -1    0    0  501    0  0.00000000000E+00  0.00000000000E+00  0.21524430855E+03  0.21524805519E+03  0.12700000000E+01 0.  1.
         -4   -1    0    0    0  501 -0.00000000000E+00 -0.00000000000E+00 -0.18121525638E+02  0.18165973452E+02  0.12700000000E+01 0.  1.
         25    2    1    2    0    0  0.00000000000E+00  0.00000000000E+00  0.19712278292E+03  0.23341402865E+03  0.12499886889E+03 0.  0.
    9000005    1    3    3    0    0 -0.22259237069E+02 -0.40166000629E+01  0.20734148886E+03  0.20857396701E+03  0.10000000000E+01 0.  0.
    9000005    1    3    3    0    0  0.22259237069E+02  0.40166000629E+01 -0.10218705944E+02  0.24840061637E+02  0.10000000000E+01 0.  0.
<mgrwt>
<rscale>  0 0.12499887E+03</rscale>
<asrwt>0</asrwt>
<pdfrwt beam="1">  1        4 0.33118216E-01 0.12499887E+03</pdfrwt>
<pdfrwt beam="2">  1       -4 0.27916343E-02 0.12499887E+03</pdfrwt>
<totfact> 0.84790251E+03</totfact>
</mgrwt>
</event>
<event>
 5    1  0.3206158E-002  0.1249957E+03  0.7818608E-02  0.1235076E+00
          4   -1    0    0  501    0  0.00000000000E+00  0.00000000000E+00  0.14165335858E+03  0.14165905159E+03  0.12700000000E+01 0.  1.
         -4   -1    0    0    0  501 -0.00000000000E+00 -0.00000000000E+00 -0.27553356332E+02  0.27582609470E+02  0.12700000000E+01 0.  1.
         25    2    1    2    0    0  0.00000000000E+00  0.00000000000E+00  0.11410000225E+03  0.16924166106E+03  0.12499571723E+03 0.  0.
    9000005    1    3    3    0    0 -0.37778179539E+02 -0.30433332683E+02  0.11038380452E+03  0.12057762184E+03  0.10000000000E+01 0.  0.
    9000005    1    3    3    0    0  0.37778179539E+02  0.30433332683E+02  0.37161977238E+01  0.48664039218E+02  0.10000000000E+01 0.  0.
<mgrwt>
<rscale>  0 0.12499572E+03</rscale>
<asrwt>0</asrwt>
<pdfrwt beam="1">  1        4 0.21795512E-01 0.12499572E+03</pdfrwt>
<pdfrwt beam="2">  1       -4 0.42416662E-02 0.12499572E+03</pdfrwt>
<totfact> 0.95599258E+03</totfact>
</mgrwt>
</event>
<event>
 5    1  0.3206158E-002  0.1249998E+03  0.7818608E-02  0.1235070E+00
          4   -1    0    0  501    0  0.00000000000E+00  0.00000000000E+00  0.21805239143E+03  0.21805608982E+03  0.12700000000E+01 0. -1.
         -4   -1    0    0    0  501 -0.00000000000E+00 -0.00000000000E+00 -0.17887850139E+02  0.17932877142E+02  0.12700000000E+01 0. -1.
         25    2    1    2    0    0  0.00000000000E+00  0.00000000000E+00  0.20016454129E+03  0.23598896697E+03  0.12499979576E+03 0.  0.
    9000005    1    3    3    0    0  0.43156313481E+02 -0.43514754905E+02  0.77019094357E+02  0.98432424451E+02  0.10000000000E+01 0.  0.
    9000005    1    3    3    0    0 -0.43156313481E+02  0.43514754905E+02  0.12314544694E+03  0.13755654252E+03  0.10000000000E+01 0.  0.
<mgrwt>
<rscale>  0 0.12499980E+03</rscale>
<asrwt>0</asrwt>
<pdfrwt beam="1">  1        4 0.33550269E-01 0.12499980E+03</pdfrwt>
<pdfrwt beam="2">  1       -4 0.27557251E-02 0.12499980E+03</pdfrwt>
<totfact> 0.84398773E+03</totfact>
</mgrwt>
</event>
<event>
 5    1  0.3206158E-002  0.1250021E+03  0.7818608E-02  0.1235066E+00
         -4   -1    0    0    0  501 -0.00000000000E+00  0.00000000000E+00  0.50275564894E+02  0.50291602932E+02  0.12700000000E+01 0.  1.
          4   -1    0    0  501    0  0.00000000000E+00 -0.00000000000E+00 -0.77665743381E+02  0.77676126287E+02  0.12700000000E+01 0.  1.
         25    2    1    2    0    0  0.00000000000E+00  0.00000000000E+00 -0.27390178487E+02  0.12796772922E+03  0.12500207136E+03 0.  0.
    9000005    1    3    3    0    0  0.32547411544E+02 -0.50744697348E+02  0.31582067680E+01  0.60376589645E+02  0.10000000000E+01 0.  0.
    9000005    1    3    3    0    0 -0.32547411544E+02  0.50744697348E+02 -0.30548385255E+02  0.67591139573E+02  0.10000000000E+01 0.  0.
<mgrwt>
<rscale>  0 0.12500207E+03</rscale>
<asrwt>0</asrwt>
<pdfrwt beam="2">  1        4 0.11950608E-01 0.12500207E+03</pdfrwt>
<pdfrwt beam="1">  1       -4 0.77367346E-02 0.12500207E+03</pdfrwt>
<totfact> 0.10387699E+04</totfact>
</mgrwt>
</event>
<event>
 5    1  0.3206158E-002  0.1249993E+03  0.7818608E-02  0.1235070E+00
         -4   -1    0    0    0  501 -0.00000000000E+00  0.00000000000E+00  0.13897004953E+02  0.13954914785E+02  0.12700000000E+01 0. -1.
          4   -1    0    0  501    0  0.00000000000E+00 -0.00000000000E+00 -0.28043901400E+03  0.28044188965E+03  0.12700000000E+01 0. -1.
         25    2    1    2    0    0  0.00000000000E+00  0.00000000000E+00 -0.26654200905E+03  0.29439680444E+03  0.12499934351E+03 0.  0.
    9000005    1    3    3    0    0  0.15216273320E+02  0.53277515578E+02 -0.20133469418E+03  0.20882214375E+03  0.10000000000E+01 0.  0.
    9000005    1    3    3    0    0 -0.15216273320E+02 -0.53277515578E+02 -0.65207314863E+02  0.85574660686E+02  0.10000000000E+01 0.  0.
<mgrwt>
<rscale>  0 0.12499934E+03</rscale>
<asrwt>0</asrwt>
<pdfrwt beam="2">  1        4 0.43149135E-01 0.12499934E+03</pdfrwt>
<pdfrwt beam="1">  1       -4 0.21426768E-02 0.12499934E+03</pdfrwt>
<totfact> 0.76308226E+03</totfact>
</mgrwt>
</event>
<event>
 5    1  0.3206158E-002  0.1250002E+03  0.7818608E-02  0.1235069E+00
          4   -1    0    0  501    0  0.00000000000E+00  0.00000000000E+00  0.40211856806E+03  0.40212057356E+03  0.12700000000E+01 0. -1.
         -4   -1    0    0    0  501 -0.00000000000E+00 -0.00000000000E+00 -0.96706649772E+01  0.97536998673E+01  0.12700000000E+01 0. -1.
         25    2    1    2    0    0  0.00000000000E+00  0.00000000000E+00  0.39244790309E+03  0.41187427343E+03  0.12500024190E+03 0.  0.
    9000005    1    3    3    0    0 -0.48561210226E+02  0.49982742163E+01  0.67673337663E+02  0.83449712487E+02  0.10000000000E+01 0.  0.
    9000005    1    3    3    0    0  0.48561210226E+02 -0.49982742163E+01  0.32477456542E+03  0.32842456094E+03  0.10000000000E+01 0.  0.
<mgrwt>
<rscale>  0 0.12500024E+03</rscale>
<asrwt>0</asrwt>
<pdfrwt beam="1">  1        4 0.61870923E-01 0.12500024E+03</pdfrwt>
<pdfrwt beam="2">  1       -4 0.14943365E-02 0.12500024E+03</pdfrwt>
<totfact> 0.63413735E+03</totfact>
</mgrwt>
</event>
<event>
 5    1  0.3206158E-002  0.1250000E+03  0.7818608E-02  0.1235069E+00
         -4   -1    0    0    0  501 -0.00000000000E+00  0.00000000000E+00  0.21976641709E+02  0.22013306903E+02  0.12700000000E+01 0. -1.
          4   -1    0    0  501    0  0.00000000000E+00 -0.00000000000E+00 -0.17755844998E+03  0.17756299181E+03  0.12700000000E+01 0. -1.
         25    2    1    2    0    0  0.00000000000E+00  0.00000000000E+00 -0.15558180827E+03  0.19957629871E+03  0.12499999977E+03 0.  0.
    9000005    1    3    3    0    0  0.80344010256E-01  0.18156397551E+02  0.17680373265E+02  0.25362508274E+02  0.10000000000E+01 0.  0.
    9000005    1    3    3    0    0 -0.80344010256E-01 -0.18156397551E+02 -0.17326218154E+03  0.17421379044E+03  0.10000000000E+01 0.  0.
<mgrwt>
<rscale>  0 0.12500000E+03</rscale>
<asrwt>0</asrwt>
<pdfrwt beam="2">  1        4 0.27319853E-01 0.12500000E+03</pdfrwt>
<pdfrwt beam="1">  1       -4 0.33841917E-02 0.12500000E+03</pdfrwt>
<totfact> 0.90207017E+03</totfact>
</mgrwt>
</event>
<event>
 5    1  0.3206158E-002  0.1249981E+03  0.7818608E-02  0.1235072E+00
         -4   -1    0    0    0  501 -0.00000000000E+00  0.00000000000E+00  0.16880680964E+02  0.16928387100E+02  0.12700000000E+01 0. -1.
          4   -1    0    0  501    0  0.00000000000E+00 -0.00000000000E+00 -0.23102046790E+03  0.23102395869E+03  0.12700000000E+01 0. -1.
         25    2    1    2    0    0  0.00000000000E+00  0.00000000000E+00 -0.21413978694E+03  0.24795234579E+03  0.12499806972E+03 0.  0.
    9000005    1    3    3    0    0  0.26982594665E+02 -0.56109205838E+02 -0.11772007066E+03  0.13317401560E+03  0.10000000000E+01 0.  0.
    9000005    1    3    3    0    0 -0.26982594665E+02  0.56109205838E+02 -0.96419716271E+02  0.11477833019E+03  0.10000000000E+01 0.  0.
<mgrwt>
<rscale>  0 0.12499807E+03</rscale>
<asrwt>0</asrwt>
<pdfrwt beam="2">  1        4 0.35545546E-01 0.12499807E+03</pdfrwt>
<pdfrwt beam="1">  1       -4 0.26009662E-02 0.12499807E+03</pdfrwt>
<totfact> 0.82630636E+03</totfact>
</mgrwt>
</event>
<event>
 5    1  0.3206158E-002  0.1250019E+03  0.7818608E-02  0.1235066E+00
         -4   -1    0    0    0  501 -0.00000000000E+00  0.00000000000E+00  0.21032892896E+02  0.21071200336E+02  0.12700000000E+01 0.  1.
          4   -1    0    0  501    0  0.00000000000E+00 -0.00000000000E+00 -0.18551722494E+03  0.18552157193E+03  0.12700000000E+01 0.  1.
         25    2    1    2    0    0  0.00000000000E+00  0.00000000000E+00 -0.16448433204E+03  0.20659277226E+03  0.12500191224E+03 0.  0.
    9000005    1    3    3    0    0  0.52850243513E+02  0.13582946588E+02 -0.31902763241E+02  0.63217331325E+02  0.10000000000E+01 0.  0.
    9000005    1    3    3    0    0 -0.52850243513E+02 -0.13582946588E+02 -0.13258156880E+03  0.14337544094E+03  0.10000000000E+01 0.  0.
<mgrwt>
<rscale>  0 0.12500191E+03</rscale>
<asrwt>0</asrwt>
<pdfrwt beam="2">  1        4 0.28544391E-01 0.12500191E+03</pdfrwt>
<pdfrwt beam="1">  1       -4 0.32391109E-02 0.12500191E+03</pdfrwt>
<totfact> 0.89031560E+03</totfact>
</mgrwt>
</event>
<event>
 5    1  0.3206158E-002  0.1250000E+03  0.7818608E-02  0.1235069E+00
          4   -1    0    0  501    0  0.00000000000E+00  0.00000000000E+00  0.82446384496E+02  0.82456165424E+02  0.12700000000E+01 0. -1.
         -4   -1    0    0    0  501 -0.00000000000E+00 -0.00000000000E+00 -0.47358147928E+02  0.47375173617E+02  0.12700000000E+01 0. -1.
         25    2    1    2    0    0  0.00000000000E+00  0.00000000000E+00  0.35088236568E+02  0.12983133904E+03  0.12499996901E+03 0.  0.
    9000005    1    3    3    0    0  0.36102416385E+02  0.50371683927E+02  0.91988274293E+01  0.62660270000E+02  0.10000000000E+01 0.  0.
    9000005    1    3    3    0    0 -0.36102416385E+02 -0.50371683927E+02  0.25889409138E+02  0.67171069040E+02  0.10000000000E+01 0.  0.
<mgrwt>
<rscale>  0 0.12499997E+03</rscale>
<asrwt>0</asrwt>
<pdfrwt beam="1">  1        4 0.12686121E-01 0.12499997E+03</pdfrwt>
<pdfrwt beam="2">  1       -4 0.72879310E-02 0.12499997E+03</pdfrwt>
<totfact> 0.10348124E+04</totfact>
</mgrwt>
</event>
<event>
 5    1  0.3206158E-002  0.1249943E+03  0.7818608E-02  0.1235078E+00
          4   -1    0    0  501    0  0.00000000000E+00  0.00000000000E+00  0.50642077418E+02  0.50657999419E+02  0.12700000000E+01 0. -1.
         -4   -1    0    0    0  501 -0.00000000000E+00 -0.00000000000E+00 -0.77094162580E+02  0.77104622455E+02  0.12700000000E+01 0. -1.
         25    2    1    2    0    0  0.00000000000E+00  0.00000000000E+00 -0.26452085162E+02  0.12776262187E+03  0.12499429883E+03 0.  0.
    9000005    1    3    3    0    0 -0.53806139867E+02  0.26261607664E+02  0.50621449485E+01  0.60094908569E+02  0.10000000000E+01 0.  0.
    9000005    1    3    3    0    0  0.53806139867E+02 -0.26261607664E+02 -0.31514230111E+02  0.67667713305E+02  0.10000000000E+01 0.  0.
<mgrwt>
<rscale>  0 0.12499430E+03</rscale>
<asrwt>0</asrwt>
<pdfrwt beam="1">  1        4 0.77931181E-02 0.12499430E+03</pdfrwt>
<pdfrwt beam="2">  1       -4 0.11862670E-01 0.12499430E+03</pdfrwt>
<totfact> 0.10393955E+04</totfact>
</mgrwt>
</event>
<event>
 5    1  0.3206158E-002  0.1249986E+03  0.7818608E-02  0.1235071E+00
         -4   -1    0    0    0  501 -0.00000000000E+00  0.00000000000E+00  0.19841284388E+02  0.19881887893E+02  0.12700000000E+01 0. -1.
          4   -1    0    0  501    0  0.00000000000E+00 -0.00000000000E+00 -0.19662649800E+03  0.19663059939E+03  0.12700000000E+01 0. -1.
         25    2    1    2    0    0  0.00000000000E+00  0.00000000000E+00 -0.17678521362E+03  0.21651248728E+03  0.12499858158E+03 0.  0.
    9000005    1    3    3    0    0 -0.36443786781E+02  0.49556115911E+02 -0.10746190817E+03  0.12382657197E+03  0.10000000000E+01 0.  0.
    9000005    1    3    3    0    0  0.36443786781E+02 -0.49556115911E+02 -0.69323305444E+02  0.92685915310E+02  0.10000000000E+01 0.  0.
<mgrwt>
<rscale>  0 0.12499858E+03</rscale>
<asrwt>0</asrwt>
<pdfrwt beam="2">  1        4 0.30253668E-01 0.12499858E+03</pdfrwt>
<pdfrwt beam="1">  1       -4 0.30559443E-02 0.12499858E+03</pdfrwt>
<totfact> 0.87426000E+03</totfact>
</mgrwt>
</event>
<event>
 5    1  0.3206158E-002  0.1249992E+03  0.7818608E-02  0.1235070E+00
         -4   -1    0    0    0  501 -0.00000000000E+00  0.00000000000E+00  0.36309783389E+02  0.36331986867E+02  0.12700000000E+01 0. -1.
          4   -1    0    0  501    0  0.00000000000E+00 -0.00000000000E+00 -0.10752103826E+03  0.10752853839E+03  0.12700000000E+01 0. -1.
         25    2    1    2    0    0  0.00000000000E+00  0.00000000000E+00 -0.71211254868E+02  0.14386052525E+03  0.12499923162E+03 0.  0.
    9000005    1    3    3    0    0  0.14569840416E+02  0.18026200833E+02 -0.10239677557E+03  0.10499201785E+03  0.10000000000E+01 0.  0.
    9000005    1    3    3    0    0 -0.14569840416E+02 -0.18026200833E+02  0.31185520701E+02  0.38868507401E+02  0.10000000000E+01 0.  0.
<mgrwt>
<rscale>  0 0.12499923E+03</rscale>
<asrwt>0</asrwt>
<pdfrwt beam="2">  1        4 0.16543983E-01 0.12499923E+03</pdfrwt>
<pdfrwt beam="1">  1       -4 0.55884054E-02 0.12499923E+03</pdfrwt>
<totfact> 0.10054365E+04</totfact>
</mgrwt>
</event>
<event>
 5    1  0.3206158E-002  0.1250071E+03  0.7818608E-02  0.1235058E+00
         -4   -1    0    0    0  501 -0.00000000000E+00  0.00000000000E+00  0.69157009036E+01  0.70313454607E+01  0.12700000000E+01 0. -1.
          4   -1    0    0  501    0  0.00000000000E+00 -0.00000000000E+00 -0.56010214961E+03  0.56010358943E+03  0.12700000000E+01 0. -1.
         25    2    1    2    0    0  0.00000000000E+00  0.00000000000E+00 -0.55318644870E+03  0.56713493489E+03  0.12500714918E+03 0.  0.
    9000005    1    3    3    0    0  0.56625989134E+01 -0.52049309240E+02 -0.43141124924E+03  0.43457779694E+03  0.10000000000E+01 0.  0.
    9000005    1    3    3    0    0 -0.56625989134E+01  0.52049309240E+02 -0.12177519946E+03  0.13255713795E+03  0.10000000000E+01 0.  0.
<mgrwt>
<rscale>  0 0.12500715E+03</rscale>
<asrwt>0</asrwt>
<pdfrwt beam="2">  1        4 0.86178533E-01 0.12500715E+03</pdfrwt>
<pdfrwt beam="1">  1       -4 0.10729609E-02 0.12500715E+03</pdfrwt>
<totfact> 0.51002125E+03</totfact>
</mgrwt>
</event>
<event>
 5    1  0.3206158E-002  0.1250018E+03  0.7818608E-02  0.1235067E+00
          4   -1    0    0  501    0  0.00000000000E+00  0.00000000000E+00  0.52948444070E+03  0.52948596378E+03  0.12700000000E+01 0.  1.
         -4   -1    0    0    0  501 -0.00000000000E+00 -0.00000000000E+00 -0.73214688146E+01  0.74308011415E+01  0.12700000000E+01 0.  1.
         25    2    1    2    0    0  0.00000000000E+00  0.00000000000E+00  0.52216297188E+03  0.53691676492E+03  0.12500177298E+03 0.  0.
    9000005    1    3    3    0    0 -0.23341149313E+02 -0.47149474550E+02  0.40594613254E+03  0.40934233194E+03  0.10000000000E+01 0.  0.
    9000005    1    3    3    0    0  0.23341149313E+02  0.47149474550E+02  0.11621683935E+03  0.12757443298E+03  0.10000000000E+01 0.  0.
<mgrwt>
<rscale>  0 0.12500177E+03</rscale>
<asrwt>0</asrwt>
<pdfrwt beam="1">  1        4 0.81467695E-01 0.12500177E+03</pdfrwt>
<pdfrwt beam="2">  1       -4 0.11349068E-02 0.12500177E+03</pdfrwt>
<totfact> 0.53107608E+03</totfact>
</mgrwt>
</event>
<event>
 5    1  0.3206158E-002  0.1250005E+03  0.7818608E-02  0.1235068E+00
          4   -1    0    0  501    0  0.00000000000E+00  0.00000000000E+00  0.50798539782E+02  0.50814412758E+02  0.12700000000E+01 0. -1.
         -4   -1    0    0    0  501 -0.00000000000E+00 -0.00000000000E+00 -0.76864382507E+02  0.76874873647E+02  0.12700000000E+01 0. -1.
         25    2    1    2    0    0  0.00000000000E+00  0.00000000000E+00 -0.26065842725E+02  0.12768928641E+03  0.12500050282E+03 0.  0.
    9000005    1    3    3    0    0  0.59506957505E+02 -0.11498126497E+02 -0.28591984279E+02  0.67020791322E+02  0.10000000000E+01 0.  0.
    9000005    1    3    3    0    0 -0.59506957505E+02  0.11498126497E+02  0.25261415538E+01  0.60668495083E+02  0.10000000000E+01 0.  0.
<mgrwt>
<rscale>  0 0.12500050E+03</rscale>
<asrwt>0</asrwt>
<pdfrwt beam="1">  1        4 0.78171880E-02 0.12500050E+03</pdfrwt>
<pdfrwt beam="2">  1       -4 0.11827318E-01 0.12500050E+03</pdfrwt>
<totfact> 0.10394085E+04</totfact>
</mgrwt>
</event>
<event>
 5    1  0.3206158E-002  0.1249984E+03  0.7818608E-02  0.1235072E+00
          4   -1    0    0  501    0  0.00000000000E+00  0.00000000000E+00  0.17999205822E+02  0.18043954950E+02  0.12700000000E+01 0.  1.
         -4   -1    0    0    0  501 -0.00000000000E+00 -0.00000000000E+00 -0.21670199909E+03  0.21670572053E+03  0.12700000000E+01 0.  1.
         25    2    1    2    0    0  0.00000000000E+00  0.00000000000E+00 -0.19870279327E+03  0.23474967548E+03  0.12499844033E+03 0.  0.
    9000005    1    3    3    0    0  0.70999113040E+01  0.61995531653E+02 -0.93038945422E+02  0.11203169217E+03  0.10000000000E+01 0.  0.
    9000005    1    3    3    0    0 -0.70999113040E+01 -0.61995531653E+02 -0.10566384785E+03  0.12271798331E+03  0.10000000000E+01 0.  0.
<mgrwt>
<rscale>  0 0.12499844E+03</rscale>
<asrwt>0</asrwt>
<pdfrwt beam="1">  1        4 0.27728372E-02 0.12499844E+03</pdfrwt>
<pdfrwt beam="2">  1       -4 0.33342496E-01 0.12499844E+03</pdfrwt>
<totfact> 0.84588519E+03</totfact>
</mgrwt>
</event>
<event>
 5    1  0.3206158E-002  0.1249996E+03  0.7818608E-02  0.1235070E+00
         -4   -1    0    0    0  501 -0.00000000000E+00  0.00000000000E+00  0.82670087441E+02  0.82679841905E+02  0.12700000000E+01 0.  1.
          4   -1    0    0  501    0  0.00000000000E+00 -0.00000000000E+00 -0.47229715015E+02  0.47246786985E+02  0.12700000000E+01 0.  1.
         25    2    1    2    0    0  0.00000000000E+00  0.00000000000E+00  0.35440372426E+02  0.12992662889E+03  0.12499963559E+03 0.  0.
    9000005    1    3    3    0    0 -0.24983785777E+02  0.12276325992E+02  0.75874836690E+02  0.80826286407E+02  0.10000000000E+01 0.  0.
    9000005    1    3    3    0    0  0.24983785777E+02 -0.12276325992E+02 -0.40434464264E+02  0.49100342483E+02  0.10000000000E+01 0.  0.
<mgrwt>
<rscale>  0 0.12499964E+03</rscale>
<asrwt>0</asrwt>
<pdfrwt beam="2">  1        4 0.72681736E-02 0.12499964E+03</pdfrwt>
<pdfrwt beam="1">  1       -4 0.12720538E-01 0.12499964E+03</pdfrwt>
<totfact> 0.10346162E+04</totfact>
</mgrwt>
</event>
<event>
 5    1  0.3206158E-002  0.1250005E+03  0.7818608E-02  0.1235068E+00
          4   -1    0    0  501    0  0.00000000000E+00  0.00000000000E+00  0.11180057462E+03  0.11180778768E+03  0.12700000000E+01 0.  1.
         -4   -1    0    0    0  501 -0.00000000000E+00 -0.00000000000E+00 -0.34919859471E+02  0.34942946147E+02  0.12700000000E+01 0.  1.
         25    2    1    2    0    0  0.00000000000E+00  0.00000000000E+00  0.76880715151E+02  0.14675073383E+03  0.12500053406E+03 0.  0.
    9000005    1    3    3    0    0  0.50524682916E+02 -0.20338678280E+02  0.24676617498E+01  0.54529760429E+02  0.10000000000E+01 0.  0.
    9000005    1    3    3    0    0 -0.50524682916E+02  0.20338678280E+02  0.74413053401E+02  0.92220973397E+02  0.10000000000E+01 0.  0.
<mgrwt>
<rscale>  0 0.12500053E+03</rscale>
<asrwt>0</asrwt>
<pdfrwt beam="1">  1        4 0.17202419E-01 0.12500053E+03</pdfrwt>
<pdfrwt beam="2">  1       -4 0.53746169E-02 0.12500053E+03</pdfrwt>
<totfact> 0.99954178E+03</totfact>
</mgrwt>
</event>
<event>
 5    1  0.3206158E-002  0.1249991E+03  0.7818608E-02  0.1235071E+00
         -4   -1    0    0    0  501 -0.00000000000E+00  0.00000000000E+00  0.17800462748E+02  0.17845710242E+02  0.12700000000E+01 0.  1.
          4   -1    0    0  501    0  0.00000000000E+00 -0.00000000000E+00 -0.21911762498E+03  0.21912130539E+03  0.12700000000E+01 0.  1.
         25    2    1    2    0    0  0.00000000000E+00  0.00000000000E+00 -0.20131716223E+03  0.23696701563E+03  0.12499906675E+03 0.  0.
    9000005    1    3    3    0    0  0.60119498432E+02  0.16768559811E+02 -0.10654853493E+03  0.12348736367E+03  0.10000000000E+01 0.  0.
    9000005    1    3    3    0    0 -0.60119498432E+02 -0.16768559811E+02 -0.94768627303E+02  0.11347965197E+03  0.10000000000E+01 0.  0.
<mgrwt>
<rscale>  0 0.12499907E+03</rscale>
<asrwt>0</asrwt>
<pdfrwt beam="2">  1        4 0.33714166E-01 0.12499907E+03</pdfrwt>
<pdfrwt beam="1">  1       -4 0.27422966E-02 0.12499907E+03</pdfrwt>
<totfact> 0.84252914E+03</totfact>
</mgrwt>
</event>
<event>
 5    1  0.3206158E-002  0.1249992E+03  0.7818608E-02  0.1235071E+00
          4   -1    0    0  501    0  0.00000000000E+00  0.00000000000E+00  0.38593203927E+03  0.38593412888E+03  0.12700000000E+01 0. -1.
         -4   -1    0    0    0  501 -0.00000000000E+00 -0.00000000000E+00 -0.10079503492E+02  0.10159197342E+02  0.12700000000E+01 0. -1.
         25    2    1    2    0    0  0.00000000000E+00  0.00000000000E+00  0.37585253578E+03  0.39609332622E+03  0.12499917771E+03 0.  0.
    9000005    1    3    3    0    0  0.48722362646E+02  0.47079059898E+01  0.64826050881E+02  0.81236998181E+02  0.10000000000E+01 0.  0.
    9000005    1    3    3    0    0 -0.48722362646E+02 -0.47079059898E+01  0.31102648490E+03  0.31485632804E+03  0.10000000000E+01 0.  0.
<mgrwt>
<rscale>  0 0.12499918E+03</rscale>
<asrwt>0</asrwt>
<pdfrwt beam="1">  1        4 0.59380449E-01 0.12499918E+03</pdfrwt>
<pdfrwt beam="2">  1       -4 0.15569839E-02 0.12499918E+03</pdfrwt>
<totfact> 0.64935708E+03</totfact>
</mgrwt>
</event>
<event>
 5    1  0.3206158E-002  0.1249993E+03  0.7818608E-02  0.1235070E+00
          4   -1    0    0  501    0  0.00000000000E+00  0.00000000000E+00  0.23438301643E+03  0.23438645714E+03  0.12700000000E+01 0.  1.
         -4   -1    0    0    0  501 -0.00000000000E+00 -0.00000000000E+00 -0.16638153141E+02  0.16686552668E+02  0.12700000000E+01 0.  1.
         25    2    1    2    0    0  0.00000000000E+00  0.00000000000E+00  0.21774486329E+03  0.25107300981E+03  0.12499932306E+03 0.  0.
    9000005    1    3    3    0    0 -0.96329092216E+01 -0.29698313376E+02  0.14035859269E+00  0.31237836960E+02  0.10000000000E+01 0.  0.
    9000005    1    3    3    0    0  0.96329092216E+01  0.29698313376E+02  0.21760450470E+03  0.21983517285E+03  0.10000000000E+01 0.  0.
<mgrwt>
<rscale>  0 0.12499932E+03</rscale>
<asrwt>0</asrwt>
<pdfrwt beam="1">  1        4 0.36062911E-01 0.12499932E+03</pdfrwt>
<pdfrwt beam="2">  1       -4 0.25637038E-02 0.12499932E+03</pdfrwt>
<totfact> 0.82176632E+03</totfact>
</mgrwt>
</event>
<event>
 5    1  0.3206158E-002  0.1250005E+03  0.7818608E-02  0.1235068E+00
          4   -1    0    0  501    0  0.00000000000E+00  0.00000000000E+00  0.38625522487E+02  0.38646395530E+02  0.12700000000E+01 0.  1.
         -4   -1    0    0    0  501 -0.00000000000E+00 -0.00000000000E+00 -0.10107999778E+03  0.10108797580E+03  0.12700000000E+01 0.  1.
         25    2    1    2    0    0  0.00000000000E+00  0.00000000000E+00 -0.62454475292E+02  0.13973437133E+03  0.12500053219E+03 0.  0.
    9000005    1    3    3    0    0 -0.34639761555E+02  0.17567328735E+02 -0.85954481839E+02  0.94327605014E+02  0.10000000000E+01 0.  0.
    9000005    1    3    3    0    0  0.34639761555E+02 -0.17567328735E+02  0.23500006547E+02  0.45406766315E+02  0.10000000000E+01 0.  0.
<mgrwt>
<rscale>  0 0.12500053E+03</rscale>
<asrwt>0</asrwt>
<pdfrwt beam="1">  1        4 0.59446074E-02 0.12500053E+03</pdfrwt>
<pdfrwt beam="2">  1       -4 0.15552988E-01 0.12500053E+03</pdfrwt>
<totfact> 0.10138972E+04</totfact>
</mgrwt>
</event>
<event>
 5    1  0.3206158E-002  0.1249957E+03  0.7818608E-02  0.1235076E+00
         -4   -1    0    0    0  501 -0.00000000000E+00  0.00000000000E+00  0.81288763133E+01  0.82274862575E+01  0.12700000000E+01 0.  1.
          4   -1    0    0  501    0  0.00000000000E+00 -0.00000000000E+00 -0.47751053213E+03  0.47751222099E+03  0.12700000000E+01 0.  1.
         25    2    1    2    0    0  0.00000000000E+00  0.00000000000E+00 -0.46938165582E+03  0.48573970725E+03  0.12499569745E+03 0.  0.
    9000005    1    3    3    0    0  0.29651109454E+02 -0.27612854209E+02 -0.41956737410E+03  0.42152039027E+03  0.10000000000E+01 0.  0.
    9000005    1    3    3    0    0 -0.29651109454E+02  0.27612854209E+02 -0.49814281718E+02  0.64219316972E+02  0.10000000000E+01 0.  0.
<mgrwt>
<rscale>  0 0.12499570E+03</rscale>
<asrwt>0</asrwt>
<pdfrwt beam="2">  1        4 0.73470852E-01 0.12499570E+03</pdfrwt>
<pdfrwt beam="1">  1       -4 0.12583120E-02 0.12499570E+03</pdfrwt>
<totfact> 0.56993421E+03</totfact>
</mgrwt>
</event>
<event>
 4    1  0.3206158E-002  0.1251164E+03  0.7818608E-02  0.1234887E+00
          4   -1    0    0  501    0  0.00000000000E+00  0.00000000000E+00  0.88451032567E+02  0.88460149571E+02  0.12700000000E+01 0.  1.
         -4   -1    0    0    0  501 -0.00000000000E+00 -0.00000000000E+00 -0.44224645954E+02  0.44242877503E+02  0.12700000000E+01 0.  1.
    9000005    1    1    2    0    0 -0.50029985274E+02  0.85690005987E+01  0.60882357734E+02  0.79272244077E+02  0.10000000000E+01 0.  0.
    9000005    1    1    2    0    0  0.50029985274E+02 -0.85690005987E+01 -0.16655971121E+02  0.53430782997E+02  0.10000000000E+01 0.  0.
<mgrwt>
<rscale>  0 0.12511643E+03</rscale>
<asrwt>0</asrwt>
<pdfrwt beam="1">  1        4 0.13609955E-01 0.12511643E+03</pdfrwt>
<pdfrwt beam="2">  1       -4 0.68058954E-02 0.12511643E+03</pdfrwt>
<totfact> 0.10259746E+04</totfact>
</mgrwt>
</event>
<event>
 5    1  0.3206158E-002  0.1250031E+03  0.7818608E-02  0.1235064E+00
         -4   -1    0    0    0  501 -0.00000000000E+00  0.00000000000E+00  0.57726209814E+02  0.57740178381E+02  0.12700000000E+01 0. -1.
          4   -1    0    0  501    0  0.00000000000E+00 -0.00000000000E+00 -0.67643819841E+02  0.67655740796E+02  0.12700000000E+01 0. -1.
         25    2    1    2    0    0  0.00000000000E+00  0.00000000000E+00 -0.99176100271E+01  0.12539591918E+03  0.12500311019E+03 0.  0.
    9000005    1    3    3    0    0 -0.30681709827E+02  0.47792484238E+01  0.49444778891E+02  0.58395159842E+02  0.10000000000E+01 0.  0.
    9000005    1    3    3    0    0  0.30681709827E+02 -0.47792484238E+01 -0.59362388918E+02  0.67000759335E+02  0.10000000000E+01 0.  0.
<mgrwt>
<rscale>  0 0.12500311E+03</rscale>
<asrwt>0</asrwt>
<pdfrwt beam="2">  1        4 0.10408733E-01 0.12500311E+03</pdfrwt>
<pdfrwt beam="1">  1       -4 0.88829469E-02 0.12500311E+03</pdfrwt>
<totfact> 0.10443525E+04</totfact>
</mgrwt>
</event>
<event>
 5    1  0.3206158E-002  0.1250007E+03  0.7818608E-02  0.1235068E+00
         -4   -1    0    0    0  501 -0.00000000000E+00  0.00000000000E+00  0.35978111555E+02  0.36000519595E+02  0.12700000000E+01 0.  1.
          4   -1    0    0  501    0  0.00000000000E+00 -0.00000000000E+00 -0.10851428595E+03  0.10852171744E+03  0.12700000000E+01 0.  1.
         25    2    1    2    0    0  0.00000000000E+00  0.00000000000E+00 -0.72536174399E+02  0.14452223703E+03  0.12500072160E+03 0.  0.
    9000005    1    3    3    0    0  0.32236389539E+02  0.49942407861E+02 -0.58563499112E+02  0.83451257281E+02  0.10000000000E+01 0.  0.
    9000005    1    3    3    0    0 -0.32236389539E+02 -0.49942407861E+02 -0.13972675287E+02  0.61070979754E+02  0.10000000000E+01 0.  0.
<mgrwt>
<rscale>  0 0.12500072E+03</rscale>
<asrwt>0</asrwt>
<pdfrwt beam="2">  1        4 0.16696801E-01 0.12500072E+03</pdfrwt>
<pdfrwt beam="1">  1       -4 0.55373895E-02 0.12500072E+03</pdfrwt>
<totfact> 0.10040541E+04</totfact>
</mgrwt>
</event>
<event>
 5    1  0.3206158E-002  0.1250003E+03  0.7818608E-02  0.1235069E+00
          4   -1    0    0  501    0  0.00000000000E+00  0.00000000000E+00  0.11745757314E+03  0.11746443882E+03  0.12700000000E+01 0.  1.
         -4   -1    0    0    0  501 -0.00000000000E+00 -0.00000000000E+00 -0.33236858968E+02  0.33261113843E+02  0.12700000000E+01 0.  1.
         25    2    1    2    0    0  0.00000000000E+00  0.00000000000E+00  0.84220714171E+02  0.15072555266E+03  0.12500025412E+03 0.  0.
    9000005    1    3    3    0    0 -0.52089397640E+02  0.34050426946E+02  0.35233166116E+02  0.71520017592E+02  0.10000000000E+01 0.  0.
    9000005    1    3    3    0    0  0.52089397640E+02 -0.34050426946E+02  0.48987548054E+02  0.79205535072E+02  0.10000000000E+01 0.  0.
<mgrwt>
<rscale>  0 0.12500025E+03</rscale>
<asrwt>0</asrwt>
<pdfrwt beam="1">  1        4 0.18072790E-01 0.12500025E+03</pdfrwt>
<pdfrwt beam="2">  1       -4 0.51157568E-02 0.12500025E+03</pdfrwt>
<totfact> 0.99158699E+03</totfact>
</mgrwt>
</event>
<event>
 5    1  0.3206158E-002  0.1250055E+03  0.7818608E-02  0.1235061E+00
         -4   -1    0    0    0  501 -0.00000000000E+00  0.00000000000E+00  0.40047783216E+03  0.40047984587E+03  0.12700000000E+01 0. -1.
          4   -1    0    0  501    0  0.00000000000E+00 -0.00000000000E+00 -0.97114528779E+01  0.97941419737E+01  0.12700000000E+01 0. -1.
         25    2    1    2    0    0  0.00000000000E+00  0.00000000000E+00  0.39076637928E+03  0.41027398784E+03  0.12500552759E+03 0.  0.
    9000005    1    3    3    0    0 -0.26836775332E+02 -0.55540875885E+02  0.22830100248E+03  0.23648963854E+03  0.10000000000E+01 0.  0.
    9000005    1    3    3    0    0  0.26836775332E+02  0.55540875885E+02  0.16246537680E+03  0.17378434931E+03  0.10000000000E+01 0.  0.
<mgrwt>
<rscale>  0 0.12500553E+03</rscale>
<asrwt>0</asrwt>
<pdfrwt beam="2">  1        4 0.15005856E-02 0.12500553E+03</pdfrwt>
<pdfrwt beam="1">  1       -4 0.61618475E-01 0.12500553E+03</pdfrwt>
<totfact> 0.63557925E+03</totfact>
</mgrwt>
</event>
<event>
 5    1  0.3206158E-002  0.1249970E+03  0.7818608E-02  0.1235074E+00
          4   -1    0    0  501    0  0.00000000000E+00  0.00000000000E+00  0.33686577901E+02  0.33710509202E+02  0.12700000000E+01 0. -1.
         -4   -1    0    0    0  501 -0.00000000000E+00 -0.00000000000E+00 -0.11588456408E+03  0.11589152295E+03  0.12700000000E+01 0. -1.
         25    2    1    2    0    0  0.00000000000E+00  0.00000000000E+00 -0.82197986176E+02  0.14960203215E+03  0.12499703633E+03 0.  0.
    9000005    1    3    3    0    0 -0.36500397602E+02 -0.50278571548E+02 -0.49114367225E+02  0.79205017832E+02  0.10000000000E+01 0.  0.
    9000005    1    3    3    0    0  0.36500397602E+02  0.50278571548E+02 -0.33083618951E+02  0.70397014318E+02  0.10000000000E+01 0.  0.
<mgrwt>
<rscale>  0 0.12499704E+03</rscale>
<asrwt>0</asrwt>
<pdfrwt beam="1">  1        4 0.51849267E-02 0.12499704E+03</pdfrwt>
<pdfrwt beam="2">  1       -4 0.17830770E-01 0.12499704E+03</pdfrwt>
<totfact> 0.99389715E+03</totfact>
</mgrwt>
</event>
<event>
 5    1  0.3206158E-002  0.1249920E+03  0.7818608E-02  0.1235082E+00
          4   -1    0    0  501    0  0.00000000000E+00  0.00000000000E+00  0.33250368302E+02  0.33274613329E+02  0.12700000000E+01 0.  1.
         -4   -1    0    0    0  501 -0.00000000000E+00 -0.00000000000E+00 -0.11739437787E+03  0.11740124725E+03  0.12700000000E+01 0.  1.
         25    2    1    2    0    0  0.00000000000E+00  0.00000000000E+00 -0.84144009571E+02  0.15067586058E+03  0.12499200220E+03 0.  0.
    9000005    1    3    3    0    0  0.52917799744E+02 -0.31105783933E+02 -0.27968005126E+02  0.67461638244E+02  0.10000000000E+01 0.  0.
    9000005    1    3    3    0    0 -0.52917799744E+02  0.31105783933E+02 -0.56176004444E+02  0.83214222337E+02  0.10000000000E+01 0.  0.
<mgrwt>
<rscale>  0 0.12499200E+03</rscale>
<asrwt>0</asrwt>
<pdfrwt beam="1">  1        4 0.51178347E-02 0.12499200E+03</pdfrwt>
<pdfrwt beam="2">  1       -4 0.18063067E-01 0.12499200E+03</pdfrwt>
<totfact> 0.99186997E+03</totfact>
</mgrwt>
</event>
<event>
 5    1  0.3206158E-002  0.1250056E+03  0.7818608E-02  0.1235061E+00
         -4   -1    0    0    0  501 -0.00000000000E+00  0.00000000000E+00  0.25606105476E+03  0.25606420419E+03  0.12700000000E+01 0.  1.
          4   -1    0    0  501    0  0.00000000000E+00 -0.00000000000E+00 -0.15226842093E+02  0.15279712698E+02  0.12700000000E+01 0.  1.
         25    2    1    2    0    0  0.00000000000E+00  0.00000000000E+00  0.24083421267E+03  0.27134391688E+03  0.12500561283E+03 0.  0.
    9000005    1    3    3    0    0  0.47792346168E+02  0.39902631309E+02  0.13216122081E+03  0.14609557359E+03  0.10000000000E+01 0.  0.
    9000005    1    3    3    0    0 -0.47792346168E+02 -0.39902631309E+02  0.10867299186E+03  0.12524834329E+03  0.10000000000E+01 0.  0.
<mgrwt>
<rscale>  0 0.12500561E+03</rscale>
<asrwt>0</asrwt>
<pdfrwt beam="2">  1        4 0.23469006E-02 0.12500561E+03</pdfrwt>
<pdfrwt beam="1">  1       -4 0.39398313E-01 0.12500561E+03</pdfrwt>
<totfact> 0.79330096E+03</totfact>
</mgrwt>
</event>
<event>
 5    1  0.3206158E-002  0.1249989E+03  0.7818608E-02  0.1235071E+00
          4   -1    0    0  501    0  0.00000000000E+00  0.00000000000E+00  0.78879021784E+01  0.79894868906E+01  0.12700000000E+01 0. -1.
         -4   -1    0    0    0  501 -0.00000000000E+00 -0.00000000000E+00 -0.49194071217E+03  0.49194235149E+03  0.12700000000E+01 0. -1.
         25    2    1    2    0    0  0.00000000000E+00  0.00000000000E+00 -0.48405280999E+03  0.49993183838E+03  0.12499888066E+03 0.  0.
    9000005    1    3    3    0    0  0.71353630295E+01  0.27996506628E+02 -0.20407628354E+02  0.35386283839E+02  0.10000000000E+01 0.  0.
    9000005    1    3    3    0    0 -0.71353630295E+01 -0.27996506628E+02 -0.46364518164E+03  0.46454555454E+03  0.10000000000E+01 0.  0.
<mgrwt>
<rscale>  0 0.12499888E+03</rscale>
<asrwt>0</asrwt>
<pdfrwt beam="1">  1        4 0.12214641E-02 0.12499888E+03</pdfrwt>
<pdfrwt beam="2">  1       -4 0.75691103E-01 0.12499888E+03</pdfrwt>
<totfact> 0.55871041E+03</totfact>
</mgrwt>
</event>
<event>
 5    1  0.3206158E-002  0.1250041E+03  0.7818608E-02  0.1235063E+00
          4   -1    0    0  501    0  0.00000000000E+00  0.00000000000E+00  0.12784494988E+03  0.12785125775E+03  0.12700000000E+01 0. -1.
         -4   -1    0    0    0  501 -0.00000000000E+00 -0.00000000000E+00 -0.30536350856E+02  0.30562748954E+02  0.12700000000E+01 0. -1.
         25    2    1    2    0    0  0.00000000000E+00  0.00000000000E+00  0.97308599021E+02  0.15841400671E+03  0.12500413624E+03 0.  0.
    9000005    1    3    3    0    0 -0.18798203414E+02 -0.54435187909E+02  0.79408686525E+02  0.98098428274E+02  0.10000000000E+01 0.  0.
    9000005    1    3    3    0    0  0.18798203414E+02  0.54435187909E+02  0.17899912496E+02  0.60315578433E+02  0.10000000000E+01 0.  0.
<mgrwt>
<rscale>  0 0.12500414E+03</rscale>
<asrwt>0</asrwt>
<pdfrwt beam="1">  1        4 0.19670970E-01 0.12500414E+03</pdfrwt>
<pdfrwt beam="2">  1       -4 0.47004159E-02 0.12500414E+03</pdfrwt>
<totfact> 0.97640346E+03</totfact>
</mgrwt>
</event>
<event>
 5    1  0.3206158E-002  0.1250000E+03  0.7818608E-02  0.1235069E+00
         -4   -1    0    0    0  501 -0.00000000000E+00  0.00000000000E+00  0.61052057181E+02  0.61065264971E+02  0.12700000000E+01 0. -1.
          4   -1    0    0  501    0  0.00000000000E+00 -0.00000000000E+00 -0.63955838567E+02  0.63968446806E+02  0.12700000000E+01 0. -1.
         25    2    1    2    0    0  0.00000000000E+00  0.00000000000E+00 -0.29037813865E+01  0.12503371178E+03  0.12499998854E+03 0.  0.
    9000005    1    3    3    0    0  0.25267205154E+02  0.46990106530E+02 -0.33999069727E+02  0.63272731175E+02  0.10000000000E+01 0.  0.
    9000005    1    3    3    0    0 -0.25267205154E+02 -0.46990106530E+02  0.31095288341E+02  0.61760980603E+02  0.10000000000E+01 0.  0.
<mgrwt>
<rscale>  0 0.12499999E+03</rscale>
<asrwt>0</asrwt>
<pdfrwt beam="2">  1        4 0.98413457E-02 0.12499999E+03</pdfrwt>
<pdfrwt beam="1">  1       -4 0.93946100E-02 0.12499999E+03</pdfrwt>
<totfact> 0.10452133E+04</totfact>
</mgrwt>
</event>
<event>
 5    1  0.3206158E-002  0.1249959E+03  0.7818608E-02  0.1235076E+00
         -4   -1    0    0    0  501 -0.00000000000E+00  0.00000000000E+00  0.51885009083E+03  0.51885164513E+03  0.12700000000E+01 0. -1.
          4   -1    0    0  501    0  0.00000000000E+00 -0.00000000000E+00 -0.74730348932E+01  0.75801814302E+01  0.12700000000E+01 0. -1.
         25    2    1    2    0    0  0.00000000000E+00  0.00000000000E+00  0.51137705593E+03  0.52643182656E+03  0.12499589864E+03 0.  0.
    9000005    1    3    3    0    0  0.23727709935E+02  0.45266628064E+02  0.40712570638E+03  0.41032232773E+03  0.10000000000E+01 0.  0.
    9000005    1    3    3    0    0 -0.23727709935E+02 -0.45266628064E+02  0.10425134955E+03  0.11610949883E+03  0.10000000000E+01 0.  0.
<mgrwt>
<rscale>  0 0.12499590E+03</rscale>
<asrwt>0</asrwt>
<pdfrwt beam="2">  1        4 0.11580594E-02 0.12499590E+03</pdfrwt>
<pdfrwt beam="1">  1       -4 0.79831444E-01 0.12499590E+03</pdfrwt>
<totfact> 0.53875216E+03</totfact>
</mgrwt>
</event>
<event>
 4    1  0.3206158E-002  0.1249349E+03  0.7818608E-02  0.1235171E+00
          4   -1    0    0  501    0  0.00000000000E+00  0.00000000000E+00  0.25559600937E+03  0.25559916453E+03  0.12700000000E+01 0.  1.
         -4   -1    0    0    0  501 -0.00000000000E+00 -0.00000000000E+00 -0.15237315988E+02  0.15290150376E+02  0.12700000000E+01 0.  1.
    9000005    1    1    2    0    0  0.31630644552E+02 -0.38711668499E+02  0.20136812649E+03  0.20748304345E+03  0.10000000000E+01 0.  0.
    9000005    1    1    2    0    0 -0.31630644552E+02  0.38711668499E+02  0.38990566890E+02  0.63406271450E+02  0.10000000000E+01 0.  0.
<mgrwt>
<rscale>  0 0.12493486E+03</rscale>
<asrwt>0</asrwt>
<pdfrwt beam="1">  1        4 0.39326769E-01 0.12493486E+03</pdfrwt>
<pdfrwt beam="2">  1       -4 0.23485094E-02 0.12493486E+03</pdfrwt>
<totfact> 0.79516929E+03</totfact>
</mgrwt>
</event>
<event>
 5    1  0.3206158E-002  0.1250003E+03  0.7818608E-02  0.1235069E+00
          4   -1    0    0  501    0  0.00000000000E+00  0.00000000000E+00  0.12535830245E+03  0.12536473545E+03  0.12700000000E+01 0.  1.
         -4   -1    0    0    0  501 -0.00000000000E+00 -0.00000000000E+00 -0.31140645613E+02  0.31166531876E+02  0.12700000000E+01 0.  1.
         25    2    1    2    0    0  0.00000000000E+00  0.00000000000E+00  0.94217656841E+02  0.15653126733E+03  0.12500028316E+03 0.  0.
    9000005    1    3    3    0    0  0.58532989241E+02  0.69107101169E+01  0.73118187370E+02  0.93920913902E+02  0.10000000000E+01 0.  0.
    9000005    1    3    3    0    0 -0.58532989241E+02 -0.69107101169E+01  0.21099469471E+02  0.62610353424E+02  0.10000000000E+01 0.  0.
<mgrwt>
<rscale>  0 0.12500028E+03</rscale>
<asrwt>0</asrwt>
<pdfrwt beam="1">  1        4 0.19288379E-01 0.12500028E+03</pdfrwt>
<pdfrwt beam="2">  1       -4 0.47933546E-02 0.12500028E+03</pdfrwt>
<totfact> 0.98015104E+03</totfact>
</mgrwt>
</event>
<event>
 5    1  0.3206158E-002  0.1249974E+03  0.7818608E-02  0.1235073E+00
         -4   -1    0    0    0  501 -0.00000000000E+00  0.00000000000E+00  0.34736925766E+03  0.34737157924E+03  0.12700000000E+01 0.  1.
          4   -1    0    0  501    0  0.00000000000E+00 -0.00000000000E+00 -0.11206548411E+02  0.11278281220E+02  0.12700000000E+01 0.  1.
         25    2    1    2    0    0  0.00000000000E+00  0.00000000000E+00  0.33616270925E+03  0.35864986047E+03  0.12499742126E+03 0.  0.
    9000005    1    3    3    0    0 -0.55320934140E+01  0.62245356015E+02  0.16802202655E+03  0.17926932199E+03  0.10000000000E+01 0.  0.
    9000005    1    3    3    0    0  0.55320934140E+01 -0.62245356015E+02  0.16814068270E+03  0.17938053847E+03  0.10000000000E+01 0.  0.
<mgrwt>
<rscale>  0 0.12499742E+03</rscale>
<asrwt>0</asrwt>
<pdfrwt beam="2">  1        4 0.17297811E-02 0.12499742E+03</pdfrwt>
<pdfrwt beam="1">  1       -4 0.53447113E-01 0.12499742E+03</pdfrwt>
<totfact> 0.68787259E+03</totfact>
</mgrwt>
</event>
<event>
 5    1  0.3206158E-002  0.1250017E+03  0.7818608E-02  0.1235067E+00
         -4   -1    0    0    0  501 -0.00000000000E+00  0.00000000000E+00  0.48421086680E+01  0.50058881682E+01  0.12700000000E+01 0.  1.
          4   -1    0    0  501    0  0.00000000000E+00 -0.00000000000E+00 -0.79316546131E+03  0.79316647806E+03  0.12700000000E+01 0.  1.
         25    2    1    2    0    0  0.00000000000E+00  0.00000000000E+00 -0.78832335264E+03  0.79817236623E+03  0.12500167154E+03 0.  0.
    9000005    1    3    3    0    0 -0.46365687918E+02 -0.30721481102E+02 -0.57608854547E+03  0.57876817349E+03  0.10000000000E+01 0.  0.
    9000005    1    3    3    0    0  0.46365687918E+02  0.30721481102E+02 -0.21223480717E+03  0.21940419274E+03  0.10000000000E+01 0.  0.
<mgrwt>
<rscale>  0 0.12500167E+03</rscale>
<asrwt>0</asrwt>
<pdfrwt beam="2">  1        4 0.12203803E+00 0.12500167E+03</pdfrwt>
<pdfrwt beam="1">  1       -4 0.75761706E-03 0.12500167E+03</pdfrwt>
<totfact> 0.38345073E+03</totfact>
</mgrwt>
</event>
<event>
 5    1  0.3206158E-002  0.1250006E+03  0.7818608E-02  0.1235068E+00
         -4   -1    0    0    0  501 -0.00000000000E+00  0.00000000000E+00  0.71285853155E+02  0.71297165161E+02  0.12700000000E+01 0. -1.
          4   -1    0    0  501    0  0.00000000000E+00 -0.00000000000E+00 -0.54774486542E+02  0.54789207659E+02  0.12700000000E+01 0. -1.
         25    2    1    2    0    0  0.00000000000E+00  0.00000000000E+00  0.16511366613E+02  0.12608637282E+03  0.12500059273E+03 0.  0.
    9000005    1    3    3    0    0  0.25758471747E+02  0.21796361070E+02  0.61312067525E+02  0.69991069765E+02  0.10000000000E+01 0.  0.
    9000005    1    3    3    0    0 -0.25758471747E+02 -0.21796361070E+02 -0.44800700912E+02  0.56095303055E+02  0.10000000000E+01 0.  0.
<mgrwt>
<rscale>  0 0.12500059E+03</rscale>
<asrwt>0</asrwt>
<pdfrwt beam="2">  1        4 0.84288466E-02 0.12500059E+03</pdfrwt>
<pdfrwt beam="1">  1       -4 0.10969057E-01 0.12500059E+03</pdfrwt>
<totfact> 0.10428925E+04</totfact>
</mgrwt>
</event>
<event>
 5    1  0.3206158E-002  0.1250006E+03  0.7818608E-02  0.1235068E+00
         -4   -1    0    0    0  501 -0.00000000000E+00  0.00000000000E+00  0.22019667773E+03  0.22020034011E+03  0.12700000000E+01 0. -1.
          4   -1    0    0  501    0  0.00000000000E+00 -0.00000000000E+00 -0.17713445727E+02  0.17758914931E+02  0.12700000000E+01 0. -1.
         25    2    1    2    0    0  0.00000000000E+00  0.00000000000E+00  0.20248323201E+03  0.23795925504E+03  0.12500059126E+03 0.  0.
    9000005    1    3    3    0    0 -0.62117960441E+02  0.52023530380E+01  0.92817716963E+02  0.11181160078E+03  0.10000000000E+01 0.  0.
    9000005    1    3    3    0    0  0.62117960441E+02 -0.52023530380E+01  0.10966551504E+03  0.12614765426E+03  0.10000000000E+01 0.  0.
<mgrwt>
<rscale>  0 0.12500059E+03</rscale>
<asrwt>0</asrwt>
<pdfrwt beam="2">  1        4 0.27289250E-02 0.12500059E+03</pdfrwt>
<pdfrwt beam="1">  1       -4 0.33880189E-01 0.12500059E+03</pdfrwt>
<totfact> 0.84101134E+03</totfact>
</mgrwt>
</event>
<event>
 5    1  0.3206158E-002  0.1250006E+03  0.7818608E-02  0.1235068E+00
          4   -1    0    0  501    0  0.00000000000E+00  0.00000000000E+00  0.10118359874E+03  0.10119156859E+03  0.12700000000E+01 0. -1.
         -4   -1    0    0    0  501 -0.00000000000E+00 -0.00000000000E+00 -0.38585968417E+02  0.38606862845E+02  0.12700000000E+01 0. -1.
         25    2    1    2    0    0  0.00000000000E+00  0.00000000000E+00  0.62597630321E+02  0.13979843144E+03  0.12500055244E+03 0.  0.
    9000005    1    3    3    0    0 -0.30874773497E+02 -0.53786576511E+02  0.22705657369E+02  0.66051452125E+02  0.10000000000E+01 0.  0.
    9000005    1    3    3    0    0  0.30874773497E+02  0.53786576511E+02  0.39891972953E+02  0.73746979310E+02  0.10000000000E+01 0.  0.
<mgrwt>
<rscale>  0 0.12500055E+03</rscale>
<asrwt>0</asrwt>
<pdfrwt beam="1">  1        4 0.15568928E-01 0.12500055E+03</pdfrwt>
<pdfrwt beam="2">  1       -4 0.59385232E-02 0.12500055E+03</pdfrwt>
<totfact> 0.10137639E+04</totfact>
</mgrwt>
</event>
<event>
 5    1  0.3206158E-002  0.1250021E+03  0.7818608E-02  0.1235066E+00
         -4   -1    0    0    0  501 -0.00000000000E+00  0.00000000000E+00  0.12163501027E+03  0.12164164017E+03  0.12700000000E+01 0. -1.
          4   -1    0    0  501    0  0.00000000000E+00 -0.00000000000E+00 -0.32095527065E+02  0.32120643791E+02  0.12700000000E+01 0. -1.
         25    2    1    2    0    0  0.00000000000E+00  0.00000000000E+00  0.89539483207E+02  0.15376228396E+03  0.12500208365E+03 0.  0.
    9000005    1    3    3    0    0 -0.28080660285E+02  0.52750796945E+02  0.67257304908E+02  0.89976191983E+02  0.10000000000E+01 0.  0.
    9000005    1    3    3    0    0  0.28080660285E+02 -0.52750796945E+02  0.22282178299E+02  0.63786091980E+02  0.10000000000E+01 0.  0.
<mgrwt>
<rscale>  0 0.12500208E+03</rscale>
<asrwt>0</asrwt>
<pdfrwt beam="2">  1        4 0.49402154E-02 0.12500208E+03</pdfrwt>
<pdfrwt beam="1">  1       -4 0.18715521E-01 0.12500208E+03</pdfrwt>
<totfact> 0.98554341E+03</totfact>
</mgrwt>
</event>
<event>
 5    1  0.3206158E-002  0.1249998E+03  0.7818608E-02  0.1235070E+00
          4   -1    0    0  501    0  0.00000000000E+00  0.00000000000E+00  0.10392332265E+03  0.10393108241E+03  0.12700000000E+01 0.  1.
         -4   -1    0    0    0  501 -0.00000000000E+00 -0.00000000000E+00 -0.37567775442E+02  0.37589235849E+02  0.12700000000E+01 0.  1.
         25    2    1    2    0    0  0.00000000000E+00  0.00000000000E+00  0.66355547212E+02  0.14152031826E+03  0.12499976734E+03 0.  0.
    9000005    1    3    3    0    0  0.20332644471E+02 -0.44776640108E+02 -0.10478465014E+02  0.50290776088E+02  0.10000000000E+01 0.  0.
    9000005    1    3    3    0    0 -0.20332644471E+02  0.44776640108E+02  0.76834012225E+02  0.91229542173E+02  0.10000000000E+01 0.  0.
<mgrwt>
<rscale>  0 0.12499977E+03</rscale>
<asrwt>0</asrwt>
<pdfrwt beam="1">  1        4 0.15990451E-01 0.12499977E+03</pdfrwt>
<pdfrwt beam="2">  1       -4 0.57819055E-02 0.12499977E+03</pdfrwt>
<totfact> 0.10102226E+04</totfact>
</mgrwt>
</event>
<event>
 5    1  0.3206158E-002  0.1249992E+03  0.7818608E-02  0.1235070E+00
          4   -1    0    0  501    0  0.00000000000E+00  0.00000000000E+00  0.17189333068E+02  0.17236184941E+02  0.12700000000E+01 0.  1.
         -4   -1    0    0    0  501 -0.00000000000E+00 -0.00000000000E+00 -0.22688781408E+03  0.22689136845E+03  0.12700000000E+01 0.  1.
         25    2    1    2    0    0  0.00000000000E+00  0.00000000000E+00 -0.20969848101E+03  0.24412755339E+03  0.12499923754E+03 0.  0.
    9000005    1    3    3    0    0 -0.16842164018E+02 -0.19985691597E+02 -0.21571055398E+03  0.21729042652E+03  0.10000000000E+01 0.  0.
    9000005    1    3    3    0    0  0.16842164018E+02  0.19985691597E+02  0.60120729699E+01  0.26837126874E+02  0.10000000000E+01 0.  0.
<mgrwt>
<rscale>  0 0.12499924E+03</rscale>
<asrwt>0</asrwt>
<pdfrwt beam="1">  1        4 0.26483903E-02 0.12499924E+03</pdfrwt>
<pdfrwt beam="2">  1       -4 0.34909693E-01 0.12499924E+03</pdfrwt>
<totfact> 0.83187871E+03</totfact>
</mgrwt>
</event>
<event>
 5    1  0.3206158E-002  0.1250004E+03  0.7818608E-02  0.1235069E+00
          4   -1    0    0  501    0  0.00000000000E+00  0.00000000000E+00  0.16932830528E+03  0.16933306786E+03  0.12700000000E+01 0. -1.
         -4   -1    0    0    0  501 -0.00000000000E+00 -0.00000000000E+00 -0.23046660180E+02  0.23081625710E+02  0.12700000000E+01 0. -1.
         25    2    1    2    0    0  0.00000000000E+00  0.00000000000E+00  0.14628164510E+03  0.19241469357E+03  0.12500037843E+03 0.  0.
    9000005    1    3    3    0    0  0.48005283031E+02 -0.57649175425E+01  0.12196235585E+02  0.49874739453E+02  0.10000000000E+01 0.  0.
    9000005    1    3    3    0    0 -0.48005283031E+02  0.57649175425E+01  0.13408540952E+03  0.14253995412E+03  0.10000000000E+01 0.  0.
<mgrwt>
<rscale>  0 0.12500038E+03</rscale>
<asrwt>0</asrwt>
<pdfrwt beam="1">  1        4 0.26053563E-01 0.12500038E+03</pdfrwt>
<pdfrwt beam="2">  1       -4 0.35486962E-02 0.12500038E+03</pdfrwt>
<totfact> 0.91428082E+03</totfact>
</mgrwt>
</event>
<event>
 4    1  0.3206158E-002  0.1253034E+03  0.7818608E-02  0.1234596E+00
          4   -1    0    0  501    0  0.00000000000E+00  0.00000000000E+00  0.46300248445E+02  0.46317663003E+02  0.12700000000E+01 0. -1.
         -4   -1    0    0    0  501 -0.00000000000E+00 -0.00000000000E+00 -0.84739790410E+02  0.84749306657E+02  0.12700000000E+01 0. -1.
    9000005    1    1    2    0    0  0.26069392321E+02 -0.34833444493E+02 -0.66362268879E+02  0.79359516140E+02  0.10000000000E+01 0.  0.
    9000005    1    1    2    0    0 -0.26069392321E+02  0.34833444493E+02  0.27922726914E+02  0.51707453520E+02  0.10000000000E+01 0.  0.
<mgrwt>
<rscale>  0 0.12530344E+03</rscale>
<asrwt>0</asrwt>
<pdfrwt beam="1">  1        4 0.71251868E-02 0.12530344E+03</pdfrwt>
<pdfrwt beam="2">  1       -4 0.13038962E-01 0.12530344E+03</pdfrwt>
<totfact> 0.10251311E+04</totfact>
</mgrwt>
</event>
<event>
 5    1  0.3206158E-002  0.1250002E+03  0.7818608E-02  0.1235069E+00
          4   -1    0    0  501    0  0.00000000000E+00  0.00000000000E+00  0.10638827147E+03  0.10639585145E+03  0.12700000000E+01 0. -1.
         -4   -1    0    0    0  501 -0.00000000000E+00 -0.00000000000E+00 -0.36697177435E+02  0.36719146663E+02  0.12700000000E+01 0. -1.
         25    2    1    2    0    0  0.00000000000E+00  0.00000000000E+00  0.69691094034E+02  0.14311499811E+03  0.12500021639E+03 0.  0.
    9000005    1    3    3    0    0  0.34960721889E+01 -0.62170564135E+02  0.40888931251E+02  0.74500377613E+02  0.10000000000E+01 0.  0.
    9000005    1    3    3    0    0 -0.34960721889E+01  0.62170564135E+02  0.28802162783E+02  0.68614620502E+02  0.10000000000E+01 0.  0.
<mgrwt>
<rscale>  0 0.12500022E+03</rscale>
<asrwt>0</asrwt>
<pdfrwt beam="1">  1        4 0.16369699E-01 0.12500022E+03</pdfrwt>
<pdfrwt beam="2">  1       -4 0.56479927E-02 0.12500022E+03</pdfrwt>
<totfact> 0.10069380E+04</totfact>
</mgrwt>
</event>
<event>
 5    1  0.3206158E-002  0.1250014E+03  0.7818608E-02  0.1235067E+00
         -4   -1    0    0    0  501 -0.00000000000E+00  0.00000000000E+00  0.37007048549E+02  0.37028833931E+02  0.12700000000E+01 0. -1.
          4   -1    0    0  501    0  0.00000000000E+00 -0.00000000000E+00 -0.10549984436E+03  0.10550748817E+03  0.12700000000E+01 0. -1.
         25    2    1    2    0    0  0.00000000000E+00  0.00000000000E+00 -0.68492795810E+02  0.14253632210E+03  0.12500136015E+03 0.  0.
    9000005    1    3    3    0    0  0.21644264691E+02  0.41834263629E+02 -0.81077765336E+02  0.93771977900E+02  0.10000000000E+01 0.  0.
    9000005    1    3    3    0    0 -0.21644264691E+02 -0.41834263629E+02  0.12584969525E+02  0.48764344201E+02  0.10000000000E+01 0.  0.
<mgrwt>
<rscale>  0 0.12500136E+03</rscale>
<asrwt>0</asrwt>
<pdfrwt beam="2">  1        4 0.16233009E-01 0.12500136E+03</pdfrwt>
<pdfrwt beam="1">  1       -4 0.56956559E-02 0.12500136E+03</pdfrwt>
<totfact> 0.10080978E+04</totfact>
</mgrwt>
</event>
<event>
 5    1  0.3206158E-002  0.1249988E+03  0.7818608E-02  0.1235071E+00
          4   -1    0    0  501    0  0.00000000000E+00  0.00000000000E+00  0.17408948005E+03  0.17409411238E+03  0.12700000000E+01 0. -1.
         -4   -1    0    0    0  501 -0.00000000000E+00 -0.00000000000E+00 -0.22414843854E+02  0.22450793416E+02  0.12700000000E+01 0. -1.
         25    2    1    2    0    0  0.00000000000E+00  0.00000000000E+00  0.15167463620E+03  0.19654490579E+03  0.12499881890E+03 0.  0.
    9000005    1    3    3    0    0 -0.60532224974E+02  0.83336611302E+01  0.55241257107E+02  0.82378374923E+02  0.10000000000E+01 0.  0.
    9000005    1    3    3    0    0  0.60532224974E+02 -0.83336611302E+01  0.96433379089E+02  0.11416653087E+03  0.10000000000E+01 0.  0.
<mgrwt>
<rscale>  0 0.12499882E+03</rscale>
<asrwt>0</asrwt>
<pdfrwt beam="1">  1        4 0.26786119E-01 0.12499882E+03</pdfrwt>
<pdfrwt beam="2">  1       -4 0.34515592E-02 0.12499882E+03</pdfrwt>
<totfact> 0.90723226E+03</totfact>
</mgrwt>
</event>
<event>
 5    1  0.3206158E-002  0.1250070E+03  0.7818608E-02  0.1235058E+00
         -4   -1    0    0    0  501 -0.00000000000E+00  0.00000000000E+00  0.61775770181E+03  0.61775900726E+03  0.12700000000E+01 0. -1.
          4   -1    0    0  501    0  0.00000000000E+00 -0.00000000000E+00 -0.62588928177E+01  0.63864418344E+01  0.12700000000E+01 0. -1.
         25    2    1    2    0    0  0.00000000000E+00  0.00000000000E+00  0.61149880899E+03  0.62414544909E+03  0.12500699269E+03 0.  0.
    9000005    1    3    3    0    0 -0.54792500818E+02  0.28671701745E+02  0.26070195766E+03  0.26793804387E+03  0.10000000000E+01 0.  0.
    9000005    1    3    3    0    0  0.54792500818E+02 -0.28671701745E+02  0.35079685133E+03  0.35620740522E+03  0.10000000000E+01 0.  0.
<mgrwt>
<rscale>  0 0.12500699E+03</rscale>
<asrwt>0</asrwt>
<pdfrwt beam="2">  1        4 0.97281820E-03 0.12500699E+03</pdfrwt>
<pdfrwt beam="1">  1       -4 0.95049585E-01 0.12500699E+03</pdfrwt>
<totfact> 0.47370838E+03</totfact>
</mgrwt>
</event>
<event>
 5    1  0.3206158E-002  0.1250112E+03  0.7818608E-02  0.1235052E+00
         -4   -1    0    0    0  501 -0.00000000000E+00  0.00000000000E+00  0.76764503235E+02  0.76775008023E+02  0.12700000000E+01 0. -1.
          4   -1    0    0  501    0  0.00000000000E+00 -0.00000000000E+00 -0.50873368318E+02  0.50889217955E+02  0.12700000000E+01 0. -1.
         25    2    1    2    0    0  0.00000000000E+00  0.00000000000E+00  0.25891134916E+02  0.12766422598E+03  0.12501121441E+03 0.  0.
    9000005    1    3    3    0    0  0.87893333097E+01 -0.13771763611E+02  0.74550215786E+02  0.76325936134E+02  0.10000000000E+01 0.  0.
    9000005    1    3    3    0    0 -0.87893333097E+01  0.13771763611E+02 -0.48659080870E+02  0.51338289844E+02  0.10000000000E+01 0.  0.
<mgrwt>
<rscale>  0 0.12501121E+03</rscale>
<asrwt>0</asrwt>
<pdfrwt beam="2">  1        4 0.78286993E-02 0.12501121E+03</pdfrwt>
<pdfrwt beam="1">  1       -4 0.11811951E-01 0.12501121E+03</pdfrwt>
<totfact> 0.10392114E+04</totfact>
</mgrwt>
</event>
<event>
 5    1  0.3206158E-002  0.1250018E+03  0.7818608E-02  0.1235066E+00
         -4   -1    0    0    0  501 -0.00000000000E+00  0.00000000000E+00  0.13346842316E+02  0.13407128694E+02  0.12700000000E+01 0. -1.
          4   -1    0    0  501    0  0.00000000000E+00 -0.00000000000E+00 -0.29195958090E+03  0.29196234308E+03  0.12700000000E+01 0. -1.
         25    2    1    2    0    0  0.00000000000E+00  0.00000000000E+00 -0.27861273858E+03  0.30536947178E+03  0.12500182476E+03 0.  0.
    9000005    1    3    3    0    0 -0.10892473571E+02 -0.16115672178E+02  0.57751819580E+01  0.20315353723E+02  0.10000000000E+01 0.  0.
    9000005    1    3    3    0    0  0.10892473571E+02  0.16115672178E+02 -0.28438792054E+03  0.28505411805E+03  0.10000000000E+01 0.  0.
<mgrwt>
<rscale>  0 0.12500182E+03</rscale>
<asrwt>0</asrwt>
<pdfrwt beam="2">  1        4 0.44921703E-01 0.12500182E+03</pdfrwt>
<pdfrwt beam="1">  1       -4 0.20582105E-02 0.12500182E+03</pdfrwt>
<totfact> 0.74927169E+03</totfact>
</mgrwt>
</event>
<event>
 5    1  0.3206158E-002  0.1249977E+03  0.7818608E-02  0.1235073E+00
         -4   -1    0    0    0  501 -0.00000000000E+00  0.00000000000E+00  0.17014852045E+03  0.17015326007E+03  0.12700000000E+01 0.  1.
          4   -1    0    0  501    0  0.00000000000E+00 -0.00000000000E+00 -0.22934412691E+02  0.22969549092E+02  0.12700000000E+01 0.  1.
         25    2    1    2    0    0  0.00000000000E+00  0.00000000000E+00  0.14721410776E+03  0.19312280916E+03  0.12499770356E+03 0.  0.
    9000005    1    3    3    0    0  0.50838300984E+02 -0.33045249749E+02  0.96966120795E+02  0.11436760888E+03  0.10000000000E+01 0.  0.
    9000005    1    3    3    0    0 -0.50838300984E+02  0.33045249749E+02  0.50247986968E+02  0.78755200287E+02  0.10000000000E+01 0.  0.
<mgrwt>
<rscale>  0 0.12499770E+03</rscale>
<asrwt>0</asrwt>
<pdfrwt beam="2">  1        4 0.35314385E-02 0.12499770E+03</pdfrwt>
<pdfrwt beam="1">  1       -4 0.26179763E-01 0.12499770E+03</pdfrwt>
<totfact> 0.91311472E+03</totfact>
</mgrwt>
</event>
<event>
 5    1  0.3206158E-002  0.1250004E+03  0.7818608E-02  0.1235069E+00
         -4   -1    0    0    0  501 -0.00000000000E+00  0.00000000000E+00  0.15638831743E+02  0.15690314155E+02  0.12700000000E+01 0. -1.
          4   -1    0    0  501    0  0.00000000000E+00 -0.00000000000E+00 -0.24931686327E+03  0.24932009789E+03  0.12700000000E+01 0. -1.
         25    2    1    2    0    0  0.00000000000E+00  0.00000000000E+00 -0.23367803153E+03  0.26501041204E+03  0.12500038429E+03 0.  0.
    9000005    1    3    3    0    0  0.49992223164E+01  0.37714792023E+02 -0.22194600508E+03  0.22518531687E+03  0.10000000000E+01 0.  0.
    9000005    1    3    3    0    0 -0.49992223164E+01 -0.37714792023E+02 -0.11732026442E+02  0.39825095173E+02  0.10000000000E+01 0.  0.
<mgrwt>
<rscale>  0 0.12500038E+03</rscale>
<asrwt>0</asrwt>
<pdfrwt beam="2">  1        4 0.38360647E-01 0.12500038E+03</pdfrwt>
<pdfrwt beam="1">  1       -4 0.24101833E-02 0.12500038E+03</pdfrwt>
<totfact> 0.80207338E+03</totfact>
</mgrwt>
</event>
<event>
 5    1  0.3206158E-002  0.1249918E+03  0.7818608E-02  0.1235082E+00
         -4   -1    0    0    0  501 -0.00000000000E+00  0.00000000000E+00  0.52093462739E+01  0.53619202346E+01  0.12700000000E+01 0.  1.
          4   -1    0    0  501    0  0.00000000000E+00 -0.00000000000E+00 -0.73878179983E+03  0.73878289143E+03  0.12700000000E+01 0.  1.
         25    2    1    2    0    0  0.00000000000E+00  0.00000000000E+00 -0.73357245356E+03  0.74414481166E+03  0.12499182414E+03 0.  0.
    9000005    1    3    3    0    0 -0.53552307894E+02  0.19445433913E+02 -0.21398004381E+03  0.22143720042E+03  0.10000000000E+01 0.  0.
    9000005    1    3    3    0    0  0.53552307894E+02 -0.19445433913E+02 -0.51959240975E+03  0.52270761124E+03  0.10000000000E+01 0.  0.
<mgrwt>
<rscale>  0 0.12499182E+03</rscale>
<asrwt>0</asrwt>
<pdfrwt beam="2">  1        4 0.11367048E+00 0.12499182E+03</pdfrwt>
<pdfrwt beam="1">  1       -4 0.81325890E-03 0.12499182E+03</pdfrwt>
<totfact> 0.40863096E+03</totfact>
</mgrwt>
</event>
<event>
 5    1  0.3206158E-002  0.1250037E+03  0.7818608E-02  0.1235064E+00
         -4   -1    0    0    0  501 -0.00000000000E+00  0.00000000000E+00  0.41081484594E+03  0.41081680898E+03  0.12700000000E+01 0.  1.
          4   -1    0    0  501    0  0.00000000000E+00 -0.00000000000E+00 -0.94646990346E+01  0.95495250047E+01  0.12700000000E+01 0.  1.
         25    2    1    2    0    0  0.00000000000E+00  0.00000000000E+00  0.40135014690E+03  0.42036633399E+03  0.12500365727E+03 0.  0.
    9000005    1    3    3    0    0  0.34497523833E+02  0.20236613067E+02  0.39193319583E+02  0.56006392126E+02  0.10000000000E+01 0.  0.
    9000005    1    3    3    0    0 -0.34497523833E+02 -0.20236613067E+02  0.36215682732E+03  0.36435994186E+03  0.10000000000E+01 0.  0.
<mgrwt>
<rscale>  0 0.12500366E+03</rscale>
<asrwt>0</asrwt>
<pdfrwt beam="2">  1        4 0.14627839E-02 0.12500366E+03</pdfrwt>
<pdfrwt beam="1">  1       -4 0.63208947E-01 0.12500366E+03</pdfrwt>
<totfact> 0.62613993E+03</totfact>
</mgrwt>
</event>
<event>
 5    1  0.3206158E-002  0.1249887E+03  0.7818608E-02  0.1235087E+00
          4   -1    0    0  501    0  0.00000000000E+00  0.00000000000E+00  0.90173023840E+02  0.90181966759E+02  0.12700000000E+01 0.  1.
         -4   -1    0    0    0  501 -0.00000000000E+00 -0.00000000000E+00 -0.43291261078E+02  0.43309885542E+02  0.12700000000E+01 0.  1.
         25    2    1    2    0    0  0.00000000000E+00  0.00000000000E+00  0.46881762762E+02  0.13349185230E+03  0.12498869929E+03 0.  0.
    9000005    1    3    3    0    0 -0.39083688213E+02  0.48395822938E+02  0.29746191243E+02  0.68960323779E+02  0.10000000000E+01 0.  0.
    9000005    1    3    3    0    0  0.39083688213E+02 -0.48395822938E+02  0.17135571519E+02  0.64531528522E+02  0.10000000000E+01 0.  0.
<mgrwt>
<rscale>  0 0.12498870E+03</rscale>
<asrwt>0</asrwt>
<pdfrwt beam="1">  1        4 0.13874893E-01 0.12498870E+03</pdfrwt>
<pdfrwt beam="2">  1       -4 0.66623146E-02 0.12498870E+03</pdfrwt>
<totfact> 0.10272576E+04</totfact>
</mgrwt>
</event>
<event>
 5    1  0.3206158E-002  0.1250004E+03  0.7818608E-02  0.1235069E+00
          4   -1    0    0  501    0  0.00000000000E+00  0.00000000000E+00  0.15248534297E+02  0.15301329949E+02  0.12700000000E+01 0.  1.
         -4   -1    0    0    0  501 -0.00000000000E+00 -0.00000000000E+00 -0.25567655519E+03  0.25567970935E+03  0.12700000000E+01 0.  1.
         25    2    1    2    0    0  0.00000000000E+00  0.00000000000E+00 -0.24042802089E+03  0.27098103930E+03  0.12500036172E+03 0.  0.
    9000005    1    3    3    0    0  0.45357155386E+01 -0.61735653208E+02 -0.10164014341E+03  0.11901084970E+03  0.10000000000E+01 0.  0.
    9000005    1    3    3    0    0 -0.45357155386E+01  0.61735653208E+02 -0.13878787748E+03  0.15197018960E+03  0.10000000000E+01 0.  0.
<mgrwt>
<rscale>  0 0.12500036E+03</rscale>
<asrwt>0</asrwt>
<pdfrwt beam="1">  1        4 0.23502324E-02 0.12500036E+03</pdfrwt>
<pdfrwt beam="2">  1       -4 0.39339155E-01 0.12500036E+03</pdfrwt>
<totfact> 0.79388668E+03</totfact>
</mgrwt>
</event>
<event>
 5    1  0.3206158E-002  0.1250031E+03  0.7818608E-02  0.1235064E+00
          4   -1    0    0  501    0  0.00000000000E+00  0.00000000000E+00  0.36385362960E+01  0.38538093333E+01  0.12700000000E+01 0.  1.
         -4   -1    0    0    0  501 -0.00000000000E+00 -0.00000000000E+00 -0.10425662474E+04  0.10425670209E+04  0.12700000000E+01 0.  1.
         25    2    1    2    0    0  0.00000000000E+00  0.00000000000E+00 -0.10389277111E+04  0.10464208303E+04  0.12500306035E+03 0.  0.
    9000005    1    3    3    0    0  0.16134377928E+02  0.46422189121E+02 -0.19632145636E+03  0.20238194588E+03  0.10000000000E+01 0.  0.
    9000005    1    3    3    0    0 -0.16134377928E+02 -0.46422189121E+02 -0.84260625477E+03  0.84403888439E+03  0.10000000000E+01 0.  0.
<mgrwt>
<rscale>  0 0.12500306E+03</rscale>
<asrwt>0</asrwt>
<pdfrwt beam="1">  1        4 0.57639461E-03 0.12500306E+03</pdfrwt>
<pdfrwt beam="2">  1       -4 0.16041119E+00 0.12500306E+03</pdfrwt>
<totfact> 0.29104890E+03</totfact>
</mgrwt>
</event>
<event>
 5    1  0.3206158E-002  0.1249991E+03  0.7818608E-02  0.1235071E+00
          4   -1    0    0  501    0  0.00000000000E+00  0.00000000000E+00  0.12455847967E+03  0.12456495397E+03  0.12700000000E+01 0.  1.
         -4   -1    0    0    0  501 -0.00000000000E+00 -0.00000000000E+00 -0.31340161201E+02  0.31365882804E+02  0.12700000000E+01 0.  1.
         25    2    1    2    0    0  0.00000000000E+00  0.00000000000E+00  0.93218318469E+02  0.15593083677E+03  0.12499908383E+03 0.  0.
    9000005    1    3    3    0    0 -0.62482526452E+02 -0.97048922467E+00  0.47145389037E+02  0.78285986413E+02  0.10000000000E+01 0.  0.
    9000005    1    3    3    0    0  0.62482526452E+02  0.97048922467E+00  0.46072929432E+02  0.77644850362E+02  0.10000000000E+01 0.  0.
<mgrwt>
<rscale>  0 0.12499908E+03</rscale>
<asrwt>0</asrwt>
<pdfrwt beam="1">  1        4 0.19165319E-01 0.12499908E+03</pdfrwt>
<pdfrwt beam="2">  1       -4 0.48240400E-02 0.12499908E+03</pdfrwt>
<totfact> 0.98135096E+03</totfact>
</mgrwt>
</event>
<event>
 5    1  0.3206158E-002  0.1250258E+03  0.7818608E-02  0.1235029E+00
          4   -1    0    0  501    0  0.00000000000E+00  0.00000000000E+00  0.66426722301E+02  0.66438861637E+02  0.12700000000E+01 0.  1.
         -4   -1    0    0    0  501 -0.00000000000E+00 -0.00000000000E+00 -0.58805346853E+02  0.58819059144E+02  0.12700000000E+01 0.  1.
         25    2    1    2    0    0  0.00000000000E+00  0.00000000000E+00  0.76213754475E+01  0.12525792078E+03  0.12502584275E+03 0.  0.
    9000005    1    3    3    0    0 -0.46820833399E+02  0.19732314976E+02  0.40283080039E+02  0.64848139773E+02  0.10000000000E+01 0.  0.
    9000005    1    3    3    0    0  0.46820833399E+02 -0.19732314976E+02 -0.32661704592E+02  0.60409781008E+02  0.10000000000E+01 0.  0.
<mgrwt>
<rscale>  0 0.12502584E+03</rscale>
<asrwt>0</asrwt>
<pdfrwt beam="1">  1        4 0.10221484E-01 0.12502584E+03</pdfrwt>
<pdfrwt beam="2">  1       -4 0.90489651E-02 0.12502584E+03</pdfrwt>
<totfact> 0.10441164E+04</totfact>
</mgrwt>
</event>
<event>
 5    1  0.3206158E-002  0.1249995E+03  0.7818608E-02  0.1235070E+00
          4   -1    0    0  501    0  0.00000000000E+00  0.00000000000E+00  0.19229034935E+03  0.19229454322E+03  0.12700000000E+01 0.  1.
         -4   -1    0    0    0  501 -0.00000000000E+00 -0.00000000000E+00 -0.20289889229E+02  0.20329596772E+02  0.12700000000E+01 0.  1.
         25    2    1    2    0    0  0.00000000000E+00  0.00000000000E+00  0.17200046012E+03  0.21262413999E+03  0.12499946650E+03 0.  0.
    9000005    1    3    3    0    0  0.55699396528E+02 -0.12599086570E+02  0.12916868744E+03  0.14123282044E+03  0.10000000000E+01 0.  0.
    9000005    1    3    3    0    0 -0.55699396528E+02  0.12599086570E+02  0.42831772681E+02  0.71391319549E+02  0.10000000000E+01 0.  0.
<mgrwt>
<rscale>  0 0.12499947E+03</rscale>
<asrwt>0</asrwt>
<pdfrwt beam="1">  1        4 0.29586507E-01 0.12499947E+03</pdfrwt>
<pdfrwt beam="2">  1       -4 0.31248985E-02 0.12499947E+03</pdfrwt>
<totfact> 0.88050159E+03</totfact>
</mgrwt>
</event>
<event>
 5    1  0.3206158E-002  0.1249987E+03  0.7818608E-02  0.1235071E+00
         -4   -1    0    0    0  501 -0.00000000000E+00  0.00000000000E+00  0.13144950248E+02  0.13206158299E+02  0.12700000000E+01 0. -1.
          4   -1    0    0  501    0  0.00000000000E+00 -0.00000000000E+00 -0.29640843066E+03  0.29641115138E+03  0.12700000000E+01 0. -1.
         25    2    1    2    0    0  0.00000000000E+00  0.00000000000E+00 -0.28326348041E+03  0.30961730968E+03  0.12499871648E+03 0.  0.
    9000005    1    3    3    0    0  0.33302387137E+02  0.52510907996E+02 -0.12621767263E+03  0.14070659307E+03  0.10000000000E+01 0.  0.
    9000005    1    3    3    0    0 -0.33302387137E+02 -0.52510907996E+02 -0.15704580778E+03  0.16891071662E+03  0.10000000000E+01 0.  0.
<mgrwt>
<rscale>  0 0.12499872E+03</rscale>
<asrwt>0</asrwt>
<pdfrwt beam="2">  1        4 0.45606210E-01 0.12499872E+03</pdfrwt>
<pdfrwt beam="1">  1       -4 0.20272179E-02 0.12499872E+03</pdfrwt>
<totfact> 0.74410204E+03</totfact>
</mgrwt>
</event>
<event>
 5    1  0.3206158E-002  0.1249936E+03  0.7818608E-02  0.1235079E+00
         -4   -1    0    0    0  501 -0.00000000000E+00  0.00000000000E+00  0.13375996223E+03  0.13376599118E+03  0.12700000000E+01 0. -1.
          4   -1    0    0  501    0  0.00000000000E+00 -0.00000000000E+00 -0.29179941319E+02  0.29207565380E+02  0.12700000000E+01 0. -1.
         25    2    1    2    0    0  0.00000000000E+00  0.00000000000E+00  0.10458002092E+03  0.16297355656E+03  0.12499359729E+03 0.  0.
    9000005    1    3    3    0    0 -0.15410360295E+02  0.45057396621E+02  0.10504705550E+03  0.11534093837E+03  0.10000000000E+01 0.  0.
    9000005    1    3    3    0    0  0.15410360295E+02 -0.45057396621E+02 -0.46703458350E+00  0.47632618194E+02  0.10000000000E+01 0.  0.
<mgrwt>
<rscale>  0 0.12499360E+03</rscale>
<asrwt>0</asrwt>
<pdfrwt beam="2">  1        4 0.44918105E-02 0.12499360E+03</pdfrwt>
<pdfrwt beam="1">  1       -4 0.20581044E-01 0.12499360E+03</pdfrwt>
<totfact> 0.96786475E+03</totfact>
</mgrwt>
</event>
<event>
 5    1  0.3206158E-002  0.1249983E+03  0.7818608E-02  0.1235072E+00
         -4   -1    0    0    0  501 -0.00000000000E+00  0.00000000000E+00  0.14298922941E+03  0.14299486924E+03  0.12700000000E+01 0.  1.
          4   -1    0    0  501    0  0.00000000000E+00 -0.00000000000E+00 -0.27296788970E+02  0.27326316767E+02  0.12700000000E+01 0.  1.
         25    2    1    2    0    0  0.00000000000E+00  0.00000000000E+00  0.11569244044E+03  0.17032118601E+03  0.12499826249E+03 0.  0.
    9000005    1    3    3    0    0  0.10249851682E+02 -0.31173977187E+01  0.14173524447E+03  0.14214308690E+03  0.10000000000E+01 0.  0.
    9000005    1    3    3    0    0 -0.10249851682E+02  0.31173977187E+01 -0.26042804023E+02  0.28178099110E+02  0.10000000000E+01 0.  0.
<mgrwt>
<rscale>  0 0.12499826E+03</rscale>
<asrwt>0</asrwt>
<pdfrwt beam="2">  1        4 0.42022112E-02 0.12499826E+03</pdfrwt>
<pdfrwt beam="1">  1       -4 0.22001048E-01 0.12499826E+03</pdfrwt>
<totfact> 0.95392525E+03</totfact>
</mgrwt>
</event>
<event>
 5    1  0.3206158E-002  0.1249989E+03  0.7818608E-02  0.1235071E+00
          4   -1    0    0  501    0  0.00000000000E+00  0.00000000000E+00  0.55471007054E+02  0.55485543375E+02  0.12700000000E+01 0. -1.
         -4   -1    0    0    0  501 -0.00000000000E+00 -0.00000000000E+00 -0.70388889372E+02  0.70400345503E+02  0.12700000000E+01 0. -1.
         25    2    1    2    0    0  0.00000000000E+00  0.00000000000E+00 -0.14917882317E+02  0.12588588888E+03  0.12499885522E+03 0.  0.
    9000005    1    3    3    0    0 -0.27399948112E+02 -0.30191314803E+02 -0.55154345259E+02  0.68595003076E+02  0.10000000000E+01 0.  0.
    9000005    1    3    3    0    0  0.27399948112E+02  0.30191314803E+02  0.40236462941E+02  0.57290885803E+02  0.10000000000E+01 0.  0.
<mgrwt>
<rscale>  0 0.12499886E+03</rscale>
<asrwt>0</asrwt>
<pdfrwt beam="1">  1        4 0.85360005E-02 0.12499886E+03</pdfrwt>
<pdfrwt beam="2">  1       -4 0.10831059E-01 0.12499886E+03</pdfrwt>
<totfact> 0.10433729E+04</totfact>
</mgrwt>
</event>
<event>
 5    1  0.3206158E-002  0.1250076E+03  0.7818608E-02  0.1235057E+00
         -4   -1    0    0    0  501 -0.00000000000E+00  0.00000000000E+00  0.58565552802E+01  0.59926738398E+01  0.12700000000E+01 0. -1.
          4   -1    0    0  501    0  0.00000000000E+00 -0.00000000000E+00 -0.65926945288E+03  0.65927067613E+03  0.12700000000E+01 0. -1.
         25    2    1    2    0    0  0.00000000000E+00  0.00000000000E+00 -0.65341289760E+03  0.66526334997E+03  0.12500764000E+03 0.  0.
    9000005    1    3    3    0    0 -0.20178848777E+02  0.40040756879E+02 -0.55838917734E+03  0.56018739857E+03  0.10000000000E+01 0.  0.
    9000005    1    3    3    0    0  0.20178848777E+02 -0.40040756879E+02 -0.95023720266E+02  0.10507595140E+03  0.10000000000E+01 0.  0.
<mgrwt>
<rscale>  0 0.12500764E+03</rscale>
<asrwt>0</asrwt>
<pdfrwt beam="2">  1        4 0.10143658E+00 0.12500764E+03</pdfrwt>
<pdfrwt beam="1">  1       -4 0.91157378E-03 0.12500764E+03</pdfrwt>
<totfact> 0.44977351E+03</totfact>
</mgrwt>
</event>
<event>
 5    1  0.3206158E-002  0.1250022E+03  0.7818608E-02  0.1235066E+00
         -4   -1    0    0    0  501 -0.00000000000E+00  0.00000000000E+00  0.30276623266E+02  0.30303247621E+02  0.12700000000E+01 0. -1.
          4   -1    0    0  501    0  0.00000000000E+00 -0.00000000000E+00 -0.12893674269E+03  0.12894299715E+03  0.12700000000E+01 0. -1.
         25    2    1    2    0    0  0.00000000000E+00  0.00000000000E+00 -0.98660119420E+02  0.15924624477E+03  0.12500218922E+03 0.  0.
    9000005    1    3    3    0    0 -0.43044582531E+02 -0.23807771753E+02 -0.98434763753E+02  0.11004566687E+03  0.10000000000E+01 0.  0.
    9000005    1    3    3    0    0  0.43044582531E+02  0.23807771753E+02 -0.22535566706E+00  0.49200577906E+02  0.10000000000E+01 0.  0.
<mgrwt>
<rscale>  0 0.12500219E+03</rscale>
<asrwt>0</asrwt>
<pdfrwt beam="2">  1        4 0.19838951E-01 0.12500219E+03</pdfrwt>
<pdfrwt beam="1">  1       -4 0.46604713E-02 0.12500219E+03</pdfrwt>
<totfact> 0.97483503E+03</totfact>
</mgrwt>
</event>
<event>
 5    1  0.3206158E-002  0.1250017E+03  0.7818608E-02  0.1235067E+00
         -4   -1    0    0    0  501 -0.00000000000E+00  0.00000000000E+00  0.51464558081E+02  0.51480225704E+02  0.12700000000E+01 0.  1.
          4   -1    0    0  501    0  0.00000000000E+00 -0.00000000000E+00 -0.75871269894E+02  0.75881898338E+02  0.12700000000E+01 0.  1.
         25    2    1    2    0    0  0.00000000000E+00  0.00000000000E+00 -0.24406711813E+02  0.12736212404E+03  0.12500169222E+03 0.  0.
    9000005    1    3    3    0    0 -0.54827537211E+02  0.29949700920E+02 -0.13752709393E+02  0.63977968376E+02  0.10000000000E+01 0.  0.
    9000005    1    3    3    0    0  0.54827537211E+02 -0.29949700920E+02 -0.10654002420E+02  0.63384155666E+02  0.10000000000E+01 0.  0.
<mgrwt>
<rscale>  0 0.12500169E+03</rscale>
<asrwt>0</asrwt>
<pdfrwt beam="2">  1        4 0.11674526E-01 0.12500169E+03</pdfrwt>
<pdfrwt beam="1">  1       -4 0.79196471E-02 0.12500169E+03</pdfrwt>
<totfact> 0.10400890E+04</totfact>
</mgrwt>
</event>
<event>
 5    1  0.3206158E-002  0.1250045E+03  0.7818608E-02  0.1235062E+00
          4   -1    0    0  501    0  0.00000000000E+00  0.00000000000E+00  0.86918247738E+02  0.86927525501E+02  0.12700000000E+01 0.  1.
         -4   -1    0    0    0  501 -0.00000000000E+00 -0.00000000000E+00 -0.44924254083E+02  0.44942201825E+02  0.12700000000E+01 0.  1.
         25    2    1    2    0    0  0.00000000000E+00  0.00000000000E+00  0.41993993655E+02  0.13186972733E+03  0.12500451785E+03 0.  0.
    9000005    1    3    3    0    0  0.44876768447E+02  0.41318553113E+02  0.35321594066E+02  0.70496540234E+02  0.10000000000E+01 0.  0.
    9000005    1    3    3    0    0 -0.44876768447E+02 -0.41318553113E+02  0.66723995887E+01  0.61373187093E+02  0.10000000000E+01 0.  0.
<mgrwt>
<rscale>  0 0.12500452E+03</rscale>
<asrwt>0</asrwt>
<pdfrwt beam="1">  1        4 0.13374132E-01 0.12500452E+03</pdfrwt>
<pdfrwt beam="2">  1       -4 0.69135180E-02 0.12500452E+03</pdfrwt>
<totfact> 0.10303430E+04</totfact>
</mgrwt>
</event>
<event>
 5    1  0.3206158E-002  0.1249890E+03  0.7818608E-02  0.1235086E+00
          4   -1    0    0  501    0  0.00000000000E+00  0.00000000000E+00  0.12900354132E+02  0.12962717182E+02  0.12700000000E+01 0. -1.
         -4   -1    0    0    0  501 -0.00000000000E+00 -0.00000000000E+00 -0.30195487056E+03  0.30195754131E+03  0.12700000000E+01 0. -1.
         25    2    1    2    0    0  0.00000000000E+00  0.00000000000E+00 -0.28905451643E+03  0.31492025850E+03  0.12498902249E+03 0.  0.
    9000005    1    3    3    0    0  0.46916149714E+02  0.33433888868E+02 -0.83554699797E+02  0.10149550673E+03  0.10000000000E+01 0.  0.
    9000005    1    3    3    0    0 -0.46916149714E+02 -0.33433888868E+02 -0.20549981663E+03  0.21342475176E+03  0.10000000000E+01 0.  0.
<mgrwt>
<rscale>  0 0.12498902E+03</rscale>
<asrwt>0</asrwt>
<pdfrwt beam="1">  1        4 0.19896727E-02 0.12498902E+03</pdfrwt>
<pdfrwt beam="2">  1       -4 0.46459593E-01 0.12498902E+03</pdfrwt>
<totfact> 0.73782354E+03</totfact>
</mgrwt>
</event>
<event>
 5    1  0.3206158E-002  0.1250002E+03  0.7818608E-02  0.1235069E+00
          4   -1    0    0  501    0  0.00000000000E+00  0.00000000000E+00  0.12307195089E+02  0.12372548281E+02  0.12700000000E+01 0. -1.
         -4   -1    0    0    0  501 -0.00000000000E+00 -0.00000000000E+00 -0.31648933736E+03  0.31649188546E+03  0.12700000000E+01 0. -1.
         25    2    1    2    0    0  0.00000000000E+00  0.00000000000E+00 -0.30418214227E+03  0.32886443374E+03  0.12500016041E+03 0.  0.
    9000005    1    3    3    0    0 -0.19911764617E+02 -0.30709017598E+02 -0.28535495967E+03  0.28769423898E+03  0.10000000000E+01 0.  0.
    9000005    1    3    3    0    0  0.19911764617E+02  0.30709017598E+02 -0.18827182595E+02  0.41170194759E+02  0.10000000000E+01 0.  0.
<mgrwt>
<rscale>  0 0.12500016E+03</rscale>
<asrwt>0</asrwt>
<pdfrwt beam="1">  1        4 0.18986380E-02 0.12500016E+03</pdfrwt>
<pdfrwt beam="2">  1       -4 0.48695884E-01 0.12500016E+03</pdfrwt>
<totfact> 0.72113823E+03</totfact>
</mgrwt>
</event>
<event>
 5    1  0.3206158E-002  0.1249952E+03  0.7818608E-02  0.1235077E+00
         -4   -1    0    0    0  501 -0.00000000000E+00  0.00000000000E+00  0.64265508167E+01  0.65508362367E+01  0.12700000000E+01 0. -1.
          4   -1    0    0  501    0  0.00000000000E+00 -0.00000000000E+00 -0.60183708451E+03  0.60183842448E+03  0.12700000000E+01 0. -1.
         25    2    1    2    0    0  0.00000000000E+00  0.00000000000E+00 -0.59541053369E+03  0.60838926072E+03  0.12499515564E+03 0.  0.
    9000005    1    3    3    0    0 -0.59320676044E+02  0.93322346833E+01 -0.38185669722E+03  0.38655086395E+03  0.10000000000E+01 0.  0.
    9000005    1    3    3    0    0  0.59320676044E+02 -0.93322346833E+01 -0.21355383647E+03  0.22183839677E+03  0.10000000000E+01 0.  0.
<mgrwt>
<rscale>  0 0.12499516E+03</rscale>
<asrwt>0</asrwt>
<pdfrwt beam="2">  1        4 0.92599941E-01 0.12499516E+03</pdfrwt>
<pdfrwt beam="1">  1       -4 0.99836409E-03 0.12499516E+03</pdfrwt>
<totfact> 0.48347453E+03</totfact>
</mgrwt>
</event>
<event>
 5    1  0.3206158E-002  0.1249989E+03  0.7818608E-02  0.1235071E+00
          4   -1    0    0  501    0  0.00000000000E+00  0.00000000000E+00  0.36952139094E+03  0.36952357335E+03  0.12700000000E+01 0. -1.
         -4   -1    0    0    0  501 -0.00000000000E+00 -0.00000000000E+00 -0.10530548144E+02  0.10606853643E+02  0.12700000000E+01 0. -1.
         25    2    1    2    0    0  0.00000000000E+00  0.00000000000E+00  0.35899084280E+03  0.38013042700E+03  0.12499886526E+03 0.  0.
    9000005    1    3    3    0    0 -0.44878441773E+02  0.16133666907E+02  0.30230384519E+03  0.30604408925E+03  0.10000000000E+01 0.  0.
    9000005    1    3    3    0    0  0.44878441773E+02 -0.16133666907E+02  0.56686997604E+02  0.74086337750E+02  0.10000000000E+01 0.  0.
<mgrwt>
<rscale>  0 0.12499887E+03</rscale>
<asrwt>0</asrwt>
<pdfrwt beam="1">  1        4 0.56855478E-01 0.12499887E+03</pdfrwt>
<pdfrwt beam="2">  1       -4 0.16261220E-02 0.12499887E+03</pdfrwt>
<totfact> 0.66533924E+03</totfact>
</mgrwt>
</event>
<event>
 5    1  0.3206158E-002  0.1249968E+03  0.7818608E-02  0.1235074E+00
         -4   -1    0    0    0  501 -0.00000000000E+00  0.00000000000E+00  0.86845873070E+03  0.86845965930E+03  0.12700000000E+01 0.  1.
          4   -1    0    0  501    0  0.00000000000E+00 -0.00000000000E+00 -0.44070764028E+01  0.45864171660E+01  0.12700000000E+01 0.  1.
         25    2    1    2    0    0  0.00000000000E+00  0.00000000000E+00  0.86405165429E+03  0.87304607646E+03  0.12499676130E+03 0.  0.
    9000005    1    3    3    0    0 -0.24895103716E+02 -0.35145214354E+02  0.74827211017E+03  0.74951124284E+03  0.10000000000E+01 0.  0.
    9000005    1    3    3    0    0  0.24895103716E+02  0.35145214354E+02  0.11577954412E+03  0.12353483362E+03  0.10000000000E+01 0.  0.
<mgrwt>
<rscale>  0 0.12499676E+03</rscale>
<asrwt>0</asrwt>
<pdfrwt beam="2">  1        4 0.69187785E-03 0.12499676E+03</pdfrwt>
<pdfrwt beam="1">  1       -4 0.13362305E+00 0.12499676E+03</pdfrwt>
<totfact> 0.35204820E+03</totfact>
</mgrwt>
</event>
<event>
 4    1  0.3206158E-002  0.1251041E+03  0.7818608E-02  0.1234907E+00
          4   -1    0    0  501    0  0.00000000000E+00  0.00000000000E+00  0.64890633640E+01  0.66121738742E+01  0.12700000000E+01 0.  1.
         -4   -1    0    0    0  501 -0.00000000000E+00 -0.00000000000E+00 -0.59718770667E+03  0.59718905708E+03  0.12700000000E+01 0.  1.
    9000005    1    1    2    0    0 -0.58392505559E+02 -0.18990194432E+02 -0.35275042603E+03  0.35805610630E+03  0.10000000000E+01 0.  0.
    9000005    1    1    2    0    0  0.58392505559E+02  0.18990194432E+02 -0.23794821727E+03  0.24574512465E+03  0.10000000000E+01 0.  0.
<mgrwt>
<rscale>  0 0.12510411E+03</rscale>
<asrwt>0</asrwt>
<pdfrwt beam="1">  1        4 0.10078918E-02 0.12510411E+03</pdfrwt>
<pdfrwt beam="2">  1       -4 0.91884563E-01 0.12510411E+03</pdfrwt>
<totfact> 0.48517720E+03</totfact>
</mgrwt>
</event>
<event>
 5    1  0.3206158E-002  0.1250010E+03  0.7818608E-02  0.1235068E+00
         -4   -1    0    0    0  501 -0.00000000000E+00  0.00000000000E+00  0.10565739550E+03  0.10566502792E+03  0.12700000000E+01 0. -1.
          4   -1    0    0  501    0  0.00000000000E+00 -0.00000000000E+00 -0.36951615828E+02  0.36973433872E+02  0.12700000000E+01 0. -1.
         25    2    1    2    0    0  0.00000000000E+00  0.00000000000E+00  0.68705779674E+02  0.14263846179E+03  0.12500098648E+03 0.  0.
    9000005    1    3    3    0    0  0.10271648490E+02 -0.55743732270E+02  0.43257021795E+01  0.56855801370E+02  0.10000000000E+01 0.  0.
    9000005    1    3    3    0    0 -0.10271648490E+02  0.55743732270E+02  0.64380077495E+02  0.85782660418E+02  0.10000000000E+01 0.  0.
<mgrwt>
<rscale>  0 0.12500099E+03</rscale>
<asrwt>0</asrwt>
<pdfrwt beam="2">  1        4 0.56871295E-02 0.12500099E+03</pdfrwt>
<pdfrwt beam="1">  1       -4 0.16257249E-01 0.12500099E+03</pdfrwt>
<totfact> 0.10078968E+04</totfact>
</mgrwt>
</event>
<event>
 5    1  0.3206158E-002  0.1249801E+03  0.7818608E-02  0.1235100E+00
         -4   -1    0    0    0  501 -0.00000000000E+00  0.00000000000E+00  0.13025416668E+02  0.13087183783E+02  0.12700000000E+01 0.  1.
          4   -1    0    0  501    0  0.00000000000E+00 -0.00000000000E+00 -0.29902692338E+03  0.29902962028E+03  0.12700000000E+01 0.  1.
         25    2    1    2    0    0  0.00000000000E+00  0.00000000000E+00 -0.28600150671E+03  0.31211680407E+03  0.12498014858E+03 0.  0.
    9000005    1    3    3    0    0  0.56186036609E+02 -0.24065143576E+02 -0.17537058944E+03  0.18571980370E+03  0.10000000000E+01 0.  0.
    9000005    1    3    3    0    0 -0.56186036609E+02  0.24065143576E+02 -0.11063091727E+03  0.12639700037E+03  0.10000000000E+01 0.  0.
<mgrwt>
<rscale>  0 0.12498015E+03</rscale>
<asrwt>0</asrwt>
<pdfrwt beam="2">  1        4 0.46009096E-01 0.12498015E+03</pdfrwt>
<pdfrwt beam="1">  1       -4 0.20088693E-02 0.12498015E+03</pdfrwt>
<totfact> 0.74136278E+03</totfact>
</mgrwt>
</event>
<event>
 5    1  0.3206158E-002  0.1249987E+03  0.7818608E-02  0.1235071E+00
          4   -1    0    0  501    0  0.00000000000E+00  0.00000000000E+00  0.20924870706E+03  0.20925256105E+03  0.12700000000E+01 0.  1.
         -4   -1    0    0    0  501 -0.00000000000E+00 -0.00000000000E+00 -0.18641954911E+02  0.18685164781E+02  0.12700000000E+01 0.  1.
         25    2    1    2    0    0  0.00000000000E+00  0.00000000000E+00  0.19060675215E+03  0.22793772584E+03  0.12499869157E+03 0.  0.
    9000005    1    3    3    0    0 -0.23887065309E+02  0.95022621296E+01 -0.85618409003E+01  0.27114387219E+02  0.10000000000E+01 0.  0.
    9000005    1    3    3    0    0  0.23887065309E+02 -0.95022621296E+01  0.19916859305E+03  0.20082333862E+03  0.10000000000E+01 0.  0.
<mgrwt>
<rscale>  0 0.12499869E+03</rscale>
<asrwt>0</asrwt>
<pdfrwt beam="1">  1        4 0.32195732E-01 0.12499869E+03</pdfrwt>
<pdfrwt beam="2">  1       -4 0.28716131E-02 0.12499869E+03</pdfrwt>
<totfact> 0.85629767E+03</totfact>
</mgrwt>
</event>
<event>
 5    1  0.3206158E-002  0.1249734E+03  0.7818608E-02  0.1235111E+00
          4   -1    0    0  501    0  0.00000000000E+00  0.00000000000E+00  0.73321021825E+02  0.73332019892E+02  0.12700000000E+01 0. -1.
         -4   -1    0    0    0  501 -0.00000000000E+00 -0.00000000000E+00 -0.53230786614E+02  0.53245934526E+02  0.12700000000E+01 0. -1.
         25    2    1    2    0    0  0.00000000000E+00  0.00000000000E+00  0.20090235210E+02  0.12657795442E+03  0.12497344115E+03 0.  0.
    9000005    1    3    3    0    0 -0.79543480758E+01 -0.56812342001E+02 -0.15024973807E+02  0.59309895421E+02  0.10000000000E+01 0.  0.
    9000005    1    3    3    0    0  0.79543480758E+01  0.56812342001E+02  0.35115209017E+02  0.67268058997E+02  0.10000000000E+01 0.  0.
<mgrwt>
<rscale>  0 0.12497344E+03</rscale>
<asrwt>0</asrwt>
<pdfrwt beam="1">  1        4 0.11282168E-01 0.12497344E+03</pdfrwt>
<pdfrwt beam="2">  1       -4 0.81913631E-02 0.12497344E+03</pdfrwt>
<totfact> 0.10424577E+04</totfact>
</mgrwt>
</event>
<event>
 5    1  0.3206158E-002  0.1249998E+03  0.7818608E-02  0.1235070E+00
          4   -1    0    0  501    0  0.00000000000E+00  0.00000000000E+00  0.11947045369E+03  0.11947720371E+03  0.12700000000E+01 0. -1.
         -4   -1    0    0    0  501 -0.00000000000E+00 -0.00000000000E+00 -0.32676239793E+02  0.32700910492E+02  0.12700000000E+01 0. -1.
         25    2    1    2    0    0  0.00000000000E+00  0.00000000000E+00  0.86794213900E+02  0.15217811420E+03  0.12499977150E+03 0.  0.
    9000005    1    3    3    0    0  0.51444166254E+01 -0.43045436018E+02  0.98192975504E+02  0.10734167421E+03  0.10000000000E+01 0.  0.
    9000005    1    3    3    0    0 -0.51444166254E+01  0.43045436018E+02 -0.11398761605E+02  0.44836439985E+02  0.10000000000E+01 0.  0.
<mgrwt>
<rscale>  0 0.12499977E+03</rscale>
<asrwt>0</asrwt>
<pdfrwt beam="1">  1        4 0.18382487E-01 0.12499977E+03</pdfrwt>
<pdfrwt beam="2">  1       -4 0.50295308E-02 0.12499977E+03</pdfrwt>
<totfact> 0.98871791E+03</totfact>
</mgrwt>
</event>
<event>
 5    1  0.3206158E-002  0.1250025E+03  0.7818608E-02  0.1235065E+00
         -4   -1    0    0    0  501 -0.00000000000E+00  0.00000000000E+00  0.50736587338E+02  0.50752479690E+02  0.12700000000E+01 0.  1.
          4   -1    0    0  501    0  0.00000000000E+00 -0.00000000000E+00 -0.76960716203E+02  0.76971194212E+02  0.12700000000E+01 0.  1.
         25    2    1    2    0    0  0.00000000000E+00  0.00000000000E+00 -0.26224128864E+02  0.12772367390E+03  0.12500252774E+03 0.  0.
    9000005    1    3    3    0    0 -0.22516834832E+02 -0.14560255037E+02  0.44564939553E+02  0.52019637782E+02  0.10000000000E+01 0.  0.
    9000005    1    3    3    0    0  0.22516834832E+02  0.14560255037E+02 -0.70789068417E+02  0.75704036121E+02  0.10000000000E+01 0.  0.
<mgrwt>
<rscale>  0 0.12500253E+03</rscale>
<asrwt>0</asrwt>
<pdfrwt beam="2">  1        4 0.11842139E-01 0.12500253E+03</pdfrwt>
<pdfrwt beam="1">  1       -4 0.78076573E-02 0.12500253E+03</pdfrwt>
<totfact> 0.10392867E+04</totfact>
</mgrwt>
</event>
<event>
 5    1  0.3206158E-002  0.1250021E+03  0.7818608E-02  0.1235066E+00
         -4   -1    0    0    0  501 -0.00000000000E+00  0.00000000000E+00  0.37611835320E+01  0.39698112753E+01  0.12700000000E+01 0. -1.
          4   -1    0    0  501    0  0.00000000000E+00 -0.00000000000E+00 -0.10103680715E+04  0.10103688697E+04  0.12700000000E+01 0. -1.
         25    2    1    2    0    0  0.00000000000E+00  0.00000000000E+00 -0.10066068880E+04  0.10143386810E+04  0.12500213105E+03 0.  0.
    9000005    1    3    3    0    0 -0.25978844410E+02  0.56633590999E+02 -0.54232027752E+03  0.54588876834E+03  0.10000000000E+01 0.  0.
    9000005    1    3    3    0    0  0.25978844410E+02 -0.56633590999E+02 -0.46428661048E+03  0.46844991265E+03  0.10000000000E+01 0.  0.
<mgrwt>
<rscale>  0 0.12500213E+03</rscale>
<asrwt>0</asrwt>
<pdfrwt beam="2">  1        4 0.15545714E+00 0.12500213E+03</pdfrwt>
<pdfrwt beam="1">  1       -4 0.59475411E-03 0.12500213E+03</pdfrwt>
<totfact> 0.30133505E+03</totfact>
</mgrwt>
</event>
<event>
 5    1  0.3206158E-002  0.1250001E+03  0.7818608E-02  0.1235069E+00
         -4   -1    0    0    0  501 -0.00000000000E+00  0.00000000000E+00  0.82564739213E+01  0.83535777732E+01  0.12700000000E+01 0. -1.
          4   -1    0    0  501    0  0.00000000000E+00 -0.00000000000E+00 -0.47025018600E+03  0.47025190094E+03  0.12700000000E+01 0. -1.
         25    2    1    2    0    0  0.00000000000E+00  0.00000000000E+00 -0.46199371208E+03  0.47860547871E+03  0.12500005700E+03 0.  0.
    9000005    1    3    3    0    0  0.56943645797E+02 -0.18607124444E+02 -0.29910825320E+03  0.30505007951E+03  0.10000000000E+01 0.  0.
    9000005    1    3    3    0    0 -0.56943645797E+02  0.18607124444E+02 -0.16288545888E+03  0.17355539920E+03  0.10000000000E+01 0.  0.
<mgrwt>
<rscale>  0 0.12500006E+03</rscale>
<asrwt>0</asrwt>
<pdfrwt beam="2">  1        4 0.72353763E-01 0.12500006E+03</pdfrwt>
<pdfrwt beam="1">  1       -4 0.12778286E-02 0.12500006E+03</pdfrwt>
<totfact> 0.57563323E+03</totfact>
</mgrwt>
</event>
<event>
 5    1  0.3206158E-002  0.1249989E+03  0.7818608E-02  0.1235071E+00
          4   -1    0    0  501    0  0.00000000000E+00  0.00000000000E+00  0.61603877759E+02  0.61616967265E+02  0.12700000000E+01 0. -1.
         -4   -1    0    0    0  501 -0.00000000000E+00 -0.00000000000E+00 -0.63381825086E+02  0.63394547488E+02  0.12700000000E+01 0. -1.
         25    2    1    2    0    0  0.00000000000E+00  0.00000000000E+00 -0.17779473268E+01  0.12501151475E+03  0.12499887089E+03 0.  0.
    9000005    1    3    3    0    0  0.28083778840E+02 -0.39112540978E+02  0.38948332278E+02  0.61939180516E+02  0.10000000000E+01 0.  0.
    9000005    1    3    3    0    0 -0.28083778840E+02  0.39112540978E+02 -0.40726279605E+02  0.63072334237E+02  0.10000000000E+01 0.  0.
<mgrwt>
<rscale>  0 0.12499887E+03</rscale>
<asrwt>0</asrwt>
<pdfrwt beam="1">  1        4 0.94795052E-02 0.12499887E+03</pdfrwt>
<pdfrwt beam="2">  1       -4 0.97530356E-02 0.12499887E+03</pdfrwt>
<totfact> 0.10452879E+04</totfact>
</mgrwt>
</event>
<event>
 5    1  0.3206158E-002  0.1250051E+03  0.7818608E-02  0.1235061E+00
          4   -1    0    0  501    0  0.00000000000E+00  0.00000000000E+00  0.10430025339E+02  0.10507060891E+02  0.12700000000E+01 0.  1.
         -4   -1    0    0    0  501 -0.00000000000E+00 -0.00000000000E+00 -0.37309384392E+03  0.37309600543E+03  0.12700000000E+01 0.  1.
         25    2    1    2    0    0  0.00000000000E+00  0.00000000000E+00 -0.36266381858E+03  0.38360306632E+03  0.12500506864E+03 0.  0.
    9000005    1    3    3    0    0  0.53504908858E+02  0.16141156787E+02 -0.95504005633E+02  0.11065860701E+03  0.10000000000E+01 0.  0.
    9000005    1    3    3    0    0 -0.53504908858E+02 -0.16141156787E+02 -0.26715981294E+03  0.27294445931E+03  0.10000000000E+01 0.  0.
<mgrwt>
<rscale>  0 0.12500507E+03</rscale>
<asrwt>0</asrwt>
<pdfrwt beam="1">  1        4 0.16107116E-02 0.12500507E+03</pdfrwt>
<pdfrwt beam="2">  1       -4 0.57405135E-01 0.12500507E+03</pdfrwt>
<totfact> 0.66171996E+03</totfact>
</mgrwt>
</event>
<event>
 5    1  0.3206158E-002  0.1250048E+03  0.7818608E-02  0.1235062E+00
         -4   -1    0    0    0  501 -0.00000000000E+00  0.00000000000E+00  0.14622479885E+03  0.14623031388E+03  0.12700000000E+01 0. -1.
          4   -1    0    0  501    0  0.00000000000E+00 -0.00000000000E+00 -0.26694962148E+02  0.26725154893E+02  0.12700000000E+01 0. -1.
         25    2    1    2    0    0  0.00000000000E+00  0.00000000000E+00  0.11952983670E+03  0.17295546877E+03  0.12500484918E+03 0.  0.
    9000005    1    3    3    0    0 -0.21748911006E+02  0.37615657162E+02  0.12191261020E+03  0.12942811642E+03  0.10000000000E+01 0.  0.
    9000005    1    3    3    0    0  0.21748911006E+02 -0.37615657162E+02 -0.23827735008E+01  0.43527352357E+02  0.10000000000E+01 0.  0.
<mgrwt>
<rscale>  0 0.12500485E+03</rscale>
<asrwt>0</asrwt>
<pdfrwt beam="2">  1        4 0.41096639E-02 0.12500485E+03</pdfrwt>
<pdfrwt beam="1">  1       -4 0.22498870E-01 0.12500485E+03</pdfrwt>
<totfact> 0.94890305E+03</totfact>
</mgrwt>
</event>
<event>
 5    1  0.3206158E-002  0.1249992E+03  0.7818608E-02  0.1235070E+00
          4   -1    0    0  501    0  0.00000000000E+00  0.00000000000E+00  0.83207583018E+02  0.83217274479E+02  0.12700000000E+01 0. -1.
         -4   -1    0    0    0  501 -0.00000000000E+00 -0.00000000000E+00 -0.46924255574E+02  0.46941438636E+02  0.12700000000E+01 0. -1.
         25    2    1    2    0    0  0.00000000000E+00  0.00000000000E+00  0.36283327444E+02  0.13015871311E+03  0.12499924299E+03 0.  0.
    9000005    1    3    3    0    0 -0.44774657292E+02 -0.28088140794E+02 -0.16573439977E+02  0.55402098350E+02  0.10000000000E+01 0.  0.
    9000005    1    3    3    0    0  0.44774657292E+02  0.28088140794E+02  0.52856767421E+02  0.74756614765E+02  0.10000000000E+01 0.  0.
<mgrwt>
<rscale>  0 0.12499924E+03</rscale>
<asrwt>0</asrwt>
<pdfrwt beam="1">  1        4 0.12803234E-01 0.12499924E+03</pdfrwt>
<pdfrwt beam="2">  1       -4 0.72211836E-02 0.12499924E+03</pdfrwt>
<totfact> 0.10341290E+04</totfact>
</mgrwt>
</event>
<event>
 5    1  0.3206158E-002  0.1250026E+03  0.7818608E-02  0.1235065E+00
         -4   -1    0    0    0  501 -0.00000000000E+00  0.00000000000E+00  0.47021886694E+02  0.47039034092E+02  0.12700000000E+01 0.  1.
          4   -1    0    0  501    0  0.00000000000E+00 -0.00000000000E+00 -0.83039363485E+02  0.83049074577E+02  0.12700000000E+01 0.  1.
         25    2    1    2    0    0  0.00000000000E+00  0.00000000000E+00 -0.36017476791E+02  0.13008810867E+03  0.12500262950E+03 0.  0.
    9000005    1    3    3    0    0  0.12059638059E+02 -0.53424934855E+02 -0.49328901526E+02  0.73715663601E+02  0.10000000000E+01 0.  0.
    9000005    1    3    3    0    0 -0.12059638059E+02  0.53424934855E+02  0.13311424735E+02  0.56372445067E+02  0.10000000000E+01 0.  0.
<mgrwt>
<rscale>  0 0.12500263E+03</rscale>
<asrwt>0</asrwt>
<pdfrwt beam="2">  1        4 0.12777353E-01 0.12500263E+03</pdfrwt>
<pdfrwt beam="1">  1       -4 0.72362024E-02 0.12500263E+03</pdfrwt>
<totfact> 0.10342009E+04</totfact>
</mgrwt>
</event>
<event>
 5    1  0.3206158E-002  0.1249969E+03  0.7818608E-02  0.1235074E+00
          4   -1    0    0  501    0  0.00000000000E+00  0.00000000000E+00  0.12369717180E+02  0.12434741779E+02  0.12700000000E+01 0.  1.
         -4   -1    0    0    0  501 -0.00000000000E+00 -0.00000000000E+00 -0.31488166904E+03  0.31488423015E+03  0.12700000000E+01 0.  1.
         25    2    1    2    0    0  0.00000000000E+00  0.00000000000E+00 -0.30251195186E+03  0.32731897193E+03  0.12499691343E+03 0.  0.
    9000005    1    3    3    0    0 -0.60026138881E+02  0.71961287403E+00 -0.19671759330E+03  0.20567563469E+03  0.10000000000E+01 0.  0.
    9000005    1    3    3    0    0  0.60026138881E+02 -0.71961287403E+00 -0.10579435856E+03  0.12164333724E+03  0.10000000000E+01 0.  0.
<mgrwt>
<rscale>  0 0.12499691E+03</rscale>
<asrwt>0</asrwt>
<pdfrwt beam="1">  1        4 0.19082326E-02 0.12499691E+03</pdfrwt>
<pdfrwt beam="2">  1       -4 0.48448527E-01 0.12499691E+03</pdfrwt>
<totfact> 0.72298951E+03</totfact>
</mgrwt>
</event>
<event>
 5    1  0.3206158E-002  0.1249998E+03  0.7818608E-02  0.1235070E+00
         -4   -1    0    0    0  501 -0.00000000000E+00  0.00000000000E+00  0.23321292498E+03  0.23321638295E+03  0.12700000000E+01 0. -1.
          4   -1    0    0  501    0  0.00000000000E+00 -0.00000000000E+00 -0.16721988622E+02  0.16770146197E+02  0.12700000000E+01 0. -1.
         25    2    1    2    0    0  0.00000000000E+00  0.00000000000E+00  0.21649093636E+03  0.24998652915E+03  0.12499975692E+03 0.  0.
    9000005    1    3    3    0    0 -0.52675101625E+02 -0.30155380040E+02  0.13799095872E+03  0.15075316900E+03  0.10000000000E+01 0.  0.
    9000005    1    3    3    0    0  0.52675101625E+02  0.30155380040E+02  0.78499977641E+02  0.99233360148E+02  0.10000000000E+01 0.  0.
<mgrwt>
<rscale>  0 0.12499976E+03</rscale>
<asrwt>0</asrwt>
<pdfrwt beam="2">  1        4 0.25765844E-02 0.12499976E+03</pdfrwt>
<pdfrwt beam="1">  1       -4 0.35882878E-01 0.12499976E+03</pdfrwt>
<totfact> 0.82332623E+03</totfact>
</mgrwt>
</event>
<event>
 5    1  0.3206158E-002  0.1250074E+03  0.7818608E-02  0.1235058E+00
          4   -1    0    0  501    0  0.00000000000E+00  0.00000000000E+00  0.11869020521E+02  0.11936772936E+02  0.12700000000E+01 0. -1.
         -4   -1    0    0    0  501 -0.00000000000E+00 -0.00000000000E+00 -0.32814617485E+03  0.32814863243E+03  0.12700000000E+01 0. -1.
         25    2    1    2    0    0  0.00000000000E+00  0.00000000000E+00 -0.31627715433E+03  0.34008540537E+03  0.12500737817E+03 0.  0.
    9000005    1    3    3    0    0  0.52437553350E+02  0.11135781269E+02 -0.70742087319E+02  0.88764551168E+02  0.10000000000E+01 0.  0.
    9000005    1    3    3    0    0 -0.52437553350E+02 -0.11135781269E+02 -0.24553506701E+03  0.25132085420E+03  0.10000000000E+01 0.  0.
<mgrwt>
<rscale>  0 0.12500738E+03</rscale>
<asrwt>0</asrwt>
<pdfrwt beam="1">  1        4 0.18314042E-02 0.12500738E+03</pdfrwt>
<pdfrwt beam="2">  1       -4 0.50489421E-01 0.12500738E+03</pdfrwt>
<totfact> 0.70817666E+03</totfact>
</mgrwt>
</event>
<event>
 5    1  0.3206158E-002  0.1249938E+03  0.7818608E-02  0.1235079E+00
          4   -1    0    0  501    0  0.00000000000E+00  0.00000000000E+00  0.34240217091E+02  0.34263761709E+02  0.12700000000E+01 0. -1.
         -4   -1    0    0    0  501 -0.00000000000E+00 -0.00000000000E+00 -0.11400612339E+03  0.11401319691E+03  0.12700000000E+01 0. -1.
         25    2    1    2    0    0  0.00000000000E+00  0.00000000000E+00 -0.79765906298E+02  0.14827695862E+03  0.12499382645E+03 0.  0.
    9000005    1    3    3    0    0  0.12226563780E+02 -0.39980519905E+02 -0.94976846839E+02  0.10377635699E+03  0.10000000000E+01 0.  0.
    9000005    1    3    3    0    0 -0.12226563780E+02  0.39980519905E+02  0.15210940541E+02  0.44500601636E+02  0.10000000000E+01 0.  0.
<mgrwt>
<rscale>  0 0.12499383E+03</rscale>
<asrwt>0</asrwt>
<pdfrwt beam="1">  1        4 0.52700810E-02 0.12499383E+03</pdfrwt>
<pdfrwt beam="2">  1       -4 0.17541759E-01 0.12499383E+03</pdfrwt>
<totfact> 0.99662124E+03</totfact>
</mgrwt>
</event>
<event>
 5    1  0.3206158E-002  0.1250009E+03  0.7818608E-02  0.1235068E+00
          4   -1    0    0  501    0  0.00000000000E+00  0.00000000000E+00  0.10347931321E+02  0.10425573492E+02  0.12700000000E+01 0. -1.
         -4   -1    0    0    0  501 -0.00000000000E+00 -0.00000000000E+00 -0.37600644050E+03  0.37600858527E+03  0.12700000000E+01 0. -1.
         25    2    1    2    0    0  0.00000000000E+00  0.00000000000E+00 -0.36565850918E+03  0.38643415876E+03  0.12500085489E+03 0.  0.
    9000005    1    3    3    0    0 -0.44370321289E+02  0.35857364659E+02 -0.10396223185E+03  0.11859014151E+03  0.10000000000E+01 0.  0.
    9000005    1    3    3    0    0  0.44370321289E+02 -0.35857364659E+02 -0.26169627733E+03  0.26784401725E+03  0.10000000000E+01 0.  0.
<mgrwt>
<rscale>  0 0.12500085E+03</rscale>
<asrwt>0</asrwt>
<pdfrwt beam="1">  1        4 0.15981272E-02 0.12500085E+03</pdfrwt>
<pdfrwt beam="2">  1       -4 0.57853272E-01 0.12500085E+03</pdfrwt>
<totfact> 0.65892684E+03</totfact>
</mgrwt>
</event>
<event>
 5    1  0.3206158E-002  0.1249901E+03  0.7818608E-02  0.1235085E+00
          4   -1    0    0  501    0  0.00000000000E+00  0.00000000000E+00  0.20615057219E+03  0.20615448410E+03  0.12700000000E+01 0.  1.
         -4   -1    0    0    0  501 -0.00000000000E+00 -0.00000000000E+00 -0.18920139243E+02  0.18962715232E+02  0.12700000000E+01 0.  1.
         25    2    1    2    0    0  0.00000000000E+00  0.00000000000E+00  0.18723043295E+03  0.22511719933E+03  0.12499007326E+03 0.  0.
    9000005    1    3    3    0    0 -0.48848757683E+02 -0.20826873329E+02  0.34297840151E+02  0.63224217029E+02  0.10000000000E+01 0.  0.
    9000005    1    3    3    0    0  0.48848757683E+02  0.20826873329E+02  0.15293259280E+03  0.16189298230E+03  0.10000000000E+01 0.  0.
<mgrwt>
<rscale>  0 0.12499007E+03</rscale>
<asrwt>0</asrwt>
<pdfrwt beam="1">  1        4 0.31719047E-01 0.12499007E+03</pdfrwt>
<pdfrwt beam="2">  1       -4 0.29143668E-02 0.12499007E+03</pdfrwt>
<totfact> 0.86084112E+03</totfact>
</mgrwt>
</event>
<event>
 5    1  0.3206158E-002  0.1250165E+03  0.7818608E-02  0.1235044E+00
         -4   -1    0    0    0  501 -0.00000000000E+00  0.00000000000E+00  0.24940255595E+02  0.24972569935E+02  0.12700000000E+01 0. -1.
          4   -1    0    0  501    0  0.00000000000E+00 -0.00000000000E+00 -0.15652925810E+03  0.15653441009E+03  0.12700000000E+01 0. -1.
         25    2    1    2    0    0  0.00000000000E+00  0.00000000000E+00 -0.13158900250E+03  0.18150698002E+03  0.12501647178E+03 0.  0.
    9000005    1    3    3    0    0 -0.55314539251E+02  0.18148581123E+02 -0.98813178975E+02  0.11469138411E+03  0.10000000000E+01 0.  0.
    9000005    1    3    3    0    0  0.55314539251E+02 -0.18148581123E+02 -0.32775823529E+02  0.66815595914E+02  0.10000000000E+01 0.  0.
<mgrwt>
<rscale>  0 0.12501647E+03</rscale>
<asrwt>0</asrwt>
<pdfrwt beam="2">  1        4 0.24084306E-01 0.12501647E+03</pdfrwt>
<pdfrwt beam="1">  1       -4 0.38398445E-02 0.12501647E+03</pdfrwt>
<totfact> 0.93311981E+03</totfact>
</mgrwt>
</event>
<event>
 5    1  0.3206158E-002  0.1250093E+03  0.7818608E-02  0.1235055E+00
         -4   -1    0    0    0  501 -0.00000000000E+00  0.00000000000E+00  0.11142931357E+03  0.11143655066E+03  0.12700000000E+01 0.  1.
          4   -1    0    0  501    0  0.00000000000E+00 -0.00000000000E+00 -0.35041200502E+02  0.35064207286E+02  0.12700000000E+01 0.  1.
         25    2    1    2    0    0  0.00000000000E+00  0.00000000000E+00  0.76388113071E+02  0.14650075795E+03  0.12500931270E+03 0.  0.
    9000005    1    3    3    0    0 -0.45991191967E+02  0.13580035086E+02  0.85161907706E+02  0.97740255860E+02  0.10000000000E+01 0.  0.
    9000005    1    3    3    0    0  0.45991191967E+02 -0.13580035086E+02 -0.87737946350E+01  0.48760502087E+02  0.10000000000E+01 0.  0.
<mgrwt>
<rscale>  0 0.12500931E+03</rscale>
<asrwt>0</asrwt>
<pdfrwt beam="2">  1        4 0.53932804E-02 0.12500931E+03</pdfrwt>
<pdfrwt beam="1">  1       -4 0.17145298E-01 0.12500931E+03</pdfrwt>
<totfact> 0.99984885E+03</totfact>
</mgrwt>
</event>
<event>
 5    1  0.3206158E-002  0.1250017E+03  0.7818608E-02  0.1235067E+00
         -4   -1    0    0    0  501 -0.00000000000E+00  0.00000000000E+00  0.86940839097E+03  0.86940931856E+03  0.12700000000E+01 0.  1.
          4   -1    0    0  501    0  0.00000000000E+00 -0.00000000000E+00 -0.44024275120E+01  0.45819502396E+01  0.12700000000E+01 0.  1.
         25    2    1    2    0    0  0.00000000000E+00  0.00000000000E+00  0.86500596346E+03  0.87399126880E+03  0.12500168443E+03 0.  0.
    9000005    1    3    3    0    0 -0.10610535866E+02  0.21804316878E+02  0.83520745635E+03  0.83555999596E+03  0.10000000000E+01 0.  0.
    9000005    1    3    3    0    0  0.10610535866E+02 -0.21804316878E+02  0.29798507115E+02  0.38431272841E+02  0.10000000000E+01 0.  0.
<mgrwt>
<rscale>  0 0.12500168E+03</rscale>
<asrwt>0</asrwt>
<pdfrwt beam="2">  1        4 0.69117757E-03 0.12500168E+03</pdfrwt>
<pdfrwt beam="1">  1       -4 0.13376897E+00 0.12500168E+03</pdfrwt>
<totfact> 0.35163905E+03</totfact>
</mgrwt>
</event>
<event>
 5    1  0.3206158E-002  0.1250085E+03  0.7818608E-02  0.1235056E+00
         -4   -1    0    0    0  501 -0.00000000000E+00  0.00000000000E+00  0.14294474949E+02  0.14350780957E+02  0.12700000000E+01 0.  1.
          4   -1    0    0  501    0  0.00000000000E+00 -0.00000000000E+00 -0.27271208472E+03  0.27271504185E+03  0.12700000000E+01 0.  1.
         25    2    1    2    0    0  0.00000000000E+00  0.00000000000E+00 -0.25841760977E+03  0.28706582281E+03  0.12500850205E+03 0.  0.
    9000005    1    3    3    0    0  0.74113278726E+01  0.26225079786E+02 -0.57642958960E-01  0.27270605298E+02  0.10000000000E+01 0.  0.
    9000005    1    3    3    0    0 -0.74113278726E+01 -0.26225079786E+02 -0.25835996681E+03  0.25979521751E+03  0.10000000000E+01 0.  0.
<mgrwt>
<rscale>  0 0.12500850E+03</rscale>
<asrwt>0</asrwt>
<pdfrwt beam="2">  1        4 0.41960260E-01 0.12500850E+03</pdfrwt>
<pdfrwt beam="1">  1       -4 0.22037089E-02 0.12500850E+03</pdfrwt>
<totfact> 0.77235872E+03</totfact>
</mgrwt>
</event>
<event>
 5    1  0.3206158E-002  0.1249991E+03  0.7818608E-02  0.1235071E+00
          4   -1    0    0  501    0  0.00000000000E+00  0.00000000000E+00  0.37054152725E+02  0.37075910430E+02  0.12700000000E+01 0. -1.
         -4   -1    0    0    0  501 -0.00000000000E+00 -0.00000000000E+00 -0.10536200800E+03  0.10536966181E+03  0.12700000000E+01 0. -1.
         25    2    1    2    0    0  0.00000000000E+00  0.00000000000E+00 -0.68307855277E+02  0.14244557224E+03  0.12499911183E+03 0.  0.
    9000005    1    3    3    0    0  0.57762838238E+02  0.16067199766E+02 -0.54234158572E+02  0.80851990363E+02  0.10000000000E+01 0.  0.
    9000005    1    3    3    0    0 -0.57762838238E+02 -0.16067199766E+02 -0.14073696705E+02  0.61593581878E+02  0.10000000000E+01 0.  0.
<mgrwt>
<rscale>  0 0.12499911E+03</rscale>
<asrwt>0</asrwt>
<pdfrwt beam="1">  1        4 0.57029013E-02 0.12499911E+03</pdfrwt>
<pdfrwt beam="2">  1       -4 0.16211802E-01 0.12499911E+03</pdfrwt>
<totfact> 0.10083351E+04</totfact>
</mgrwt>
</event>
<event>
 5    1  0.3206158E-002  0.1250004E+03  0.7818608E-02  0.1235069E+00
         -4   -1    0    0    0  501 -0.00000000000E+00  0.00000000000E+00  0.16242786243E+03  0.16243282733E+03  0.12700000000E+01 0. -1.
          4   -1    0    0  501    0  0.00000000000E+00 -0.00000000000E+00 -0.24027187164E+02  0.24060727815E+02  0.12700000000E+01 0. -1.
         25    2    1    2    0    0  0.00000000000E+00  0.00000000000E+00  0.13840067527E+03  0.18649355514E+03  0.12500039678E+03 0.  0.
    9000005    1    3    3    0    0  0.70412167705E+01 -0.21617212977E+02 -0.17645552549E+02  0.28796669169E+02  0.10000000000E+01 0.  0.
    9000005    1    3    3    0    0 -0.70412167705E+01  0.21617212977E+02  0.15604622782E+03  0.15769688598E+03  0.10000000000E+01 0.  0.
<mgrwt>
<rscale>  0 0.12500040E+03</rscale>
<asrwt>0</asrwt>
<pdfrwt beam="2">  1        4 0.36994523E-02 0.12500040E+03</pdfrwt>
<pdfrwt beam="1">  1       -4 0.24991864E-01 0.12500040E+03</pdfrwt>
<totfact> 0.92460207E+03</totfact>
</mgrwt>
</event>
<event>
 5    1  0.3206158E-002  0.1249993E+03  0.7818608E-02  0.1235070E+00
          4   -1    0    0  501    0  0.00000000000E+00  0.00000000000E+00  0.18645431690E+02  0.18688633521E+02  0.12700000000E+01 0. -1.
         -4   -1    0    0    0  501 -0.00000000000E+00 -0.00000000000E+00 -0.20921197139E+03  0.20921582606E+03  0.12700000000E+01 0. -1.
         25    2    1    2    0    0  0.00000000000E+00  0.00000000000E+00 -0.19056653970E+03  0.22790445958E+03  0.12499934657E+03 0.  0.
    9000005    1    3    3    0    0 -0.32199494309E+02 -0.52036943383E+02 -0.11838589832E+03  0.13326992095E+03  0.10000000000E+01 0.  0.
    9000005    1    3    3    0    0  0.32199494309E+02  0.52036943383E+02 -0.72180641385E+02  0.94634538627E+02  0.10000000000E+01 0.  0.
<mgrwt>
<rscale>  0 0.12499935E+03</rscale>
<asrwt>0</asrwt>
<pdfrwt beam="1">  1        4 0.28721478E-02 0.12499935E+03</pdfrwt>
<pdfrwt beam="2">  1       -4 0.32190075E-01 0.12499935E+03</pdfrwt>
<totfact> 0.85633661E+03</totfact>
</mgrwt>
</event>
<event>
 5    1  0.3206158E-002  0.1249999E+03  0.7818608E-02  0.1235069E+00
          4   -1    0    0  501    0  0.00000000000E+00  0.00000000000E+00  0.34614416457E+01  0.36870690619E+01  0.12700000000E+01 0. -1.
         -4   -1    0    0    0  501 -0.00000000000E+00 -0.00000000000E+00 -0.10926567794E+04  0.10926575175E+04  0.12700000000E+01 0. -1.
         25    2    1    2    0    0  0.00000000000E+00  0.00000000000E+00 -0.10891953378E+04  0.10963445866E+04  0.12499987447E+03 0.  0.
    9000005    1    3    3    0    0  0.35330542638E+02  0.15034290108E+01 -0.92691722781E+02  0.99213219956E+02  0.10000000000E+01 0.  0.
    9000005    1    3    3    0    0 -0.35330542638E+02 -0.15034290108E+01 -0.99650361502E+03  0.99713136662E+03  0.10000000000E+01 0.  0.
<mgrwt>
<rscale>  0 0.12499987E+03</rscale>
<asrwt>0</asrwt>
<pdfrwt beam="1">  1        4 0.54994308E-03 0.12499987E+03</pdfrwt>
<pdfrwt beam="2">  1       -4 0.16811819E+00 0.12499987E+03</pdfrwt>
<totfact> 0.27590743E+03</totfact>
</mgrwt>
</event>
<event>
 5    1  0.3206158E-002  0.1250006E+03  0.7818608E-02  0.1235068E+00
         -4   -1    0    0    0  501 -0.00000000000E+00  0.00000000000E+00  0.88216717867E+03  0.88216809284E+03  0.12700000000E+01 0.  1.
          4   -1    0    0  501    0  0.00000000000E+00 -0.00000000000E+00 -0.43360599732E+01  0.45182204563E+01  0.12700000000E+01 0.  1.
         25    2    1    2    0    0  0.00000000000E+00  0.00000000000E+00  0.87783111870E+03  0.88668631330E+03  0.12500058093E+03 0.  0.
    9000005    1    3    3    0    0 -0.66070709824E+01 -0.43114189455E+02  0.75636657454E+03  0.75762383925E+03  0.10000000000E+01 0.  0.
    9000005    1    3    3    0    0  0.66070709824E+01  0.43114189455E+02  0.12146454416E+03  0.12906247405E+03  0.10000000000E+01 0.  0.
<mgrwt>
<rscale>  0 0.12500058E+03</rscale>
<asrwt>0</asrwt>
<pdfrwt beam="2">  1        4 0.68116813E-03 0.12500058E+03</pdfrwt>
<pdfrwt beam="1">  1       -4 0.13573225E+00 0.12500058E+03</pdfrwt>
<totfact> 0.34670773E+03</totfact>
</mgrwt>
</event>
<event>
 5    1  0.3206158E-002  0.1249994E+03  0.7818608E-02  0.1235070E+00
         -4   -1    0    0    0  501 -0.00000000000E+00  0.00000000000E+00  0.58983897728E+02  0.58997568520E+02  0.12700000000E+01 0. -1.
          4   -1    0    0  501    0  0.00000000000E+00 -0.00000000000E+00 -0.66197636584E+02  0.66209817922E+02  0.12700000000E+01 0. -1.
         25    2    1    2    0    0  0.00000000000E+00  0.00000000000E+00 -0.72137388557E+01  0.12520738644E+03  0.12499940636E+03 0.  0.
    9000005    1    3    3    0    0  0.69399452479E+01 -0.61913843215E+02  0.12721771060E+01  0.62322590256E+02  0.10000000000E+01 0.  0.
    9000005    1    3    3    0    0 -0.69399452479E+01  0.61913843215E+02 -0.84859159616E+01  0.62884796186E+02  0.10000000000E+01 0.  0.
<mgrwt>
<rscale>  0 0.12499941E+03</rscale>
<asrwt>0</asrwt>
<pdfrwt beam="2">  1        4 0.10186240E-01 0.12499941E+03</pdfrwt>
<pdfrwt beam="1">  1       -4 0.90764344E-02 0.12499941E+03</pdfrwt>
<totfact> 0.10448500E+04</totfact>
</mgrwt>
</event>
<event>
 5    1  0.3206158E-002  0.1249758E+03  0.7818608E-02  0.1235107E+00
         -4   -1    0    0    0  501 -0.00000000000E+00  0.00000000000E+00  0.13947979464E+04  0.13947985246E+04  0.12700000000E+01 0.  1.
          4   -1    0    0  501    0  0.00000000000E+00 -0.00000000000E+00 -0.26548551187E+01  0.29429841490E+01  0.12700000000E+01 0.  1.
         25    2    1    2    0    0  0.00000000000E+00  0.00000000000E+00  0.13921430913E+04  0.13977415088E+04  0.12497575218E+03 0.  0.
    9000005    1    3    3    0    0  0.35520029513E+02 -0.33176165289E+02  0.11351674385E+04  0.11362079229E+04  0.10000000000E+01 0.  0.
    9000005    1    3    3    0    0 -0.35520029513E+02  0.33176165289E+02  0.25697565276E+03  0.26153358589E+03  0.10000000000E+01 0.  0.
<mgrwt>
<rscale>  0 0.12497575E+03</rscale>
<asrwt>0</asrwt>
<pdfrwt beam="2">  1        4 0.43064821E-03 0.12497575E+03</pdfrwt>
<pdfrwt beam="1">  1       -4 0.21460615E+00 0.12497575E+03</pdfrwt>
<totfact> 0.20040102E+03</totfact>
</mgrwt>
</event>
<event>
 5    1  0.3206158E-002  0.1250003E+03  0.7818608E-02  0.1235069E+00
          4   -1    0    0  501    0  0.00000000000E+00  0.00000000000E+00  0.18232560913E+02  0.18276738698E+02  0.12700000000E+01 0.  1.
         -4   -1    0    0    0  501 -0.00000000000E+00 -0.00000000000E+00 -0.21394155412E+03  0.21394532358E+03  0.12700000000E+01 0.  1.
         25    2    1    2    0    0  0.00000000000E+00  0.00000000000E+00 -0.19570899321E+03  0.23222206228E+03  0.12500030474E+03 0.  0.
    9000005    1    3    3    0    0  0.51710059998E+02  0.32279984113E+01 -0.16276811088E+03  0.17081805583E+03  0.10000000000E+01 0.  0.
    9000005    1    3    3    0    0 -0.51710059998E+02 -0.32279984113E+01 -0.32940882333E+02  0.61404006446E+02  0.10000000000E+01 0.  0.
<mgrwt>
<rscale>  0 0.12500030E+03</rscale>
<asrwt>0</asrwt>
<pdfrwt beam="1">  1        4 0.28086978E-02 0.12500030E+03</pdfrwt>
<pdfrwt beam="2">  1       -4 0.32917772E-01 0.12500030E+03</pdfrwt>
<totfact> 0.84968984E+03</totfact>
</mgrwt>
</event>
<event>
 5    1  0.3206158E-002  0.1250024E+03  0.7818608E-02  0.1235066E+00
          4   -1    0    0  501    0  0.00000000000E+00  0.00000000000E+00  0.15241277973E+02  0.15294098674E+02  0.12700000000E+01 0. -1.
         -4   -1    0    0    0  501 -0.00000000000E+00 -0.00000000000E+00 -0.25580624927E+03  0.25580940183E+03  0.12700000000E+01 0. -1.
         25    2    1    2    0    0  0.00000000000E+00  0.00000000000E+00 -0.24056497130E+03  0.27110350051E+03  0.12500241026E+03 0.  0.
    9000005    1    3    3    0    0  0.20697047169E+02  0.17353180326E+02  0.19397290013E+01  0.27097290963E+02  0.10000000000E+01 0.  0.
    9000005    1    3    3    0    0 -0.20697047169E+02 -0.17353180326E+02 -0.24250470030E+03  0.24400620954E+03  0.10000000000E+01 0.  0.
<mgrwt>
<rscale>  0 0.12500241E+03</rscale>
<asrwt>0</asrwt>
<pdfrwt beam="1">  1        4 0.23491178E-02 0.12500241E+03</pdfrwt>
<pdfrwt beam="2">  1       -4 0.39359110E-01 0.12500241E+03</pdfrwt>
<totfact> 0.79368406E+03</totfact>
</mgrwt>
</event>
<event>
 5    1  0.3206158E-002  0.1249963E+03  0.7818608E-02  0.1235075E+00
          4   -1    0    0  501    0  0.00000000000E+00  0.00000000000E+00  0.28330363351E+02  0.28358814989E+02  0.12700000000E+01 0. -1.
         -4   -1    0    0    0  501 -0.00000000000E+00 -0.00000000000E+00 -0.13777336228E+03  0.13777921561E+03  0.12700000000E+01 0. -1.
         25    2    1    2    0    0  0.00000000000E+00  0.00000000000E+00 -0.10944299893E+03  0.16613803060E+03  0.12499630073E+03 0.  0.
    9000005    1    3    3    0    0  0.29000440269E+02 -0.44695683623E+02 -0.11319534852E+02  0.54478083112E+02  0.10000000000E+01 0.  0.
    9000005    1    3    3    0    0 -0.29000440269E+02  0.44695683623E+02 -0.98123464080E+02  0.11165994749E+03  0.10000000000E+01 0.  0.
<mgrwt>
<rscale>  0 0.12499630E+03</rscale>
<asrwt>0</asrwt>
<pdfrwt beam="1">  1        4 0.43611563E-02 0.12499630E+03</pdfrwt>
<pdfrwt beam="2">  1       -4 0.21198540E-01 0.12499630E+03</pdfrwt>
<totfact> 0.96180292E+03</totfact>
</mgrwt>
</event>
<event>
 5    1  0.3206158E-002  0.1249929E+03  0.7818608E-02  0.1235080E+00
         -4   -1    0    0    0  501 -0.00000000000E+00  0.00000000000E+00  0.27786945857E+03  0.27787236082E+03  0.12700000000E+01 0.  1.
          4   -1    0    0  501    0  0.00000000000E+00 -0.00000000000E+00 -0.14024587909E+02  0.14081973087E+02  0.12700000000E+01 0.  1.
         25    2    1    2    0    0  0.00000000000E+00  0.00000000000E+00  0.26384487066E+03  0.29195433390E+03  0.12499286904E+03 0.  0.
    9000005    1    3    3    0    0 -0.42902411242E+02 -0.29568996248E+02  0.51351581022E+02  0.73163702086E+02  0.10000000000E+01 0.  0.
    9000005    1    3    3    0    0  0.42902411242E+02  0.29568996248E+02  0.21249328964E+03  0.21879063182E+03  0.10000000000E+01 0.  0.
<mgrwt>
<rscale>  0 0.12499287E+03</rscale>
<asrwt>0</asrwt>
<pdfrwt beam="2">  1        4 0.21622664E-02 0.12499287E+03</pdfrwt>
<pdfrwt beam="1">  1       -4 0.42753784E-01 0.12499287E+03</pdfrwt>
<totfact> 0.76631420E+03</totfact>
</mgrwt>
</event>
<event>
 5    1  0.3206158E-002  0.1250003E+03  0.7818608E-02  0.1235069E+00
          4   -1    0    0  501    0  0.00000000000E+00  0.00000000000E+00  0.25132243862E+02  0.25164311665E+02  0.12700000000E+01 0.  1.
         -4   -1    0    0    0  501 -0.00000000000E+00 -0.00000000000E+00 -0.15529480832E+03  0.15530000126E+03  0.12700000000E+01 0.  1.
         25    2    1    2    0    0  0.00000000000E+00  0.00000000000E+00 -0.13016256446E+03  0.18046431293E+03  0.12500030021E+03 0.  0.
    9000005    1    3    3    0    0  0.45652047316E+02 -0.39280487775E+02 -0.41001038204E+02  0.72863923019E+02  0.10000000000E+01 0.  0.
    9000005    1    3    3    0    0 -0.45652047316E+02  0.39280487775E+02 -0.89161526256E+02  0.10760038991E+03  0.10000000000E+01 0.  0.
<mgrwt>
<rscale>  0 0.12500030E+03</rscale>
<asrwt>0</asrwt>
<pdfrwt beam="1">  1        4 0.38693654E-02 0.12500030E+03</pdfrwt>
<pdfrwt beam="2">  1       -4 0.23894375E-01 0.12500030E+03</pdfrwt>
<totfact> 0.93532863E+03</totfact>
</mgrwt>
</event>
<event>
 5    1  0.3206158E-002  0.1250102E+03  0.7818608E-02  0.1235053E+00
          4   -1    0    0  501    0  0.00000000000E+00  0.00000000000E+00  0.15371155790E+03  0.15371680432E+03  0.12700000000E+01 0.  1.
         -4   -1    0    0    0  501 -0.00000000000E+00 -0.00000000000E+00 -0.25395462271E+02  0.25427198115E+02  0.12700000000E+01 0.  1.
         25    2    1    2    0    0  0.00000000000E+00  0.00000000000E+00  0.12831609563E+03  0.17914400244E+03  0.12501021243E+03 0.  0.
    9000005    1    3    3    0    0 -0.55757338415E+02 -0.62496491441E+01  0.24705333556E+02  0.61313068816E+02  0.10000000000E+01 0.  0.
    9000005    1    3    3    0    0  0.55757338415E+02  0.62496491441E+01  0.10361076207E+03  0.11783093362E+03  0.10000000000E+01 0.  0.
<mgrwt>
<rscale>  0 0.12501021E+03</rscale>
<asrwt>0</asrwt>
<pdfrwt beam="1">  1        4 0.23650777E-01 0.12501021E+03</pdfrwt>
<pdfrwt beam="2">  1       -4 0.39098390E-02 0.12501021E+03</pdfrwt>
<totfact> 0.93749842E+03</totfact>
</mgrwt>
</event>
<event>
 5    1  0.3206158E-002  0.1250046E+03  0.7818608E-02  0.1235062E+00
         -4   -1    0    0    0  501 -0.00000000000E+00  0.00000000000E+00  0.19110917536E+03  0.19111339515E+03  0.12700000000E+01 0. -1.
          4   -1    0    0  501    0  0.00000000000E+00 -0.00000000000E+00 -0.20417204858E+02  0.20456665276E+02  0.12700000000E+01 0. -1.
         25    2    1    2    0    0  0.00000000000E+00  0.00000000000E+00  0.17069197050E+03  0.21157006043E+03  0.12500456662E+03 0.  0.
    9000005    1    3    3    0    0 -0.33563917927E+02 -0.55751992922E+01 -0.33757559755E+01  0.34205484387E+02  0.10000000000E+01 0.  0.
    9000005    1    3    3    0    0  0.33563917927E+02  0.55751992922E+01  0.17406772647E+03  0.17736457604E+03  0.10000000000E+01 0.  0.
<mgrwt>
<rscale>  0 0.12500457E+03</rscale>
<asrwt>0</asrwt>
<pdfrwt beam="2">  1        4 0.31444686E-02 0.12500457E+03</pdfrwt>
<pdfrwt beam="1">  1       -4 0.29404770E-01 0.12500457E+03</pdfrwt>
<totfact> 0.88211105E+03</totfact>
</mgrwt>
</event>
<event>
 5    1  0.3206158E-002  0.1249972E+03  0.7818608E-02  0.1235074E+00
         -4   -1    0    0    0  501 -0.00000000000E+00  0.00000000000E+00  0.15137136250E+03  0.15137669003E+03  0.12700000000E+01 0. -1.
          4   -1    0    0  501    0  0.00000000000E+00 -0.00000000000E+00 -0.25783179495E+02  0.25814438690E+02  0.12700000000E+01 0. -1.
         25    2    1    2    0    0  0.00000000000E+00  0.00000000000E+00  0.12558818301E+03  0.17719112872E+03  0.12499721752E+03 0.  0.
    9000005    1    3    3    0    0  0.93243257696E+01 -0.59354051102E+02  0.38437213273E+02  0.71332081124E+02  0.10000000000E+01 0.  0.
    9000005    1    3    3    0    0 -0.93243257696E+01  0.59354051102E+02  0.87150969733E+02  0.10585904760E+03  0.10000000000E+01 0.  0.
<mgrwt>
<rscale>  0 0.12499722E+03</rscale>
<asrwt>0</asrwt>
<pdfrwt beam="2">  1        4 0.39694574E-02 0.12499722E+03</pdfrwt>
<pdfrwt beam="1">  1       -4 0.23290716E-01 0.12499722E+03</pdfrwt>
<totfact> 0.94130940E+03</totfact>
</mgrwt>
</event>
<event>
 5    1  0.3206158E-002  0.1249982E+03  0.7818608E-02  0.1235072E+00
          4   -1    0    0  501    0  0.00000000000E+00  0.00000000000E+00  0.19459402694E+03  0.19459817116E+03  0.12700000000E+01 0.  1.
         -4   -1    0    0    0  501 -0.00000000000E+00 -0.00000000000E+00 -0.20048822185E+02  0.20089006223E+02  0.12700000000E+01 0.  1.
         25    2    1    2    0    0  0.00000000000E+00  0.00000000000E+00  0.17454520475E+03  0.21468717739E+03  0.12499822251E+03 0.  0.
    9000005    1    3    3    0    0  0.72844288090E+00  0.38935845183E+02  0.17121371700E+03  0.17558948590E+03  0.10000000000E+01 0.  0.
    9000005    1    3    3    0    0 -0.72844288090E+00 -0.38935845183E+02  0.33314877551E+01  0.39097691490E+02  0.10000000000E+01 0.  0.
<mgrwt>
<rscale>  0 0.12499822E+03</rscale>
<asrwt>0</asrwt>
<pdfrwt beam="1">  1        4 0.29940952E-01 0.12499822E+03</pdfrwt>
<pdfrwt beam="2">  1       -4 0.30878441E-02 0.12499822E+03</pdfrwt>
<totfact> 0.87719563E+03</totfact>
</mgrwt>
</event>
<event>
 5    1  0.3206158E-002  0.1249958E+03  0.7818608E-02  0.1235076E+00
          4   -1    0    0  501    0  0.00000000000E+00  0.00000000000E+00  0.23002619990E+03  0.23002970577E+03  0.12700000000E+01 0. -1.
         -4   -1    0    0    0  501 -0.00000000000E+00 -0.00000000000E+00 -0.16953227480E+02  0.17000730043E+02  0.12700000000E+01 0. -1.
         25    2    1    2    0    0  0.00000000000E+00  0.00000000000E+00  0.21307297242E+03  0.24703043582E+03  0.12499577851E+03 0.  0.
    9000005    1    3    3    0    0  0.41360492390E+02 -0.18536556248E+02  0.21516274436E+02  0.50182111493E+02  0.10000000000E+01 0.  0.
    9000005    1    3    3    0    0 -0.41360492390E+02  0.18536556248E+02  0.19155669798E+03  0.19684832432E+03  0.10000000000E+01 0.  0.
<mgrwt>
<rscale>  0 0.12499578E+03</rscale>
<asrwt>0</asrwt>
<pdfrwt beam="1">  1        4 0.35392567E-01 0.12499578E+03</pdfrwt>
<pdfrwt beam="2">  1       -4 0.26121128E-02 0.12499578E+03</pdfrwt>
<totfact> 0.82769112E+03</totfact>
</mgrwt>
</event>
<event>
 5    1  0.3206158E-002  0.1250000E+03  0.7818608E-02  0.1235069E+00
         -4   -1    0    0    0  501 -0.00000000000E+00  0.00000000000E+00  0.28834155778E+03  0.28834435462E+03  0.12700000000E+01 0.  1.
          4   -1    0    0  501    0  0.00000000000E+00 -0.00000000000E+00 -0.13514666489E+02  0.13574207539E+02  0.12700000000E+01 0.  1.
         25    2    1    2    0    0  0.00000000000E+00  0.00000000000E+00  0.27482689129E+03  0.30191856216E+03  0.12499999200E+03 0.  0.
    9000005    1    3    3    0    0 -0.36282359608E+02 -0.20973875295E+02  0.25446040327E+02  0.49038903250E+02  0.10000000000E+01 0.  0.
    9000005    1    3    3    0    0  0.36282359608E+02  0.20973875295E+02  0.24938085096E+03  0.25287965891E+03  0.10000000000E+01 0.  0.
<mgrwt>
<rscale>  0 0.12499999E+03</rscale>
<asrwt>0</asrwt>
<pdfrwt beam="2">  1        4 0.20839751E-02 0.12499999E+03</pdfrwt>
<pdfrwt beam="1">  1       -4 0.44365026E-01 0.12499999E+03</pdfrwt>
<totfact> 0.75358825E+03</totfact>
</mgrwt>
</event>
<event>
 5    1  0.3206158E-002  0.1249983E+03  0.7818608E-02  0.1235072E+00
         -4   -1    0    0    0  501 -0.00000000000E+00  0.00000000000E+00  0.24721111138E+01  0.27792505031E+01  0.12700000000E+01 0. -1.
          4   -1    0    0  501    0  0.00000000000E+00 -0.00000000000E+00 -0.14873606455E+04  0.14873611877E+04  0.12700000000E+01 0. -1.
         25    2    1    2    0    0  0.00000000000E+00  0.00000000000E+00 -0.14848885343E+04  0.14901404382E+04  0.12499826408E+03 0.  0.
    9000005    1    3    3    0    0  0.67787957189E+01  0.35567440091E+02 -0.13496284918E+04  0.13501144621E+04  0.10000000000E+01 0.  0.
    9000005    1    3    3    0    0 -0.67787957189E+01 -0.35567440091E+02 -0.13526004253E+03  0.14002597606E+03  0.10000000000E+01 0.  0.
<mgrwt>
<rscale>  0 0.12499826E+03</rscale>
<asrwt>0</asrwt>
<pdfrwt beam="2">  1        4 0.22884771E+00 0.12499826E+03</pdfrwt>
<pdfrwt beam="1">  1       -4 0.40399379E-03 0.12499826E+03</pdfrwt>
<totfact> 0.18125898E+03</totfact>
</mgrwt>
</event>
<event>
 5    1  0.3206158E-002  0.1250055E+03  0.7818608E-02  0.1235061E+00
          4   -1    0    0  501    0  0.00000000000E+00  0.00000000000E+00  0.11214572589E+02  0.11286254399E+02  0.12700000000E+01 0. -1.
         -4   -1    0    0    0  501 -0.00000000000E+00 -0.00000000000E+00 -0.34716722166E+03  0.34716954460E+03  0.12700000000E+01 0. -1.
         25    2    1    2    0    0  0.00000000000E+00  0.00000000000E+00 -0.33595264907E+03  0.35845579900E+03  0.12500550954E+03 0.  0.
    9000005    1    3    3    0    0  0.67090745508E+01  0.22424443862E+02 -0.33413734350E+03  0.33495765656E+03  0.10000000000E+01 0.  0.
    9000005    1    3    3    0    0 -0.67090745508E+01 -0.22424443862E+02 -0.18153055716E+01  0.23498142441E+02  0.10000000000E+01 0.  0.
<mgrwt>
<rscale>  0 0.12500551E+03</rscale>
<asrwt>0</asrwt>
<pdfrwt beam="1">  1        4 0.17310118E-02 0.12500551E+03</pdfrwt>
<pdfrwt beam="2">  1       -4 0.53416026E-01 0.12500551E+03</pdfrwt>
<totfact> 0.68795843E+03</totfact>
</mgrwt>
</event>
<event>
 5    1  0.3206158E-002  0.1250000E+03  0.7818608E-02  0.1235069E+00
         -4   -1    0    0    0  501 -0.00000000000E+00  0.00000000000E+00  0.96855585384E+01  0.97684668296E+01  0.12700000000E+01 0.  1.
          4   -1    0    0  501    0  0.00000000000E+00 -0.00000000000E+00 -0.40150371687E+03  0.40150572544E+03  0.12700000000E+01 0.  1.
         25    2    1    2    0    0  0.00000000000E+00  0.00000000000E+00 -0.39181815833E+03  0.41127419227E+03  0.12499996811E+03 0.  0.
    9000005    1    3    3    0    0 -0.17771239338E+02 -0.48011706600E+02 -0.77997624921E+02  0.93303646292E+02  0.10000000000E+01 0.  0.
    9000005    1    3    3    0    0  0.17771239338E+02  0.48011706600E+02 -0.31382053341E+03  0.31797054598E+03  0.10000000000E+01 0.  0.
<mgrwt>
<rscale>  0 0.12499997E+03</rscale>
<asrwt>0</asrwt>
<pdfrwt beam="2">  1        4 0.61776322E-01 0.12499997E+03</pdfrwt>
<pdfrwt beam="1">  1       -4 0.14966183E-02 0.12499997E+03</pdfrwt>
<totfact> 0.63470899E+03</totfact>
</mgrwt>
</event>
<event>
 5    1  0.3206158E-002  0.1250012E+03  0.7818608E-02  0.1235067E+00
         -4   -1    0    0    0  501 -0.00000000000E+00  0.00000000000E+00  0.64917114383E+01  0.66147726641E+01  0.12700000000E+01 0.  1.
          4   -1    0    0  501    0  0.00000000000E+00 -0.00000000000E+00 -0.59596702733E+03  0.59596838051E+03  0.12700000000E+01 0.  1.
         25    2    1    2    0    0  0.00000000000E+00  0.00000000000E+00 -0.58947531589E+03  0.60258315317E+03  0.12500123376E+03 0.  0.
    9000005    1    3    3    0    0 -0.29982957831E+02 -0.35437514884E+02 -0.93046109865E+02  0.10398737319E+03  0.10000000000E+01 0.  0.
    9000005    1    3    3    0    0  0.29982957831E+02  0.35437514884E+02 -0.49642920603E+03  0.49859577998E+03  0.10000000000E+01 0.  0.
<mgrwt>
<rscale>  0 0.12500123E+03</rscale>
<asrwt>0</asrwt>
<pdfrwt beam="2">  1        4 0.91696763E-01 0.12500123E+03</pdfrwt>
<pdfrwt beam="1">  1       -4 0.10082956E-02 0.12500123E+03</pdfrwt>
<totfact> 0.48703658E+03</totfact>
</mgrwt>
</event>
<event>
 5    1  0.3206158E-002  0.1250006E+03  0.7818608E-02  0.1235068E+00
          4   -1    0    0  501    0  0.00000000000E+00  0.00000000000E+00  0.10916040085E+04  0.10916047473E+04  0.12700000000E+01 0.  1.
         -4   -1    0    0    0  501 -0.00000000000E+00 -0.00000000000E+00 -0.34650411035E+01  0.36904484617E+01  0.12700000000E+01 0.  1.
         25    2    1    2    0    0  0.00000000000E+00  0.00000000000E+00  0.10881389674E+04  0.10952951957E+04  0.12500061375E+03 0.  0.
    9000005    1    3    3    0    0 -0.10142721077E+02  0.53263035558E+02  0.27180764864E+03  0.27716461464E+03  0.10000000000E+01 0.  0.
    9000005    1    3    3    0    0  0.10142721077E+02 -0.53263035558E+02  0.81633131875E+03  0.81813058109E+03  0.10000000000E+01 0.  0.
<mgrwt>
<rscale>  0 0.12500061E+03</rscale>
<asrwt>0</asrwt>
<pdfrwt beam="1">  1        4 0.16795655E+00 0.12500061E+03</pdfrwt>
<pdfrwt beam="2">  1       -4 0.55047884E-03 0.12500061E+03</pdfrwt>
<totfact> 0.27621106E+03</totfact>
</mgrwt>
</event>
<event>
 5    1  0.3206158E-002  0.1249992E+03  0.7818608E-02  0.1235071E+00
         -4   -1    0    0    0  501 -0.00000000000E+00  0.00000000000E+00  0.56235062070E+01  0.57651298389E+01  0.12700000000E+01 0.  1.
          4   -1    0    0  501    0  0.00000000000E+00 -0.00000000000E+00 -0.68583983205E+03  0.68584100791E+03  0.12700000000E+01 0.  1.
         25    2    1    2    0    0  0.00000000000E+00  0.00000000000E+00 -0.68021632584E+03  0.69160613775E+03  0.12499919929E+03 0.  0.
    9000005    1    3    3    0    0 -0.60876704818E+02 -0.13979808080E+02 -0.35088200130E+03  0.35639947679E+03  0.10000000000E+01 0.  0.
    9000005    1    3    3    0    0  0.60876704818E+02  0.13979808080E+02 -0.32933432455E+03  0.33520666095E+03  0.10000000000E+01 0.  0.
<mgrwt>
<rscale>  0 0.12499920E+03</rscale>
<asrwt>0</asrwt>
<pdfrwt beam="2">  1        4 0.10552474E+00 0.12499920E+03</pdfrwt>
<pdfrwt beam="1">  1       -4 0.87613992E-03 0.12499920E+03</pdfrwt>
<totfact> 0.43534294E+03</totfact>
</mgrwt>
</event>
<event>
 5    1  0.3206158E-002  0.1250029E+03  0.7818608E-02  0.1235065E+00
         -4   -1    0    0    0  501 -0.00000000000E+00  0.00000000000E+00  0.18452087860E+03  0.18452524905E+03  0.12700000000E+01 0. -1.
          4   -1    0    0  501    0  0.00000000000E+00 -0.00000000000E+00 -0.21146989461E+02  0.21185090589E+02  0.12700000000E+01 0. -1.
         25    2    1    2    0    0  0.00000000000E+00  0.00000000000E+00  0.16337388913E+03  0.20571033964E+03  0.12500286470E+03 0.  0.
    9000005    1    3    3    0    0  0.33020728418E+01 -0.25619442104E+02  0.17533223641E+03  0.17722768583E+03  0.10000000000E+01 0.  0.
    9000005    1    3    3    0    0 -0.33020728418E+01  0.25619442104E+02 -0.11958347275E+02  0.28482653815E+02  0.10000000000E+01 0.  0.
<mgrwt>
<rscale>  0 0.12500286E+03</rscale>
<asrwt>0</asrwt>
<pdfrwt beam="2">  1        4 0.32566500E-02 0.12500286E+03</pdfrwt>
<pdfrwt beam="1">  1       -4 0.28391095E-01 0.12500286E+03</pdfrwt>
<totfact> 0.89175551E+03</totfact>
</mgrwt>
</event>
<event>
 5    1  0.3206158E-002  0.1250021E+03  0.7818608E-02  0.1235066E+00
          4   -1    0    0  501    0  0.00000000000E+00  0.00000000000E+00  0.35156085435E+03  0.35156314826E+03  0.12700000000E+01 0.  1.
         -4   -1    0    0    0  501 -0.00000000000E+00 -0.00000000000E+00 -0.11072901542E+02  0.11145494541E+02  0.12700000000E+01 0.  1.
         25    2    1    2    0    0  0.00000000000E+00  0.00000000000E+00  0.34048795281E+03  0.36270864280E+03  0.12500205419E+03 0.  0.
    9000005    1    3    3    0    0  0.36195900841E+01  0.60034510473E+02  0.21949762315E+03  0.22759053243E+03  0.10000000000E+01 0.  0.
    9000005    1    3    3    0    0 -0.36195900841E+01 -0.60034510473E+02  0.12099032965E+03  0.13511811037E+03  0.10000000000E+01 0.  0.
<mgrwt>
<rscale>  0 0.12500205E+03</rscale>
<asrwt>0</asrwt>
<pdfrwt beam="1">  1        4 0.54092047E-01 0.12500205E+03</pdfrwt>
<pdfrwt beam="2">  1       -4 0.17092838E-02 0.12500205E+03</pdfrwt>
<totfact> 0.68345603E+03</totfact>
</mgrwt>
</event>
<event>
 5    1  0.3206158E-002  0.1249973E+03  0.7818608E-02  0.1235074E+00
         -4   -1    0    0    0  501 -0.00000000000E+00  0.00000000000E+00  0.21350188225E+03  0.21350565947E+03  0.12700000000E+01 0. -1.
          4   -1    0    0  501    0  0.00000000000E+00 -0.00000000000E+00 -0.18269312571E+02  0.18313401700E+02  0.12700000000E+01 0. -1.
         25    2    1    2    0    0  0.00000000000E+00  0.00000000000E+00  0.19523256968E+03  0.23181906117E+03  0.12499728340E+03 0.  0.
    9000005    1    3    3    0    0 -0.35206040430E+02  0.51224011470E+02  0.85637915136E+02  0.10582162890E+03  0.10000000000E+01 0.  0.
    9000005    1    3    3    0    0  0.35206040430E+02 -0.51224011470E+02  0.10959465455E+03  0.12599743227E+03  0.10000000000E+01 0.  0.
<mgrwt>
<rscale>  0 0.12499728E+03</rscale>
<asrwt>0</asrwt>
<pdfrwt beam="2">  1        4 0.28143455E-02 0.12499728E+03</pdfrwt>
<pdfrwt beam="1">  1       -4 0.32850126E-01 0.12499728E+03</pdfrwt>
<totfact> 0.85036211E+03</totfact>
</mgrwt>
</event>
<event>
 5    1  0.3206158E-002  0.1250005E+03  0.7818608E-02  0.1235068E+00
          4   -1    0    0  501    0  0.00000000000E+00  0.00000000000E+00  0.22667269098E+02  0.22702818952E+02  0.12700000000E+01 0. -1.
         -4   -1    0    0    0  501 -0.00000000000E+00 -0.00000000000E+00 -0.17215856241E+03  0.17216324669E+03  0.12700000000E+01 0. -1.
         25    2    1    2    0    0  0.00000000000E+00  0.00000000000E+00 -0.14949129331E+03  0.19486606564E+03  0.12500054705E+03 0.  0.
    9000005    1    3    3    0    0  0.66615866454E+01  0.61491211855E+02 -0.88666242991E+02  0.10811220337E+03  0.10000000000E+01 0.  0.
    9000005    1    3    3    0    0 -0.66615866454E+01 -0.61491211855E+02 -0.60825050316E+02  0.86753862266E+02  0.10000000000E+01 0.  0.
<mgrwt>
<rscale>  0 0.12500055E+03</rscale>
<asrwt>0</asrwt>
<pdfrwt beam="1">  1        4 0.34903672E-02 0.12500055E+03</pdfrwt>
<pdfrwt beam="2">  1       -4 0.26489027E-01 0.12500055E+03</pdfrwt>
<totfact> 0.91006347E+03</totfact>
</mgrwt>
</event>
<event>
 5    1  0.3206158E-002  0.1250005E+03  0.7818608E-02  0.1235068E+00
          4   -1    0    0  501    0  0.00000000000E+00  0.00000000000E+00  0.18912854229E+03  0.18913280627E+03  0.12700000000E+01 0. -1.
         -4   -1    0    0    0  501 -0.00000000000E+00 -0.00000000000E+00 -0.20630098862E+02  0.20669152838E+02  0.12700000000E+01 0. -1.
         25    2    1    2    0    0  0.00000000000E+00  0.00000000000E+00  0.16849844343E+03  0.20980195911E+03  0.12500054644E+03 0.  0.
    9000005    1    3    3    0    0 -0.24347172981E+02 -0.23248208718E+02 -0.41189390930E+01  0.33929776009E+02  0.10000000000E+01 0.  0.
    9000005    1    3    3    0    0  0.24347172981E+02  0.23248208718E+02  0.17261738252E+03  0.17587218310E+03  0.10000000000E+01 0.  0.
<mgrwt>
<rscale>  0 0.12500055E+03</rscale>
<asrwt>0</asrwt>
<pdfrwt beam="1">  1        4 0.29100031E-01 0.12500055E+03</pdfrwt>
<pdfrwt beam="2">  1       -4 0.31771935E-02 0.12500055E+03</pdfrwt>
<totfact> 0.88507152E+03</totfact>
</mgrwt>
</event>
<event>
 5    1  0.3206158E-002  0.1250028E+03  0.7818608E-02  0.1235065E+00
          4   -1    0    0  501    0  0.00000000000E+00  0.00000000000E+00  0.19989007747E+02  0.20029311788E+02  0.12700000000E+01 0.  1.
         -4   -1    0    0    0  501 -0.00000000000E+00 -0.00000000000E+00 -0.19518947875E+03  0.19519361033E+03  0.12700000000E+01 0.  1.
         25    2    1    2    0    0  0.00000000000E+00  0.00000000000E+00 -0.17520047100E+03  0.21522292212E+03  0.12500280463E+03 0.  0.
    9000005    1    3    3    0    0 -0.11032624207E+02  0.32799834434E+00  0.18305946664E+02  0.21399393988E+02  0.10000000000E+01 0.  0.
    9000005    1    3    3    0    0  0.11032624207E+02 -0.32799834434E+00 -0.19350641766E+03  0.19382352813E+03  0.10000000000E+01 0.  0.
<mgrwt>
<rscale>  0 0.12500280E+03</rscale>
<asrwt>0</asrwt>
<pdfrwt beam="1">  1        4 0.30786502E-02 0.12500280E+03</pdfrwt>
<pdfrwt beam="2">  1       -4 0.30032567E-01 0.12500280E+03</pdfrwt>
<totfact> 0.87624459E+03</totfact>
</mgrwt>
</event>
<event>
 5    1  0.3206158E-002  0.1249823E+03  0.7818608E-02  0.1235097E+00
          4   -1    0    0  501    0  0.00000000000E+00  0.00000000000E+00  0.15905513364E+03  0.15906020381E+03  0.12700000000E+01 0.  1.
         -4   -1    0    0    0  501 -0.00000000000E+00 -0.00000000000E+00 -0.24530252898E+02  0.24563106628E+02  0.12700000000E+01 0.  1.
         25    2    1    2    0    0  0.00000000000E+00  0.00000000000E+00  0.13452488074E+03  0.18362331044E+03  0.12498230514E+03 0.  0.
    9000005    1    3    3    0    0 -0.61066502778E+02 -0.56786930745E+01  0.49707021483E+02  0.78950321730E+02  0.10000000000E+01 0.  0.
    9000005    1    3    3    0    0  0.61066502778E+02  0.56786930745E+01  0.84817859259E+02  0.10467298871E+03  0.10000000000E+01 0.  0.
<mgrwt>
<rscale>  0 0.12498231E+03</rscale>
<asrwt>0</asrwt>
<pdfrwt beam="1">  1        4 0.24472937E-01 0.12498231E+03</pdfrwt>
<pdfrwt beam="2">  1       -4 0.37768023E-02 0.12498231E+03</pdfrwt>
<totfact> 0.93005713E+03</totfact>
</mgrwt>
</event>
<event>
 5    1  0.3206158E-002  0.1249916E+03  0.7818608E-02  0.1235082E+00
         -4   -1    0    0    0  501 -0.00000000000E+00  0.00000000000E+00  0.38604825951E+03  0.38605034849E+03  0.12700000000E+01 0.  1.
          4   -1    0    0  501    0  0.00000000000E+00 -0.00000000000E+00 -0.10075210744E+02  0.10154938283E+02  0.12700000000E+01 0.  1.
         25    2    1    2    0    0  0.00000000000E+00  0.00000000000E+00  0.37597304877E+03  0.39620528677E+03  0.12499158320E+03 0.  0.
    9000005    1    3    3    0    0  0.23679539534E+02 -0.23293176890E+02  0.20210660227E+02  0.38894260103E+02  0.10000000000E+01 0.  0.
    9000005    1    3    3    0    0 -0.23679539534E+02  0.23293176890E+02  0.35576238854E+03  0.35731102667E+03  0.10000000000E+01 0.  0.
<mgrwt>
<rscale>  0 0.12499158E+03</rscale>
<asrwt>0</asrwt>
<pdfrwt beam="2">  1        4 0.15563262E-02 0.12499158E+03</pdfrwt>
<pdfrwt beam="1">  1       -4 0.59398326E-01 0.12499158E+03</pdfrwt>
<totfact> 0.64935609E+03</totfact>
</mgrwt>
</event>
<event>
 5    1  0.3206158E-002  0.1250051E+03  0.7818608E-02  0.1235061E+00
         -4   -1    0    0    0  501 -0.00000000000E+00  0.00000000000E+00  0.43000131429E+01  0.44836383695E+01  0.12700000000E+01 0.  1.
          4   -1    0    0  501    0  0.00000000000E+00 -0.00000000000E+00 -0.88932474565E+03  0.88932565246E+03  0.12700000000E+01 0.  1.
         25    2    1    2    0    0  0.00000000000E+00  0.00000000000E+00 -0.88502473251E+03  0.89380929083E+03  0.12500508480E+03 0.  0.
    9000005    1    3    3    0    0  0.36171938841E+02  0.99605570223E+01 -0.85150091292E+02  0.93054607101E+02  0.10000000000E+01 0.  0.
    9000005    1    3    3    0    0 -0.36171938841E+02 -0.99605570223E+01 -0.79987464122E+03  0.80075468373E+03  0.10000000000E+01 0.  0.
<mgrwt>
<rscale>  0 0.12500508E+03</rscale>
<asrwt>0</asrwt>
<pdfrwt beam="2">  1        4 0.13683324E+00 0.12500508E+03</pdfrwt>
<pdfrwt beam="1">  1       -4 0.67573596E-03 0.12500508E+03</pdfrwt>
<totfact> 0.34394294E+03</totfact>
</mgrwt>
</event>
<event>
 5    1  0.3206158E-002  0.1249578E+03  0.7818608E-02  0.1235135E+00
          4   -1    0    0  501    0  0.00000000000E+00  0.00000000000E+00  0.65270946410E+02  0.65283300662E+02  0.12700000000E+01 0. -1.
         -4   -1    0    0    0  501 -0.00000000000E+00 -0.00000000000E+00 -0.59781531912E+02  0.59795020342E+02  0.12700000000E+01 0. -1.
         25    2    1    2    0    0  0.00000000000E+00  0.00000000000E+00  0.54894144987E+01  0.12507832100E+03  0.12495780373E+03 0.  0.
    9000005    1    3    3    0    0 -0.58156972797E+02 -0.78858462519E+01  0.24170798117E+02  0.63479504863E+02  0.10000000000E+01 0.  0.
    9000005    1    3    3    0    0  0.58156972797E+02  0.78858462519E+01 -0.18681383619E+02  0.61598816141E+02  0.10000000000E+01 0.  0.
<mgrwt>
<rscale>  0 0.12495780E+03</rscale>
<asrwt>0</asrwt>
<pdfrwt beam="1">  1        4 0.10043672E-01 0.12495780E+03</pdfrwt>
<pdfrwt beam="2">  1       -4 0.91991467E-02 0.12495780E+03</pdfrwt>
<totfact> 0.10461135E+04</totfact>
</mgrwt>
</event>
<event>
 5    1  0.3206158E-002  0.1249982E+03  0.7818608E-02  0.1235072E+00
          4   -1    0    0  501    0  0.00000000000E+00  0.00000000000E+00  0.47577080073E+02  0.47594027444E+02  0.12700000000E+01 0.  1.
         -4   -1    0    0    0  501 -0.00000000000E+00 -0.00000000000E+00 -0.82064811203E+02  0.82074637604E+02  0.12700000000E+01 0.  1.
         25    2    1    2    0    0  0.00000000000E+00  0.00000000000E+00 -0.34487731130E+02  0.12966866505E+03  0.12499823637E+03 0.  0.
    9000005    1    3    3    0    0  0.15057773574E+02 -0.59921801712E+02 -0.75246505392E+01  0.62249331171E+02  0.10000000000E+01 0.  0.
    9000005    1    3    3    0    0 -0.15057773574E+02  0.59921801712E+02 -0.26963080590E+02  0.67419333877E+02  0.10000000000E+01 0.  0.
<mgrwt>
<rscale>  0 0.12499824E+03</rscale>
<asrwt>0</asrwt>
<pdfrwt beam="1">  1        4 0.73216103E-02 0.12499824E+03</pdfrwt>
<pdfrwt beam="2">  1       -4 0.12627415E-01 0.12499824E+03</pdfrwt>
<totfact> 0.10352013E+04</totfact>
</mgrwt>
</event>
<event>
 5    1  0.3206158E-002  0.1250017E+03  0.7818608E-02  0.1235067E+00
         -4   -1    0    0    0  501 -0.00000000000E+00  0.00000000000E+00  0.84517869050E+02  0.84527410281E+02  0.12700000000E+01 0.  1.
          4   -1    0    0  501    0  0.00000000000E+00 -0.00000000000E+00 -0.46198388406E+02  0.46215841346E+02  0.12700000000E+01 0.  1.
         25    2    1    2    0    0  0.00000000000E+00  0.00000000000E+00  0.38319480644E+02  0.13074325163E+03  0.12500166099E+03 0.  0.
    9000005    1    3    3    0    0  0.14785387903E+01  0.62465790751E+02  0.20302021341E+02  0.65706416442E+02  0.10000000000E+01 0.  0.
    9000005    1    3    3    0    0 -0.14785387903E+01 -0.62465790751E+02  0.18017459304E+02  0.65036835185E+02  0.10000000000E+01 0.  0.
<mgrwt>
<rscale>  0 0.12500166E+03</rscale>
<asrwt>0</asrwt>
<pdfrwt beam="2">  1        4 0.71095208E-02 0.12500166E+03</pdfrwt>
<pdfrwt beam="1">  1       -4 0.13004826E-01 0.12500166E+03</pdfrwt>
<totfact> 0.10328210E+04</totfact>
</mgrwt>
</event>
<event>
 5    1  0.3206158E-002  0.1250018E+03  0.7818608E-02  0.1235066E+00
          4   -1    0    0  501    0  0.00000000000E+00  0.00000000000E+00  0.82402306869E+02  0.82412093029E+02  0.12700000000E+01 0.  1.
         -4   -1    0    0    0  501 -0.00000000000E+00 -0.00000000000E+00 -0.47384879906E+02  0.47401895992E+02  0.12700000000E+01 0.  1.
         25    2    1    2    0    0  0.00000000000E+00  0.00000000000E+00  0.35017426963E+02  0.12981398902E+03  0.12500180620E+03 0.  0.
    9000005    1    3    3    0    0  0.60360197384E+01  0.53812830615E+02 -0.14886874431E+02  0.56168258861E+02  0.10000000000E+01 0.  0.
    9000005    1    3    3    0    0 -0.60360197384E+01 -0.53812830615E+02  0.49904301395E+02  0.73645730160E+02  0.10000000000E+01 0.  0.
<mgrwt>
<rscale>  0 0.12500181E+03</rscale>
<asrwt>0</asrwt>
<pdfrwt beam="1">  1        4 0.12679340E-01 0.12500181E+03</pdfrwt>
<pdfrwt beam="2">  1       -4 0.72920433E-02 0.12500181E+03</pdfrwt>
<totfact> 0.10348066E+04</totfact>
</mgrwt>
</event>
<event>
 5    1  0.3206158E-002  0.1249650E+03  0.7818608E-02  0.1235124E+00
         -4   -1    0    0    0  501 -0.00000000000E+00  0.00000000000E+00  0.21136516240E+02  0.21174636213E+02  0.12700000000E+01 0.  1.
          4   -1    0    0  501    0  0.00000000000E+00 -0.00000000000E+00 -0.18450036499E+03  0.18450473593E+03  0.12700000000E+01 0.  1.
         25    2    1    2    0    0  0.00000000000E+00  0.00000000000E+00 -0.16336384875E+03  0.20567937214E+03  0.12496502330E+03 0.  0.
    9000005    1    3    3    0    0  0.11459579698E+02 -0.38643084659E+02 -0.31181346121E+01  0.40439247301E+02  0.10000000000E+01 0.  0.
    9000005    1    3    3    0    0 -0.11459579698E+02  0.38643084659E+02 -0.16024571414E+03  0.16524012484E+03  0.10000000000E+01 0.  0.
<mgrwt>
<rscale>  0 0.12496502E+03</rscale>
<asrwt>0</asrwt>
<pdfrwt beam="2">  1        4 0.28387939E-01 0.12496502E+03</pdfrwt>
<pdfrwt beam="1">  1       -4 0.32550404E-02 0.12496502E+03</pdfrwt>
<totfact> 0.89256197E+03</totfact>
</mgrwt>
</event>
<event>
 5    1  0.3206158E-002  0.1249987E+03  0.7818608E-02  0.1235071E+00
          4   -1    0    0  501    0  0.00000000000E+00  0.00000000000E+00  0.23070521985E+02  0.23105451406E+02  0.12700000000E+01 0. -1.
         -4   -1    0    0    0  501 -0.00000000000E+00 -0.00000000000E+00 -0.16914893139E+03  0.16915369901E+03  0.12700000000E+01 0. -1.
         25    2    1    2    0    0  0.00000000000E+00  0.00000000000E+00 -0.14607840940E+03  0.19225915042E+03  0.12499871690E+03 0.  0.
    9000005    1    3    3    0    0  0.45281787516E+02  0.24217961088E+02 -0.18264664161E+02  0.54511905826E+02  0.10000000000E+01 0.  0.
    9000005    1    3    3    0    0 -0.45281787516E+02 -0.24217961088E+02 -0.12781374524E+03  0.13774724459E+03  0.10000000000E+01 0.  0.
<mgrwt>
<rscale>  0 0.12499872E+03</rscale>
<asrwt>0</asrwt>
<pdfrwt beam="1">  1        4 0.35523648E-02 0.12499872E+03</pdfrwt>
<pdfrwt beam="2">  1       -4 0.26025965E-01 0.12499872E+03</pdfrwt>
<totfact> 0.91458338E+03</totfact>
</mgrwt>
</event>
<event>
 5    1  0.3206158E-002  0.1250005E+03  0.7818608E-02  0.1235068E+00
         -4   -1    0    0    0  501 -0.00000000000E+00  0.00000000000E+00  0.62649120190E+02  0.62661991355E+02  0.12700000000E+01 0.  1.
          4   -1    0    0  501    0  0.00000000000E+00 -0.00000000000E+00 -0.62326023828E+02  0.62338961703E+02  0.12700000000E+01 0.  1.
         25    2    1    2    0    0  0.00000000000E+00  0.00000000000E+00  0.32309636205E+00  0.12500095306E+03  0.12500053550E+03 0.  0.
    9000005    1    3    3    0    0 -0.23705338699E+02  0.56730154954E+02  0.11343262716E+02  0.62529378479E+02  0.10000000000E+01 0.  0.
    9000005    1    3    3    0    0  0.23705338699E+02 -0.56730154954E+02 -0.11020166354E+02  0.62471574579E+02  0.10000000000E+01 0.  0.
<mgrwt>
<rscale>  0 0.12500054E+03</rscale>
<asrwt>0</asrwt>
<pdfrwt beam="2">  1        4 0.95906044E-02 0.12500054E+03</pdfrwt>
<pdfrwt beam="1">  1       -4 0.96403114E-02 0.12500054E+03</pdfrwt>
<totfact> 0.10452715E+04</totfact>
</mgrwt>
</event>
<event>
 5    1  0.3206158E-002  0.1249992E+03  0.7818608E-02  0.1235071E+00
         -4   -1    0    0    0  501 -0.00000000000E+00  0.00000000000E+00  0.41634487503E+03  0.41634681200E+03  0.12700000000E+01 0. -1.
          4   -1    0    0  501    0  0.00000000000E+00 -0.00000000000E+00 -0.93371778888E+01  0.94231518574E+01  0.12700000000E+01 0. -1.
         25    2    1    2    0    0  0.00000000000E+00  0.00000000000E+00  0.40700769714E+03  0.42576996386E+03  0.12499918637E+03 0.  0.
    9000005    1    3    3    0    0 -0.43694625516E+02 -0.44277653876E+02  0.22378943227E+03  0.23227664740E+03  0.10000000000E+01 0.  0.
    9000005    1    3    3    0    0  0.43694625516E+02  0.44277653876E+02  0.18321826487E+03  0.19349331646E+03  0.10000000000E+01 0.  0.
<mgrwt>
<rscale>  0 0.12499919E+03</rscale>
<asrwt>0</asrwt>
<pdfrwt beam="2">  1        4 0.14432513E-02 0.12499919E+03</pdfrwt>
<pdfrwt beam="1">  1       -4 0.64059821E-01 0.12499919E+03</pdfrwt>
<totfact> 0.62122411E+03</totfact>
</mgrwt>
</event>
<event>
 5    1  0.3206158E-002  0.1250002E+03  0.7818608E-02  0.1235069E+00
          4   -1    0    0  501    0  0.00000000000E+00  0.00000000000E+00  0.15203486338E+03  0.15204016767E+03  0.12700000000E+01 0. -1.
         -4   -1    0    0    0  501 -0.00000000000E+00 -0.00000000000E+00 -0.25671737997E+02  0.25703132723E+02  0.12700000000E+01 0. -1.
         25    2    1    2    0    0  0.00000000000E+00  0.00000000000E+00  0.12636312539E+03  0.17774330039E+03  0.12500016550E+03 0.  0.
    9000005    1    3    3    0    0  0.47973986525E+02 -0.32075406465E+02  0.97276378416E+02  0.11311069304E+03  0.10000000000E+01 0.  0.
    9000005    1    3    3    0    0 -0.47973986525E+02  0.32075406465E+02  0.29086746970E+02  0.64632607346E+02  0.10000000000E+01 0.  0.
<mgrwt>
<rscale>  0 0.12500017E+03</rscale>
<asrwt>0</asrwt>
<pdfrwt beam="1">  1        4 0.23392802E-01 0.12500017E+03</pdfrwt>
<pdfrwt beam="2">  1       -4 0.39523211E-02 0.12500017E+03</pdfrwt>
<totfact> 0.94024451E+03</totfact>
</mgrwt>
</event>
<event>
 5    1  0.3206158E-002  0.1249994E+03  0.7818608E-02  0.1235070E+00
         -4   -1    0    0    0  501 -0.00000000000E+00  0.00000000000E+00  0.63465581630E+02  0.63478287245E+02  0.12700000000E+01 0.  1.
          4   -1    0    0  501    0  0.00000000000E+00 -0.00000000000E+00 -0.61523104497E+02  0.61536211185E+02  0.12700000000E+01 0.  1.
         25    2    1    2    0    0  0.00000000000E+00  0.00000000000E+00  0.19424771322E+01  0.12501449843E+03  0.12499940640E+03 0.  0.
    9000005    1    3    3    0    0  0.57931663839E+02  0.42423776660E+00 -0.22461384279E+02  0.62143152773E+02  0.10000000000E+01 0.  0.
    9000005    1    3    3    0    0 -0.57931663839E+02 -0.42423776660E+00  0.24403861411E+02  0.62871345657E+02  0.10000000000E+01 0.  0.
<mgrwt>
<rscale>  0 0.12499941E+03</rscale>
<asrwt>0</asrwt>
<pdfrwt beam="2">  1        4 0.94670786E-02 0.12499941E+03</pdfrwt>
<pdfrwt beam="1">  1       -4 0.97659211E-02 0.12499941E+03</pdfrwt>
<totfact> 0.10452688E+04</totfact>
</mgrwt>
</event>
<event>
 5    1  0.3206158E-002  0.1250010E+03  0.7818608E-02  0.1235068E+00
         -4   -1    0    0    0  501 -0.00000000000E+00  0.00000000000E+00  0.89202756300E+02  0.89211796481E+02  0.12700000000E+01 0. -1.
          4   -1    0    0  501    0  0.00000000000E+00 -0.00000000000E+00 -0.43770936919E+02  0.43789357369E+02  0.12700000000E+01 0. -1.
         25    2    1    2    0    0  0.00000000000E+00  0.00000000000E+00  0.45431819381E+02  0.13300115385E+03  0.12500102685E+03 0.  0.
    9000005    1    3    3    0    0 -0.47326502906E+02 -0.40692954371E+02  0.19419265004E+02  0.65374477176E+02  0.10000000000E+01 0.  0.
    9000005    1    3    3    0    0  0.47326502906E+02  0.40692954371E+02  0.26012554376E+02  0.67626676674E+02  0.10000000000E+01 0.  0.
<mgrwt>
<rscale>  0 0.12500103E+03</rscale>
<asrwt>0</asrwt>
<pdfrwt beam="2">  1        4 0.67361028E-02 0.12500103E+03</pdfrwt>
<pdfrwt beam="1">  1       -4 0.13725613E-01 0.12500103E+03</pdfrwt>
<totfact> 0.10280137E+04</totfact>
</mgrwt>
</event>
<event>
 5    1  0.3206158E-002  0.1250009E+03  0.7818608E-02  0.1235068E+00
          4   -1    0    0  501    0  0.00000000000E+00  0.00000000000E+00  0.19146830854E+02  0.19188903871E+02  0.12700000000E+01 0.  1.
         -4   -1    0    0    0  501 -0.00000000000E+00 -0.00000000000E+00 -0.20375037509E+03  0.20375433308E+03  0.12700000000E+01 0.  1.
         25    2    1    2    0    0  0.00000000000E+00  0.00000000000E+00 -0.18460354423E+03  0.22294323695E+03  0.12500087343E+03 0.  0.
    9000005    1    3    3    0    0 -0.58937137880E+02  0.19646556696E+02 -0.10436288686E+03  0.12145857551E+03  0.10000000000E+01 0.  0.
    9000005    1    3    3    0    0  0.58937137880E+02 -0.19646556696E+02 -0.80240657377E+02  0.10148466144E+03  0.10000000000E+01 0.  0.
<mgrwt>
<rscale>  0 0.12500087E+03</rscale>
<asrwt>0</asrwt>
<pdfrwt beam="1">  1        4 0.29492073E-02 0.12500087E+03</pdfrwt>
<pdfrwt beam="2">  1       -4 0.31349751E-01 0.12500087E+03</pdfrwt>
<totfact> 0.86403068E+03</totfact>
</mgrwt>
</event>
<event>
 5    1  0.3206158E-002  0.1250017E+03  0.7818608E-02  0.1235067E+00
          4   -1    0    0  501    0  0.00000000000E+00  0.00000000000E+00  0.15166110294E+02  0.15219191879E+02  0.12700000000E+01 0. -1.
         -4   -1    0    0    0  501 -0.00000000000E+00 -0.00000000000E+00 -0.25706686716E+03  0.25707000426E+03  0.12700000000E+01 0. -1.
         25    2    1    2    0    0  0.00000000000E+00  0.00000000000E+00 -0.24190075687E+03  0.27228919614E+03  0.12500172064E+03 0.  0.
    9000005    1    3    3    0    0 -0.11723989214E+02 -0.59346190142E+02 -0.86789826206E+02  0.10579648454E+03  0.10000000000E+01 0.  0.
    9000005    1    3    3    0    0  0.11723989214E+02  0.59346190142E+02 -0.15511093066E+03  0.16649271161E+03  0.10000000000E+01 0.  0.
<mgrwt>
<rscale>  0 0.12500172E+03</rscale>
<asrwt>0</asrwt>
<pdfrwt beam="1">  1        4 0.23375724E-02 0.12500172E+03</pdfrwt>
<pdfrwt beam="2">  1       -4 0.39553070E-01 0.12500172E+03</pdfrwt>
<totfact> 0.79208708E+03</totfact>
</mgrwt>
</event>
<event>
 5    1  0.3206158E-002  0.1249970E+03  0.7818608E-02  0.1235074E+00
          4   -1    0    0  501    0  0.00000000000E+00  0.00000000000E+00  0.30324070625E+02  0.30350653358E+02  0.12700000000E+01 0.  1.
         -4   -1    0    0    0  501 -0.00000000000E+00 -0.00000000000E+00 -0.12872438684E+03  0.12873065162E+03  0.12700000000E+01 0.  1.
         25    2    1    2    0    0  0.00000000000E+00  0.00000000000E+00 -0.98400316217E+02  0.15908130498E+03  0.12499695742E+03 0.  0.
    9000005    1    3    3    0    0 -0.38544360637E+02  0.36605110424E+02 -0.91014241081E+02  0.10540490466E+03  0.10000000000E+01 0.  0.
    9000005    1    3    3    0    0  0.38544360637E+02 -0.36605110424E+02 -0.73860751360E+01  0.53676400326E+02  0.10000000000E+01 0.  0.
<mgrwt>
<rscale>  0 0.12499696E+03</rscale>
<asrwt>0</asrwt>
<pdfrwt beam="1">  1        4 0.46677684E-02 0.12499696E+03</pdfrwt>
<pdfrwt beam="2">  1       -4 0.19806278E-01 0.12499696E+03</pdfrwt>
<totfact> 0.97526865E+03</totfact>
</mgrwt>
</event>
<event>
 5    1  0.3206158E-002  0.1249998E+03  0.7818608E-02  0.1235070E+00
         -4   -1    0    0    0  501 -0.00000000000E+00  0.00000000000E+00  0.38041293912E+01  0.40105237096E+01  0.12700000000E+01 0. -1.
          4   -1    0    0  501    0  0.00000000000E+00 -0.00000000000E+00 -0.99951469681E+03  0.99951550366E+03  0.12700000000E+01 0. -1.
         25    2    1    2    0    0  0.00000000000E+00  0.00000000000E+00 -0.99571056742E+03  0.10035260274E+04  0.12499981408E+03 0.  0.
    9000005    1    3    3    0    0 -0.20995848745E+02 -0.49198332643E+02 -0.75724716166E+03  0.75913474788E+03  0.10000000000E+01 0.  0.
    9000005    1    3    3    0    0  0.20995848745E+02  0.49198332643E+02 -0.23846340576E+03  0.24439127948E+03  0.10000000000E+01 0.  0.
<mgrwt>
<rscale>  0 0.12499981E+03</rscale>
<asrwt>0</asrwt>
<pdfrwt beam="2">  1        4 0.15378723E+00 0.12499981E+03</pdfrwt>
<pdfrwt beam="1">  1       -4 0.60119002E-03 0.12499981E+03</pdfrwt>
<totfact> 0.30488509E+03</totfact>
</mgrwt>
</event>
<event>
 5    1  0.3206158E-002  0.1249972E+03  0.7818608E-02  0.1235074E+00
          4   -1    0    0  501    0  0.00000000000E+00  0.00000000000E+00  0.21849064145E+02  0.21885943069E+02  0.12700000000E+01 0. -1.
         -4   -1    0    0    0  501 -0.00000000000E+00 -0.00000000000E+00 -0.17858562265E+03  0.17859013836E+03  0.12700000000E+01 0. -1.
         25    2    1    2    0    0  0.00000000000E+00  0.00000000000E+00 -0.15673655851E+03  0.20047608143E+03  0.12499724177E+03 0.  0.
    9000005    1    3    3    0    0 -0.28567898442E+02 -0.17268708898E+02 -0.16309534623E+03  0.16647950352E+03  0.10000000000E+01 0.  0.
    9000005    1    3    3    0    0  0.28567898442E+02  0.17268708898E+02  0.63587877231E+01  0.33996577911E+02  0.10000000000E+01 0.  0.
<mgrwt>
<rscale>  0 0.12499724E+03</rscale>
<asrwt>0</asrwt>
<pdfrwt beam="1">  1        4 0.33645788E-02 0.12499724E+03</pdfrwt>
<pdfrwt beam="2">  1       -4 0.27477894E-01 0.12499724E+03</pdfrwt>
<totfact> 0.90060832E+03</totfact>
</mgrwt>
</event>
<event>
 5    1  0.3206158E-002  0.1250015E+03  0.7818608E-02  0.1235067E+00
         -4   -1    0    0    0  501 -0.00000000000E+00  0.00000000000E+00  0.17304678990E+02  0.17351219408E+02  0.12700000000E+01 0.  1.
          4   -1    0    0  501    0  0.00000000000E+00 -0.00000000000E+00 -0.22538775169E+03  0.22539132972E+03  0.12700000000E+01 0.  1.
         25    2    1    2    0    0  0.00000000000E+00  0.00000000000E+00 -0.20808307270E+03  0.24274254912E+03  0.12500152004E+03 0.  0.
    9000005    1    3    3    0    0 -0.33575928241E+02  0.11711725963E+02 -0.42482200828E+01  0.35826733819E+02  0.10000000000E+01 0.  0.
    9000005    1    3    3    0    0  0.33575928241E+02 -0.11711725963E+02 -0.20383485262E+03  0.20691581530E+03  0.10000000000E+01 0.  0.
<mgrwt>
<rscale>  0 0.12500152E+03</rscale>
<asrwt>0</asrwt>
<pdfrwt beam="2">  1        4 0.34678892E-01 0.12500152E+03</pdfrwt>
<pdfrwt beam="1">  1       -4 0.26661137E-02 0.12500152E+03</pdfrwt>
<totfact> 0.83387777E+03</totfact>
</mgrwt>
</event>
<event>
 5    1  0.3206158E-002  0.1249990E+03  0.7818608E-02  0.1235071E+00
         -4   -1    0    0    0  501 -0.00000000000E+00  0.00000000000E+00  0.50488728750E+02  0.50504699096E+02  0.12700000000E+01 0.  1.
          4   -1    0    0  501    0  0.00000000000E+00 -0.00000000000E+00 -0.77334118113E+02  0.77344545537E+02  0.12700000000E+01 0.  1.
         25    2    1    2    0    0  0.00000000000E+00  0.00000000000E+00 -0.26845389363E+02  0.12784924463E+03  0.12499901769E+03 0.  0.
    9000005    1    3    3    0    0 -0.36782797039E+02 -0.40995282020E+02 -0.43618770071E+02  0.70265100928E+02  0.10000000000E+01 0.  0.
    9000005    1    3    3    0    0  0.36782797039E+02  0.40995282020E+02  0.16773380708E+02  0.57584143705E+02  0.10000000000E+01 0.  0.
<mgrwt>
<rscale>  0 0.12499902E+03</rscale>
<asrwt>0</asrwt>
<pdfrwt beam="2">  1        4 0.11899587E-01 0.12499902E+03</pdfrwt>
<pdfrwt beam="1">  1       -4 0.77695273E-02 0.12499902E+03</pdfrwt>
<totfact> 0.10390975E+04</totfact>
</mgrwt>
</event>
<event>
 5    1  0.3206158E-002  0.1249972E+03  0.7818608E-02  0.1235074E+00
         -4   -1    0    0    0  501 -0.00000000000E+00  0.00000000000E+00  0.34268815236E+02  0.34292340219E+02  0.12700000000E+01 0. -1.
          4   -1    0    0  501    0  0.00000000000E+00 -0.00000000000E+00 -0.11391722894E+03  0.11392430799E+03  0.12700000000E+01 0. -1.
         25    2    1    2    0    0  0.00000000000E+00  0.00000000000E+00 -0.79648413709E+02  0.14821664821E+03  0.12499721997E+03 0.  0.
    9000005    1    3    3    0    0 -0.55965286677E+01 -0.53788456890E+02 -0.26935133444E+01  0.54155094330E+02  0.10000000000E+01 0.  0.
    9000005    1    3    3    0    0  0.55965286677E+01  0.53788456890E+02 -0.76954900364E+02  0.94061553877E+02  0.10000000000E+01 0.  0.
<mgrwt>
<rscale>  0 0.12499722E+03</rscale>
<asrwt>0</asrwt>
<pdfrwt beam="2">  1        4 0.17528082E-01 0.12499722E+03</pdfrwt>
<pdfrwt beam="1">  1       -4 0.52744796E-02 0.12499722E+03</pdfrwt>
<totfact> 0.99666614E+03</totfact>
</mgrwt>
</event>
<event>
 5    1  0.3206158E-002  0.1250065E+03  0.7818608E-02  0.1235059E+00
         -4   -1    0    0    0  501 -0.00000000000E+00  0.00000000000E+00  0.26637074472E+02  0.26667332759E+02  0.12700000000E+01 0. -1.
          4   -1    0    0  501    0  0.00000000000E+00 -0.00000000000E+00 -0.14654620252E+03  0.14655170546E+03  0.12700000000E+01 0. -1.
         25    2    1    2    0    0  0.00000000000E+00  0.00000000000E+00 -0.11990912804E+03  0.17321903821E+03  0.12500654468E+03 0.  0.
    9000005    1    3    3    0    0 -0.80688679752E+01 -0.34780689773E+02 -0.13102867141E+03  0.13580985142E+03  0.10000000000E+01 0.  0.
    9000005    1    3    3    0    0  0.80688679752E+01  0.34780689773E+02  0.11119543370E+02  0.37409186789E+02  0.10000000000E+01 0.  0.
<mgrwt>
<rscale>  0 0.12500654E+03</rscale>
<asrwt>0</asrwt>
<pdfrwt beam="2">  1        4 0.22548320E-01 0.12500654E+03</pdfrwt>
<pdfrwt beam="1">  1       -4 0.41007624E-02 0.12500654E+03</pdfrwt>
<totfact> 0.94838108E+03</totfact>
</mgrwt>
</event>
<event>
 5    1  0.3206158E-002  0.1249983E+03  0.7818608E-02  0.1235072E+00
         -4   -1    0    0    0  501 -0.00000000000E+00  0.00000000000E+00  0.46991214328E+03  0.46991385945E+03  0.12700000000E+01 0. -1.
          4   -1    0    0  501    0  0.00000000000E+00 -0.00000000000E+00 -0.82622486345E+01  0.83592854060E+01  0.12700000000E+01 0. -1.
         25    2    1    2    0    0  0.00000000000E+00  0.00000000000E+00  0.46164989464E+03  0.47827314485E+03  0.12499830344E+03 0.  0.
    9000005    1    3    3    0    0  0.40553590783E+00  0.37910849513E+02  0.42089871927E+03  0.42260398585E+03  0.10000000000E+01 0.  0.
    9000005    1    3    3    0    0 -0.40553590783E+00 -0.37910849513E+02  0.40751175375E+02  0.55669159008E+02  0.10000000000E+01 0.  0.
<mgrwt>
<rscale>  0 0.12499830E+03</rscale>
<asrwt>0</asrwt>
<pdfrwt beam="2">  1        4 0.12787111E-02 0.12499830E+03</pdfrwt>
<pdfrwt beam="1">  1       -4 0.72301798E-01 0.12499830E+03</pdfrwt>
<totfact> 0.57592544E+03</totfact>
</mgrwt>
</event>
<event>
 5    1  0.3206158E-002  0.1250187E+03  0.7818608E-02  0.1235040E+00
          4   -1    0    0  501    0  0.00000000000E+00  0.00000000000E+00  0.12170373500E+04  0.12170380126E+04  0.12700000000E+01 0. -1.
         -4   -1    0    0    0  501 -0.00000000000E+00 -0.00000000000E+00 -0.30843187140E+01  0.33355542162E+01  0.12700000000E+01 0. -1.
         25    2    1    2    0    0  0.00000000000E+00  0.00000000000E+00  0.12139530313E+04  0.12203735669E+04  0.12501872059E+03 0.  0.
    9000005    1    3    3    0    0  0.29103960528E+02 -0.53286651147E+02  0.75173452979E+03  0.75418320784E+03  0.10000000000E+01 0.  0.
    9000005    1    3    3    0    0 -0.29103960528E+02  0.53286651147E+02  0.46221850151E+03  0.46619035902E+03  0.10000000000E+01 0.  0.
<mgrwt>
<rscale>  0 0.12501872E+03</rscale>
<asrwt>0</asrwt>
<pdfrwt beam="1">  1        4 0.18725595E+00 0.12501872E+03</pdfrwt>
<pdfrwt beam="2">  1       -4 0.49388720E-03 0.12501872E+03</pdfrwt>
<totfact> 0.24175736E+03</totfact>
</mgrwt>
</event>
<event>
 5    1  0.3206158E-002  0.1250032E+03  0.7818608E-02  0.1235064E+00
          4   -1    0    0  501    0  0.00000000000E+00  0.00000000000E+00  0.16444776101E+04  0.16444781005E+04  0.12700000000E+01 0.  1.
         -4   -1    0    0    0  501 -0.00000000000E+00 -0.00000000000E+00 -0.22052267252E+01  0.25447838630E+01  0.12700000000E+01 0.  1.
         25    2    1    2    0    0  0.00000000000E+00  0.00000000000E+00  0.16422723834E+04  0.16470228844E+04  0.12500320162E+03 0.  0.
    9000005    1    3    3    0    0  0.27060695115E+02  0.98225250006E+01  0.15519725540E+04  0.15522398563E+04  0.10000000000E+01 0.  0.
    9000005    1    3    3    0    0 -0.27060695115E+02 -0.98225250006E+01  0.90299829394E+02  0.94783028048E+02  0.10000000000E+01 0.  0.
<mgrwt>
<rscale>  0 0.12500320E+03</rscale>
<asrwt>0</asrwt>
<pdfrwt beam="1">  1        4 0.25302296E+00 0.12500320E+03</pdfrwt>
<pdfrwt beam="2">  1       -4 0.36542279E-03 0.12500320E+03</pdfrwt>
<totfact> 0.15210121E+03</totfact>
</mgrwt>
</event>
<event>
 5    1  0.3206158E-002  0.1249987E+03  0.7818608E-02  0.1235071E+00
         -4   -1    0    0    0  501 -0.00000000000E+00  0.00000000000E+00  0.19510660842E+02  0.19551950963E+02  0.12700000000E+01 0.  1.
          4   -1    0    0  501    0  0.00000000000E+00 -0.00000000000E+00 -0.19995185985E+03  0.19995589303E+03  0.12700000000E+01 0.  1.
         25    2    1    2    0    0  0.00000000000E+00  0.00000000000E+00 -0.18044119901E+03  0.21950784399E+03  0.12499866909E+03 0.  0.
    9000005    1    3    3    0    0  0.14089502374E+02  0.59157252268E+02 -0.11549062046E+03  0.13052654131E+03  0.10000000000E+01 0.  0.
    9000005    1    3    3    0    0 -0.14089502374E+02 -0.59157252268E+02 -0.64950578553E+02  0.88981302684E+02  0.10000000000E+01 0.  0.
<mgrwt>
<rscale>  0 0.12499867E+03</rscale>
<asrwt>0</asrwt>
<pdfrwt beam="2">  1        4 0.30765310E-01 0.12499867E+03</pdfrwt>
<pdfrwt beam="1">  1       -4 0.30051267E-02 0.12499867E+03</pdfrwt>
<totfact> 0.86948872E+03</totfact>
</mgrwt>
</event>
<event>
 5    1  0.3206158E-002  0.1250012E+03  0.7818608E-02  0.1235067E+00
         -4   -1    0    0    0  501 -0.00000000000E+00  0.00000000000E+00  0.87840750366E+01  0.88754083989E+01  0.12700000000E+01 0. -1.
          4   -1    0    0  501    0  0.00000000000E+00 -0.00000000000E+00 -0.44231317540E+03  0.44231499865E+03  0.12700000000E+01 0. -1.
         25    2    1    2    0    0  0.00000000000E+00  0.00000000000E+00 -0.43352910036E+03  0.45119040705E+03  0.12500121021E+03 0.  0.
    9000005    1    3    3    0    0  0.21451767134E+01  0.55963678654E+02 -0.31684509277E+03  0.32175821346E+03  0.10000000000E+01 0.  0.
    9000005    1    3    3    0    0 -0.21451767134E+01 -0.55963678654E+02 -0.11668400759E+03  0.12943219359E+03  0.10000000000E+01 0.  0.
<mgrwt>
<rscale>  0 0.12500121E+03</rscale>
<asrwt>0</asrwt>
<pdfrwt beam="2">  1        4 0.68055329E-01 0.12500121E+03</pdfrwt>
<pdfrwt beam="1">  1       -4 0.13585624E-02 0.12500121E+03</pdfrwt>
<totfact> 0.59859220E+03</totfact>
</mgrwt>
</event>
<event>
 5    1  0.3206158E-002  0.1249946E+03  0.7818608E-02  0.1235078E+00
         -4   -1    0    0    0  501 -0.00000000000E+00  0.00000000000E+00  0.25309000882E+03  0.25309319522E+03  0.12700000000E+01 0.  1.
          4   -1    0    0  501    0  0.00000000000E+00 -0.00000000000E+00 -0.15403493680E+02  0.15455760012E+02  0.12700000000E+01 0.  1.
         25    2    1    2    0    0  0.00000000000E+00  0.00000000000E+00  0.23768651514E+03  0.26854895523E+03  0.12499464738E+03 0.  0.
    9000005    1    3    3    0    0  0.19623825694E+02  0.29924213386E+02  0.22890691840E+03  0.23168929706E+03  0.10000000000E+01 0.  0.
    9000005    1    3    3    0    0 -0.19623825694E+02 -0.29924213386E+02  0.87795967475E+01  0.36859658173E+02  0.10000000000E+01 0.  0.
<mgrwt>
<rscale>  0 0.12499465E+03</rscale>
<asrwt>0</asrwt>
<pdfrwt beam="2">  1        4 0.23740339E-02 0.12499465E+03</pdfrwt>
<pdfrwt beam="1">  1       -4 0.38941189E-01 0.12499465E+03</pdfrwt>
<totfact> 0.79730600E+03</totfact>
</mgrwt>
</event>
<event>
 5    1  0.3206158E-002  0.1250002E+03  0.7818608E-02  0.1235069E+00
          4   -1    0    0  501    0  0.00000000000E+00  0.00000000000E+00  0.29587896049E+02  0.29615139585E+02  0.12700000000E+01 0.  1.
         -4   -1    0    0    0  501 -0.00000000000E+00 -0.00000000000E+00 -0.13193123055E+03  0.13193734306E+03  0.12700000000E+01 0.  1.
         25    2    1    2    0    0  0.00000000000E+00  0.00000000000E+00 -0.10234333450E+03  0.16155248265E+03  0.12500018613E+03 0.  0.
    9000005    1    3    3    0    0 -0.44553134063E+02 -0.41546102949E+02 -0.69182298743E+02  0.92185958174E+02  0.10000000000E+01 0.  0.
    9000005    1    3    3    0    0  0.44553134063E+02  0.41546102949E+02 -0.33161035759E+02  0.69366524474E+02  0.10000000000E+01 0.  0.
<mgrwt>
<rscale>  0 0.12500019E+03</rscale>
<asrwt>0</asrwt>
<pdfrwt beam="1">  1        4 0.45545499E-02 0.12500019E+03</pdfrwt>
<pdfrwt beam="2">  1       -4 0.20299678E-01 0.12500019E+03</pdfrwt>
<totfact> 0.97043905E+03</totfact>
</mgrwt>
</event>
<event>
 5    1  0.3206158E-002  0.1250034E+03  0.7818608E-02  0.1235064E+00
          4   -1    0    0  501    0  0.00000000000E+00  0.00000000000E+00  0.18506886260E+03  0.18507322011E+03  0.12700000000E+01 0.  1.
         -4   -1    0    0    0  501 -0.00000000000E+00 -0.00000000000E+00 -0.21084437927E+02  0.21122651886E+02  0.12700000000E+01 0.  1.
         25    2    1    2    0    0  0.00000000000E+00  0.00000000000E+00  0.16398442467E+03  0.20619587200E+03  0.12500338434E+03 0.  0.
    9000005    1    3    3    0    0 -0.45144097986E+02 -0.35011063674E+02  0.12377749285E+03  0.13632913078E+03  0.10000000000E+01 0.  0.
    9000005    1    3    3    0    0  0.45144097986E+02  0.35011063674E+02  0.40206931822E+02  0.69866741223E+02  0.10000000000E+01 0.  0.
<mgrwt>
<rscale>  0 0.12500338E+03</rscale>
<asrwt>0</asrwt>
<pdfrwt beam="1">  1        4 0.28475408E-01 0.12500338E+03</pdfrwt>
<pdfrwt beam="2">  1       -4 0.32470344E-02 0.12500338E+03</pdfrwt>
<totfact> 0.89094193E+03</totfact>
</mgrwt>
</event>
<event>
 5    1  0.3206158E-002  0.1249998E+03  0.7818608E-02  0.1235070E+00
          4   -1    0    0  501    0  0.00000000000E+00  0.00000000000E+00  0.78614598589E+01  0.79633818892E+01  0.12700000000E+01 0. -1.
         -4   -1    0    0    0  501 -0.00000000000E+00 -0.00000000000E+00 -0.49358160865E+03  0.49358324252E+03  0.12700000000E+01 0. -1.
         25    2    1    2    0    0  0.00000000000E+00  0.00000000000E+00 -0.48572014879E+03  0.50154662441E+03  0.12499981406E+03 0.  0.
    9000005    1    3    3    0    0  0.10565701412E+02  0.44846064547E+02 -0.41225826784E+03  0.41482608760E+03  0.10000000000E+01 0.  0.
    9000005    1    3    3    0    0 -0.10565701412E+02 -0.44846064547E+02 -0.73461880952E+02  0.86720536811E+02  0.10000000000E+01 0.  0.
<mgrwt>
<rscale>  0 0.12499981E+03</rscale>
<asrwt>0</asrwt>
<pdfrwt beam="1">  1        4 0.12174216E-02 0.12499981E+03</pdfrwt>
<pdfrwt beam="2">  1       -4 0.75943574E-01 0.12499981E+03</pdfrwt>
<totfact> 0.55744805E+03</totfact>
</mgrwt>
</event>
<event>
 5    1  0.3206158E-002  0.1250093E+03  0.7818608E-02  0.1235055E+00
         -4   -1    0    0    0  501 -0.00000000000E+00  0.00000000000E+00  0.47543981955E+02  0.47560941119E+02  0.12700000000E+01 0.  1.
          4   -1    0    0  501    0  0.00000000000E+00 -0.00000000000E+00 -0.82136424918E+02  0.82146242752E+02  0.12700000000E+01 0.  1.
         25    2    1    2    0    0  0.00000000000E+00  0.00000000000E+00 -0.34592442963E+02  0.12970718387E+03  0.12500926541E+03 0.  0.
    9000005    1    3    3    0    0  0.16610505575E+02 -0.58373417175E+02 -0.32771984481E+02  0.68980922689E+02  0.10000000000E+01 0.  0.
    9000005    1    3    3    0    0 -0.16610505575E+02  0.58373417175E+02 -0.18204584822E+01  0.60726261183E+02  0.10000000000E+01 0.  0.
<mgrwt>
<rscale>  0 0.12500927E+03</rscale>
<asrwt>0</asrwt>
<pdfrwt beam="2">  1        4 0.12638433E-01 0.12500927E+03</pdfrwt>
<pdfrwt beam="1">  1       -4 0.73165185E-02 0.12500927E+03</pdfrwt>
<totfact> 0.10348611E+04</totfact>
</mgrwt>
</event>
<event>
 5    1  0.3206158E-002  0.1250003E+03  0.7818608E-02  0.1235069E+00
          4   -1    0    0  501    0  0.00000000000E+00  0.00000000000E+00  0.19152929754E+03  0.19153350808E+03  0.12700000000E+01 0.  1.
         -4   -1    0    0    0  501 -0.00000000000E+00 -0.00000000000E+00 -0.20370954417E+02  0.20410504253E+02  0.12700000000E+01 0.  1.
         25    2    1    2    0    0  0.00000000000E+00  0.00000000000E+00  0.17115834313E+03  0.21194401233E+03  0.12500034377E+03 0.  0.
    9000005    1    3    3    0    0 -0.56456649906E+02  0.15409688404E+02  0.12274453754E+03  0.13598541580E+03  0.10000000000E+01 0.  0.
    9000005    1    3    3    0    0  0.56456649906E+02 -0.15409688404E+02  0.48413805586E+02  0.75958596529E+02  0.10000000000E+01 0.  0.
<mgrwt>
<rscale>  0 0.12500034E+03</rscale>
<asrwt>0</asrwt>
<pdfrwt beam="1">  1        4 0.29469412E-01 0.12500034E+03</pdfrwt>
<pdfrwt beam="2">  1       -4 0.31373592E-02 0.12500034E+03</pdfrwt>
<totfact> 0.88158701E+03</totfact>
</mgrwt>
</event>
<event>
 5    1  0.3206158E-002  0.1250015E+03  0.7818608E-02  0.1235067E+00
         -4   -1    0    0    0  501 -0.00000000000E+00  0.00000000000E+00  0.84026973061E+03  0.84027069036E+03  0.12700000000E+01 0.  1.
          4   -1    0    0  501    0  0.00000000000E+00 -0.00000000000E+00 -0.45611974789E+01  0.47347040500E+01  0.12700000000E+01 0.  1.
         25    2    1    2    0    0  0.00000000000E+00  0.00000000000E+00  0.83570853313E+03  0.84500539441E+03  0.12500145693E+03 0.  0.
    9000005    1    3    3    0    0 -0.51272902088E+02 -0.27747906063E+02  0.56998865449E+03  0.57296328245E+03  0.10000000000E+01 0.  0.
    9000005    1    3    3    0    0  0.51272902088E+02  0.27747906063E+02  0.26571987864E+03  0.27204211196E+03  0.10000000000E+01 0.  0.
<mgrwt>
<rscale>  0 0.12500146E+03</rscale>
<asrwt>0</asrwt>
<pdfrwt beam="2">  1        4 0.71514300E-03 0.12500146E+03</pdfrwt>
<pdfrwt beam="1">  1       -4 0.12928572E+00 0.12500146E+03</pdfrwt>
<totfact> 0.36331418E+03</totfact>
</mgrwt>
</event>
<event>
 5    1  0.3206158E-002  0.1250017E+03  0.7818608E-02  0.1235067E+00
          4   -1    0    0  501    0  0.00000000000E+00  0.00000000000E+00  0.48575787091E+01  0.50208536042E+01  0.12700000000E+01 0. -1.
         -4   -1    0    0    0  501 -0.00000000000E+00 -0.00000000000E+00 -0.79072167231E+03  0.79072269220E+03  0.12700000000E+01 0. -1.
         25    2    1    2    0    0  0.00000000000E+00  0.00000000000E+00 -0.78586409360E+03  0.79574354581E+03  0.12500166830E+03 0.  0.
    9000005    1    3    3    0    0 -0.61438943225E+02 -0.11424803313E+02 -0.39478137559E+03  0.39969814159E+03  0.10000000000E+01 0.  0.
    9000005    1    3    3    0    0  0.61438943225E+02  0.11424803313E+02 -0.39108271801E+03  0.39604540422E+03  0.10000000000E+01 0.  0.
<mgrwt>
<rscale>  0 0.12500167E+03</rscale>
<asrwt>0</asrwt>
<pdfrwt beam="1">  1        4 0.75995849E-03 0.12500167E+03</pdfrwt>
<pdfrwt beam="2">  1       -4 0.12166203E+00 0.12500167E+03</pdfrwt>
<totfact> 0.38454079E+03</totfact>
</mgrwt>
</event>
<event>
 5    1  0.3206158E-002  0.1250009E+03  0.7818608E-02  0.1235068E+00
         -4   -1    0    0    0  501 -0.00000000000E+00  0.00000000000E+00  0.14837619451E+03  0.14838162958E+03  0.12700000000E+01 0.  1.
          4   -1    0    0  501    0  0.00000000000E+00 -0.00000000000E+00 -0.26305808911E+02  0.26336447795E+02  0.12700000000E+01 0.  1.
         25    2    1    2    0    0  0.00000000000E+00  0.00000000000E+00  0.12207038560E+03  0.17471807738E+03  0.12500091008E+03 0.  0.
    9000005    1    3    3    0    0  0.31932011722E+02  0.49198782874E+02  0.91180059668E+02  0.10842037119E+03  0.10000000000E+01 0.  0.
    9000005    1    3    3    0    0 -0.31932011722E+02 -0.49198782874E+02  0.30890325930E+02  0.66297706182E+02  0.10000000000E+01 0.  0.
<mgrwt>
<rscale>  0 0.12500091E+03</rscale>
<asrwt>0</asrwt>
<pdfrwt beam="2">  1        4 0.40498224E-02 0.12500091E+03</pdfrwt>
<pdfrwt beam="1">  1       -4 0.22829882E-01 0.12500091E+03</pdfrwt>
<totfact> 0.94574568E+03</totfact>
</mgrwt>
</event>
<event>
 5    1  0.3206158E-002  0.1249980E+03  0.7818608E-02  0.1235072E+00
          4   -1    0    0  501    0  0.00000000000E+00  0.00000000000E+00  0.33237432477E+03  0.33237675109E+03  0.12700000000E+01 0. -1.
         -4   -1    0    0    0  501 -0.00000000000E+00 -0.00000000000E+00 -0.11715403342E+02  0.11784039013E+02  0.12700000000E+01 0. -1.
         25    2    1    2    0    0  0.00000000000E+00  0.00000000000E+00  0.32065892143E+03  0.34416079010E+03  0.12499802220E+03 0.  0.
    9000005    1    3    3    0    0 -0.16062658774E+02  0.45628781167E+02  0.26925599704E+03  0.27356861410E+03  0.10000000000E+01 0.  0.
    9000005    1    3    3    0    0  0.16062658774E+02 -0.45628781167E+02  0.51402924387E+02  0.70592176006E+02  0.10000000000E+01 0.  0.
<mgrwt>
<rscale>  0 0.12499802E+03</rscale>
<asrwt>0</asrwt>
<pdfrwt beam="1">  1        4 0.51139974E-01 0.12499802E+03</pdfrwt>
<pdfrwt beam="2">  1       -4 0.18078362E-02 0.12499802E+03</pdfrwt>
<totfact> 0.70374835E+03</totfact>
</mgrwt>
</event>
<event>
 5    1  0.3206158E-002  0.1249960E+03  0.7818608E-02  0.1235076E+00
          4   -1    0    0  501    0  0.00000000000E+00  0.00000000000E+00  0.17878676216E+02  0.17923726265E+02  0.12700000000E+01 0.  1.
         -4   -1    0    0    0  501 -0.00000000000E+00 -0.00000000000E+00 -0.21815059290E+03  0.21815428963E+03  0.12700000000E+01 0.  1.
         25    2    1    2    0    0  0.00000000000E+00  0.00000000000E+00 -0.20027191669E+03  0.23607801589E+03  0.12499595584E+03 0.  0.
    9000005    1    3    3    0    0  0.18586275037E+02 -0.39236549529E+02 -0.18502265936E+03  0.19005089033E+03  0.10000000000E+01 0.  0.
    9000005    1    3    3    0    0 -0.18586275037E+02  0.39236549529E+02 -0.15249257326E+02  0.46027125564E+02  0.10000000000E+01 0.  0.
<mgrwt>
<rscale>  0 0.12499596E+03</rscale>
<asrwt>0</asrwt>
<pdfrwt beam="1">  1        4 0.27543155E-02 0.12499596E+03</pdfrwt>
<pdfrwt beam="2">  1       -4 0.33565377E-01 0.12499596E+03</pdfrwt>
<totfact> 0.84392578E+03</totfact>
</mgrwt>
</event>
<event>
 5    1  0.3206158E-002  0.1250011E+03  0.7818608E-02  0.1235068E+00
          4   -1    0    0  501    0  0.00000000000E+00  0.00000000000E+00  0.44580604488E+01  0.46354291026E+01  0.12700000000E+01 0.  1.
         -4   -1    0    0    0  501 -0.00000000000E+00 -0.00000000000E+00 -0.85896821866E+03  0.85896915752E+03  0.12700000000E+01 0.  1.
         25    2    1    2    0    0  0.00000000000E+00  0.00000000000E+00 -0.85451015821E+03  0.86360458662E+03  0.12500108618E+03 0.  0.
    9000005    1    3    3    0    0 -0.38829737486E+02 -0.14819092279E+02 -0.10483172637E+03  0.11277430941E+03  0.10000000000E+01 0.  0.
    9000005    1    3    3    0    0  0.38829737486E+02  0.14819092279E+02 -0.74967843184E+03  0.75083027721E+03  0.10000000000E+01 0.  0.
<mgrwt>
<rscale>  0 0.12500109E+03</rscale>
<asrwt>0</asrwt>
<pdfrwt beam="1">  1        4 0.69957210E-03 0.12500109E+03</pdfrwt>
<pdfrwt beam="2">  1       -4 0.13216254E+00 0.12500109E+03</pdfrwt>
<totfact> 0.35576178E+03</totfact>
</mgrwt>
</event>
<event>
 5    1  0.3206158E-002  0.1250019E+03  0.7818608E-02  0.1235066E+00
          4   -1    0    0  501    0  0.00000000000E+00  0.00000000000E+00  0.12898803026E+04  0.12898809278E+04  0.12700000000E+01 0. -1.
         -4   -1    0    0    0  501 -0.00000000000E+00 -0.00000000000E+00 -0.28946760893E+01  0.31610203514E+01  0.12700000000E+01 0. -1.
         25    2    1    2    0    0  0.00000000000E+00  0.00000000000E+00  0.12869856265E+04  0.12930419482E+04  0.12500190746E+03 0.  0.
    9000005    1    3    3    0    0  0.35119523781E+02  0.13744615183E+02  0.12803777422E+03  0.13348021211E+03  0.10000000000E+01 0.  0.
    9000005    1    3    3    0    0 -0.35119523781E+02 -0.13744615183E+02  0.11589478523E+04  0.11595617361E+04  0.10000000000E+01 0.  0.
<mgrwt>
<rscale>  0 0.12500191E+03</rscale>
<asrwt>0</asrwt>
<pdfrwt beam="1">  1        4 0.19846363E+00 0.12500191E+03</pdfrwt>
<pdfrwt beam="2">  1       -4 0.46587098E-03 0.12500191E+03</pdfrwt>
<totfact> 0.22392407E+03</totfact>
</mgrwt>
</event>
<event>
 5    1  0.3206158E-002  0.1250292E+03  0.7818608E-02  0.1235024E+00
          4   -1    0    0  501    0  0.00000000000E+00  0.00000000000E+00  0.11426519975E+03  0.11427225723E+03  0.12700000000E+01 0. -1.
         -4   -1    0    0    0  501 -0.00000000000E+00 -0.00000000000E+00 -0.34181918331E+02  0.34205503078E+02  0.12700000000E+01 0. -1.
         25    2    1    2    0    0  0.00000000000E+00  0.00000000000E+00  0.80083281414E+02  0.14847776031E+03  0.12502924996E+03 0.  0.
    9000005    1    3    3    0    0  0.96603779828E+01 -0.19450078837E+02 -0.29563543899E+02  0.36696479360E+02  0.10000000000E+01 0.  0.
    9000005    1    3    3    0    0 -0.96603779828E+01  0.19450078837E+02  0.10964682531E+03  0.11178128095E+03  0.10000000000E+01 0.  0.
<mgrwt>
<rscale>  0 0.12502925E+03</rscale>
<asrwt>0</asrwt>
<pdfrwt beam="1">  1        4 0.17581618E-01 0.12502925E+03</pdfrwt>
<pdfrwt beam="2">  1       -4 0.52611138E-02 0.12502925E+03</pdfrwt>
<totfact> 0.99542450E+03</totfact>
</mgrwt>
</event>
<event>
 5    1  0.3206158E-002  0.1250012E+03  0.7818608E-02  0.1235067E+00
         -4   -1    0    0    0  501 -0.00000000000E+00  0.00000000000E+00  0.26544613532E+02  0.26574977094E+02  0.12700000000E+01 0. -1.
          4   -1    0    0  501    0  0.00000000000E+00 -0.00000000000E+00 -0.14704347108E+03  0.14704895541E+03  0.12700000000E+01 0. -1.
         25    2    1    2    0    0  0.00000000000E+00  0.00000000000E+00 -0.12049885755E+03  0.17362393251E+03  0.12500118107E+03 0.  0.
    9000005    1    3    3    0    0  0.12493652817E+02  0.61180137970E+02 -0.63714414566E+02  0.89216743194E+02  0.10000000000E+01 0.  0.
    9000005    1    3    3    0    0 -0.12493652817E+02 -0.61180137970E+02 -0.56784442986E+02  0.84407189314E+02  0.10000000000E+01 0.  0.
<mgrwt>
<rscale>  0 0.12500118E+03</rscale>
<asrwt>0</asrwt>
<pdfrwt beam="2">  1        4 0.22624830E-01 0.12500118E+03</pdfrwt>
<pdfrwt beam="1">  1       -4 0.40865443E-02 0.12500118E+03</pdfrwt>
<totfact> 0.94774959E+03</totfact>
</mgrwt>
</event>
<event>
 5    1  0.3206158E-002  0.1250004E+03  0.7818608E-02  0.1235069E+00
          4   -1    0    0  501    0  0.00000000000E+00  0.00000000000E+00  0.95199075453E+03  0.95199160165E+03  0.12700000000E+01 0. -1.
         -4   -1    0    0    0  501 -0.00000000000E+00 -0.00000000000E+00 -0.40041313744E+01  0.42007104237E+01  0.12700000000E+01 0. -1.
         25    2    1    2    0    0  0.00000000000E+00  0.00000000000E+00  0.94798662315E+03  0.95619231207E+03  0.12500039994E+03 0.  0.
    9000005    1    3    3    0    0 -0.46566390619E+02  0.18381034348E+01  0.79248031451E+03  0.79385002126E+03  0.10000000000E+01 0.  0.
    9000005    1    3    3    0    0  0.46566390619E+02 -0.18381034348E+01  0.15550630864E+03  0.16234229081E+03  0.10000000000E+01 0.  0.
<mgrwt>
<rscale>  0 0.12500040E+03</rscale>
<asrwt>0</asrwt>
<pdfrwt beam="1">  1        4 0.14647528E+00 0.12500040E+03</pdfrwt>
<pdfrwt beam="2">  1       -4 0.63120694E-03 0.12500040E+03</pdfrwt>
<totfact> 0.32096857E+03</totfact>
</mgrwt>
</event>
<event>
 5    1  0.3206158E-002  0.1249875E+03  0.7818608E-02  0.1235089E+00
         -4   -1    0    0    0  501 -0.00000000000E+00  0.00000000000E+00  0.26722892001E+02  0.26753053226E+02  0.12700000000E+01 0.  1.
          4   -1    0    0  501    0  0.00000000000E+00 -0.00000000000E+00 -0.14603160963E+03  0.14603713196E+03  0.12700000000E+01 0.  1.
         25    2    1    2    0    0  0.00000000000E+00  0.00000000000E+00 -0.11930871763E+03  0.17279018518E+03  0.12498751135E+03 0.  0.
    9000005    1    3    3    0    0  0.14318509656E+02  0.11387576443E+02 -0.14225296946E+03  0.14342804446E+03  0.10000000000E+01 0.  0.
    9000005    1    3    3    0    0 -0.14318509656E+02 -0.11387576443E+02  0.22944251833E+02  0.29362140729E+02  0.10000000000E+01 0.  0.
<mgrwt>
<rscale>  0 0.12498751E+03</rscale>
<asrwt>0</asrwt>
<pdfrwt beam="2">  1        4 0.22469146E-01 0.12498751E+03</pdfrwt>
<pdfrwt beam="1">  1       -4 0.41139591E-02 0.12498751E+03</pdfrwt>
<totfact> 0.94957735E+03</totfact>
</mgrwt>
</event>
<event>
 5    1  0.3206158E-002  0.1249613E+03  0.7818608E-02  0.1235130E+00
         -4   -1    0    0    0  501 -0.00000000000E+00  0.00000000000E+00  0.27098936168E+02  0.27128679316E+02  0.12700000000E+01 0.  1.
          4   -1    0    0  501    0  0.00000000000E+00 -0.00000000000E+00 -0.14394701858E+03  0.14395262088E+03  0.12700000000E+01 0.  1.
         25    2    1    2    0    0  0.00000000000E+00  0.00000000000E+00 -0.11684808241E+03  0.17108130019E+03  0.12496134167E+03 0.  0.
    9000005    1    3    3    0    0 -0.34547936175E+02  0.28359878367E+02 -0.11817892402E+03  0.12635307941E+03  0.10000000000E+01 0.  0.
    9000005    1    3    3    0    0  0.34547936175E+02 -0.28359878367E+02  0.13308416076E+01  0.44728220782E+02  0.10000000000E+01 0.  0.
<mgrwt>
<rscale>  0 0.12496134E+03</rscale>
<asrwt>0</asrwt>
<pdfrwt beam="2">  1        4 0.22148414E-01 0.12496134E+03</pdfrwt>
<pdfrwt beam="1">  1       -4 0.41717861E-02 0.12496134E+03</pdfrwt>
<totfact> 0.95330163E+03</totfact>
</mgrwt>
</event>
<event>
 5    1  0.3206158E-002  0.1249991E+03  0.7818608E-02  0.1235071E+00
          4   -1    0    0  501    0  0.00000000000E+00  0.00000000000E+00  0.20773490061E+02  0.20812274968E+02  0.12700000000E+01 0.  1.
         -4   -1    0    0    0  501 -0.00000000000E+00 -0.00000000000E+00 -0.18782120452E+03  0.18782549818E+03  0.12700000000E+01 0.  1.
         25    2    1    2    0    0  0.00000000000E+00  0.00000000000E+00 -0.16704771445E+03  0.20863777315E+03  0.12499912591E+03 0.  0.
    9000005    1    3    3    0    0  0.27177703311E+02  0.51809226076E+02 -0.12018254927E+03  0.13366999892E+03  0.10000000000E+01 0.  0.
    9000005    1    3    3    0    0 -0.27177703311E+02 -0.51809226076E+02 -0.46865165190E+02  0.74967774224E+02  0.10000000000E+01 0.  0.
<mgrwt>
<rscale>  0 0.12499913E+03</rscale>
<asrwt>0</asrwt>
<pdfrwt beam="1">  1        4 0.31992354E-02 0.12499913E+03</pdfrwt>
<pdfrwt beam="2">  1       -4 0.28898882E-01 0.12499913E+03</pdfrwt>
<totfact> 0.88700569E+03</totfact>
</mgrwt>
</event>
<event>
 5    1  0.3206158E-002  0.1249987E+03  0.7818608E-02  0.1235071E+00
         -4   -1    0    0    0  501 -0.00000000000E+00  0.00000000000E+00  0.77750525334E+02  0.77760896919E+02  0.12700000000E+01 0. -1.
          4   -1    0    0  501    0  0.00000000000E+00 -0.00000000000E+00 -0.50218008789E+02  0.50234065203E+02  0.12700000000E+01 0. -1.
         25    2    1    2    0    0  0.00000000000E+00  0.00000000000E+00  0.27532516545E+02  0.12799496212E+03  0.12499868344E+03 0.  0.
    9000005    1    3    3    0    0 -0.22795837486E+02 -0.35225674634E+02  0.61186920056E+02  0.74197961873E+02  0.10000000000E+01 0.  0.
    9000005    1    3    3    0    0  0.22795837486E+02  0.35225674634E+02 -0.33654403511E+02  0.53797000249E+02  0.10000000000E+01 0.  0.
<mgrwt>
<rscale>  0 0.12499868E+03</rscale>
<asrwt>0</asrwt>
<pdfrwt beam="2">  1        4 0.77278805E-02 0.12499868E+03</pdfrwt>
<pdfrwt beam="1">  1       -4 0.11963652E-01 0.12499868E+03</pdfrwt>
<totfact> 0.10387905E+04</totfact>
</mgrwt>
</event>
<event>
 5    1  0.3206158E-002  0.1250017E+03  0.7818608E-02  0.1235067E+00
         -4   -1    0    0    0  501 -0.00000000000E+00  0.00000000000E+00  0.10496548387E+03  0.10497316659E+03  0.12700000000E+01 0.  1.
          4   -1    0    0  501    0  0.00000000000E+00 -0.00000000000E+00 -0.37195753305E+02  0.37217428228E+02  0.12700000000E+01 0.  1.
         25    2    1    2    0    0  0.00000000000E+00  0.00000000000E+00  0.67769730563E+02  0.14219059482E+03  0.12500171548E+03 0.  0.
    9000005    1    3    3    0    0  0.39455166793E+02 -0.48436514660E+02  0.32068024454E+02  0.70229369437E+02  0.10000000000E+01 0.  0.
    9000005    1    3    3    0    0 -0.39455166793E+02  0.48436514660E+02  0.35701706109E+02  0.71961225380E+02  0.10000000000E+01 0.  0.
<mgrwt>
<rscale>  0 0.12500172E+03</rscale>
<asrwt>0</asrwt>
<pdfrwt beam="2">  1        4 0.57246819E-02 0.12500172E+03</pdfrwt>
<pdfrwt beam="1">  1       -4 0.16150794E-01 0.12500172E+03</pdfrwt>
<totfact> 0.10087995E+04</totfact>
</mgrwt>
</event>
<event>
 5    1  0.3206158E-002  0.1249992E+03  0.7818608E-02  0.1235071E+00
          4   -1    0    0  501    0  0.00000000000E+00  0.00000000000E+00  0.26638652954E+02  0.26668909450E+02  0.12700000000E+01 0.  1.
         -4   -1    0    0    0  501 -0.00000000000E+00 -0.00000000000E+00 -0.14652029921E+03  0.14652580312E+03  0.12700000000E+01 0.  1.
         25    2    1    2    0    0  0.00000000000E+00  0.00000000000E+00 -0.11988164625E+03  0.17319471257E+03  0.12499919741E+03 0.  0.
    9000005    1    3    3    0    0 -0.39130726385E+02  0.42299117578E+02 -0.93446640960E+02  0.10978936106E+03  0.10000000000E+01 0.  0.
    9000005    1    3    3    0    0  0.39130726385E+02 -0.42299117578E+02 -0.26435005295E+02  0.63405351511E+02  0.10000000000E+01 0.  0.
<mgrwt>
<rscale>  0 0.12499920E+03</rscale>
<asrwt>0</asrwt>
<pdfrwt beam="1">  1        4 0.41010052E-02 0.12499920E+03</pdfrwt>
<pdfrwt beam="2">  1       -4 0.22544335E-01 0.12499920E+03</pdfrwt>
<totfact> 0.94858227E+03</totfact>
</mgrwt>
</event>
<event>
 5    1  0.3206158E-002  0.1249512E+03  0.7818608E-02  0.1235146E+00
         -4   -1    0    0    0  501 -0.00000000000E+00  0.00000000000E+00  0.73568664915E+02  0.73579625966E+02  0.12700000000E+01 0.  1.
          4   -1    0    0  501    0  0.00000000000E+00 -0.00000000000E+00 -0.53032651937E+02  0.53047856426E+02  0.12700000000E+01 0.  1.
         25    2    1    2    0    0  0.00000000000E+00  0.00000000000E+00  0.20536012978E+02  0.12662748239E+03  0.12495115633E+03 0.  0.
    9000005    1    3    3    0    0 -0.44632976229E+02  0.37367229118E+02 -0.12702925153E+02  0.59588393891E+02  0.10000000000E+01 0.  0.
    9000005    1    3    3    0    0  0.44632976229E+02 -0.37367229118E+02  0.33238938130E+02  0.67039088502E+02  0.10000000000E+01 0.  0.
<mgrwt>
<rscale>  0 0.12495116E+03</rscale>
<asrwt>0</asrwt>
<pdfrwt beam="2">  1        4 0.81608823E-02 0.12495116E+03</pdfrwt>
<pdfrwt beam="1">  1       -4 0.11320269E-01 0.12495116E+03</pdfrwt>
<totfact> 0.10428743E+04</totfact>
</mgrwt>
</event>
<event>
 5    1  0.3206158E-002  0.1249972E+03  0.7818608E-02  0.1235074E+00
         -4   -1    0    0    0  501 -0.00000000000E+00  0.00000000000E+00  0.30825598594E+02  0.30851749199E+02  0.12700000000E+01 0. -1.
          4   -1    0    0  501    0  0.00000000000E+00 -0.00000000000E+00 -0.12663214031E+03  0.12663850859E+03  0.12700000000E+01 0. -1.
         25    2    1    2    0    0  0.00000000000E+00  0.00000000000E+00 -0.95806541715E+02  0.15749025779E+03  0.12499715143E+03 0.  0.
    9000005    1    3    3    0    0  0.48590375009E+02 -0.38950995846E+02 -0.41372477299E+02  0.74772230800E+02  0.10000000000E+01 0.  0.
    9000005    1    3    3    0    0 -0.48590375009E+02  0.38950995846E+02 -0.54434064416E+02  0.82718026994E+02  0.10000000000E+01 0.  0.
<mgrwt>
<rscale>  0 0.12499715E+03</rscale>
<asrwt>0</asrwt>
<pdfrwt beam="2">  1        4 0.19484369E-01 0.12499715E+03</pdfrwt>
<pdfrwt beam="1">  1       -4 0.47449013E-02 0.12499715E+03</pdfrwt>
<totfact> 0.97835103E+03</totfact>
</mgrwt>
</event>
<event>
 5    1  0.3206158E-002  0.1249984E+03  0.7818608E-02  0.1235072E+00
         -4   -1    0    0    0  501 -0.00000000000E+00  0.00000000000E+00  0.86276015933E+01  0.87205739062E+01  0.12700000000E+01 0.  1.
          4   -1    0    0  501    0  0.00000000000E+00 -0.00000000000E+00 -0.45023027307E+03  0.45023206426E+03  0.12700000000E+01 0.  1.
         25    2    1    2    0    0  0.00000000000E+00  0.00000000000E+00 -0.44160267148E+03  0.45895263817E+03  0.12499841849E+03 0.  0.
    9000005    1    3    3    0    0 -0.55692523081E+02  0.75831568840E+01 -0.12051776582E+03  0.13298380832E+03  0.10000000000E+01 0.  0.
    9000005    1    3    3    0    0  0.55692523081E+02 -0.75831568840E+01 -0.32108490565E+03  0.32596882985E+03  0.10000000000E+01 0.  0.
<mgrwt>
<rscale>  0 0.12499842E+03</rscale>
<asrwt>0</asrwt>
<pdfrwt beam="2">  1        4 0.69273467E-01 0.12499842E+03</pdfrwt>
<pdfrwt beam="1">  1       -4 0.13346132E-02 0.12499842E+03</pdfrwt>
<totfact> 0.59198069E+03</totfact>
</mgrwt>
</event>
<event>
 5    1  0.3206158E-002  0.1249988E+03  0.7818608E-02  0.1235071E+00
          4   -1    0    0  501    0  0.00000000000E+00  0.00000000000E+00  0.44727735775E+02  0.44745762342E+02  0.12700000000E+01 0. -1.
         -4   -1    0    0    0  501 -0.00000000000E+00 -0.00000000000E+00 -0.87292004717E+02  0.87301242761E+02  0.12700000000E+01 0. -1.
         25    2    1    2    0    0  0.00000000000E+00  0.00000000000E+00 -0.42564268943E+02  0.13204700510E+03  0.12499877826E+03 0.  0.
    9000005    1    3    3    0    0  0.11184437506E+02  0.46056516014E+02 -0.64308056467E+02  0.79892555574E+02  0.10000000000E+01 0.  0.
    9000005    1    3    3    0    0 -0.11184437506E+02 -0.46056516014E+02  0.21743787524E+02  0.52154449528E+02  0.10000000000E+01 0.  0.
<mgrwt>
<rscale>  0 0.12499878E+03</rscale>
<asrwt>0</asrwt>
<pdfrwt beam="1">  1        4 0.68832874E-02 0.12499878E+03</pdfrwt>
<pdfrwt beam="2">  1       -4 0.13431636E-01 0.12499878E+03</pdfrwt>
<totfact> 0.10300979E+04</totfact>
</mgrwt>
</event>
<event>
 5    1  0.3206158E-002  0.1250010E+03  0.7818608E-02  0.1235068E+00
          4   -1    0    0  501    0  0.00000000000E+00  0.00000000000E+00  0.47106047662E+03  0.47106218860E+03  0.12700000000E+01 0. -1.
         -4   -1    0    0    0  501 -0.00000000000E+00 -0.00000000000E+00 -0.82422357636E+01  0.83395054040E+01  0.12700000000E+01 0. -1.
         25    2    1    2    0    0  0.00000000000E+00  0.00000000000E+00  0.46281824085E+03  0.47940169401E+03  0.12500104059E+03 0.  0.
    9000005    1    3    3    0    0 -0.64364473613E+01 -0.61735543024E+02  0.20359151669E+03  0.21284550922E+03  0.10000000000E+01 0.  0.
    9000005    1    3    3    0    0  0.64364473613E+01  0.61735543024E+02  0.25922672416E+03  0.26655618479E+03  0.10000000000E+01 0.  0.
<mgrwt>
<rscale>  0 0.12500104E+03</rscale>
<asrwt>0</asrwt>
<pdfrwt beam="1">  1        4 0.72478468E-01 0.12500104E+03</pdfrwt>
<pdfrwt beam="2">  1       -4 0.12756500E-02 0.12500104E+03</pdfrwt>
<totfact> 0.57497402E+03</totfact>
</mgrwt>
</event>
<event>
 5    1  0.3206158E-002  0.1250047E+03  0.7818608E-02  0.1235062E+00
          4   -1    0    0  501    0  0.00000000000E+00  0.00000000000E+00  0.55728484932E+01  0.57157274539E+01  0.12700000000E+01 0. -1.
         -4   -1    0    0    0  501 -0.00000000000E+00 -0.00000000000E+00 -0.69198030804E+03  0.69198147347E+03  0.12700000000E+01 0. -1.
         25    2    1    2    0    0  0.00000000000E+00  0.00000000000E+00 -0.68640745955E+03  0.69769720092E+03  0.12500473449E+03 0.  0.
    9000005    1    3    3    0    0  0.61225430351E+02 -0.75452637838E+01 -0.28737288418E+03  0.29392117802E+03  0.10000000000E+01 0.  0.
    9000005    1    3    3    0    0 -0.61225430351E+02  0.75452637838E+01 -0.39903457537E+03  0.40377602290E+03  0.10000000000E+01 0.  0.
<mgrwt>
<rscale>  0 0.12500473E+03</rscale>
<asrwt>0</asrwt>
<pdfrwt beam="1">  1        4 0.86844219E-03 0.12500473E+03</pdfrwt>
<pdfrwt beam="2">  1       -4 0.10646952E+00 0.12500473E+03</pdfrwt>
<totfact> 0.43204076E+03</totfact>
</mgrwt>
</event>
<event>
 5    1  0.3206158E-002  0.1250014E+03  0.7818608E-02  0.1235067E+00
          4   -1    0    0  501    0  0.00000000000E+00  0.00000000000E+00  0.18853698257E+02  0.18896423946E+02  0.12700000000E+01 0.  1.
         -4   -1    0    0    0  501 -0.00000000000E+00 -0.00000000000E+00 -0.20691302619E+03  0.20691692369E+03  0.12700000000E+01 0.  1.
         25    2    1    2    0    0  0.00000000000E+00  0.00000000000E+00 -0.18805932794E+03  0.22581334764E+03  0.12500142858E+03 0.  0.
    9000005    1    3    3    0    0 -0.52109885826E+02  0.34464957601E+02 -0.91433231598E+02  0.11074434226E+03  0.10000000000E+01 0.  0.
    9000005    1    3    3    0    0  0.52109885826E+02 -0.34464957601E+02 -0.96626096340E+02  0.11506900537E+03  0.10000000000E+01 0.  0.
<mgrwt>
<rscale>  0 0.12500143E+03</rscale>
<asrwt>0</asrwt>
<pdfrwt beam="1">  1        4 0.29041555E-02 0.12500143E+03</pdfrwt>
<pdfrwt beam="2">  1       -4 0.31836358E-01 0.12500143E+03</pdfrwt>
<totfact> 0.85953895E+03</totfact>
</mgrwt>
</event>
<event>
 5    1  0.3206158E-002  0.1249989E+03  0.7818608E-02  0.1235071E+00
          4   -1    0    0  501    0  0.00000000000E+00  0.00000000000E+00  0.61102471547E+02  0.61115668442E+02  0.12700000000E+01 0.  1.
         -4   -1    0    0    0  501 -0.00000000000E+00 -0.00000000000E+00 -0.63901997016E+02  0.63914615877E+02  0.12700000000E+01 0.  1.
         25    2    1    2    0    0  0.00000000000E+00  0.00000000000E+00 -0.27995254694E+01  0.12503028432E+03  0.12499893861E+03 0.  0.
    9000005    1    3    3    0    0 -0.57022492689E+02 -0.23777580312E+02  0.79965093663E+01  0.62304752307E+02  0.10000000000E+01 0.  0.
    9000005    1    3    3    0    0  0.57022492689E+02  0.23777580312E+02 -0.10796034836E+02  0.62725532012E+02  0.10000000000E+01 0.  0.
<mgrwt>
<rscale>  0 0.12499894E+03</rscale>
<asrwt>0</asrwt>
<pdfrwt beam="1">  1        4 0.94023660E-02 0.12499894E+03</pdfrwt>
<pdfrwt beam="2">  1       -4 0.98330624E-02 0.12499894E+03</pdfrwt>
<totfact> 0.10452456E+04</totfact>
</mgrwt>
</event>
<event>
 5    1  0.3206158E-002  0.1249961E+03  0.7818608E-02  0.1235075E+00
         -4   -1    0    0    0  501 -0.00000000000E+00  0.00000000000E+00  0.13389582029E+03  0.13390184312E+03  0.12700000000E+01 0. -1.
          4   -1    0    0  501    0  0.00000000000E+00 -0.00000000000E+00 -0.29151461840E+02  0.29179112862E+02  0.12700000000E+01 0. -1.
         25    2    1    2    0    0  0.00000000000E+00  0.00000000000E+00  0.10474435845E+03  0.16308095598E+03  0.12499607024E+03 0.  0.
    9000005    1    3    3    0    0 -0.24341122247E+02 -0.17005732978E+02  0.12411011746E+03  0.12761663858E+03  0.10000000000E+01 0.  0.
    9000005    1    3    3    0    0  0.24341122247E+02  0.17005732978E+02 -0.19365759015E+02  0.35464317399E+02  0.10000000000E+01 0.  0.
<mgrwt>
<rscale>  0 0.12499607E+03</rscale>
<asrwt>0</asrwt>
<pdfrwt beam="2">  1        4 0.44874306E-02 0.12499607E+03</pdfrwt>
<pdfrwt beam="1">  1       -4 0.20601947E-01 0.12499607E+03</pdfrwt>
<totfact> 0.96760612E+03</totfact>
</mgrwt>
</event>
<event>
 5    1  0.3206158E-002  0.1249990E+03  0.7818608E-02  0.1235071E+00
         -4   -1    0    0    0  501 -0.00000000000E+00  0.00000000000E+00  0.14529694649E+03  0.14530249674E+03  0.12700000000E+01 0. -1.
          4   -1    0    0  501    0  0.00000000000E+00 -0.00000000000E+00 -0.26863083082E+02  0.26893087080E+02  0.12700000000E+01 0. -1.
         25    2    1    2    0    0  0.00000000000E+00  0.00000000000E+00  0.11843386341E+03  0.17219558382E+03  0.12499895634E+03 0.  0.
    9000005    1    3    3    0    0  0.24673465548E+02 -0.40585868051E+02  0.32732227024E+01  0.47620442821E+02  0.10000000000E+01 0.  0.
    9000005    1    3    3    0    0 -0.24673465548E+02  0.40585868051E+02  0.11516064071E+03  0.12457514100E+03  0.10000000000E+01 0.  0.
<mgrwt>
<rscale>  0 0.12499896E+03</rscale>
<asrwt>0</asrwt>
<pdfrwt beam="2">  1        4 0.41355171E-02 0.12499896E+03</pdfrwt>
<pdfrwt beam="1">  1       -4 0.22356110E-01 0.12499896E+03</pdfrwt>
<totfact> 0.95043213E+03</totfact>
</mgrwt>
</event>
<event>
 5    1  0.3206158E-002  0.1250044E+03  0.7818608E-02  0.1235062E+00
          4   -1    0    0  501    0  0.00000000000E+00  0.00000000000E+00  0.12306160802E+02  0.12371519457E+02  0.12700000000E+01 0. -1.
         -4   -1    0    0    0  501 -0.00000000000E+00 -0.00000000000E+00 -0.31653734658E+03  0.31653989430E+03  0.12700000000E+01 0. -1.
         25    2    1    2    0    0  0.00000000000E+00  0.00000000000E+00 -0.30423118578E+03  0.32891141375E+03  0.12500441471E+03 0.  0.
    9000005    1    3    3    0    0  0.61544803581E+02 -0.89579815314E+01 -0.16823211646E+03  0.17936290946E+03  0.10000000000E+01 0.  0.
    9000005    1    3    3    0    0 -0.61544803581E+02  0.89579815314E+01 -0.13599906932E+03  0.14954850429E+03  0.10000000000E+01 0.  0.
<mgrwt>
<rscale>  0 0.12500441E+03</rscale>
<asrwt>0</asrwt>
<pdfrwt beam="1">  1        4 0.18984793E-02 0.12500441E+03</pdfrwt>
<pdfrwt beam="2">  1       -4 0.48703271E-01 0.12500441E+03</pdfrwt>
<totfact> 0.72101568E+03</totfact>
</mgrwt>
</event>
<event>
 5    1  0.3206158E-002  0.1249999E+03  0.7818608E-02  0.1235069E+00
          4   -1    0    0  501    0  0.00000000000E+00  0.00000000000E+00  0.42681031626E+03  0.42681220573E+03  0.12700000000E+01 0. -1.
         -4   -1    0    0    0  501 -0.00000000000E+00 -0.00000000000E+00 -0.91061982114E+01  0.91943322686E+01  0.12700000000E+01 0. -1.
         25    2    1    2    0    0  0.00000000000E+00  0.00000000000E+00  0.41770411804E+03  0.43600653800E+03  0.12499988379E+03 0.  0.
    9000005    1    3    3    0    0  0.25000688166E+02  0.44770052874E+02  0.84262020678E+02  0.98643196278E+02  0.10000000000E+01 0.  0.
    9000005    1    3    3    0    0 -0.25000688166E+02 -0.44770052874E+02  0.33344209737E+03  0.33736334172E+03  0.10000000000E+01 0.  0.
<mgrwt>
<rscale>  0 0.12499988E+03</rscale>
<asrwt>0</asrwt>
<pdfrwt beam="1">  1        4 0.65670053E-01 0.12499988E+03</pdfrwt>
<pdfrwt beam="2">  1       -4 0.14078784E-02 0.12499988E+03</pdfrwt>
<totfact> 0.61195438E+03</totfact>
</mgrwt>
</event>
<event>
 4    1  0.3206158E-002  0.1249292E+03  0.7818608E-02  0.1235180E+00
          4   -1    0    0  501    0  0.00000000000E+00  0.00000000000E+00  0.74544338425E+03  0.74544446609E+03  0.12700000000E+01 0. -1.
         -4   -1    0    0    0  501 -0.00000000000E+00 -0.00000000000E+00 -0.51560963944E+01  0.53102005639E+01  0.12700000000E+01 0. -1.
    9000005    1    1    2    0    0 -0.25400236877E+02  0.45023330151E+02  0.15950838224E+03  0.16767884869E+03  0.10000000000E+01 0.  0.
    9000005    1    1    2    0    0  0.25400236877E+02 -0.45023330151E+02  0.58077890561E+03  0.58307581796E+03  0.10000000000E+01 0.  0.
<mgrwt>
<rscale>  0 0.12492918E+03</rscale>
<asrwt>0</asrwt>
<pdfrwt beam="1">  1        4 0.11469550E+00 0.12492918E+03</pdfrwt>
<pdfrwt beam="2">  1       -4 0.80518325E-03 0.12492918E+03</pdfrwt>
<totfact> 0.40600902E+03</totfact>
</mgrwt>
</event>
<event>
 5    1  0.3206158E-002  0.1249943E+03  0.7818608E-02  0.1235078E+00
          4   -1    0    0  501    0  0.00000000000E+00  0.00000000000E+00  0.32582456277E+02  0.32607197933E+02  0.12700000000E+01 0.  1.
         -4   -1    0    0    0  501 -0.00000000000E+00 -0.00000000000E+00 -0.11980350247E+03  0.11981023372E+03  0.12700000000E+01 0.  1.
         25    2    1    2    0    0  0.00000000000E+00  0.00000000000E+00 -0.87221046197E+02  0.15241743166E+03  0.12499425016E+03 0.  0.
    9000005    1    3    3    0    0  0.40649602320E+02 -0.22954169020E+02  0.70436814861E+01  0.47221790448E+02  0.10000000000E+01 0.  0.
    9000005    1    3    3    0    0 -0.40649602320E+02  0.22954169020E+02 -0.94264727683E+02  0.10519564121E+03  0.10000000000E+01 0.  0.
<mgrwt>
<rscale>  0 0.12499425E+03</rscale>
<asrwt>0</asrwt>
<pdfrwt beam="1">  1        4 0.50151066E-02 0.12499425E+03</pdfrwt>
<pdfrwt beam="2">  1       -4 0.18433729E-01 0.12499425E+03</pdfrwt>
<totfact> 0.98836770E+03</totfact>
</mgrwt>
</event>
<event>
 5    1  0.3206158E-002  0.1249991E+03  0.7818608E-02  0.1235071E+00
         -4   -1    0    0    0  501 -0.00000000000E+00  0.00000000000E+00  0.20012366809E+01  0.23702000449E+01  0.12700000000E+01 0.  1.
          4   -1    0    0  501    0  0.00000000000E+00 -0.00000000000E+00 -0.17867748524E+04  0.17867753037E+04  0.12700000000E+01 0.  1.
         25    2    1    2    0    0  0.00000000000E+00  0.00000000000E+00 -0.17847736157E+04  0.17891455037E+04  0.12499909744E+03 0.  0.
    9000005    1    3    3    0    0 -0.33213270626E+02  0.86202921721E+01 -0.16399399753E+04  0.16402992267E+04  0.10000000000E+01 0.  0.
    9000005    1    3    3    0    0  0.33213270626E+02 -0.86202921721E+01 -0.14483364042E+03  0.14884627701E+03  0.10000000000E+01 0.  0.
<mgrwt>
<rscale>  0 0.12499910E+03</rscale>
<asrwt>0</asrwt>
<pdfrwt beam="2">  1        4 0.27491569E+00 0.12499910E+03</pdfrwt>
<pdfrwt beam="1">  1       -4 0.33630051E-03 0.12499910E+03</pdfrwt>
<totfact> 0.12871833E+03</totfact>
</mgrwt>
</event>
<event>
 5    1  0.3206158E-002  0.1249967E+03  0.7818608E-02  0.1235074E+00
          4   -1    0    0  501    0  0.00000000000E+00  0.00000000000E+00  0.67845924122E+01  0.69024339330E+01  0.12700000000E+01 0.  1.
         -4   -1    0    0    0  501 -0.00000000000E+00 -0.00000000000E+00 -0.57064750481E+03  0.57064891803E+03  0.12700000000E+01 0.  1.
         25    2    1    2    0    0  0.00000000000E+00  0.00000000000E+00 -0.56386291240E+03  0.57755135196E+03  0.12499672065E+03 0.  0.
    9000005    1    3    3    0    0 -0.57612231848E+02  0.15977332379E+02 -0.36594394050E+03  0.37079699567E+03  0.10000000000E+01 0.  0.
    9000005    1    3    3    0    0  0.57612231848E+02 -0.15977332379E+02 -0.19791897190E+03  0.20675435630E+03  0.10000000000E+01 0.  0.
<mgrwt>
<rscale>  0 0.12499672E+03</rscale>
<asrwt>0</asrwt>
<pdfrwt beam="1">  1        4 0.10529573E-02 0.12499672E+03</pdfrwt>
<pdfrwt beam="2">  1       -4 0.87801060E-01 0.12499672E+03</pdfrwt>
<totfact> 0.50319638E+03</totfact>
</mgrwt>
</event>
<event>
 5    1  0.3206158E-002  0.1249971E+03  0.7818608E-02  0.1235074E+00
          4   -1    0    0  501    0  0.00000000000E+00  0.00000000000E+00  0.13138290920E+02  0.13199529851E+02  0.12700000000E+01 0.  1.
         -4   -1    0    0    0  501 -0.00000000000E+00 -0.00000000000E+00 -0.29655035910E+03  0.29655307852E+03  0.12700000000E+01 0.  1.
         25    2    1    2    0    0  0.00000000000E+00  0.00000000000E+00 -0.28341206818E+03  0.30975260838E+03  0.12499711199E+03 0.  0.
    9000005    1    3    3    0    0 -0.23273398973E+01 -0.12614482656E+01  0.13011434088E+02  0.13315599114E+02  0.10000000000E+01 0.  0.
    9000005    1    3    3    0    0  0.23273398973E+01  0.12614482656E+01 -0.29642350227E+03  0.29643700926E+03  0.10000000000E+01 0.  0.
<mgrwt>
<rscale>  0 0.12499711E+03</rscale>
<asrwt>0</asrwt>
<pdfrwt beam="1">  1        4 0.20261956E-02 0.12499711E+03</pdfrwt>
<pdfrwt beam="2">  1       -4 0.45628047E-01 0.12499711E+03</pdfrwt>
<totfact> 0.74396319E+03</totfact>
</mgrwt>
</event>
<event>
 5    1  0.3206158E-002  0.1250124E+03  0.7818608E-02  0.1235050E+00
         -4   -1    0    0    0  501 -0.00000000000E+00  0.00000000000E+00  0.15708874069E+03  0.15709387433E+03  0.12700000000E+01 0.  1.
          4   -1    0    0  501    0  0.00000000000E+00 -0.00000000000E+00 -0.24849682522E+02  0.24882114489E+02  0.12700000000E+01 0.  1.
         25    2    1    2    0    0  0.00000000000E+00  0.00000000000E+00  0.13223905817E+03  0.18197598882E+03  0.12501236739E+03 0.  0.
    9000005    1    3    3    0    0  0.12633377138E+02 -0.17497965037E+02 -0.19260363727E+02  0.28943783603E+02  0.10000000000E+01 0.  0.
    9000005    1    3    3    0    0 -0.12633377138E+02  0.17497965037E+02  0.15149942190E+03  0.15303220522E+03  0.10000000000E+01 0.  0.
<mgrwt>
<rscale>  0 0.12501237E+03</rscale>
<asrwt>0</asrwt>
<pdfrwt beam="2">  1        4 0.38259178E-02 0.12501237E+03</pdfrwt>
<pdfrwt beam="1">  1       -4 0.24170388E-01 0.12501237E+03</pdfrwt>
<totfact> 0.93236671E+03</totfact>
</mgrwt>
</event>
<event>
 5    1  0.3206158E-002  0.1249997E+03  0.7818608E-02  0.1235070E+00
          4   -1    0    0  501    0  0.00000000000E+00  0.00000000000E+00  0.38438978807E+01  0.40482651738E+01  0.12700000000E+01 0.  1.
         -4   -1    0    0    0  501 -0.00000000000E+00 -0.00000000000E+00 -0.98969690336E+03  0.98969771820E+03  0.12700000000E+01 0.  1.
         25    2    1    2    0    0  0.00000000000E+00  0.00000000000E+00 -0.98585300548E+03  0.99374598338E+03  0.12499972428E+03 0.  0.
    9000005    1    3    3    0    0  0.41711774973E+02 -0.41004587325E+02 -0.66782336551E+03  0.67038070965E+03  0.10000000000E+01 0.  0.
    9000005    1    3    3    0    0 -0.41711774973E+02  0.41004587325E+02 -0.31802963997E+03  0.32336527373E+03  0.10000000000E+01 0.  0.
<mgrwt>
<rscale>  0 0.12499972E+03</rscale>
<asrwt>0</asrwt>
<pdfrwt beam="1">  1        4 0.60715294E-03 0.12499972E+03</pdfrwt>
<pdfrwt beam="2">  1       -4 0.15227665E+00 0.12499972E+03</pdfrwt>
<totfact> 0.30812107E+03</totfact>
</mgrwt>
</event>
<event>
 5    1  0.3206158E-002  0.1249986E+03  0.7818608E-02  0.1235071E+00
         -4   -1    0    0    0  501 -0.00000000000E+00  0.00000000000E+00  0.56732145837E+02  0.56746359102E+02  0.12700000000E+01 0. -1.
          4   -1    0    0  501    0  0.00000000000E+00 -0.00000000000E+00 -0.68824024925E+02  0.68835741493E+02  0.12700000000E+01 0. -1.
         25    2    1    2    0    0  0.00000000000E+00  0.00000000000E+00 -0.12091879087E+02  0.12558210059E+03  0.12499860179E+03 0.  0.
    9000005    1    3    3    0    0 -0.25319097702E+02 -0.52738044130E+02 -0.28121324727E+02  0.64916615065E+02  0.10000000000E+01 0.  0.
    9000005    1    3    3    0    0  0.25319097702E+02  0.52738044130E+02  0.16029445639E+02  0.60665485530E+02  0.10000000000E+01 0.  0.
<mgrwt>
<rscale>  0 0.12499860E+03</rscale>
<asrwt>0</asrwt>
<pdfrwt beam="2">  1        4 0.10590306E-01 0.12499860E+03</pdfrwt>
<pdfrwt beam="1">  1       -4 0.87300170E-02 0.12499860E+03</pdfrwt>
<totfact> 0.10440471E+04</totfact>
</mgrwt>
</event>
<event>
 5    1  0.3206158E-002  0.1249983E+03  0.7818608E-02  0.1235072E+00
          4   -1    0    0  501    0  0.00000000000E+00  0.00000000000E+00  0.11138390673E+02  0.11210559611E+02  0.12700000000E+01 0. -1.
         -4   -1    0    0    0  501 -0.00000000000E+00 -0.00000000000E+00 -0.34948610924E+03  0.34948841677E+03  0.12700000000E+01 0. -1.
         25    2    1    2    0    0  0.00000000000E+00  0.00000000000E+00 -0.33834771857E+03  0.36069897638E+03  0.12499829158E+03 0.  0.
    9000005    1    3    3    0    0 -0.16783140401E+02 -0.56459543975E+02 -0.22941304913E+03  0.23685586549E+03  0.10000000000E+01 0.  0.
    9000005    1    3    3    0    0  0.16783140401E+02  0.56459543975E+02 -0.10893466944E+03  0.12384311089E+03  0.10000000000E+01 0.  0.
<mgrwt>
<rscale>  0 0.12499829E+03</rscale>
<asrwt>0</asrwt>
<pdfrwt beam="1">  1        4 0.17193278E-02 0.12499829E+03</pdfrwt>
<pdfrwt beam="2">  1       -4 0.53772814E-01 0.12499829E+03</pdfrwt>
<totfact> 0.68565951E+03</totfact>
</mgrwt>
</event>
<event>
 5    1  0.3206158E-002  0.1250002E+03  0.7818608E-02  0.1235069E+00
         -4   -1    0    0    0  501 -0.00000000000E+00  0.00000000000E+00  0.22259811757E+02  0.22296011290E+02  0.12700000000E+01 0.  1.
          4   -1    0    0  501    0  0.00000000000E+00 -0.00000000000E+00 -0.17530400148E+03  0.17530860172E+03  0.12700000000E+01 0.  1.
         25    2    1    2    0    0  0.00000000000E+00  0.00000000000E+00 -0.15304418973E+03  0.19760461301E+03  0.12500023629E+03 0.  0.
    9000005    1    3    3    0    0 -0.59671609901E+02 -0.17497323306E+02 -0.66725079336E+02  0.91214546885E+02  0.10000000000E+01 0.  0.
    9000005    1    3    3    0    0  0.59671609901E+02  0.17497323306E+02 -0.86319110391E+02  0.10639006612E+03  0.10000000000E+01 0.  0.
<mgrwt>
<rscale>  0 0.12500024E+03</rscale>
<asrwt>0</asrwt>
<pdfrwt beam="2">  1        4 0.26972984E-01 0.12500024E+03</pdfrwt>
<pdfrwt beam="1">  1       -4 0.34277250E-02 0.12500024E+03</pdfrwt>
<totfact> 0.90540235E+03</totfact>
</mgrwt>
</event>
<event>
 5    1  0.3206158E-002  0.1250024E+03  0.7818608E-02  0.1235066E+00
         -4   -1    0    0    0  501 -0.00000000000E+00  0.00000000000E+00  0.39366087546E+01  0.41363980087E+01  0.12700000000E+01 0. -1.
          4   -1    0    0  501    0  0.00000000000E+00 -0.00000000000E+00 -0.96756830863E+03  0.96756914211E+03  0.12700000000E+01 0. -1.
         25    2    1    2    0    0  0.00000000000E+00  0.00000000000E+00 -0.96363169988E+03  0.97170554012E+03  0.12500241475E+03 0.  0.
    9000005    1    3    3    0    0  0.26155939567E+02  0.24132283342E+02 -0.88114204148E+03  0.88186098538E+03  0.10000000000E+01 0.  0.
    9000005    1    3    3    0    0 -0.26155939567E+02 -0.24132283342E+02 -0.82489658394E+02  0.89844554737E+02  0.10000000000E+01 0.  0.
<mgrwt>
<rscale>  0 0.12500241E+03</rscale>
<asrwt>0</asrwt>
<pdfrwt beam="2">  1        4 0.14887191E+00 0.12500241E+03</pdfrwt>
<pdfrwt beam="1">  1       -4 0.62106541E-03 0.12500241E+03</pdfrwt>
<totfact> 0.31556036E+03</totfact>
</mgrwt>
</event>
<event>
 5    1  0.3206158E-002  0.1250015E+03  0.7818608E-02  0.1235067E+00
          4   -1    0    0  501    0  0.00000000000E+00  0.00000000000E+00  0.43859656686E+02  0.43878039890E+02  0.12700000000E+01 0. -1.
         -4   -1    0    0    0  501 -0.00000000000E+00 -0.00000000000E+00 -0.89023059395E+02  0.89032117823E+02  0.12700000000E+01 0. -1.
         25    2    1    2    0    0  0.00000000000E+00  0.00000000000E+00 -0.45163402709E+02  0.13291015771E+03  0.12500150831E+03 0.  0.
    9000005    1    3    3    0    0 -0.31077959662E+02  0.42552548239E+02 -0.58304756873E+02  0.78593915874E+02  0.10000000000E+01 0.  0.
    9000005    1    3    3    0    0  0.31077959662E+02 -0.42552548239E+02  0.13141354163E+02  0.54316241840E+02  0.10000000000E+01 0.  0.
<mgrwt>
<rscale>  0 0.12500151E+03</rscale>
<asrwt>0</asrwt>
<pdfrwt beam="1">  1        4 0.67497504E-02 0.12500151E+03</pdfrwt>
<pdfrwt beam="2">  1       -4 0.13697966E-01 0.12500151E+03</pdfrwt>
<totfact> 0.10281960E+04</totfact>
</mgrwt>
</event>
<event>
 5    1  0.3206158E-002  0.1250011E+03  0.7818608E-02  0.1235068E+00
         -4   -1    0    0    0  501 -0.00000000000E+00  0.00000000000E+00  0.43216216852E+03  0.43216403460E+03  0.12700000000E+01 0.  1.
          4   -1    0    0  501    0  0.00000000000E+00 -0.00000000000E+00 -0.89925114581E+01  0.90817488583E+01  0.12700000000E+01 0.  1.
         25    2    1    2    0    0  0.00000000000E+00  0.00000000000E+00  0.42316965707E+03  0.44124578346E+03  0.12500113104E+03 0.  0.
    9000005    1    3    3    0    0  0.35449576971E+02 -0.51054540221E+02  0.23448376730E+03  0.24258374989E+03  0.10000000000E+01 0.  0.
    9000005    1    3    3    0    0 -0.35449576971E+02  0.51054540221E+02  0.18868588977E+03  0.19866203357E+03  0.10000000000E+01 0.  0.
<mgrwt>
<rscale>  0 0.12500113E+03</rscale>
<asrwt>0</asrwt>
<pdfrwt beam="2">  1        4 0.13904716E-02 0.12500113E+03</pdfrwt>
<pdfrwt beam="1">  1       -4 0.66493481E-01 0.12500113E+03</pdfrwt>
<totfact> 0.60728184E+03</totfact>
</mgrwt>
</event>
<event>
 5    1  0.3206158E-002  0.1250024E+03  0.7818608E-02  0.1235066E+00
          4   -1    0    0  501    0  0.00000000000E+00  0.00000000000E+00  0.14980503828E+02  0.15034240750E+02  0.12700000000E+01 0.  1.
         -4   -1    0    0    0  501 -0.00000000000E+00 -0.00000000000E+00 -0.26024334450E+03  0.26024644331E+03  0.12700000000E+01 0.  1.
         25    2    1    2    0    0  0.00000000000E+00  0.00000000000E+00 -0.24526284067E+03  0.27528068406E+03  0.12500237599E+03 0.  0.
    9000005    1    3    3    0    0 -0.46055477253E+02 -0.41299482905E+02 -0.10310193059E+03  0.12024043565E+03  0.10000000000E+01 0.  0.
    9000005    1    3    3    0    0  0.46055477253E+02  0.41299482905E+02 -0.14216091008E+03  0.15504024841E+03  0.10000000000E+01 0.  0.
<mgrwt>
<rscale>  0 0.12500238E+03</rscale>
<asrwt>0</asrwt>
<pdfrwt beam="1">  1        4 0.23090651E-02 0.12500238E+03</pdfrwt>
<pdfrwt beam="2">  1       -4 0.40041806E-01 0.12500238E+03</pdfrwt>
<totfact> 0.78803880E+03</totfact>
</mgrwt>
</event>
<event>
 5    1  0.3206158E-002  0.1249978E+03  0.7818608E-02  0.1235073E+00
          4   -1    0    0  501    0  0.00000000000E+00  0.00000000000E+00  0.62796299835E+03  0.62796428258E+03  0.12700000000E+01 0.  1.
         -4   -1    0    0    0  501 -0.00000000000E+00 -0.00000000000E+00 -0.61541587855E+01  0.62838340491E+01  0.12700000000E+01 0.  1.
         25    2    1    2    0    0  0.00000000000E+00  0.00000000000E+00  0.62180883956E+03  0.63424811662E+03  0.12499776193E+03 0.  0.
    9000005    1    3    3    0    0 -0.53751780813E+02 -0.26913184272E+02  0.22426738870E+03  0.23218620774E+03  0.10000000000E+01 0.  0.
    9000005    1    3    3    0    0  0.53751780813E+02  0.26913184272E+02  0.39754145086E+03  0.40206190889E+03  0.10000000000E+01 0.  0.
<mgrwt>
<rscale>  0 0.12499776E+03</rscale>
<asrwt>0</asrwt>
<pdfrwt beam="1">  1        4 0.96619780E-01 0.12499776E+03</pdfrwt>
<pdfrwt beam="2">  1       -4 0.95686733E-03 0.12499776E+03</pdfrwt>
<totfact> 0.46777044E+03</totfact>
</mgrwt>
</event>
<event>
 5    1  0.3206158E-002  0.1249990E+03  0.7818608E-02  0.1235071E+00
          4   -1    0    0  501    0  0.00000000000E+00  0.00000000000E+00  0.17058811985E+03  0.17059284725E+03  0.12700000000E+01 0. -1.
         -4   -1    0    0    0  501 -0.00000000000E+00 -0.00000000000E+00 -0.22875708311E+02  0.22910934741E+02  0.12700000000E+01 0. -1.
         25    2    1    2    0    0  0.00000000000E+00  0.00000000000E+00  0.14771241154E+03  0.19350378199E+03  0.12499902849E+03 0.  0.
    9000005    1    3    3    0    0  0.40264550375E+01 -0.61275953082E+02  0.55920646714E+02  0.83060661538E+02  0.10000000000E+01 0.  0.
    9000005    1    3    3    0    0 -0.40264550375E+01  0.61275953082E+02  0.91791764824E+02  0.11044312045E+03  0.10000000000E+01 0.  0.
<mgrwt>
<rscale>  0 0.12499903E+03</rscale>
<asrwt>0</asrwt>
<pdfrwt beam="1">  1        4 0.26247400E-01 0.12499903E+03</pdfrwt>
<pdfrwt beam="2">  1       -4 0.35224130E-02 0.12499903E+03</pdfrwt>
<totfact> 0.91243201E+03</totfact>
</mgrwt>
</event>
<event>
 5    1  0.3206158E-002  0.1250002E+03  0.7818608E-02  0.1235069E+00
         -4   -1    0    0    0  501 -0.00000000000E+00  0.00000000000E+00  0.66403429440E+01  0.67606992548E+01  0.12700000000E+01 0. -1.
          4   -1    0    0  501    0  0.00000000000E+00 -0.00000000000E+00 -0.58285776393E+03  0.58285914754E+03  0.12700000000E+01 0. -1.
         25    2    1    2    0    0  0.00000000000E+00  0.00000000000E+00 -0.57621742099E+03  0.58961984680E+03  0.12500018996E+03 0.  0.
    9000005    1    3    3    0    0 -0.29230744534E+02  0.48560387916E+02 -0.16396107372E+03  0.17348423962E+03  0.10000000000E+01 0.  0.
    9000005    1    3    3    0    0  0.29230744534E+02 -0.48560387916E+02 -0.41225634726E+03  0.41613560718E+03  0.10000000000E+01 0.  0.
<mgrwt>
<rscale>  0 0.12500019E+03</rscale>
<asrwt>0</asrwt>
<pdfrwt beam="2">  1        4 0.89679750E-01 0.12500019E+03</pdfrwt>
<pdfrwt beam="1">  1       -4 0.10309563E-02 0.12500019E+03</pdfrwt>
<totfact> 0.49529270E+03</totfact>
</mgrwt>
</event>
<event>
 5    1  0.3206158E-002  0.1250024E+03  0.7818608E-02  0.1235065E+00
          4   -1    0    0  501    0  0.00000000000E+00  0.00000000000E+00  0.52530028919E+02  0.52545378848E+02  0.12700000000E+01 0.  1.
         -4   -1    0    0    0  501 -0.00000000000E+00 -0.00000000000E+00 -0.74333481619E+02  0.74344329909E+02  0.12700000000E+01 0.  1.
         25    2    1    2    0    0  0.00000000000E+00  0.00000000000E+00 -0.21803452700E+02  0.12688970876E+03  0.12500243053E+03 0.  0.
    9000005    1    3    3    0    0  0.40295458212E+02 -0.34797936845E+02 -0.44118571550E+02  0.69152503330E+02  0.10000000000E+01 0.  0.
    9000005    1    3    3    0    0 -0.40295458212E+02  0.34797936845E+02  0.22315118850E+02  0.57737205427E+02  0.10000000000E+01 0.  0.
<mgrwt>
<rscale>  0 0.12500243E+03</rscale>
<asrwt>0</asrwt>
<pdfrwt beam="1">  1        4 0.80835582E-02 0.12500243E+03</pdfrwt>
<pdfrwt beam="2">  1       -4 0.11437935E-01 0.12500243E+03</pdfrwt>
<totfact> 0.10410971E+04</totfact>
</mgrwt>
</event>
<event>
 5    1  0.3206158E-002  0.1249986E+03  0.7818608E-02  0.1235072E+00
          4   -1    0    0  501    0  0.00000000000E+00  0.00000000000E+00  0.12392694023E+04  0.12392700530E+04  0.12700000000E+01 0.  1.
         -4   -1    0    0    0  501 -0.00000000000E+00 -0.00000000000E+00 -0.30233818615E+01  0.32792892341E+01  0.12700000000E+01 0.  1.
         25    2    1    2    0    0  0.00000000000E+00  0.00000000000E+00  0.12362460204E+04  0.12425493422E+04  0.12499857979E+03 0.  0.
    9000005    1    3    3    0    0 -0.44575960933E+02  0.10052331131E+02  0.19438497208E+03  0.19968621140E+03  0.10000000000E+01 0.  0.
    9000005    1    3    3    0    0  0.44575960933E+02 -0.10052331131E+02  0.10418610483E+04  0.10428631308E+04  0.10000000000E+01 0.  0.
<mgrwt>
<rscale>  0 0.12499858E+03</rscale>
<asrwt>0</asrwt>
<pdfrwt beam="1">  1        4 0.19067659E+00 0.12499858E+03</pdfrwt>
<pdfrwt beam="2">  1       -4 0.48487086E-03 0.12499858E+03</pdfrwt>
<totfact> 0.23626115E+03</totfact>
</mgrwt>
</event>
<event>
 5    1  0.3206158E-002  0.1249988E+03  0.7818608E-02  0.1235071E+00
         -4   -1    0    0    0  501 -0.00000000000E+00  0.00000000000E+00  0.16283485666E+03  0.16283980914E+03  0.12700000000E+01 0. -1.
          4   -1    0    0  501    0  0.00000000000E+00 -0.00000000000E+00 -0.23966427201E+02  0.24000052766E+02  0.12700000000E+01 0. -1.
         25    2    1    2    0    0  0.00000000000E+00  0.00000000000E+00  0.13886842945E+03  0.18683986191E+03  0.12499877319E+03 0.  0.
    9000005    1    3    3    0    0 -0.53459516025E+02 -0.70230718926E-01  0.11780561599E+03  0.12937189782E+03  0.10000000000E+01 0.  0.
    9000005    1    3    3    0    0  0.53459516025E+02  0.70230718926E-01  0.21062813464E+02  0.57467964093E+02  0.10000000000E+01 0.  0.
<mgrwt>
<rscale>  0 0.12499877E+03</rscale>
<asrwt>0</asrwt>
<pdfrwt beam="2">  1        4 0.36901101E-02 0.12499877E+03</pdfrwt>
<pdfrwt beam="1">  1       -4 0.25054485E-01 0.12499877E+03</pdfrwt>
<totfact> 0.92402633E+03</totfact>
</mgrwt>
</event>
<event>
 5    1  0.3206158E-002  0.1249998E+03  0.7818608E-02  0.1235070E+00
         -4   -1    0    0    0  501 -0.00000000000E+00  0.00000000000E+00  0.14415969629E+02  0.14471802941E+02  0.12700000000E+01 0.  1.
          4   -1    0    0  501    0  0.00000000000E+00 -0.00000000000E+00 -0.27038498526E+03  0.27038796784E+03  0.12700000000E+01 0.  1.
         25    2    1    2    0    0  0.00000000000E+00  0.00000000000E+00 -0.25596901563E+03  0.28485977078E+03  0.12499980819E+03 0.  0.
    9000005    1    3    3    0    0  0.46569656118E+02 -0.28755419214E+02 -0.19671578304E+03  0.20419036780E+03  0.10000000000E+01 0.  0.
    9000005    1    3    3    0    0 -0.46569656118E+02  0.28755419214E+02 -0.59253232587E+02  0.80669402979E+02  0.10000000000E+01 0.  0.
<mgrwt>
<rscale>  0 0.12499981E+03</rscale>
<asrwt>0</asrwt>
<pdfrwt beam="2">  1        4 0.41602211E-01 0.12499981E+03</pdfrwt>
<pdfrwt beam="1">  1       -4 0.22223660E-02 0.12499981E+03</pdfrwt>
<totfact> 0.77538449E+03</totfact>
</mgrwt>
</event>
<event>
 5    1  0.3206158E-002  0.1250009E+03  0.7818608E-02  0.1235068E+00
          4   -1    0    0  501    0  0.00000000000E+00  0.00000000000E+00  0.12254135081E+03  0.12254793168E+03  0.12700000000E+01 0. -1.
         -4   -1    0    0    0  501 -0.00000000000E+00 -0.00000000000E+00 -0.31857383078E+02  0.31882687412E+02  0.12700000000E+01 0. -1.
         25    2    1    2    0    0  0.00000000000E+00  0.00000000000E+00  0.90683967733E+02  0.15443061909E+03  0.12500093643E+03 0.  0.
    9000005    1    3    3    0    0 -0.27458263637E+02 -0.27490318107E+02  0.10581065758E+03  0.11272341855E+03  0.10000000000E+01 0.  0.
    9000005    1    3    3    0    0  0.27458263637E+02  0.27490318107E+02 -0.15126689845E+02  0.41707200544E+02  0.10000000000E+01 0.  0.
<mgrwt>
<rscale>  0 0.12500094E+03</rscale>
<asrwt>0</asrwt>
<pdfrwt beam="1">  1        4 0.18854968E-01 0.12500094E+03</pdfrwt>
<pdfrwt beam="2">  1       -4 0.49035885E-02 0.12500094E+03</pdfrwt>
<totfact> 0.98425318E+03</totfact>
</mgrwt>
</event>
<event>
 5    1  0.3206158E-002  0.1249982E+03  0.7818608E-02  0.1235072E+00
          4   -1    0    0  501    0  0.00000000000E+00  0.00000000000E+00  0.72409361056E+02  0.72420497572E+02  0.12700000000E+01 0. -1.
         -4   -1    0    0    0  501 -0.00000000000E+00 -0.00000000000E+00 -0.53922435787E+02  0.53937389455E+02  0.12700000000E+01 0. -1.
         25    2    1    2    0    0  0.00000000000E+00  0.00000000000E+00  0.18486925269E+02  0.12635788703E+03  0.12499819682E+03 0.  0.
    9000005    1    3    3    0    0  0.31815305372E+02 -0.40005158123E+02 -0.27099114907E+02  0.57861803991E+02  0.10000000000E+01 0.  0.
    9000005    1    3    3    0    0 -0.31815305372E+02  0.40005158123E+02  0.45586040176E+02  0.68496083036E+02  0.10000000000E+01 0.  0.
<mgrwt>
<rscale>  0 0.12499820E+03</rscale>
<asrwt>0</asrwt>
<pdfrwt beam="1">  1        4 0.11141909E-01 0.12499820E+03</pdfrwt>
<pdfrwt beam="2">  1       -4 0.82977663E-02 0.12499820E+03</pdfrwt>
<totfact> 0.10423553E+04</totfact>
</mgrwt>
</event>
<event>
 5    1  0.3206158E-002  0.1249984E+03  0.7818608E-02  0.1235072E+00
         -4   -1    0    0    0  501 -0.00000000000E+00  0.00000000000E+00  0.76322016139E+02  0.76332581821E+02  0.12700000000E+01 0. -1.
          4   -1    0    0  501    0  0.00000000000E+00 -0.00000000000E+00 -0.51157855408E+02  0.51173616932E+02  0.12700000000E+01 0. -1.
         25    2    1    2    0    0  0.00000000000E+00  0.00000000000E+00  0.25164160731E+02  0.12750619875E+03  0.12499838293E+03 0.  0.
    9000005    1    3    3    0    0  0.35916055050E+02  0.11530100792E+02 -0.38239600528E+02  0.53723116841E+02  0.10000000000E+01 0.  0.
    9000005    1    3    3    0    0 -0.35916055050E+02 -0.11530100792E+02  0.63403761259E+02  0.73783081912E+02  0.10000000000E+01 0.  0.
<mgrwt>
<rscale>  0 0.12499838E+03</rscale>
<asrwt>0</asrwt>
<pdfrwt beam="2">  1        4 0.78724645E-02 0.12499838E+03</pdfrwt>
<pdfrwt beam="1">  1       -4 0.11743874E-01 0.12499838E+03</pdfrwt>
<totfact> 0.10398546E+04</totfact>
</mgrwt>
</event>
<event>
 5    1  0.3206158E-002  0.1249957E+03  0.7818608E-02  0.1235076E+00
         -4   -1    0    0    0  501 -0.00000000000E+00  0.00000000000E+00  0.62763138136E+02  0.62775985924E+02  0.12700000000E+01 0.  1.
          4   -1    0    0  501    0  0.00000000000E+00 -0.00000000000E+00 -0.62207949442E+02  0.62220911868E+02  0.12700000000E+01 0.  1.
         25    2    1    2    0    0  0.00000000000E+00  0.00000000000E+00  0.55518869462E+00  0.12499689779E+03  0.12499566482E+03 0.  0.
    9000005    1    3    3    0    0 -0.44277874359E+02  0.36840723290E+02 -0.23955061104E+02  0.62390816654E+02  0.10000000000E+01 0.  0.
    9000005    1    3    3    0    0  0.44277874359E+02 -0.36840723290E+02  0.24510249799E+02  0.62606081138E+02  0.10000000000E+01 0.  0.
<mgrwt>
<rscale>  0 0.12499566E+03</rscale>
<asrwt>0</asrwt>
<pdfrwt beam="2">  1        4 0.95724392E-02 0.12499566E+03</pdfrwt>
<pdfrwt beam="1">  1       -4 0.96578528E-02 0.12499566E+03</pdfrwt>
<totfact> 0.10453954E+04</totfact>
</mgrwt>
</event>
<event>
 5    1  0.3206158E-002  0.1250008E+03  0.7818608E-02  0.1235068E+00
         -4   -1    0    0    0  501 -0.00000000000E+00  0.00000000000E+00  0.60936563778E+01  0.62245921996E+01  0.12700000000E+01 0.  1.
          4   -1    0    0  501    0  0.00000000000E+00 -0.00000000000E+00 -0.63409843753E+03  0.63409970933E+03  0.12700000000E+01 0.  1.
         25    2    1    2    0    0  0.00000000000E+00  0.00000000000E+00 -0.62800478115E+03  0.64032430153E+03  0.12500082394E+03 0.  0.
    9000005    1    3    3    0    0  0.11101639044E+02  0.59972362144E+02 -0.38374655431E+03  0.38856447156E+03  0.10000000000E+01 0.  0.
    9000005    1    3    3    0    0 -0.11101639044E+02 -0.59972362144E+02 -0.24425822684E+03  0.25175982997E+03  0.10000000000E+01 0.  0.
<mgrwt>
<rscale>  0 0.12500082E+03</rscale>
<asrwt>0</asrwt>
<pdfrwt beam="2">  1        4 0.97563724E-01 0.12500082E+03</pdfrwt>
<pdfrwt beam="1">  1       -4 0.94765591E-03 0.12500082E+03</pdfrwt>
<totfact> 0.46416417E+03</totfact>
</mgrwt>
</event>
<event>
 5    1  0.3206158E-002  0.1250001E+03  0.7818608E-02  0.1235069E+00
          4   -1    0    0  501    0  0.00000000000E+00  0.00000000000E+00  0.58199531413E+02  0.58213386404E+02  0.12700000000E+01 0. -1.
         -4   -1    0    0    0  501 -0.00000000000E+00 -0.00000000000E+00 -0.67090503692E+02  0.67102522945E+02  0.12700000000E+01 0. -1.
         25    2    1    2    0    0  0.00000000000E+00  0.00000000000E+00 -0.88909722789E+01  0.12531590935E+03  0.12500011099E+03 0.  0.
    9000005    1    3    3    0    0  0.10256159404E+01 -0.25749719882E+02 -0.61520476111E+02  0.66707338000E+02  0.10000000000E+01 0.  0.
    9000005    1    3    3    0    0 -0.10256159404E+01  0.25749719882E+02  0.52629503832E+02  0.58608571350E+02  0.10000000000E+01 0.  0.
<mgrwt>
<rscale>  0 0.12500011E+03</rscale>
<asrwt>0</asrwt>
<pdfrwt beam="1">  1        4 0.89557644E-02 0.12500011E+03</pdfrwt>
<pdfrwt beam="2">  1       -4 0.10323606E-01 0.12500011E+03</pdfrwt>
<totfact> 0.10445979E+04</totfact>
</mgrwt>
</event>
<event>
 5    1  0.3206158E-002  0.1249991E+03  0.7818608E-02  0.1235071E+00
          4   -1    0    0  501    0  0.00000000000E+00  0.00000000000E+00  0.44173145004E+02  0.44191397800E+02  0.12700000000E+01 0. -1.
         -4   -1    0    0    0  501 -0.00000000000E+00 -0.00000000000E+00 -0.88388112854E+02  0.88397236348E+02  0.12700000000E+01 0. -1.
         25    2    1    2    0    0  0.00000000000E+00  0.00000000000E+00 -0.44214967851E+02  0.13258863415E+03  0.12499913009E+03 0.  0.
    9000005    1    3    3    0    0 -0.61122455127E+01  0.36137668680E+02  0.31580959874E+02  0.48390574179E+02  0.10000000000E+01 0.  0.
    9000005    1    3    3    0    0  0.61122455127E+01 -0.36137668680E+02 -0.75795927725E+02  0.84198059969E+02  0.10000000000E+01 0.  0.
<mgrwt>
<rscale>  0 0.12499913E+03</rscale>
<asrwt>0</asrwt>
<pdfrwt beam="1">  1        4 0.67979743E-02 0.12499913E+03</pdfrwt>
<pdfrwt beam="2">  1       -4 0.13600277E-01 0.12499913E+03</pdfrwt>
<totfact> 0.10289352E+04</totfact>
</mgrwt>
</event>
<event>
 5    1  0.3206158E-002  0.1250021E+03  0.7818608E-02  0.1235066E+00
          4   -1    0    0  501    0  0.00000000000E+00  0.00000000000E+00  0.10435822237E+02  0.10512815311E+02  0.12700000000E+01 0.  1.
         -4   -1    0    0    0  501 -0.00000000000E+00 -0.00000000000E+00 -0.37287038161E+03  0.37287254442E+03  0.12700000000E+01 0.  1.
         25    2    1    2    0    0  0.00000000000E+00  0.00000000000E+00 -0.36243455937E+03  0.38338535973E+03  0.12500209689E+03 0.  0.
    9000005    1    3    3    0    0  0.54499362724E+02 -0.42128005062E+01 -0.88318480797E+02  0.10387050725E+03  0.10000000000E+01 0.  0.
    9000005    1    3    3    0    0 -0.54499362724E+02  0.42128005062E+01 -0.27411607857E+03  0.27951485248E+03  0.10000000000E+01 0.  0.
<mgrwt>
<rscale>  0 0.12500210E+03</rscale>
<asrwt>0</asrwt>
<pdfrwt beam="1">  1        4 0.16116003E-02 0.12500210E+03</pdfrwt>
<pdfrwt beam="2">  1       -4 0.57370753E-01 0.12500210E+03</pdfrwt>
<totfact> 0.66198374E+03</totfact>
</mgrwt>
</event>
<event>
 5    1  0.3206158E-002  0.1249914E+03  0.7818608E-02  0.1235083E+00
         -4   -1    0    0    0  501 -0.00000000000E+00  0.00000000000E+00  0.35818691232E+03  0.35818916379E+03  0.12700000000E+01 0. -1.
          4   -1    0    0  501    0  0.00000000000E+00 -0.00000000000E+00 -0.10864843981E+02  0.10938817794E+02  0.12700000000E+01 0. -1.
         25    2    1    2    0    0  0.00000000000E+00  0.00000000000E+00  0.34732206834E+03  0.36912798158E+03  0.12499139024E+03 0.  0.
    9000005    1    3    3    0    0 -0.55707792267E+02 -0.35168644497E+01  0.90708173490E+02  0.10651149794E+03  0.10000000000E+01 0.  0.
    9000005    1    3    3    0    0  0.55707792267E+02  0.35168644497E+01  0.25661389485E+03  0.26261648365E+03  0.10000000000E+01 0.  0.
<mgrwt>
<rscale>  0 0.12499139E+03</rscale>
<asrwt>0</asrwt>
<pdfrwt beam="2">  1        4 0.16773780E-02 0.12499139E+03</pdfrwt>
<pdfrwt beam="1">  1       -4 0.55111539E-01 0.12499139E+03</pdfrwt>
<totfact> 0.67683148E+03</totfact>
</mgrwt>
</event>
<event>
 5    1  0.3206158E-002  0.1249998E+03  0.7818608E-02  0.1235070E+00
          4   -1    0    0  501    0  0.00000000000E+00  0.00000000000E+00  0.37034519424E+02  0.37056288656E+02  0.12700000000E+01 0. -1.
         -4   -1    0    0    0  501 -0.00000000000E+00 -0.00000000000E+00 -0.10541896585E+03  0.10542661552E+03  0.12700000000E+01 0. -1.
         25    2    1    2    0    0  0.00000000000E+00  0.00000000000E+00 -0.68384446421E+02  0.14248290418E+03  0.12499978188E+03 0.  0.
    9000005    1    3    3    0    0 -0.32964574512E+01 -0.55321719601E+02 -0.67108031249E+02  0.87039342538E+02  0.10000000000E+01 0.  0.
    9000005    1    3    3    0    0  0.32964574512E+01  0.55321719601E+02 -0.12764151723E+01  0.55443561638E+02  0.10000000000E+01 0.  0.
<mgrwt>
<rscale>  0 0.12499978E+03</rscale>
<asrwt>0</asrwt>
<pdfrwt beam="1">  1        4 0.56998814E-02 0.12499978E+03</pdfrwt>
<pdfrwt beam="2">  1       -4 0.16220565E-01 0.12499978E+03</pdfrwt>
<totfact> 0.10082433E+04</totfact>
</mgrwt>
</event>
<event>
 5    1  0.3206158E-002  0.1249771E+03  0.7818608E-02  0.1235105E+00
          4   -1    0    0  501    0  0.00000000000E+00  0.00000000000E+00  0.31356147801E+02  0.31381856301E+02  0.12700000000E+01 0.  1.
         -4   -1    0    0    0  501 -0.00000000000E+00 -0.00000000000E+00 -0.12445123059E+03  0.12445771047E+03  0.12700000000E+01 0.  1.
         25    2    1    2    0    0  0.00000000000E+00  0.00000000000E+00 -0.93095082791E+02  0.15583956677E+03  0.12497710243E+03 0.  0.
    9000005    1    3    3    0    0  0.27445740446E+02 -0.10410054874E+02  0.22228917949E+02  0.36834259926E+02  0.10000000000E+01 0.  0.
    9000005    1    3    3    0    0 -0.27445740446E+02  0.10410054874E+02 -0.11532400074E+03  0.11900530685E+03  0.10000000000E+01 0.  0.
<mgrwt>
<rscale>  0 0.12497710E+03</rscale>
<asrwt>0</asrwt>
<pdfrwt beam="1">  1        4 0.48264988E-02 0.12497710E+03</pdfrwt>
<pdfrwt beam="2">  1       -4 0.19148819E-01 0.12497710E+03</pdfrwt>
<totfact> 0.98201490E+03</totfact>
</mgrwt>
</event>
<event>
 5    1  0.3206158E-002  0.1250111E+03  0.7818608E-02  0.1235052E+00
         -4   -1    0    0    0  501 -0.00000000000E+00  0.00000000000E+00  0.36036132674E+02  0.36058504657E+02  0.12700000000E+01 0.  1.
          4   -1    0    0  501    0  0.00000000000E+00 -0.00000000000E+00 -0.10835768601E+03  0.10836512824E+03  0.12700000000E+01 0.  1.
         25    2    1    2    0    0  0.00000000000E+00  0.00000000000E+00 -0.72321553337E+02  0.14442363289E+03  0.12501111415E+03 0.  0.
    9000005    1    3    3    0    0  0.60264779895E+02 -0.44734281979E+01 -0.17745301829E+02  0.62990086463E+02  0.10000000000E+01 0.  0.
    9000005    1    3    3    0    0 -0.60264779895E+02  0.44734281979E+01 -0.54576251508E+02  0.81433546431E+02  0.10000000000E+01 0.  0.
<mgrwt>
<rscale>  0 0.12501111E+03</rscale>
<asrwt>0</asrwt>
<pdfrwt beam="2">  1        4 0.16672706E-01 0.12501111E+03</pdfrwt>
<pdfrwt beam="1">  1       -4 0.55463139E-02 0.12501111E+03</pdfrwt>
<totfact> 0.10040199E+04</totfact>
</mgrwt>
</event>
<event>
 5    1  0.3206158E-002  0.1249984E+03  0.7818608E-02  0.1235072E+00
          4   -1    0    0  501    0  0.00000000000E+00  0.00000000000E+00  0.46102288676E+03  0.46102463602E+03  0.12700000000E+01 0.  1.
         -4   -1    0    0    0  501 -0.00000000000E+00 -0.00000000000E+00 -0.84234274363E+01  0.85186283974E+01  0.12700000000E+01 0.  1.
         25    2    1    2    0    0  0.00000000000E+00  0.00000000000E+00  0.45259945933E+03  0.46954326442E+03  0.12499842631E+03 0.  0.
    9000005    1    3    3    0    0  0.60436973950E+02  0.72904920686E+00  0.28592971670E+03  0.29224982845E+03  0.10000000000E+01 0.  0.
    9000005    1    3    3    0    0 -0.60436973950E+02 -0.72904920686E+00  0.16666974262E+03  0.17729343597E+03  0.10000000000E+01 0.  0.
<mgrwt>
<rscale>  0 0.12499843E+03</rscale>
<asrwt>0</asrwt>
<pdfrwt beam="1">  1        4 0.70934078E-01 0.12499843E+03</pdfrwt>
<pdfrwt beam="2">  1       -4 0.13033692E-02 0.12499843E+03</pdfrwt>
<totfact> 0.58309381E+03</totfact>
</mgrwt>
</event>
<event>
 5    1  0.3206158E-002  0.1249997E+03  0.7818608E-02  0.1235070E+00
          4   -1    0    0  501    0  0.00000000000E+00  0.00000000000E+00  0.31379683803E+03  0.31379940800E+03  0.12700000000E+01 0. -1.
         -4   -1    0    0    0  501 -0.00000000000E+00 -0.00000000000E+00 -0.12413257776E+02  0.12478055482E+02  0.12700000000E+01 0. -1.
         25    2    1    2    0    0  0.00000000000E+00  0.00000000000E+00  0.30138358026E+03  0.32627746348E+03  0.12499968290E+03 0.  0.
    9000005    1    3    3    0    0  0.58628131347E+02  0.18298063057E+02  0.12057184974E+03  0.13531684244E+03  0.10000000000E+01 0.  0.
    9000005    1    3    3    0    0 -0.58628131347E+02 -0.18298063057E+02  0.18081173051E+03  0.19096062104E+03  0.10000000000E+01 0.  0.
<mgrwt>
<rscale>  0 0.12499968E+03</rscale>
<asrwt>0</asrwt>
<pdfrwt beam="1">  1        4 0.48281616E-01 0.12499968E+03</pdfrwt>
<pdfrwt beam="2">  1       -4 0.19149142E-02 0.12499968E+03</pdfrwt>
<totfact> 0.72416182E+03</totfact>
</mgrwt>
</event>
<event>
 5    1  0.3206158E-002  0.1250013E+03  0.7818608E-02  0.1235067E+00
          4   -1    0    0  501    0  0.00000000000E+00  0.00000000000E+00  0.46532788361E+02  0.46550115925E+02  0.12700000000E+01 0. -1.
         -4   -1    0    0    0  501 -0.00000000000E+00 -0.00000000000E+00 -0.83910186011E+02  0.83919796332E+02  0.12700000000E+01 0. -1.
         25    2    1    2    0    0  0.00000000000E+00  0.00000000000E+00 -0.37377397650E+02  0.13046991226E+03  0.12500131259E+03 0.  0.
    9000005    1    3    3    0    0 -0.58351006814E+02  0.21221630081E+02 -0.26079030988E+02  0.67352159852E+02  0.10000000000E+01 0.  0.
    9000005    1    3    3    0    0  0.58351006814E+02 -0.21221630081E+02 -0.11298366662E+02  0.63117752405E+02  0.10000000000E+01 0.  0.
<mgrwt>
<rscale>  0 0.12500131E+03</rscale>
<asrwt>0</asrwt>
<pdfrwt beam="1">  1        4 0.71609627E-02 0.12500131E+03</pdfrwt>
<pdfrwt beam="2">  1       -4 0.12911332E-01 0.12500131E+03</pdfrwt>
<totfact> 0.10334159E+04</totfact>
</mgrwt>
</event>
<event>
 5    1  0.3206158E-002  0.1250244E+03  0.7818608E-02  0.1235031E+00
          4   -1    0    0  501    0  0.00000000000E+00  0.00000000000E+00  0.64619199233E+02  0.64631678066E+02  0.12700000000E+01 0. -1.
         -4   -1    0    0    0  501 -0.00000000000E+00 -0.00000000000E+00 -0.60448895704E+02  0.60462235253E+02  0.12700000000E+01 0. -1.
         25    2    1    2    0    0  0.00000000000E+00  0.00000000000E+00  0.41703035294E+01  0.12509391332E+03  0.12502438049E+03 0.  0.
    9000005    1    3    3    0    0 -0.30642291679E+01 -0.37551419284E+02 -0.47815176140E+02  0.60883410384E+02  0.10000000000E+01 0.  0.
    9000005    1    3    3    0    0  0.30642291679E+01  0.37551419284E+02  0.51985479670E+02  0.64210502935E+02  0.10000000000E+01 0.  0.
<mgrwt>
<rscale>  0 0.12502438E+03</rscale>
<asrwt>0</asrwt>
<pdfrwt beam="1">  1        4 0.99434012E-02 0.12502438E+03</pdfrwt>
<pdfrwt beam="2">  1       -4 0.93018162E-02 0.12502438E+03</pdfrwt>
<totfact> 0.10445067E+04</totfact>
</mgrwt>
</event>
<event>
 4    1  0.3206158E-002  0.1250731E+03  0.7818608E-02  0.1234955E+00
         -4   -1    0    0    0  501 -0.00000000000E+00  0.00000000000E+00  0.14425613612E+03  0.14426172641E+03  0.12700000000E+01 0.  1.
          4   -1    0    0  501    0  0.00000000000E+00 -0.00000000000E+00 -0.27089279843E+02  0.27119033582E+02  0.12700000000E+01 0.  1.
    9000005    1    1    2    0    0 -0.24513456796E+02 -0.39110052108E+02  0.78384640924E+00  0.46174886629E+02  0.10000000000E+01 0.  0.
    9000005    1    1    2    0    0  0.24513456796E+02  0.39110052108E+02  0.11638300986E+03  0.12520587336E+03  0.10000000000E+01 0.  0.
<mgrwt>
<rscale>  0 0.12507315E+03</rscale>
<asrwt>0</asrwt>
<pdfrwt beam="2">  1        4 0.41703003E-02 0.12507315E+03</pdfrwt>
<pdfrwt beam="1">  1       -4 0.22195970E-01 0.12507315E+03</pdfrwt>
<totfact> 0.95035807E+03</totfact>
</mgrwt>
</event>
<event>
 4    1  0.3206158E-002  0.1250761E+03  0.7818608E-02  0.1234950E+00
          4   -1    0    0  501    0  0.00000000000E+00  0.00000000000E+00  0.29436510904E+03  0.29436784865E+03  0.12700000000E+01 0. -1.
         -4   -1    0    0    0  501 -0.00000000000E+00 -0.00000000000E+00 -0.13253083223E+02  0.13313794159E+02  0.12700000000E+01 0. -1.
    9000005    1    1    2    0    0 -0.59267920974E+02  0.73989504353E+01  0.18608678125E+03  0.19543981447E+03  0.10000000000E+01 0.  0.
    9000005    1    1    2    0    0  0.59267920974E+02 -0.73989504353E+01  0.95025244562E+02  0.11224182834E+03  0.10000000000E+01 0.  0.
<mgrwt>
<rscale>  0 0.12507607E+03</rscale>
<asrwt>0</asrwt>
<pdfrwt beam="1">  1        4 0.45291820E-01 0.12507607E+03</pdfrwt>
<pdfrwt beam="2">  1       -4 0.20438167E-02 0.12507607E+03</pdfrwt>
<totfact> 0.74519415E+03</totfact>
</mgrwt>
</event>
<event>
 5    1  0.3206158E-002  0.1249998E+03  0.7818608E-02  0.1235070E+00
         -4   -1    0    0    0  501 -0.00000000000E+00  0.00000000000E+00  0.81170776446E+03  0.81170875798E+03  0.12700000000E+01 0.  1.
          4   -1    0    0  501    0  0.00000000000E+00 -0.00000000000E+00 -0.47275646615E+01  0.48951779977E+01  0.12700000000E+01 0.  1.
         25    2    1    2    0    0  0.00000000000E+00  0.00000000000E+00  0.80698019980E+03  0.81660393598E+03  0.12499978156E+03 0.  0.
    9000005    1    3    3    0    0  0.23344909550E+02 -0.57957953558E+02  0.41042589054E+03  0.41515601984E+03  0.10000000000E+01 0.  0.
    9000005    1    3    3    0    0 -0.23344909550E+02  0.57957953558E+02  0.39655430926E+03  0.40144791614E+03  0.10000000000E+01 0.  0.
<mgrwt>
<rscale>  0 0.12499978E+03</rscale>
<asrwt>0</asrwt>
<pdfrwt beam="2">  1        4 0.74028700E-03 0.12499978E+03</pdfrwt>
<pdfrwt beam="1">  1       -4 0.12489115E+00 0.12499978E+03</pdfrwt>
<totfact> 0.37534308E+03</totfact>
</mgrwt>
</event>
<event>
 5    1  0.3206158E-002  0.1250004E+03  0.7818608E-02  0.1235069E+00
         -4   -1    0    0    0  501 -0.00000000000E+00  0.00000000000E+00  0.14231980639E+02  0.14288532917E+02  0.12700000000E+01 0. -1.
          4   -1    0    0  501    0  0.00000000000E+00 -0.00000000000E+00 -0.27386919781E+03  0.27387214245E+03  0.12700000000E+01 0. -1.
         25    2    1    2    0    0  0.00000000000E+00  0.00000000000E+00 -0.25963721717E+03  0.28816067537E+03  0.12500036115E+03 0.  0.
    9000005    1    3    3    0    0  0.65814657166E+01  0.14702946849E+02  0.93748059645E+01  0.18664922285E+02  0.10000000000E+01 0.  0.
    9000005    1    3    3    0    0 -0.65814657166E+01 -0.14702946849E+02 -0.26901202314E+03  0.26949575308E+03  0.10000000000E+01 0.  0.
<mgrwt>
<rscale>  0 0.12500036E+03</rscale>
<asrwt>0</asrwt>
<pdfrwt beam="2">  1        4 0.42138295E-01 0.12500036E+03</pdfrwt>
<pdfrwt beam="1">  1       -4 0.21941124E-02 0.12500036E+03</pdfrwt>
<totfact> 0.77107737E+03</totfact>
</mgrwt>
</event>
<event>
 5    1  0.3206158E-002  0.1250001E+03  0.7818608E-02  0.1235069E+00
         -4   -1    0    0    0  501 -0.00000000000E+00  0.00000000000E+00  0.67198720884E+01  0.68388289118E+01  0.12700000000E+01 0. -1.
          4   -1    0    0  501    0  0.00000000000E+00 -0.00000000000E+00 -0.57607933908E+03  0.57608073897E+03  0.12700000000E+01 0. -1.
         25    2    1    2    0    0  0.00000000000E+00  0.00000000000E+00 -0.56935946699E+03  0.58291956789E+03  0.12500007988E+03 0.  0.
    9000005    1    3    3    0    0  0.43284348443E+02 -0.25695085972E+02 -0.45738020180E+03  0.46014282703E+03  0.10000000000E+01 0.  0.
    9000005    1    3    3    0    0 -0.43284348443E+02  0.25695085972E+02 -0.11197926519E+03  0.12277674086E+03  0.10000000000E+01 0.  0.
<mgrwt>
<rscale>  0 0.12500008E+03</rscale>
<asrwt>0</asrwt>
<pdfrwt beam="2">  1        4 0.88636810E-01 0.12500008E+03</pdfrwt>
<pdfrwt beam="1">  1       -4 0.10430851E-02 0.12500008E+03</pdfrwt>
<totfact> 0.49963765E+03</totfact>
</mgrwt>
</event>
<event>
 5    1  0.3206158E-002  0.1250003E+03  0.7818608E-02  0.1235069E+00
         -4   -1    0    0    0  501 -0.00000000000E+00  0.00000000000E+00  0.64824501547E+03  0.64824625952E+03  0.12700000000E+01 0.  1.
          4   -1    0    0  501    0  0.00000000000E+00 -0.00000000000E+00 -0.59577327291E+01  0.60915908654E+01  0.12700000000E+01 0.  1.
         25    2    1    2    0    0  0.00000000000E+00  0.00000000000E+00  0.64228728274E+03  0.65433785038E+03  0.12500027550E+03 0.  0.
    9000005    1    3    3    0    0  0.14648037768E+02 -0.20700499101E+02  0.62012616384E+03  0.62064525677E+03  0.10000000000E+01 0.  0.
    9000005    1    3    3    0    0 -0.14648037768E+02  0.20700499101E+02  0.22161118900E+02  0.33692593613E+02  0.10000000000E+01 0.  0.
<mgrwt>
<rscale>  0 0.12500028E+03</rscale>
<asrwt>0</asrwt>
<pdfrwt beam="2">  1        4 0.92696765E-03 0.12500028E+03</pdfrwt>
<pdfrwt beam="1">  1       -4 0.99740297E-01 0.12500028E+03</pdfrwt>
<totfact> 0.45607501E+03</totfact>
</mgrwt>
</event>
<event>
 5    1  0.3206158E-002  0.1249996E+03  0.7818608E-02  0.1235070E+00
          4   -1    0    0  501    0  0.00000000000E+00  0.00000000000E+00  0.66602835653E+03  0.66602956737E+03  0.12700000000E+01 0.  1.
         -4   -1    0    0    0  501 -0.00000000000E+00 -0.00000000000E+00 -0.57949683298E+01  0.59325001427E+01  0.12700000000E+01 0.  1.
         25    2    1    2    0    0  0.00000000000E+00  0.00000000000E+00  0.66023338821E+03  0.67196206751E+03  0.12499957309E+03 0.  0.
    9000005    1    3    3    0    0  0.29425399499E+02 -0.89576724423E+01  0.37689203120E+02  0.48657682467E+02  0.10000000000E+01 0.  0.
    9000005    1    3    3    0    0 -0.29425399499E+02  0.89576724423E+01  0.62254418508E+03  0.62330438504E+03  0.10000000000E+01 0.  0.
<mgrwt>
<rscale>  0 0.12499957E+03</rscale>
<asrwt>0</asrwt>
<pdfrwt beam="1">  1        4 0.10247655E+00 0.12499957E+03</pdfrwt>
<pdfrwt beam="2">  1       -4 0.90220627E-03 0.12499957E+03</pdfrwt>
<totfact> 0.44609094E+03</totfact>
</mgrwt>
</event>
<event>
 5    1  0.3206158E-002  0.1250174E+03  0.7818608E-02  0.1235042E+00
          4   -1    0    0  501    0  0.00000000000E+00  0.00000000000E+00  0.20869613527E+02  0.20908220125E+02  0.12700000000E+01 0. -1.
         -4   -1    0    0    0  501 -0.00000000000E+00 -0.00000000000E+00 -0.18701228281E+03  0.18701659505E+03  0.12700000000E+01 0. -1.
         25    2    1    2    0    0  0.00000000000E+00  0.00000000000E+00 -0.16614266929E+03  0.20792481517E+03  0.12501736762E+03 0.  0.
    9000005    1    3    3    0    0  0.15628346645E+02  0.58532488067E+02 -0.10862346396E+03  0.12437987900E+03  0.10000000000E+01 0.  0.
    9000005    1    3    3    0    0 -0.15628346645E+02 -0.58532488067E+02 -0.57519205327E+02  0.83544936170E+02  0.10000000000E+01 0.  0.
<mgrwt>
<rscale>  0 0.12501737E+03</rscale>
<asrwt>0</asrwt>
<pdfrwt beam="1">  1        4 0.32140114E-02 0.12501737E+03</pdfrwt>
<pdfrwt beam="2">  1       -4 0.28774421E-01 0.12501737E+03</pdfrwt>
<totfact> 0.88781428E+03</totfact>
</mgrwt>
</event>
<event>
 5    1  0.3206158E-002  0.1250059E+03  0.7818608E-02  0.1235060E+00
         -4   -1    0    0    0  501 -0.00000000000E+00  0.00000000000E+00  0.32697412523E+01  0.35077211772E+01  0.12700000000E+01 0.  1.
          4   -1    0    0  501    0  0.00000000000E+00 -0.00000000000E+00 -0.11525884833E+04  0.11525891830E+04  0.12700000000E+01 0.  1.
         25    2    1    2    0    0  0.00000000000E+00  0.00000000000E+00 -0.11493187421E+04  0.11560969042E+04  0.12500592383E+03 0.  0.
    9000005    1    3    3    0    0  0.43086491691E+02  0.41141375789E+02 -0.74929424616E+03  0.75165944809E+03  0.10000000000E+01 0.  0.
    9000005    1    3    3    0    0 -0.43086491691E+02 -0.41141375789E+02 -0.40002449590E+03  0.40443745609E+03  0.10000000000E+01 0.  0.
<mgrwt>
<rscale>  0 0.12500592E+03</rscale>
<asrwt>0</asrwt>
<pdfrwt beam="2">  1        4 0.17733935E+00 0.12500592E+03</pdfrwt>
<pdfrwt beam="1">  1       -4 0.52139800E-03 0.12500592E+03</pdfrwt>
<totfact> 0.25888381E+03</totfact>
</mgrwt>
</event>
<event>
 5    1  0.3206158E-002  0.1249997E+03  0.7818608E-02  0.1235070E+00
         -4   -1    0    0    0  501 -0.00000000000E+00  0.00000000000E+00  0.86592798668E+02  0.86602111298E+02  0.12700000000E+01 0. -1.
          4   -1    0    0  501    0  0.00000000000E+00 -0.00000000000E+00 -0.45089681295E+02  0.45107563216E+02  0.12700000000E+01 0. -1.
         25    2    1    2    0    0  0.00000000000E+00  0.00000000000E+00  0.41503117373E+02  0.13170967451E+03  0.12499971844E+03 0.  0.
    9000005    1    3    3    0    0 -0.26047568359E+02 -0.27869003657E+02 -0.31403729649E+02  0.49420151943E+02  0.10000000000E+01 0.  0.
    9000005    1    3    3    0    0  0.26047568359E+02  0.27869003657E+02  0.72906847022E+02  0.82289522571E+02  0.10000000000E+01 0.  0.
<mgrwt>
<rscale>  0 0.12499972E+03</rscale>
<asrwt>0</asrwt>
<pdfrwt beam="2">  1        4 0.69389660E-02 0.12499972E+03</pdfrwt>
<pdfrwt beam="1">  1       -4 0.13324061E-01 0.12499972E+03</pdfrwt>
<totfact> 0.10307965E+04</totfact>
</mgrwt>
</event>
<event>
 5    1  0.3206158E-002  0.1249985E+03  0.7818608E-02  0.1235072E+00
         -4   -1    0    0    0  501 -0.00000000000E+00  0.00000000000E+00  0.12548298432E+02  0.12612402370E+02  0.12700000000E+01 0. -1.
          4   -1    0    0  501    0  0.00000000000E+00 -0.00000000000E+00 -0.31043144411E+03  0.31043404193E+03  0.12700000000E+01 0. -1.
         25    2    1    2    0    0  0.00000000000E+00  0.00000000000E+00 -0.29788314567E+03  0.32304644430E+03  0.12499854679E+03 0.  0.
    9000005    1    3    3    0    0 -0.13298558428E+02 -0.17417196707E+02  0.23055220385E+01  0.22057330511E+02  0.10000000000E+01 0.  0.
    9000005    1    3    3    0    0  0.13298558428E+02  0.17417196707E+02 -0.30018866771E+03  0.30098911379E+03  0.10000000000E+01 0.  0.
<mgrwt>
<rscale>  0 0.12499855E+03</rscale>
<asrwt>0</asrwt>
<pdfrwt beam="2">  1        4 0.47763809E-01 0.12499855E+03</pdfrwt>
<pdfrwt beam="1">  1       -4 0.19356386E-02 0.12499855E+03</pdfrwt>
<totfact> 0.72797597E+03</totfact>
</mgrwt>
</event>
<event>
 5    1  0.3206158E-002  0.1249933E+03  0.7818608E-02  0.1235080E+00
         -4   -1    0    0    0  501 -0.00000000000E+00  0.00000000000E+00  0.12486609721E+03  0.12487255556E+03  0.12700000000E+01 0.  1.
          4   -1    0    0  501    0  0.00000000000E+00 -0.00000000000E+00 -0.31259988123E+02  0.31285775641E+02  0.12700000000E+01 0.  1.
         25    2    1    2    0    0  0.00000000000E+00  0.00000000000E+00  0.93606109090E+02  0.15615833121E+03  0.12499328280E+03 0.  0.
    9000005    1    3    3    0    0  0.39654776471E+02  0.47937017035E+02  0.54127527568E+02  0.82469680124E+02  0.10000000000E+01 0.  0.
    9000005    1    3    3    0    0 -0.39654776471E+02 -0.47937017035E+02  0.39478581523E+02  0.73688651082E+02  0.10000000000E+01 0.  0.
<mgrwt>
<rscale>  0 0.12499328E+03</rscale>
<asrwt>0</asrwt>
<pdfrwt beam="2">  1        4 0.48117093E-02 0.12499328E+03</pdfrwt>
<pdfrwt beam="1">  1       -4 0.19212649E-01 0.12499328E+03</pdfrwt>
<totfact> 0.98103400E+03</totfact>
</mgrwt>
</event>
<event>
 5    1  0.3206158E-002  0.1249991E+03  0.7818608E-02  0.1235071E+00
         -4   -1    0    0    0  501 -0.00000000000E+00  0.00000000000E+00  0.13433299970E+02  0.13493200068E+02  0.12700000000E+01 0.  1.
          4   -1    0    0  501    0  0.00000000000E+00 -0.00000000000E+00 -0.29007605061E+03  0.29007883073E+03  0.12700000000E+01 0.  1.
         25    2    1    2    0    0  0.00000000000E+00  0.00000000000E+00 -0.27664275064E+03  0.30357203079E+03  0.12499906560E+03 0.  0.
    9000005    1    3    3    0    0 -0.29287203054E+02 -0.34681129649E+02 -0.24262860247E+03  0.24684035276E+03  0.10000000000E+01 0.  0.
    9000005    1    3    3    0    0  0.29287203054E+02  0.34681129649E+02 -0.34014148166E+02  0.56731678029E+02  0.10000000000E+01 0.  0.
<mgrwt>
<rscale>  0 0.12499907E+03</rscale>
<asrwt>0</asrwt>
<pdfrwt beam="2">  1        4 0.44631902E-01 0.12499907E+03</pdfrwt>
<pdfrwt beam="1">  1       -4 0.20714833E-02 0.12499907E+03</pdfrwt>
<totfact> 0.75154504E+03</totfact>
</mgrwt>
</event>
<event>
 5    1  0.3206158E-002  0.1250078E+03  0.7818608E-02  0.1235057E+00
          4   -1    0    0  501    0  0.00000000000E+00  0.00000000000E+00  0.29325106475E+02  0.29352593918E+02  0.12700000000E+01 0. -1.
         -4   -1    0    0    0  501 -0.00000000000E+00 -0.00000000000E+00 -0.13312874504E+03  0.13313480257E+03  0.12700000000E+01 0. -1.
         25    2    1    2    0    0  0.00000000000E+00  0.00000000000E+00 -0.10380363857E+03  0.16248739649E+03  0.12500783431E+03 0.  0.
    9000005    1    3    3    0    0  0.21744807744E+01 -0.13923399331E+02  0.27239364583E+02  0.30685051710E+02  0.10000000000E+01 0.  0.
    9000005    1    3    3    0    0 -0.21744807744E+01  0.13923399331E+02 -0.13104300315E+03  0.13180234478E+03  0.10000000000E+01 0.  0.
<mgrwt>
<rscale>  0 0.12500783E+03</rscale>
<asrwt>0</asrwt>
<pdfrwt beam="1">  1        4 0.45141353E-02 0.12500783E+03</pdfrwt>
<pdfrwt beam="2">  1       -4 0.20483925E-01 0.12500783E+03</pdfrwt>
<totfact> 0.96848316E+03</totfact>
</mgrwt>
</event>
<event>
 5    1  0.3206158E-002  0.1249979E+03  0.7818608E-02  0.1235072E+00
         -4   -1    0    0    0  501 -0.00000000000E+00  0.00000000000E+00  0.17446304354E+03  0.17446766595E+03  0.12700000000E+01 0.  1.
          4   -1    0    0  501    0  0.00000000000E+00 -0.00000000000E+00 -0.22366458275E+02  0.22402485482E+02  0.12700000000E+01 0.  1.
         25    2    1    2    0    0  0.00000000000E+00  0.00000000000E+00  0.15209658527E+03  0.19687015143E+03  0.12499794108E+03 0.  0.
    9000005    1    3    3    0    0  0.41710425497E+02  0.67093996926E+01  0.14857205907E+03  0.15446498754E+03  0.10000000000E+01 0.  0.
    9000005    1    3    3    0    0 -0.41710425497E+02 -0.67093996926E+01  0.35245261919E+01  0.42405163886E+02  0.10000000000E+01 0.  0.
<mgrwt>
<rscale>  0 0.12499794E+03</rscale>
<asrwt>0</asrwt>
<pdfrwt beam="2">  1        4 0.34441206E-02 0.12499794E+03</pdfrwt>
<pdfrwt beam="1">  1       -4 0.26843594E-01 0.12499794E+03</pdfrwt>
<totfact> 0.90669660E+03</totfact>
</mgrwt>
</event>
<event>
 5    1  0.3206158E-002  0.1250064E+03  0.7818608E-02  0.1235059E+00
         -4   -1    0    0    0  501 -0.00000000000E+00  0.00000000000E+00  0.57008231409E+01  0.58405722736E+01  0.12700000000E+01 0.  1.
          4   -1    0    0  501    0  0.00000000000E+00 -0.00000000000E+00 -0.67683990129E+03  0.67684109278E+03  0.12700000000E+01 0.  1.
         25    2    1    2    0    0  0.00000000000E+00  0.00000000000E+00 -0.67113907815E+03  0.68268166505E+03  0.12500637417E+03 0.  0.
    9000005    1    3    3    0    0  0.45603160644E+02  0.85226217928E+01 -0.56424641664E+03  0.56615130666E+03  0.10000000000E+01 0.  0.
    9000005    1    3    3    0    0 -0.45603160644E+02 -0.85226217928E+01 -0.10689266151E+03  0.11653035839E+03  0.10000000000E+01 0.  0.
<mgrwt>
<rscale>  0 0.12500637E+03</rscale>
<asrwt>0</asrwt>
<pdfrwt beam="2">  1        4 0.10413999E+00 0.12500637E+03</pdfrwt>
<pdfrwt beam="1">  1       -4 0.88789184E-03 0.12500637E+03</pdfrwt>
<totfact> 0.44010693E+03</totfact>
</mgrwt>
</event>
<event>
 5    1  0.3206158E-002  0.1250106E+03  0.7818608E-02  0.1235053E+00
         -4   -1    0    0    0  501 -0.00000000000E+00  0.00000000000E+00  0.16977317532E+03  0.16977792541E+03  0.12700000000E+01 0. -1.
          4   -1    0    0  501    0  0.00000000000E+00 -0.00000000000E+00 -0.22989934881E+02  0.23024986554E+02  0.12700000000E+01 0. -1.
         25    2    1    2    0    0  0.00000000000E+00  0.00000000000E+00  0.14678324044E+03  0.19280291197E+03  0.12501057231E+03 0.  0.
    9000005    1    3    3    0    0 -0.60013602082E+01 -0.40391697469E+02  0.14636025204E+03  0.15195337748E+03  0.10000000000E+01 0.  0.
    9000005    1    3    3    0    0  0.60013602082E+01  0.40391697469E+02  0.42298839345E+00  0.40849534489E+02  0.10000000000E+01 0.  0.
<mgrwt>
<rscale>  0 0.12501057E+03</rscale>
<asrwt>0</asrwt>
<pdfrwt beam="2">  1        4 0.35399747E-02 0.12501057E+03</pdfrwt>
<pdfrwt beam="1">  1       -4 0.26122012E-01 0.12501057E+03</pdfrwt>
<totfact> 0.91340264E+03</totfact>
</mgrwt>
</event>
<event>
 5    1  0.3206158E-002  0.1250052E+03  0.7818608E-02  0.1235061E+00
         -4   -1    0    0    0  501 -0.00000000000E+00  0.00000000000E+00  0.70704251481E+01  0.71835793150E+01  0.12700000000E+01 0.  1.
          4   -1    0    0  501    0  0.00000000000E+00 -0.00000000000E+00 -0.54802345626E+03  0.54802492782E+03  0.12700000000E+01 0.  1.
         25    2    1    2    0    0  0.00000000000E+00  0.00000000000E+00 -0.54095303111E+03  0.55520850713E+03  0.12500521799E+03 0.  0.
    9000005    1    3    3    0    0  0.35459860771E+02  0.49641310545E+02 -0.21024328135E+03  0.21891756163E+03  0.10000000000E+01 0.  0.
    9000005    1    3    3    0    0 -0.35459860771E+02 -0.49641310545E+02 -0.33070974976E+03  0.33629094550E+03  0.10000000000E+01 0.  0.
<mgrwt>
<rscale>  0 0.12500522E+03</rscale>
<asrwt>0</asrwt>
<pdfrwt beam="2">  1        4 0.84320085E-01 0.12500522E+03</pdfrwt>
<pdfrwt beam="1">  1       -4 0.10965755E-02 0.12500522E+03</pdfrwt>
<totfact> 0.51816890E+03</totfact>
</mgrwt>
</event>
<event>
 5    1  0.3206158E-002  0.1249984E+03  0.7818608E-02  0.1235072E+00
          4   -1    0    0  501    0  0.00000000000E+00  0.00000000000E+00  0.21112254348E+03  0.21112636326E+03  0.12700000000E+01 0. -1.
         -4   -1    0    0    0  501 -0.00000000000E+00 -0.00000000000E+00 -0.18476034386E+02  0.18519631385E+02  0.12700000000E+01 0. -1.
         25    2    1    2    0    0  0.00000000000E+00  0.00000000000E+00  0.19264650909E+03  0.22964599465E+03  0.12499842156E+03 0.  0.
    9000005    1    3    3    0    0  0.38697832026E+02  0.48888040785E+02  0.10402821014E+03  0.12128656661E+03  0.10000000000E+01 0.  0.
    9000005    1    3    3    0    0 -0.38697832026E+02 -0.48888040785E+02  0.88618298956E+02  0.10835942804E+03  0.10000000000E+01 0.  0.
<mgrwt>
<rscale>  0 0.12499842E+03</rscale>
<asrwt>0</asrwt>
<pdfrwt beam="1">  1        4 0.32484039E-01 0.12499842E+03</pdfrwt>
<pdfrwt beam="2">  1       -4 0.28461142E-02 0.12499842E+03</pdfrwt>
<totfact> 0.85366990E+03</totfact>
</mgrwt>
</event>
<event>
 5    1  0.3206158E-002  0.1249990E+03  0.7818608E-02  0.1235071E+00
          4   -1    0    0  501    0  0.00000000000E+00  0.00000000000E+00  0.18881671493E+02  0.18924334027E+02  0.12700000000E+01 0. -1.
         -4   -1    0    0    0  501 -0.00000000000E+00 -0.00000000000E+00 -0.20659900062E+03  0.20660290404E+03  0.12700000000E+01 0. -1.
         25    2    1    2    0    0  0.00000000000E+00  0.00000000000E+00 -0.18771732912E+03  0.22552723806E+03  0.12499895781E+03 0.  0.
    9000005    1    3    3    0    0  0.38297049378E+01  0.44112594331E+01  0.18396803570E+02  0.19327913268E+02  0.10000000000E+01 0.  0.
    9000005    1    3    3    0    0 -0.38297049378E+01 -0.44112594331E+01 -0.20611413269E+03  0.20619932480E+03  0.10000000000E+01 0.  0.
<mgrwt>
<rscale>  0 0.12499896E+03</rscale>
<asrwt>0</asrwt>
<pdfrwt beam="1">  1        4 0.29084547E-02 0.12499896E+03</pdfrwt>
<pdfrwt beam="2">  1       -4 0.31788042E-01 0.12499896E+03</pdfrwt>
<totfact> 0.86003161E+03</totfact>
</mgrwt>
</event>
<event>
 5    1  0.3206158E-002  0.1250012E+03  0.7818608E-02  0.1235067E+00
          4   -1    0    0  501    0  0.00000000000E+00  0.00000000000E+00  0.19784772726E+02  0.19825491969E+02  0.12700000000E+01 0.  1.
         -4   -1    0    0    0  501 -0.00000000000E+00 -0.00000000000E+00 -0.19719519001E+03  0.19719927957E+03  0.12700000000E+01 0.  1.
         25    2    1    2    0    0  0.00000000000E+00  0.00000000000E+00 -0.17741041728E+03  0.21702477154E+03  0.12500118120E+03 0.  0.
    9000005    1    3    3    0    0  0.41801239802E+02  0.26759578699E+02 -0.22778175286E+02  0.54619263731E+02  0.10000000000E+01 0.  0.
    9000005    1    3    3    0    0 -0.41801239802E+02 -0.26759578699E+02 -0.15463224200E+03  0.16240550781E+03  0.10000000000E+01 0.  0.
<mgrwt>
<rscale>  0 0.12500118E+03</rscale>
<asrwt>0</asrwt>
<pdfrwt beam="1">  1        4 0.30472582E-02 0.12500118E+03</pdfrwt>
<pdfrwt beam="2">  1       -4 0.30341167E-01 0.12500118E+03</pdfrwt>
<totfact> 0.87339036E+03</totfact>
</mgrwt>
</event>
<event>
 5    1  0.3206158E-002  0.1249998E+03  0.7818608E-02  0.1235070E+00
          4   -1    0    0  501    0  0.00000000000E+00  0.00000000000E+00  0.11000945246E+03  0.11001678295E+03  0.12700000000E+01 0. -1.
         -4   -1    0    0    0  501 -0.00000000000E+00 -0.00000000000E+00 -0.35488311189E+02  0.35511028302E+02  0.12700000000E+01 0. -1.
         25    2    1    2    0    0  0.00000000000E+00  0.00000000000E+00  0.74521141268E+02  0.14552781125E+03  0.12499977340E+03 0.  0.
    9000005    1    3    3    0    0  0.46445258575E+01  0.61926894257E+02  0.29133983952E+02  0.68602484457E+02  0.10000000000E+01 0.  0.
    9000005    1    3    3    0    0 -0.46445258575E+01 -0.61926894257E+02  0.45387157316E+02  0.76925326791E+02  0.10000000000E+01 0.  0.
<mgrwt>
<rscale>  0 0.12499977E+03</rscale>
<asrwt>0</asrwt>
<pdfrwt beam="1">  1        4 0.16926843E-01 0.12499977E+03</pdfrwt>
<pdfrwt beam="2">  1       -4 0.54620515E-02 0.12499977E+03</pdfrwt>
<totfact> 0.10020327E+04</totfact>
</mgrwt>
</event>
<event>
 5    1  0.3206158E-002  0.1250039E+03  0.7818608E-02  0.1235063E+00
         -4   -1    0    0    0  501 -0.00000000000E+00  0.00000000000E+00  0.15036500208E+04  0.15036505572E+04  0.12700000000E+01 0.  1.
          4   -1    0    0  501    0  0.00000000000E+00 -0.00000000000E+00 -0.24422321928E+01  0.27527074097E+01  0.12700000000E+01 0.  1.
         25    2    1    2    0    0  0.00000000000E+00  0.00000000000E+00  0.15012077886E+04  0.15064032646E+04  0.12500388328E+03 0.  0.
    9000005    1    3    3    0    0  0.46463353362E+02 -0.31867957842E+02  0.42476643053E+03  0.42848795835E+03  0.10000000000E+01 0.  0.
    9000005    1    3    3    0    0 -0.46463353362E+02  0.31867957842E+02  0.10764413581E+04  0.10779153062E+04  0.10000000000E+01 0.  0.
<mgrwt>
<rscale>  0 0.12500388E+03</rscale>
<asrwt>0</asrwt>
<pdfrwt beam="2">  1        4 0.39965079E-03 0.12500388E+03</pdfrwt>
<pdfrwt beam="1">  1       -4 0.23135540E+00 0.12500388E+03</pdfrwt>
<totfact> 0.17803290E+03</totfact>
</mgrwt>
</event>
<event>
 5    1  0.3206158E-002  0.1250375E+03  0.7818608E-02  0.1235011E+00
          4   -1    0    0  501    0  0.00000000000E+00  0.00000000000E+00  0.18161419439E+03  0.18161863480E+03  0.12700000000E+01 0.  1.
         -4   -1    0    0    0  501 -0.00000000000E+00 -0.00000000000E+00 -0.21497986391E+02  0.21535466535E+02  0.12700000000E+01 0.  1.
         25    2    1    2    0    0  0.00000000000E+00  0.00000000000E+00  0.16011620800E+03  0.20315410133E+03  0.12503754965E+03 0.  0.
    9000005    1    3    3    0    0  0.28213106802E+02 -0.54336407598E+02  0.10055647372E+03  0.11773287134E+03  0.10000000000E+01 0.  0.
    9000005    1    3    3    0    0 -0.28213106802E+02  0.54336407598E+02  0.59559734279E+02  0.85421229992E+02  0.10000000000E+01 0.  0.
<mgrwt>
<rscale>  0 0.12503755E+03</rscale>
<asrwt>0</asrwt>
<pdfrwt beam="1">  1        4 0.27943871E-01 0.12503755E+03</pdfrwt>
<pdfrwt beam="2">  1       -4 0.33106071E-02 0.12503755E+03</pdfrwt>
<totfact> 0.89531025E+03</totfact>
</mgrwt>
</event>
<event>
 5    1  0.3206158E-002  0.1250154E+03  0.7818608E-02  0.1235045E+00
         -4   -1    0    0    0  501 -0.00000000000E+00  0.00000000000E+00  0.28323448526E+01  0.31040421009E+01  0.12700000000E+01 0. -1.
          4   -1    0    0  501    0  0.00000000000E+00 -0.00000000000E+00 -0.13160891623E+04  0.13160897751E+04  0.12700000000E+01 0. -1.
         25    2    1    2    0    0  0.00000000000E+00  0.00000000000E+00 -0.13132568175E+04  0.13191938172E+04  0.12501543373E+03 0.  0.
    9000005    1    3    3    0    0 -0.44220307397E+02  0.36031807659E+02 -0.38708345081E+03  0.39126503120E+03  0.10000000000E+01 0.  0.
    9000005    1    3    3    0    0  0.44220307397E+02 -0.36031807659E+02 -0.92617336668E+03  0.92792878600E+03  0.10000000000E+01 0.  0.
<mgrwt>
<rscale>  0 0.12501543E+03</rscale>
<asrwt>0</asrwt>
<pdfrwt beam="2">  1        4 0.20249574E+00 0.12501543E+03</pdfrwt>
<pdfrwt beam="1">  1       -4 0.45669334E-03 0.12501543E+03</pdfrwt>
<totfact> 0.21772730E+03</totfact>
</mgrwt>
</event>
<event>
 5    1  0.3206158E-002  0.1249995E+03  0.7818608E-02  0.1235070E+00
         -4   -1    0    0    0  501 -0.00000000000E+00  0.00000000000E+00  0.14856006557E+03  0.14856549391E+03  0.12700000000E+01 0. -1.
          4   -1    0    0  501    0  0.00000000000E+00 -0.00000000000E+00 -0.26272628991E+02  0.26303306524E+02  0.12700000000E+01 0. -1.
         25    2    1    2    0    0  0.00000000000E+00  0.00000000000E+00  0.12228743658E+03  0.17486880043E+03  0.12499952088E+03 0.  0.
    9000005    1    3    3    0    0 -0.25854017833E+01 -0.41306599067E+02 -0.43582026469E+01  0.41628275957E+02  0.10000000000E+01 0.  0.
    9000005    1    3    3    0    0  0.25854017833E+01  0.41306599067E+02  0.12664563922E+03  0.13324052448E+03  0.10000000000E+01 0.  0.
<mgrwt>
<rscale>  0 0.12499952E+03</rscale>
<asrwt>0</asrwt>
<pdfrwt beam="2">  1        4 0.40447203E-02 0.12499952E+03</pdfrwt>
<pdfrwt beam="1">  1       -4 0.22858172E-01 0.12499952E+03</pdfrwt>
<totfact> 0.94549891E+03</totfact>
</mgrwt>
</event>
<event>
 5    1  0.3206158E-002  0.1249995E+03  0.7818608E-02  0.1235070E+00
         -4   -1    0    0    0  501 -0.00000000000E+00  0.00000000000E+00  0.16973909534E+02  0.17021354379E+02  0.12700000000E+01 0.  1.
          4   -1    0    0  501    0  0.00000000000E+00 -0.00000000000E+00 -0.22976051404E+03  0.22976402398E+03  0.12700000000E+01 0.  1.
         25    2    1    2    0    0  0.00000000000E+00  0.00000000000E+00 -0.21278660451E+03  0.24678537836E+03  0.12499953564E+03 0.  0.
    9000005    1    3    3    0    0 -0.41911867584E+02 -0.44643887317E+02 -0.81770833451E+02  0.10216237332E+03  0.10000000000E+01 0.  0.
    9000005    1    3    3    0    0  0.41911867584E+02  0.44643887317E+02 -0.13101577106E+03  0.14462300503E+03  0.10000000000E+01 0.  0.
<mgrwt>
<rscale>  0 0.12499954E+03</rscale>
<asrwt>0</asrwt>
<pdfrwt beam="2">  1        4 0.35351689E-01 0.12499954E+03</pdfrwt>
<pdfrwt beam="1">  1       -4 0.26152905E-02 0.12499954E+03</pdfrwt>
<totfact> 0.82797929E+03</totfact>
</mgrwt>
</event>
<event>
 5    1  0.3206158E-002  0.1249992E+03  0.7818608E-02  0.1235071E+00
          4   -1    0    0  501    0  0.00000000000E+00  0.00000000000E+00  0.11524985015E+02  0.11594747932E+02  0.12700000000E+01 0. -1.
         -4   -1    0    0    0  501 -0.00000000000E+00 -0.00000000000E+00 -0.33783938873E+03  0.33784177581E+03  0.12700000000E+01 0. -1.
         25    2    1    2    0    0  0.00000000000E+00  0.00000000000E+00 -0.32631440372E+03  0.34943652374E+03  0.12499917619E+03 0.  0.
    9000005    1    3    3    0    0  0.89859305114E+01  0.34543459457E+02 -0.30655357137E+03  0.30862613249E+03  0.10000000000E+01 0.  0.
    9000005    1    3    3    0    0 -0.89859305114E+01 -0.34543459457E+02 -0.19760832350E+02  0.40810391246E+02  0.10000000000E+01 0.  0.
<mgrwt>
<rscale>  0 0.12499918E+03</rscale>
<asrwt>0</asrwt>
<pdfrwt beam="1">  1        4 0.17786249E-02 0.12499918E+03</pdfrwt>
<pdfrwt beam="2">  1       -4 0.51980833E-01 0.12499918E+03</pdfrwt>
<totfact> 0.69787865E+03</totfact>
</mgrwt>
</event>
<event>
 5    1  0.3206158E-002  0.1249995E+03  0.7818608E-02  0.1235070E+00
         -4   -1    0    0    0  501 -0.00000000000E+00  0.00000000000E+00  0.46651598346E+03  0.46651771213E+03  0.12700000000E+01 0.  1.
          4   -1    0    0  501    0  0.00000000000E+00 -0.00000000000E+00 -0.83232640563E+01  0.84195976478E+01  0.12700000000E+01 0.  1.
         25    2    1    2    0    0  0.00000000000E+00  0.00000000000E+00  0.45819271941E+03  0.47493730977E+03  0.12499952039E+03 0.  0.
    9000005    1    3    3    0    0 -0.20224611116E+02 -0.51788221912E+01  0.53000436209E+01  0.21562596236E+02  0.10000000000E+01 0.  0.
    9000005    1    3    3    0    0  0.20224611116E+02  0.51788221912E+01  0.45289267579E+03  0.45337471354E+03  0.10000000000E+01 0.  0.
<mgrwt>
<rscale>  0 0.12499952E+03</rscale>
<asrwt>0</asrwt>
<pdfrwt beam="2">  1        4 0.12880450E-02 0.12499952E+03</pdfrwt>
<pdfrwt beam="1">  1       -4 0.71779256E-01 0.12499952E+03</pdfrwt>
<totfact> 0.57863342E+03</totfact>
</mgrwt>
</event>
<event>
 5    1  0.3206158E-002  0.1250145E+03  0.7818608E-02  0.1235047E+00
          4   -1    0    0  501    0  0.00000000000E+00  0.00000000000E+00  0.40196735882E+03  0.40196936508E+03  0.12700000000E+01 0. -1.
         -4   -1    0    0    0  501 -0.00000000000E+00 -0.00000000000E+00 -0.96765624800E+01  0.97595471939E+01  0.12700000000E+01 0. -1.
         25    2    1    2    0    0  0.00000000000E+00  0.00000000000E+00  0.39229079634E+03  0.41172891227E+03  0.12501451237E+03 0.  0.
    9000005    1    3    3    0    0  0.64517227692E+01  0.62155650236E+02  0.19976443677E+03  0.20931263646E+03  0.10000000000E+01 0.  0.
    9000005    1    3    3    0    0 -0.64517227692E+01 -0.62155650236E+02  0.19252635957E+03  0.20241627581E+03  0.10000000000E+01 0.  0.
<mgrwt>
<rscale>  0 0.12501451E+03</rscale>
<asrwt>0</asrwt>
<pdfrwt beam="1">  1        4 0.61847682E-01 0.12501451E+03</pdfrwt>
<pdfrwt beam="2">  1       -4 0.14952394E-02 0.12501451E+03</pdfrwt>
<totfact> 0.63407498E+03</totfact>
</mgrwt>
</event>
<event>
 5    1  0.3206158E-002  0.1250050E+03  0.7818608E-02  0.1235061E+00
          4   -1    0    0  501    0  0.00000000000E+00  0.00000000000E+00  0.19677323043E+02  0.19718264177E+02  0.12700000000E+01 0. -1.
         -4   -1    0    0    0  501 -0.00000000000E+00 -0.00000000000E+00 -0.19828183747E+03  0.19828590462E+03  0.12700000000E+01 0. -1.
         25    2    1    2    0    0  0.00000000000E+00  0.00000000000E+00 -0.17860451442E+03  0.21800416879E+03  0.12500498005E+03 0.  0.
    9000005    1    3    3    0    0 -0.24240039793E+02  0.55267958463E+02 -0.11760795117E+03  0.13219212132E+03  0.10000000000E+01 0.  0.
    9000005    1    3    3    0    0  0.24240039793E+02 -0.55267958463E+02 -0.60996563256E+02  0.85812047470E+02  0.10000000000E+01 0.  0.
<mgrwt>
<rscale>  0 0.12500498E+03</rscale>
<asrwt>0</asrwt>
<pdfrwt beam="1">  1        4 0.30307428E-02 0.12500498E+03</pdfrwt>
<pdfrwt beam="2">  1       -4 0.30508359E-01 0.12500498E+03</pdfrwt>
<totfact> 0.87175454E+03</totfact>
</mgrwt>
</event>
<event>
 5    1  0.3206158E-002  0.1249984E+03  0.7818608E-02  0.1235072E+00
          4   -1    0    0  501    0  0.00000000000E+00  0.00000000000E+00  0.84669019932E+02  0.84678544132E+02  0.12700000000E+01 0. -1.
         -4   -1    0    0    0  501 -0.00000000000E+00 -0.00000000000E+00 -0.46113459631E+02  0.46130944702E+02  0.12700000000E+01 0. -1.
         25    2    1    2    0    0  0.00000000000E+00  0.00000000000E+00  0.38555560302E+02  0.13080948883E+03  0.12499836454E+03 0.  0.
    9000005    1    3    3    0    0  0.41095358988E+02  0.31872178945E+02  0.55536545250E+02  0.76091866710E+02  0.10000000000E+01 0.  0.
    9000005    1    3    3    0    0 -0.41095358988E+02 -0.31872178945E+02 -0.16980984948E+02  0.54717622124E+02  0.10000000000E+01 0.  0.
<mgrwt>
<rscale>  0 0.12499836E+03</rscale>
<asrwt>0</asrwt>
<pdfrwt beam="1">  1        4 0.13028081E-01 0.12499836E+03</pdfrwt>
<pdfrwt beam="2">  1       -4 0.70964561E-02 0.12499836E+03</pdfrwt>
<totfact> 0.10327556E+04</totfact>
</mgrwt>
</event>
<event>
 5    1  0.3206158E-002  0.1249946E+03  0.7818608E-02  0.1235078E+00
         -4   -1    0    0    0  501 -0.00000000000E+00  0.00000000000E+00  0.20413049481E+03  0.20413444543E+03  0.12700000000E+01 0. -1.
          4   -1    0    0  501    0  0.00000000000E+00 -0.00000000000E+00 -0.19109161385E+02  0.19151317156E+02  0.12700000000E+01 0. -1.
         25    2    1    2    0    0  0.00000000000E+00  0.00000000000E+00  0.18502133342E+03  0.22328576259E+03  0.12499455169E+03 0.  0.
    9000005    1    3    3    0    0  0.11552180777E+02 -0.23480404510E+02  0.19387997036E+03  0.19564055097E+03  0.10000000000E+01 0.  0.
    9000005    1    3    3    0    0 -0.11552180777E+02  0.23480404510E+02 -0.88586369399E+01  0.27645211613E+02  0.10000000000E+01 0.  0.
<mgrwt>
<rscale>  0 0.12499455E+03</rscale>
<asrwt>0</asrwt>
<pdfrwt beam="2">  1        4 0.29434178E-02 0.12499455E+03</pdfrwt>
<pdfrwt beam="1">  1       -4 0.31408236E-01 0.12499455E+03</pdfrwt>
<totfact> 0.86361584E+03</totfact>
</mgrwt>
</event>
<event>
 5    1  0.3206158E-002  0.1249985E+03  0.7818608E-02  0.1235072E+00
          4   -1    0    0  501    0  0.00000000000E+00  0.00000000000E+00  0.35666967299E+01  0.37860567301E+01  0.12700000000E+01 0.  1.
         -4   -1    0    0    0  501 -0.00000000000E+00 -0.00000000000E+00 -0.10622811829E+04  0.10622819421E+04  0.12700000000E+01 0.  1.
         25    2    1    2    0    0  0.00000000000E+00  0.00000000000E+00 -0.10587144862E+04  0.10660679988E+04  0.12499845933E+03 0.  0.
    9000005    1    3    3    0    0 -0.10536172950E+02 -0.28536770343E+02 -0.99491490371E+03  0.99538034129E+03  0.10000000000E+01 0.  0.
    9000005    1    3    3    0    0  0.10536172950E+02  0.28536770343E+02 -0.63799582470E+02  0.70687657518E+02  0.10000000000E+01 0.  0.
<mgrwt>
<rscale>  0 0.12499846E+03</rscale>
<asrwt>0</asrwt>
<pdfrwt beam="1">  1        4 0.56565567E-03 0.12499846E+03</pdfrwt>
<pdfrwt beam="2">  1       -4 0.16344456E+00 0.12499846E+03</pdfrwt>
<totfact> 0.28499328E+03</totfact>
</mgrwt>
</event>
<event>
 5    1  0.3206158E-002  0.1249975E+03  0.7818608E-02  0.1235073E+00
          4   -1    0    0  501    0  0.00000000000E+00  0.00000000000E+00  0.64638599062E+02  0.64651074150E+02  0.12700000000E+01 0.  1.
         -4   -1    0    0    0  501 -0.00000000000E+00 -0.00000000000E+00 -0.60404786458E+02  0.60418135746E+02  0.12700000000E+01 0.  1.
         25    2    1    2    0    0  0.00000000000E+00  0.00000000000E+00  0.42338126046E+01  0.12506920990E+03  0.12499752836E+03 0.  0.
    9000005    1    3    3    0    0  0.49161651883E+02  0.38165370562E+02 -0.35105520702E+01  0.62344105590E+02  0.10000000000E+01 0.  0.
    9000005    1    3    3    0    0 -0.49161651883E+02 -0.38165370562E+02  0.77443646748E+01  0.62725104306E+02  0.10000000000E+01 0.  0.
<mgrwt>
<rscale>  0 0.12499753E+03</rscale>
<asrwt>0</asrwt>
<pdfrwt beam="1">  1        4 0.99463863E-02 0.12499753E+03</pdfrwt>
<pdfrwt beam="2">  1       -4 0.92950306E-02 0.12499753E+03</pdfrwt>
<totfact> 0.10451943E+04</totfact>
</mgrwt>
</event>
<event>
 5    1  0.3206158E-002  0.1250010E+03  0.7818608E-02  0.1235068E+00
          4   -1    0    0  501    0  0.00000000000E+00  0.00000000000E+00  0.21511830681E+02  0.21549286746E+02  0.12700000000E+01 0. -1.
         -4   -1    0    0    0  501 -0.00000000000E+00 -0.00000000000E+00 -0.18139154237E+03  0.18139598822E+03  0.12700000000E+01 0. -1.
         25    2    1    2    0    0  0.00000000000E+00  0.00000000000E+00 -0.15987971168E+03  0.20294527496E+03  0.12500104968E+03 0.  0.
    9000005    1    3    3    0    0 -0.37629987509E+02  0.44414545619E+02 -0.11684293200E+03  0.13054477616E+03  0.10000000000E+01 0.  0.
    9000005    1    3    3    0    0  0.37629987509E+02 -0.44414545619E+02 -0.43036779679E+02  0.72400498808E+02  0.10000000000E+01 0.  0.
<mgrwt>
<rscale>  0 0.12500105E+03</rscale>
<asrwt>0</asrwt>
<pdfrwt beam="1">  1        4 0.33127358E-02 0.12500105E+03</pdfrwt>
<pdfrwt beam="2">  1       -4 0.27909613E-01 0.12500105E+03</pdfrwt>
<totfact> 0.89639024E+03</totfact>
</mgrwt>
</event>
<event>
 5    1  0.3206158E-002  0.1249887E+03  0.7818608E-02  0.1235087E+00
          4   -1    0    0  501    0  0.00000000000E+00  0.00000000000E+00  0.15219760216E+03  0.15220290077E+03  0.12700000000E+01 0. -1.
         -4   -1    0    0    0  501 -0.00000000000E+00 -0.00000000000E+00 -0.25639563215E+02  0.25670997290E+02  0.12700000000E+01 0. -1.
         25    2    1    2    0    0  0.00000000000E+00  0.00000000000E+00  0.12655803894E+03  0.17787389806E+03  0.12498874505E+03 0.  0.
    9000005    1    3    3    0    0 -0.57470017680E+02 -0.62799174245E+00  0.98177355250E+02  0.11376726414E+03  0.10000000000E+01 0.  0.
    9000005    1    3    3    0    0  0.57470017680E+02  0.62799174245E+00  0.28380683694E+02  0.64106633921E+02  0.10000000000E+01 0.  0.
<mgrwt>
<rscale>  0 0.12498875E+03</rscale>
<asrwt>0</asrwt>
<pdfrwt beam="1">  1        4 0.23417841E-01 0.12498875E+03</pdfrwt>
<pdfrwt beam="2">  1       -4 0.39473738E-02 0.12498875E+03</pdfrwt>
<totfact> 0.94024845E+03</totfact>
</mgrwt>
</event>
<event>
 5    1  0.3206158E-002  0.1249985E+03  0.7818608E-02  0.1235072E+00
          4   -1    0    0  501    0  0.00000000000E+00  0.00000000000E+00  0.52968211214E+03  0.52968363466E+03  0.12700000000E+01 0.  1.
         -4   -1    0    0    0  501 -0.00000000000E+00 -0.00000000000E+00 -0.73183064209E+01  0.74276852969E+01  0.12700000000E+01 0.  1.
         25    2    1    2    0    0  0.00000000000E+00  0.00000000000E+00  0.52236380572E+03  0.53711131996E+03  0.12499849797E+03 0.  0.
    9000005    1    3    3    0    0  0.93364485427E+01  0.22350405031E+02  0.13652436966E+02  0.27822633081E+02  0.10000000000E+01 0.  0.
    9000005    1    3    3    0    0 -0.93364485427E+01 -0.22350405031E+02  0.50871136876E+03  0.50928868687E+03  0.10000000000E+01 0.  0.
<mgrwt>
<rscale>  0 0.12499850E+03</rscale>
<asrwt>0</asrwt>
<pdfrwt beam="1">  1        4 0.81498055E-01 0.12499850E+03</pdfrwt>
<pdfrwt beam="2">  1       -4 0.11344246E-02 0.12499850E+03</pdfrwt>
<totfact> 0.53097495E+03</totfact>
</mgrwt>
</event>
<event>
 5    1  0.3206158E-002  0.1249627E+03  0.7818608E-02  0.1235128E+00
         -4   -1    0    0    0  501 -0.00000000000E+00  0.00000000000E+00  0.11427136741E+03  0.11427842451E+03  0.12700000000E+01 0.  1.
          4   -1    0    0  501    0  0.00000000000E+00 -0.00000000000E+00 -0.34143655737E+02  0.34167266895E+02  0.12700000000E+01 0.  1.
         25    2    1    2    0    0  0.00000000000E+00  0.00000000000E+00  0.80127711671E+02  0.14844569141E+03  0.12496268691E+03 0.  0.
    9000005    1    3    3    0    0 -0.39907995487E+02 -0.41385148999E+00 -0.17031729429E+02  0.43403907476E+02  0.10000000000E+01 0.  0.
    9000005    1    3    3    0    0  0.39907995487E+02  0.41385148999E+00  0.97159441100E+02  0.10504178393E+03  0.10000000000E+01 0.  0.
<mgrwt>
<rscale>  0 0.12496269E+03</rscale>
<asrwt>0</asrwt>
<pdfrwt beam="2">  1        4 0.52552293E-02 0.12496269E+03</pdfrwt>
<pdfrwt beam="1">  1       -4 0.17582569E-01 0.12496269E+03</pdfrwt>
<totfact> 0.99698145E+03</totfact>
</mgrwt>
</event>
<event>
 5    1  0.3206158E-002  0.1250001E+03  0.7818608E-02  0.1235069E+00
         -4   -1    0    0    0  501 -0.00000000000E+00  0.00000000000E+00  0.28756273887E+02  0.28784304540E+02  0.12700000000E+01 0. -1.
          4   -1    0    0  501    0  0.00000000000E+00 -0.00000000000E+00 -0.13574306308E+03  0.13574900395E+03  0.12700000000E+01 0. -1.
         25    2    1    2    0    0  0.00000000000E+00  0.00000000000E+00 -0.10698678919E+03  0.16453330849E+03  0.12500014617E+03 0.  0.
    9000005    1    3    3    0    0  0.18791046393E+01 -0.17359025116E+02 -0.13247359383E+03  0.13362305134E+03  0.10000000000E+01 0.  0.
    9000005    1    3    3    0    0 -0.18791046393E+01  0.17359025116E+02  0.25486804632E+02  0.30910257158E+02  0.10000000000E+01 0.  0.
<mgrwt>
<rscale>  0 0.12500015E+03</rscale>
<asrwt>0</asrwt>
<pdfrwt beam="2">  1        4 0.20886161E-01 0.12500015E+03</pdfrwt>
<pdfrwt beam="1">  1       -4 0.44266554E-02 0.12500015E+03</pdfrwt>
<totfact> 0.96475532E+03</totfact>
</mgrwt>
</event>
<event>
 5    1  0.3206158E-002  0.1250458E+03  0.7818608E-02  0.1234998E+00
         -4   -1    0    0    0  501 -0.00000000000E+00  0.00000000000E+00  0.35092377655E+03  0.35092607462E+03  0.12700000000E+01 0.  1.
          4   -1    0    0  501    0  0.00000000000E+00 -0.00000000000E+00 -0.11100957588E+02  0.11173368309E+02  0.12700000000E+01 0.  1.
         25    2    1    2    0    0  0.00000000000E+00  0.00000000000E+00  0.33982281896E+03  0.36209944292E+03  0.12504582473E+03 0.  0.
    9000005    1    3    3    0    0 -0.32941461681E+02 -0.48395607134E+02  0.23340924226E+03  0.24064112088E+03  0.10000000000E+01 0.  0.
    9000005    1    3    3    0    0  0.32941461681E+02  0.48395607134E+02  0.10641357670E+03  0.12145832204E+03  0.10000000000E+01 0.  0.
<mgrwt>
<rscale>  0 0.12504582E+03</rscale>
<asrwt>0</asrwt>
<pdfrwt beam="2">  1        4 0.17135866E-02 0.12504582E+03</pdfrwt>
<pdfrwt beam="1">  1       -4 0.53994015E-01 0.12504582E+03</pdfrwt>
<totfact> 0.68344375E+03</totfact>
</mgrwt>
</event>
<event>
 5    1  0.3206158E-002  0.1250046E+03  0.7818608E-02  0.1235062E+00
          4   -1    0    0  501    0  0.00000000000E+00  0.00000000000E+00  0.51833651235E+03  0.51833806819E+03  0.12700000000E+01 0. -1.
         -4   -1    0    0    0  501 -0.00000000000E+00 -0.00000000000E+00 -0.74815990889E+01  0.75886247059E+01  0.12700000000E+01 0. -1.
         25    2    1    2    0    0  0.00000000000E+00  0.00000000000E+00  0.51085491326E+03  0.52592669290E+03  0.12500457551E+03 0.  0.
    9000005    1    3    3    0    0  0.51986934243E+02  0.20220543588E+02  0.37398145062E+03  0.37811987137E+03  0.10000000000E+01 0.  0.
    9000005    1    3    3    0    0 -0.51986934243E+02 -0.20220543588E+02  0.13687346264E+03  0.14780682152E+03  0.10000000000E+01 0.  0.
<mgrwt>
<rscale>  0 0.12500458E+03</rscale>
<asrwt>0</asrwt>
<pdfrwt beam="1">  1        4 0.79752417E-01 0.12500458E+03</pdfrwt>
<pdfrwt beam="2">  1       -4 0.11593679E-02 0.12500458E+03</pdfrwt>
<totfact> 0.53902016E+03</totfact>
</mgrwt>
</event>
<event>
 5    1  0.3206158E-002  0.1250003E+03  0.7818608E-02  0.1235069E+00
          4   -1    0    0  501    0  0.00000000000E+00  0.00000000000E+00  0.13775408449E+03  0.13775993864E+03  0.12700000000E+01 0.  1.
         -4   -1    0    0    0  501 -0.00000000000E+00 -0.00000000000E+00 -0.28336152751E+02  0.28364598583E+02  0.12700000000E+01 0.  1.
         25    2    1    2    0    0  0.00000000000E+00  0.00000000000E+00  0.10941793174E+03  0.16612453723E+03  0.12500031233E+03 0.  0.
    9000005    1    3    3    0    0  0.30050877984E+01  0.60426873858E+02  0.33914073698E+02  0.69365712220E+02  0.10000000000E+01 0.  0.
    9000005    1    3    3    0    0 -0.30050877984E+01 -0.60426873858E+02  0.75503858044E+02  0.96758825006E+02  0.10000000000E+01 0.  0.
<mgrwt>
<rscale>  0 0.12500031E+03</rscale>
<asrwt>0</asrwt>
<pdfrwt beam="1">  1        4 0.21195575E-01 0.12500031E+03</pdfrwt>
<pdfrwt beam="2">  1       -4 0.43620465E-02 0.12500031E+03</pdfrwt>
<totfact> 0.96174171E+03</totfact>
</mgrwt>
</event>
<event>
 5    1  0.3206158E-002  0.1249993E+03  0.7818608E-02  0.1235070E+00
          4   -1    0    0  501    0  0.00000000000E+00  0.00000000000E+00  0.81534901700E+02  0.81544791957E+02  0.12700000000E+01 0. -1.
         -4   -1    0    0    0  501 -0.00000000000E+00 -0.00000000000E+00 -0.47887180134E+02  0.47904017798E+02  0.12700000000E+01 0. -1.
         25    2    1    2    0    0  0.00000000000E+00  0.00000000000E+00  0.33647721567E+02  0.12944880975E+03  0.12499930072E+03 0.  0.
    9000005    1    3    3    0    0  0.51132081060E+02  0.35691202086E+02  0.21075443882E+02  0.65829521908E+02  0.10000000000E+01 0.  0.
    9000005    1    3    3    0    0 -0.51132081060E+02 -0.35691202086E+02  0.12572277685E+02  0.63619287846E+02  0.10000000000E+01 0.  0.
<mgrwt>
<rscale>  0 0.12499930E+03</rscale>
<asrwt>0</asrwt>
<pdfrwt beam="1">  1        4 0.12545887E-01 0.12499930E+03</pdfrwt>
<pdfrwt beam="2">  1       -4 0.73693145E-02 0.12499930E+03</pdfrwt>
<totfact> 0.10356476E+04</totfact>
</mgrwt>
</event>
<event>
 5    1  0.3206158E-002  0.1249868E+03  0.7818608E-02  0.1235090E+00
         -4   -1    0    0    0  501 -0.00000000000E+00  0.00000000000E+00  0.48174344996E+03  0.48174512398E+03  0.12700000000E+01 0. -1.
          4   -1    0    0  501    0  0.00000000000E+00 -0.00000000000E+00 -0.80554198257E+01  0.81549180602E+01  0.12700000000E+01 0. -1.
         25    2    1    2    0    0  0.00000000000E+00  0.00000000000E+00  0.47368803013E+03  0.48990004204E+03  0.12498680450E+03 0.  0.
    9000005    1    3    3    0    0 -0.33646357004E+02  0.48649460390E+02  0.15790703621E+03  0.16862526329E+03  0.10000000000E+01 0.  0.
    9000005    1    3    3    0    0  0.33646357004E+02 -0.48649460390E+02  0.31578099393E+03  0.32127477875E+03  0.10000000000E+01 0.  0.
<mgrwt>
<rscale>  0 0.12498680E+03</rscale>
<asrwt>0</asrwt>
<pdfrwt beam="2">  1        4 0.12470774E-02 0.12498680E+03</pdfrwt>
<pdfrwt beam="1">  1       -4 0.74122183E-01 0.12498680E+03</pdfrwt>
<totfact> 0.56673037E+03</totfact>
</mgrwt>
</event>
<event>
 5    1  0.3206158E-002  0.1250059E+03  0.7818608E-02  0.1235060E+00
          4   -1    0    0  501    0  0.00000000000E+00  0.00000000000E+00  0.16848005264E+03  0.16848483919E+03  0.12700000000E+01 0.  1.
         -4   -1    0    0    0  501 -0.00000000000E+00 -0.00000000000E+00 -0.23164915206E+02  0.23199702509E+02  0.12700000000E+01 0.  1.
         25    2    1    2    0    0  0.00000000000E+00  0.00000000000E+00  0.14531513743E+03  0.19168454170E+03  0.12500589730E+03 0.  0.
    9000005    1    3    3    0    0 -0.56738547591E+02 -0.20216631860E+02  0.47107008606E+02  0.76472513012E+02  0.10000000000E+01 0.  0.
    9000005    1    3    3    0    0  0.56738547591E+02  0.20216631860E+02  0.98208128824E+02  0.11521202868E+03  0.10000000000E+01 0.  0.
<mgrwt>
<rscale>  0 0.12500590E+03</rscale>
<asrwt>0</asrwt>
<pdfrwt beam="1">  1        4 0.25923051E-01 0.12500590E+03</pdfrwt>
<pdfrwt beam="2">  1       -4 0.35668774E-02 0.12500590E+03</pdfrwt>
<totfact> 0.91542943E+03</totfact>
</mgrwt>
</event>
<event>
 5    1  0.3206158E-002  0.1249968E+03  0.7818608E-02  0.1235074E+00
         -4   -1    0    0    0  501 -0.00000000000E+00  0.00000000000E+00  0.46351602174E+02  0.46368997446E+02  0.12700000000E+01 0. -1.
          4   -1    0    0  501    0  0.00000000000E+00 -0.00000000000E+00 -0.84232022379E+02  0.84241595984E+02  0.12700000000E+01 0. -1.
         25    2    1    2    0    0  0.00000000000E+00  0.00000000000E+00 -0.37880420205E+02  0.13061059343E+03  0.12499680348E+03 0.  0.
    9000005    1    3    3    0    0 -0.27456917962E+02  0.55918061491E+02 -0.13785260820E+02  0.63810229280E+02  0.10000000000E+01 0.  0.
    9000005    1    3    3    0    0  0.27456917962E+02 -0.55918061491E+02 -0.24095159385E+02  0.66800364150E+02  0.10000000000E+01 0.  0.
<mgrwt>
<rscale>  0 0.12499680E+03</rscale>
<asrwt>0</asrwt>
<pdfrwt beam="2">  1        4 0.12960847E-01 0.12499680E+03</pdfrwt>
<pdfrwt beam="1">  1       -4 0.71330903E-02 0.12499680E+03</pdfrwt>
<totfact> 0.10332190E+04</totfact>
</mgrwt>
</event>
<event>
 5    1  0.3206158E-002  0.1250019E+03  0.7818608E-02  0.1235066E+00
         -4   -1    0    0    0  501 -0.00000000000E+00  0.00000000000E+00  0.45886887723E+02  0.45904459096E+02  0.12700000000E+01 0.  1.
          4   -1    0    0  501    0  0.00000000000E+00 -0.00000000000E+00 -0.85091752570E+02  0.85101229459E+02  0.12700000000E+01 0.  1.
         25    2    1    2    0    0  0.00000000000E+00  0.00000000000E+00 -0.39204864847E+02  0.13100568856E+03  0.12500187601E+03 0.  0.
    9000005    1    3    3    0    0  0.54859684193E+02 -0.29927613903E+02 -0.19239039792E+02  0.65394095114E+02  0.10000000000E+01 0.  0.
    9000005    1    3    3    0    0 -0.54859684193E+02  0.29927613903E+02 -0.19965825055E+02  0.65611593441E+02  0.10000000000E+01 0.  0.
<mgrwt>
<rscale>  0 0.12500188E+03</rscale>
<asrwt>0</asrwt>
<pdfrwt beam="2">  1        4 0.13093120E-01 0.12500188E+03</pdfrwt>
<pdfrwt beam="1">  1       -4 0.70616018E-02 0.12500188E+03</pdfrwt>
<totfact> 0.10322530E+04</totfact>
</mgrwt>
</event>
<event>
 5    1  0.3206158E-002  0.1250002E+03  0.7818608E-02  0.1235069E+00
         -4   -1    0    0    0  501 -0.00000000000E+00  0.00000000000E+00  0.59126804661E+02  0.59140442418E+02  0.12700000000E+01 0.  1.
          4   -1    0    0  501    0  0.00000000000E+00 -0.00000000000E+00 -0.66038520868E+02  0.66050731551E+02  0.12700000000E+01 0.  1.
         25    2    1    2    0    0  0.00000000000E+00  0.00000000000E+00 -0.69117162072E+01  0.12519117397E+03  0.12500023288E+03 0.  0.
    9000005    1    3    3    0    0 -0.52026314217E+02  0.19090091729E+01  0.31164021804E+02  0.60684247891E+02  0.10000000000E+01 0.  0.
    9000005    1    3    3    0    0  0.52026314217E+02 -0.19090091729E+01 -0.38075738011E+02  0.64506926079E+02  0.10000000000E+01 0.  0.
<mgrwt>
<rscale>  0 0.12500023E+03</rscale>
<asrwt>0</asrwt>
<pdfrwt beam="2">  1        4 0.10161761E-01 0.12500023E+03</pdfrwt>
<pdfrwt beam="1">  1       -4 0.90984199E-02 0.12500023E+03</pdfrwt>
<totfact> 0.10448657E+04</totfact>
</mgrwt>
</event>
<event>
 5    1  0.3206158E-002  0.1250074E+03  0.7818608E-02  0.1235058E+00
         -4   -1    0    0    0  501 -0.00000000000E+00  0.00000000000E+00  0.11483501756E+04  0.11483508778E+04  0.12700000000E+01 0. -1.
          4   -1    0    0  501    0  0.00000000000E+00 -0.00000000000E+00 -0.32827678154E+01  0.35198671182E+01  0.12700000000E+01 0. -1.
         25    2    1    2    0    0  0.00000000000E+00  0.00000000000E+00  0.11450674077E+04  0.11518707449E+04  0.12500737892E+03 0.  0.
    9000005    1    3    3    0    0 -0.16672095526E+02  0.59722322647E+02  0.50056877026E+03  0.50439548804E+03  0.10000000000E+01 0.  0.
    9000005    1    3    3    0    0  0.16672095526E+02 -0.59722322647E+02  0.64449863748E+03  0.64747525690E+03  0.10000000000E+01 0.  0.
<mgrwt>
<rscale>  0 0.12500738E+03</rscale>
<asrwt>0</asrwt>
<pdfrwt beam="2">  1        4 0.52333310E-03 0.12500738E+03</pdfrwt>
<pdfrwt beam="1">  1       -4 0.17668773E+00 0.12500738E+03</pdfrwt>
<totfact> 0.26004164E+03</totfact>
</mgrwt>
</event>
<event>
 5    1  0.3206158E-002  0.1249972E+03  0.7818608E-02  0.1235074E+00
         -4   -1    0    0    0  501 -0.00000000000E+00  0.00000000000E+00  0.26924162392E+02  0.26954098399E+02  0.12700000000E+01 0.  1.
          4   -1    0    0  501    0  0.00000000000E+00 -0.00000000000E+00 -0.14496369862E+03  0.14496926163E+03  0.12700000000E+01 0.  1.
         25    2    1    2    0    0  0.00000000000E+00  0.00000000000E+00 -0.11803953623E+03  0.17192336003E+03  0.12499723841E+03 0.  0.
    9000005    1    3    3    0    0 -0.29714376604E+02 -0.44936020312E+02 -0.10257702676E+03  0.11586732291E+03  0.10000000000E+01 0.  0.
    9000005    1    3    3    0    0  0.29714376604E+02  0.44936020312E+02 -0.15462509462E+02  0.56056037118E+02  0.10000000000E+01 0.  0.
<mgrwt>
<rscale>  0 0.12499724E+03</rscale>
<asrwt>0</asrwt>
<pdfrwt beam="2">  1        4 0.22304838E-01 0.12499724E+03</pdfrwt>
<pdfrwt beam="1">  1       -4 0.41449096E-02 0.12499724E+03</pdfrwt>
<totfact> 0.95097253E+03</totfact>
</mgrwt>
</event>
<event>
 5    1  0.3206158E-002  0.1250005E+03  0.7818608E-02  0.1235069E+00
         -4   -1    0    0    0  501 -0.00000000000E+00  0.00000000000E+00  0.46694923590E+02  0.46712191011E+02  0.12700000000E+01 0.  1.
          4   -1    0    0  501    0  0.00000000000E+00 -0.00000000000E+00 -0.83617803656E+02  0.83627447578E+02  0.12700000000E+01 0.  1.
         25    2    1    2    0    0  0.00000000000E+00  0.00000000000E+00 -0.36922880067E+02  0.13033963859E+03  0.12500048926E+03 0.  0.
    9000005    1    3    3    0    0 -0.11768596565E+02 -0.32089695014E+02  0.36089815667E+02  0.49716427728E+02  0.10000000000E+01 0.  0.
    9000005    1    3    3    0    0  0.11768596565E+02  0.32089695014E+02 -0.73012695733E+02  0.80623210860E+02  0.10000000000E+01 0.  0.
<mgrwt>
<rscale>  0 0.12500049E+03</rscale>
<asrwt>0</asrwt>
<pdfrwt beam="2">  1        4 0.12866348E-01 0.12500049E+03</pdfrwt>
<pdfrwt beam="1">  1       -4 0.71859045E-02 0.12500049E+03</pdfrwt>
<totfact> 0.10337133E+04</totfact>
</mgrwt>
</event>
<event>
 5    1  0.3206158E-002  0.1249985E+03  0.7818608E-02  0.1235072E+00
         -4   -1    0    0    0  501 -0.00000000000E+00  0.00000000000E+00  0.83901071462E+02  0.83910682827E+02  0.12700000000E+01 0.  1.
          4   -1    0    0  501    0  0.00000000000E+00 -0.00000000000E+00 -0.46535771222E+02  0.46553097676E+02  0.12700000000E+01 0.  1.
         25    2    1    2    0    0  0.00000000000E+00  0.00000000000E+00  0.37365300240E+02  0.13046378050E+03  0.12499852944E+03 0.  0.
    9000005    1    3    3    0    0 -0.65874740215E+00  0.47037544556E+02  0.61617512217E+02  0.77528590583E+02  0.10000000000E+01 0.  0.
    9000005    1    3    3    0    0  0.65874740215E+00 -0.47037544556E+02 -0.24252211978E+02  0.52935189919E+02  0.10000000000E+01 0.  0.
<mgrwt>
<rscale>  0 0.12499853E+03</rscale>
<asrwt>0</asrwt>
<pdfrwt beam="2">  1        4 0.71614216E-02 0.12499853E+03</pdfrwt>
<pdfrwt beam="1">  1       -4 0.12909929E-01 0.12499853E+03</pdfrwt>
<totfact> 0.10334939E+04</totfact>
</mgrwt>
</event>
<event>
 5    1  0.3206158E-002  0.1249982E+03  0.7818608E-02  0.1235072E+00
          4   -1    0    0  501    0  0.00000000000E+00  0.00000000000E+00  0.58899510641E+02  0.58913201014E+02  0.12700000000E+01 0.  1.
         -4   -1    0    0    0  501 -0.00000000000E+00 -0.00000000000E+00 -0.66291227657E+02  0.66303391801E+02  0.12700000000E+01 0.  1.
         25    2    1    2    0    0  0.00000000000E+00  0.00000000000E+00 -0.73917170164E+01  0.12521659282E+03  0.12499823053E+03 0.  0.
    9000005    1    3    3    0    0  0.24658478364E+02  0.53655304191E+02  0.16789980838E+02  0.61398987610E+02  0.10000000000E+01 0.  0.
    9000005    1    3    3    0    0 -0.24658478364E+02 -0.53655304191E+02 -0.24181697854E+02  0.63817605205E+02  0.10000000000E+01 0.  0.
<mgrwt>
<rscale>  0 0.12499823E+03</rscale>
<asrwt>0</asrwt>
<pdfrwt beam="1">  1        4 0.90634520E-02 0.12499823E+03</pdfrwt>
<pdfrwt beam="2">  1       -4 0.10200639E-01 0.12499823E+03</pdfrwt>
<totfact> 0.10448578E+04</totfact>
</mgrwt>
</event>
<event>
 5    1  0.3206158E-002  0.1250043E+03  0.7818608E-02  0.1235063E+00
          4   -1    0    0  501    0  0.00000000000E+00  0.00000000000E+00  0.16708852406E+02  0.16757047733E+02  0.12700000000E+01 0.  1.
         -4   -1    0    0    0  501 -0.00000000000E+00 -0.00000000000E+00 -0.23341259701E+03  0.23341605202E+03  0.12700000000E+01 0.  1.
         25    2    1    2    0    0  0.00000000000E+00  0.00000000000E+00 -0.21670374460E+03  0.25017309976E+03  0.12500426759E+03 0.  0.
    9000005    1    3    3    0    0 -0.18785951821E+02  0.16170125503E+02  0.64604248111E+01  0.25634391613E+02  0.10000000000E+01 0.  0.
    9000005    1    3    3    0    0  0.18785951821E+02 -0.16170125503E+02 -0.22316416942E+03  0.22453870814E+03  0.10000000000E+01 0.  0.
<mgrwt>
<rscale>  0 0.12500427E+03</rscale>
<asrwt>0</asrwt>
<pdfrwt beam="1">  1        4 0.25745659E-02 0.12500427E+03</pdfrwt>
<pdfrwt beam="2">  1       -4 0.35913601E-01 0.12500427E+03</pdfrwt>
<totfact> 0.82297393E+03</totfact>
</mgrwt>
</event>
<event>
 5    1  0.3206158E-002  0.1250040E+03  0.7818608E-02  0.1235063E+00
         -4   -1    0    0    0  501 -0.00000000000E+00  0.00000000000E+00  0.12327195584E+02  0.12392443301E+02  0.12700000000E+01 0.  1.
          4   -1    0    0  501    0  0.00000000000E+00 -0.00000000000E+00 -0.31599807607E+03  0.31600062814E+03  0.12700000000E+01 0.  1.
         25    2    1    2    0    0  0.00000000000E+00  0.00000000000E+00 -0.30367088049E+03  0.32839307144E+03  0.12500402278E+03 0.  0.
    9000005    1    3    3    0    0 -0.27387574523E+02 -0.14986567976E+02 -0.96140440699E+01  0.32681895620E+02  0.10000000000E+01 0.  0.
    9000005    1    3    3    0    0  0.27387574523E+02  0.14986567976E+02 -0.29405683642E+03  0.29571117582E+03  0.10000000000E+01 0.  0.
<mgrwt>
<rscale>  0 0.12500402E+03</rscale>
<asrwt>0</asrwt>
<pdfrwt beam="2">  1        4 0.48620298E-01 0.12500402E+03</pdfrwt>
<pdfrwt beam="1">  1       -4 0.19017072E-02 0.12500402E+03</pdfrwt>
<totfact> 0.72162447E+03</totfact>
</mgrwt>
</event>
<event>
 4    1  0.3206158E-002  0.1249274E+03  0.7818608E-02  0.1235183E+00
          4   -1    0    0  501    0  0.00000000000E+00  0.00000000000E+00  0.61344935502E+01  0.62645758928E+01  0.12700000000E+01 0.  1.
         -4   -1    0    0    0  501 -0.00000000000E+00 -0.00000000000E+00 -0.62922501989E+03  0.62922630155E+03  0.12700000000E+01 0.  1.
    9000005    1    1    2    0    0  0.46461387002E+02 -0.38694716776E+02 -0.39113038098E+03  0.39577760992E+03  0.10000000000E+01 0.  0.
    9000005    1    1    2    0    0 -0.46461387002E+02  0.38694716776E+02 -0.23196014536E+03  0.23971326752E+03  0.10000000000E+01 0.  0.
<mgrwt>
<rscale>  0 0.12492738E+03</rscale>
<asrwt>0</asrwt>
<pdfrwt beam="1">  1        4 0.95387366E-03 0.12492738E+03</pdfrwt>
<pdfrwt beam="2">  1       -4 0.96813904E-01 0.12492738E+03</pdfrwt>
<totfact> 0.46775708E+03</totfact>
</mgrwt>
</event>
<event>
 5    1  0.3206158E-002  0.1250020E+03  0.7818608E-02  0.1235066E+00
          4   -1    0    0  501    0  0.00000000000E+00  0.00000000000E+00  0.15132858718E+04  0.15132864047E+04  0.12700000000E+01 0.  1.
         -4   -1    0    0    0  501 -0.00000000000E+00 -0.00000000000E+00 -0.24246151426E+01  0.27370894377E+01  0.12700000000E+01 0.  1.
         25    2    1    2    0    0  0.00000000000E+00  0.00000000000E+00  0.15108612567E+04  0.15160234942E+04  0.12500199178E+03 0.  0.
    9000005    1    3    3    0    0  0.22572757957E+02 -0.19344149332E+02  0.14221007687E+04  0.14224117976E+04  0.10000000000E+01 0.  0.
    9000005    1    3    3    0    0 -0.22572757957E+02  0.19344149332E+02  0.88760487948E+02  0.93611696577E+02  0.10000000000E+01 0.  0.
<mgrwt>
<rscale>  0 0.12500199E+03</rscale>
<asrwt>0</asrwt>
<pdfrwt beam="1">  1        4 0.23283792E+00 0.12500199E+03</pdfrwt>
<pdfrwt beam="2">  1       -4 0.39709411E-03 0.12500199E+03</pdfrwt>
<totfact> 0.17616715E+03</totfact>
</mgrwt>
</event>
<event>
 5    1  0.3206158E-002  0.1249965E+03  0.7818608E-02  0.1235075E+00
         -4   -1    0    0    0  501 -0.00000000000E+00  0.00000000000E+00  0.13571340498E+03  0.13571934715E+03  0.12700000000E+01 0. -1.
          4   -1    0    0  501    0  0.00000000000E+00 -0.00000000000E+00 -0.28760867428E+02  0.28788893608E+02  0.12700000000E+01 0. -1.
         25    2    1    2    0    0  0.00000000000E+00  0.00000000000E+00  0.10695253755E+03  0.16450824076E+03  0.12499646391E+03 0.  0.
    9000005    1    3    3    0    0 -0.89036302259E+01 -0.61749907250E+02  0.58167086550E+02  0.85303784408E+02  0.10000000000E+01 0.  0.
    9000005    1    3    3    0    0  0.89036302259E+01  0.61749907250E+02  0.48785451002E+02  0.79204456352E+02  0.10000000000E+01 0.  0.
<mgrwt>
<rscale>  0 0.12499646E+03</rscale>
<asrwt>0</asrwt>
<pdfrwt beam="2">  1        4 0.44273618E-02 0.12499646E+03</pdfrwt>
<pdfrwt beam="1">  1       -4 0.20881598E-01 0.12499646E+03</pdfrwt>
<totfact> 0.96488269E+03</totfact>
</mgrwt>
</event>
<event>
 5    1  0.3206158E-002  0.1250016E+03  0.7818608E-02  0.1235067E+00
          4   -1    0    0  501    0  0.00000000000E+00  0.00000000000E+00  0.81632351309E+03  0.81632450099E+03  0.12700000000E+01 0.  1.
         -4   -1    0    0    0  501 -0.00000000000E+00 -0.00000000000E+00 -0.47000210415E+01  0.48685827291E+01  0.12700000000E+01 0.  1.
         25    2    1    2    0    0  0.00000000000E+00  0.00000000000E+00  0.81162349205E+03  0.82119308372E+03  0.12500155163E+03 0.  0.
    9000005    1    3    3    0    0  0.19572721439E+02 -0.29994932919E+02  0.69383417036E+02  0.78088705873E+02  0.10000000000E+01 0.  0.
    9000005    1    3    3    0    0 -0.19572721439E+02  0.29994932919E+02  0.74224007501E+03  0.74310437785E+03  0.10000000000E+01 0.  0.
<mgrwt>
<rscale>  0 0.12500155E+03</rscale>
<asrwt>0</asrwt>
<pdfrwt beam="1">  1        4 0.12560112E+00 0.12500155E+03</pdfrwt>
<pdfrwt beam="2">  1       -4 0.73612335E-03 0.12500155E+03</pdfrwt>
<totfact> 0.37334722E+03</totfact>
</mgrwt>
</event>
<event>
 5    1  0.3206158E-002  0.1249974E+03  0.7818608E-02  0.1235073E+00
          4   -1    0    0  501    0  0.00000000000E+00  0.00000000000E+00  0.69618209166E+02  0.69629792097E+02  0.12700000000E+01 0.  1.
         -4   -1    0    0    0  501 -0.00000000000E+00 -0.00000000000E+00 -0.56083848230E+02  0.56098225750E+02  0.12700000000E+01 0.  1.
         25    2    1    2    0    0  0.00000000000E+00  0.00000000000E+00  0.13534360936E+02  0.12572801785E+03  0.12499742216E+03 0.  0.
    9000005    1    3    3    0    0  0.47424276625E+02 -0.38913569667E+02 -0.52087522815E+01  0.61574824546E+02  0.10000000000E+01 0.  0.
    9000005    1    3    3    0    0 -0.47424276625E+02  0.38913569667E+02  0.18743113218E+02  0.64153193301E+02  0.10000000000E+01 0.  0.
<mgrwt>
<rscale>  0 0.12499742E+03</rscale>
<asrwt>0</asrwt>
<pdfrwt beam="1">  1        4 0.10712491E-01 0.12499742E+03</pdfrwt>
<pdfrwt beam="2">  1       -4 0.86302813E-02 0.12499742E+03</pdfrwt>
<totfact> 0.10437535E+04</totfact>
</mgrwt>
</event>
<event>
 5    1  0.3206158E-002  0.1250003E+03  0.7818608E-02  0.1235069E+00
         -4   -1    0    0    0  501 -0.00000000000E+00  0.00000000000E+00  0.20420835538E+02  0.20460288953E+02  0.12700000000E+01 0. -1.
          4   -1    0    0  501    0  0.00000000000E+00 -0.00000000000E+00 -0.19106221598E+03  0.19106643681E+03  0.12700000000E+01 0. -1.
         25    2    1    2    0    0  0.00000000000E+00  0.00000000000E+00 -0.17064138044E+03  0.21152672576E+03  0.12500029997E+03 0.  0.
    9000005    1    3    3    0    0  0.61602008476E+02 -0.69125096717E+01 -0.71923506180E+02  0.94955679027E+02  0.10000000000E+01 0.  0.
    9000005    1    3    3    0    0 -0.61602008476E+02  0.69125096717E+01 -0.98717874262E+02  0.11657104674E+03  0.10000000000E+01 0.  0.
<mgrwt>
<rscale>  0 0.12500030E+03</rscale>
<asrwt>0</asrwt>
<pdfrwt beam="2">  1        4 0.29397545E-01 0.12500030E+03</pdfrwt>
<pdfrwt beam="1">  1       -4 0.31450267E-02 0.12500030E+03</pdfrwt>
<totfact> 0.88226561E+03</totfact>
</mgrwt>
</event>
<event>
 5    1  0.3206158E-002  0.1249940E+03  0.7818608E-02  0.1235079E+00
          4   -1    0    0  501    0  0.00000000000E+00  0.00000000000E+00  0.49519875006E+03  0.49520037859E+03  0.12700000000E+01 0.  1.
         -4   -1    0    0    0  501 -0.00000000000E+00 -0.00000000000E+00 -0.78347164740E+01  0.79369819345E+01  0.12700000000E+01 0.  1.
         25    2    1    2    0    0  0.00000000000E+00  0.00000000000E+00  0.48736403358E+03  0.50313736053E+03  0.12499400917E+03 0.  0.
    9000005    1    3    3    0    0 -0.37365914444E+02  0.49816008806E+02  0.22275464652E+03  0.23129738183E+03  0.10000000000E+01 0.  0.
    9000005    1    3    3    0    0  0.37365914444E+02 -0.49816008806E+02  0.26460938706E+03  0.27183997869E+03  0.10000000000E+01 0.  0.
<mgrwt>
<rscale>  0 0.12499401E+03</rscale>
<asrwt>0</asrwt>
<pdfrwt beam="1">  1        4 0.76192418E-01 0.12499401E+03</pdfrwt>
<pdfrwt beam="2">  1       -4 0.12133328E-02 0.12499401E+03</pdfrwt>
<totfact> 0.55629089E+03</totfact>
</mgrwt>
</event>
<event>
 4    1  0.3206158E-002  0.1249122E+03  0.7818608E-02  0.1235207E+00
          4   -1    0    0  501    0  0.00000000000E+00  0.00000000000E+00  0.13276747281E+03  0.13277354682E+03  0.12700000000E+01 0.  1.
         -4   -1    0    0    0  501 -0.00000000000E+00 -0.00000000000E+00 -0.29359929328E+02  0.29387384201E+02  0.12700000000E+01 0.  1.
    9000005    1    1    2    0    0  0.27134786638E+02  0.29203915070E+02  0.11410649983E+03  0.12087373000E+03  0.10000000000E+01 0.  0.
    9000005    1    1    2    0    0 -0.27134786638E+02 -0.29203915070E+02 -0.10698956348E+02  0.41287201022E+02  0.10000000000E+01 0.  0.
<mgrwt>
<rscale>  0 0.12491216E+03</rscale>
<asrwt>0</asrwt>
<pdfrwt beam="1">  1        4 0.20428345E-01 0.12491216E+03</pdfrwt>
<pdfrwt beam="2">  1       -4 0.45194913E-02 0.12491216E+03</pdfrwt>
<totfact> 0.97119364E+03</totfact>
</mgrwt>
</event>
<event>
 5    1  0.3206158E-002  0.1250023E+03  0.7818608E-02  0.1235066E+00
         -4   -1    0    0    0  501 -0.00000000000E+00  0.00000000000E+00  0.28876498396E+03  0.28876777670E+03  0.12700000000E+01 0.  1.
          4   -1    0    0  501    0  0.00000000000E+00 -0.00000000000E+00 -0.13495273771E+02  0.13554900005E+02  0.12700000000E+01 0.  1.
         25    2    1    2    0    0  0.00000000000E+00  0.00000000000E+00  0.27526971019E+03  0.30232267670E+03  0.12500234999E+03 0.  0.
    9000005    1    3    3    0    0 -0.48951146802E+02  0.38068502666E+02  0.15636425847E+03  0.16821476449E+03  0.10000000000E+01 0.  0.
    9000005    1    3    3    0    0  0.48951146802E+02 -0.38068502666E+02  0.11890545172E+03  0.13410791221E+03  0.10000000000E+01 0.  0.
<mgrwt>
<rscale>  0 0.12500235E+03</rscale>
<asrwt>0</asrwt>
<pdfrwt beam="2">  1        4 0.20809976E-02 0.12500235E+03</pdfrwt>
<pdfrwt beam="1">  1       -4 0.44430181E-01 0.12500235E+03</pdfrwt>
<totfact> 0.75304480E+03</totfact>
</mgrwt>
</event>
<event>
 5    1  0.3206158E-002  0.1250060E+03  0.7818608E-02  0.1235060E+00
         -4   -1    0    0    0  501 -0.00000000000E+00  0.00000000000E+00  0.10384689388E+02  0.10462058769E+02  0.12700000000E+01 0. -1.
          4   -1    0    0  501    0  0.00000000000E+00 -0.00000000000E+00 -0.37471647673E+03  0.37471862889E+03  0.12700000000E+01 0. -1.
         25    2    1    2    0    0  0.00000000000E+00  0.00000000000E+00 -0.36433178735E+03  0.38518068766E+03  0.12500604335E+03 0.  0.
    9000005    1    3    3    0    0 -0.50752675549E+02 -0.31526641877E+02 -0.12569618556E+03  0.13917720462E+03  0.10000000000E+01 0.  0.
    9000005    1    3    3    0    0  0.50752675549E+02  0.31526641877E+02 -0.23863560179E+03  0.24600348303E+03  0.10000000000E+01 0.  0.
<mgrwt>
<rscale>  0 0.12500604E+03</rscale>
<asrwt>0</asrwt>
<pdfrwt beam="2">  1        4 0.57654796E-01 0.12500604E+03</pdfrwt>
<pdfrwt beam="1">  1       -4 0.16037618E-02 0.12500604E+03</pdfrwt>
<totfact> 0.66011268E+03</totfact>
</mgrwt>
</event>
<event>
 5    1  0.3206158E-002  0.1249957E+03  0.7818608E-02  0.1235076E+00
          4   -1    0    0  501    0  0.00000000000E+00  0.00000000000E+00  0.71794229432E+02  0.71805461350E+02  0.12700000000E+01 0.  1.
         -4   -1    0    0    0  501 -0.00000000000E+00 -0.00000000000E+00 -0.54382289779E+02  0.54397117034E+02  0.12700000000E+01 0.  1.
         25    2    1    2    0    0  0.00000000000E+00  0.00000000000E+00  0.17411939652E+02  0.12620257838E+03  0.12499566052E+03 0.  0.
    9000005    1    3    3    0    0  0.47117215951E+02 -0.40519795543E+02  0.15333874295E+02  0.64015729088E+02  0.10000000000E+01 0.  0.
    9000005    1    3    3    0    0 -0.47117215951E+02  0.40519795543E+02  0.20780653574E+01  0.62186849296E+02  0.10000000000E+01 0.  0.
<mgrwt>
<rscale>  0 0.12499566E+03</rscale>
<asrwt>0</asrwt>
<pdfrwt beam="1">  1        4 0.11047271E-01 0.12499566E+03</pdfrwt>
<pdfrwt beam="2">  1       -4 0.83685107E-02 0.12499566E+03</pdfrwt>
<totfact> 0.10427544E+04</totfact>
</mgrwt>
</event>
<event>
 5    1  0.3206158E-002  0.1249939E+03  0.7818608E-02  0.1235079E+00
          4   -1    0    0  501    0  0.00000000000E+00  0.00000000000E+00  0.13095407576E+03  0.13096023388E+03  0.12700000000E+01 0.  1.
         -4   -1    0    0    0  501 -0.00000000000E+00 -0.00000000000E+00 -0.29805869832E+02  0.29832914314E+02  0.12700000000E+01 0.  1.
         25    2    1    2    0    0  0.00000000000E+00  0.00000000000E+00  0.10114820593E+03  0.16079314819E+03  0.12499390763E+03 0.  0.
    9000005    1    3    3    0    0  0.23143209927E+02 -0.58021628837E+02  0.48440194100E+02  0.79054221792E+02  0.10000000000E+01 0.  0.
    9000005    1    3    3    0    0 -0.23143209927E+02  0.58021628837E+02  0.52708011826E+02  0.81738926402E+02  0.10000000000E+01 0.  0.
<mgrwt>
<rscale>  0 0.12499391E+03</rscale>
<asrwt>0</asrwt>
<pdfrwt beam="1">  1        4 0.20149335E-01 0.12499391E+03</pdfrwt>
<pdfrwt beam="2">  1       -4 0.45880726E-02 0.12499391E+03</pdfrwt>
<totfact> 0.97203399E+03</totfact>
</mgrwt>
</event>
<event>
 5    1  0.3206158E-002  0.1249958E+03  0.7818608E-02  0.1235076E+00
         -4   -1    0    0    0  501 -0.00000000000E+00  0.00000000000E+00  0.15472216942E+02  0.15524251902E+02  0.12700000000E+01 0. -1.
          4   -1    0    0  501    0  0.00000000000E+00 -0.00000000000E+00 -0.25197430743E+03  0.25197750793E+03  0.12700000000E+01 0. -1.
         25    2    1    2    0    0  0.00000000000E+00  0.00000000000E+00 -0.23650209049E+03  0.26750175983E+03  0.12499581077E+03 0.  0.
    9000005    1    3    3    0    0 -0.31794792063E+02 -0.53549332150E+02 -0.12927786749E+03  0.14349984947E+03  0.10000000000E+01 0.  0.
    9000005    1    3    3    0    0  0.31794792063E+02  0.53549332150E+02 -0.10722422300E+03  0.12400191036E+03  0.10000000000E+01 0.  0.
<mgrwt>
<rscale>  0 0.12499581E+03</rscale>
<asrwt>0</asrwt>
<pdfrwt beam="2">  1        4 0.38769524E-01 0.12499581E+03</pdfrwt>
<pdfrwt beam="1">  1       -4 0.23845901E-02 0.12499581E+03</pdfrwt>
<totfact> 0.79872133E+03</totfact>
</mgrwt>
</event>
<event>
 5    1  0.3206158E-002  0.1250007E+03  0.7818608E-02  0.1235068E+00
         -4   -1    0    0    0  501 -0.00000000000E+00  0.00000000000E+00  0.73287565076E+03  0.73287675115E+03  0.12700000000E+01 0. -1.
          4   -1    0    0  501    0  0.00000000000E+00 -0.00000000000E+00 -0.52533240059E+01  0.54046566136E+01  0.12700000000E+01 0. -1.
         25    2    1    2    0    0  0.00000000000E+00  0.00000000000E+00  0.72762232676E+03  0.73828140777E+03  0.12500074663E+03 0.  0.
    9000005    1    3    3    0    0 -0.33700038965E+02  0.35468487625E+02  0.59343998153E+03  0.59545421144E+03  0.10000000000E+01 0.  0.
    9000005    1    3    3    0    0  0.33700038965E+02 -0.35468487625E+02  0.13418234523E+03  0.14282719633E+03  0.10000000000E+01 0.  0.
<mgrwt>
<rscale>  0 0.12500075E+03</rscale>
<asrwt>0</asrwt>
<pdfrwt beam="2">  1        4 0.81992894E-03 0.12500075E+03</pdfrwt>
<pdfrwt beam="1">  1       -4 0.11276188E+00 0.12500075E+03</pdfrwt>
<totfact> 0.41140319E+03</totfact>
</mgrwt>
</event>
<event>
 5    1  0.3206158E-002  0.1250006E+03  0.7818608E-02  0.1235068E+00
         -4   -1    0    0    0  501 -0.00000000000E+00  0.00000000000E+00  0.87438746920E+02  0.87447969462E+02  0.12700000000E+01 0.  1.
          4   -1    0    0  501    0  0.00000000000E+00 -0.00000000000E+00 -0.44653928480E+02  0.44671984830E+02  0.12700000000E+01 0.  1.
         25    2    1    2    0    0  0.00000000000E+00  0.00000000000E+00  0.42784818440E+02  0.13211995429E+03  0.12500056653E+03 0.  0.
    9000005    1    3    3    0    0  0.21176994162E+02 -0.27754962855E+02 -0.33390921166E+02  0.48319319751E+02  0.10000000000E+01 0.  0.
    9000005    1    3    3    0    0 -0.21176994162E+02  0.27754962855E+02  0.76175739606E+02  0.83800634541E+02  0.10000000000E+01 0.  0.
<mgrwt>
<rscale>  0 0.12500057E+03</rscale>
<asrwt>0</asrwt>
<pdfrwt beam="2">  1        4 0.68719336E-02 0.12500057E+03</pdfrwt>
<pdfrwt beam="1">  1       -4 0.13454213E-01 0.12500057E+03</pdfrwt>
<totfact> 0.10299007E+04</totfact>
</mgrwt>
</event>
<event>
 5    1  0.3206158E-002  0.1249983E+03  0.7818608E-02  0.1235072E+00
          4   -1    0    0  501    0  0.00000000000E+00  0.00000000000E+00  0.55986845347E+02  0.56001247771E+02  0.12700000000E+01 0. -1.
         -4   -1    0    0    0  501 -0.00000000000E+00 -0.00000000000E+00 -0.69739820100E+02  0.69751382836E+02  0.12700000000E+01 0. -1.
         25    2    1    2    0    0  0.00000000000E+00  0.00000000000E+00 -0.13752974752E+02  0.12575263061E+03  0.12499831915E+03 0.  0.
    9000005    1    3    3    0    0 -0.43774199417E+01  0.15498878341E+02 -0.67621050761E+02  0.69519662982E+02  0.10000000000E+01 0.  0.
    9000005    1    3    3    0    0  0.43774199417E+01 -0.15498878341E+02  0.53868076008E+02  0.56232967626E+02  0.10000000000E+01 0.  0.
<mgrwt>
<rscale>  0 0.12499832E+03</rscale>
<asrwt>0</asrwt>
<pdfrwt beam="1">  1        4 0.86153582E-02 0.12499832E+03</pdfrwt>
<pdfrwt beam="2">  1       -4 0.10731200E-01 0.12499832E+03</pdfrwt>
<totfact> 0.10436782E+04</totfact>
</mgrwt>
</event>
<event>
 5    1  0.3206158E-002  0.1250030E+03  0.7818608E-02  0.1235065E+00
          4   -1    0    0  501    0  0.00000000000E+00  0.00000000000E+00  0.18620653817E+03  0.18621086906E+03  0.12700000000E+01 0. -1.
         -4   -1    0    0    0  501 -0.00000000000E+00 -0.00000000000E+00 -0.20955256902E+02  0.20993706005E+02  0.12700000000E+01 0. -1.
         25    2    1    2    0    0  0.00000000000E+00  0.00000000000E+00  0.16525128127E+03  0.20720457507E+03  0.12500299984E+03 0.  0.
    9000005    1    3    3    0    0  0.60903720958E+02 -0.10681388742E+02  0.67607941487E+02  0.91625264224E+02  0.10000000000E+01 0.  0.
    9000005    1    3    3    0    0 -0.60903720958E+02  0.10681388742E+02  0.97643339782E+02  0.11557931085E+03  0.10000000000E+01 0.  0.
<mgrwt>
<rscale>  0 0.12500300E+03</rscale>
<asrwt>0</asrwt>
<pdfrwt beam="1">  1        4 0.28650451E-01 0.12500300E+03</pdfrwt>
<pdfrwt beam="2">  1       -4 0.32271764E-02 0.12500300E+03</pdfrwt>
<totfact> 0.88928488E+03</totfact>
</mgrwt>
</event>
<event>
 5    1  0.3206158E-002  0.1249976E+03  0.7818608E-02  0.1235073E+00
          4   -1    0    0  501    0  0.00000000000E+00  0.00000000000E+00  0.39185049407E+02  0.39205624558E+02  0.12700000000E+01 0. -1.
         -4   -1    0    0    0  501 -0.00000000000E+00 -0.00000000000E+00 -0.99632636594E+02  0.99640730501E+02  0.12700000000E+01 0. -1.
         25    2    1    2    0    0  0.00000000000E+00  0.00000000000E+00 -0.60447587188E+02  0.13884635506E+03  0.12499759804E+03 0.  0.
    9000005    1    3    3    0    0  0.39198568921E+02  0.40854696574E+02 -0.84620998897E+00  0.56633471631E+02  0.10000000000E+01 0.  0.
    9000005    1    3    3    0    0 -0.39198568921E+02 -0.40854696574E+02 -0.59601377199E+02  0.82212883428E+02  0.10000000000E+01 0.  0.
<mgrwt>
<rscale>  0 0.12499760E+03</rscale>
<asrwt>0</asrwt>
<pdfrwt beam="1">  1        4 0.60306745E-02 0.12499760E+03</pdfrwt>
<pdfrwt beam="2">  1       -4 0.15330303E-01 0.12499760E+03</pdfrwt>
<totfact> 0.10158101E+04</totfact>
</mgrwt>
</event>
<event>
 5    1  0.3206158E-002  0.1249974E+03  0.7818608E-02  0.1235073E+00
         -4   -1    0    0    0  501 -0.00000000000E+00  0.00000000000E+00  0.79695902846E+03  0.79696004037E+03  0.12700000000E+01 0. -1.
          4   -1    0    0  501    0  0.00000000000E+00 -0.00000000000E+00 -0.48179376697E+01  0.49825117551E+01  0.12700000000E+01 0. -1.
         25    2    1    2    0    0  0.00000000000E+00  0.00000000000E+00  0.79214109079E+03  0.80194255213E+03  0.12499739672E+03 0.  0.
    9000005    1    3    3    0    0  0.32811206247E+02 -0.30703508112E+02  0.67467680477E+03  0.67617236824E+03  0.10000000000E+01 0.  0.
    9000005    1    3    3    0    0 -0.32811206247E+02  0.30703508112E+02  0.11746428602E+03  0.12577018389E+03  0.10000000000E+01 0.  0.
<mgrwt>
<rscale>  0 0.12499740E+03</rscale>
<asrwt>0</asrwt>
<pdfrwt beam="2">  1        4 0.75395933E-03 0.12499740E+03</pdfrwt>
<pdfrwt beam="1">  1       -4 0.12262169E+00 0.12499740E+03</pdfrwt>
<totfact> 0.38180357E+03</totfact>
</mgrwt>
</event>
<event>
 5    1  0.3206158E-002  0.1250020E+03  0.7818608E-02  0.1235066E+00
          4   -1    0    0  501    0  0.00000000000E+00  0.00000000000E+00  0.27213180897E+02  0.27242799315E+02  0.12700000000E+01 0. -1.
         -4   -1    0    0    0  501 -0.00000000000E+00 -0.00000000000E+00 -0.14343661995E+03  0.14344224218E+03  0.12700000000E+01 0. -1.
         25    2    1    2    0    0  0.00000000000E+00  0.00000000000E+00 -0.11622343905E+03  0.17068504150E+03  0.12500198241E+03 0.  0.
    9000005    1    3    3    0    0  0.38208872564E+02 -0.28639499846E+02 -0.30643404967E+01  0.47859472174E+02  0.10000000000E+01 0.  0.
    9000005    1    3    3    0    0 -0.38208872564E+02  0.28639499846E+02 -0.11315909856E+03  0.12282556933E+03  0.10000000000E+01 0.  0.
<mgrwt>
<rscale>  0 0.12500198E+03</rscale>
<asrwt>0</asrwt>
<pdfrwt beam="1">  1        4 0.41893541E-02 0.12500198E+03</pdfrwt>
<pdfrwt beam="2">  1       -4 0.22069883E-01 0.12500198E+03</pdfrwt>
<totfact> 0.95316867E+03</totfact>
</mgrwt>
</event>
<event>
 5    1  0.3206158E-002  0.1250043E+03  0.7818608E-02  0.1235063E+00
         -4   -1    0    0    0  501 -0.00000000000E+00  0.00000000000E+00  0.15254489266E+02  0.15307264379E+02  0.12700000000E+01 0.  1.
          4   -1    0    0  501    0  0.00000000000E+00 -0.00000000000E+00 -0.25559324948E+03  0.25559640467E+03  0.12700000000E+01 0.  1.
         25    2    1    2    0    0  0.00000000000E+00  0.00000000000E+00 -0.24033876021E+03  0.27090366905E+03  0.12500431290E+03 0.  0.
    9000005    1    3    3    0    0  0.18523788487E+02  0.49519267561E+02 -0.47959511142E+02  0.71389097968E+02  0.10000000000E+01 0.  0.
    9000005    1    3    3    0    0 -0.18523788487E+02 -0.49519267561E+02 -0.19237924907E+03  0.19951457108E+03  0.10000000000E+01 0.  0.
<mgrwt>
<rscale>  0 0.12500431E+03</rscale>
<asrwt>0</asrwt>
<pdfrwt beam="2">  1        4 0.39326338E-01 0.12500431E+03</pdfrwt>
<pdfrwt beam="1">  1       -4 0.23511470E-02 0.12500431E+03</pdfrwt>
<totfact> 0.79392210E+03</totfact>
</mgrwt>
</event>
<event>
 4    1  0.3206158E-002  0.1248285E+03  0.7818608E-02  0.1235338E+00
          4   -1    0    0  501    0  0.00000000000E+00  0.00000000000E+00  0.73254340745E+02  0.73265348822E+02  0.12700000000E+01 0. -1.
         -4   -1    0    0    0  501 -0.00000000000E+00 -0.00000000000E+00 -0.53155653721E+02  0.53170823037E+02  0.12700000000E+01 0. -1.
    9000005    1    1    2    0    0 -0.19269867927E+02  0.55739438360E+02  0.30716158108E+02  0.66503347040E+02  0.10000000000E+01 0.  0.
    9000005    1    1    2    0    0  0.19269867927E+02 -0.55739438360E+02 -0.10617471083E+02  0.59932824819E+02  0.10000000000E+01 0.  0.
<mgrwt>
<rscale>  0 0.12482848E+03</rscale>
<asrwt>0</asrwt>
<pdfrwt beam="1">  1        4 0.11271912E-01 0.12482848E+03</pdfrwt>
<pdfrwt beam="2">  1       -4 0.81798065E-02 0.12482848E+03</pdfrwt>
<totfact> 0.10461870E+04</totfact>
</mgrwt>
</event>
<event>
 5    1  0.3206158E-002  0.1250017E+03  0.7818608E-02  0.1235067E+00
         -4   -1    0    0    0  501 -0.00000000000E+00  0.00000000000E+00  0.32410254508E+03  0.32410503333E+03  0.12700000000E+01 0.  1.
          4   -1    0    0  501    0  0.00000000000E+00 -0.00000000000E+00 -0.12016846929E+02  0.12083770526E+02  0.12700000000E+01 0.  1.
         25    2    1    2    0    0  0.00000000000E+00  0.00000000000E+00  0.31208569815E+03  0.33618880385E+03  0.12500171537E+03 0.  0.
    9000005    1    3    3    0    0  0.30290353884E+02  0.45262753755E+02  0.23846258886E+03  0.24460504635E+03  0.10000000000E+01 0.  0.
    9000005    1    3    3    0    0 -0.30290353884E+02 -0.45262753755E+02  0.73623109295E+02  0.91583757502E+02  0.10000000000E+01 0.  0.
<mgrwt>
<rscale>  0 0.12500172E+03</rscale>
<asrwt>0</asrwt>
<pdfrwt beam="2">  1        4 0.18540848E-02 0.12500172E+03</pdfrwt>
<pdfrwt beam="1">  1       -4 0.49867275E-01 0.12500172E+03</pdfrwt>
<totfact> 0.71268454E+03</totfact>
</mgrwt>
</event>
<event>
 5    1  0.3206158E-002  0.1249997E+03  0.7818608E-02  0.1235070E+00
         -4   -1    0    0    0  501 -0.00000000000E+00  0.00000000000E+00  0.13939290384E+03  0.13939868916E+03  0.12700000000E+01 0.  1.
          4   -1    0    0  501    0  0.00000000000E+00 -0.00000000000E+00 -0.28002400098E+02  0.28031184621E+02  0.12700000000E+01 0.  1.
         25    2    1    2    0    0  0.00000000000E+00  0.00000000000E+00  0.11139050374E+03  0.16742987379E+03  0.12499967325E+03 0.  0.
    9000005    1    3    3    0    0 -0.50902267141E+02  0.95257559839E+00  0.71548949855E+01  0.51421208880E+02  0.10000000000E+01 0.  0.
    9000005    1    3    3    0    0  0.50902267141E+02 -0.95257559839E+00  0.10423560876E+03  0.11600866491E+03  0.10000000000E+01 0.  0.
<mgrwt>
<rscale>  0 0.12499967E+03</rscale>
<asrwt>0</asrwt>
<pdfrwt beam="2">  1        4 0.43107207E-02 0.12499967E+03</pdfrwt>
<pdfrwt beam="1">  1       -4 0.21447722E-01 0.12499967E+03</pdfrwt>
<totfact> 0.95929885E+03</totfact>
</mgrwt>
</event>
<event>
 5    1  0.3206158E-002  0.1249997E+03  0.7818608E-02  0.1235070E+00
          4   -1    0    0  501    0  0.00000000000E+00  0.00000000000E+00  0.46994098808E+02  0.47011256341E+02  0.12700000000E+01 0. -1.
         -4   -1    0    0    0  501 -0.00000000000E+00 -0.00000000000E+00 -0.83084602384E+02  0.83094308188E+02  0.12700000000E+01 0. -1.
         25    2    1    2    0    0  0.00000000000E+00  0.00000000000E+00 -0.36090503576E+02  0.13010556453E+03  0.12499973389E+03 0.  0.
    9000005    1    3    3    0    0 -0.15006823830E+02 -0.12867701781E+02  0.43659061089E+02  0.47936375810E+02  0.10000000000E+01 0.  0.
    9000005    1    3    3    0    0  0.15006823830E+02  0.12867701781E+02 -0.79749564665E+02  0.82169188720E+02  0.10000000000E+01 0.  0.
<mgrwt>
<rscale>  0 0.12499973E+03</rscale>
<asrwt>0</asrwt>
<pdfrwt beam="1">  1        4 0.72319278E-02 0.12499973E+03</pdfrwt>
<pdfrwt beam="2">  1       -4 0.12784313E-01 0.12499973E+03</pdfrwt>
<totfact> 0.10342312E+04</totfact>
</mgrwt>
</event>
<event>
 5    1  0.3206158E-002  0.1249931E+03  0.7818608E-02  0.1235080E+00
         -4   -1    0    0    0  501 -0.00000000000E+00  0.00000000000E+00  0.43137261714E+01  0.44967914652E+01  0.12700000000E+01 0.  1.
          4   -1    0    0  501    0  0.00000000000E+00 -0.00000000000E+00 -0.88644217588E+03  0.88644308564E+03  0.12700000000E+01 0.  1.
         25    2    1    2    0    0  0.00000000000E+00  0.00000000000E+00 -0.88212844971E+03  0.89093987711E+03  0.12499305113E+03 0.  0.
    9000005    1    3    3    0    0  0.11199758557E+02  0.59798898954E+02 -0.54273958252E+03  0.54613972328E+03  0.10000000000E+01 0.  0.
    9000005    1    3    3    0    0 -0.11199758557E+02 -0.59798898954E+02 -0.33938886719E+03  0.34480015383E+03  0.10000000000E+01 0.  0.
<mgrwt>
<rscale>  0 0.12499305E+03</rscale>
<asrwt>0</asrwt>
<pdfrwt beam="2">  1        4 0.13638973E+00 0.12499305E+03</pdfrwt>
<pdfrwt beam="1">  1       -4 0.67780281E-03 0.12499305E+03</pdfrwt>
<totfact> 0.34513240E+03</totfact>
</mgrwt>
</event>
<event>
 5    1  0.3206158E-002  0.1249996E+03  0.7818608E-02  0.1235070E+00
         -4   -1    0    0    0  501 -0.00000000000E+00  0.00000000000E+00  0.44490824895E+03  0.44491006157E+03  0.12700000000E+01 0. -1.
          4   -1    0    0  501    0  0.00000000000E+00 -0.00000000000E+00 -0.87320815873E+01  0.88239531304E+01  0.12700000000E+01 0. -1.
         25    2    1    2    0    0  0.00000000000E+00  0.00000000000E+00  0.43617616737E+03  0.45373401470E+03  0.12499962847E+03 0.  0.
    9000005    1    3    3    0    0 -0.18215354519E+02 -0.53701362992E+02  0.12276710615E+03  0.13523460311E+03  0.10000000000E+01 0.  0.
    9000005    1    3    3    0    0  0.18215354519E+02  0.53701362992E+02  0.31340906122E+03  0.31849941159E+03  0.10000000000E+01 0.  0.
<mgrwt>
<rscale>  0 0.12499963E+03</rscale>
<asrwt>0</asrwt>
<pdfrwt beam="2">  1        4 0.13506037E-02 0.12499963E+03</pdfrwt>
<pdfrwt beam="1">  1       -4 0.68454629E-01 0.12499963E+03</pdfrwt>
<totfact> 0.59642163E+03</totfact>
</mgrwt>
</event>
<event>
 5    1  0.3206158E-002  0.1249994E+03  0.7818608E-02  0.1235070E+00
         -4   -1    0    0    0  501 -0.00000000000E+00  0.00000000000E+00  0.27246502697E+02  0.27276084932E+02  0.12700000000E+01 0. -1.
          4   -1    0    0  501    0  0.00000000000E+00 -0.00000000000E+00 -0.14325537396E+03  0.14326100330E+03  0.12700000000E+01 0. -1.
         25    2    1    2    0    0  0.00000000000E+00  0.00000000000E+00 -0.11600887126E+03  0.17053708824E+03  0.12499936101E+03 0.  0.
    9000005    1    3    3    0    0 -0.48393013213E+02  0.22262998871E+01 -0.11186195292E+03  0.12190544143E+03  0.10000000000E+01 0.  0.
    9000005    1    3    3    0    0  0.48393013213E+02 -0.22262998871E+01 -0.41469183350E+01  0.48631646802E+02  0.10000000000E+01 0.  0.
<mgrwt>
<rscale>  0 0.12499936E+03</rscale>
<asrwt>0</asrwt>
<pdfrwt beam="2">  1        4 0.22041996E-01 0.12499936E+03</pdfrwt>
<pdfrwt beam="1">  1       -4 0.41944783E-02 0.12499936E+03</pdfrwt>
<totfact> 0.95349993E+03</totfact>
</mgrwt>
</event>
<event>
 5    1  0.3206158E-002  0.1249961E+03  0.7818608E-02  0.1235075E+00
          4   -1    0    0  501    0  0.00000000000E+00  0.00000000000E+00  0.44329486760E+01  0.46112833316E+01  0.12700000000E+01 0.  1.
         -4   -1    0    0    0  501 -0.00000000000E+00 -0.00000000000E+00 -0.86357719743E+03  0.86357813127E+03  0.12700000000E+01 0.  1.
         25    2    1    2    0    0  0.00000000000E+00  0.00000000000E+00 -0.85914424875E+03  0.86818941461E+03  0.12499607783E+03 0.  0.
    9000005    1    3    3    0    0 -0.39622639748E+02  0.40022242881E+02 -0.24148872623E+03  0.24797084184E+03  0.10000000000E+01 0.  0.
    9000005    1    3    3    0    0  0.39622639748E+02 -0.40022242881E+02 -0.61765552252E+03  0.62021857277E+03  0.10000000000E+01 0.  0.
<mgrwt>
<rscale>  0 0.12499608E+03</rscale>
<asrwt>0</asrwt>
<pdfrwt beam="1">  1        4 0.69578268E-03 0.12499608E+03</pdfrwt>
<pdfrwt beam="2">  1       -4 0.13287169E+00 0.12499608E+03</pdfrwt>
<totfact> 0.35397405E+03</totfact>
</mgrwt>
</event>
<event>
 5    1  0.3206158E-002  0.1249984E+03  0.7818608E-02  0.1235072E+00
          4   -1    0    0  501    0  0.00000000000E+00  0.00000000000E+00  0.97425280071E+02  0.97433557345E+02  0.12700000000E+01 0.  1.
         -4   -1    0    0    0  501 -0.00000000000E+00 -0.00000000000E+00 -0.40073772815E+02  0.40093891899E+02  0.12700000000E+01 0.  1.
         25    2    1    2    0    0  0.00000000000E+00  0.00000000000E+00  0.57351507256E+02  0.13752744924E+03  0.12499841563E+03 0.  0.
    9000005    1    3    3    0    0 -0.15545484520E+02  0.11097411302E+02  0.94140447587E+02  0.96063721032E+02  0.10000000000E+01 0.  0.
    9000005    1    3    3    0    0  0.15545484520E+02 -0.11097411302E+02 -0.36788940331E+02  0.41463728212E+02  0.10000000000E+01 0.  0.
<mgrwt>
<rscale>  0 0.12499842E+03</rscale>
<asrwt>0</asrwt>
<pdfrwt beam="1">  1        4 0.14990689E-01 0.12499842E+03</pdfrwt>
<pdfrwt beam="2">  1       -4 0.61673803E-02 0.12499842E+03</pdfrwt>
<totfact> 0.10185433E+04</totfact>
</mgrwt>
</event>
<event>
 5    1  0.3206158E-002  0.1249998E+03  0.7818608E-02  0.1235070E+00
         -4   -1    0    0    0  501 -0.00000000000E+00  0.00000000000E+00  0.27165786968E+02  0.27195457003E+02  0.12700000000E+01 0.  1.
          4   -1    0    0  501    0  0.00000000000E+00 -0.00000000000E+00 -0.14368147561E+03  0.14368708826E+03  0.12700000000E+01 0.  1.
         25    2    1    2    0    0  0.00000000000E+00  0.00000000000E+00 -0.11651568864E+03  0.17088254526E+03  0.12499975431E+03 0.  0.
    9000005    1    3    3    0    0  0.37517256550E+02 -0.48764301406E+02 -0.43299087522E+02  0.75241694630E+02  0.10000000000E+01 0.  0.
    9000005    1    3    3    0    0 -0.37517256550E+02  0.48764301406E+02 -0.73216601116E+02  0.95640850632E+02  0.10000000000E+01 0.  0.
<mgrwt>
<rscale>  0 0.12499975E+03</rscale>
<asrwt>0</asrwt>
<pdfrwt beam="2">  1        4 0.22107556E-01 0.12499975E+03</pdfrwt>
<pdfrwt beam="1">  1       -4 0.41820660E-02 0.12499975E+03</pdfrwt>
<totfact> 0.95284923E+03</totfact>
</mgrwt>
</event>
<event>
 5    1  0.3206158E-002  0.1250014E+03  0.7818608E-02  0.1235067E+00
         -4   -1    0    0    0  501 -0.00000000000E+00  0.00000000000E+00  0.46605335242E+01  0.48304733443E+01  0.12700000000E+01 0. -1.
          4   -1    0    0  501    0  0.00000000000E+00 -0.00000000000E+00 -0.82299560437E+03  0.82299658427E+03  0.12700000000E+01 0. -1.
         25    2    1    2    0    0  0.00000000000E+00  0.00000000000E+00 -0.81833507085E+03  0.82782705761E+03  0.12500139653E+03 0.  0.
    9000005    1    3    3    0    0  0.18710291444E+02  0.21370352828E+02 -0.40525013069E+02  0.49497915817E+02  0.10000000000E+01 0.  0.
    9000005    1    3    3    0    0 -0.18710291444E+02 -0.21370352828E+02 -0.77781005778E+03  0.77832914180E+03  0.10000000000E+01 0.  0.
<mgrwt>
<rscale>  0 0.12500140E+03</rscale>
<asrwt>0</asrwt>
<pdfrwt beam="2">  1        4 0.12662774E+00 0.12500140E+03</pdfrwt>
<pdfrwt beam="1">  1       -4 0.73015348E-03 0.12500140E+03</pdfrwt>
<totfact> 0.37051123E+03</totfact>
</mgrwt>
</event>
<event>
 5    1  0.3206158E-002  0.1250000E+03  0.7818608E-02  0.1235069E+00
         -4   -1    0    0    0  501 -0.00000000000E+00  0.00000000000E+00  0.24487348460E+03  0.24487677791E+03  0.12700000000E+01 0. -1.
          4   -1    0    0  501    0  0.00000000000E+00 -0.00000000000E+00 -0.15923420645E+02  0.15973985884E+02  0.12700000000E+01 0. -1.
         25    2    1    2    0    0  0.00000000000E+00  0.00000000000E+00  0.22895006396E+03  0.26085076380E+03  0.12499995675E+03 0.  0.
    9000005    1    3    3    0    0  0.46093621892E+02 -0.33730090923E+02  0.16738726441E+03  0.17686672186E+03  0.10000000000E+01 0.  0.
    9000005    1    3    3    0    0 -0.46093621892E+02  0.33730090923E+02  0.61562799544E+02  0.83984041940E+02  0.10000000000E+01 0.  0.
<mgrwt>
<rscale>  0 0.12499996E+03</rscale>
<asrwt>0</asrwt>
<pdfrwt beam="2">  1        4 0.24539001E-02 0.12499996E+03</pdfrwt>
<pdfrwt beam="1">  1       -4 0.37676986E-01 0.12499996E+03</pdfrwt>
<totfact> 0.80786894E+03</totfact>
</mgrwt>
</event>
<event>
 5    1  0.3206158E-002  0.1250127E+03  0.7818608E-02  0.1235049E+00
         -4   -1    0    0    0  501 -0.00000000000E+00  0.00000000000E+00  0.32756929084E+03  0.32757175275E+03  0.12700000000E+01 0. -1.
          4   -1    0    0  501    0  0.00000000000E+00 -0.00000000000E+00 -0.11891054022E+02  0.11958681606E+02  0.12700000000E+01 0. -1.
         25    2    1    2    0    0  0.00000000000E+00  0.00000000000E+00  0.31567823681E+03  0.33953043435E+03  0.12501266598E+03 0.  0.
    9000005    1    3    3    0    0 -0.42920459738E+02  0.36941248358E+02  0.22965683679E+03  0.23653770181E+03  0.10000000000E+01 0.  0.
    9000005    1    3    3    0    0  0.42920459738E+02 -0.36941248358E+02  0.86021400029E+02  0.10299273255E+03  0.10000000000E+01 0.  0.
<mgrwt>
<rscale>  0 0.12501267E+03</rscale>
<asrwt>0</asrwt>
<pdfrwt beam="2">  1        4 0.18347847E-02 0.12501267E+03</pdfrwt>
<pdfrwt beam="1">  1       -4 0.50400658E-01 0.12501267E+03</pdfrwt>
<totfact> 0.70872029E+03</totfact>
</mgrwt>
</event>
<event>
 5    1  0.3206158E-002  0.1250019E+03  0.7818608E-02  0.1235066E+00
          4   -1    0    0  501    0  0.00000000000E+00  0.00000000000E+00  0.55812857805E+01  0.57239541371E+01  0.12700000000E+01 0. -1.
         -4   -1    0    0    0  501 -0.00000000000E+00 -0.00000000000E+00 -0.69092946287E+03  0.69093063007E+03  0.12700000000E+01 0. -1.
         25    2    1    2    0    0  0.00000000000E+00  0.00000000000E+00 -0.68534817709E+03  0.69665458421E+03  0.12500194338E+03 0.  0.
    9000005    1    3    3    0    0  0.61031025273E+02  0.13118727548E+02 -0.35890756017E+03  0.36429730140E+03  0.10000000000E+01 0.  0.
    9000005    1    3    3    0    0 -0.61031025273E+02 -0.13118727548E+02 -0.32644061692E+03  0.33235728280E+03  0.10000000000E+01 0.  0.
<mgrwt>
<rscale>  0 0.12500194E+03</rscale>
<asrwt>0</asrwt>
<pdfrwt beam="1">  1        4 0.86972417E-03 0.12500194E+03</pdfrwt>
<pdfrwt beam="2">  1       -4 0.10630784E+00 0.12500194E+03</pdfrwt>
<totfact> 0.43262060E+03</totfact>
</mgrwt>
</event>
<event>
 5    1  0.3206158E-002  0.1250001E+03  0.7818608E-02  0.1235069E+00
          4   -1    0    0  501    0  0.00000000000E+00  0.00000000000E+00  0.13629561820E+03  0.13630153499E+03  0.12700000000E+01 0.  1.
         -4   -1    0    0    0  501 -0.00000000000E+00 -0.00000000000E+00 -0.28639569028E+02  0.28667713793E+02  0.12700000000E+01 0.  1.
         25    2    1    2    0    0  0.00000000000E+00  0.00000000000E+00  0.10765604917E+03  0.16496924878E+03  0.12500011248E+03 0.  0.
    9000005    1    3    3    0    0  0.86053569480E+01  0.69221904952E+00 -0.27855246341E+02  0.29179549074E+02  0.10000000000E+01 0.  0.
    9000005    1    3    3    0    0 -0.86053569480E+01 -0.69221904952E+00  0.13551129551E+03  0.13578969971E+03  0.10000000000E+01 0.  0.
<mgrwt>
<rscale>  0 0.12500011E+03</rscale>
<asrwt>0</asrwt>
<pdfrwt beam="1">  1        4 0.20971176E-01 0.12500011E+03</pdfrwt>
<pdfrwt beam="2">  1       -4 0.44087078E-02 0.12500011E+03</pdfrwt>
<totfact> 0.96392973E+03</totfact>
</mgrwt>
</event>
<event>
 5    1  0.3206158E-002  0.1249986E+03  0.7818608E-02  0.1235072E+00
         -4   -1    0    0    0  501 -0.00000000000E+00  0.00000000000E+00  0.15741219252E+04  0.15741224375E+04  0.12700000000E+01 0. -1.
          4   -1    0    0  501    0  0.00000000000E+00 -0.00000000000E+00 -0.23184459709E+01  0.26434998998E+01  0.12700000000E+01 0. -1.
         25    2    1    2    0    0  0.00000000000E+00  0.00000000000E+00  0.15718034793E+04  0.15767659374E+04  0.12499857632E+03 0.  0.
    9000005    1    3    3    0    0 -0.57839513534E+02 -0.10866481883E+02  0.10510029655E+04  0.10526498578E+04  0.10000000000E+01 0.  0.
    9000005    1    3    3    0    0  0.57839513534E+02  0.10866481883E+02  0.52080051378E+03  0.52411607961E+03  0.10000000000E+01 0.  0.
<mgrwt>
<rscale>  0 0.12499858E+03</rscale>
<asrwt>0</asrwt>
<pdfrwt beam="2">  1        4 0.38172668E-03 0.12499858E+03</pdfrwt>
<pdfrwt beam="1">  1       -4 0.24219820E+00 0.12499858E+03</pdfrwt>
<totfact> 0.16470243E+03</totfact>
</mgrwt>
</event>
<event>
 5    1  0.3206158E-002  0.1250015E+03  0.7818608E-02  0.1235067E+00
         -4   -1    0    0    0  501 -0.00000000000E+00  0.00000000000E+00  0.28804308435E+03  0.28804588409E+03  0.12700000000E+01 0.  1.
          4   -1    0    0  501    0  0.00000000000E+00 -0.00000000000E+00 -0.13529050536E+02  0.13588528559E+02  0.12700000000E+01 0.  1.
         25    2    1    2    0    0  0.00000000000E+00  0.00000000000E+00  0.27451403381E+03  0.30163441265E+03  0.12500145653E+03 0.  0.
    9000005    1    3    3    0    0 -0.33238056958E+01 -0.28586369370E+02  0.34011149105E+01  0.28996478763E+02  0.10000000000E+01 0.  0.
    9000005    1    3    3    0    0  0.33238056958E+01  0.28586369370E+02  0.27111291890E+03  0.27263793389E+03  0.10000000000E+01 0.  0.
<mgrwt>
<rscale>  0 0.12500146E+03</rscale>
<asrwt>0</asrwt>
<pdfrwt beam="2">  1        4 0.20861831E-02 0.12500146E+03</pdfrwt>
<pdfrwt beam="1">  1       -4 0.44319108E-01 0.12500146E+03</pdfrwt>
<totfact> 0.75391841E+03</totfact>
</mgrwt>
</event>
<event>
 5    1  0.3206158E-002  0.1249996E+03  0.7818608E-02  0.1235070E+00
         -4   -1    0    0    0  501 -0.00000000000E+00  0.00000000000E+00  0.14516702647E+03  0.14517258168E+03  0.12700000000E+01 0. -1.
          4   -1    0    0  501    0  0.00000000000E+00 -0.00000000000E+00 -0.26887418070E+02  0.26917394943E+02  0.12700000000E+01 0. -1.
         25    2    1    2    0    0  0.00000000000E+00  0.00000000000E+00  0.11827960840E+03  0.17208997663E+03  0.12499957717E+03 0.  0.
    9000005    1    3    3    0    0 -0.14385361938E+01 -0.46083141335E+02  0.11721568656E+03  0.12596127373E+03  0.10000000000E+01 0.  0.
    9000005    1    3    3    0    0  0.14385361938E+01  0.46083141335E+02  0.10639218304E+01  0.46128702901E+02  0.10000000000E+01 0.  0.
<mgrwt>
<rscale>  0 0.12499958E+03</rscale>
<asrwt>0</asrwt>
<pdfrwt beam="2">  1        4 0.41392592E-02 0.12499958E+03</pdfrwt>
<pdfrwt beam="1">  1       -4 0.22336121E-01 0.12499958E+03</pdfrwt>
<totfact> 0.95061425E+03</totfact>
</mgrwt>
</event>
<event>
 5    1  0.3206158E-002  0.1249991E+03  0.7818608E-02  0.1235071E+00
          4   -1    0    0  501    0  0.00000000000E+00  0.00000000000E+00  0.17085326690E+01  0.21288456687E+01  0.12700000000E+01 0. -1.
         -4   -1    0    0    0  501 -0.00000000000E+00 -0.00000000000E+00 -0.20354468953E+04  0.20354472915E+04  0.12700000000E+01 0. -1.
         25    2    1    2    0    0  0.00000000000E+00  0.00000000000E+00 -0.20337383626E+04  0.20375761371E+04  0.12499914853E+03 0.  0.
    9000005    1    3    3    0    0  0.61184881702E+02  0.47050312067E+01 -0.12093762802E+04  0.12109325804E+04  0.10000000000E+01 0.  0.
    9000005    1    3    3    0    0 -0.61184881702E+02 -0.47050312067E+01 -0.82436208239E+03  0.82664355677E+03  0.10000000000E+01 0.  0.
<mgrwt>
<rscale>  0 0.12499915E+03</rscale>
<asrwt>0</asrwt>
<pdfrwt beam="1">  1        4 0.29521506E-03 0.12499915E+03</pdfrwt>
<pdfrwt beam="2">  1       -4 0.31317631E+00 0.12499915E+03</pdfrwt>
<totfact> 0.93790029E+02</totfact>
</mgrwt>
</event>
<event>
 5    1  0.3206158E-002  0.1249976E+03  0.7818608E-02  0.1235073E+00
          4   -1    0    0  501    0  0.00000000000E+00  0.00000000000E+00  0.14018132745E+02  0.14075544240E+02  0.12700000000E+01 0. -1.
         -4   -1    0    0    0  501 -0.00000000000E+00 -0.00000000000E+00 -0.27801795882E+03  0.27802085952E+03  0.12700000000E+01 0. -1.
         25    2    1    2    0    0  0.00000000000E+00  0.00000000000E+00 -0.26399982608E+03  0.29209640376E+03  0.12499760366E+03 0.  0.
    9000005    1    3    3    0    0 -0.23198702221E+02 -0.11459609337E+02  0.92359320471E+00  0.25910527885E+02  0.10000000000E+01 0.  0.
    9000005    1    3    3    0    0  0.23198702221E+02  0.11459609337E+02 -0.26492341928E+03  0.26618587587E+03  0.10000000000E+01 0.  0.
<mgrwt>
<rscale>  0 0.12499760E+03</rscale>
<asrwt>0</asrwt>
<pdfrwt beam="1">  1        4 0.21612754E-02 0.12499760E+03</pdfrwt>
<pdfrwt beam="2">  1       -4 0.42776629E-01 0.12499760E+03</pdfrwt>
<totfact> 0.76605147E+03</totfact>
</mgrwt>
</event>
<event>
 5    1  0.3206158E-002  0.1249995E+03  0.7818608E-02  0.1235070E+00
          4   -1    0    0  501    0  0.00000000000E+00  0.00000000000E+00  0.40916781456E+02  0.40936486228E+02  0.12700000000E+01 0. -1.
         -4   -1    0    0    0  501 -0.00000000000E+00 -0.00000000000E+00 -0.95420443227E+02  0.95428894396E+02  0.12700000000E+01 0. -1.
         25    2    1    2    0    0  0.00000000000E+00  0.00000000000E+00 -0.54503661771E+02  0.13636538062E+03  0.12499947154E+03 0.  0.
    9000005    1    3    3    0    0 -0.56535919349E+02  0.30317612540E+00 -0.56296227917E+02  0.79791399098E+02  0.10000000000E+01 0.  0.
    9000005    1    3    3    0    0  0.56535919349E+02 -0.30317612540E+00  0.17925661455E+01  0.56573981526E+02  0.10000000000E+01 0.  0.
<mgrwt>
<rscale>  0 0.12499947E+03</rscale>
<asrwt>0</asrwt>
<pdfrwt beam="1">  1        4 0.62970553E-02 0.12499947E+03</pdfrwt>
<pdfrwt beam="2">  1       -4 0.14682234E-01 0.12499947E+03</pdfrwt>
<totfact> 0.10209493E+04</totfact>
</mgrwt>
</event>
<event>
 5    1  0.3206158E-002  0.1249990E+03  0.7818608E-02  0.1235071E+00
          4   -1    0    0  501    0  0.00000000000E+00  0.00000000000E+00  0.73649455775E+02  0.73660404804E+02  0.12700000000E+01 0. -1.
         -4   -1    0    0    0  501 -0.00000000000E+00 -0.00000000000E+00 -0.53015075663E+02  0.53030285192E+02  0.12700000000E+01 0. -1.
         25    2    1    2    0    0  0.00000000000E+00  0.00000000000E+00  0.20634380112E+02  0.12669069000E+03  0.12499901315E+03 0.  0.
    9000005    1    3    3    0    0 -0.39803017359E+02 -0.43623364482E+02 -0.10402325842E+02  0.59970713707E+02  0.10000000000E+01 0.  0.
    9000005    1    3    3    0    0  0.39803017359E+02  0.43623364482E+02  0.31036705954E+02  0.66719976289E+02  0.10000000000E+01 0.  0.
<mgrwt>
<rscale>  0 0.12499901E+03</rscale>
<asrwt>0</asrwt>
<pdfrwt beam="1">  1        4 0.11332698E-01 0.12499901E+03</pdfrwt>
<pdfrwt beam="2">  1       -4 0.81581777E-02 0.12499901E+03</pdfrwt>
<totfact> 0.10416105E+04</totfact>
</mgrwt>
</event>
<event>
 5    1  0.3206158E-002  0.1250012E+03  0.7818608E-02  0.1235067E+00
         -4   -1    0    0    0  501 -0.00000000000E+00  0.00000000000E+00  0.11352188407E+02  0.11423006681E+02  0.12700000000E+01 0. -1.
          4   -1    0    0  501    0  0.00000000000E+00 -0.00000000000E+00 -0.34296126640E+03  0.34296361782E+03  0.12700000000E+01 0. -1.
         25    2    1    2    0    0  0.00000000000E+00  0.00000000000E+00 -0.33160907799E+03  0.35438662451E+03  0.12500119608E+03 0.  0.
    9000005    1    3    3    0    0 -0.20861360213E+02 -0.22190201457E+02 -0.32050988727E+03  0.32195525966E+03  0.10000000000E+01 0.  0.
    9000005    1    3    3    0    0  0.20861360213E+02  0.22190201457E+02 -0.11099190728E+02  0.32431364841E+02  0.10000000000E+01 0.  0.
<mgrwt>
<rscale>  0 0.12500120E+03</rscale>
<asrwt>0</asrwt>
<pdfrwt beam="2">  1        4 0.52768892E-01 0.12500120E+03</pdfrwt>
<pdfrwt beam="1">  1       -4 0.17521192E-02 0.12500120E+03</pdfrwt>
<totfact> 0.69242826E+03</totfact>
</mgrwt>
</event>
<event>
 5    1  0.3206158E-002  0.1250009E+03  0.7818608E-02  0.1235068E+00
          4   -1    0    0  501    0  0.00000000000E+00  0.00000000000E+00  0.37559793342E+03  0.37560008053E+03  0.12700000000E+01 0. -1.
         -4   -1    0    0    0  501 -0.00000000000E+00 -0.00000000000E+00 -0.10359274963E+02  0.10436832746E+02  0.12700000000E+01 0. -1.
         25    2    1    2    0    0  0.00000000000E+00  0.00000000000E+00  0.36523865846E+03  0.38603691327E+03  0.12500088310E+03 0.  0.
    9000005    1    3    3    0    0  0.49065976240E+02  0.33432443418E+02  0.24282932932E+03  0.24998456247E+03  0.10000000000E+01 0.  0.
    9000005    1    3    3    0    0 -0.49065976240E+02 -0.33432443418E+02  0.12240932914E+03  0.13605235080E+03  0.10000000000E+01 0.  0.
<mgrwt>
<rscale>  0 0.12500088E+03</rscale>
<asrwt>0</asrwt>
<pdfrwt beam="1">  1        4 0.57790420E-01 0.12500088E+03</pdfrwt>
<pdfrwt beam="2">  1       -4 0.15998660E-02 0.12500088E+03</pdfrwt>
<totfact> 0.65932579E+03</totfact>
</mgrwt>
</event>
<event>
 5    1  0.3206158E-002  0.1249989E+03  0.7818608E-02  0.1235071E+00
         -4   -1    0    0    0  501 -0.00000000000E+00  0.00000000000E+00  0.33599654580E+03  0.33599894596E+03  0.12700000000E+01 0.  1.
          4   -1    0    0  501    0  0.00000000000E+00 -0.00000000000E+00 -0.11588525567E+02  0.11657908252E+02  0.12700000000E+01 0.  1.
         25    2    1    2    0    0  0.00000000000E+00  0.00000000000E+00  0.32440802023E+03  0.34765685422E+03  0.12499889877E+03 0.  0.
    9000005    1    3    3    0    0 -0.27352504502E+01  0.39256304029E+02  0.27186084356E+02  0.47839546232E+02  0.10000000000E+01 0.  0.
    9000005    1    3    3    0    0  0.27352504502E+01 -0.39256304029E+02  0.29722193588E+03  0.29981730798E+03  0.10000000000E+01 0.  0.
<mgrwt>
<rscale>  0 0.12499890E+03</rscale>
<asrwt>0</asrwt>
<pdfrwt beam="2">  1        4 0.17883718E-02 0.12499890E+03</pdfrwt>
<pdfrwt beam="1">  1       -4 0.51697300E-01 0.12499890E+03</pdfrwt>
<totfact> 0.69984805E+03</totfact>
</mgrwt>
</event>
<event>
 5    1  0.3206158E-002  0.1250034E+03  0.7818608E-02  0.1235064E+00
          4   -1    0    0  501    0  0.00000000000E+00  0.00000000000E+00  0.91652310680E+01  0.92528028472E+01  0.12700000000E+01 0. -1.
         -4   -1    0    0    0  501 -0.00000000000E+00 -0.00000000000E+00 -0.42411150264E+03  0.42411340414E+03  0.12700000000E+01 0. -1.
         25    2    1    2    0    0  0.00000000000E+00  0.00000000000E+00 -0.41494627158E+03  0.43336620699E+03  0.12500344422E+03 0.  0.
    9000005    1    3    3    0    0 -0.29711542095E+01 -0.50314752918E+02 -0.33556142787E+03  0.33932708998E+03  0.10000000000E+01 0.  0.
    9000005    1    3    3    0    0  0.29711542095E+01  0.50314752918E+02 -0.79384843704E+02  0.94039117012E+02  0.10000000000E+01 0.  0.
<mgrwt>
<rscale>  0 0.12500344E+03</rscale>
<asrwt>0</asrwt>
<pdfrwt beam="1">  1        4 0.14169184E-02 0.12500344E+03</pdfrwt>
<pdfrwt beam="2">  1       -4 0.65254791E-01 0.12500344E+03</pdfrwt>
<totfact> 0.61427389E+03</totfact>
</mgrwt>
</event>
<event>
 5    1  0.3206158E-002  0.1249997E+03  0.7818608E-02  0.1235070E+00
         -4   -1    0    0    0  501 -0.00000000000E+00  0.00000000000E+00  0.10203658894E+03  0.10204449217E+03  0.12700000000E+01 0. -1.
          4   -1    0    0  501    0  0.00000000000E+00 -0.00000000000E+00 -0.38262750272E+02  0.38283821104E+02  0.12700000000E+01 0. -1.
         25    2    1    2    0    0  0.00000000000E+00  0.00000000000E+00  0.63773838669E+02  0.14032831328E+03  0.12499973203E+03 0.  0.
    9000005    1    3    3    0    0  0.30853454846E+02 -0.80124593324E+01 -0.28454756205E+02  0.42741178402E+02  0.10000000000E+01 0.  0.
    9000005    1    3    3    0    0 -0.30853454846E+02  0.80124593324E+01  0.92228594874E+02  0.97587134874E+02  0.10000000000E+01 0.  0.
<mgrwt>
<rscale>  0 0.12499973E+03</rscale>
<asrwt>0</asrwt>
<pdfrwt beam="2">  1        4 0.58888058E-02 0.12499973E+03</pdfrwt>
<pdfrwt beam="1">  1       -4 0.15700165E-01 0.12499973E+03</pdfrwt>
<totfact> 0.10126847E+04</totfact>
</mgrwt>
</event>
<event>
 5    1  0.3206158E-002  0.1249836E+03  0.7818608E-02  0.1235095E+00
          4   -1    0    0  501    0  0.00000000000E+00  0.00000000000E+00  0.36406072733E+02  0.36428217523E+02  0.12700000000E+01 0. -1.
         -4   -1    0    0    0  501 -0.00000000000E+00 -0.00000000000E+00 -0.10721004813E+03  0.10721757002E+03  0.12700000000E+01 0. -1.
         25    2    1    2    0    0  0.00000000000E+00  0.00000000000E+00 -0.70803975397E+02  0.14364578754E+03  0.12498363631E+03 0.  0.
    9000005    1    3    3    0    0 -0.10956448457E+02  0.60143105011E+02 -0.50254010677E+02  0.79143555848E+02  0.10000000000E+01 0.  0.
    9000005    1    3    3    0    0  0.10956448457E+02 -0.60143105011E+02 -0.20549964720E+02  0.64502231691E+02  0.10000000000E+01 0.  0.
<mgrwt>
<rscale>  0 0.12498364E+03</rscale>
<asrwt>0</asrwt>
<pdfrwt beam="1">  1        4 0.56032164E-02 0.12498364E+03</pdfrwt>
<pdfrwt beam="2">  1       -4 0.16496136E-01 0.12498364E+03</pdfrwt>
<totfact> 0.10062284E+04</totfact>
</mgrwt>
</event>
<event>
 5    1  0.3206158E-002  0.1249976E+03  0.7818608E-02  0.1235073E+00
          4   -1    0    0  501    0  0.00000000000E+00  0.00000000000E+00  0.29989608630E+03  0.29989877539E+03  0.12700000000E+01 0. -1.
         -4   -1    0    0    0  501 -0.00000000000E+00 -0.00000000000E+00 -0.12991138590E+02  0.13053067910E+02  0.12700000000E+01 0. -1.
         25    2    1    2    0    0  0.00000000000E+00  0.00000000000E+00  0.28690494771E+03  0.31295184330E+03  0.12499762879E+03 0.  0.
    9000005    1    3    3    0    0 -0.75627144254E+01  0.86803111748E+01  0.29723032213E+03  0.29745488203E+03  0.10000000000E+01 0.  0.
    9000005    1    3    3    0    0  0.75627144254E+01 -0.86803111748E+01 -0.10325374418E+02  0.15496961265E+02  0.10000000000E+01 0.  0.
<mgrwt>
<rscale>  0 0.12499763E+03</rscale>
<asrwt>0</asrwt>
<pdfrwt beam="1">  1        4 0.46142822E-01 0.12499763E+03</pdfrwt>
<pdfrwt beam="2">  1       -4 0.20036077E-02 0.12499763E+03</pdfrwt>
<totfact> 0.74006223E+03</totfact>
</mgrwt>
</event>
<event>
 5    1  0.3206158E-002  0.1250065E+03  0.7818608E-02  0.1235059E+00
          4   -1    0    0  501    0  0.00000000000E+00  0.00000000000E+00  0.53573514577E+02  0.53588565610E+02  0.12700000000E+01 0.  1.
         -4   -1    0    0    0  501 -0.00000000000E+00 -0.00000000000E+00 -0.72890564985E+02  0.72901627992E+02  0.12700000000E+01 0.  1.
         25    2    1    2    0    0  0.00000000000E+00  0.00000000000E+00 -0.19317050408E+02  0.12649019360E+03  0.12500648240E+03 0.  0.
    9000005    1    3    3    0    0  0.58692520954E+02 -0.13668809119E+02 -0.26408146583E+02  0.65803028537E+02  0.10000000000E+01 0.  0.
    9000005    1    3    3    0    0 -0.58692520954E+02  0.13668809119E+02  0.70910961748E+01  0.60687165065E+02  0.10000000000E+01 0.  0.
<mgrwt>
<rscale>  0 0.12500648E+03</rscale>
<asrwt>0</asrwt>
<pdfrwt beam="1">  1        4 0.82440879E-02 0.12500648E+03</pdfrwt>
<pdfrwt beam="2">  1       -4 0.11215942E-01 0.12500648E+03</pdfrwt>
<totfact> 0.10418717E+04</totfact>
</mgrwt>
</event>
<event>
 5    1  0.3206158E-002  0.1250197E+03  0.7818608E-02  0.1235039E+00
          4   -1    0    0  501    0  0.00000000000E+00  0.00000000000E+00  0.80080830013E+03  0.80080930717E+03  0.12700000000E+01 0. -1.
         -4   -1    0    0    0  501 -0.00000000000E+00 -0.00000000000E+00 -0.47957545631E+01  0.49610645863E+01  0.12700000000E+01 0. -1.
         25    2    1    2    0    0  0.00000000000E+00  0.00000000000E+00  0.79601254556E+03  0.80577037176E+03  0.12501967568E+03 0.  0.
    9000005    1    3    3    0    0 -0.21719444851E+02 -0.13813859708E+02  0.76509257819E+03  0.76552610027E+03  0.10000000000E+01 0.  0.
    9000005    1    3    3    0    0  0.21719444851E+02  0.13813859708E+02  0.30919967378E+02  0.40244271484E+02  0.10000000000E+01 0.  0.
<mgrwt>
<rscale>  0 0.12501968E+03</rscale>
<asrwt>0</asrwt>
<pdfrwt beam="1">  1        4 0.12321420E+00 0.12501968E+03</pdfrwt>
<pdfrwt beam="2">  1       -4 0.75060125E-03 0.12501968E+03</pdfrwt>
<totfact> 0.37992046E+03</totfact>
</mgrwt>
</event>
<event>
 5    1  0.3206158E-002  0.1249984E+03  0.7818608E-02  0.1235072E+00
         -4   -1    0    0    0  501 -0.00000000000E+00  0.00000000000E+00  0.16751493814E+03  0.16751975227E+03  0.12700000000E+01 0.  1.
          4   -1    0    0  501    0  0.00000000000E+00 -0.00000000000E+00 -0.23295772868E+02  0.23330365053E+02  0.12700000000E+01 0.  1.
         25    2    1    2    0    0  0.00000000000E+00  0.00000000000E+00  0.14421916528E+03  0.19085011732E+03  0.12499839859E+03 0.  0.
    9000005    1    3    3    0    0  0.52460437808E+02  0.31136613126E+02  0.51423350957E+02  0.79793152811E+02  0.10000000000E+01 0.  0.
    9000005    1    3    3    0    0 -0.52460437808E+02 -0.31136613126E+02  0.92795814319E+02  0.11105696451E+03  0.10000000000E+01 0.  0.
<mgrwt>
<rscale>  0 0.12499840E+03</rscale>
<asrwt>0</asrwt>
<pdfrwt beam="2">  1        4 0.35869964E-02 0.12499840E+03</pdfrwt>
<pdfrwt beam="1">  1       -4 0.25774560E-01 0.12499840E+03</pdfrwt>
<totfact> 0.91702896E+03</totfact>
</mgrwt>
</event>
<event>
 5    1  0.3206158E-002  0.1250018E+03  0.7818608E-02  0.1235067E+00
          4   -1    0    0  501    0  0.00000000000E+00  0.00000000000E+00  0.13643643061E+02  0.13702623689E+02  0.12700000000E+01 0.  1.
         -4   -1    0    0    0  501 -0.00000000000E+00 -0.00000000000E+00 -0.28563571975E+03  0.28563854308E+03  0.12700000000E+01 0.  1.
         25    2    1    2    0    0  0.00000000000E+00  0.00000000000E+00 -0.27199207669E+03  0.29934116677E+03  0.12500177737E+03 0.  0.
    9000005    1    3    3    0    0 -0.32297152243E+02  0.10547718162E+00 -0.78799767614E+01  0.33259753490E+02  0.10000000000E+01 0.  0.
    9000005    1    3    3    0    0  0.32297152243E+02 -0.10547718162E+00 -0.26411209992E+03  0.26608141328E+03  0.10000000000E+01 0.  0.
<mgrwt>
<rscale>  0 0.12500178E+03</rscale>
<asrwt>0</asrwt>
<pdfrwt beam="1">  1        4 0.21037764E-02 0.12500178E+03</pdfrwt>
<pdfrwt beam="2">  1       -4 0.43948706E-01 0.12500178E+03</pdfrwt>
<totfact> 0.75678572E+03</totfact>
</mgrwt>
</event>
<event>
 5    1  0.3206158E-002  0.1250010E+03  0.7818608E-02  0.1235068E+00
          4   -1    0    0  501    0  0.00000000000E+00  0.00000000000E+00  0.34220338236E+01  0.36500980109E+01  0.12700000000E+01 0.  1.
         -4   -1    0    0    0  501 -0.00000000000E+00 -0.00000000000E+00 -0.11044780525E+04  0.11044787827E+04  0.12700000000E+01 0.  1.
         25    2    1    2    0    0  0.00000000000E+00  0.00000000000E+00 -0.11010560187E+04  0.11081288807E+04  0.12500103968E+03 0.  0.
    9000005    1    3    3    0    0  0.33998441888E+02  0.31995203677E+02 -0.18226100825E+03  0.18814797962E+03  0.10000000000E+01 0.  0.
    9000005    1    3    3    0    0 -0.33998441888E+02 -0.31995203677E+02 -0.91879501047E+03  0.91998090110E+03  0.10000000000E+01 0.  0.
<mgrwt>
<rscale>  0 0.12500104E+03</rscale>
<asrwt>0</asrwt>
<pdfrwt beam="1">  1        4 0.54406719E-03 0.12500104E+03</pdfrwt>
<pdfrwt beam="2">  1       -4 0.16993702E+00 0.12500104E+03</pdfrwt>
<totfact> 0.27246128E+03</totfact>
</mgrwt>
</event>
<event>
 5    1  0.3206158E-002  0.1250005E+03  0.7818608E-02  0.1235068E+00
          4   -1    0    0  501    0  0.00000000000E+00  0.00000000000E+00  0.12966003369E+03  0.12966625327E+03  0.12700000000E+01 0. -1.
         -4   -1    0    0    0  501 -0.00000000000E+00 -0.00000000000E+00 -0.30106780105E+02  0.30133554525E+02  0.12700000000E+01 0. -1.
         25    2    1    2    0    0  0.00000000000E+00  0.00000000000E+00  0.99553253587E+02  0.15979980779E+03  0.12500051309E+03 0.  0.
    9000005    1    3    3    0    0  0.23899831962E+02  0.10973831905E+02 -0.22694345900E+02  0.34751407027E+02  0.10000000000E+01 0.  0.
    9000005    1    3    3    0    0 -0.23899831962E+02 -0.10973831905E+02  0.12224759949E+03  0.12504840077E+03  0.10000000000E+01 0.  0.
<mgrwt>
<rscale>  0 0.12500051E+03</rscale>
<asrwt>0</asrwt>
<pdfrwt beam="1">  1        4 0.19950236E-01 0.12500051E+03</pdfrwt>
<pdfrwt beam="2">  1       -4 0.46343503E-02 0.12500051E+03</pdfrwt>
<totfact> 0.97380271E+03</totfact>
</mgrwt>
</event>
<event>
 5    1  0.3206158E-002  0.1250003E+03  0.7818608E-02  0.1235069E+00
         -4   -1    0    0    0  501 -0.00000000000E+00  0.00000000000E+00  0.79957211441E+01  0.80959531011E+01  0.12700000000E+01 0.  1.
          4   -1    0    0  501    0  0.00000000000E+00 -0.00000000000E+00 -0.48540107355E+03  0.48540273496E+03  0.12700000000E+01 0.  1.
         25    2    1    2    0    0  0.00000000000E+00  0.00000000000E+00 -0.47740535241E+03  0.49349868806E+03  0.12500033844E+03 0.  0.
    9000005    1    3    3    0    0 -0.95527590860E+01  0.57953822267E+02 -0.15445513652E+03  0.16524917524E+03  0.10000000000E+01 0.  0.
    9000005    1    3    3    0    0  0.95527590860E+01 -0.57953822267E+02 -0.32295021589E+03  0.32824951282E+03  0.10000000000E+01 0.  0.
<mgrwt>
<rscale>  0 0.12500034E+03</rscale>
<asrwt>0</asrwt>
<pdfrwt beam="2">  1        4 0.74684903E-01 0.12500034E+03</pdfrwt>
<pdfrwt beam="1">  1       -4 0.12379493E-02 0.12500034E+03</pdfrwt>
<totfact> 0.56371930E+03</totfact>
</mgrwt>
</event>
<event>
 5    1  0.3206158E-002  0.1250042E+03  0.7818608E-02  0.1235063E+00
         -4   -1    0    0    0  501 -0.00000000000E+00  0.00000000000E+00  0.27557847787E+03  0.27558140424E+03  0.12700000000E+01 0. -1.
          4   -1    0    0  501    0  0.00000000000E+00 -0.00000000000E+00 -0.14144236987E+02  0.14201138685E+02  0.12700000000E+01 0. -1.
         25    2    1    2    0    0  0.00000000000E+00  0.00000000000E+00  0.26143424088E+03  0.28978254293E+03  0.12500423945E+03 0.  0.
    9000005    1    3    3    0    0 -0.10335554292E+02  0.12009745568E+02  0.27085609099E+03  0.27132099016E+03  0.10000000000E+01 0.  0.
    9000005    1    3    3    0    0  0.10335554292E+02 -0.12009745568E+02 -0.94218501129E+01  0.18461552770E+02  0.10000000000E+01 0.  0.
<mgrwt>
<rscale>  0 0.12500424E+03</rscale>
<asrwt>0</asrwt>
<pdfrwt beam="2">  1        4 0.21806388E-02 0.12500424E+03</pdfrwt>
<pdfrwt beam="1">  1       -4 0.42401288E-01 0.12500424E+03</pdfrwt>
<totfact> 0.76891396E+03</totfact>
</mgrwt>
</event>
<event>
 5    1  0.3206158E-002  0.1250017E+03  0.7818608E-02  0.1235067E+00
         -4   -1    0    0    0  501 -0.00000000000E+00  0.00000000000E+00  0.17501972151E+03  0.17502432922E+03  0.12700000000E+01 0.  1.
          4   -1    0    0  501    0  0.00000000000E+00 -0.00000000000E+00 -0.22296533045E+02  0.22332673056E+02  0.12700000000E+01 0.  1.
         25    2    1    2    0    0  0.00000000000E+00  0.00000000000E+00  0.15272318847E+03  0.19735700227E+03  0.12500165619E+03 0.  0.
    9000005    1    3    3    0    0 -0.48452252948E+02  0.24299648756E+02  0.12546462906E+03  0.13667650453E+03  0.10000000000E+01 0.  0.
    9000005    1    3    3    0    0  0.48452252948E+02 -0.24299648756E+02  0.27258559408E+02  0.60680497743E+02  0.10000000000E+01 0.  0.
<mgrwt>
<rscale>  0 0.12500166E+03</rscale>
<asrwt>0</asrwt>
<pdfrwt beam="2">  1        4 0.34333705E-02 0.12500166E+03</pdfrwt>
<pdfrwt beam="1">  1       -4 0.26929244E-01 0.12500166E+03</pdfrwt>
<totfact> 0.90579387E+03</totfact>
</mgrwt>
</event>
<event>
 5    1  0.3206158E-002  0.1249988E+03  0.7818608E-02  0.1235071E+00
         -4   -1    0    0    0  501 -0.00000000000E+00  0.00000000000E+00  0.99780907120E+02  0.99788989001E+02  0.12700000000E+01 0. -1.
          4   -1    0    0  501    0  0.00000000000E+00 -0.00000000000E+00 -0.39127532725E+02  0.39148138106E+02  0.12700000000E+01 0. -1.
         25    2    1    2    0    0  0.00000000000E+00  0.00000000000E+00  0.60653374395E+02  0.13893712711E+03  0.12499877385E+03 0.  0.
    9000005    1    3    3    0    0  0.15516438309E+02  0.14165506480E+02  0.95742983548E+02  0.98026222667E+02  0.10000000000E+01 0.  0.
    9000005    1    3    3    0    0 -0.15516438309E+02 -0.14165506480E+02 -0.35089609153E+02  0.40910904440E+02  0.10000000000E+01 0.  0.
<mgrwt>
<rscale>  0 0.12499877E+03</rscale>
<asrwt>0</asrwt>
<pdfrwt beam="2">  1        4 0.60218272E-02 0.12499877E+03</pdfrwt>
<pdfrwt beam="1">  1       -4 0.15353115E-01 0.12499877E+03</pdfrwt>
<totfact> 0.10155943E+04</totfact>
</mgrwt>
</event>
<event>
 5    1  0.3206158E-002  0.1250006E+03  0.7818608E-02  0.1235068E+00
          4   -1    0    0  501    0  0.00000000000E+00  0.00000000000E+00  0.41822710969E+02  0.41841989112E+02  0.12700000000E+01 0.  1.
         -4   -1    0    0    0  501 -0.00000000000E+00 -0.00000000000E+00 -0.93356006023E+02  0.93364644060E+02  0.12700000000E+01 0.  1.
         25    2    1    2    0    0  0.00000000000E+00  0.00000000000E+00 -0.51533295053E+02  0.13520663317E+03  0.12500061262E+03 0.  0.
    9000005    1    3    3    0    0 -0.52503165987E+02  0.29099164093E+02 -0.44561954272E+02  0.74767048612E+02  0.10000000000E+01 0.  0.
    9000005    1    3    3    0    0  0.52503165987E+02 -0.29099164093E+02 -0.69713407813E+01  0.60439584561E+02  0.10000000000E+01 0.  0.
<mgrwt>
<rscale>  0 0.12500061E+03</rscale>
<asrwt>0</asrwt>
<pdfrwt beam="1">  1        4 0.64364107E-02 0.12500061E+03</pdfrwt>
<pdfrwt beam="2">  1       -4 0.14364610E-01 0.12500061E+03</pdfrwt>
<totfact> 0.10233576E+04</totfact>
</mgrwt>
</event>
<event>
 5    1  0.3206158E-002  0.1249991E+03  0.7818608E-02  0.1235071E+00
          4   -1    0    0  501    0  0.00000000000E+00  0.00000000000E+00  0.14345749722E+03  0.14346311863E+03  0.12700000000E+01 0. -1.
         -4   -1    0    0    0  501 -0.00000000000E+00 -0.00000000000E+00 -0.27207971487E+02  0.27237595570E+02  0.12700000000E+01 0. -1.
         25    2    1    2    0    0  0.00000000000E+00  0.00000000000E+00  0.11624952573E+03  0.17070071420E+03  0.12499912638E+03 0.  0.
    9000005    1    3    3    0    0  0.12080515509E+02 -0.43049711725E+02  0.11774413536E+03  0.12595196682E+03  0.10000000000E+01 0.  0.
    9000005    1    3    3    0    0 -0.12080515509E+02  0.43049711725E+02 -0.14946096262E+01  0.44748747384E+02  0.10000000000E+01 0.  0.
<mgrwt>
<rscale>  0 0.12499913E+03</rscale>
<asrwt>0</asrwt>
<pdfrwt beam="1">  1        4 0.22073096E-01 0.12499913E+03</pdfrwt>
<pdfrwt beam="2">  1       -4 0.41885529E-02 0.12499913E+03</pdfrwt>
<totfact> 0.95320062E+03</totfact>
</mgrwt>
</event>
<event>
 5    1  0.3206158E-002  0.1249963E+03  0.7818608E-02  0.1235075E+00
         -4   -1    0    0    0  501 -0.00000000000E+00  0.00000000000E+00  0.25567612845E+03  0.25567928262E+03  0.12700000000E+01 0.  1.
          4   -1    0    0  501    0  0.00000000000E+00 -0.00000000000E+00 -0.15247564129E+02  0.15300363129E+02  0.12700000000E+01 0.  1.
         25    2    1    2    0    0  0.00000000000E+00  0.00000000000E+00  0.24042856432E+03  0.27097964575E+03  0.12499629541E+03 0.  0.
    9000005    1    3    3    0    0  0.17270261104E+02  0.39635103266E+02  0.22398552588E+02  0.48702140482E+02  0.10000000000E+01 0.  0.
    9000005    1    3    3    0    0 -0.17270261104E+02 -0.39635103266E+02  0.21803001174E+03  0.22227750526E+03  0.10000000000E+01 0.  0.
<mgrwt>
<rscale>  0 0.12499630E+03</rscale>
<asrwt>0</asrwt>
<pdfrwt beam="2">  1        4 0.23500834E-02 0.12499630E+03</pdfrwt>
<pdfrwt beam="1">  1       -4 0.39339089E-01 0.12499630E+03</pdfrwt>
<totfact> 0.79396039E+03</totfact>
</mgrwt>
</event>
<event>
 5    1  0.3206158E-002  0.1250024E+03  0.7818608E-02  0.1235066E+00
          4   -1    0    0  501    0  0.00000000000E+00  0.00000000000E+00  0.16995993572E+02  0.17043376939E+02  0.12700000000E+01 0.  1.
         -4   -1    0    0    0  501 -0.00000000000E+00 -0.00000000000E+00 -0.22947322488E+03  0.22947673921E+03  0.12700000000E+01 0.  1.
         25    2    1    2    0    0  0.00000000000E+00  0.00000000000E+00 -0.21247723131E+03  0.24652011615E+03  0.12500237534E+03 0.  0.
    9000005    1    3    3    0    0 -0.81032734526E+01  0.61959108890E+02 -0.10800721015E+03  0.12478442074E+03  0.10000000000E+01 0.  0.
    9000005    1    3    3    0    0  0.81032734526E+01 -0.61959108890E+02 -0.10447002116E+03  0.12173569541E+03  0.10000000000E+01 0.  0.
<mgrwt>
<rscale>  0 0.12500238E+03</rscale>
<asrwt>0</asrwt>
<pdfrwt beam="1">  1        4 0.26186836E-02 0.12500238E+03</pdfrwt>
<pdfrwt beam="2">  1       -4 0.35307486E-01 0.12500238E+03</pdfrwt>
<totfact> 0.82831412E+03</totfact>
</mgrwt>
</event>
<event>
 5    1  0.3206158E-002  0.1249993E+03  0.7818608E-02  0.1235070E+00
          4   -1    0    0  501    0  0.00000000000E+00  0.00000000000E+00  0.15252185965E+02  0.15304969020E+02  0.12700000000E+01 0.  1.
         -4   -1    0    0    0  501 -0.00000000000E+00 -0.00000000000E+00 -0.25561118179E+03  0.25561433675E+03  0.12700000000E+01 0.  1.
         25    2    1    2    0    0  0.00000000000E+00  0.00000000000E+00 -0.24035899582E+03  0.27091930577E+03  0.12499929347E+03 0.  0.
    9000005    1    3    3    0    0 -0.61320571272E+02 -0.20503964268E+01 -0.94462684605E+02  0.11264375424E+03  0.10000000000E+01 0.  0.
    9000005    1    3    3    0    0  0.61320571272E+02  0.20503964268E+01 -0.14589631122E+03  0.15827555153E+03  0.10000000000E+01 0.  0.
<mgrwt>
<rscale>  0 0.12499929E+03</rscale>
<asrwt>0</asrwt>
<pdfrwt beam="1">  1        4 0.23507933E-02 0.12499929E+03</pdfrwt>
<pdfrwt beam="2">  1       -4 0.39329097E-01 0.12499929E+03</pdfrwt>
<totfact> 0.79398948E+03</totfact>
</mgrwt>
</event>
<event>
 5    1  0.3206158E-002  0.1250027E+03  0.7818608E-02  0.1235065E+00
          4   -1    0    0  501    0  0.00000000000E+00  0.00000000000E+00  0.11719763863E+02  0.11788374146E+02  0.12700000000E+01 0. -1.
         -4   -1    0    0    0  501 -0.00000000000E+00 -0.00000000000E+00 -0.33227599923E+03  0.33227842627E+03  0.12700000000E+01 0. -1.
         25    2    1    2    0    0  0.00000000000E+00  0.00000000000E+00 -0.32055623536E+03  0.34406680041E+03  0.12500265243E+03 0.  0.
    9000005    1    3    3    0    0 -0.34444089874E+02  0.51389997448E+02 -0.13595510326E+03  0.14937241133E+03  0.10000000000E+01 0.  0.
    9000005    1    3    3    0    0  0.34444089874E+02 -0.51389997448E+02 -0.18460113210E+03  0.19469438908E+03  0.10000000000E+01 0.  0.
<mgrwt>
<rscale>  0 0.12500265E+03</rscale>
<asrwt>0</asrwt>
<pdfrwt beam="1">  1        4 0.18085052E-02 0.12500265E+03</pdfrwt>
<pdfrwt beam="2">  1       -4 0.51124842E-01 0.12500265E+03</pdfrwt>
<totfact> 0.70378121E+03</totfact>
</mgrwt>
</event>
<event>
 5    1  0.3206158E-002  0.1250058E+03  0.7818608E-02  0.1235060E+00
         -4   -1    0    0    0  501 -0.00000000000E+00  0.00000000000E+00  0.86558574399E+02  0.86567890710E+02  0.12700000000E+01 0.  1.
          4   -1    0    0  501    0  0.00000000000E+00 -0.00000000000E+00 -0.45111917236E+02  0.45129790346E+02  0.12700000000E+01 0.  1.
         25    2    1    2    0    0  0.00000000000E+00  0.00000000000E+00  0.41446657163E+02  0.13169768106E+03  0.12500581509E+03 0.  0.
    9000005    1    3    3    0    0 -0.52772556130E+02 -0.17920021169E-01 -0.14545161901E+02  0.54749472476E+02  0.10000000000E+01 0.  0.
    9000005    1    3    3    0    0  0.52772556130E+02  0.17920021169E-01  0.55991819064E+02  0.76948208580E+02  0.10000000000E+01 0.  0.
<mgrwt>
<rscale>  0 0.12500582E+03</rscale>
<asrwt>0</asrwt>
<pdfrwt beam="2">  1        4 0.69423866E-02 0.12500582E+03</pdfrwt>
<pdfrwt beam="1">  1       -4 0.13318795E-01 0.12500582E+03</pdfrwt>
<totfact> 0.10306803E+04</totfact>
</mgrwt>
</event>
<event>
 5    1  0.3206158E-002  0.1249564E+03  0.7818608E-02  0.1235137E+00
          4   -1    0    0  501    0  0.00000000000E+00  0.00000000000E+00  0.53235519042E+02  0.53250665607E+02  0.12700000000E+01 0. -1.
         -4   -1    0    0    0  501 -0.00000000000E+00 -0.00000000000E+00 -0.73294554219E+02  0.73305556257E+02  0.12700000000E+01 0. -1.
         25    2    1    2    0    0  0.00000000000E+00  0.00000000000E+00 -0.20059035178E+02  0.12655622186E+03  0.12495644201E+03 0.  0.
    9000005    1    3    3    0    0  0.28771625891E+01  0.61065018164E+02 -0.23051560793E+02  0.65342091817E+02  0.10000000000E+01 0.  0.
    9000005    1    3    3    0    0 -0.28771625891E+01 -0.61065018164E+02  0.29925256150E+01  0.61214130048E+02  0.10000000000E+01 0.  0.
<mgrwt>
<rscale>  0 0.12495644E+03</rscale>
<asrwt>0</asrwt>
<pdfrwt beam="1">  1        4 0.81920913E-02 0.12495644E+03</pdfrwt>
<pdfrwt beam="2">  1       -4 0.11278097E-01 0.12495644E+03</pdfrwt>
<totfact> 0.10429052E+04</totfact>
</mgrwt>
</event>
<event>
 5    1  0.3206158E-002  0.1249998E+03  0.7818608E-02  0.1235070E+00
         -4   -1    0    0    0  501 -0.00000000000E+00  0.00000000000E+00  0.48553377233E+02  0.48569983948E+02  0.12700000000E+01 0.  1.
          4   -1    0    0  501    0  0.00000000000E+00 -0.00000000000E+00 -0.80417087261E+02  0.80427114977E+02  0.12700000000E+01 0.  1.
         25    2    1    2    0    0  0.00000000000E+00  0.00000000000E+00 -0.31863710028E+02  0.12899709892E+03  0.12499982206E+03 0.  0.
    9000005    1    3    3    0    0  0.39501721042E+02 -0.41651027787E+02  0.95570637118E+01  0.58202504652E+02  0.10000000000E+01 0.  0.
    9000005    1    3    3    0    0 -0.39501721042E+02  0.41651027787E+02 -0.41420773740E+02  0.70794594273E+02  0.10000000000E+01 0.  0.
<mgrwt>
<rscale>  0 0.12499982E+03</rscale>
<asrwt>0</asrwt>
<pdfrwt beam="2">  1        4 0.12373908E-01 0.12499982E+03</pdfrwt>
<pdfrwt beam="1">  1       -4 0.74717992E-02 0.12499982E+03</pdfrwt>
<totfact> 0.10366051E+04</totfact>
</mgrwt>
</event>
<event>
 5    1  0.3206158E-002  0.1250080E+03  0.7818608E-02  0.1235057E+00
          4   -1    0    0  501    0  0.00000000000E+00  0.00000000000E+00  0.10044097298E+02  0.10124069860E+02  0.12700000000E+01 0.  1.
         -4   -1    0    0    0  501 -0.00000000000E+00 -0.00000000000E+00 -0.38733668317E+03  0.38733876520E+03  0.12700000000E+01 0.  1.
         25    2    1    2    0    0  0.00000000000E+00  0.00000000000E+00 -0.37729258587E+03  0.39746283506E+03  0.12500803935E+03 0.  0.
    9000005    1    3    3    0    0 -0.52806106354E+02 -0.28818480936E+02 -0.24248814136E+03  0.24984092622E+03  0.10000000000E+01 0.  0.
    9000005    1    3    3    0    0  0.52806106354E+02  0.28818480936E+02 -0.13480444451E+03  0.14762190884E+03  0.10000000000E+01 0.  0.
<mgrwt>
<rscale>  0 0.12500804E+03</rscale>
<asrwt>0</asrwt>
<pdfrwt beam="1">  1        4 0.15515579E-02 0.12500804E+03</pdfrwt>
<pdfrwt beam="2">  1       -4 0.59596559E-01 0.12500804E+03</pdfrwt>
<totfact> 0.64788805E+03</totfact>
</mgrwt>
</event>
<event>
 5    1  0.3206158E-002  0.1250008E+03  0.7818608E-02  0.1235068E+00
         -4   -1    0    0    0  501 -0.00000000000E+00  0.00000000000E+00  0.69711272017E+03  0.69711387701E+03  0.12700000000E+01 0. -1.
          4   -1    0    0  501    0  0.00000000000E+00 -0.00000000000E+00 -0.55304075941E+01  0.56743553076E+01  0.12700000000E+01 0. -1.
         25    2    1    2    0    0  0.00000000000E+00  0.00000000000E+00  0.69158231258E+03  0.70278823232E+03  0.12500081767E+03 0.  0.
    9000005    1    3    3    0    0  0.34997977156E+02 -0.38584264714E+02  0.15170498650E+03  0.16040263969E+03  0.10000000000E+01 0.  0.
    9000005    1    3    3    0    0 -0.34997977156E+02  0.38584264714E+02  0.53987732607E+03  0.54238559263E+03  0.10000000000E+01 0.  0.
<mgrwt>
<rscale>  0 0.12500082E+03</rscale>
<asrwt>0</asrwt>
<pdfrwt beam="2">  1        4 0.86199438E-03 0.12500082E+03</pdfrwt>
<pdfrwt beam="1">  1       -4 0.10725920E+00 0.12500082E+03</pdfrwt>
<totfact> 0.42939168E+03</totfact>
</mgrwt>
</event>
<event>
 5    1  0.3206158E-002  0.1249994E+03  0.7818608E-02  0.1235070E+00
         -4   -1    0    0    0  501 -0.00000000000E+00  0.00000000000E+00  0.23591571672E+04  0.23591575091E+04  0.12700000000E+01 0.  1.
          4   -1    0    0  501    0  0.00000000000E+00 -0.00000000000E+00 -0.14118453936E+01  0.18990016891E+01  0.12700000000E+01 0.  1.
         25    2    1    2    0    0  0.00000000000E+00  0.00000000000E+00  0.23577453218E+04  0.23610565107E+04  0.12499937739E+03 0.  0.
    9000005    1    3    3    0    0  0.30284732911E+02  0.36476636600E+02  0.40987426410E+03  0.41260831600E+03  0.10000000000E+01 0.  0.
    9000005    1    3    3    0    0 -0.30284732911E+02 -0.36476636600E+02  0.19478710577E+04  0.19484481947E+04  0.10000000000E+01 0.  0.
<mgrwt>
<rscale>  0 0.12499938E+03</rscale>
<asrwt>0</asrwt>
<pdfrwt beam="2">  1        4 0.25470583E-03 0.12499938E+03</pdfrwt>
<pdfrwt beam="1">  1       -4 0.36298620E+00 0.12499938E+03</pdfrwt>
<totfact> 0.58546582E+02</totfact>
</mgrwt>
</event>
<event>
 5    1  0.3206158E-002  0.1249932E+03  0.7818608E-02  0.1235080E+00
          4   -1    0    0  501    0  0.00000000000E+00  0.00000000000E+00  0.83766228436E+02  0.83775855271E+02  0.12700000000E+01 0.  1.
         -4   -1    0    0    0  501 -0.00000000000E+00 -0.00000000000E+00 -0.46606724873E+02  0.46624024959E+02  0.12700000000E+01 0.  1.
         25    2    1    2    0    0  0.00000000000E+00  0.00000000000E+00  0.37159503563E+02  0.13039988023E+03  0.12499320005E+03 0.  0.
    9000005    1    3    3    0    0  0.35136445261E+02 -0.41079650488E+02  0.51284074562E+02  0.74519552961E+02  0.10000000000E+01 0.  0.
    9000005    1    3    3    0    0 -0.35136445261E+02  0.41079650488E+02 -0.14124571000E+02  0.55880327269E+02  0.10000000000E+01 0.  0.
<mgrwt>
<rscale>  0 0.12499320E+03</rscale>
<asrwt>0</asrwt>
<pdfrwt beam="1">  1        4 0.12889183E-01 0.12499320E+03</pdfrwt>
<pdfrwt beam="2">  1       -4 0.71723368E-02 0.12499320E+03</pdfrwt>
<totfact> 0.10337547E+04</totfact>
</mgrwt>
</event>
<event>
 5    1  0.3206158E-002  0.1250044E+03  0.7818608E-02  0.1235062E+00
          4   -1    0    0  501    0  0.00000000000E+00  0.00000000000E+00  0.48372679625E+02  0.48389348353E+02  0.12700000000E+01 0.  1.
         -4   -1    0    0    0  501 -0.00000000000E+00 -0.00000000000E+00 -0.80723388274E+02  0.80733377946E+02  0.12700000000E+01 0.  1.
         25    2    1    2    0    0  0.00000000000E+00  0.00000000000E+00 -0.32350708650E+02  0.12912272630E+03  0.12500444031E+03 0.  0.
    9000005    1    3    3    0    0  0.58676935950E+01 -0.59440582501E+02 -0.35163426978E+02  0.69318679106E+02  0.10000000000E+01 0.  0.
    9000005    1    3    3    0    0 -0.58676935950E+01  0.59440582501E+02  0.28127183285E+01  0.59804047192E+02  0.10000000000E+01 0.  0.
<mgrwt>
<rscale>  0 0.12500444E+03</rscale>
<asrwt>0</asrwt>
<pdfrwt beam="1">  1        4 0.74440014E-02 0.12500444E+03</pdfrwt>
<pdfrwt beam="2">  1       -4 0.12421033E-01 0.12500444E+03</pdfrwt>
<totfact> 0.10362272E+04</totfact>
</mgrwt>
</event>
<event>
 5    1  0.3206158E-002  0.1249953E+03  0.7818608E-02  0.1235077E+00
         -4   -1    0    0    0  501 -0.00000000000E+00  0.00000000000E+00  0.15263365469E+03  0.15263893816E+03  0.12700000000E+01 0. -1.
          4   -1    0    0  501    0  0.00000000000E+00 -0.00000000000E+00 -0.25568921910E+02  0.25600442724E+02  0.12700000000E+01 0. -1.
         25    2    1    2    0    0  0.00000000000E+00  0.00000000000E+00  0.12706473278E+03  0.17823938088E+03  0.12499532224E+03 0.  0.
    9000005    1    3    3    0    0  0.54562375403E+01 -0.13235994940E+02 -0.23205853638E+02  0.27285045963E+02  0.10000000000E+01 0.  0.
    9000005    1    3    3    0    0 -0.54562375403E+01  0.13235994940E+02  0.15027058641E+03  0.15095433492E+03  0.10000000000E+01 0.  0.
<mgrwt>
<rscale>  0 0.12499532E+03</rscale>
<asrwt>0</asrwt>
<pdfrwt beam="2">  1        4 0.39365115E-02 0.12499532E+03</pdfrwt>
<pdfrwt beam="1">  1       -4 0.23484931E-01 0.12499532E+03</pdfrwt>
<totfact> 0.93944738E+03</totfact>
</mgrwt>
</event>
<event>
 5    1  0.3206158E-002  0.1250039E+03  0.7818608E-02  0.1235063E+00
          4   -1    0    0  501    0  0.00000000000E+00  0.00000000000E+00  0.15882228706E+02  0.15932924674E+02  0.12700000000E+01 0. -1.
         -4   -1    0    0    0  501 -0.00000000000E+00 -0.00000000000E+00 -0.24552204354E+03  0.24552532815E+03  0.12700000000E+01 0. -1.
         25    2    1    2    0    0  0.00000000000E+00  0.00000000000E+00 -0.22963981483E+03  0.26145825283E+03  0.12500389359E+03 0.  0.
    9000005    1    3    3    0    0  0.45819893937E+02  0.16583096369E+02 -0.19666090033E+03  0.20261039333E+03  0.10000000000E+01 0.  0.
    9000005    1    3    3    0    0 -0.45819893937E+02 -0.16583096369E+02 -0.32978914501E+02  0.58847859496E+02  0.10000000000E+01 0.  0.
<mgrwt>
<rscale>  0 0.12500389E+03</rscale>
<asrwt>0</asrwt>
<pdfrwt beam="1">  1        4 0.24475723E-02 0.12500389E+03</pdfrwt>
<pdfrwt beam="2">  1       -4 0.37776772E-01 0.12500389E+03</pdfrwt>
<totfact> 0.80694858E+03</totfact>
</mgrwt>
</event>
<event>
 4    1  0.3206158E-002  0.1251684E+03  0.7818608E-02  0.1234806E+00
         -4   -1    0    0    0  501 -0.00000000000E+00  0.00000000000E+00  0.57329207414E+01  0.58719060131E+01  0.12700000000E+01 0. -1.
          4   -1    0    0  501    0  0.00000000000E+00 -0.00000000000E+00 -0.67488663196E+03  0.67488782690E+03  0.12700000000E+01 0. -1.
    9000005    1    1    2    0    0 -0.39536155452E+02 -0.17671149176E+02 -0.58024978275E+03  0.58186440644E+03  0.10000000000E+01 0.  0.
    9000005    1    1    2    0    0  0.39536155452E+02  0.17671149176E+02 -0.88903928475E+02  0.98895326479E+02  0.10000000000E+01 0.  0.
<mgrwt>
<rscale>  0 0.12516839E+03</rscale>
<asrwt>0</asrwt>
<pdfrwt beam="2">  1        4 0.10383943E+00 0.12516839E+03</pdfrwt>
<pdfrwt beam="1">  1       -4 0.89277143E-03 0.12516839E+03</pdfrwt>
<totfact> 0.43959831E+03</totfact>
</mgrwt>
</event>
<event>
 5    1  0.3206158E-002  0.1249993E+03  0.7818608E-02  0.1235070E+00
         -4   -1    0    0    0  501 -0.00000000000E+00  0.00000000000E+00  0.25792690629E+02  0.25823938311E+02  0.12700000000E+01 0. -1.
          4   -1    0    0  501    0  0.00000000000E+00 -0.00000000000E+00 -0.15132059207E+03  0.15132592139E+03  0.12700000000E+01 0. -1.
         25    2    1    2    0    0  0.00000000000E+00  0.00000000000E+00 -0.12552790144E+03  0.17714985970E+03  0.12499927500E+03 0.  0.
    9000005    1    3    3    0    0  0.51894366164E+02 -0.46249714218E+01 -0.13859234666E+02  0.53921183089E+02  0.10000000000E+01 0.  0.
    9000005    1    3    3    0    0 -0.51894366164E+02  0.46249714218E+01 -0.11166866677E+03  0.12322867661E+03  0.10000000000E+01 0.  0.
<mgrwt>
<rscale>  0 0.12499928E+03</rscale>
<asrwt>0</asrwt>
<pdfrwt beam="2">  1        4 0.23282904E-01 0.12499928E+03</pdfrwt>
<pdfrwt beam="1">  1       -4 0.39709200E-02 0.12499928E+03</pdfrwt>
<totfact> 0.94134099E+03</totfact>
</mgrwt>
</event>
<event>
 5    1  0.3206158E-002  0.1250033E+03  0.7818608E-02  0.1235064E+00
         -4   -1    0    0    0  501 -0.00000000000E+00  0.00000000000E+00  0.14213771943E+03  0.14214339304E+03  0.12700000000E+01 0. -1.
          4   -1    0    0  501    0  0.00000000000E+00 -0.00000000000E+00 -0.27462710650E+02  0.27492060240E+02  0.12700000000E+01 0. -1.
         25    2    1    2    0    0  0.00000000000E+00  0.00000000000E+00  0.11467500878E+03  0.16963545328E+03  0.12500331744E+03 0.  0.
    9000005    1    3    3    0    0 -0.26375091561E+02 -0.47586832955E+02  0.15613967902E+02  0.56612261209E+02  0.10000000000E+01 0.  0.
    9000005    1    3    3    0    0  0.26375091561E+02  0.47586832955E+02  0.99061040875E+02  0.11302319207E+03  0.10000000000E+01 0.  0.
<mgrwt>
<rscale>  0 0.12500332E+03</rscale>
<asrwt>0</asrwt>
<pdfrwt beam="2">  1        4 0.42277266E-02 0.12500332E+03</pdfrwt>
<pdfrwt beam="1">  1       -4 0.21870035E-01 0.12500332E+03</pdfrwt>
<totfact> 0.95509515E+03</totfact>
</mgrwt>
</event>
<event>
 5    1  0.3206158E-002  0.1249981E+03  0.7818608E-02  0.1235072E+00
          4   -1    0    0  501    0  0.00000000000E+00  0.00000000000E+00  0.27175904448E+03  0.27176201199E+03  0.12700000000E+01 0. -1.
         -4   -1    0    0    0  501 -0.00000000000E+00 -0.00000000000E+00 -0.14342397455E+02  0.14398516061E+02  0.12700000000E+01 0. -1.
         25    2    1    2    0    0  0.00000000000E+00  0.00000000000E+00  0.25741664703E+03  0.28616052805E+03  0.12499807057E+03 0.  0.
    9000005    1    3    3    0    0 -0.60730382551E+02  0.13647415236E+02  0.14139249761E+03  0.15449035468E+03  0.10000000000E+01 0.  0.
    9000005    1    3    3    0    0  0.60730382551E+02 -0.13647415236E+02  0.11602414941E+03  0.13167017337E+03  0.10000000000E+01 0.  0.
<mgrwt>
<rscale>  0 0.12499807E+03</rscale>
<asrwt>0</asrwt>
<pdfrwt beam="1">  1        4 0.41813624E-01 0.12499807E+03</pdfrwt>
<pdfrwt beam="2">  1       -4 0.22110680E-02 0.12499807E+03</pdfrwt>
<totfact> 0.77371611E+03</totfact>
</mgrwt>
</event>
<event>
 5    1  0.3206158E-002  0.1250000E+03  0.7818608E-02  0.1235069E+00
          4   -1    0    0  501    0  0.00000000000E+00  0.00000000000E+00  0.99702039785E+02  0.99710128058E+02  0.12700000000E+01 0.  1.
         -4   -1    0    0    0  501 -0.00000000000E+00 -0.00000000000E+00 -0.39159249750E+02  0.39179838450E+02  0.12700000000E+01 0.  1.
         25    2    1    2    0    0  0.00000000000E+00  0.00000000000E+00  0.60542790035E+02  0.13888996651E+03  0.12499997348E+03 0.  0.
    9000005    1    3    3    0    0  0.23374203189E+02 -0.18939621466E+02 -0.30589035638E+02  0.42915635114E+02  0.10000000000E+01 0.  0.
    9000005    1    3    3    0    0 -0.23374203189E+02  0.18939621466E+02  0.91131825673E+02  0.95974331394E+02  0.10000000000E+01 0.  0.
<mgrwt>
<rscale>  0 0.12499997E+03</rscale>
<asrwt>0</asrwt>
<pdfrwt beam="1">  1        4 0.15340981E-01 0.12499997E+03</pdfrwt>
<pdfrwt beam="2">  1       -4 0.60267060E-02 0.12499997E+03</pdfrwt>
<totfact> 0.10156650E+04</totfact>
</mgrwt>
</event>
<event>
 5    1  0.3206158E-002  0.1249984E+03  0.7818608E-02  0.1235072E+00
         -4   -1    0    0    0  501 -0.00000000000E+00  0.00000000000E+00  0.92623184072E+02  0.92631890446E+02  0.12700000000E+01 0. -1.
          4   -1    0    0  501    0  0.00000000000E+00 -0.00000000000E+00 -0.42152225322E+02  0.42171352831E+02  0.12700000000E+01 0. -1.
         25    2    1    2    0    0  0.00000000000E+00  0.00000000000E+00  0.50470958749E+02  0.13480324328E+03  0.12499838687E+03 0.  0.
    9000005    1    3    3    0    0 -0.41884342931E+02  0.45522337114E+02  0.15676351143E+02  0.63822639747E+02  0.10000000000E+01 0.  0.
    9000005    1    3    3    0    0  0.41884342931E+02 -0.45522337114E+02  0.34794607607E+02  0.70980603531E+02  0.10000000000E+01 0.  0.
<mgrwt>
<rscale>  0 0.12499839E+03</rscale>
<asrwt>0</asrwt>
<pdfrwt beam="2">  1        4 0.64870989E-02 0.12499839E+03</pdfrwt>
<pdfrwt beam="1">  1       -4 0.14251862E-01 0.12499839E+03</pdfrwt>
<totfact> 0.10242592E+04</totfact>
</mgrwt>
</event>
<event>
 5    1  0.3206158E-002  0.1249927E+03  0.7818608E-02  0.1235081E+00
         -4   -1    0    0    0  501 -0.00000000000E+00  0.00000000000E+00  0.96210894743E+01  0.97045485558E+01  0.12700000000E+01 0.  1.
          4   -1    0    0  501    0  0.00000000000E+00 -0.00000000000E+00 -0.40412404418E+03  0.40412603972E+03  0.12700000000E+01 0.  1.
         25    2    1    2    0    0  0.00000000000E+00  0.00000000000E+00 -0.39450295470E+03  0.41383058828E+03  0.12499269789E+03 0.  0.
    9000005    1    3    3    0    0  0.52436589639E+02  0.26485256482E+02 -0.26777535145E+03  0.27414540592E+03  0.10000000000E+01 0.  0.
    9000005    1    3    3    0    0 -0.52436589639E+02 -0.26485256482E+02 -0.12672760326E+03  0.13968518236E+03  0.10000000000E+01 0.  0.
<mgrwt>
<rscale>  0 0.12499270E+03</rscale>
<asrwt>0</asrwt>
<pdfrwt beam="2">  1        4 0.62179490E-01 0.12499270E+03</pdfrwt>
<pdfrwt beam="1">  1       -4 0.14867414E-02 0.12499270E+03</pdfrwt>
<totfact> 0.63239703E+03</totfact>
</mgrwt>
</event>
<event>
 5    1  0.3206158E-002  0.1249978E+03  0.7818608E-02  0.1235073E+00
         -4   -1    0    0    0  501 -0.00000000000E+00  0.00000000000E+00  0.62711628580E+02  0.62724486918E+02  0.12700000000E+01 0.  1.
          4   -1    0    0  501    0  0.00000000000E+00 -0.00000000000E+00 -0.62261137432E+02  0.62274088788E+02  0.12700000000E+01 0.  1.
         25    2    1    2    0    0  0.00000000000E+00  0.00000000000E+00  0.45049114761E+00  0.12499857571E+03  0.12499776393E+03 0.  0.
    9000005    1    3    3    0    0 -0.13924714043E+02  0.60892271083E+02  0.20538929459E+01  0.62505878244E+02  0.10000000000E+01 0.  0.
    9000005    1    3    3    0    0  0.13924714043E+02 -0.60892271083E+02 -0.16034017983E+01  0.62492697462E+02  0.10000000000E+01 0.  0.
<mgrwt>
<rscale>  0 0.12499776E+03</rscale>
<asrwt>0</asrwt>
<pdfrwt beam="2">  1        4 0.95806220E-02 0.12499776E+03</pdfrwt>
<pdfrwt beam="1">  1       -4 0.96499281E-02 0.12499776E+03</pdfrwt>
<totfact> 0.10453422E+04</totfact>
</mgrwt>
</event>
<event>
 5    1  0.3206158E-002  0.1250016E+03  0.7818608E-02  0.1235067E+00
          4   -1    0    0  501    0  0.00000000000E+00  0.00000000000E+00  0.56128368179E+02  0.56142734298E+02  0.12700000000E+01 0.  1.
         -4   -1    0    0    0  501 -0.00000000000E+00 -0.00000000000E+00 -0.69567616331E+02  0.69579207684E+02  0.12700000000E+01 0.  1.
         25    2    1    2    0    0  0.00000000000E+00  0.00000000000E+00 -0.13439248151E+02  0.12572194198E+03  0.12500157321E+03 0.  0.
    9000005    1    3    3    0    0  0.94592147552E+01  0.39071011529E+02  0.41403030683E+02  0.57716822811E+02  0.10000000000E+01 0.  0.
    9000005    1    3    3    0    0 -0.94592147552E+01 -0.39071011529E+02 -0.54842278834E+02  0.68005119171E+02  0.10000000000E+01 0.  0.
<mgrwt>
<rscale>  0 0.12500157E+03</rscale>
<asrwt>0</asrwt>
<pdfrwt beam="1">  1        4 0.86371302E-02 0.12500157E+03</pdfrwt>
<pdfrwt beam="2">  1       -4 0.10704707E-01 0.12500157E+03</pdfrwt>
<totfact> 0.10436691E+04</totfact>
</mgrwt>
</event>
<event>
 5    1  0.3206158E-002  0.1250013E+03  0.7818608E-02  0.1235067E+00
         -4   -1    0    0    0  501 -0.00000000000E+00  0.00000000000E+00  0.18658758484E+03  0.18659190689E+03  0.12700000000E+01 0.  1.
          4   -1    0    0  501    0  0.00000000000E+00 -0.00000000000E+00 -0.20911799152E+02  0.20950328012E+02  0.12700000000E+01 0.  1.
         25    2    1    2    0    0  0.00000000000E+00  0.00000000000E+00  0.16567578568E+03  0.20754223490E+03  0.12500125321E+03 0.  0.
    9000005    1    3    3    0    0  0.23529692725E+02 -0.57144159867E+02  0.67420410615E+02  0.91463726220E+02  0.10000000000E+01 0.  0.
    9000005    1    3    3    0    0 -0.23529692725E+02  0.57144159867E+02  0.98255375070E+02  0.11607850868E+03  0.10000000000E+01 0.  0.
<mgrwt>
<rscale>  0 0.12500125E+03</rscale>
<asrwt>0</asrwt>
<pdfrwt beam="2">  1        4 0.32204959E-02 0.12500125E+03</pdfrwt>
<pdfrwt beam="1">  1       -4 0.28709080E-01 0.12500125E+03</pdfrwt>
<totfact> 0.88876353E+03</totfact>
</mgrwt>
</event>
<event>
 5    1  0.3206158E-002  0.1250088E+03  0.7818608E-02  0.1235056E+00
          4   -1    0    0  501    0  0.00000000000E+00  0.00000000000E+00  0.63200207763E+02  0.63212966718E+02  0.12700000000E+01 0.  1.
         -4   -1    0    0    0  501 -0.00000000000E+00 -0.00000000000E+00 -0.61790690811E+02  0.61803740752E+02  0.12700000000E+01 0.  1.
         25    2    1    2    0    0  0.00000000000E+00  0.00000000000E+00  0.14095169521E+01  0.12501670747E+03  0.12500876133E+03 0.  0.
    9000005    1    3    3    0    0 -0.50953324586E+02 -0.16918336123E+02  0.32696262310E+02  0.62869046061E+02  0.10000000000E+01 0.  0.
    9000005    1    3    3    0    0  0.50953324586E+02  0.16918336123E+02 -0.31286745358E+02  0.62147661409E+02  0.10000000000E+01 0.  0.
<mgrwt>
<rscale>  0 0.12500876E+03</rscale>
<asrwt>0</asrwt>
<pdfrwt beam="1">  1        4 0.97250942E-02 0.12500876E+03</pdfrwt>
<pdfrwt beam="2">  1       -4 0.95082454E-02 0.12500876E+03</pdfrwt>
<totfact> 0.10450430E+04</totfact>
</mgrwt>
</event>
<event>
 5    1  0.3206158E-002  0.1249998E+03  0.7818608E-02  0.1235070E+00
         -4   -1    0    0    0  501 -0.00000000000E+00  0.00000000000E+00  0.40079304947E+01  0.42043319149E+01  0.12700000000E+01 0.  1.
          4   -1    0    0  501    0  0.00000000000E+00 -0.00000000000E+00 -0.95112204516E+03  0.95112289305E+03  0.12700000000E+01 0.  1.
         25    2    1    2    0    0  0.00000000000E+00  0.00000000000E+00 -0.94711411466E+03  0.95532722497E+03  0.12499984227E+03 0.  0.
    9000005    1    3    3    0    0 -0.23157912668E+02  0.32306839538E+02 -0.84208858963E+03  0.84302681665E+03  0.10000000000E+01 0.  0.
    9000005    1    3    3    0    0  0.23157912668E+02 -0.32306839538E+02 -0.10502552503E+03  0.11230040832E+03  0.10000000000E+01 0.  0.
<mgrwt>
<rscale>  0 0.12499984E+03</rscale>
<asrwt>0</asrwt>
<pdfrwt beam="2">  1        4 0.14634147E+00 0.12499984E+03</pdfrwt>
<pdfrwt beam="1">  1       -4 0.63177847E-03 0.12499984E+03</pdfrwt>
<totfact> 0.32127733E+03</totfact>
</mgrwt>
</event>
<event>
 5    1  0.3206158E-002  0.1249991E+03  0.7818608E-02  0.1235071E+00
         -4   -1    0    0    0  501 -0.00000000000E+00  0.00000000000E+00  0.65711340157E+03  0.65711462883E+03  0.12700000000E+01 0. -1.
          4   -1    0    0  501    0  0.00000000000E+00 -0.00000000000E+00 -0.58753977269E+01  0.60110896225E+01  0.12700000000E+01 0. -1.
         25    2    1    2    0    0  0.00000000000E+00  0.00000000000E+00  0.65123800384E+03  0.66312571845E+03  0.12499912329E+03 0.  0.
    9000005    1    3    3    0    0 -0.32167122898E+01 -0.79175814178E+01  0.65402472299E+03  0.65408132034E+03  0.10000000000E+01 0.  0.
    9000005    1    3    3    0    0  0.32167122898E+01  0.79175814178E+01 -0.27867191548E+01  0.90443981066E+01  0.10000000000E+01 0.  0.
<mgrwt>
<rscale>  0 0.12499912E+03</rscale>
<asrwt>0</asrwt>
<pdfrwt beam="2">  1        4 0.91443955E-03 0.12499912E+03</pdfrwt>
<pdfrwt beam="1">  1       -4 0.10110491E+00 0.12499912E+03</pdfrwt>
<totfact> 0.45106788E+03</totfact>
</mgrwt>
</event>
<event>
 5    1  0.3206158E-002  0.1249970E+03  0.7818608E-02  0.1235074E+00
          4   -1    0    0  501    0  0.00000000000E+00  0.00000000000E+00  0.50813564542E+02  0.50829432826E+02  0.12700000000E+01 0.  1.
         -4   -1    0    0    0  501 -0.00000000000E+00 -0.00000000000E+00 -0.76837294057E+02  0.76847788895E+02  0.12700000000E+01 0.  1.
         25    2    1    2    0    0  0.00000000000E+00  0.00000000000E+00 -0.26023729515E+02  0.12767722172E+03  0.12499695376E+03 0.  0.
    9000005    1    3    3    0    0  0.59976742127E+02 -0.14691174334E+02 -0.32134972840E+01  0.61841464765E+02  0.10000000000E+01 0.  0.
    9000005    1    3    3    0    0 -0.59976742127E+02  0.14691174334E+02 -0.22810232231E+02  0.65835756956E+02  0.10000000000E+01 0.  0.
<mgrwt>
<rscale>  0 0.12499695E+03</rscale>
<asrwt>0</asrwt>
<pdfrwt beam="1">  1        4 0.78194994E-02 0.12499695E+03</pdfrwt>
<pdfrwt beam="2">  1       -4 0.11823150E-01 0.12499695E+03</pdfrwt>
<totfact> 0.10395179E+04</totfact>
</mgrwt>
</event>
<event>
 5    1  0.3206158E-002  0.1250004E+03  0.7818608E-02  0.1235069E+00
          4   -1    0    0  501    0  0.00000000000E+00  0.00000000000E+00  0.19579860721E+02  0.19621005220E+02  0.12700000000E+01 0. -1.
         -4   -1    0    0    0  501 -0.00000000000E+00 -0.00000000000E+00 -0.19925210953E+03  0.19925615688E+03  0.12700000000E+01 0. -1.
         25    2    1    2    0    0  0.00000000000E+00  0.00000000000E+00 -0.17967224881E+03  0.21887716210E+03  0.12500038038E+03 0.  0.
    9000005    1    3    3    0    0  0.32245188628E+02  0.19799801733E+00 -0.18356814640E+03  0.18638147914E+03  0.10000000000E+01 0.  0.
    9000005    1    3    3    0    0 -0.32245188628E+02 -0.19799801733E+00  0.38958975892E+01  0.32495682958E+02  0.10000000000E+01 0.  0.
<mgrwt>
<rscale>  0 0.12500038E+03</rscale>
<asrwt>0</asrwt>
<pdfrwt beam="1">  1        4 0.30157627E-02 0.12500038E+03</pdfrwt>
<pdfrwt beam="2">  1       -4 0.30657646E-01 0.12500038E+03</pdfrwt>
<totfact> 0.87045597E+03</totfact>
</mgrwt>
</event>
<event>
 4    1  0.3206158E-002  0.1246602E+03  0.7818608E-02  0.1235601E+00
         -4   -1    0    0    0  501 -0.00000000000E+00  0.00000000000E+00  0.63435792106E+01  0.64694588028E+01  0.12700000000E+01 0. -1.
          4   -1    0    0  501    0  0.00000000000E+00 -0.00000000000E+00 -0.60629303926E+03  0.60629436939E+03  0.12700000000E+01 0. -1.
    9000005    1    1    2    0    0 -0.36200489525E+02  0.81498623787E+01 -0.54609931749E+03  0.54735944338E+03  0.10000000000E+01 0.  0.
    9000005    1    1    2    0    0  0.36200489525E+02 -0.81498623787E+01 -0.53850142560E+02  0.65404384810E+02  0.10000000000E+01 0.  0.
<mgrwt>
<rscale>  0 0.12466016E+03</rscale>
<asrwt>0</asrwt>
<pdfrwt beam="2">  1        4 0.93285592E-01 0.12466016E+03</pdfrwt>
<pdfrwt beam="1">  1       -4 0.98572111E-03 0.12466016E+03</pdfrwt>
<totfact> 0.48431612E+03</totfact>
</mgrwt>
</event>
<event>
 5    1  0.3206158E-002  0.1250048E+03  0.7818608E-02  0.1235062E+00
          4   -1    0    0  501    0  0.00000000000E+00  0.00000000000E+00  0.16472312369E+03  0.16472801941E+03  0.12700000000E+01 0. -1.
         -4   -1    0    0    0  501 -0.00000000000E+00 -0.00000000000E+00 -0.23693617340E+02  0.23727629521E+02  0.12700000000E+01 0. -1.
         25    2    1    2    0    0  0.00000000000E+00  0.00000000000E+00  0.14102950635E+03  0.18845564893E+03  0.12500483972E+03 0.  0.
    9000005    1    3    3    0    0 -0.29323542043E+02 -0.26852944834E+02  0.14320173065E+03  0.14862263094E+03  0.10000000000E+01 0.  0.
    9000005    1    3    3    0    0  0.29323542043E+02  0.26852944834E+02 -0.21722243013E+01  0.39833017995E+02  0.10000000000E+01 0.  0.
<mgrwt>
<rscale>  0 0.12500484E+03</rscale>
<asrwt>0</asrwt>
<pdfrwt beam="1">  1        4 0.25345013E-01 0.12500484E+03</pdfrwt>
<pdfrwt beam="2">  1       -4 0.36481647E-02 0.12500484E+03</pdfrwt>
<totfact> 0.92106734E+03</totfact>
</mgrwt>
</event>
<event>
 5    1  0.3206158E-002  0.1249990E+03  0.7818608E-02  0.1235071E+00
          4   -1    0    0  501    0  0.00000000000E+00  0.00000000000E+00  0.29970497737E+02  0.29997393797E+02  0.12700000000E+01 0. -1.
         -4   -1    0    0    0  501 -0.00000000000E+00 -0.00000000000E+00 -0.13024592490E+03  0.13025211650E+03  0.12700000000E+01 0. -1.
         25    2    1    2    0    0  0.00000000000E+00  0.00000000000E+00 -0.10027542716E+03  0.16024951029E+03  0.12499897703E+03 0.  0.
    9000005    1    3    3    0    0 -0.33628217613E+02 -0.50721024841E+02 -0.31930210310E+02  0.68731489954E+02  0.10000000000E+01 0.  0.
    9000005    1    3    3    0    0  0.33628217613E+02  0.50721024841E+02 -0.68345216848E+02  0.91518020339E+02  0.10000000000E+01 0.  0.
<mgrwt>
<rscale>  0 0.12499898E+03</rscale>
<asrwt>0</asrwt>
<pdfrwt beam="1">  1        4 0.46133911E-02 0.12499898E+03</pdfrwt>
<pdfrwt beam="2">  1       -4 0.20040379E-01 0.12499898E+03</pdfrwt>
<totfact> 0.97296940E+03</totfact>
</mgrwt>
</event>
<event>
 5    1  0.3206158E-002  0.1250021E+03  0.7818608E-02  0.1235066E+00
          4   -1    0    0  501    0  0.00000000000E+00  0.00000000000E+00  0.43847242246E+01  0.45649432117E+01  0.12700000000E+01 0. -1.
         -4   -1    0    0    0  501 -0.00000000000E+00 -0.00000000000E+00 -0.87278605934E+03  0.87278698333E+03  0.12700000000E+01 0. -1.
         25    2    1    2    0    0  0.00000000000E+00  0.00000000000E+00 -0.86840133512E+03  0.87735192655E+03  0.12500209672E+03 0.  0.
    9000005    1    3    3    0    0 -0.33396079231E+02  0.50345222419E+02 -0.54637726927E+03  0.54970815884E+03  0.10000000000E+01 0.  0.
    9000005    1    3    3    0    0  0.33396079231E+02 -0.50345222419E+02 -0.32202406585E+03  0.32764376770E+03  0.10000000000E+01 0.  0.
<mgrwt>
<rscale>  0 0.12500210E+03</rscale>
<asrwt>0</asrwt>
<pdfrwt beam="1">  1        4 0.68850773E-03 0.12500210E+03</pdfrwt>
<pdfrwt beam="2">  1       -4 0.13428858E+00 0.12500210E+03</pdfrwt>
<totfact> 0.35031874E+03</totfact>
</mgrwt>
</event>
<event>
 5    1  0.3206158E-002  0.1250006E+03  0.7818608E-02  0.1235068E+00
          4   -1    0    0  501    0  0.00000000000E+00  0.00000000000E+00  0.22753441071E+02  0.22788856500E+02  0.12700000000E+01 0.  1.
         -4   -1    0    0    0  501 -0.00000000000E+00 -0.00000000000E+00 -0.17150782233E+03  0.17151252439E+03  0.12700000000E+01 0.  1.
         25    2    1    2    0    0  0.00000000000E+00  0.00000000000E+00 -0.14875438126E+03  0.19430138089E+03  0.12500064268E+03 0.  0.
    9000005    1    3    3    0    0 -0.50072353336E+02 -0.32612051908E+02 -0.10280635432E+03  0.11891565493E+03  0.10000000000E+01 0.  0.
    9000005    1    3    3    0    0  0.50072353336E+02  0.32612051908E+02 -0.45948026937E+02  0.75385725954E+02  0.10000000000E+01 0.  0.
<mgrwt>
<rscale>  0 0.12500064E+03</rscale>
<asrwt>0</asrwt>
<pdfrwt beam="1">  1        4 0.35036155E-02 0.12500064E+03</pdfrwt>
<pdfrwt beam="2">  1       -4 0.26388904E-01 0.12500064E+03</pdfrwt>
<totfact> 0.91102918E+03</totfact>
</mgrwt>
</event>
<event>
 5    1  0.3206158E-002  0.1250005E+03  0.7818608E-02  0.1235068E+00
         -4   -1    0    0    0  501 -0.00000000000E+00  0.00000000000E+00  0.12937096785E+02  0.12999283565E+02  0.12700000000E+01 0. -1.
          4   -1    0    0  501    0  0.00000000000E+00 -0.00000000000E+00 -0.30115680423E+03  0.30115948206E+03  0.12700000000E+01 0. -1.
         25    2    1    2    0    0  0.00000000000E+00  0.00000000000E+00 -0.28821970745E+03  0.31415876563E+03  0.12500052103E+03 0.  0.
    9000005    1    3    3    0    0  0.17954450243E+01 -0.62466247218E+02 -0.14452206209E+03  0.15745755649E+03  0.10000000000E+01 0.  0.
    9000005    1    3    3    0    0 -0.17954450243E+01  0.62466247218E+02 -0.14369764536E+03  0.15670120914E+03  0.10000000000E+01 0.  0.
<mgrwt>
<rscale>  0 0.12500052E+03</rscale>
<asrwt>0</asrwt>
<pdfrwt beam="2">  1        4 0.46336800E-01 0.12500052E+03</pdfrwt>
<pdfrwt beam="1">  1       -4 0.19953124E-02 0.12500052E+03</pdfrwt>
<totfact> 0.73855440E+03</totfact>
</mgrwt>
</event>
<event>
 5    1  0.3206158E-002  0.1250097E+03  0.7818608E-02  0.1235054E+00
         -4   -1    0    0    0  501 -0.00000000000E+00  0.00000000000E+00  0.14115461261E+02  0.14172478492E+02  0.12700000000E+01 0. -1.
          4   -1    0    0  501    0  0.00000000000E+00 -0.00000000000E+00 -0.27616205959E+03  0.27616497978E+03  0.12700000000E+01 0. -1.
         25    2    1    2    0    0  0.00000000000E+00  0.00000000000E+00 -0.26204659833E+03  0.29033745827E+03  0.12500967954E+03 0.  0.
    9000005    1    3    3    0    0  0.49072702685E+02  0.34108497150E+02 -0.17349019575E+03  0.18349759602E+03  0.10000000000E+01 0.  0.
    9000005    1    3    3    0    0 -0.49072702685E+02 -0.34108497150E+02 -0.88556402581E+02  0.10683986225E+03  0.10000000000E+01 0.  0.
<mgrwt>
<rscale>  0 0.12500968E+03</rscale>
<asrwt>0</asrwt>
<pdfrwt beam="2">  1        4 0.42491077E-01 0.12500968E+03</pdfrwt>
<pdfrwt beam="1">  1       -4 0.21762202E-02 0.12500968E+03</pdfrwt>
<totfact> 0.76810584E+03</totfact>
</mgrwt>
</event>
<event>
 5    1  0.3206158E-002  0.1249972E+03  0.7818608E-02  0.1235074E+00
          4   -1    0    0  501    0  0.00000000000E+00  0.00000000000E+00  0.65304172158E+02  0.65316520125E+02  0.12700000000E+01 0.  1.
         -4   -1    0    0    0  501 -0.00000000000E+00 -0.00000000000E+00 -0.59788779666E+02  0.59802266461E+02  0.12700000000E+01 0.  1.
         25    2    1    2    0    0  0.00000000000E+00  0.00000000000E+00  0.55153924921E+01  0.12511878659E+03  0.12499716478E+03 0.  0.
    9000005    1    3    3    0    0 -0.25773856978E+02 -0.18244910393E+01  0.59711672879E+02  0.65069995767E+02  0.10000000000E+01 0.  0.
    9000005    1    3    3    0    0  0.25773856978E+02  0.18244910393E+01 -0.54196280387E+02  0.60048790819E+02  0.10000000000E+01 0.  0.
<mgrwt>
<rscale>  0 0.12499716E+03</rscale>
<asrwt>0</asrwt>
<pdfrwt beam="1">  1        4 0.10048783E-01 0.12499716E+03</pdfrwt>
<pdfrwt beam="2">  1       -4 0.92002611E-02 0.12499716E+03</pdfrwt>
<totfact> 0.10450953E+04</totfact>
</mgrwt>
</event>
<event>
 5    1  0.3206158E-002  0.1249997E+03  0.7818608E-02  0.1235070E+00
          4   -1    0    0  501    0  0.00000000000E+00  0.00000000000E+00  0.74911280306E+02  0.74922044934E+02  0.12700000000E+01 0. -1.
         -4   -1    0    0    0  501 -0.00000000000E+00 -0.00000000000E+00 -0.52122520300E+02  0.52137990203E+02  0.12700000000E+01 0. -1.
         25    2    1    2    0    0  0.00000000000E+00  0.00000000000E+00  0.22788760006E+02  0.12706003514E+03  0.12499969979E+03 0.  0.
    9000005    1    3    3    0    0 -0.54378618177E+02 -0.12672256408E+02  0.39921366627E+02  0.68646454465E+02  0.10000000000E+01 0.  0.
    9000005    1    3    3    0    0  0.54378618177E+02  0.12672256408E+02 -0.17132606621E+02  0.58413580672E+02  0.10000000000E+01 0.  0.
<mgrwt>
<rscale>  0 0.12499970E+03</rscale>
<asrwt>0</asrwt>
<pdfrwt beam="1">  1        4 0.11526830E-01 0.12499970E+03</pdfrwt>
<pdfrwt beam="2">  1       -4 0.80208673E-02 0.12499970E+03</pdfrwt>
<totfact> 0.10407912E+04</totfact>
</mgrwt>
</event>
<event>
 5    1  0.3206158E-002  0.1249999E+03  0.7818608E-02  0.1235070E+00
          4   -1    0    0  501    0  0.00000000000E+00  0.00000000000E+00  0.49717060746E+02  0.49733278891E+02  0.12700000000E+01 0.  1.
         -4   -1    0    0    0  501 -0.00000000000E+00 -0.00000000000E+00 -0.78535264408E+02  0.78545532372E+02  0.12700000000E+01 0.  1.
         25    2    1    2    0    0  0.00000000000E+00  0.00000000000E+00 -0.28818203662E+02  0.12827881126E+03  0.12499985823E+03 0.  0.
    9000005    1    3    3    0    0 -0.51852062806E+01 -0.25041045059E+00 -0.78318637526E+02  0.78496866520E+02  0.10000000000E+01 0.  0.
    9000005    1    3    3    0    0  0.51852062806E+01  0.25041045059E+00  0.49500433864E+02  0.49781944742E+02  0.10000000000E+01 0.  0.
<mgrwt>
<rscale>  0 0.12499986E+03</rscale>
<asrwt>0</asrwt>
<pdfrwt beam="1">  1        4 0.76508160E-02 0.12499986E+03</pdfrwt>
<pdfrwt beam="2">  1       -4 0.12084386E-01 0.12499986E+03</pdfrwt>
<totfact> 0.10381504E+04</totfact>
</mgrwt>
</event>
<event>
 5    1  0.3206158E-002  0.1250014E+03  0.7818608E-02  0.1235067E+00
          4   -1    0    0  501    0  0.00000000000E+00  0.00000000000E+00  0.23358350761E+02  0.23392850409E+02  0.12700000000E+01 0.  1.
         -4   -1    0    0    0  501 -0.00000000000E+00 -0.00000000000E+00 -0.16707487936E+03  0.16707970617E+03  0.12700000000E+01 0.  1.
         25    2    1    2    0    0  0.00000000000E+00  0.00000000000E+00 -0.14371652860E+03  0.19047255657E+03  0.12500141686E+03 0.  0.
    9000005    1    3    3    0    0 -0.12028790530E+02  0.44979399739E+02 -0.83427343570E+01  0.47312148747E+02  0.10000000000E+01 0.  0.
    9000005    1    3    3    0    0  0.12028790530E+02 -0.44979399739E+02 -0.13537379424E+03  0.14316040783E+03  0.10000000000E+01 0.  0.
<mgrwt>
<rscale>  0 0.12500142E+03</rscale>
<asrwt>0</asrwt>
<pdfrwt beam="1">  1        4 0.35966176E-02 0.12500142E+03</pdfrwt>
<pdfrwt beam="2">  1       -4 0.25706852E-01 0.12500142E+03</pdfrwt>
<totfact> 0.91762244E+03</totfact>
</mgrwt>
</event>
<event>
 5    1  0.3206158E-002  0.1249951E+03  0.7818608E-02  0.1235077E+00
          4   -1    0    0  501    0  0.00000000000E+00  0.00000000000E+00  0.30440477705E+02  0.30466958872E+02  0.12700000000E+01 0. -1.
         -4   -1    0    0    0  501 -0.00000000000E+00 -0.00000000000E+00 -0.12822875512E+03  0.12823504412E+03  0.12700000000E+01 0. -1.
         25    2    1    2    0    0  0.00000000000E+00  0.00000000000E+00 -0.97788277413E+02  0.15870200299E+03  0.12499511412E+03 0.  0.
    9000005    1    3    3    0    0 -0.58626526847E+02  0.21124377316E+02 -0.54799881869E+02  0.82989975418E+02  0.10000000000E+01 0.  0.
    9000005    1    3    3    0    0  0.58626526847E+02 -0.21124377316E+02 -0.42988395544E+02  0.75712027569E+02  0.10000000000E+01 0.  0.
<mgrwt>
<rscale>  0 0.12499511E+03</rscale>
<asrwt>0</asrwt>
<pdfrwt beam="1">  1        4 0.46856713E-02 0.12499511E+03</pdfrwt>
<pdfrwt beam="2">  1       -4 0.19730021E-01 0.12499511E+03</pdfrwt>
<totfact> 0.97604334E+03</totfact>
</mgrwt>
</event>
<event>
 5    1  0.3206158E-002  0.1249985E+03  0.7818608E-02  0.1235072E+00
         -4   -1    0    0    0  501 -0.00000000000E+00  0.00000000000E+00  0.15963477805E+02  0.16013916561E+02  0.12700000000E+01 0. -1.
          4   -1    0    0  501    0  0.00000000000E+00 -0.00000000000E+00 -0.24425516369E+03  0.24425846533E+03  0.12700000000E+01 0. -1.
         25    2    1    2    0    0  0.00000000000E+00  0.00000000000E+00 -0.22829168588E+03  0.26027238189E+03  0.12499847573E+03 0.  0.
    9000005    1    3    3    0    0 -0.13148209425E+02  0.16581160170E+02 -0.23657777256E+03  0.23752442559E+03  0.10000000000E+01 0.  0.
    9000005    1    3    3    0    0  0.13148209425E+02 -0.16581160170E+02  0.82860866765E+01  0.22747956305E+02  0.10000000000E+01 0.  0.
<mgrwt>
<rscale>  0 0.12499848E+03</rscale>
<asrwt>0</asrwt>
<pdfrwt beam="2">  1        4 0.37581849E-01 0.12499848E+03</pdfrwt>
<pdfrwt beam="1">  1       -4 0.24600537E-02 0.12499848E+03</pdfrwt>
<totfact> 0.80870596E+03</totfact>
</mgrwt>
</event>
<event>
 5    1  0.3206158E-002  0.1250010E+03  0.7818608E-02  0.1235068E+00
         -4   -1    0    0    0  501 -0.00000000000E+00  0.00000000000E+00  0.68534933669E+01  0.69701701077E+01  0.12700000000E+01 0. -1.
          4   -1    0    0  501    0  0.00000000000E+00 -0.00000000000E+00 -0.56504583287E+03  0.56504726010E+03  0.12700000000E+01 0. -1.
         25    2    1    2    0    0  0.00000000000E+00  0.00000000000E+00 -0.55819233951E+03  0.57201743021E+03  0.12500101031E+03 0.  0.
    9000005    1    3    3    0    0  0.55619771520E+02  0.93478196739E+01 -0.40225815908E+03  0.40619400200E+03  0.10000000000E+01 0.  0.
    9000005    1    3    3    0    0 -0.55619771520E+02 -0.93478196739E+01 -0.15593418043E+03  0.16582342821E+03  0.10000000000E+01 0.  0.
<mgrwt>
<rscale>  0 0.12500101E+03</rscale>
<asrwt>0</asrwt>
<pdfrwt beam="2">  1        4 0.86939177E-01 0.12500101E+03</pdfrwt>
<pdfrwt beam="1">  1       -4 0.10634690E-02 0.12500101E+03</pdfrwt>
<totfact> 0.50681863E+03</totfact>
</mgrwt>
</event>
<event>
 5    1  0.3206158E-002  0.1249975E+03  0.7818608E-02  0.1235073E+00
         -4   -1    0    0    0  501 -0.00000000000E+00  0.00000000000E+00  0.14937465955E+02  0.14991357148E+02  0.12700000000E+01 0. -1.
          4   -1    0    0  501    0  0.00000000000E+00 -0.00000000000E+00 -0.26097030352E+03  0.26097339370E+03  0.12700000000E+01 0. -1.
         25    2    1    2    0    0  0.00000000000E+00  0.00000000000E+00 -0.24603283757E+03  0.27596475085E+03  0.12499754618E+03 0.  0.
    9000005    1    3    3    0    0 -0.33133880628E+02 -0.38298912334E+02 -0.42185939901E+02  0.65918997693E+02  0.10000000000E+01 0.  0.
    9000005    1    3    3    0    0  0.33133880628E+02  0.38298912334E+02 -0.20384689767E+03  0.21004575316E+03  0.10000000000E+01 0.  0.
<mgrwt>
<rscale>  0 0.12499755E+03</rscale>
<asrwt>0</asrwt>
<pdfrwt beam="2">  1        4 0.40153657E-01 0.12499755E+03</pdfrwt>
<pdfrwt beam="1">  1       -4 0.23024551E-02 0.12499755E+03</pdfrwt>
<totfact> 0.78720506E+03</totfact>
</mgrwt>
</event>
<event>
 5    1  0.3206158E-002  0.1250009E+03  0.7818608E-02  0.1235068E+00
          4   -1    0    0  501    0  0.00000000000E+00  0.00000000000E+00  0.32642012275E+03  0.32642259333E+03  0.12700000000E+01 0.  1.
         -4   -1    0    0    0  501 -0.00000000000E+00 -0.00000000000E+00 -0.11930897740E+02  0.11998300749E+02  0.12700000000E+01 0.  1.
         25    2    1    2    0    0  0.00000000000E+00  0.00000000000E+00  0.31448922501E+03  0.33842089408E+03  0.12500091560E+03 0.  0.
    9000005    1    3    3    0    0  0.23999397627E+02  0.44788700602E+02  0.25573061617E+03  0.26073194441E+03  0.10000000000E+01 0.  0.
    9000005    1    3    3    0    0 -0.23999397627E+02 -0.44788700602E+02  0.58758608838E+02  0.77688949669E+02  0.10000000000E+01 0.  0.
<mgrwt>
<rscale>  0 0.12500092E+03</rscale>
<asrwt>0</asrwt>
<pdfrwt beam="1">  1        4 0.50223856E-01 0.12500092E+03</pdfrwt>
<pdfrwt beam="2">  1       -4 0.18408976E-02 0.12500092E+03</pdfrwt>
<totfact> 0.71016027E+03</totfact>
</mgrwt>
</event>
<event>
 5    1  0.3206158E-002  0.1250008E+03  0.7818608E-02  0.1235068E+00
         -4   -1    0    0    0  501 -0.00000000000E+00  0.00000000000E+00  0.87561660263E+01  0.88477874906E+01  0.12700000000E+01 0. -1.
          4   -1    0    0  501    0  0.00000000000E+00 -0.00000000000E+00 -0.44370560452E+03  0.44370742205E+03  0.12700000000E+01 0. -1.
         25    2    1    2    0    0  0.00000000000E+00  0.00000000000E+00 -0.43494943849E+03  0.45255520954E+03  0.12500081454E+03 0.  0.
    9000005    1    3    3    0    0 -0.12850631003E+02  0.37970055036E+02 -0.39104486907E+03  0.39309534902E+03  0.10000000000E+01 0.  0.
    9000005    1    3    3    0    0  0.12850631003E+02 -0.37970055036E+02 -0.43904569423E+02  0.59459860519E+02  0.10000000000E+01 0.  0.
<mgrwt>
<rscale>  0 0.12500081E+03</rscale>
<asrwt>0</asrwt>
<pdfrwt beam="2">  1        4 0.68269571E-01 0.12500081E+03</pdfrwt>
<pdfrwt beam="1">  1       -4 0.13542904E-02 0.12500081E+03</pdfrwt>
<totfact> 0.59742010E+03</totfact>
</mgrwt>
</event>
<event>
 5    1  0.3206158E-002  0.1249419E+03  0.7818608E-02  0.1235160E+00
         -4   -1    0    0    0  501 -0.00000000000E+00  0.00000000000E+00  0.68319196859E+03  0.68319314900E+03  0.12700000000E+01 0. -1.
          4   -1    0    0  501    0  0.00000000000E+00 -0.00000000000E+00 -0.56405463610E+01  0.57817526107E+01  0.12700000000E+01 0. -1.
         25    2    1    2    0    0  0.00000000000E+00  0.00000000000E+00  0.67755142223E+03  0.68897490161E+03  0.12494192767E+03 0.  0.
    9000005    1    3    3    0    0 -0.54865895692E+02  0.13195762046E+02  0.48645630034E+03  0.48971943680E+03  0.10000000000E+01 0.  0.
    9000005    1    3    3    0    0  0.54865895692E+02 -0.13195762046E+02  0.19109512189E+03  0.19925546481E+03  0.10000000000E+01 0.  0.
<mgrwt>
<rscale>  0 0.12494193E+03</rscale>
<asrwt>0</asrwt>
<pdfrwt beam="2">  1        4 0.87873002E-03 0.12494193E+03</pdfrwt>
<pdfrwt beam="1">  1       -4 0.10511731E+00 0.12494193E+03</pdfrwt>
<totfact> 0.43730698E+03</totfact>
</mgrwt>
</event>
<event>
 5    1  0.3206158E-002  0.1249986E+03  0.7818608E-02  0.1235072E+00
         -4   -1    0    0    0  501 -0.00000000000E+00  0.00000000000E+00  0.33058675686E+01  0.35414206727E+01  0.12700000000E+01 0.  1.
          4   -1    0    0  501    0  0.00000000000E+00 -0.00000000000E+00 -0.11407004037E+04  0.11407011107E+04  0.12700000000E+01 0.  1.
         25    2    1    2    0    0  0.00000000000E+00  0.00000000000E+00 -0.11373945361E+04  0.11442425313E+04  0.12499855891E+03 0.  0.
    9000005    1    3    3    0    0  0.48091671225E+02  0.39706579591E+02 -0.53238139237E+03  0.53602273109E+03  0.10000000000E+01 0.  0.
    9000005    1    3    3    0    0 -0.48091671225E+02 -0.39706579591E+02 -0.60501314375E+03  0.60821980025E+03  0.10000000000E+01 0.  0.
<mgrwt>
<rscale>  0 0.12499856E+03</rscale>
<asrwt>0</asrwt>
<pdfrwt beam="2">  1        4 0.17551024E+00 0.12499856E+03</pdfrwt>
<pdfrwt beam="1">  1       -4 0.52676977E-03 0.12499856E+03</pdfrwt>
<totfact> 0.26221400E+03</totfact>
</mgrwt>
</event>
<event>
 5    1  0.3206158E-002  0.1249961E+03  0.7818608E-02  0.1235075E+00
         -4   -1    0    0    0  501 -0.00000000000E+00  0.00000000000E+00  0.13952894648E+02  0.14010573473E+02  0.12700000000E+01 0.  1.
          4   -1    0    0  501    0  0.00000000000E+00 -0.00000000000E+00 -0.27930595312E+03  0.27930884044E+03  0.12700000000E+01 0.  1.
         25    2    1    2    0    0  0.00000000000E+00  0.00000000000E+00 -0.26535305847E+03  0.29331941391E+03  0.12499613169E+03 0.  0.
    9000005    1    3    3    0    0  0.41635735437E+01 -0.27902243648E+02 -0.18293956090E+01  0.28288111170E+02  0.10000000000E+01 0.  0.
    9000005    1    3    3    0    0 -0.41635735437E+01  0.27902243648E+02 -0.26352366286E+03  0.26503130274E+03  0.10000000000E+01 0.  0.
<mgrwt>
<rscale>  0 0.12499613E+03</rscale>
<asrwt>0</asrwt>
<pdfrwt beam="2">  1        4 0.42974801E-01 0.12499613E+03</pdfrwt>
<pdfrwt beam="1">  1       -4 0.21512583E-02 0.12499613E+03</pdfrwt>
<totfact> 0.76451123E+03</totfact>
</mgrwt>
</event>
<event>
 5    1  0.3206158E-002  0.1250021E+03  0.7818608E-02  0.1235066E+00
         -4   -1    0    0    0  501 -0.00000000000E+00  0.00000000000E+00  0.29437632568E+03  0.29437906518E+03  0.12700000000E+01 0.  1.
          4   -1    0    0  501    0  0.00000000000E+00 -0.00000000000E+00 -0.13236830312E+02  0.13297615452E+02  0.12700000000E+01 0.  1.
         25    2    1    2    0    0  0.00000000000E+00  0.00000000000E+00  0.28113949536E+03  0.30767668064E+03  0.12500209580E+03 0.  0.
    9000005    1    3    3    0    0 -0.43083724821E+02  0.34170954004E+02  0.67490635878E+02  0.87062318906E+02  0.10000000000E+01 0.  0.
    9000005    1    3    3    0    0  0.43083724821E+02 -0.34170954004E+02  0.21364885949E+03  0.22061436173E+03  0.10000000000E+01 0.  0.
<mgrwt>
<rscale>  0 0.12500210E+03</rscale>
<asrwt>0</asrwt>
<pdfrwt beam="2">  1        4 0.20413221E-02 0.12500210E+03</pdfrwt>
<pdfrwt beam="1">  1       -4 0.45293548E-01 0.12500210E+03</pdfrwt>
<totfact> 0.74642401E+03</totfact>
</mgrwt>
</event>
<event>
 5    1  0.3206158E-002  0.1249895E+03  0.7818608E-02  0.1235086E+00
          4   -1    0    0  501    0  0.00000000000E+00  0.00000000000E+00  0.47562061437E+02  0.47579014156E+02  0.12700000000E+01 0. -1.
         -4   -1    0    0    0  501 -0.00000000000E+00 -0.00000000000E+00 -0.82079199243E+02  0.82089023921E+02  0.12700000000E+01 0. -1.
         25    2    1    2    0    0  0.00000000000E+00  0.00000000000E+00 -0.34517137806E+02  0.12966803808E+03  0.12498946874E+03 0.  0.
    9000005    1    3    3    0    0 -0.13755699616E+02 -0.46052195626E+01  0.45796155713E+02  0.48049091533E+02  0.10000000000E+01 0.  0.
    9000005    1    3    3    0    0  0.13755699616E+02  0.46052195626E+01 -0.80313293519E+02  0.81618946544E+02  0.10000000000E+01 0.  0.
<mgrwt>
<rscale>  0 0.12498947E+03</rscale>
<asrwt>0</asrwt>
<pdfrwt beam="1">  1        4 0.73193000E-02 0.12498947E+03</pdfrwt>
<pdfrwt beam="2">  1       -4 0.12629629E-01 0.12498947E+03</pdfrwt>
<totfact> 0.10354075E+04</totfact>
</mgrwt>
</event>
<event>
 5    1  0.3206158E-002  0.1249961E+03  0.7818608E-02  0.1235075E+00
         -4   -1    0    0    0  501 -0.00000000000E+00  0.00000000000E+00  0.39024507172E+02  0.39045166923E+02  0.12700000000E+01 0.  1.
          4   -1    0    0  501    0  0.00000000000E+00 -0.00000000000E+00 -0.10003985168E+03  0.10004791264E+03  0.12700000000E+01 0.  1.
         25    2    1    2    0    0  0.00000000000E+00  0.00000000000E+00 -0.61015344504E+02  0.13909307956E+03  0.12499605001E+03 0.  0.
    9000005    1    3    3    0    0 -0.37438149929E+02  0.49982486372E+02 -0.27985043098E+02  0.68439949234E+02  0.10000000000E+01 0.  0.
    9000005    1    3    3    0    0  0.37438149929E+02 -0.49982486372E+02 -0.33030301407E+02  0.70653130327E+02  0.10000000000E+01 0.  0.
<mgrwt>
<rscale>  0 0.12499605E+03</rscale>
<asrwt>0</asrwt>
<pdfrwt beam="2">  1        4 0.15392956E-01 0.12499605E+03</pdfrwt>
<pdfrwt beam="1">  1       -4 0.60059796E-02 0.12499605E+03</pdfrwt>
<totfact> 0.10153320E+04</totfact>
</mgrwt>
</event>
<event>
 5    1  0.3206158E-002  0.1250036E+03  0.7818608E-02  0.1235064E+00
          4   -1    0    0  501    0  0.00000000000E+00  0.00000000000E+00  0.51880530005E+02  0.51896072044E+02  0.12700000000E+01 0. -1.
         -4   -1    0    0    0  501 -0.00000000000E+00 -0.00000000000E+00 -0.75265398750E+02  0.75276112738E+02  0.12700000000E+01 0. -1.
         25    2    1    2    0    0  0.00000000000E+00  0.00000000000E+00 -0.23384868745E+02  0.12717218478E+03  0.12500364993E+03 0.  0.
    9000005    1    3    3    0    0 -0.39650747784E+02 -0.47655672513E+02 -0.36667789424E+01  0.62110306635E+02  0.10000000000E+01 0.  0.
    9000005    1    3    3    0    0  0.39650747784E+02  0.47655672513E+02 -0.19718089803E+02  0.65061878147E+02  0.10000000000E+01 0.  0.
<mgrwt>
<rscale>  0 0.12500365E+03</rscale>
<asrwt>0</asrwt>
<pdfrwt beam="1">  1        4 0.79836397E-02 0.12500365E+03</pdfrwt>
<pdfrwt beam="2">  1       -4 0.11581312E-01 0.12500365E+03</pdfrwt>
<totfact> 0.10404550E+04</totfact>
</mgrwt>
</event>
<event>
 5    1  0.3206158E-002  0.1249995E+03  0.7818608E-02  0.1235070E+00
          4   -1    0    0  501    0  0.00000000000E+00  0.00000000000E+00  0.17436008567E+03  0.17436471080E+03  0.12700000000E+01 0.  1.
         -4   -1    0    0    0  501 -0.00000000000E+00 -0.00000000000E+00 -0.22380258844E+02  0.22416263871E+02  0.12700000000E+01 0.  1.
         25    2    1    2    0    0  0.00000000000E+00  0.00000000000E+00  0.15197982682E+03  0.19678097467E+03  0.12499953693E+03 0.  0.
    9000005    1    3    3    0    0 -0.15397687061E+02 -0.23829092533E+02 -0.11665154077E+02  0.30691859465E+02  0.10000000000E+01 0.  0.
    9000005    1    3    3    0    0  0.15397687061E+02  0.23829092533E+02  0.16364498090E+03  0.16608911521E+03  0.10000000000E+01 0.  0.
<mgrwt>
<rscale>  0 0.12499954E+03</rscale>
<asrwt>0</asrwt>
<pdfrwt beam="1">  1        4 0.26827754E-01 0.12499954E+03</pdfrwt>
<pdfrwt beam="2">  1       -4 0.34462421E-02 0.12499954E+03</pdfrwt>
<totfact> 0.90681589E+03</totfact>
</mgrwt>
</event>
<event>
 5    1  0.3206158E-002  0.1250063E+03  0.7818608E-02  0.1235060E+00
          4   -1    0    0  501    0  0.00000000000E+00  0.00000000000E+00  0.74271460568E+02  0.74282317915E+02  0.12700000000E+01 0. -1.
         -4   -1    0    0    0  501 -0.00000000000E+00 -0.00000000000E+00 -0.52577119972E+02  0.52592456156E+02  0.12700000000E+01 0. -1.
         25    2    1    2    0    0  0.00000000000E+00  0.00000000000E+00  0.21694340596E+02  0.12687477407E+03  0.12500625537E+03 0.  0.
    9000005    1    3    3    0    0  0.36479122306E+02 -0.50685324218E+02  0.83792583048E+01  0.63015398317E+02  0.10000000000E+01 0.  0.
    9000005    1    3    3    0    0 -0.36479122306E+02  0.50685324218E+02  0.13315082291E+02  0.63859375754E+02  0.10000000000E+01 0.  0.
<mgrwt>
<rscale>  0 0.12500626E+03</rscale>
<asrwt>0</asrwt>
<pdfrwt beam="1">  1        4 0.11428393E-01 0.12500626E+03</pdfrwt>
<pdfrwt beam="2">  1       -4 0.80908026E-02 0.12500626E+03</pdfrwt>
<totfact> 0.10410397E+04</totfact>
</mgrwt>
</event>
<event>
 5    1  0.3206158E-002  0.1249997E+03  0.7818608E-02  0.1235070E+00
          4   -1    0    0  501    0  0.00000000000E+00  0.00000000000E+00  0.40239247223E+03  0.40239447636E+03  0.12700000000E+01 0. -1.
         -4   -1    0    0    0  501 -0.00000000000E+00 -0.00000000000E+00 -0.96639433231E+01  0.97470354751E+01  0.12700000000E+01 0. -1.
         25    2    1    2    0    0  0.00000000000E+00  0.00000000000E+00  0.39272852891E+03  0.41214151184E+03  0.12499971345E+03 0.  0.
    9000005    1    3    3    0    0  0.14550091373E+02  0.44762023889E+02  0.60824626076E+02  0.76915402092E+02  0.10000000000E+01 0.  0.
    9000005    1    3    3    0    0 -0.14550091373E+02 -0.44762023889E+02  0.33190390283E+03  0.33522610975E+03  0.10000000000E+01 0.  0.
<mgrwt>
<rscale>  0 0.12499971E+03</rscale>
<asrwt>0</asrwt>
<pdfrwt beam="1">  1        4 0.61913073E-01 0.12499971E+03</pdfrwt>
<pdfrwt beam="2">  1       -4 0.14933066E-02 0.12499971E+03</pdfrwt>
<totfact> 0.63389209E+03</totfact>
</mgrwt>
</event>
<event>
 5    1  0.3206158E-002  0.1249995E+03  0.7818608E-02  0.1235070E+00
         -4   -1    0    0    0  501 -0.00000000000E+00  0.00000000000E+00  0.62914620563E+01  0.64183638730E+01  0.12700000000E+01 0. -1.
          4   -1    0    0  501    0  0.00000000000E+00 -0.00000000000E+00 -0.61454910957E+03  0.61455042183E+03  0.12700000000E+01 0. -1.
         25    2    1    2    0    0  0.00000000000E+00  0.00000000000E+00 -0.60825764752E+03  0.62096878571E+03  0.12499946824E+03 0.  0.
    9000005    1    3    3    0    0  0.25345896742E+02 -0.49259040626E+02 -0.44779529591E+03  0.45121003380E+03  0.10000000000E+01 0.  0.
    9000005    1    3    3    0    0 -0.25345896742E+02  0.49259040626E+02 -0.16046235161E+03  0.16975875191E+03  0.10000000000E+01 0.  0.
<mgrwt>
<rscale>  0 0.12499947E+03</rscale>
<asrwt>0</asrwt>
<pdfrwt beam="2">  1        4 0.94555833E-01 0.12499947E+03</pdfrwt>
<pdfrwt beam="1">  1       -4 0.97778034E-03 0.12499947E+03</pdfrwt>
<totfact> 0.47570770E+03</totfact>
</mgrwt>
</event>
<event>
 5    1  0.3206158E-002  0.1250018E+03  0.7818608E-02  0.1235066E+00
         -4   -1    0    0    0  501 -0.00000000000E+00  0.00000000000E+00  0.13627492150E+02  0.13686542379E+02  0.12700000000E+01 0.  1.
          4   -1    0    0  501    0  0.00000000000E+00 -0.00000000000E+00 -0.28597303755E+03  0.28597585755E+03  0.12700000000E+01 0.  1.
         25    2    1    2    0    0  0.00000000000E+00  0.00000000000E+00 -0.27234554540E+03  0.29966239993E+03  0.12500183133E+03 0.  0.
    9000005    1    3    3    0    0 -0.20612509151E+02  0.37295529470E+02 -0.26590467208E+02  0.50238282199E+02  0.10000000000E+01 0.  0.
    9000005    1    3    3    0    0  0.20612509151E+02 -0.37295529470E+02 -0.24575507819E+03  0.24942411773E+03  0.10000000000E+01 0.  0.
<mgrwt>
<rscale>  0 0.12500183E+03</rscale>
<asrwt>0</asrwt>
<pdfrwt beam="2">  1        4 0.44000607E-01 0.12500183E+03</pdfrwt>
<pdfrwt beam="1">  1       -4 0.21012967E-02 0.12500183E+03</pdfrwt>
<totfact> 0.75638133E+03</totfact>
</mgrwt>
</event>
<event>
 5    1  0.3206158E-002  0.1249994E+03  0.7818608E-02  0.1235070E+00
         -4   -1    0    0    0  501 -0.00000000000E+00  0.00000000000E+00  0.35400445434E+03  0.35400673241E+03  0.12700000000E+01 0.  1.
          4   -1    0    0  501    0  0.00000000000E+00 -0.00000000000E+00 -0.10995497039E+02  0.11068597704E+02  0.12700000000E+01 0.  1.
         25    2    1    2    0    0  0.00000000000E+00  0.00000000000E+00  0.34300895730E+03  0.36507533012E+03  0.12499940748E+03 0.  0.
    9000005    1    3    3    0    0  0.12883772214E+02 -0.60100815914E+02  0.20443283418E+03  0.21347572075E+03  0.10000000000E+01 0.  0.
    9000005    1    3    3    0    0 -0.12883772214E+02  0.60100815914E+02  0.13857612312E+03  0.15159960937E+03  0.10000000000E+01 0.  0.
<mgrwt>
<rscale>  0 0.12499941E+03</rscale>
<asrwt>0</asrwt>
<pdfrwt beam="2">  1        4 0.16974133E-02 0.12499941E+03</pdfrwt>
<pdfrwt beam="1">  1       -4 0.54468023E-01 0.12499941E+03</pdfrwt>
<totfact> 0.68098206E+03</totfact>
</mgrwt>
</event>
<event>
 5    1  0.3206158E-002  0.1249984E+03  0.7818608E-02  0.1235072E+00
         -4   -1    0    0    0  501 -0.00000000000E+00  0.00000000000E+00  0.23702621687E+03  0.23702961921E+03  0.12700000000E+01 0.  1.
          4   -1    0    0  501    0  0.00000000000E+00 -0.00000000000E+00 -0.16451841626E+02  0.16500787645E+02  0.12700000000E+01 0.  1.
         25    2    1    2    0    0  0.00000000000E+00  0.00000000000E+00  0.22057437525E+03  0.25353040686E+03  0.12499844874E+03 0.  0.
    9000005    1    3    3    0    0 -0.10525647296E+02  0.34418139305E+01 -0.14455735068E+02  0.18237423351E+02  0.10000000000E+01 0.  0.
    9000005    1    3    3    0    0  0.10525647296E+02 -0.34418139305E+01  0.23503011031E+03  0.23529298351E+03  0.10000000000E+01 0.  0.
<mgrwt>
<rscale>  0 0.12499845E+03</rscale>
<asrwt>0</asrwt>
<pdfrwt beam="2">  1        4 0.25350793E-02 0.12499845E+03</pdfrwt>
<pdfrwt beam="1">  1       -4 0.36469600E-01 0.12499845E+03</pdfrwt>
<totfact> 0.81825462E+03</totfact>
</mgrwt>
</event>
<event>
 5    1  0.3206158E-002  0.1249985E+03  0.7818608E-02  0.1235072E+00
          4   -1    0    0  501    0  0.00000000000E+00  0.00000000000E+00  0.17350077753E+02  0.17396496717E+02  0.12700000000E+01 0.  1.
         -4   -1    0    0    0  501 -0.00000000000E+00 -0.00000000000E+00 -0.22478879362E+03  0.22479238119E+03  0.12700000000E+01 0.  1.
         25    2    1    2    0    0  0.00000000000E+00  0.00000000000E+00 -0.20743871587E+03  0.24218887790E+03  0.12499852694E+03 0.  0.
    9000005    1    3    3    0    0  0.57621385024E+01 -0.24150247749E+02 -0.21483183532E+03  0.21626408433E+03  0.10000000000E+01 0.  0.
    9000005    1    3    3    0    0 -0.57621385024E+01  0.24150247749E+02  0.73931194472E+01  0.25924793569E+02  0.10000000000E+01 0.  0.
<mgrwt>
<rscale>  0 0.12499853E+03</rscale>
<asrwt>0</asrwt>
<pdfrwt beam="1">  1        4 0.26730895E-02 0.12499853E+03</pdfrwt>
<pdfrwt beam="2">  1       -4 0.34586736E-01 0.12499853E+03</pdfrwt>
<totfact> 0.83475191E+03</totfact>
</mgrwt>
</event>
<event>
 5    1  0.3206158E-002  0.1249981E+03  0.7818608E-02  0.1235072E+00
         -4   -1    0    0    0  501 -0.00000000000E+00  0.00000000000E+00  0.12474430024E+04  0.12474436489E+04  0.12700000000E+01 0.  1.
          4   -1    0    0  501    0  0.00000000000E+00 -0.00000000000E+00 -0.30018648461E+01  0.32594620038E+01  0.12700000000E+01 0.  1.
         25    2    1    2    0    0  0.00000000000E+00  0.00000000000E+00  0.12444411376E+04  0.12507031109E+04  0.12499810696E+03 0.  0.
    9000005    1    3    3    0    0 -0.39214422531E+01 -0.30718128603E+02  0.11653186423E+04  0.11657304659E+04  0.10000000000E+01 0.  0.
    9000005    1    3    3    0    0  0.39214422531E+01  0.30718128603E+02  0.79122495313E+02  0.84972645003E+02  0.10000000000E+01 0.  0.
<mgrwt>
<rscale>  0 0.12499811E+03</rscale>
<asrwt>0</asrwt>
<pdfrwt beam="2">  1        4 0.48169012E-03 0.12499811E+03</pdfrwt>
<pdfrwt beam="1">  1       -4 0.19193423E+00 0.12499811E+03</pdfrwt>
<totfact> 0.23423667E+03</totfact>
</mgrwt>
</event>
<event>
 5    1  0.3206158E-002  0.1250097E+03  0.7818608E-02  0.1235054E+00
          4   -1    0    0  501    0  0.00000000000E+00  0.00000000000E+00  0.54374943209E+02  0.54389772467E+02  0.12700000000E+01 0. -1.
         -4   -1    0    0    0  501 -0.00000000000E+00 -0.00000000000E+00 -0.71820092479E+02  0.71831320353E+02  0.12700000000E+01 0. -1.
         25    2    1    2    0    0  0.00000000000E+00  0.00000000000E+00 -0.17445149269E+02  0.12622109282E+03  0.12500972378E+03 0.  0.
    9000005    1    3    3    0    0 -0.59451518166E+02 -0.17831683195E+02 -0.13438306377E+01  0.62090722484E+02  0.10000000000E+01 0.  0.
    9000005    1    3    3    0    0  0.59451518166E+02  0.17831683195E+02 -0.16101318632E+02  0.64130370336E+02  0.10000000000E+01 0.  0.
<mgrwt>
<rscale>  0 0.12500972E+03</rscale>
<asrwt>0</asrwt>
<pdfrwt beam="1">  1        4 0.83673803E-02 0.12500972E+03</pdfrwt>
<pdfrwt beam="2">  1       -4 0.11051249E-01 0.12500972E+03</pdfrwt>
<totfact> 0.10423830E+04</totfact>
</mgrwt>
</event>
<event>
 5    1  0.3206158E-002  0.1250003E+03  0.7818608E-02  0.1235069E+00
          4   -1    0    0  501    0  0.00000000000E+00  0.00000000000E+00  0.15786393476E+03  0.15786904319E+03  0.12700000000E+01 0. -1.
         -4   -1    0    0    0  501 -0.00000000000E+00 -0.00000000000E+00 -0.24722711943E+02  0.24755310255E+02  0.12700000000E+01 0. -1.
         25    2    1    2    0    0  0.00000000000E+00  0.00000000000E+00  0.13314122282E+03  0.18262435344E+03  0.12500027703E+03 0.  0.
    9000005    1    3    3    0    0 -0.26738754633E+01 -0.58419638720E+02  0.34386869537E+02  0.67848806878E+02  0.10000000000E+01 0.  0.
    9000005    1    3    3    0    0  0.26738754633E+01  0.58419638720E+02  0.98754353279E+02  0.11477554657E+03  0.10000000000E+01 0.  0.
<mgrwt>
<rscale>  0 0.12500028E+03</rscale>
<asrwt>0</asrwt>
<pdfrwt beam="1">  1        4 0.24289659E-01 0.12500028E+03</pdfrwt>
<pdfrwt beam="2">  1       -4 0.38063948E-02 0.12500028E+03</pdfrwt>
<totfact> 0.93146155E+03</totfact>
</mgrwt>
</event>
<event>
 5    1  0.3206158E-002  0.1250004E+03  0.7818608E-02  0.1235069E+00
         -4   -1    0    0    0  501 -0.00000000000E+00  0.00000000000E+00  0.19120570183E+02  0.19162700857E+02  0.12700000000E+01 0. -1.
          4   -1    0    0  501    0  0.00000000000E+00 -0.00000000000E+00 -0.20402809506E+03  0.20403204766E+03  0.12700000000E+01 0. -1.
         25    2    1    2    0    0  0.00000000000E+00  0.00000000000E+00 -0.18490752487E+03  0.22319474852E+03  0.12500041204E+03 0.  0.
    9000005    1    3    3    0    0  0.60072441729E+02  0.16787394459E+02 -0.99313835178E+02  0.11728065794E+03  0.10000000000E+01 0.  0.
    9000005    1    3    3    0    0 -0.60072441729E+02 -0.16787394459E+02 -0.85593689695E+02  0.10591409058E+03  0.10000000000E+01 0.  0.
<mgrwt>
<rscale>  0 0.12500041E+03</rscale>
<asrwt>0</asrwt>
<pdfrwt beam="2">  1        4 0.31392481E-01 0.12500041E+03</pdfrwt>
<pdfrwt beam="1">  1       -4 0.29451712E-02 0.12500041E+03</pdfrwt>
<totfact> 0.86364539E+03</totfact>
</mgrwt>
</event>
<event>
 5    1  0.3206158E-002  0.1249897E+03  0.7818608E-02  0.1235085E+00
         -4   -1    0    0    0  501 -0.00000000000E+00  0.00000000000E+00  0.15477430209E+03  0.15477951250E+03  0.12700000000E+01 0.  1.
          4   -1    0    0  501    0  0.00000000000E+00 -0.00000000000E+00 -0.25212572880E+02  0.25244538642E+02  0.12700000000E+01 0.  1.
         25    2    1    2    0    0  0.00000000000E+00  0.00000000000E+00  0.12956172921E+03  0.18002405114E+03  0.12498966882E+03 0.  0.
    9000005    1    3    3    0    0 -0.40525568308E+02  0.27312317737E+02  0.86952044119E+01  0.49647668290E+02  0.10000000000E+01 0.  0.
    9000005    1    3    3    0    0  0.40525568308E+02 -0.27312317737E+02  0.12086652480E+03  0.13037638285E+03  0.10000000000E+01 0.  0.
<mgrwt>
<rscale>  0 0.12498967E+03</rscale>
<asrwt>0</asrwt>
<pdfrwt beam="2">  1        4 0.38817170E-02 0.12498967E+03</pdfrwt>
<pdfrwt beam="1">  1       -4 0.23814291E-01 0.12498967E+03</pdfrwt>
<totfact> 0.93634362E+03</totfact>
</mgrwt>
</event>
<event>
 5    1  0.3206158E-002  0.1250035E+03  0.7818608E-02  0.1235064E+00
          4   -1    0    0  501    0  0.00000000000E+00  0.00000000000E+00  0.15111649669E+03  0.15112183320E+03  0.12700000000E+01 0.  1.
         -4   -1    0    0    0  501 -0.00000000000E+00 -0.00000000000E+00 -0.25829318464E+02  0.25860521888E+02  0.12700000000E+01 0.  1.
         25    2    1    2    0    0  0.00000000000E+00  0.00000000000E+00  0.12528717822E+03  0.17698235509E+03  0.12500350790E+03 0.  0.
    9000005    1    3    3    0    0  0.17408306134E+02 -0.48527991065E+02  0.11264935410E+03  0.12389064540E+03  0.10000000000E+01 0.  0.
    9000005    1    3    3    0    0 -0.17408306134E+02  0.48527991065E+02  0.12637824124E+02  0.53091709690E+02  0.10000000000E+01 0.  0.
<mgrwt>
<rscale>  0 0.12500351E+03</rscale>
<asrwt>0</asrwt>
<pdfrwt beam="1">  1        4 0.23251503E-01 0.12500351E+03</pdfrwt>
<pdfrwt beam="2">  1       -4 0.39765520E-02 0.12500351E+03</pdfrwt>
<totfact> 0.94155618E+03</totfact>
</mgrwt>
</event>
<event>
 5    1  0.3206158E-002  0.1250007E+03  0.7818608E-02  0.1235068E+00
         -4   -1    0    0    0  501 -0.00000000000E+00  0.00000000000E+00  0.30820061827E+01  0.33334159821E+01  0.12700000000E+01 0. -1.
          4   -1    0    0  501    0  0.00000000000E+00 -0.00000000000E+00 -0.12175308122E+04  0.12175314745E+04  0.12700000000E+01 0. -1.
         25    2    1    2    0    0  0.00000000000E+00  0.00000000000E+00 -0.12144488060E+04  0.12208648905E+04  0.12500071413E+03 0.  0.
    9000005    1    3    3    0    0  0.21775576359E+02 -0.46599518961E+02 -0.95385913920E+03  0.95524549113E+03  0.10000000000E+01 0.  0.
    9000005    1    3    3    0    0 -0.21775576359E+02  0.46599518961E+02 -0.26058966678E+03  0.26561939938E+03  0.10000000000E+01 0.  0.
<mgrwt>
<rscale>  0 0.12500071E+03</rscale>
<asrwt>0</asrwt>
<pdfrwt beam="2">  1        4 0.18733145E+00 0.12500071E+03</pdfrwt>
<pdfrwt beam="1">  1       -4 0.49354594E-03 0.12500071E+03</pdfrwt>
<totfact> 0.24172743E+03</totfact>
</mgrwt>
</event>
<event>
 5    1  0.3206158E-002  0.1249705E+03  0.7818608E-02  0.1235115E+00
          4   -1    0    0  501    0  0.00000000000E+00  0.00000000000E+00  0.86530506901E+02  0.86539826233E+02  0.12700000000E+01 0. -1.
         -4   -1    0    0    0  501 -0.00000000000E+00 -0.00000000000E+00 -0.45101052541E+02  0.45118929955E+02  0.12700000000E+01 0. -1.
         25    2    1    2    0    0  0.00000000000E+00  0.00000000000E+00  0.41429454360E+02  0.13165875619E+03  0.12497051009E+03 0.  0.
    9000005    1    3    3    0    0  0.18570513578E+02 -0.32995715953E+02 -0.31642347266E+02  0.49354020974E+02  0.10000000000E+01 0.  0.
    9000005    1    3    3    0    0 -0.18570513578E+02  0.32995715953E+02  0.73071801626E+02  0.82304735214E+02  0.10000000000E+01 0.  0.
<mgrwt>
<rscale>  0 0.12497051E+03</rscale>
<asrwt>0</asrwt>
<pdfrwt beam="1">  1        4 0.13314478E-01 0.12497051E+03</pdfrwt>
<pdfrwt beam="2">  1       -4 0.69407155E-02 0.12497051E+03</pdfrwt>
<totfact> 0.10315849E+04</totfact>
</mgrwt>
</event>
<event>
 5    1  0.3206158E-002  0.1250007E+03  0.7818608E-02  0.1235068E+00
         -4   -1    0    0    0  501 -0.00000000000E+00  0.00000000000E+00  0.18646513381E+02  0.18689712712E+02  0.12700000000E+01 0. -1.
          4   -1    0    0  501    0  0.00000000000E+00 -0.00000000000E+00 -0.20920452497E+03  0.20920837977E+03  0.12700000000E+01 0. -1.
         25    2    1    2    0    0  0.00000000000E+00  0.00000000000E+00 -0.19055801159E+03  0.22789809248E+03  0.12500073911E+03 0.  0.
    9000005    1    3    3    0    0  0.36724140362E+02 -0.50356054029E+02 -0.10361422770E+03  0.12091857940E+03  0.10000000000E+01 0.  0.
    9000005    1    3    3    0    0 -0.36724140362E+02  0.50356054029E+02 -0.86943783889E+02  0.10697951308E+03  0.10000000000E+01 0.  0.
<mgrwt>
<rscale>  0 0.12500074E+03</rscale>
<asrwt>0</asrwt>
<pdfrwt beam="2">  1        4 0.32188930E-01 0.12500074E+03</pdfrwt>
<pdfrwt beam="1">  1       -4 0.28723141E-02 0.12500074E+03</pdfrwt>
<totfact> 0.85631983E+03</totfact>
</mgrwt>
</event>
<event>
 5    1  0.3206158E-002  0.1249996E+03  0.7818608E-02  0.1235070E+00
         -4   -1    0    0    0  501 -0.00000000000E+00  0.00000000000E+00  0.92532906120E+03  0.92532993273E+03  0.12700000000E+01 0.  1.
          4   -1    0    0  501    0  0.00000000000E+00 -0.00000000000E+00 -0.41250352240E+01  0.43161111663E+01  0.12700000000E+01 0.  1.
         25    2    1    2    0    0  0.00000000000E+00  0.00000000000E+00  0.92120402598E+03  0.92964604389E+03  0.12499963781E+03 0.  0.
    9000005    1    3    3    0    0 -0.52683829111E+02  0.30973487691E+02  0.36355179302E+03  0.36865410482E+03  0.10000000000E+01 0.  0.
    9000005    1    3    3    0    0  0.52683829111E+02 -0.30973487691E+02  0.55765223296E+03  0.56099193908E+03  0.10000000000E+01 0.  0.
<mgrwt>
<rscale>  0 0.12499964E+03</rscale>
<asrwt>0</asrwt>
<pdfrwt beam="2">  1        4 0.64938494E-03 0.12499964E+03</pdfrwt>
<pdfrwt beam="1">  1       -4 0.14237331E+00 0.12499964E+03</pdfrwt>
<totfact> 0.33050023E+03</totfact>
</mgrwt>
</event>
<event>
 5    1  0.3206158E-002  0.1249942E+03  0.7818608E-02  0.1235078E+00
          4   -1    0    0  501    0  0.00000000000E+00  0.00000000000E+00  0.32400359377E+03  0.32400608278E+03  0.12700000000E+01 0.  1.
         -4   -1    0    0    0  501 -0.00000000000E+00 -0.00000000000E+00 -0.12019086074E+02  0.12085997272E+02  0.12700000000E+01 0.  1.
         25    2    1    2    0    0  0.00000000000E+00  0.00000000000E+00  0.31198450770E+03  0.33609208005E+03  0.12499421278E+03 0.  0.
    9000005    1    3    3    0    0 -0.30251185298E+02  0.36422897615E+02  0.26564790822E+03  0.26983619628E+03  0.10000000000E+01 0.  0.
    9000005    1    3    3    0    0  0.30251185298E+02 -0.36422897615E+02  0.46336599479E+02  0.66255883768E+02  0.10000000000E+01 0.  0.
<mgrwt>
<rscale>  0 0.12499421E+03</rscale>
<asrwt>0</asrwt>
<pdfrwt beam="1">  1        4 0.49852045E-01 0.12499421E+03</pdfrwt>
<pdfrwt beam="2">  1       -4 0.18544287E-02 0.12499421E+03</pdfrwt>
<totfact> 0.71291330E+03</totfact>
</mgrwt>
</event>
<event>
 5    1  0.3206158E-002  0.1250082E+03  0.7818608E-02  0.1235056E+00
         -4   -1    0    0    0  501 -0.00000000000E+00  0.00000000000E+00  0.29107596299E+02  0.29135288951E+02  0.12700000000E+01 0.  1.
          4   -1    0    0  501    0  0.00000000000E+00 -0.00000000000E+00 -0.13412354015E+03  0.13412955275E+03  0.12700000000E+01 0.  1.
         25    2    1    2    0    0  0.00000000000E+00  0.00000000000E+00 -0.10501594385E+03  0.16326484171E+03  0.12500824003E+03 0.  0.
    9000005    1    3    3    0    0 -0.34703263402E+02 -0.51893831116E+02 -0.56310931751E+02  0.84078577731E+02  0.10000000000E+01 0.  0.
    9000005    1    3    3    0    0  0.34703263402E+02  0.51893831116E+02 -0.48705012099E+02  0.79186263974E+02  0.10000000000E+01 0.  0.
<mgrwt>
<rscale>  0 0.12500824E+03</rscale>
<asrwt>0</asrwt>
<pdfrwt beam="2">  1        4 0.20636983E-01 0.12500824E+03</pdfrwt>
<pdfrwt beam="1">  1       -4 0.44806845E-02 0.12500824E+03</pdfrwt>
<totfact> 0.96699112E+03</totfact>
</mgrwt>
</event>
<event>
 5    1  0.3206158E-002  0.1250015E+03  0.7818608E-02  0.1235067E+00
         -4   -1    0    0    0  501 -0.00000000000E+00  0.00000000000E+00  0.43830172652E+03  0.43830356646E+03  0.12700000000E+01 0. -1.
          4   -1    0    0  501    0  0.00000000000E+00 -0.00000000000E+00 -0.88653431666E+01  0.89558477802E+01  0.12700000000E+01 0. -1.
         25    2    1    2    0    0  0.00000000000E+00  0.00000000000E+00  0.42943638335E+03  0.44725941424E+03  0.12500150510E+03 0.  0.
    9000005    1    3    3    0    0 -0.29194960760E+02 -0.19055593583E+02  0.40028953794E+03  0.40180614177E+03  0.10000000000E+01 0.  0.
    9000005    1    3    3    0    0  0.29194960760E+02  0.19055593583E+02  0.29146845417E+02  0.45453272472E+02  0.10000000000E+01 0.  0.
<mgrwt>
<rscale>  0 0.12500151E+03</rscale>
<asrwt>0</asrwt>
<pdfrwt beam="2">  1        4 0.13710025E-02 0.12500151E+03</pdfrwt>
<pdfrwt beam="1">  1       -4 0.67438131E-01 0.12500151E+03</pdfrwt>
<totfact> 0.60199955E+03</totfact>
</mgrwt>
</event>
<event>
 5    1  0.3206158E-002  0.1249992E+03  0.7818608E-02  0.1235071E+00
         -4   -1    0    0    0  501 -0.00000000000E+00  0.00000000000E+00  0.84551424749E+01  0.85499903082E+01  0.12700000000E+01 0.  1.
          4   -1    0    0  501    0  0.00000000000E+00 -0.00000000000E+00 -0.45931815105E+03  0.45931990680E+03  0.12700000000E+01 0.  1.
         25    2    1    2    0    0  0.00000000000E+00  0.00000000000E+00 -0.45086300857E+03  0.46786989711E+03  0.12499915248E+03 0.  0.
    9000005    1    3    3    0    0  0.28900401981E+02  0.22901589088E+02 -0.41427540650E+03  0.41591444847E+03  0.10000000000E+01 0.  0.
    9000005    1    3    3    0    0 -0.28900401981E+02 -0.22901589088E+02 -0.36587602075E+02  0.51955448637E+02  0.10000000000E+01 0.  0.
<mgrwt>
<rscale>  0 0.12499915E+03</rscale>
<asrwt>0</asrwt>
<pdfrwt beam="2">  1        4 0.70671743E-01 0.12499915E+03</pdfrwt>
<pdfrwt beam="1">  1       -4 0.13082226E-02 0.12499915E+03</pdfrwt>
<totfact> 0.58447491E+03</totfact>
</mgrwt>
</event>
<event>
 5    1  0.3206158E-002  0.1249981E+03  0.7818608E-02  0.1235072E+00
          4   -1    0    0  501    0  0.00000000000E+00  0.00000000000E+00  0.44946657372E+03  0.44946836795E+03  0.12700000000E+01 0. -1.
         -4   -1    0    0    0  501 -0.00000000000E+00 -0.00000000000E+00 -0.86423802593E+01  0.87351952780E+01  0.12700000000E+01 0. -1.
         25    2    1    2    0    0  0.00000000000E+00  0.00000000000E+00  0.44082419346E+03  0.45820356323E+03  0.12499814326E+03 0.  0.
    9000005    1    3    3    0    0  0.32672555247E+02 -0.13073585819E+02  0.31115169730E+02  0.46984766679E+02  0.10000000000E+01 0.  0.
    9000005    1    3    3    0    0 -0.32672555247E+02  0.13073585819E+02  0.40970902373E+03  0.41121879655E+03  0.10000000000E+01 0.  0.
<mgrwt>
<rscale>  0 0.12499814E+03</rscale>
<asrwt>0</asrwt>
<pdfrwt beam="1">  1        4 0.69155989E-01 0.12499814E+03</pdfrwt>
<pdfrwt beam="2">  1       -4 0.13368745E-02 0.12499814E+03</pdfrwt>
<totfact> 0.59262069E+03</totfact>
</mgrwt>
</event>
<event>
 5    1  0.3206158E-002  0.1249913E+03  0.7818608E-02  0.1235083E+00
          4   -1    0    0  501    0  0.00000000000E+00  0.00000000000E+00  0.58131970397E+02  0.58145841487E+02  0.12700000000E+01 0. -1.
         -4   -1    0    0    0  501 -0.00000000000E+00 -0.00000000000E+00 -0.67158945742E+02  0.67170952749E+02  0.12700000000E+01 0. -1.
         25    2    1    2    0    0  0.00000000000E+00  0.00000000000E+00 -0.90269753447E+01  0.12531679424E+03  0.12499125023E+03 0.  0.
    9000005    1    3    3    0    0 -0.53167150765E+02  0.27890627509E+02 -0.21881137387E+02  0.63909445285E+02  0.10000000000E+01 0.  0.
    9000005    1    3    3    0    0  0.53167150765E+02 -0.27890627509E+02  0.12854162042E+02  0.61407348951E+02  0.10000000000E+01 0.  0.
<mgrwt>
<rscale>  0 0.12499125E+03</rscale>
<asrwt>0</asrwt>
<pdfrwt beam="1">  1        4 0.89453707E-02 0.12499125E+03</pdfrwt>
<pdfrwt beam="2">  1       -4 0.10334136E-01 0.12499125E+03</pdfrwt>
<totfact> 0.10448051E+04</totfact>
</mgrwt>
</event>
<event>
 5    1  0.3206158E-002  0.1250110E+03  0.7818608E-02  0.1235052E+00
         -4   -1    0    0    0  501 -0.00000000000E+00  0.00000000000E+00  0.17657928274E+02  0.17703540067E+02  0.12700000000E+01 0.  1.
          4   -1    0    0  501    0  0.00000000000E+00 -0.00000000000E+00 -0.22092399178E+03  0.22092764210E+03  0.12700000000E+01 0.  1.
         25    2    1    2    0    0  0.00000000000E+00  0.00000000000E+00 -0.20326606350E+03  0.23863118217E+03  0.12501099363E+03 0.  0.
    9000005    1    3    3    0    0  0.67659436206E+01  0.57015667069E+02 -0.14875468675E+03  0.15945382126E+03  0.10000000000E+01 0.  0.
    9000005    1    3    3    0    0 -0.67659436206E+01 -0.57015667069E+02 -0.54511376756E+02  0.79177360907E+02  0.10000000000E+01 0.  0.
<mgrwt>
<rscale>  0 0.12501099E+03</rscale>
<asrwt>0</asrwt>
<pdfrwt beam="2">  1        4 0.33992094E-01 0.12501099E+03</pdfrwt>
<pdfrwt beam="1">  1       -4 0.27203939E-02 0.12501099E+03</pdfrwt>
<totfact> 0.83981066E+03</totfact>
</mgrwt>
</event>
<event>
 5    1  0.3206158E-002  0.1249989E+03  0.7818608E-02  0.1235071E+00
         -4   -1    0    0    0  501 -0.00000000000E+00  0.00000000000E+00  0.25810833870E+02  0.25842059614E+02  0.12700000000E+01 0.  1.
          4   -1    0    0  501    0  0.00000000000E+00 -0.00000000000E+00 -0.15121352412E+03  0.15121885722E+03  0.12700000000E+01 0.  1.
         25    2    1    2    0    0  0.00000000000E+00  0.00000000000E+00 -0.12540269025E+03  0.17706091683E+03  0.12499893418E+03 0.  0.
    9000005    1    3    3    0    0  0.72425730146E+01 -0.59163524604E+01  0.24820957808E+02  0.26543135399E+02  0.10000000000E+01 0.  0.
    9000005    1    3    3    0    0 -0.72425730146E+01  0.59163524604E+01 -0.15022364806E+03  0.15051778143E+03  0.10000000000E+01 0.  0.
<mgrwt>
<rscale>  0 0.12499893E+03</rscale>
<asrwt>0</asrwt>
<pdfrwt beam="2">  1        4 0.23266431E-01 0.12499893E+03</pdfrwt>
<pdfrwt beam="1">  1       -4 0.39737098E-02 0.12499893E+03</pdfrwt>
<totfact> 0.94150990E+03</totfact>
</mgrwt>
</event>
<event>
 5    1  0.3206158E-002  0.1249828E+03  0.7818608E-02  0.1235096E+00
         -4   -1    0    0    0  501 -0.00000000000E+00  0.00000000000E+00  0.98691549701E+02  0.98699720782E+02  0.12700000000E+01 0.  1.
          4   -1    0    0  501    0  0.00000000000E+00 -0.00000000000E+00 -0.39549470589E+02  0.39569856252E+02  0.12700000000E+01 0.  1.
         25    2    1    2    0    0  0.00000000000E+00  0.00000000000E+00  0.59142079113E+02  0.13826957703E+03  0.12498276046E+03 0.  0.
    9000005    1    3    3    0    0 -0.46719353114E+01  0.18526646438E+02 -0.36243749056E+02  0.40983813311E+02  0.10000000000E+01 0.  0.
    9000005    1    3    3    0    0  0.46719353114E+01 -0.18526646438E+02  0.95385828169E+02  0.97285763724E+02  0.10000000000E+01 0.  0.
<mgrwt>
<rscale>  0 0.12498276E+03</rscale>
<asrwt>0</asrwt>
<pdfrwt beam="2">  1        4 0.60867307E-02 0.12498276E+03</pdfrwt>
<pdfrwt beam="1">  1       -4 0.15185512E-01 0.12498276E+03</pdfrwt>
<totfact> 0.10173528E+04</totfact>
</mgrwt>
</event>
<event>
 5    1  0.3206158E-002  0.1250011E+03  0.7818608E-02  0.1235068E+00
         -4   -1    0    0    0  501 -0.00000000000E+00  0.00000000000E+00  0.14424517348E+02  0.14480317701E+02  0.12700000000E+01 0. -1.
          4   -1    0    0  501    0  0.00000000000E+00 -0.00000000000E+00 -0.27023099057E+03  0.27023397485E+03  0.12700000000E+01 0. -1.
         25    2    1    2    0    0  0.00000000000E+00  0.00000000000E+00 -0.25580647322E+03  0.28471429255E+03  0.12500110656E+03 0.  0.
    9000005    1    3    3    0    0  0.59072537860E+02 -0.95251891364E+01 -0.16896654445E+03  0.17925118437E+03  0.10000000000E+01 0.  0.
    9000005    1    3    3    0    0 -0.59072537860E+02  0.95251891364E+01 -0.86839928775E+02  0.10546310818E+03  0.10000000000E+01 0.  0.
<mgrwt>
<rscale>  0 0.12500111E+03</rscale>
<asrwt>0</asrwt>
<pdfrwt beam="2">  1        4 0.41578517E-01 0.12500111E+03</pdfrwt>
<pdfrwt beam="1">  1       -4 0.22236786E-02 0.12500111E+03</pdfrwt>
<totfact> 0.77555243E+03</totfact>
</mgrwt>
</event>
<event>
 5    1  0.3206158E-002  0.1250014E+03  0.7818608E-02  0.1235067E+00
         -4   -1    0    0    0  501 -0.00000000000E+00  0.00000000000E+00  0.39159101845E+01  0.41167040910E+01  0.12700000000E+01 0. -1.
          4   -1    0    0  501    0  0.00000000000E+00 -0.00000000000E+00 -0.97241740123E+03  0.97241823056E+03  0.12700000000E+01 0. -1.
         25    2    1    2    0    0  0.00000000000E+00  0.00000000000E+00 -0.96850149105E+03  0.97653493465E+03  0.12500136170E+03 0.  0.
    9000005    1    3    3    0    0  0.52213398215E+02 -0.18202705134E+02 -0.25678871769E+03  0.26267665096E+03  0.10000000000E+01 0.  0.
    9000005    1    3    3    0    0 -0.52213398215E+02  0.18202705134E+02 -0.71171277336E+03  0.71385828369E+03  0.10000000000E+01 0.  0.
<mgrwt>
<rscale>  0 0.12500136E+03</rscale>
<asrwt>0</asrwt>
<pdfrwt beam="2">  1        4 0.14961800E+00 0.12500136E+03</pdfrwt>
<pdfrwt beam="1">  1       -4 0.61795798E-03 0.12500136E+03</pdfrwt>
<totfact> 0.31391321E+03</totfact>
</mgrwt>
</event>
<event>
 5    1  0.3206158E-002  0.1249997E+03  0.7818608E-02  0.1235070E+00
         -4   -1    0    0    0  501 -0.00000000000E+00  0.00000000000E+00  0.48277677057E+03  0.48277844101E+03  0.12700000000E+01 0.  1.
          4   -1    0    0  501    0  0.00000000000E+00 -0.00000000000E+00 -0.80396469378E+01  0.81393379881E+01  0.12700000000E+01 0.  1.
         25    2    1    2    0    0  0.00000000000E+00  0.00000000000E+00  0.47473712363E+03  0.49091777900E+03  0.12499971672E+03 0.  0.
    9000005    1    3    3    0    0 -0.34621576837E+02 -0.34242990667E+02  0.39118823643E+03  0.39420866596E+03  0.10000000000E+01 0.  0.
    9000005    1    3    3    0    0  0.34621576837E+02  0.34242990667E+02  0.83548887201E+02  0.96709113040E+02  0.10000000000E+01 0.  0.
<mgrwt>
<rscale>  0 0.12499972E+03</rscale>
<asrwt>0</asrwt>
<pdfrwt beam="2">  1        4 0.12446656E-02 0.12499972E+03</pdfrwt>
<pdfrwt beam="1">  1       -4 0.74281159E-01 0.12499972E+03</pdfrwt>
<totfact> 0.56576330E+03</totfact>
</mgrwt>
</event>
<event>
 5    1  0.3206158E-002  0.1250003E+03  0.7818608E-02  0.1235069E+00
         -4   -1    0    0    0  501 -0.00000000000E+00  0.00000000000E+00  0.87638159804E+02  0.87647361362E+02  0.12700000000E+01 0. -1.
          4   -1    0    0  501    0  0.00000000000E+00 -0.00000000000E+00 -0.44552100775E+02  0.44570198378E+02  0.12700000000E+01 0. -1.
         25    2    1    2    0    0  0.00000000000E+00  0.00000000000E+00  0.43086059029E+02  0.13221755974E+03  0.12500029848E+03 0.  0.
    9000005    1    3    3    0    0 -0.19358614624E+02 -0.12984435403E+01 -0.41290760331E+02  0.45632979352E+02  0.10000000000E+01 0.  0.
    9000005    1    3    3    0    0  0.19358614624E+02  0.12984435403E+01  0.84376819360E+02  0.86584580389E+02  0.10000000000E+01 0.  0.
<mgrwt>
<rscale>  0 0.12500030E+03</rscale>
<asrwt>0</asrwt>
<pdfrwt beam="2">  1        4 0.68562693E-02 0.12500030E+03</pdfrwt>
<pdfrwt beam="1">  1       -4 0.13484894E-01 0.12500030E+03</pdfrwt>
<totfact> 0.10296988E+04</totfact>
</mgrwt>
</event>
<event>
 5    1  0.3206158E-002  0.1249996E+03  0.7818608E-02  0.1235070E+00
         -4   -1    0    0    0  501 -0.00000000000E+00  0.00000000000E+00  0.36596826412E+01  0.38737807158E+01  0.12700000000E+01 0.  1.
          4   -1    0    0  501    0  0.00000000000E+00 -0.00000000000E+00 -0.10368187906E+04  0.10368195684E+04  0.12700000000E+01 0.  1.
         25    2    1    2    0    0  0.00000000000E+00  0.00000000000E+00 -0.10331591080E+04  0.10406933491E+04  0.12499961824E+03 0.  0.
    9000005    1    3    3    0    0  0.33867603701E+02  0.41085877665E+02 -0.24422232989E+03  0.24996121768E+03  0.10000000000E+01 0.  0.
    9000005    1    3    3    0    0 -0.33867603701E+02 -0.41085877665E+02 -0.78893677806E+03  0.79073213145E+03  0.10000000000E+01 0.  0.
<mgrwt>
<rscale>  0 0.12499962E+03</rscale>
<asrwt>0</asrwt>
<pdfrwt beam="2">  1        4 0.15952688E+00 0.12499962E+03</pdfrwt>
<pdfrwt beam="1">  1       -4 0.57955784E-03 0.12499962E+03</pdfrwt>
<totfact> 0.29287435E+03</totfact>
</mgrwt>
</event>
<event>
 5    1  0.3206158E-002  0.1250063E+03  0.7818608E-02  0.1235059E+00
         -4   -1    0    0    0  501 -0.00000000000E+00  0.00000000000E+00  0.12611314950E+02  0.12675100188E+02  0.12700000000E+01 0.  1.
          4   -1    0    0  501    0  0.00000000000E+00 -0.00000000000E+00 -0.30892658496E+03  0.30892919544E+03  0.12700000000E+01 0.  1.
         25    2    1    2    0    0  0.00000000000E+00  0.00000000000E+00 -0.29631527001E+03  0.32160429563E+03  0.12500633474E+03 0.  0.
    9000005    1    3    3    0    0  0.42429337532E+01 -0.42365302612E+02 -0.30463117467E+02  0.52362418566E+02  0.10000000000E+01 0.  0.
    9000005    1    3    3    0    0 -0.42429337532E+01  0.42365302612E+02 -0.26585215255E+03  0.26924187707E+03  0.10000000000E+01 0.  0.
<mgrwt>
<rscale>  0 0.12500633E+03</rscale>
<asrwt>0</asrwt>
<pdfrwt beam="2">  1        4 0.47532269E-01 0.12500633E+03</pdfrwt>
<pdfrwt beam="1">  1       -4 0.19453099E-02 0.12500633E+03</pdfrwt>
<totfact> 0.72955479E+03</totfact>
</mgrwt>
</event>
<event>
 5    1  0.3206158E-002  0.1249991E+03  0.7818608E-02  0.1235071E+00
         -4   -1    0    0    0  501 -0.00000000000E+00  0.00000000000E+00  0.98071352322E+01  0.98890242927E+01  0.12700000000E+01 0. -1.
          4   -1    0    0  501    0  0.00000000000E+00 -0.00000000000E+00 -0.39656203829E+03  0.39656407189E+03  0.12700000000E+01 0. -1.
         25    2    1    2    0    0  0.00000000000E+00  0.00000000000E+00 -0.38675490305E+03  0.40645309618E+03  0.12499905742E+03 0.  0.
    9000005    1    3    3    0    0 -0.52482684833E+02 -0.15105694803E+02 -0.94612017132E+02  0.10924764532E+03  0.10000000000E+01 0.  0.
    9000005    1    3    3    0    0  0.52482684833E+02  0.15105694803E+02 -0.29214288592E+03  0.29720545086E+03  0.10000000000E+01 0.  0.
<mgrwt>
<rscale>  0 0.12499906E+03</rscale>
<asrwt>0</asrwt>
<pdfrwt beam="2">  1        4 0.61015988E-01 0.12499906E+03</pdfrwt>
<pdfrwt beam="1">  1       -4 0.15152459E-02 0.12499906E+03</pdfrwt>
<totfact> 0.63931306E+03</totfact>
</mgrwt>
</event>
<event>
 5    1  0.3206158E-002  0.1250003E+03  0.7818608E-02  0.1235069E+00
         -4   -1    0    0    0  501 -0.00000000000E+00  0.00000000000E+00  0.65071997928E+01  0.66299735401E+01  0.12700000000E+01 0.  1.
          4   -1    0    0  501    0  0.00000000000E+00 -0.00000000000E+00 -0.59456603423E+03  0.59456739060E+03  0.12700000000E+01 0.  1.
         25    2    1    2    0    0  0.00000000000E+00  0.00000000000E+00 -0.58805883444E+03  0.60119736414E+03  0.12500031154E+03 0.  0.
    9000005    1    3    3    0    0 -0.70971820678E+01 -0.33028759413E+02 -0.41172386720E+02  0.53267573343E+02  0.10000000000E+01 0.  0.
    9000005    1    3    3    0    0  0.70971820678E+01  0.33028759413E+02 -0.54688644772E+03  0.54792979080E+03  0.10000000000E+01 0.  0.
<mgrwt>
<rscale>  0 0.12500031E+03</rscale>
<asrwt>0</asrwt>
<pdfrwt beam="2">  1        4 0.91481203E-01 0.12500031E+03</pdfrwt>
<pdfrwt beam="1">  1       -4 0.10106566E-02 0.12500031E+03</pdfrwt>
<totfact> 0.48791800E+03</totfact>
</mgrwt>
</event>
<event>
 5    1  0.3206158E-002  0.1250040E+03  0.7818608E-02  0.1235063E+00
         -4   -1    0    0    0  501 -0.00000000000E+00  0.00000000000E+00  0.13394585181E+04  0.13394591201E+04  0.12700000000E+01 0. -1.
          4   -1    0    0  501    0  0.00000000000E+00 -0.00000000000E+00 -0.27775903505E+01  0.30541624310E+01  0.12700000000E+01 0. -1.
         25    2    1    2    0    0  0.00000000000E+00  0.00000000000E+00  0.13366809277E+04  0.13425132826E+04  0.12500404535E+03 0.  0.
    9000005    1    3    3    0    0  0.11198352577E+01  0.47653824390E+02  0.11023864300E+04  0.11034169575E+04  0.10000000000E+01 0.  0.
    9000005    1    3    3    0    0 -0.11198352577E+01 -0.47653824390E+02  0.23429449769E+03  0.23909632506E+03  0.10000000000E+01 0.  0.
<mgrwt>
<rscale>  0 0.12500405E+03</rscale>
<asrwt>0</asrwt>
<pdfrwt beam="2">  1        4 0.44864162E-03 0.12500405E+03</pdfrwt>
<pdfrwt beam="1">  1       -4 0.20609235E+00 0.12500405E+03</pdfrwt>
<totfact> 0.21244850E+03</totfact>
</mgrwt>
</event>
<event>
 5    1  0.3206158E-002  0.1249991E+03  0.7818608E-02  0.1235071E+00
         -4   -1    0    0    0  501 -0.00000000000E+00  0.00000000000E+00  0.96194418914E+03  0.96194502750E+03  0.12700000000E+01 0.  1.
          4   -1    0    0  501    0  0.00000000000E+00 -0.00000000000E+00 -0.39605677383E+01  0.41592062716E+01  0.12700000000E+01 0.  1.
         25    2    1    2    0    0  0.00000000000E+00  0.00000000000E+00  0.95798362140E+03  0.96610423377E+03  0.12499908650E+03 0.  0.
    9000005    1    3    3    0    0 -0.53718318548E+02  0.65682665560E+01  0.23748494472E+03  0.24357524267E+03  0.10000000000E+01 0.  0.
    9000005    1    3    3    0    0  0.53718318548E+02 -0.65682665560E+01  0.72049867668E+03  0.72252899109E+03  0.10000000000E+01 0.  0.
<mgrwt>
<rscale>  0 0.12499909E+03</rscale>
<asrwt>0</asrwt>
<pdfrwt beam="2">  1        4 0.62466217E-03 0.12499909E+03</pdfrwt>
<pdfrwt beam="1">  1       -4 0.14800683E+00 0.12499909E+03</pdfrwt>
<totfact> 0.31751634E+03</totfact>
</mgrwt>
</event>
<event>
 5    1  0.3206158E-002  0.1249985E+03  0.7818608E-02  0.1235072E+00
         -4   -1    0    0    0  501 -0.00000000000E+00  0.00000000000E+00  0.85408561456E+01  0.86347625156E+01  0.12700000000E+01 0.  1.
          4   -1    0    0  501    0  0.00000000000E+00 -0.00000000000E+00 -0.45475419764E+03  0.45475597101E+03  0.12700000000E+01 0.  1.
         25    2    1    2    0    0  0.00000000000E+00  0.00000000000E+00 -0.44621334149E+03  0.46339073352E+03  0.12499850316E+03 0.  0.
    9000005    1    3    3    0    0 -0.60014512751E+02 -0.14802566665E+02 -0.25714380920E+03  0.26447078540E+03  0.10000000000E+01 0.  0.
    9000005    1    3    3    0    0  0.60014512751E+02  0.14802566665E+02 -0.18906953229E+03  0.19891994812E+03  0.10000000000E+01 0.  0.
<mgrwt>
<rscale>  0 0.12499850E+03</rscale>
<asrwt>0</asrwt>
<pdfrwt beam="2">  1        4 0.69969526E-01 0.12499850E+03</pdfrwt>
<pdfrwt beam="1">  1       -4 0.13213382E-02 0.12499850E+03</pdfrwt>
<totfact> 0.58823006E+03</totfact>
</mgrwt>
</event>
<event>
 5    1  0.3206158E-002  0.1250595E+03  0.7818608E-02  0.1234976E+00
          4   -1    0    0  501    0  0.00000000000E+00  0.00000000000E+00  0.63574453005E+02  0.63587136866E+02  0.12700000000E+01 0.  1.
         -4   -1    0    0    0  501 -0.00000000000E+00 -0.00000000000E+00 -0.61476882902E+02  0.61489999442E+02  0.12700000000E+01 0.  1.
         25    2    1    2    0    0  0.00000000000E+00  0.00000000000E+00  0.20975701026E+01  0.12507713631E+03  0.12505954672E+03 0.  0.
    9000005    1    3    3    0    0 -0.68572446072E+00  0.69494113710E+01  0.63188096044E+02  0.63580657578E+02  0.10000000000E+01 0.  0.
    9000005    1    3    3    0    0  0.68572446072E+00 -0.69494113710E+01 -0.61090525941E+02  0.61496478730E+02  0.10000000000E+01 0.  0.
<mgrwt>
<rscale>  0 0.12505955E+03</rscale>
<asrwt>0</asrwt>
<pdfrwt beam="1">  1        4 0.97826696E-02 0.12505955E+03</pdfrwt>
<pdfrwt beam="2">  1       -4 0.94599667E-02 0.12505955E+03</pdfrwt>
<totfact> 0.10437135E+04</totfact>
</mgrwt>
</event>
<event>
 5    1  0.3206158E-002  0.1249842E+03  0.7818608E-02  0.1235094E+00
          4   -1    0    0  501    0  0.00000000000E+00  0.00000000000E+00  0.35591741283E+02  0.35614392421E+02  0.12700000000E+01 0. -1.
         -4   -1    0    0    0  501 -0.00000000000E+00 -0.00000000000E+00 -0.10966265162E+03  0.10967000529E+03  0.12700000000E+01 0. -1.
         25    2    1    2    0    0  0.00000000000E+00  0.00000000000E+00 -0.74070910341E+02  0.14528439771E+03  0.12498422485E+03 0.  0.
    9000005    1    3    3    0    0  0.36431682313E+01  0.47107299628E+02  0.10494577739E+02  0.48409777059E+02  0.10000000000E+01 0.  0.
    9000005    1    3    3    0    0 -0.36431682313E+01 -0.47107299628E+02 -0.84565488080E+02  0.96874620656E+02  0.10000000000E+01 0.  0.
<mgrwt>
<rscale>  0 0.12498422E+03</rscale>
<asrwt>0</asrwt>
<pdfrwt beam="1">  1        4 0.54779606E-02 0.12498422E+03</pdfrwt>
<pdfrwt beam="2">  1       -4 0.16873485E-01 0.12498422E+03</pdfrwt>
<totfact> 0.10028775E+04</totfact>
</mgrwt>
</event>
<event>
 5    1  0.3206158E-002  0.1249993E+03  0.7818608E-02  0.1235070E+00
         -4   -1    0    0    0  501 -0.00000000000E+00  0.00000000000E+00  0.45591735403E+02  0.45609420486E+02  0.12700000000E+01 0.  1.
          4   -1    0    0  501    0  0.00000000000E+00 -0.00000000000E+00 -0.85638923675E+02  0.85648340020E+02  0.12700000000E+01 0.  1.
         25    2    1    2    0    0  0.00000000000E+00  0.00000000000E+00 -0.40047188272E+02  0.13125776051E+03  0.12499928962E+03 0.  0.
    9000005    1    3    3    0    0 -0.16569475732E+02 -0.95214314292E+01 -0.82500440840E+02  0.84690778254E+02  0.10000000000E+01 0.  0.
    9000005    1    3    3    0    0  0.16569475732E+02  0.95214314292E+01  0.42453252568E+02  0.46566982252E+02  0.10000000000E+01 0.  0.
<mgrwt>
<rscale>  0 0.12499929E+03</rscale>
<asrwt>0</asrwt>
<pdfrwt beam="2">  1        4 0.13177304E-01 0.12499929E+03</pdfrwt>
<pdfrwt beam="1">  1       -4 0.70161979E-02 0.12499929E+03</pdfrwt>
<totfact> 0.10317732E+04</totfact>
</mgrwt>
</event>
<event>
 5    1  0.3206158E-002  0.1250001E+03  0.7818608E-02  0.1235069E+00
         -4   -1    0    0    0  501 -0.00000000000E+00  0.00000000000E+00  0.11754011326E+02  0.11822422859E+02  0.12700000000E+01 0.  1.
          4   -1    0    0  501    0  0.00000000000E+00 -0.00000000000E+00 -0.33130008594E+03  0.33130252013E+03  0.12700000000E+01 0.  1.
         25    2    1    2    0    0  0.00000000000E+00  0.00000000000E+00 -0.31954607461E+03  0.34312494298E+03  0.12500013080E+03 0.  0.
    9000005    1    3    3    0    0 -0.63400861383E+01 -0.31895413563E+01 -0.33020369575E+03  0.33028147170E+03  0.10000000000E+01 0.  0.
    9000005    1    3    3    0    0  0.63400861383E+01  0.31895413563E+01  0.10657621135E+02  0.12843471282E+02  0.10000000000E+01 0.  0.
<mgrwt>
<rscale>  0 0.12500013E+03</rscale>
<asrwt>0</asrwt>
<pdfrwt beam="2">  1        4 0.50974687E-01 0.12500013E+03</pdfrwt>
<pdfrwt beam="1">  1       -4 0.18137594E-02 0.12500013E+03</pdfrwt>
<totfact> 0.70487376E+03</totfact>
</mgrwt>
</event>
<event>
 5    1  0.3206158E-002  0.1250001E+03  0.7818608E-02  0.1235069E+00
         -4   -1    0    0    0  501 -0.00000000000E+00  0.00000000000E+00  0.13136725171E+03  0.13137339047E+03  0.12700000000E+01 0. -1.
          4   -1    0    0  501    0  0.00000000000E+00 -0.00000000000E+00 -0.29715010381E+02  0.29742137481E+02  0.12700000000E+01 0. -1.
         25    2    1    2    0    0  0.00000000000E+00  0.00000000000E+00  0.10165224133E+03  0.16111552795E+03  0.12500014071E+03 0.  0.
    9000005    1    3    3    0    0  0.44064055918E+02  0.43870385414E+02  0.42776072600E+02  0.75478766070E+02  0.10000000000E+01 0.  0.
    9000005    1    3    3    0    0 -0.44064055918E+02 -0.43870385414E+02  0.58876168733E+02  0.85636761878E+02  0.10000000000E+01 0.  0.
<mgrwt>
<rscale>  0 0.12500014E+03</rscale>
<asrwt>0</asrwt>
<pdfrwt beam="2">  1        4 0.45740990E-02 0.12500014E+03</pdfrwt>
<pdfrwt beam="1">  1       -4 0.20212905E-01 0.12500014E+03</pdfrwt>
<totfact> 0.97127843E+03</totfact>
</mgrwt>
</event>
<event>
 5    1  0.3206158E-002  0.1249952E+03  0.7818608E-02  0.1235077E+00
         -4   -1    0    0    0  501 -0.00000000000E+00  0.00000000000E+00  0.19381236040E+03  0.19381652134E+03  0.12700000000E+01 0. -1.
          4   -1    0    0  501    0  0.00000000000E+00 -0.00000000000E+00 -0.20128874994E+02  0.20168899537E+02  0.12700000000E+01 0. -1.
         25    2    1    2    0    0  0.00000000000E+00  0.00000000000E+00  0.17368348541E+03  0.21398542087E+03  0.12499522889E+03 0.  0.
    9000005    1    3    3    0    0 -0.27949378891E+02  0.42252420050E+02  0.24208816872E+02  0.56156046823E+02  0.10000000000E+01 0.  0.
    9000005    1    3    3    0    0  0.27949378891E+02 -0.42252420050E+02  0.14947466853E+03  0.15782937405E+03  0.10000000000E+01 0.  0.
<mgrwt>
<rscale>  0 0.12499523E+03</rscale>
<asrwt>0</asrwt>
<pdfrwt beam="2">  1        4 0.31001490E-02 0.12499523E+03</pdfrwt>
<pdfrwt beam="1">  1       -4 0.29820684E-01 0.12499523E+03</pdfrwt>
<totfact> 0.87838484E+03</totfact>
</mgrwt>
</event>
<event>
 5    1  0.3206158E-002  0.1249878E+03  0.7818608E-02  0.1235088E+00
         -4   -1    0    0    0  501 -0.00000000000E+00  0.00000000000E+00  0.33750338211E+02  0.33774224334E+02  0.12700000000E+01 0.  1.
          4   -1    0    0  501    0  0.00000000000E+00 -0.00000000000E+00 -0.11564863560E+03  0.11565560867E+03  0.12700000000E+01 0.  1.
         25    2    1    2    0    0  0.00000000000E+00  0.00000000000E+00 -0.81898297391E+02  0.14942983300E+03  0.12498777491E+03 0.  0.
    9000005    1    3    3    0    0 -0.42656747497E+02  0.44141627116E+02 -0.54912327858E+02  0.82367743093E+02  0.10000000000E+01 0.  0.
    9000005    1    3    3    0    0  0.42656747497E+02 -0.44141627116E+02 -0.26985969533E+02  0.67062089910E+02  0.10000000000E+01 0.  0.
<mgrwt>
<rscale>  0 0.12498777E+03</rscale>
<asrwt>0</asrwt>
<pdfrwt beam="2">  1        4 0.17794471E-01 0.12498777E+03</pdfrwt>
<pdfrwt beam="1">  1       -4 0.51947336E-02 0.12498777E+03</pdfrwt>
<totfact> 0.99444833E+03</totfact>
</mgrwt>
</event>
<event>
 5    1  0.3206158E-002  0.1249984E+03  0.7818608E-02  0.1235072E+00
          4   -1    0    0  501    0  0.00000000000E+00  0.00000000000E+00  0.13183021623E+02  0.13244053726E+02  0.12700000000E+01 0.  1.
         -4   -1    0    0    0  501 -0.00000000000E+00 -0.00000000000E+00 -0.29555502073E+03  0.29555774931E+03  0.12700000000E+01 0.  1.
         25    2    1    2    0    0  0.00000000000E+00  0.00000000000E+00 -0.28237199910E+03  0.30880180304E+03  0.12499843071E+03 0.  0.
    9000005    1    3    3    0    0 -0.46357810639E+01  0.42716156272E+02 -0.25328520595E+03  0.25690573374E+03  0.10000000000E+01 0.  0.
    9000005    1    3    3    0    0  0.46357810639E+01 -0.42716156272E+02 -0.29086793150E+02  0.51896069297E+02  0.10000000000E+01 0.  0.
<mgrwt>
<rscale>  0 0.12499843E+03</rscale>
<asrwt>0</asrwt>
<pdfrwt beam="1">  1        4 0.20330621E-02 0.12499843E+03</pdfrwt>
<pdfrwt beam="2">  1       -4 0.45474903E-01 0.12499843E+03</pdfrwt>
<totfact> 0.74510453E+03</totfact>
</mgrwt>
</event>
<event>
 5    1  0.3206158E-002  0.1249988E+03  0.7818608E-02  0.1235071E+00
          4   -1    0    0  501    0  0.00000000000E+00  0.00000000000E+00  0.44747349388E+02  0.44765368057E+02  0.12700000000E+01 0.  1.
         -4   -1    0    0    0  501 -0.00000000000E+00 -0.00000000000E+00 -0.87253732865E+02  0.87262974960E+02  0.12700000000E+01 0.  1.
         25    2    1    2    0    0  0.00000000000E+00  0.00000000000E+00 -0.42506383477E+02  0.13202834302E+03  0.12499876289E+03 0.  0.
    9000005    1    3    3    0    0  0.44082031497E+02  0.43979647031E+02 -0.26816045913E+02  0.67805126446E+02  0.10000000000E+01 0.  0.
    9000005    1    3    3    0    0 -0.44082031497E+02 -0.43979647031E+02 -0.15690337564E+02  0.64223216571E+02  0.10000000000E+01 0.  0.
<mgrwt>
<rscale>  0 0.12499876E+03</rscale>
<asrwt>0</asrwt>
<pdfrwt beam="1">  1        4 0.68863046E-02 0.12499876E+03</pdfrwt>
<pdfrwt beam="2">  1       -4 0.13425748E-01 0.12499876E+03</pdfrwt>
<totfact> 0.10301381E+04</totfact>
</mgrwt>
</event>
<event>
 5    1  0.3206158E-002  0.1250017E+03  0.7818608E-02  0.1235067E+00
         -4   -1    0    0    0  501 -0.00000000000E+00  0.00000000000E+00  0.44684966897E+02  0.44703010711E+02  0.12700000000E+01 0. -1.
          4   -1    0    0  501    0  0.00000000000E+00 -0.00000000000E+00 -0.87379604881E+02  0.87388833664E+02  0.12700000000E+01 0. -1.
         25    2    1    2    0    0  0.00000000000E+00  0.00000000000E+00 -0.42694637984E+02  0.13209184437E+03  0.12500169294E+03 0.  0.
    9000005    1    3    3    0    0 -0.67782629458E+01 -0.62091809954E+02 -0.23465535492E+02  0.66730570714E+02  0.10000000000E+01 0.  0.
    9000005    1    3    3    0    0  0.67782629458E+01  0.62091809954E+02 -0.19229102491E+02  0.65361273660E+02  0.10000000000E+01 0.  0.
<mgrwt>
<rscale>  0 0.12500169E+03</rscale>
<asrwt>0</asrwt>
<pdfrwt beam="2">  1        4 0.13445114E-01 0.12500169E+03</pdfrwt>
<pdfrwt beam="1">  1       -4 0.68767082E-02 0.12500169E+03</pdfrwt>
<totfact> 0.10299345E+04</totfact>
</mgrwt>
</event>
<event>
 5    1  0.3206158E-002  0.1250039E+03  0.7818608E-02  0.1235063E+00
          4   -1    0    0  501    0  0.00000000000E+00  0.00000000000E+00  0.10465405464E+02  0.10542182484E+02  0.12700000000E+01 0. -1.
         -4   -1    0    0    0  501 -0.00000000000E+00 -0.00000000000E+00 -0.37183483030E+03  0.37183699914E+03  0.12700000000E+01 0. -1.
         25    2    1    2    0    0  0.00000000000E+00  0.00000000000E+00 -0.36136942484E+03  0.38237918162E+03  0.12500390925E+03 0.  0.
    9000005    1    3    3    0    0  0.34479625847E+02 -0.43015991814E+02 -0.90652415525E+02  0.10610410261E+03  0.10000000000E+01 0.  0.
    9000005    1    3    3    0    0 -0.34479625847E+02  0.43015991814E+02 -0.27071700931E+03  0.27627507901E+03  0.10000000000E+01 0.  0.
<mgrwt>
<rscale>  0 0.12500391E+03</rscale>
<asrwt>0</asrwt>
<pdfrwt beam="1">  1        4 0.16161354E-02 0.12500391E+03</pdfrwt>
<pdfrwt beam="2">  1       -4 0.57211421E-01 0.12500391E+03</pdfrwt>
<totfact> 0.66297703E+03</totfact>
</mgrwt>
</event>
<event>
 5    1  0.3206158E-002  0.1250039E+03  0.7818608E-02  0.1235063E+00
          4   -1    0    0  501    0  0.00000000000E+00  0.00000000000E+00  0.66527271353E+02  0.66539392345E+02  0.12700000000E+01 0.  1.
         -4   -1    0    0    0  501 -0.00000000000E+00 -0.00000000000E+00 -0.58695856800E+02  0.58709594663E+02  0.12700000000E+01 0.  1.
         25    2    1    2    0    0  0.00000000000E+00  0.00000000000E+00  0.78314145532E+01  0.12524898701E+03  0.12500391071E+03 0.  0.
    9000005    1    3    3    0    0  0.24344956561E+02  0.28535888841E+02  0.53998909143E+02  0.65756034328E+02  0.10000000000E+01 0.  0.
    9000005    1    3    3    0    0 -0.24344956561E+02 -0.28535888841E+02 -0.46167494590E+02  0.59492952680E+02  0.10000000000E+01 0.  0.
<mgrwt>
<rscale>  0 0.12500391E+03</rscale>
<asrwt>0</asrwt>
<pdfrwt beam="1">  1        4 0.10236954E-01 0.12500391E+03</pdfrwt>
<pdfrwt beam="2">  1       -4 0.90321210E-02 0.12500391E+03</pdfrwt>
<totfact> 0.10446534E+04</totfact>
</mgrwt>
</event>
<event>
 5    1  0.3206158E-002  0.1249989E+03  0.7818608E-02  0.1235071E+00
         -4   -1    0    0    0  501 -0.00000000000E+00  0.00000000000E+00  0.13014662797E+03  0.13015282430E+03  0.12700000000E+01 0.  1.
          4   -1    0    0  501    0  0.00000000000E+00 -0.00000000000E+00 -0.29993354771E+02  0.30020230352E+02  0.12700000000E+01 0.  1.
         25    2    1    2    0    0  0.00000000000E+00  0.00000000000E+00  0.10015327320E+03  0.16017305465E+03  0.12499891721E+03 0.  0.
    9000005    1    3    3    0    0 -0.51757207130E+02 -0.35018193113E+02  0.49671450242E+02  0.79833171727E+02  0.10000000000E+01 0.  0.
    9000005    1    3    3    0    0  0.51757207130E+02  0.35018193113E+02  0.50481822960E+02  0.80339882924E+02  0.10000000000E+01 0.  0.
<mgrwt>
<rscale>  0 0.12499892E+03</rscale>
<asrwt>0</asrwt>
<pdfrwt beam="2">  1        4 0.46169062E-02 0.12499892E+03</pdfrwt>
<pdfrwt beam="1">  1       -4 0.20025102E-01 0.12499892E+03</pdfrwt>
<totfact> 0.97311800E+03</totfact>
</mgrwt>
</event>
<event>
 5    1  0.3206158E-002  0.1250007E+03  0.7818608E-02  0.1235068E+00
          4   -1    0    0  501    0  0.00000000000E+00  0.00000000000E+00  0.98954295623E+01  0.99765939189E+01  0.12700000000E+01 0. -1.
         -4   -1    0    0    0  501 -0.00000000000E+00 -0.00000000000E+00 -0.39306257322E+03  0.39306462492E+03  0.12700000000E+01 0. -1.
         25    2    1    2    0    0  0.00000000000E+00  0.00000000000E+00 -0.38316714366E+03  0.40304121884E+03  0.12500065643E+03 0.  0.
    9000005    1    3    3    0    0  0.26992465466E+02 -0.27470621088E+01 -0.37309696241E+03  0.37408352397E+03  0.10000000000E+01 0.  0.
    9000005    1    3    3    0    0 -0.26992465466E+02  0.27470621088E+01 -0.10070181245E+02  0.28957694875E+02  0.10000000000E+01 0.  0.
<mgrwt>
<rscale>  0 0.12500066E+03</rscale>
<asrwt>0</asrwt>
<pdfrwt beam="1">  1        4 0.15287753E-02 0.12500066E+03</pdfrwt>
<pdfrwt beam="2">  1       -4 0.60477554E-01 0.12500066E+03</pdfrwt>
<totfact> 0.64257149E+03</totfact>
</mgrwt>
</event>
<event>
 5    1  0.3206158E-002  0.1250301E+03  0.7818608E-02  0.1235022E+00
         -4   -1    0    0    0  501 -0.00000000000E+00  0.00000000000E+00  0.39450277516E+02  0.39470714411E+02  0.12700000000E+01 0. -1.
          4   -1    0    0  501    0  0.00000000000E+00 -0.00000000000E+00 -0.99014646485E+02  0.99022790904E+02  0.12700000000E+01 0. -1.
         25    2    1    2    0    0  0.00000000000E+00  0.00000000000E+00 -0.59564368969E+02  0.13849350532E+03  0.12503014422E+03 0.  0.
    9000005    1    3    3    0    0  0.57186321046E+02  0.28873770774E+01 -0.57552122498E+02  0.81190264595E+02  0.10000000000E+01 0.  0.
    9000005    1    3    3    0    0 -0.57186321046E+02 -0.28873770774E+01 -0.20122464714E+01  0.57303240720E+02  0.10000000000E+01 0.  0.
<mgrwt>
<rscale>  0 0.12503014E+03</rscale>
<asrwt>0</asrwt>
<pdfrwt beam="2">  1        4 0.15235221E-01 0.12503014E+03</pdfrwt>
<pdfrwt beam="1">  1       -4 0.60714721E-02 0.12503014E+03</pdfrwt>
<totfact> 0.10158003E+04</totfact>
</mgrwt>
</event>
<event>
 5    1  0.3206158E-002  0.1249996E+03  0.7818608E-02  0.1235070E+00
         -4   -1    0    0    0  501 -0.00000000000E+00  0.00000000000E+00  0.97495463644E+01  0.98319150887E+01  0.12700000000E+01 0. -1.
          4   -1    0    0  501    0  0.00000000000E+00 -0.00000000000E+00 -0.39888810866E+03  0.39889013040E+03  0.12700000000E+01 0. -1.
         25    2    1    2    0    0  0.00000000000E+00  0.00000000000E+00 -0.38913856230E+03  0.40872204549E+03  0.12499955921E+03 0.  0.
    9000005    1    3    3    0    0  0.30946187657E+02  0.10489258072E+02 -0.20392637093E+02  0.38529867804E+02  0.10000000000E+01 0.  0.
    9000005    1    3    3    0    0 -0.30946187657E+02 -0.10489258072E+02 -0.36874592520E+03  0.37019217769E+03  0.10000000000E+01 0.  0.
<mgrwt>
<rscale>  0 0.12499956E+03</rscale>
<asrwt>0</asrwt>
<pdfrwt beam="2">  1        4 0.61373880E-01 0.12499956E+03</pdfrwt>
<pdfrwt beam="1">  1       -4 0.15064221E-02 0.12499956E+03</pdfrwt>
<totfact> 0.63713868E+03</totfact>
</mgrwt>
</event>
<event>
 5    1  0.3206158E-002  0.1249994E+03  0.7818608E-02  0.1235070E+00
         -4   -1    0    0    0  501 -0.00000000000E+00  0.00000000000E+00  0.41567622480E+02  0.41587018872E+02  0.12700000000E+01 0. -1.
          4   -1    0    0  501    0  0.00000000000E+00 -0.00000000000E+00 -0.93926840100E+02  0.93935425646E+02  0.12700000000E+01 0. -1.
         25    2    1    2    0    0  0.00000000000E+00  0.00000000000E+00 -0.52359217620E+02  0.13552244452E+03  0.12499938119E+03 0.  0.
    9000005    1    3    3    0    0 -0.31825141610E+02  0.46674721273E+02  0.27874523598E+01  0.56569772274E+02  0.10000000000E+01 0.  0.
    9000005    1    3    3    0    0  0.31825141610E+02 -0.46674721273E+02 -0.55146669980E+02  0.78952672243E+02  0.10000000000E+01 0.  0.
<mgrwt>
<rscale>  0 0.12499938E+03</rscale>
<asrwt>0</asrwt>
<pdfrwt beam="2">  1        4 0.14452436E-01 0.12499938E+03</pdfrwt>
<pdfrwt beam="1">  1       -4 0.63971713E-02 0.12499938E+03</pdfrwt>
<totfact> 0.10227214E+04</totfact>
</mgrwt>
</event>
<event>
 5    1  0.3206158E-002  0.1249888E+03  0.7818608E-02  0.1235087E+00
          4   -1    0    0  501    0  0.00000000000E+00  0.00000000000E+00  0.16227391541E+03  0.16227888501E+03  0.12700000000E+01 0. -1.
         -4   -1    0    0    0  501 -0.00000000000E+00 -0.00000000000E+00 -0.24045534005E+02  0.24079049101E+02  0.12700000000E+01 0. -1.
         25    2    1    2    0    0  0.00000000000E+00  0.00000000000E+00  0.13822838140E+03  0.18635793411E+03  0.12498877623E+03 0.  0.
    9000005    1    3    3    0    0  0.27817559168E+02 -0.15836750782E+02 -0.10900141060E+02  0.33829459773E+02  0.10000000000E+01 0.  0.
    9000005    1    3    3    0    0 -0.27817559168E+02  0.15836750782E+02  0.14912852246E+03  0.15252847434E+03  0.10000000000E+01 0.  0.
<mgrwt>
<rscale>  0 0.12498878E+03</rscale>
<asrwt>0</asrwt>
<pdfrwt beam="1">  1        4 0.24968178E-01 0.12498878E+03</pdfrwt>
<pdfrwt beam="2">  1       -4 0.37022733E-02 0.12498878E+03</pdfrwt>
<totfact> 0.92508175E+03</totfact>
</mgrwt>
</event>
<event>
 4    1  0.3206158E-002  0.1251190E+03  0.7818608E-02  0.1234883E+00
         -4   -1    0    0    0  501 -0.00000000000E+00  0.00000000000E+00  0.18397681122E+03  0.18398119460E+03  0.12700000000E+01 0.  1.
          4   -1    0    0  501    0  0.00000000000E+00 -0.00000000000E+00 -0.21249133357E+02  0.21287051661E+02  0.12700000000E+01 0.  1.
    9000005    1    1    2    0    0  0.31953121428E+02  0.46188069981E+02  0.36185190887E+02  0.66818469131E+02  0.10000000000E+01 0.  0.
    9000005    1    1    2    0    0 -0.31953121428E+02 -0.46188069981E+02  0.12654248698E+03  0.13844977713E+03  0.10000000000E+01 0.  0.
<mgrwt>
<rscale>  0 0.12511897E+03</rscale>
<asrwt>0</asrwt>
<pdfrwt beam="2">  1        4 0.32723516E-02 0.12511897E+03</pdfrwt>
<pdfrwt beam="1">  1       -4 0.28307377E-01 0.12511897E+03</pdfrwt>
<totfact> 0.89017440E+03</totfact>
</mgrwt>
</event>
<event>
 5    1  0.3206158E-002  0.1249957E+03  0.7818608E-02  0.1235076E+00
         -4   -1    0    0    0  501 -0.00000000000E+00  0.00000000000E+00  0.11425514314E+03  0.11426220125E+03  0.12700000000E+01 0. -1.
          4   -1    0    0  501    0  0.00000000000E+00 -0.00000000000E+00 -0.34166578950E+02  0.34190174278E+02  0.12700000000E+01 0. -1.
         25    2    1    2    0    0  0.00000000000E+00  0.00000000000E+00  0.80088564192E+02  0.14845237553E+03  0.12499571867E+03 0.  0.
    9000005    1    3    3    0    0 -0.48082826404E+02 -0.39630741245E+02  0.45668897759E+02  0.77260611369E+02  0.10000000000E+01 0.  0.
    9000005    1    3    3    0    0  0.48082826404E+02  0.39630741245E+02  0.34419666433E+02  0.71191764159E+02  0.10000000000E+01 0.  0.
<mgrwt>
<rscale>  0 0.12499572E+03</rscale>
<asrwt>0</asrwt>
<pdfrwt beam="2">  1        4 0.52587548E-02 0.12499572E+03</pdfrwt>
<pdfrwt beam="1">  1       -4 0.17580072E-01 0.12499572E+03</pdfrwt>
<totfact> 0.99622693E+03</totfact>
</mgrwt>
</event>
<event>
 5    1  0.3206158E-002  0.1249942E+03  0.7818608E-02  0.1235078E+00
          4   -1    0    0  501    0  0.00000000000E+00  0.00000000000E+00  0.16883159196E+03  0.16883636855E+03  0.12700000000E+01 0.  1.
         -4   -1    0    0    0  501 -0.00000000000E+00 -0.00000000000E+00 -0.23112272140E+02  0.23147138559E+02  0.12700000000E+01 0.  1.
         25    2    1    2    0    0  0.00000000000E+00  0.00000000000E+00  0.14571931982E+03  0.19198350711E+03  0.12499418719E+03 0.  0.
    9000005    1    3    3    0    0 -0.11562128487E+02 -0.42162614966E+02  0.42817630244E+01  0.43939758881E+02  0.10000000000E+01 0.  0.
    9000005    1    3    3    0    0  0.11562128487E+02  0.42162614966E+02  0.14143755680E+03  0.14804374822E+03  0.10000000000E+01 0.  0.
<mgrwt>
<rscale>  0 0.12499419E+03</rscale>
<asrwt>0</asrwt>
<pdfrwt beam="1">  1        4 0.25977141E-01 0.12499419E+03</pdfrwt>
<pdfrwt beam="2">  1       -4 0.35587836E-02 0.12499419E+03</pdfrwt>
<totfact> 0.91515244E+03</totfact>
</mgrwt>
</event>
<event>
 5    1  0.3206158E-002  0.1249995E+03  0.7818608E-02  0.1235070E+00
         -4   -1    0    0    0  501 -0.00000000000E+00  0.00000000000E+00  0.60669910849E+02  0.60683201815E+02  0.12700000000E+01 0. -1.
          4   -1    0    0  501    0  0.00000000000E+00 -0.00000000000E+00 -0.64358151817E+02  0.64370681255E+02  0.12700000000E+01 0. -1.
         25    2    1    2    0    0  0.00000000000E+00  0.00000000000E+00 -0.36882409672E+01  0.12505388307E+03  0.12499948220E+03 0.  0.
    9000005    1    3    3    0    0  0.60612785418E+02 -0.82221461812E+01 -0.14644382802E+02  0.62904462414E+02  0.10000000000E+01 0.  0.
    9000005    1    3    3    0    0 -0.60612785418E+02  0.82221461812E+01  0.10956141835E+02  0.62149420656E+02  0.10000000000E+01 0.  0.
<mgrwt>
<rscale>  0 0.12499948E+03</rscale>
<asrwt>0</asrwt>
<pdfrwt beam="2">  1        4 0.99032403E-02 0.12499948E+03</pdfrwt>
<pdfrwt beam="1">  1       -4 0.93358187E-02 0.12499948E+03</pdfrwt>
<totfact> 0.10451815E+04</totfact>
</mgrwt>
</event>
<event>
 5    1  0.3206158E-002  0.1249977E+03  0.7818608E-02  0.1235073E+00
         -4   -1    0    0    0  501 -0.00000000000E+00  0.00000000000E+00  0.24880764179E+03  0.24881088303E+03  0.12700000000E+01 0.  1.
          4   -1    0    0  501    0  0.00000000000E+00 -0.00000000000E+00 -0.15670273063E+02  0.15721652517E+02  0.12700000000E+01 0.  1.
         25    2    1    2    0    0  0.00000000000E+00  0.00000000000E+00  0.23313736873E+03  0.26453253555E+03  0.12499771864E+03 0.  0.
    9000005    1    3    3    0    0 -0.61390257448E+02 -0.20649982907E+01  0.92246941227E+02  0.11083107007E+03  0.10000000000E+01 0.  0.
    9000005    1    3    3    0    0  0.61390257448E+02  0.20649982907E+01  0.14089042750E+03  0.15370146548E+03  0.10000000000E+01 0.  0.
<mgrwt>
<rscale>  0 0.12499772E+03</rscale>
<asrwt>0</asrwt>
<pdfrwt beam="2">  1        4 0.24150133E-02 0.12499772E+03</pdfrwt>
<pdfrwt beam="1">  1       -4 0.38282293E-01 0.12499772E+03</pdfrwt>
<totfact> 0.80278243E+03</totfact>
</mgrwt>
</event>
<event>
 5    1  0.3206158E-002  0.1249982E+03  0.7818608E-02  0.1235072E+00
         -4   -1    0    0    0  501 -0.00000000000E+00  0.00000000000E+00  0.11733174687E+02  0.11801707006E+02  0.12700000000E+01 0.  1.
          4   -1    0    0  501    0  0.00000000000E+00 -0.00000000000E+00 -0.33187491484E+03  0.33187734481E+03  0.12700000000E+01 0.  1.
         25    2    1    2    0    0  0.00000000000E+00  0.00000000000E+00 -0.32014174015E+03  0.34367905182E+03  0.12499822747E+03 0.  0.
    9000005    1    3    3    0    0  0.62660543387E+01  0.48853750410E+02 -0.54325654768E+02  0.73336410685E+02  0.10000000000E+01 0.  0.
    9000005    1    3    3    0    0 -0.62660543387E+01 -0.48853750410E+02 -0.26581608538E+03  0.27034264113E+03  0.10000000000E+01 0.  0.
<mgrwt>
<rscale>  0 0.12499823E+03</rscale>
<asrwt>0</asrwt>
<pdfrwt beam="2">  1        4 0.51063131E-01 0.12499823E+03</pdfrwt>
<pdfrwt beam="1">  1       -4 0.18105627E-02 0.12499823E+03</pdfrwt>
<totfact> 0.70428348E+03</totfact>
</mgrwt>
</event>
<event>
 5    1  0.3206158E-002  0.1250005E+03  0.7818608E-02  0.1235068E+00
         -4   -1    0    0    0  501 -0.00000000000E+00  0.00000000000E+00  0.27180542774E+01  0.30001198401E+01  0.12700000000E+01 0. -1.
          4   -1    0    0  501    0  0.00000000000E+00 -0.00000000000E+00 -0.13659869307E+04  0.13659875211E+04  0.12700000000E+01 0. -1.
         25    2    1    2    0    0  0.00000000000E+00  0.00000000000E+00 -0.13632688765E+04  0.13689876410E+04  0.12500052627E+03 0.  0.
    9000005    1    3    3    0    0 -0.43407533186E+02  0.42316342021E+02 -0.51539835533E+03  0.51895216679E+03  0.10000000000E+01 0.  0.
    9000005    1    3    3    0    0  0.43407533186E+02 -0.42316342021E+02 -0.84787052114E+03  0.85003547417E+03  0.10000000000E+01 0.  0.
<mgrwt>
<rscale>  0 0.12500053E+03</rscale>
<asrwt>0</asrwt>
<pdfrwt beam="2">  1        4 0.21017306E+00 0.12500053E+03</pdfrwt>
<pdfrwt beam="1">  1       -4 0.43990605E-03 0.12500053E+03</pdfrwt>
<totfact> 0.20656160E+03</totfact>
</mgrwt>
</event>
<event>
 5    1  0.3206158E-002  0.1249983E+03  0.7818608E-02  0.1235072E+00
          4   -1    0    0  501    0  0.00000000000E+00  0.00000000000E+00  0.78451895588E+02  0.78462174462E+02  0.12700000000E+01 0.  1.
         -4   -1    0    0    0  501 -0.00000000000E+00 -0.00000000000E+00 -0.49768660643E+02  0.49784861978E+02  0.12700000000E+01 0.  1.
         25    2    1    2    0    0  0.00000000000E+00  0.00000000000E+00  0.28683234945E+02  0.12824703644E+03  0.12499829754E+03 0.  0.
    9000005    1    3    3    0    0  0.48659855685E+01  0.47899829688E+02 -0.26531858087E+02  0.54981915147E+02  0.10000000000E+01 0.  0.
    9000005    1    3    3    0    0 -0.48659855685E+01 -0.47899829688E+02  0.55215093032E+02  0.73265121293E+02  0.10000000000E+01 0.  0.
<mgrwt>
<rscale>  0 0.12499830E+03</rscale>
<asrwt>0</asrwt>
<pdfrwt beam="1">  1        4 0.12071559E-01 0.12499830E+03</pdfrwt>
<pdfrwt beam="2">  1       -4 0.76587540E-02 0.12499830E+03</pdfrwt>
<totfact> 0.10382555E+04</totfact>
</mgrwt>
</event>
<event>
 5    1  0.3206158E-002  0.1249998E+03  0.7818608E-02  0.1235070E+00
          4   -1    0    0  501    0  0.00000000000E+00  0.00000000000E+00  0.11105551291E+03  0.11106277436E+03  0.12700000000E+01 0. -1.
         -4   -1    0    0    0  501 -0.00000000000E+00 -0.00000000000E+00 -0.35153842367E+02  0.35176775480E+02  0.12700000000E+01 0. -1.
         25    2    1    2    0    0  0.00000000000E+00  0.00000000000E+00  0.75901670545E+02  0.14623954984E+03  0.12499976938E+03 0.  0.
    9000005    1    3    3    0    0 -0.27014103630E+02 -0.36457066723E+02 -0.12319682677E+02  0.47028226527E+02  0.10000000000E+01 0.  0.
    9000005    1    3    3    0    0  0.27014103630E+02  0.36457066723E+02  0.88221353222E+02  0.99211323312E+02  0.10000000000E+01 0.  0.
<mgrwt>
<rscale>  0 0.12499977E+03</rscale>
<asrwt>0</asrwt>
<pdfrwt beam="1">  1        4 0.17087786E-01 0.12499977E+03</pdfrwt>
<pdfrwt beam="2">  1       -4 0.54106062E-02 0.12499977E+03</pdfrwt>
<totfact> 0.10005916E+04</totfact>
</mgrwt>
</event>
<event>
 5    1  0.3206158E-002  0.1249921E+03  0.7818608E-02  0.1235082E+00
         -4   -1    0    0    0  501 -0.00000000000E+00  0.00000000000E+00  0.51687630169E+01  0.53225004580E+01  0.12700000000E+01 0. -1.
          4   -1    0    0  501    0  0.00000000000E+00 -0.00000000000E+00 -0.74441896007E+03  0.74442004340E+03  0.12700000000E+01 0. -1.
         25    2    1    2    0    0  0.00000000000E+00  0.00000000000E+00 -0.73925019705E+03  0.74974254386E+03  0.12499211265E+03 0.  0.
    9000005    1    3    3    0    0  0.44041391112E+02 -0.39452157925E+02 -0.24836998307E+03  0.25531307328E+03  0.10000000000E+01 0.  0.
    9000005    1    3    3    0    0 -0.44041391112E+02  0.39452157925E+02 -0.49088021398E+03  0.49442947058E+03  0.10000000000E+01 0.  0.
<mgrwt>
<rscale>  0 0.12499211E+03</rscale>
<asrwt>0</asrwt>
<pdfrwt beam="2">  1        4 0.11453782E+00 0.12499211E+03</pdfrwt>
<pdfrwt beam="1">  1       -4 0.80710419E-03 0.12499211E+03</pdfrwt>
<totfact> 0.40593476E+03</totfact>
</mgrwt>
</event>
<event>
 5    1  0.3206158E-002  0.1250062E+03  0.7818608E-02  0.1235060E+00
          4   -1    0    0  501    0  0.00000000000E+00  0.00000000000E+00  0.22071612874E+02  0.22108120563E+02  0.12700000000E+01 0. -1.
         -4   -1    0    0    0  501 -0.00000000000E+00 -0.00000000000E+00 -0.17681329590E+03  0.17681785687E+03  0.12700000000E+01 0. -1.
         25    2    1    2    0    0  0.00000000000E+00  0.00000000000E+00 -0.15474168303E+03  0.19892597743E+03  0.12500622397E+03 0.  0.
    9000005    1    3    3    0    0 -0.44886105416E+02  0.67271111597E-01 -0.14656842558E+03  0.15329080326E+03  0.10000000000E+01 0.  0.
    9000005    1    3    3    0    0  0.44886105416E+02 -0.67271111597E-01 -0.81732574451E+01  0.45635174176E+02  0.10000000000E+01 0.  0.
<mgrwt>
<rscale>  0 0.12500622E+03</rscale>
<asrwt>0</asrwt>
<pdfrwt beam="1">  1        4 0.33987920E-02 0.12500622E+03</pdfrwt>
<pdfrwt beam="2">  1       -4 0.27205204E-01 0.12500622E+03</pdfrwt>
<totfact> 0.90304387E+03</totfact>
</mgrwt>
</event>
<event>
 5    1  0.3206158E-002  0.1250138E+03  0.7818608E-02  0.1235048E+00
          4   -1    0    0  501    0  0.00000000000E+00  0.00000000000E+00  0.12715503833E+03  0.12716138043E+03  0.12700000000E+01 0.  1.
         -4   -1    0    0    0  501 -0.00000000000E+00 -0.00000000000E+00 -0.30706932928E+02  0.30733184505E+02  0.12700000000E+01 0.  1.
         25    2    1    2    0    0  0.00000000000E+00  0.00000000000E+00  0.96448105404E+02  0.15789456494E+03  0.12501382564E+03 0.  0.
    9000005    1    3    3    0    0  0.64300854639E+00 -0.23571486997E+02  0.12132737142E+03  0.12360161615E+03  0.10000000000E+01 0.  0.
    9000005    1    3    3    0    0 -0.64300854639E+00  0.23571486997E+02 -0.24879266014E+02  0.34292948789E+02  0.10000000000E+01 0.  0.
<mgrwt>
<rscale>  0 0.12501383E+03</rscale>
<asrwt>0</asrwt>
<pdfrwt beam="1">  1        4 0.19564821E-01 0.12501383E+03</pdfrwt>
<pdfrwt beam="2">  1       -4 0.47266507E-02 0.12501383E+03</pdfrwt>
<totfact> 0.97719860E+03</totfact>
</mgrwt>
</event>
<event>
 5    1  0.3206158E-002  0.1250211E+03  0.7818608E-02  0.1235036E+00
         -4   -1    0    0    0  501 -0.00000000000E+00  0.00000000000E+00  0.10048647122E+02  0.10128583760E+02  0.12700000000E+01 0. -1.
          4   -1    0    0  501    0  0.00000000000E+00 -0.00000000000E+00 -0.38724358633E+03  0.38724566886E+03  0.12700000000E+01 0. -1.
         25    2    1    2    0    0  0.00000000000E+00  0.00000000000E+00 -0.37719493921E+03  0.39737425262E+03  0.12502109616E+03 0.  0.
    9000005    1    3    3    0    0 -0.46428290996E+02 -0.35031468742E+02 -0.11585462120E+03  0.12963827853E+03  0.10000000000E+01 0.  0.
    9000005    1    3    3    0    0  0.46428290996E+02  0.35031468742E+02 -0.26134031800E+03  0.26773597409E+03  0.10000000000E+01 0.  0.
<mgrwt>
<rscale>  0 0.12502110E+03</rscale>
<asrwt>0</asrwt>
<pdfrwt beam="2">  1        4 0.59582234E-01 0.12502110E+03</pdfrwt>
<pdfrwt beam="1">  1       -4 0.15522552E-02 0.12502110E+03</pdfrwt>
<totfact> 0.64778797E+03</totfact>
</mgrwt>
</event>
<event>
 5    1  0.3206158E-002  0.1250003E+03  0.7818608E-02  0.1235069E+00
         -4   -1    0    0    0  501 -0.00000000000E+00  0.00000000000E+00  0.27957564292E+02  0.27986394929E+02  0.12700000000E+01 0. -1.
          4   -1    0    0  501    0  0.00000000000E+00 -0.00000000000E+00 -0.13961756517E+03  0.13962334118E+03  0.12700000000E+01 0. -1.
         25    2    1    2    0    0  0.00000000000E+00  0.00000000000E+00 -0.11166000087E+03  0.16760973611E+03  0.12500027138E+03 0.  0.
    9000005    1    3    3    0    0 -0.45456107344E+02  0.28928655567E+02 -0.13382418865E+02  0.55526695764E+02  0.10000000000E+01 0.  0.
    9000005    1    3    3    0    0  0.45456107344E+02 -0.28928655567E+02 -0.98277582008E+02  0.11208304035E+03  0.10000000000E+01 0.  0.
<mgrwt>
<rscale>  0 0.12500027E+03</rscale>
<asrwt>0</asrwt>
<pdfrwt beam="2">  1        4 0.21482287E-01 0.12500027E+03</pdfrwt>
<pdfrwt beam="1">  1       -4 0.43038259E-02 0.12500027E+03</pdfrwt>
<totfact> 0.95894836E+03</totfact>
</mgrwt>
</event>
<event>
 5    1  0.3206158E-002  0.1250006E+03  0.7818608E-02  0.1235068E+00
         -4   -1    0    0    0  501 -0.00000000000E+00  0.00000000000E+00  0.12021090663E+03  0.12021761507E+03  0.12700000000E+01 0.  1.
          4   -1    0    0  501    0  0.00000000000E+00 -0.00000000000E+00 -0.32475244964E+02  0.32500068238E+02  0.12700000000E+01 0.  1.
         25    2    1    2    0    0  0.00000000000E+00  0.00000000000E+00  0.87735661671E+02  0.15271768331E+03  0.12500057787E+03 0.  0.
    9000005    1    3    3    0    0 -0.52127012532E+02  0.31071478158E+02  0.25638814860E+02  0.65886349253E+02  0.10000000000E+01 0.  0.
    9000005    1    3    3    0    0  0.52127012532E+02 -0.31071478158E+02  0.62096846811E+02  0.86831334058E+02  0.10000000000E+01 0.  0.
<mgrwt>
<rscale>  0 0.12500058E+03</rscale>
<asrwt>0</asrwt>
<pdfrwt beam="2">  1        4 0.49986171E-02 0.12500058E+03</pdfrwt>
<pdfrwt beam="1">  1       -4 0.18496411E-01 0.12500058E+03</pdfrwt>
<totfact> 0.98763417E+03</totfact>
</mgrwt>
</event>
<event>
 5    1  0.3206158E-002  0.1250085E+03  0.7818608E-02  0.1235056E+00
         -4   -1    0    0    0  501 -0.00000000000E+00  0.00000000000E+00  0.15200523208E+03  0.15201053739E+03  0.12700000000E+01 0. -1.
          4   -1    0    0  501    0  0.00000000000E+00 -0.00000000000E+00 -0.25680182140E+02  0.25711566556E+02  0.12700000000E+01 0. -1.
         25    2    1    2    0    0  0.00000000000E+00  0.00000000000E+00  0.12632504994E+03  0.17772210395E+03  0.12500851167E+03 0.  0.
    9000005    1    3    3    0    0 -0.35707110463E+01  0.44117911735E+02  0.12588813492E+03  0.13344647851E+03  0.10000000000E+01 0.  0.
    9000005    1    3    3    0    0  0.35707110463E+01 -0.44117911735E+02  0.43691501651E+00  0.44275625439E+02  0.10000000000E+01 0.  0.
<mgrwt>
<rscale>  0 0.12500851E+03</rscale>
<asrwt>0</asrwt>
<pdfrwt beam="2">  1        4 0.39536197E-02 0.12500851E+03</pdfrwt>
<pdfrwt beam="1">  1       -4 0.23388242E-01 0.12500851E+03</pdfrwt>
<totfact> 0.94010699E+03</totfact>
</mgrwt>
</event>
<event>
 5    1  0.3206158E-002  0.1249998E+03  0.7818608E-02  0.1235070E+00
         -4   -1    0    0    0  501 -0.00000000000E+00  0.00000000000E+00  0.42316441705E+02  0.42335495020E+02  0.12700000000E+01 0. -1.
          4   -1    0    0  501    0  0.00000000000E+00 -0.00000000000E+00 -0.92265886874E+02  0.92274626960E+02  0.12700000000E+01 0. -1.
         25    2    1    2    0    0  0.00000000000E+00  0.00000000000E+00 -0.49949445169E+02  0.13461012198E+03  0.12499975147E+03 0.  0.
    9000005    1    3    3    0    0  0.50349779389E+02  0.19494260524E+02 -0.58859906769E+02  0.79878752511E+02  0.10000000000E+01 0.  0.
    9000005    1    3    3    0    0 -0.50349779389E+02 -0.19494260524E+02  0.89104616001E+01  0.54731369468E+02  0.10000000000E+01 0.  0.
<mgrwt>
<rscale>  0 0.12499975E+03</rscale>
<asrwt>0</asrwt>
<pdfrwt beam="2">  1        4 0.14196890E-01 0.12499975E+03</pdfrwt>
<pdfrwt beam="1">  1       -4 0.65123598E-02 0.12499975E+03</pdfrwt>
<totfact> 0.10246352E+04</totfact>
</mgrwt>
</event>
<event>
 5    1  0.3206158E-002  0.1249825E+03  0.7818608E-02  0.1235097E+00
          4   -1    0    0  501    0  0.00000000000E+00  0.00000000000E+00  0.12113516001E+04  0.12113522659E+04  0.12700000000E+01 0.  1.
         -4   -1    0    0    0  501 -0.00000000000E+00 -0.00000000000E+00 -0.30980330985E+01  0.33482396986E+01  0.12700000000E+01 0.  1.
         25    2    1    2    0    0  0.00000000000E+00  0.00000000000E+00  0.12082535670E+04  0.12147005056E+04  0.12498254275E+03 0.  0.
    9000005    1    3    3    0    0  0.40757169090E+02 -0.44135829589E+02  0.43718662163E+03  0.44129611421E+03  0.10000000000E+01 0.  0.
    9000005    1    3    3    0    0 -0.40757169090E+02  0.44135829589E+02  0.77106694541E+03  0.77340439136E+03  0.10000000000E+01 0.  0.
<mgrwt>
<rscale>  0 0.12498254E+03</rscale>
<asrwt>0</asrwt>
<pdfrwt beam="1">  1        4 0.18638118E+00 0.12498254E+03</pdfrwt>
<pdfrwt beam="2">  1       -4 0.49591808E-03 0.12498254E+03</pdfrwt>
<totfact> 0.24340430E+03</totfact>
</mgrwt>
</event>
<event>
 5    1  0.3206158E-002  0.1250009E+03  0.7818608E-02  0.1235068E+00
          4   -1    0    0  501    0  0.00000000000E+00  0.00000000000E+00  0.72330058127E+02  0.72341206851E+02  0.12700000000E+01 0.  1.
         -4   -1    0    0    0  501 -0.00000000000E+00 -0.00000000000E+00 -0.53983861129E+02  0.53998797787E+02  0.12700000000E+01 0.  1.
         25    2    1    2    0    0  0.00000000000E+00  0.00000000000E+00  0.18346196997E+02  0.12634000464E+03  0.12500085531E+03 0.  0.
    9000005    1    3    3    0    0  0.61894775540E+02 -0.12610072552E+01  0.17793840278E+02  0.64421845133E+02  0.10000000000E+01 0.  0.
    9000005    1    3    3    0    0 -0.61894775540E+02  0.12610072552E+01  0.55235671913E+00  0.61918159505E+02  0.10000000000E+01 0.  0.
<mgrwt>
<rscale>  0 0.12500086E+03</rscale>
<asrwt>0</asrwt>
<pdfrwt beam="1">  1        4 0.11129708E-01 0.12500086E+03</pdfrwt>
<pdfrwt beam="2">  1       -4 0.83072160E-02 0.12500086E+03</pdfrwt>
<totfact> 0.10423318E+04</totfact>
</mgrwt>
</event>
<event>
 5    1  0.3206158E-002  0.1249866E+03  0.7818608E-02  0.1235090E+00
          4   -1    0    0  501    0  0.00000000000E+00  0.00000000000E+00  0.48053703950E+01  0.49703606140E+01  0.12700000000E+01 0.  1.
         -4   -1    0    0    0  501 -0.00000000000E+00 -0.00000000000E+00 -0.79883634842E+03  0.79883735795E+03  0.12700000000E+01 0.  1.
         25    2    1    2    0    0  0.00000000000E+00  0.00000000000E+00 -0.79403097802E+03  0.80380771856E+03  0.12498661672E+03 0.  0.
    9000005    1    3    3    0    0 -0.54138405483E+02  0.18551330298E+02 -0.55834570923E+03  0.56127181456E+03  0.10000000000E+01 0.  0.
    9000005    1    3    3    0    0  0.54138405483E+02 -0.18551330298E+02 -0.23568526880E+03  0.24253590401E+03  0.10000000000E+01 0.  0.
<mgrwt>
<rscale>  0 0.12498662E+03</rscale>
<asrwt>0</asrwt>
<pdfrwt beam="1">  1        4 0.75205760E-03 0.12498662E+03</pdfrwt>
<pdfrwt beam="2">  1       -4 0.12291057E+00 0.12498662E+03</pdfrwt>
<totfact> 0.38106471E+03</totfact>
</mgrwt>
</event>
<event>
 5    1  0.3206158E-002  0.1249986E+03  0.7818608E-02  0.1235071E+00
          4   -1    0    0  501    0  0.00000000000E+00  0.00000000000E+00  0.14913544430E+03  0.14914085170E+03  0.12700000000E+01 0.  1.
         -4   -1    0    0    0  501 -0.00000000000E+00 -0.00000000000E+00 -0.26170775184E+02  0.26201571970E+02  0.12700000000E+01 0.  1.
         25    2    1    2    0    0  0.00000000000E+00  0.00000000000E+00  0.12296466911E+03  0.17534242367E+03  0.12499862275E+03 0.  0.
    9000005    1    3    3    0    0  0.23081750156E+02 -0.40276815123E+02  0.12016671209E+03  0.12882557092E+03  0.10000000000E+01 0.  0.
    9000005    1    3    3    0    0 -0.23081750156E+02  0.40276815123E+02  0.27979570212E+01  0.46516852755E+02  0.10000000000E+01 0.  0.
<mgrwt>
<rscale>  0 0.12499862E+03</rscale>
<asrwt>0</asrwt>
<pdfrwt beam="1">  1        4 0.22946700E-01 0.12499862E+03</pdfrwt>
<pdfrwt beam="2">  1       -4 0.40290580E-02 0.12499862E+03</pdfrwt>
<totfact> 0.94465082E+03</totfact>
</mgrwt>
</event>
<event>
 5    1  0.3206158E-002  0.1250009E+03  0.7818608E-02  0.1235068E+00
         -4   -1    0    0    0  501 -0.00000000000E+00  0.00000000000E+00  0.51599914467E+02  0.51615541002E+02  0.12700000000E+01 0.  1.
          4   -1    0    0  501    0  0.00000000000E+00 -0.00000000000E+00 -0.75671301440E+02  0.75681957967E+02  0.12700000000E+01 0.  1.
         25    2    1    2    0    0  0.00000000000E+00  0.00000000000E+00 -0.24071386974E+02  0.12729749897E+03  0.12500088629E+03 0.  0.
    9000005    1    3    3    0    0 -0.22661343201E+02  0.96658548813E+01 -0.70522041029E+02  0.74708255883E+02  0.10000000000E+01 0.  0.
    9000005    1    3    3    0    0  0.22661343201E+02 -0.96658548813E+01  0.46450654055E+02  0.52589243086E+02  0.10000000000E+01 0.  0.
<mgrwt>
<rscale>  0 0.12500089E+03</rscale>
<asrwt>0</asrwt>
<pdfrwt beam="2">  1        4 0.11643760E-01 0.12500089E+03</pdfrwt>
<pdfrwt beam="1">  1       -4 0.79404702E-02 0.12500089E+03</pdfrwt>
<totfact> 0.10402481E+04</totfact>
</mgrwt>
</event>
<event>
 5    1  0.3206158E-002  0.1250026E+03  0.7818608E-02  0.1235065E+00
         -4   -1    0    0    0  501 -0.00000000000E+00  0.00000000000E+00  0.15913159575E+03  0.15913666349E+03  0.12700000000E+01 0.  1.
          4   -1    0    0  501    0  0.00000000000E+00 -0.00000000000E+00 -0.24526426110E+02  0.24559284960E+02  0.12700000000E+01 0.  1.
         25    2    1    2    0    0  0.00000000000E+00  0.00000000000E+00  0.13460516964E+03  0.18369594845E+03  0.12500259910E+03 0.  0.
    9000005    1    3    3    0    0 -0.16877401015E+02  0.24050682402E+02  0.14835565158E+03  0.15124047522E+03  0.10000000000E+01 0.  0.
    9000005    1    3    3    0    0  0.16877401015E+02 -0.24050682402E+02 -0.13750481938E+02  0.32455473230E+02  0.10000000000E+01 0.  0.
<mgrwt>
<rscale>  0 0.12500260E+03</rscale>
<asrwt>0</asrwt>
<pdfrwt beam="2">  1        4 0.37762138E-02 0.12500260E+03</pdfrwt>
<pdfrwt beam="1">  1       -4 0.24484701E-01 0.12500260E+03</pdfrwt>
<totfact> 0.92950505E+03</totfact>
</mgrwt>
</event>
<event>
 5    1  0.3206158E-002  0.1249995E+03  0.7818608E-02  0.1235070E+00
         -4   -1    0    0    0  501 -0.00000000000E+00  0.00000000000E+00  0.13073220013E+03  0.13073836870E+03  0.12700000000E+01 0. -1.
          4   -1    0    0  501    0  0.00000000000E+00 -0.00000000000E+00 -0.29859171306E+02  0.29886167554E+02  0.12700000000E+01 0. -1.
         25    2    1    2    0    0  0.00000000000E+00  0.00000000000E+00  0.10087302882E+03  0.16062453625E+03  0.12499949481E+03 0.  0.
    9000005    1    3    3    0    0 -0.13349608305E+02 -0.43194603456E+02 -0.50010263187E+01  0.45497209517E+02  0.10000000000E+01 0.  0.
    9000005    1    3    3    0    0  0.13349608305E+02  0.43194603456E+02  0.10587405514E+03  0.11512732673E+03  0.10000000000E+01 0.  0.
<mgrwt>
<rscale>  0 0.12499949E+03</rscale>
<asrwt>0</asrwt>
<pdfrwt beam="2">  1        4 0.45962699E-02 0.12499949E+03</pdfrwt>
<pdfrwt beam="1">  1       -4 0.20115197E-01 0.12499949E+03</pdfrwt>
<totfact> 0.97223618E+03</totfact>
</mgrwt>
</event>
<event>
 5    1  0.3206158E-002  0.1249973E+03  0.7818608E-02  0.1235073E+00
          4   -1    0    0  501    0  0.00000000000E+00  0.00000000000E+00  0.30951587219E+03  0.30951847770E+03  0.12700000000E+01 0. -1.
         -4   -1    0    0    0  501 -0.00000000000E+00 -0.00000000000E+00 -0.12585363257E+02  0.12649279360E+02  0.12700000000E+01 0. -1.
         25    2    1    2    0    0  0.00000000000E+00  0.00000000000E+00  0.29693050893E+03  0.32216775706E+03  0.12499734619E+03 0.  0.
    9000005    1    3    3    0    0 -0.42338051488E+02 -0.45152156702E+02  0.12631518998E+03  0.14066895563E+03  0.10000000000E+01 0.  0.
    9000005    1    3    3    0    0  0.42338051488E+02  0.45152156702E+02  0.17061531896E+03  0.18149880143E+03  0.10000000000E+01 0.  0.
<mgrwt>
<rscale>  0 0.12499735E+03</rscale>
<asrwt>0</asrwt>
<pdfrwt beam="1">  1        4 0.47622941E-01 0.12499735E+03</pdfrwt>
<pdfrwt beam="2">  1       -4 0.19413269E-02 0.12499735E+03</pdfrwt>
<totfact> 0.72903327E+03</totfact>
</mgrwt>
</event>
<event>
 5    1  0.3206158E-002  0.1249999E+03  0.7818608E-02  0.1235069E+00
          4   -1    0    0  501    0  0.00000000000E+00  0.00000000000E+00  0.69945762459E+02  0.69957291157E+02  0.12700000000E+01 0. -1.
         -4   -1    0    0    0  501 -0.00000000000E+00 -0.00000000000E+00 -0.55823407363E+02  0.55837851943E+02  0.12700000000E+01 0. -1.
         25    2    1    2    0    0  0.00000000000E+00  0.00000000000E+00  0.14122355096E+02  0.12579514310E+03  0.12499990846E+03 0.  0.
    9000005    1    3    3    0    0  0.43653026230E+02  0.43134693160E+02  0.18928391502E+02  0.64229840868E+02  0.10000000000E+01 0.  0.
    9000005    1    3    3    0    0 -0.43653026230E+02 -0.43134693160E+02 -0.48060364063E+01  0.61565302233E+02  0.10000000000E+01 0.  0.
<mgrwt>
<rscale>  0 0.12499991E+03</rscale>
<asrwt>0</asrwt>
<pdfrwt beam="1">  1        4 0.10762884E-01 0.12499991E+03</pdfrwt>
<pdfrwt beam="2">  1       -4 0.85902145E-02 0.12499991E+03</pdfrwt>
<totfact> 0.10435474E+04</totfact>
</mgrwt>
</event>
<event>
 5    1  0.3206158E-002  0.1250067E+03  0.7818608E-02  0.1235059E+00
          4   -1    0    0  501    0  0.00000000000E+00  0.00000000000E+00  0.48987220001E+02  0.49003679693E+02  0.12700000000E+01 0. -1.
         -4   -1    0    0    0  501 -0.00000000000E+00 -0.00000000000E+00 -0.79713851425E+02  0.79723967594E+02  0.12700000000E+01 0. -1.
         25    2    1    2    0    0  0.00000000000E+00  0.00000000000E+00 -0.30726631424E+02  0.12872764729E+03  0.12500672501E+03 0.  0.
    9000005    1    3    3    0    0  0.32095792810E+02  0.52723222496E+02 -0.25441993673E+02  0.66769552556E+02  0.10000000000E+01 0.  0.
    9000005    1    3    3    0    0 -0.32095792810E+02 -0.52723222496E+02 -0.52846377513E+01  0.61958094731E+02  0.10000000000E+01 0.  0.
<mgrwt>
<rscale>  0 0.12500673E+03</rscale>
<asrwt>0</asrwt>
<pdfrwt beam="1">  1        4 0.75385397E-02 0.12500673E+03</pdfrwt>
<pdfrwt beam="2">  1       -4 0.12265714E-01 0.12500673E+03</pdfrwt>
<totfact> 0.10370228E+04</totfact>
</mgrwt>
</event>
<event>
 5    1  0.3206158E-002  0.1250010E+03  0.7818608E-02  0.1235068E+00
         -4   -1    0    0    0  501 -0.00000000000E+00  0.00000000000E+00  0.14626814917E+03  0.14627366257E+03  0.12700000000E+01 0.  1.
          4   -1    0    0  501    0  0.00000000000E+00 -0.00000000000E+00 -0.26685394710E+02  0.26715598268E+02  0.12700000000E+01 0.  1.
         25    2    1    2    0    0  0.00000000000E+00  0.00000000000E+00  0.11958275446E+03  0.17298926084E+03  0.12500099680E+03 0.  0.
    9000005    1    3    3    0    0  0.35985075263E+02  0.31251415269E+02  0.38547126233E+01  0.47827140908E+02  0.10000000000E+01 0.  0.
    9000005    1    3    3    0    0 -0.35985075263E+02 -0.31251415269E+02  0.11572804184E+03  0.12516211993E+03  0.10000000000E+01 0.  0.
<mgrwt>
<rscale>  0 0.12500100E+03</rscale>
<asrwt>0</asrwt>
<pdfrwt beam="2">  1        4 0.41081928E-02 0.12500100E+03</pdfrwt>
<pdfrwt beam="1">  1       -4 0.22505540E-01 0.12500100E+03</pdfrwt>
<totfact> 0.94892275E+03</totfact>
</mgrwt>
</event>
<event>
 5    1  0.3206158E-002  0.1250016E+03  0.7818608E-02  0.1235067E+00
          4   -1    0    0  501    0  0.00000000000E+00  0.00000000000E+00  0.48050327206E+02  0.48067107720E+02  0.12700000000E+01 0. -1.
         -4   -1    0    0    0  501 -0.00000000000E+00 -0.00000000000E+00 -0.81261055311E+02  0.81270978893E+02  0.12700000000E+01 0. -1.
         25    2    1    2    0    0  0.00000000000E+00  0.00000000000E+00 -0.33210728105E+02  0.12933808661E+03  0.12500155274E+03 0.  0.
    9000005    1    3    3    0    0 -0.41404756691E+02 -0.38854302275E+02 -0.43613325727E+02  0.71604000328E+02  0.10000000000E+01 0.  0.
    9000005    1    3    3    0    0  0.41404756691E+02  0.38854302275E+02  0.10402597622E+02  0.57734086286E+02  0.10000000000E+01 0.  0.
<mgrwt>
<rscale>  0 0.12500155E+03</rscale>
<asrwt>0</asrwt>
<pdfrwt beam="1">  1        4 0.73944122E-02 0.12500155E+03</pdfrwt>
<pdfrwt beam="2">  1       -4 0.12503755E-01 0.12500155E+03</pdfrwt>
<totfact> 0.10358325E+04</totfact>
</mgrwt>
</event>
<event>
 5    1  0.3206158E-002  0.1250026E+03  0.7818608E-02  0.1235065E+00
          4   -1    0    0  501    0  0.00000000000E+00  0.00000000000E+00  0.34529637515E+03  0.34529871067E+03  0.12700000000E+01 0.  1.
         -4   -1    0    0    0  501 -0.00000000000E+00 -0.00000000000E+00 -0.11275196894E+02  0.11346495715E+02  0.12700000000E+01 0.  1.
         25    2    1    2    0    0  0.00000000000E+00  0.00000000000E+00  0.33402117825E+03  0.35664520638E+03  0.12500262283E+03 0.  0.
    9000005    1    3    3    0    0 -0.51929021293E+02 -0.31298542507E+02  0.21020394132E+03  0.21877595609E+03  0.10000000000E+01 0.  0.
    9000005    1    3    3    0    0  0.51929021293E+02  0.31298542507E+02  0.12381723693E+03  0.13786925029E+03  0.10000000000E+01 0.  0.
<mgrwt>
<rscale>  0 0.12500262E+03</rscale>
<asrwt>0</asrwt>
<pdfrwt beam="1">  1        4 0.53128175E-01 0.12500262E+03</pdfrwt>
<pdfrwt beam="2">  1       -4 0.17403101E-02 0.12500262E+03</pdfrwt>
<totfact> 0.68995637E+03</totfact>
</mgrwt>
</event>
<event>
 5    1  0.3206158E-002  0.1249971E+03  0.7818608E-02  0.1235074E+00
          4   -1    0    0  501    0  0.00000000000E+00  0.00000000000E+00  0.17441349770E+02  0.17487526464E+02  0.12700000000E+01 0. -1.
         -4   -1    0    0    0  501 -0.00000000000E+00 -0.00000000000E+00 -0.22361056861E+03  0.22361417508E+03  0.12700000000E+01 0. -1.
         25    2    1    2    0    0  0.00000000000E+00  0.00000000000E+00 -0.20616921884E+03  0.24110170154E+03  0.12499713472E+03 0.  0.
    9000005    1    3    3    0    0  0.48009511357E+02  0.18756911644E+02 -0.17123462605E+03  0.17882682146E+03  0.10000000000E+01 0.  0.
    9000005    1    3    3    0    0 -0.48009511357E+02 -0.18756911644E+02 -0.34934592788E+02  0.62274880076E+02  0.10000000000E+01 0.  0.
<mgrwt>
<rscale>  0 0.12499713E+03</rscale>
<asrwt>0</asrwt>
<pdfrwt beam="1">  1        4 0.26871142E-02 0.12499713E+03</pdfrwt>
<pdfrwt beam="2">  1       -4 0.34405453E-01 0.12499713E+03</pdfrwt>
<totfact> 0.83638905E+03</totfact>
</mgrwt>
</event>
<event>
 5    1  0.3206158E-002  0.1250043E+03  0.7818608E-02  0.1235063E+00
          4   -1    0    0  501    0  0.00000000000E+00  0.00000000000E+00  0.10051260123E+02  0.10131176144E+02  0.12700000000E+01 0.  1.
         -4   -1    0    0    0  501 -0.00000000000E+00 -0.00000000000E+00 -0.38703942063E+03  0.38704150427E+03  0.12700000000E+01 0.  1.
         25    2    1    2    0    0  0.00000000000E+00  0.00000000000E+00 -0.37698816051E+03  0.39717268041E+03  0.12500425952E+03 0.  0.
    9000005    1    3    3    0    0 -0.12085606594E+02 -0.14818256993E+02  0.54362346853E+00  0.19155629813E+02  0.10000000000E+01 0.  0.
    9000005    1    3    3    0    0  0.12085606594E+02  0.14818256993E+02 -0.37753178398E+03  0.37801705060E+03  0.10000000000E+01 0.  0.
<mgrwt>
<rscale>  0 0.12500426E+03</rscale>
<asrwt>0</asrwt>
<pdfrwt beam="1">  1        4 0.15526557E-02 0.12500426E+03</pdfrwt>
<pdfrwt beam="2">  1       -4 0.59550822E-01 0.12500426E+03</pdfrwt>
<totfact> 0.64822611E+03</totfact>
</mgrwt>
</event>
<event>
 5    1  0.3206158E-002  0.1249992E+03  0.7818608E-02  0.1235071E+00
         -4   -1    0    0    0  501 -0.00000000000E+00  0.00000000000E+00  0.42821894320E+03  0.42822082646E+03  0.12700000000E+01 0.  1.
          4   -1    0    0  501    0  0.00000000000E+00 -0.00000000000E+00 -0.90758493440E+01  0.91642752749E+01  0.12700000000E+01 0.  1.
         25    2    1    2    0    0  0.00000000000E+00  0.00000000000E+00  0.41914309386E+03  0.43738510174E+03  0.12499917637E+03 0.  0.
    9000005    1    3    3    0    0 -0.46310548851E+01  0.51112614151E+02  0.84812298610E+02  0.99136632938E+02  0.10000000000E+01 0.  0.
    9000005    1    3    3    0    0  0.46310548851E+01 -0.51112614151E+02  0.33433079524E+03  0.33824846880E+03  0.10000000000E+01 0.  0.
<mgrwt>
<rscale>  0 0.12499918E+03</rscale>
<asrwt>0</asrwt>
<pdfrwt beam="2">  1        4 0.14032314E-02 0.12499918E+03</pdfrwt>
<pdfrwt beam="1">  1       -4 0.65886784E-01 0.12499918E+03</pdfrwt>
<totfact> 0.61073342E+03</totfact>
</mgrwt>
</event>
<event>
 5    1  0.3206158E-002  0.1250014E+03  0.7818608E-02  0.1235067E+00
         -4   -1    0    0    0  501 -0.00000000000E+00  0.00000000000E+00  0.49997269419E+01  0.51585045792E+01  0.12700000000E+01 0. -1.
          4   -1    0    0  501    0  0.00000000000E+00 -0.00000000000E+00 -0.76893807820E+03  0.76893912698E+03  0.12700000000E+01 0. -1.
         25    2    1    2    0    0  0.00000000000E+00  0.00000000000E+00 -0.76393835126E+03  0.77409763156E+03  0.12500135466E+03 0.  0.
    9000005    1    3    3    0    0 -0.56506090882E+02  0.90986063845E+01 -0.22658119540E+03  0.23370015202E+03  0.10000000000E+01 0.  0.
    9000005    1    3    3    0    0  0.56506090882E+02 -0.90986063845E+01 -0.53735715586E+03  0.54039747955E+03  0.10000000000E+01 0.  0.
<mgrwt>
<rscale>  0 0.12500135E+03</rscale>
<asrwt>0</asrwt>
<pdfrwt beam="2">  1        4 0.11831037E+00 0.12500135E+03</pdfrwt>
<pdfrwt beam="1">  1       -4 0.78148371E-03 0.12500135E+03</pdfrwt>
<totfact> 0.39446041E+03</totfact>
</mgrwt>
</event>
<event>
 5    1  0.3206158E-002  0.1249987E+03  0.7818608E-02  0.1235071E+00
          4   -1    0    0  501    0  0.00000000000E+00  0.00000000000E+00  0.13470652905E+02  0.13530387640E+02  0.12700000000E+01 0. -1.
         -4   -1    0    0    0  501 -0.00000000000E+00 -0.00000000000E+00 -0.28927344315E+03  0.28927623098E+03  0.12700000000E+01 0. -1.
         25    2    1    2    0    0  0.00000000000E+00  0.00000000000E+00 -0.27580279024E+03  0.30280661862E+03  0.12499867669E+03 0.  0.
    9000005    1    3    3    0    0 -0.55403527224E+01  0.62058199074E+02 -0.14958259426E+03  0.16204279708E+03  0.10000000000E+01 0.  0.
    9000005    1    3    3    0    0  0.55403527224E+01 -0.62058199074E+02 -0.12622019598E+03  0.14076382154E+03  0.10000000000E+01 0.  0.
<mgrwt>
<rscale>  0 0.12499868E+03</rscale>
<asrwt>0</asrwt>
<pdfrwt beam="1">  1        4 0.20772178E-02 0.12499868E+03</pdfrwt>
<pdfrwt beam="2">  1       -4 0.44508411E-01 0.12499868E+03</pdfrwt>
<totfact> 0.75250337E+03</totfact>
</mgrwt>
</event>
<event>
 5    1  0.3206158E-002  0.1249994E+03  0.7818608E-02  0.1235070E+00
          4   -1    0    0  501    0  0.00000000000E+00  0.00000000000E+00  0.94567506928E+02  0.94576034314E+02  0.12700000000E+01 0.  1.
         -4   -1    0    0    0  501 -0.00000000000E+00 -0.00000000000E+00 -0.41285891014E+02  0.41305419703E+02  0.12700000000E+01 0.  1.
         25    2    1    2    0    0  0.00000000000E+00  0.00000000000E+00  0.53281615914E+02  0.13588145402E+03  0.12499935580E+03 0.  0.
    9000005    1    3    3    0    0 -0.28975464772E+02 -0.42332046349E+02 -0.12154040166E+02  0.52728553927E+02  0.10000000000E+01 0.  0.
    9000005    1    3    3    0    0  0.28975464772E+02  0.42332046349E+02  0.65435656080E+02  0.83152900090E+02  0.10000000000E+01 0.  0.
<mgrwt>
<rscale>  0 0.12499936E+03</rscale>
<asrwt>0</asrwt>
<pdfrwt beam="1">  1        4 0.14551005E-01 0.12499936E+03</pdfrwt>
<pdfrwt beam="2">  1       -4 0.63538338E-02 0.12499936E+03</pdfrwt>
<totfact> 0.10219674E+04</totfact>
</mgrwt>
</event>
<event>
 5    1  0.3206158E-002  0.1250008E+03  0.7818608E-02  0.1235068E+00
          4   -1    0    0  501    0  0.00000000000E+00  0.00000000000E+00  0.13259888701E+03  0.13260496875E+03  0.12700000000E+01 0.  1.
         -4   -1    0    0    0  501 -0.00000000000E+00 -0.00000000000E+00 -0.29439067581E+02  0.29466448718E+02  0.12700000000E+01 0.  1.
         25    2    1    2    0    0  0.00000000000E+00  0.00000000000E+00  0.10315981943E+03  0.16207141746E+03  0.12500078405E+03 0.  0.
    9000005    1    3    3    0    0 -0.52281995986E+02 -0.27398783451E+02  0.24970383946E+02  0.64098521927E+02  0.10000000000E+01 0.  0.
    9000005    1    3    3    0    0  0.52281995986E+02  0.27398783451E+02  0.78189435481E+02  0.97972895536E+02  0.10000000000E+01 0.  0.
<mgrwt>
<rscale>  0 0.12500078E+03</rscale>
<asrwt>0</asrwt>
<pdfrwt beam="1">  1        4 0.20402403E-01 0.12500078E+03</pdfrwt>
<pdfrwt beam="2">  1       -4 0.45316614E-02 0.12500078E+03</pdfrwt>
<totfact> 0.96943204E+03</totfact>
</mgrwt>
</event>
<event>
 5    1  0.3206158E-002  0.1250038E+03  0.7818608E-02  0.1235063E+00
         -4   -1    0    0    0  501 -0.00000000000E+00  0.00000000000E+00  0.15442185632E+03  0.15442707862E+03  0.12700000000E+01 0. -1.
          4   -1    0    0  501    0  0.00000000000E+00 -0.00000000000E+00 -0.25275897323E+02  0.25307783100E+02  0.12700000000E+01 0. -1.
         25    2    1    2    0    0  0.00000000000E+00  0.00000000000E+00  0.12914595900E+03  0.17973486172E+03  0.12500376711E+03 0.  0.
    9000005    1    3    3    0    0 -0.56994877060E+02  0.12225641571E+02  0.32178473302E+02  0.66590813683E+02  0.10000000000E+01 0.  0.
    9000005    1    3    3    0    0  0.56994877060E+02 -0.12225641571E+02  0.96967485701E+02  0.11314404804E+03  0.10000000000E+01 0.  0.
<mgrwt>
<rscale>  0 0.12500377E+03</rscale>
<asrwt>0</asrwt>
<pdfrwt beam="2">  1        4 0.38914541E-02 0.12500377E+03</pdfrwt>
<pdfrwt beam="1">  1       -4 0.23760063E-01 0.12500377E+03</pdfrwt>
<totfact> 0.93656840E+03</totfact>
</mgrwt>
</event>
<event>
 5    1  0.3206158E-002  0.1249971E+03  0.7818608E-02  0.1235074E+00
          4   -1    0    0  501    0  0.00000000000E+00  0.00000000000E+00  0.11209138297E+02  0.11280854638E+02  0.12700000000E+01 0.  1.
         -4   -1    0    0    0  501 -0.00000000000E+00 -0.00000000000E+00 -0.34728772707E+03  0.34729004920E+03  0.12700000000E+01 0.  1.
         25    2    1    2    0    0  0.00000000000E+00  0.00000000000E+00 -0.33607858877E+03  0.35857090383E+03  0.12499710096E+03 0.  0.
    9000005    1    3    3    0    0  0.54947875619E+02 -0.47331333671E+01 -0.83748445092E+02  0.10028197067E+03  0.10000000000E+01 0.  0.
    9000005    1    3    3    0    0 -0.54947875619E+02  0.47331333671E+01 -0.25233014368E+03  0.25828893316E+03  0.10000000000E+01 0.  0.
<mgrwt>
<rscale>  0 0.12499710E+03</rscale>
<asrwt>0</asrwt>
<pdfrwt beam="1">  1        4 0.17301783E-02 0.12499710E+03</pdfrwt>
<pdfrwt beam="2">  1       -4 0.53434568E-01 0.12499710E+03</pdfrwt>
<totfact> 0.68796246E+03</totfact>
</mgrwt>
</event>
<event>
 5    1  0.3206158E-002  0.1249995E+03  0.7818608E-02  0.1235070E+00
         -4   -1    0    0    0  501 -0.00000000000E+00  0.00000000000E+00  0.17765553189E+03  0.17766007124E+03  0.12700000000E+01 0.  1.
          4   -1    0    0  501    0  0.00000000000E+00 -0.00000000000E+00 -0.21964421208E+02  0.22001106768E+02  0.12700000000E+01 0.  1.
         25    2    1    2    0    0  0.00000000000E+00  0.00000000000E+00  0.15569111068E+03  0.19966117801E+03  0.12499945622E+03 0.  0.
    9000005    1    3    3    0    0  0.44094152027E+02 -0.43235163346E+02  0.93136481238E+02  0.11175409491E+03  0.10000000000E+01 0.  0.
    9000005    1    3    3    0    0 -0.44094152027E+02  0.43235163346E+02  0.62554629447E+02  0.87907083092E+02  0.10000000000E+01 0.  0.
<mgrwt>
<rscale>  0 0.12499946E+03</rscale>
<asrwt>0</asrwt>
<pdfrwt beam="2">  1        4 0.33823129E-02 0.12499946E+03</pdfrwt>
<pdfrwt beam="1">  1       -4 0.27334791E-01 0.12499946E+03</pdfrwt>
<totfact> 0.90193780E+03</totfact>
</mgrwt>
</event>
<event>
 5    1  0.3206158E-002  0.1250125E+03  0.7818608E-02  0.1235050E+00
          4   -1    0    0  501    0  0.00000000000E+00  0.00000000000E+00  0.18730860122E+02  0.18773865370E+02  0.12700000000E+01 0.  1.
         -4   -1    0    0    0  501 -0.00000000000E+00 -0.00000000000E+00 -0.20830382721E+03  0.20830769869E+03  0.12700000000E+01 0.  1.
         25    2    1    2    0    0  0.00000000000E+00  0.00000000000E+00 -0.18957296709E+03  0.22708156406E+03  0.12501250690E+03 0.  0.
    9000005    1    3    3    0    0  0.20300028013E+02 -0.53001270550E+02 -0.14232133710E+03  0.15322398250E+03  0.10000000000E+01 0.  0.
    9000005    1    3    3    0    0 -0.20300028013E+02  0.53001270550E+02 -0.47251629988E+02  0.73857581560E+02  0.10000000000E+01 0.  0.
<mgrwt>
<rscale>  0 0.12501251E+03</rscale>
<asrwt>0</asrwt>
<pdfrwt beam="1">  1        4 0.28852768E-02 0.12501251E+03</pdfrwt>
<pdfrwt beam="2">  1       -4 0.32050347E-01 0.12501251E+03</pdfrwt>
<totfact> 0.85735817E+03</totfact>
</mgrwt>
</event>
<event>
 5    1  0.3206158E-002  0.1249992E+03  0.7818608E-02  0.1235070E+00
          4   -1    0    0  501    0  0.00000000000E+00  0.00000000000E+00  0.34633191575E+02  0.34656469218E+02  0.12700000000E+01 0.  1.
         -4   -1    0    0    0  501 -0.00000000000E+00 -0.00000000000E+00 -0.11272307753E+03  0.11273023156E+03  0.12700000000E+01 0.  1.
         25    2    1    2    0    0  0.00000000000E+00  0.00000000000E+00 -0.78089885959E+02  0.14738670078E+03  0.12499923711E+03 0.  0.
    9000005    1    3    3    0    0  0.40454035617E+02 -0.44285806943E+02 -0.59719278607E+02  0.84647232274E+02  0.10000000000E+01 0.  0.
    9000005    1    3    3    0    0 -0.40454035617E+02  0.44285806943E+02 -0.18370607352E+02  0.62739468509E+02  0.10000000000E+01 0.  0.
<mgrwt>
<rscale>  0 0.12499924E+03</rscale>
<asrwt>0</asrwt>
<pdfrwt beam="1">  1        4 0.53305243E-02 0.12499924E+03</pdfrwt>
<pdfrwt beam="2">  1       -4 0.17344353E-01 0.12499924E+03</pdfrwt>
<totfact> 0.99828908E+03</totfact>
</mgrwt>
</event>
<event>
 5    1  0.3206158E-002  0.1250024E+03  0.7818608E-02  0.1235065E+00
          4   -1    0    0  501    0  0.00000000000E+00  0.00000000000E+00  0.99885281518E+03  0.99885362255E+03  0.12700000000E+01 0. -1.
         -4   -1    0    0    0  501 -0.00000000000E+00 -0.00000000000E+00 -0.38069553098E+01  0.40132042972E+01  0.12700000000E+01 0. -1.
         25    2    1    2    0    0  0.00000000000E+00  0.00000000000E+00  0.99504585987E+03  0.10028668269E+04  0.12500243661E+03 0.  0.
    9000005    1    3    3    0    0 -0.24628960354E+02 -0.54126850027E+02  0.65165649584E+03  0.65436495181E+03  0.10000000000E+01 0.  0.
    9000005    1    3    3    0    0  0.24628960354E+02  0.54126850027E+02  0.34338936403E+03  0.34850187504E+03  0.10000000000E+01 0.  0.
<mgrwt>
<rscale>  0 0.12500244E+03</rscale>
<asrwt>0</asrwt>
<pdfrwt beam="1">  1        4 0.15368573E+00 0.12500244E+03</pdfrwt>
<pdfrwt beam="2">  1       -4 0.60161231E-03 0.12500244E+03</pdfrwt>
<totfact> 0.30508361E+03</totfact>
</mgrwt>
</event>
<event>
 5    1  0.3206158E-002  0.1250007E+03  0.7818608E-02  0.1235068E+00
          4   -1    0    0  501    0  0.00000000000E+00  0.00000000000E+00  0.13549765036E+03  0.13550360200E+03  0.12700000000E+01 0. -1.
         -4   -1    0    0    0  501 -0.00000000000E+00 -0.00000000000E+00 -0.28808647414E+02  0.28836627157E+02  0.12700000000E+01 0. -1.
         25    2    1    2    0    0  0.00000000000E+00  0.00000000000E+00  0.10668900295E+03  0.16434022916E+03  0.12500067027E+03 0.  0.
    9000005    1    3    3    0    0  0.52585253997E+02  0.95656195267E+01  0.10771651908E+02  0.54531995192E+02  0.10000000000E+01 0.  0.
    9000005    1    3    3    0    0 -0.52585253997E+02 -0.95656195267E+01  0.95917351043E+02  0.10980823396E+03  0.10000000000E+01 0.  0.
<mgrwt>
<rscale>  0 0.12500067E+03</rscale>
<asrwt>0</asrwt>
<pdfrwt beam="1">  1        4 0.20848402E-01 0.12500067E+03</pdfrwt>
<pdfrwt beam="2">  1       -4 0.44347098E-02 0.12500067E+03</pdfrwt>
<totfact> 0.96511035E+03</totfact>
</mgrwt>
</event>
<event>
 5    1  0.3206158E-002  0.1250013E+03  0.7818608E-02  0.1235067E+00
          4   -1    0    0  501    0  0.00000000000E+00  0.00000000000E+00  0.96125114296E+01  0.96960443472E+01  0.12700000000E+01 0.  1.
         -4   -1    0    0    0  501 -0.00000000000E+00 -0.00000000000E+00 -0.40453722357E+03  0.40453921708E+03  0.12700000000E+01 0.  1.
         25    2    1    2    0    0  0.00000000000E+00  0.00000000000E+00 -0.39492471214E+03  0.41423526143E+03  0.12500129419E+03 0.  0.
    9000005    1    3    3    0    0 -0.38262706478E+02  0.47139658402E+02 -0.24651948076E+03  0.25388784235E+03  0.10000000000E+01 0.  0.
    9000005    1    3    3    0    0  0.38262706478E+02 -0.47139658402E+02 -0.14840523138E+03  0.16034741907E+03  0.10000000000E+01 0.  0.
<mgrwt>
<rscale>  0 0.12500129E+03</rscale>
<asrwt>0</asrwt>
<pdfrwt beam="1">  1        4 0.14854272E-02 0.12500129E+03</pdfrwt>
<pdfrwt beam="2">  1       -4 0.62243062E-01 0.12500129E+03</pdfrwt>
<totfact> 0.63189640E+03</totfact>
</mgrwt>
</event>
<event>
 5    1  0.3206158E-002  0.1249997E+03  0.7818608E-02  0.1235070E+00
          4   -1    0    0  501    0  0.00000000000E+00  0.00000000000E+00  0.23987294134E+02  0.24020890489E+02  0.12700000000E+01 0. -1.
         -4   -1    0    0    0  501 -0.00000000000E+00 -0.00000000000E+00 -0.16269583936E+03  0.16270079608E+03  0.12700000000E+01 0. -1.
         25    2    1    2    0    0  0.00000000000E+00  0.00000000000E+00 -0.13870854523E+03  0.18672168657E+03  0.12499971087E+03 0.  0.
    9000005    1    3    3    0    0  0.37670782725E+02 -0.17023521986E+02 -0.13936037681E+03  0.14536575524E+03  0.10000000000E+01 0.  0.
    9000005    1    3    3    0    0 -0.37670782725E+02  0.17023521986E+02  0.65183158152E+00  0.41355931332E+02  0.10000000000E+01 0.  0.
<mgrwt>
<rscale>  0 0.12499971E+03</rscale>
<asrwt>0</asrwt>
<pdfrwt beam="1">  1        4 0.36933187E-02 0.12499971E+03</pdfrwt>
<pdfrwt beam="2">  1       -4 0.25033094E-01 0.12499971E+03</pdfrwt>
<totfact> 0.92421479E+03</totfact>
</mgrwt>
</event>
<event>
 4    1  0.3206158E-002  0.1251321E+03  0.7818608E-02  0.1234863E+00
         -4   -1    0    0    0  501 -0.00000000000E+00  0.00000000000E+00  0.10261894100E+04  0.10261901959E+04  0.12700000000E+01 0. -1.
          4   -1    0    0  501    0  0.00000000000E+00 -0.00000000000E+00 -0.37080937204E+01  0.39195483208E+01  0.12700000000E+01 0. -1.
    9000005    1    1    2    0    0 -0.78067724198E+01  0.56389623502E+02  0.29771512901E+03  0.30311059594E+03  0.10000000000E+01 0.  0.
    9000005    1    1    2    0    0  0.78067724198E+01 -0.56389623502E+02  0.72476618728E+03  0.72699914825E+03  0.10000000000E+01 0.  0.
<mgrwt>
<rscale>  0 0.12513210E+03</rscale>
<asrwt>0</asrwt>
<pdfrwt beam="2">  1        4 0.58680156E-03 0.12513210E+03</pdfrwt>
<pdfrwt beam="1">  1       -4 0.15789178E+00 0.12513210E+03</pdfrwt>
<totfact> 0.29538806E+03</totfact>
</mgrwt>
</event>
<event>
 5    1  0.3206158E-002  0.1249748E+03  0.7818608E-02  0.1235109E+00
         -4   -1    0    0    0  501 -0.00000000000E+00  0.00000000000E+00  0.38222495455E+02  0.38243588467E+02  0.12700000000E+01 0. -1.
          4   -1    0    0  501    0  0.00000000000E+00 -0.00000000000E+00 -0.10210322991E+03  0.10211112798E+03  0.12700000000E+01 0. -1.
         25    2    1    2    0    0  0.00000000000E+00  0.00000000000E+00 -0.63880734455E+02  0.14035471645E+03  0.12497479024E+03 0.  0.
    9000005    1    3    3    0    0 -0.42909916124E+02 -0.42644465106E+02 -0.49478274400E+02  0.78159522411E+02  0.10000000000E+01 0.  0.
    9000005    1    3    3    0    0  0.42909916124E+02  0.42644465106E+02 -0.14402460055E+02  0.62195194039E+02  0.10000000000E+01 0.  0.
<mgrwt>
<rscale>  0 0.12497479E+03</rscale>
<asrwt>0</asrwt>
<pdfrwt beam="2">  1        4 0.15710419E-01 0.12497479E+03</pdfrwt>
<pdfrwt beam="1">  1       -4 0.58826140E-02 0.12497479E+03</pdfrwt>
<totfact> 0.10131993E+04</totfact>
</mgrwt>
</event>
<event>
 5    1  0.3206158E-002  0.1250015E+03  0.7818608E-02  0.1235067E+00
          4   -1    0    0  501    0  0.00000000000E+00  0.00000000000E+00  0.18226920105E+04  0.18226924529E+04  0.12700000000E+01 0. -1.
         -4   -1    0    0    0  501 -0.00000000000E+00 -0.00000000000E+00 -0.19545453899E+01  0.23309113413E+01  0.12700000000E+01 0. -1.
         25    2    1    2    0    0  0.00000000000E+00  0.00000000000E+00  0.18207374651E+04  0.18250233642E+04  0.12500145340E+03 0.  0.
    9000005    1    3    3    0    0 -0.61502057442E+02  0.10926397050E+02  0.88324405328E+03  0.88545070269E+03  0.10000000000E+01 0.  0.
    9000005    1    3    3    0    0  0.61502057442E+02 -0.10926397050E+02  0.93749341178E+03  0.93957266156E+03  0.10000000000E+01 0.  0.
<mgrwt>
<rscale>  0 0.12500145E+03</rscale>
<asrwt>0</asrwt>
<pdfrwt beam="1">  1        4 0.28044381E+00 0.12500145E+03</pdfrwt>
<pdfrwt beam="2">  1       -4 0.32968377E-03 0.12500145E+03</pdfrwt>
<totfact> 0.12321449E+03</totfact>
</mgrwt>
</event>
<event>
 5    1  0.3206158E-002  0.1250004E+03  0.7818608E-02  0.1235069E+00
          4   -1    0    0  501    0  0.00000000000E+00  0.00000000000E+00  0.21890025802E+03  0.21890394209E+03  0.12700000000E+01 0. -1.
         -4   -1    0    0    0  501 -0.00000000000E+00 -0.00000000000E+00 -0.17818550827E+02  0.17863752505E+02  0.12700000000E+01 0. -1.
         25    2    1    2    0    0  0.00000000000E+00  0.00000000000E+00  0.20108170719E+03  0.23676769459E+03  0.12500035294E+03 0.  0.
    9000005    1    3    3    0    0  0.60011633613E+02 -0.17416636206E+02  0.10192845950E+03  0.11956231113E+03  0.10000000000E+01 0.  0.
    9000005    1    3    3    0    0 -0.60011633613E+02  0.17416636206E+02  0.99153247695E+02  0.11720538347E+03  0.10000000000E+01 0.  0.
<mgrwt>
<rscale>  0 0.12500035E+03</rscale>
<asrwt>0</asrwt>
<pdfrwt beam="1">  1        4 0.33680723E-01 0.12500035E+03</pdfrwt>
<pdfrwt beam="2">  1       -4 0.27450760E-02 0.12500035E+03</pdfrwt>
<totfact> 0.84280465E+03</totfact>
</mgrwt>
</event>
<event>
 5    1  0.3206158E-002  0.1249988E+03  0.7818608E-02  0.1235071E+00
         -4   -1    0    0    0  501 -0.00000000000E+00  0.00000000000E+00  0.95627782466E+01  0.96467418227E+01  0.12700000000E+01 0.  1.
          4   -1    0    0  501    0  0.00000000000E+00 -0.00000000000E+00 -0.40660651364E+03  0.40660849700E+03  0.12700000000E+01 0.  1.
         25    2    1    2    0    0  0.00000000000E+00  0.00000000000E+00 -0.39704373539E+03  0.41625523882E+03  0.12499878413E+03 0.  0.
    9000005    1    3    3    0    0 -0.42316083347E+02  0.45931483207E+02 -0.20583435679E+03  0.21510261387E+03  0.10000000000E+01 0.  0.
    9000005    1    3    3    0    0  0.42316083347E+02 -0.45931483207E+02 -0.19120937860E+03  0.20115262495E+03  0.10000000000E+01 0.  0.
<mgrwt>
<rscale>  0 0.12499878E+03</rscale>
<asrwt>0</asrwt>
<pdfrwt beam="2">  1        4 0.62561446E-01 0.12499878E+03</pdfrwt>
<pdfrwt beam="1">  1       -4 0.14778083E-02 0.12499878E+03</pdfrwt>
<totfact> 0.63003640E+03</totfact>
</mgrwt>
</event>
<event>
 5    1  0.3206158E-002  0.1250256E+03  0.7818608E-02  0.1235029E+00
          4   -1    0    0  501    0  0.00000000000E+00  0.00000000000E+00  0.81201674645E+02  0.81211605483E+02  0.12700000000E+01 0. -1.
         -4   -1    0    0    0  501 -0.00000000000E+00 -0.00000000000E+00 -0.48103989052E+02  0.48120750854E+02  0.12700000000E+01 0. -1.
         25    2    1    2    0    0  0.00000000000E+00  0.00000000000E+00  0.33097685593E+02  0.12933235634E+03  0.12502560379E+03 0.  0.
    9000005    1    3    3    0    0  0.29745682911E+02 -0.24079644791E+02  0.67669945984E+02  0.77748675452E+02  0.10000000000E+01 0.  0.
    9000005    1    3    3    0    0 -0.29745682911E+02  0.24079644791E+02 -0.34572260391E+02  0.51583680885E+02  0.10000000000E+01 0.  0.
<mgrwt>
<rscale>  0 0.12502560E+03</rscale>
<asrwt>0</asrwt>
<pdfrwt beam="1">  1        4 0.12494619E-01 0.12502560E+03</pdfrwt>
<pdfrwt beam="2">  1       -4 0.74026670E-02 0.12502560E+03</pdfrwt>
<totfact> 0.10352826E+04</totfact>
</mgrwt>
</event>
<event>
 5    1  0.3206158E-002  0.1250001E+03  0.7818608E-02  0.1235069E+00
         -4   -1    0    0    0  501 -0.00000000000E+00  0.00000000000E+00  0.27305331186E+03  0.27305626529E+03  0.12700000000E+01 0.  1.
          4   -1    0    0  501    0  0.00000000000E+00 -0.00000000000E+00 -0.14274623666E+02  0.14331007669E+02  0.12700000000E+01 0.  1.
         25    2    1    2    0    0  0.00000000000E+00  0.00000000000E+00  0.25877868819E+03  0.28738727296E+03  0.12500014080E+03 0.  0.
    9000005    1    3    3    0    0 -0.57341555228E+02  0.62845059272E+00  0.72289792893E+02  0.92278183027E+02  0.10000000000E+01 0.  0.
    9000005    1    3    3    0    0  0.57341555228E+02 -0.62845059272E+00  0.18648889530E+03  0.19510908993E+03  0.10000000000E+01 0.  0.
<mgrwt>
<rscale>  0 0.12500014E+03</rscale>
<asrwt>0</asrwt>
<pdfrwt beam="2">  1        4 0.22006603E-02 0.12500014E+03</pdfrwt>
<pdfrwt beam="1">  1       -4 0.42012767E-01 0.12500014E+03</pdfrwt>
<totfact> 0.77208450E+03</totfact>
</mgrwt>
</event>
<event>
 5    1  0.3206158E-002  0.1249992E+03  0.7818608E-02  0.1235070E+00
          4   -1    0    0  501    0  0.00000000000E+00  0.00000000000E+00  0.47772423627E+01  0.49431715115E+01  0.12700000000E+01 0. -1.
         -4   -1    0    0    0  501 -0.00000000000E+00 -0.00000000000E+00 -0.80354479950E+03  0.80354580311E+03  0.12700000000E+01 0. -1.
         25    2    1    2    0    0  0.00000000000E+00  0.00000000000E+00 -0.79876755714E+03  0.80848897463E+03  0.12499924703E+03 0.  0.
    9000005    1    3    3    0    0  0.11900291558E+02  0.59865134643E+02 -0.31266699660E+03  0.31857040359E+03  0.10000000000E+01 0.  0.
    9000005    1    3    3    0    0 -0.11900291558E+02 -0.59865134643E+02 -0.48610056054E+03  0.48991857103E+03  0.10000000000E+01 0.  0.
<mgrwt>
<rscale>  0 0.12499925E+03</rscale>
<asrwt>0</asrwt>
<pdfrwt beam="1">  1        4 0.74780198E-03 0.12499925E+03</pdfrwt>
<pdfrwt beam="2">  1       -4 0.12363501E+00 0.12499925E+03</pdfrwt>
<totfact> 0.37889206E+03</totfact>
</mgrwt>
</event>
<event>
 5    1  0.3206158E-002  0.1250031E+03  0.7818608E-02  0.1235064E+00
         -4   -1    0    0    0  501 -0.00000000000E+00  0.00000000000E+00  0.48381097704E+02  0.48397763533E+02  0.12700000000E+01 0. -1.
          4   -1    0    0  501    0  0.00000000000E+00 -0.00000000000E+00 -0.80707585446E+02  0.80717577073E+02  0.12700000000E+01 0. -1.
         25    2    1    2    0    0  0.00000000000E+00  0.00000000000E+00 -0.32326487743E+02  0.12911534061E+03  0.12500307744E+03 0.  0.
    9000005    1    3    3    0    0  0.46864390874E+02  0.30469520921E+02 -0.45024906298E+02  0.71783737882E+02  0.10000000000E+01 0.  0.
    9000005    1    3    3    0    0 -0.46864390874E+02 -0.30469520921E+02  0.12698418555E+02  0.57331602725E+02  0.10000000000E+01 0.  0.
<mgrwt>
<rscale>  0 0.12500308E+03</rscale>
<asrwt>0</asrwt>
<pdfrwt beam="2">  1        4 0.12418602E-01 0.12500308E+03</pdfrwt>
<pdfrwt beam="1">  1       -4 0.74452964E-02 0.12500308E+03</pdfrwt>
<totfact> 0.10362749E+04</totfact>
</mgrwt>
</event>
<event>
 5    1  0.3206158E-002  0.1249857E+03  0.7818608E-02  0.1235092E+00
         -4   -1    0    0    0  501 -0.00000000000E+00  0.00000000000E+00  0.54270120107E+03  0.54270268706E+03  0.12700000000E+01 0.  1.
          4   -1    0    0  501    0  0.00000000000E+00 -0.00000000000E+00 -0.71386034176E+01  0.72506936739E+01  0.12700000000E+01 0.  1.
         25    2    1    2    0    0  0.00000000000E+00  0.00000000000E+00  0.53556259765E+03  0.54995338073E+03  0.12498569909E+03 0.  0.
    9000005    1    3    3    0    0 -0.58111198710E+02 -0.21466417722E+01  0.16716957063E+03  0.17699769725E+03  0.10000000000E+01 0.  0.
    9000005    1    3    3    0    0  0.58111198710E+02  0.21466417722E+01  0.36839302701E+03  0.37295568348E+03  0.10000000000E+01 0.  0.
<mgrwt>
<rscale>  0 0.12498570E+03</rscale>
<asrwt>0</asrwt>
<pdfrwt beam="2">  1        4 0.11069830E-02 0.12498570E+03</pdfrwt>
<pdfrwt beam="1">  1       -4 0.83501251E-01 0.12498570E+03</pdfrwt>
<totfact> 0.52203558E+03</totfact>
</mgrwt>
</event>
<event>
 5    1  0.3206158E-002  0.1250006E+03  0.7818608E-02  0.1235068E+00
         -4   -1    0    0    0  501 -0.00000000000E+00  0.00000000000E+00  0.80915479176E+01  0.81906072854E+01  0.12700000000E+01 0.  1.
          4   -1    0    0  501    0  0.00000000000E+00 -0.00000000000E+00 -0.47972477716E+03  0.47972645823E+03  0.12700000000E+01 0.  1.
         25    2    1    2    0    0  0.00000000000E+00  0.00000000000E+00 -0.47163322925E+03  0.48791706551E+03  0.12500063956E+03 0.  0.
    9000005    1    3    3    0    0  0.41634654438E+02 -0.41154980661E+02 -0.15046748628E+03  0.16145786234E+03  0.10000000000E+01 0.  0.
    9000005    1    3    3    0    0 -0.41634654438E+02  0.41154980661E+02 -0.32116574297E+03  0.32645920318E+03  0.10000000000E+01 0.  0.
<mgrwt>
<rscale>  0 0.12500064E+03</rscale>
<asrwt>0</asrwt>
<pdfrwt beam="2">  1        4 0.73811539E-01 0.12500064E+03</pdfrwt>
<pdfrwt beam="1">  1       -4 0.12526032E-02 0.12500064E+03</pdfrwt>
<totfact> 0.56813404E+03</totfact>
</mgrwt>
</event>
<event>
 5    1  0.3206158E-002  0.1250061E+03  0.7818608E-02  0.1235060E+00
         -4   -1    0    0    0  501 -0.00000000000E+00  0.00000000000E+00  0.14670065828E+02  0.14724935701E+02  0.12700000000E+01 0.  1.
          4   -1    0    0  501    0  0.00000000000E+00 -0.00000000000E+00 -0.26574615615E+03  0.26574919079E+03  0.12700000000E+01 0.  1.
         25    2    1    2    0    0  0.00000000000E+00  0.00000000000E+00 -0.25107609032E+03  0.28047412650E+03  0.12500612986E+03 0.  0.
    9000005    1    3    3    0    0  0.44884572364E+02  0.30416957312E+02 -0.55809770955E+02  0.77817393058E+02  0.10000000000E+01 0.  0.
    9000005    1    3    3    0    0 -0.44884572364E+02 -0.30416957312E+02 -0.19526631937E+03  0.20265673344E+03  0.10000000000E+01 0.  0.
<mgrwt>
<rscale>  0 0.12500613E+03</rscale>
<asrwt>0</asrwt>
<pdfrwt beam="2">  1        4 0.40888475E-01 0.12500613E+03</pdfrwt>
<pdfrwt beam="1">  1       -4 0.22613876E-02 0.12500613E+03</pdfrwt>
<totfact> 0.78104641E+03</totfact>
</mgrwt>
</event>
<event>
 5    1  0.3206158E-002  0.1250035E+03  0.7818608E-02  0.1235064E+00
         -4   -1    0    0    0  501 -0.00000000000E+00  0.00000000000E+00  0.67362901294E+02  0.67374871954E+02  0.12700000000E+01 0.  1.
          4   -1    0    0  501    0  0.00000000000E+00 -0.00000000000E+00 -0.57967337364E+02  0.57981247840E+02  0.12700000000E+01 0.  1.
         25    2    1    2    0    0  0.00000000000E+00  0.00000000000E+00  0.93955639300E+01  0.12535611979E+03  0.12500352054E+03 0.  0.
    9000005    1    3    3    0    0 -0.16246029881E+01  0.55493060134E+02 -0.24077248987E+02  0.60521343150E+02  0.10000000000E+01 0.  0.
    9000005    1    3    3    0    0  0.16246029881E+01 -0.55493060134E+02  0.33472812917E+02  0.64834776644E+02  0.10000000000E+01 0.  0.
<mgrwt>
<rscale>  0 0.12500352E+03</rscale>
<asrwt>0</asrwt>
<pdfrwt beam="2">  1        4 0.89200427E-02 0.12500352E+03</pdfrwt>
<pdfrwt beam="1">  1       -4 0.10365514E-01 0.12500352E+03</pdfrwt>
<totfact> 0.10444301E+04</totfact>
</mgrwt>
</event>
<event>
 5    1  0.3206158E-002  0.1249945E+03  0.7818608E-02  0.1235078E+00
         -4   -1    0    0    0  501 -0.00000000000E+00  0.00000000000E+00  0.27657331007E+02  0.27686474287E+02  0.12700000000E+01 0. -1.
          4   -1    0    0  501    0  0.00000000000E+00 -0.00000000000E+00 -0.14111858625E+03  0.14112430083E+03  0.12700000000E+01 0. -1.
         25    2    1    2    0    0  0.00000000000E+00  0.00000000000E+00 -0.11346125524E+03  0.16881077512E+03  0.12499448530E+03 0.  0.
    9000005    1    3    3    0    0  0.61320140579E+02 -0.11962819889E+02 -0.58458396560E+02  0.85566657225E+02  0.10000000000E+01 0.  0.
    9000005    1    3    3    0    0 -0.61320140579E+02  0.11962819889E+02 -0.55002858680E+02  0.83244117890E+02  0.10000000000E+01 0.  0.
<mgrwt>
<rscale>  0 0.12499449E+03</rscale>
<asrwt>0</asrwt>
<pdfrwt beam="2">  1        4 0.21713233E-01 0.12499449E+03</pdfrwt>
<pdfrwt beam="1">  1       -4 0.42576555E-02 0.12499449E+03</pdfrwt>
<totfact> 0.95682368E+03</totfact>
</mgrwt>
</event>
<event>
 5    1  0.3206158E-002  0.1250009E+03  0.7818608E-02  0.1235068E+00
          4   -1    0    0  501    0  0.00000000000E+00  0.00000000000E+00  0.23799135287E+02  0.23832996883E+02  0.12700000000E+01 0. -1.
         -4   -1    0    0    0  501 -0.00000000000E+00 -0.00000000000E+00 -0.16398338500E+03  0.16398830280E+03  0.12700000000E+01 0. -1.
         25    2    1    2    0    0  0.00000000000E+00  0.00000000000E+00 -0.14018424971E+03  0.18782129969E+03  0.12500086699E+03 0.  0.
    9000005    1    3    3    0    0  0.19065954356E+02  0.22714896134E+01  0.19264523240E+02  0.27217496876E+02  0.10000000000E+01 0.  0.
    9000005    1    3    3    0    0 -0.19065954356E+02 -0.22714896134E+01 -0.15944877295E+03  0.16060380281E+03  0.10000000000E+01 0.  0.
<mgrwt>
<rscale>  0 0.12500087E+03</rscale>
<asrwt>0</asrwt>
<pdfrwt beam="1">  1        4 0.36643886E-02 0.12500087E+03</pdfrwt>
<pdfrwt beam="2">  1       -4 0.25231195E-01 0.12500087E+03</pdfrwt>
<totfact> 0.92225998E+03</totfact>
</mgrwt>
</event>
<event>
 5    1  0.3206158E-002  0.1250000E+03  0.7818608E-02  0.1235069E+00
          4   -1    0    0  501    0  0.00000000000E+00  0.00000000000E+00  0.47645343016E+03  0.47645512277E+03  0.12700000000E+01 0.  1.
         -4   -1    0    0    0  501 -0.00000000000E+00 -0.00000000000E+00 -0.81477009961E+01  0.82460858304E+01  0.12700000000E+01 0.  1.
         25    2    1    2    0    0  0.00000000000E+00  0.00000000000E+00  0.46830572917E+03  0.48470120860E+03  0.12500002259E+03 0.  0.
    9000005    1    3    3    0    0  0.39883713219E+02 -0.33090689867E+02  0.98738949126E+02  0.11151719334E+03  0.10000000000E+01 0.  0.
    9000005    1    3    3    0    0 -0.39883713219E+02  0.33090689867E+02  0.36956678004E+03  0.37318401526E+03  0.10000000000E+01 0.  0.
<mgrwt>
<rscale>  0 0.12500002E+03</rscale>
<asrwt>0</asrwt>
<pdfrwt beam="1">  1        4 0.73308237E-01 0.12500002E+03</pdfrwt>
<pdfrwt beam="2">  1       -4 0.12611905E-02 0.12500002E+03</pdfrwt>
<totfact> 0.57071178E+03</totfact>
</mgrwt>
</event>
<event>
 5    1  0.3206158E-002  0.1249978E+03  0.7818608E-02  0.1235073E+00
         -4   -1    0    0    0  501 -0.00000000000E+00  0.00000000000E+00  0.43728216663E+01  0.45535117575E+01  0.12700000000E+01 0. -1.
          4   -1    0    0  501    0  0.00000000000E+00 -0.00000000000E+00 -0.87500767279E+03  0.87500859444E+03  0.12700000000E+01 0. -1.
         25    2    1    2    0    0  0.00000000000E+00  0.00000000000E+00 -0.87063485113E+03  0.87956210620E+03  0.12499781864E+03 0.  0.
    9000005    1    3    3    0    0  0.35553523008E+01  0.39924413376E+02 -0.77267284126E+03  0.77371242651E+03  0.10000000000E+01 0.  0.
    9000005    1    3    3    0    0 -0.35553523008E+01 -0.39924413376E+02 -0.97962009865E+02  0.10584967969E+03  0.10000000000E+01 0.  0.
<mgrwt>
<rscale>  0 0.12499782E+03</rscale>
<asrwt>0</asrwt>
<pdfrwt beam="2">  1        4 0.13463040E+00 0.12499782E+03</pdfrwt>
<pdfrwt beam="1">  1       -4 0.68671262E-03 0.12499782E+03</pdfrwt>
<totfact> 0.34948891E+03</totfact>
</mgrwt>
</event>
<event>
 5    1  0.3206158E-002  0.1250015E+03  0.7818608E-02  0.1235067E+00
          4   -1    0    0  501    0  0.00000000000E+00  0.00000000000E+00  0.27943552521E+02  0.27972397600E+02  0.12700000000E+01 0. -1.
         -4   -1    0    0    0  501 -0.00000000000E+00 -0.00000000000E+00 -0.13969015258E+03  0.13969592560E+03  0.12700000000E+01 0. -1.
         25    2    1    2    0    0  0.00000000000E+00  0.00000000000E+00 -0.11174660006E+03  0.16766832320E+03  0.12500145591E+03 0.  0.
    9000005    1    3    3    0    0 -0.60558531399E+02 -0.14778638235E+02 -0.49935410810E+02  0.79876712038E+02  0.10000000000E+01 0.  0.
    9000005    1    3    3    0    0  0.60558531399E+02  0.14778638235E+02 -0.61811189252E+02  0.87791611160E+02  0.10000000000E+01 0.  0.
<mgrwt>
<rscale>  0 0.12500146E+03</rscale>
<asrwt>0</asrwt>
<pdfrwt beam="1">  1        4 0.43016711E-02 0.12500146E+03</pdfrwt>
<pdfrwt beam="2">  1       -4 0.21493455E-01 0.12500146E+03</pdfrwt>
<totfact> 0.95881293E+03</totfact>
</mgrwt>
</event>
<event>
 5    1  0.3206158E-002  0.1250018E+03  0.7818608E-02  0.1235066E+00
         -4   -1    0    0    0  501 -0.00000000000E+00  0.00000000000E+00  0.30625144183E+03  0.30625407512E+03  0.12700000000E+01 0.  1.
          4   -1    0    0  501    0  0.00000000000E+00 -0.00000000000E+00 -0.12721105206E+02  0.12784342677E+02  0.12700000000E+01 0.  1.
         25    2    1    2    0    0  0.00000000000E+00  0.00000000000E+00  0.29353033663E+03  0.31903841779E+03  0.12500181402E+03 0.  0.
    9000005    1    3    3    0    0 -0.49237220773E+02 -0.38377289098E+02  0.13943737454E+03  0.15277729427E+03  0.10000000000E+01 0.  0.
    9000005    1    3    3    0    0  0.49237220773E+02  0.38377289098E+02  0.15409296209E+03  0.16626112352E+03  0.10000000000E+01 0.  0.
<mgrwt>
<rscale>  0 0.12500181E+03</rscale>
<asrwt>0</asrwt>
<pdfrwt beam="2">  1        4 0.19621601E-02 0.12500181E+03</pdfrwt>
<pdfrwt beam="1">  1       -4 0.47120673E-01 0.12500181E+03</pdfrwt>
<totfact> 0.73267691E+03</totfact>
</mgrwt>
</event>
<event>
 5    1  0.3206158E-002  0.1250006E+03  0.7818608E-02  0.1235068E+00
          4   -1    0    0  501    0  0.00000000000E+00  0.00000000000E+00  0.32797992087E+02  0.32822571273E+02  0.12700000000E+01 0. -1.
         -4   -1    0    0    0  501 -0.00000000000E+00 -0.00000000000E+00 -0.11902875583E+03  0.11903553089E+03  0.12700000000E+01 0. -1.
         25    2    1    2    0    0  0.00000000000E+00  0.00000000000E+00 -0.86230763745E+02  0.15185810217E+03  0.12500055431E+03 0.  0.
    9000005    1    3    3    0    0  0.18929462751E+02  0.57457325107E+02 -0.62154825207E+02  0.86740365834E+02  0.10000000000E+01 0.  0.
    9000005    1    3    3    0    0 -0.18929462751E+02 -0.57457325107E+02 -0.24075938539E+02  0.65117736332E+02  0.10000000000E+01 0.  0.
<mgrwt>
<rscale>  0 0.12500055E+03</rscale>
<asrwt>0</asrwt>
<pdfrwt beam="1">  1        4 0.50482569E-02 0.12500055E+03</pdfrwt>
<pdfrwt beam="2">  1       -4 0.18314528E-01 0.12500055E+03</pdfrwt>
<totfact> 0.98933361E+03</totfact>
</mgrwt>
</event>
<event>
 5    1  0.3206158E-002  0.1250032E+03  0.7818608E-02  0.1235064E+00
         -4   -1    0    0    0  501 -0.00000000000E+00  0.00000000000E+00  0.11307422315E+03  0.11308135496E+03  0.12700000000E+01 0.  1.
          4   -1    0    0  501    0  0.00000000000E+00 -0.00000000000E+00 -0.34527756746E+02  0.34551105422E+02  0.12700000000E+01 0.  1.
         25    2    1    2    0    0  0.00000000000E+00  0.00000000000E+00  0.78546466403E+02  0.14763246039E+03  0.12500318386E+03 0.  0.
    9000005    1    3    3    0    0  0.22367568328E+02 -0.84510989116E+01  0.10746396178E+03  0.11009646800E+03  0.10000000000E+01 0.  0.
    9000005    1    3    3    0    0 -0.22367568328E+02  0.84510989116E+01 -0.28917495373E+02  0.37535992386E+02  0.10000000000E+01 0.  0.
<mgrwt>
<rscale>  0 0.12500318E+03</rscale>
<asrwt>0</asrwt>
<pdfrwt beam="2">  1        4 0.53143072E-02 0.12500318E+03</pdfrwt>
<pdfrwt beam="1">  1       -4 0.17398379E-01 0.12500318E+03</pdfrwt>
<totfact> 0.99770591E+03</totfact>
</mgrwt>
</event>
<event>
 5    1  0.3206158E-002  0.1250004E+03  0.7818608E-02  0.1235069E+00
          4   -1    0    0  501    0  0.00000000000E+00  0.00000000000E+00  0.35554466023E+03  0.35554692844E+03  0.12700000000E+01 0. -1.
         -4   -1    0    0    0  501 -0.00000000000E+00 -0.00000000000E+00 -0.10947723194E+02  0.11021140736E+02  0.12700000000E+01 0. -1.
         25    2    1    2    0    0  0.00000000000E+00  0.00000000000E+00  0.34459693704E+03  0.36656806917E+03  0.12500040128E+03 0.  0.
    9000005    1    3    3    0    0  0.24694512421E+02 -0.57404999416E+02  0.17127342981E+03  0.18232043402E+03  0.10000000000E+01 0.  0.
    9000005    1    3    3    0    0 -0.24694512421E+02  0.57404999416E+02  0.17332350723E+03  0.18424763515E+03  0.10000000000E+01 0.  0.
<mgrwt>
<rscale>  0 0.12500040E+03</rscale>
<asrwt>0</asrwt>
<pdfrwt beam="1">  1        4 0.54704995E-01 0.12500040E+03</pdfrwt>
<pdfrwt beam="2">  1       -4 0.16900872E-02 0.12500040E+03</pdfrwt>
<totfact> 0.67938915E+03</totfact>
</mgrwt>
</event>
<event>
 5    1  0.3206158E-002  0.1250007E+03  0.7818608E-02  0.1235068E+00
          4   -1    0    0  501    0  0.00000000000E+00  0.00000000000E+00  0.85908485396E+02  0.85917872198E+02  0.12700000000E+01 0. -1.
         -4   -1    0    0    0  501 -0.00000000000E+00 -0.00000000000E+00 -0.45449630690E+02  0.45467371046E+02  0.12700000000E+01 0. -1.
         25    2    1    2    0    0  0.00000000000E+00  0.00000000000E+00  0.40458854706E+02  0.13138524324E+03  0.12500065287E+03 0.  0.
    9000005    1    3    3    0    0 -0.10064841968E+02 -0.27428849751E+02 -0.37833847112E+02  0.47812580246E+02  0.10000000000E+01 0.  0.
    9000005    1    3    3    0    0  0.10064841968E+02  0.27428849751E+02  0.78292701818E+02  0.83572662997E+02  0.10000000000E+01 0.  0.
<mgrwt>
<rscale>  0 0.12500065E+03</rscale>
<asrwt>0</asrwt>
<pdfrwt beam="1">  1        4 0.13218777E-01 0.12500065E+03</pdfrwt>
<pdfrwt beam="2">  1       -4 0.69943376E-02 0.12500065E+03</pdfrwt>
<totfact> 0.10314686E+04</totfact>
</mgrwt>
</event>
<event>
 5    1  0.3206158E-002  0.1250006E+03  0.7818608E-02  0.1235068E+00
          4   -1    0    0  501    0  0.00000000000E+00  0.00000000000E+00  0.52784999940E+02  0.52800275744E+02  0.12700000000E+01 0. -1.
         -4   -1    0    0    0  501 -0.00000000000E+00 -0.00000000000E+00 -0.73972295856E+02  0.73983197107E+02  0.12700000000E+01 0. -1.
         25    2    1    2    0    0  0.00000000000E+00  0.00000000000E+00 -0.21187295916E+02  0.12678347285E+03  0.12500058992E+03 0.  0.
    9000005    1    3    3    0    0  0.21041306756E+02  0.27153485716E+02  0.42354751728E+02  0.54543316460E+02  0.10000000000E+01 0.  0.
    9000005    1    3    3    0    0 -0.21041306756E+02 -0.27153485716E+02 -0.63542047644E+02  0.72240156391E+02  0.10000000000E+01 0.  0.
<mgrwt>
<rscale>  0 0.12500059E+03</rscale>
<asrwt>0</asrwt>
<pdfrwt beam="1">  1        4 0.81227829E-02 0.12500059E+03</pdfrwt>
<pdfrwt beam="2">  1       -4 0.11382367E-01 0.12500059E+03</pdfrwt>
<totfact> 0.10413715E+04</totfact>
</mgrwt>
</event>
<event>
 5    1  0.3206158E-002  0.1250003E+03  0.7818608E-02  0.1235069E+00
         -4   -1    0    0    0  501 -0.00000000000E+00  0.00000000000E+00  0.22431065789E+02  0.22466989394E+02  0.12700000000E+01 0. -1.
          4   -1    0    0  501    0  0.00000000000E+00 -0.00000000000E+00 -0.17396777027E+03  0.17397240584E+03  0.12700000000E+01 0. -1.
         25    2    1    2    0    0  0.00000000000E+00  0.00000000000E+00 -0.15153670448E+03  0.19643939524E+03  0.12500025278E+03 0.  0.
    9000005    1    3    3    0    0 -0.36952910193E+02 -0.86582133198E+01 -0.15378855817E+03  0.15840581698E+03  0.10000000000E+01 0.  0.
    9000005    1    3    3    0    0  0.36952910193E+02  0.86582133198E+01  0.22518536871E+01  0.38033578252E+02  0.10000000000E+01 0.  0.
<mgrwt>
<rscale>  0 0.12500025E+03</rscale>
<asrwt>0</asrwt>
<pdfrwt beam="2">  1        4 0.26767391E-01 0.12500025E+03</pdfrwt>
<pdfrwt beam="1">  1       -4 0.34540533E-02 0.12500025E+03</pdfrwt>
<totfact> 0.90738283E+03</totfact>
</mgrwt>
</event>
<event>
 5    1  0.3206158E-002  0.1249482E+03  0.7818608E-02  0.1235150E+00
         -4   -1    0    0    0  501 -0.00000000000E+00  0.00000000000E+00  0.79228413863E+01  0.80239837757E+01  0.12700000000E+01 0. -1.
          4   -1    0    0  501    0  0.00000000000E+00 -0.00000000000E+00 -0.48940130600E+03  0.48940295383E+03  0.12700000000E+01 0. -1.
         25    2    1    2    0    0  0.00000000000E+00  0.00000000000E+00 -0.48147846461E+03  0.49742693760E+03  0.12494817472E+03 0.  0.
    9000005    1    3    3    0    0  0.31053624875E+02  0.20603580735E+02 -0.44031640848E+03  0.44189181339E+03  0.10000000000E+01 0.  0.
    9000005    1    3    3    0    0 -0.31053624875E+02 -0.20603580735E+02 -0.41162056129E+02  0.55535124216E+02  0.10000000000E+01 0.  0.
<mgrwt>
<rscale>  0 0.12494817E+03</rscale>
<asrwt>0</asrwt>
<pdfrwt beam="2">  1        4 0.75300392E-01 0.12494817E+03</pdfrwt>
<pdfrwt beam="1">  1       -4 0.12268060E-02 0.12494817E+03</pdfrwt>
<totfact> 0.56128511E+03</totfact>
</mgrwt>
</event>
<event>
 5    1  0.3206158E-002  0.1249995E+03  0.7818608E-02  0.1235070E+00
          4   -1    0    0  501    0  0.00000000000E+00  0.00000000000E+00  0.64211131885E+02  0.64223690006E+02  0.12700000000E+01 0. -1.
         -4   -1    0    0    0  501 -0.00000000000E+00 -0.00000000000E+00 -0.60808882399E+02  0.60822142996E+02  0.12700000000E+01 0. -1.
         25    2    1    2    0    0  0.00000000000E+00  0.00000000000E+00  0.34022494868E+01  0.12504583300E+03  0.12499954020E+03 0.  0.
    9000005    1    3    3    0    0  0.49783289742E+02 -0.31670960494E+02  0.22295044830E+02  0.63083236284E+02  0.10000000000E+01 0.  0.
    9000005    1    3    3    0    0 -0.49783289742E+02  0.31670960494E+02 -0.18892795343E+02  0.61962596718E+02  0.10000000000E+01 0.  0.
<mgrwt>
<rscale>  0 0.12499954E+03</rscale>
<asrwt>0</asrwt>
<pdfrwt beam="1">  1        4 0.98806216E-02 0.12499954E+03</pdfrwt>
<pdfrwt beam="2">  1       -4 0.93571988E-02 0.12499954E+03</pdfrwt>
<totfact> 0.10451976E+04</totfact>
</mgrwt>
</event>
<event>
 5    1  0.3206158E-002  0.1249991E+03  0.7818608E-02  0.1235071E+00
         -4   -1    0    0    0  501 -0.00000000000E+00  0.00000000000E+00  0.17651477237E+02  0.17697105657E+02  0.12700000000E+01 0.  1.
          4   -1    0    0  501    0  0.00000000000E+00 -0.00000000000E+00 -0.22096259362E+03  0.22096624330E+03  0.12700000000E+01 0.  1.
         25    2    1    2    0    0  0.00000000000E+00  0.00000000000E+00 -0.20331111638E+03  0.23866334896E+03  0.12499913636E+03 0.  0.
    9000005    1    3    3    0    0  0.49815179559E+02  0.24295850112E+02 -0.46537502315E+02  0.72378032364E+02  0.10000000000E+01 0.  0.
    9000005    1    3    3    0    0 -0.49815179559E+02 -0.24295850112E+02 -0.15677361407E+03  0.16628531659E+03  0.10000000000E+01 0.  0.
<mgrwt>
<rscale>  0 0.12499914E+03</rscale>
<asrwt>0</asrwt>
<pdfrwt beam="2">  1        4 0.33998034E-01 0.12499914E+03</pdfrwt>
<pdfrwt beam="1">  1       -4 0.27194027E-02 0.12499914E+03</pdfrwt>
<totfact> 0.83998460E+03</totfact>
</mgrwt>
</event>
<event>
 5    1  0.3206158E-002  0.1250010E+03  0.7818608E-02  0.1235068E+00
          4   -1    0    0  501    0  0.00000000000E+00  0.00000000000E+00  0.10855077232E+03  0.10855820131E+03  0.12700000000E+01 0. -1.
         -4   -1    0    0    0  501 -0.00000000000E+00 -0.00000000000E+00 -0.35966157762E+02  0.35988573245E+02  0.12700000000E+01 0. -1.
         25    2    1    2    0    0  0.00000000000E+00  0.00000000000E+00  0.72584614562E+02  0.14454677456E+03  0.12500097505E+03 0.  0.
    9000005    1    3    3    0    0  0.56503815688E+02 -0.11297921967E+02  0.83238826040E+01  0.58228955424E+02  0.10000000000E+01 0.  0.
    9000005    1    3    3    0    0 -0.56503815688E+02  0.11297921967E+02  0.64260731958E+02  0.86317819133E+02  0.10000000000E+01 0.  0.
<mgrwt>
<rscale>  0 0.12500098E+03</rscale>
<asrwt>0</asrwt>
<pdfrwt beam="1">  1        4 0.16702415E-01 0.12500098E+03</pdfrwt>
<pdfrwt beam="2">  1       -4 0.55355508E-02 0.12500098E+03</pdfrwt>
<totfact> 0.10039985E+04</totfact>
</mgrwt>
</event>
<event>
 5    1  0.3206158E-002  0.1250009E+03  0.7818608E-02  0.1235068E+00
          4   -1    0    0  501    0  0.00000000000E+00  0.00000000000E+00  0.12556974345E+02  0.12621034217E+02  0.12700000000E+01 0.  1.
         -4   -1    0    0    0  501 -0.00000000000E+00 -0.00000000000E+00 -0.31022966514E+03  0.31023226465E+03  0.12700000000E+01 0.  1.
         25    2    1    2    0    0  0.00000000000E+00  0.00000000000E+00 -0.29767269079E+03  0.32285329887E+03  0.12500088699E+03 0.  0.
    9000005    1    3    3    0    0  0.38277949616E+02  0.20705108052E+02 -0.33000858752E+02  0.54625631389E+02  0.10000000000E+01 0.  0.
    9000005    1    3    3    0    0 -0.38277949616E+02 -0.20705108052E+02 -0.26467183204E+03  0.26822766748E+03  0.10000000000E+01 0.  0.
<mgrwt>
<rscale>  0 0.12500089E+03</rscale>
<asrwt>0</asrwt>
<pdfrwt beam="1">  1        4 0.19369701E-02 0.12500089E+03</pdfrwt>
<pdfrwt beam="2">  1       -4 0.47732763E-01 0.12500089E+03</pdfrwt>
<totfact> 0.72816614E+03</totfact>
</mgrwt>
</event>
<event>
 5    1  0.3206158E-002  0.1250017E+03  0.7818608E-02  0.1235067E+00
         -4   -1    0    0    0  501 -0.00000000000E+00  0.00000000000E+00  0.36208171357E+03  0.36208394083E+03  0.12700000000E+01 0.  1.
          4   -1    0    0  501    0  0.00000000000E+00 -0.00000000000E+00 -0.10748962919E+02  0.10823728740E+02  0.12700000000E+01 0.  1.
         25    2    1    2    0    0  0.00000000000E+00  0.00000000000E+00  0.35133275065E+03  0.37290766957E+03  0.12500171334E+03 0.  0.
    9000005    1    3    3    0    0 -0.55846268047E+02  0.20088997549E+01  0.92215308298E+02  0.10783090660E+03  0.10000000000E+01 0.  0.
    9000005    1    3    3    0    0  0.55846268047E+02 -0.20088997549E+01  0.25911744236E+03  0.26507676297E+03  0.10000000000E+01 0.  0.
<mgrwt>
<rscale>  0 0.12500171E+03</rscale>
<asrwt>0</asrwt>
<pdfrwt beam="2">  1        4 0.16596089E-02 0.12500171E+03</pdfrwt>
<pdfrwt beam="1">  1       -4 0.55710811E-01 0.12500171E+03</pdfrwt>
<totfact> 0.67273278E+03</totfact>
</mgrwt>
</event>
<event>
 4    1  0.3206158E-002  0.1251095E+03  0.7818608E-02  0.1234898E+00
         -4   -1    0    0    0  501 -0.00000000000E+00  0.00000000000E+00  0.14817790339E+02  0.14872115200E+02  0.12700000000E+01 0.  1.
          4   -1    0    0  501    0  0.00000000000E+00 -0.00000000000E+00 -0.26354197783E+03  0.26354503785E+03  0.12700000000E+01 0.  1.
    9000005    1    1    2    0    0 -0.56790270036E+02  0.25181544392E+02 -0.14054059566E+03  0.15366165422E+03  0.10000000000E+01 0.  0.
    9000005    1    1    2    0    0  0.56790270036E+02 -0.25181544392E+02 -0.10818359182E+03  0.12475549883E+03  0.10000000000E+01 0.  0.
<mgrwt>
<rscale>  0 0.12510951E+03</rscale>
<asrwt>0</asrwt>
<pdfrwt beam="2">  1        4 0.40549330E-01 0.12510951E+03</pdfrwt>
<pdfrwt beam="1">  1       -4 0.22840745E-02 0.12510951E+03</pdfrwt>
<totfact> 0.78197918E+03</totfact>
</mgrwt>
</event>
<event>
 5    1  0.3206158E-002  0.1250101E+03  0.7818608E-02  0.1235053E+00
         -4   -1    0    0    0  501 -0.00000000000E+00  0.00000000000E+00  0.65477029230E+01  0.66697311466E+01  0.12700000000E+01 0.  1.
          4   -1    0    0  501    0  0.00000000000E+00 -0.00000000000E+00 -0.59104836977E+03  0.59104973421E+03  0.12700000000E+01 0.  1.
         25    2    1    2    0    0  0.00000000000E+00  0.00000000000E+00 -0.58450066685E+03  0.59771946535E+03  0.12501011847E+03 0.  0.
    9000005    1    3    3    0    0 -0.18305358950E+00 -0.33784506883E+02 -0.54364558757E+03  0.54469528298E+03  0.10000000000E+01 0.  0.
    9000005    1    3    3    0    0  0.18305358950E+00  0.33784506883E+02 -0.40855079273E+02  0.53024182373E+02  0.10000000000E+01 0.  0.
<mgrwt>
<rscale>  0 0.12501012E+03</rscale>
<asrwt>0</asrwt>
<pdfrwt beam="2">  1        4 0.90939968E-01 0.12501012E+03</pdfrwt>
<pdfrwt beam="1">  1       -4 0.10168311E-02 0.12501012E+03</pdfrwt>
<totfact> 0.49001025E+03</totfact>
</mgrwt>
</event>
<event>
 5    1  0.3206158E-002  0.1250004E+03  0.7818608E-02  0.1235069E+00
          4   -1    0    0  501    0  0.00000000000E+00  0.00000000000E+00  0.22607114342E+02  0.22642758641E+02  0.12700000000E+01 0. -1.
         -4   -1    0    0    0  501 -0.00000000000E+00 -0.00000000000E+00 -0.17261557056E+03  0.17262024244E+03  0.12700000000E+01 0. -1.
         25    2    1    2    0    0  0.00000000000E+00  0.00000000000E+00 -0.15000845622E+03  0.19526300108E+03  0.12500041062E+03 0.  0.
    9000005    1    3    3    0    0 -0.23148479278E+02  0.82372524140E+00 -0.16566983904E+03  0.16728426759E+03  0.10000000000E+01 0.  0.
    9000005    1    3    3    0    0  0.23148479278E+02 -0.82372524140E+00  0.15661382817E+02  0.27978733494E+02  0.10000000000E+01 0.  0.
<mgrwt>
<rscale>  0 0.12500041E+03</rscale>
<asrwt>0</asrwt>
<pdfrwt beam="1">  1        4 0.34811189E-02 0.12500041E+03</pdfrwt>
<pdfrwt beam="2">  1       -4 0.26559342E-01 0.12500041E+03</pdfrwt>
<totfact> 0.90938712E+03</totfact>
</mgrwt>
</event>
<event>
 5    1  0.3206158E-002  0.1249982E+03  0.7818608E-02  0.1235072E+00
         -4   -1    0    0    0  501 -0.00000000000E+00  0.00000000000E+00  0.20484774561E+03  0.20485168239E+03  0.12700000000E+01 0. -1.
          4   -1    0    0  501    0  0.00000000000E+00 -0.00000000000E+00 -0.19043219296E+02  0.19085520720E+02  0.12700000000E+01 0. -1.
         25    2    1    2    0    0  0.00000000000E+00  0.00000000000E+00  0.18580452631E+03  0.22393720311E+03  0.12499819575E+03 0.  0.
    9000005    1    3    3    0    0 -0.28775865991E+02 -0.41647899149E+02  0.27259628449E+02  0.57503785181E+02  0.10000000000E+01 0.  0.
    9000005    1    3    3    0    0  0.28775865991E+02  0.41647899149E+02  0.15854489786E+03  0.16643341793E+03  0.10000000000E+01 0.  0.
<mgrwt>
<rscale>  0 0.12499820E+03</rscale>
<asrwt>0</asrwt>
<pdfrwt beam="2">  1        4 0.29332829E-02 0.12499820E+03</pdfrwt>
<pdfrwt beam="1">  1       -4 0.31518594E-01 0.12499820E+03</pdfrwt>
<totfact> 0.86252622E+03</totfact>
</mgrwt>
</event>
<event>
 5    1  0.3206158E-002  0.1249950E+03  0.7818608E-02  0.1235077E+00
          4   -1    0    0  501    0  0.00000000000E+00  0.00000000000E+00  0.48648219748E+03  0.48648385519E+03  0.12700000000E+01 0. -1.
         -4   -1    0    0    0  501 -0.00000000000E+00 -0.00000000000E+00 -0.79770335297E+01  0.80774973806E+01  0.12700000000E+01 0. -1.
         25    2    1    2    0    0  0.00000000000E+00  0.00000000000E+00  0.47850516395E+03  0.49456135257E+03  0.12499495803E+03 0.  0.
    9000005    1    3    3    0    0  0.21449795048E+02  0.55264388727E+02  0.31745910938E+03  0.32294818856E+03  0.10000000000E+01 0.  0.
    9000005    1    3    3    0    0 -0.21449795048E+02 -0.55264388727E+02  0.16104605457E+03  0.17161316401E+03  0.10000000000E+01 0.  0.
<mgrwt>
<rscale>  0 0.12499496E+03</rscale>
<asrwt>0</asrwt>
<pdfrwt beam="1">  1        4 0.74851292E-01 0.12499496E+03</pdfrwt>
<pdfrwt beam="2">  1       -4 0.12350911E-02 0.12499496E+03</pdfrwt>
<totfact> 0.56295051E+03</totfact>
</mgrwt>
</event>
<event>
 4    1  0.3206158E-002  0.1235497E+03  0.7818608E-02  0.1237353E+00
         -4   -1    0    0    0  501 -0.00000000000E+00  0.00000000000E+00  0.16479698343E+03  0.16480187695E+03  0.12700000000E+01 0.  1.
          4   -1    0    0  501    0  0.00000000000E+00 -0.00000000000E+00 -0.23133918533E+02  0.23168752376E+02  0.12700000000E+01 0.  1.
    9000005    1    1    2    0    0 -0.80614947543E+01 -0.60879905736E+02  0.80898526509E+02  0.10157225119E+03  0.10000000000E+01 0.  0.
    9000005    1    1    2    0    0  0.80614947543E+01  0.60879905736E+02  0.60764538387E+02  0.86398378141E+02  0.10000000000E+01 0.  0.
<mgrwt>
<rscale>  0 0.12354972E+03</rscale>
<asrwt>0</asrwt>
<pdfrwt beam="2">  1        4 0.35621203E-02 0.12354972E+03</pdfrwt>
<pdfrwt beam="1">  1       -4 0.25356438E-01 0.12354972E+03</pdfrwt>
<totfact> 0.95262631E+03</totfact>
</mgrwt>
</event>
<event>
 5    1  0.3206158E-002  0.1249991E+03  0.7818608E-02  0.1235071E+00
          4   -1    0    0  501    0  0.00000000000E+00  0.00000000000E+00  0.12492159990E+04  0.12492166446E+04  0.12700000000E+01 0.  1.
         -4   -1    0    0    0  501 -0.00000000000E+00 -0.00000000000E+00 -0.29972927131E+01  0.32552516965E+01  0.12700000000E+01 0.  1.
         25    2    1    2    0    0  0.00000000000E+00  0.00000000000E+00  0.12462187063E+04  0.12524718963E+04  0.12499914810E+03 0.  0.
    9000005    1    3    3    0    0  0.10302909251E+02 -0.12435898360E+01  0.56479080397E+01  0.11857289738E+02  0.10000000000E+01 0.  0.
    9000005    1    3    3    0    0 -0.10302909251E+02  0.12435898360E+01  0.12405707983E+04  0.12406146066E+04  0.10000000000E+01 0.  0.
<mgrwt>
<rscale>  0 0.12499915E+03</rscale>
<asrwt>0</asrwt>
<pdfrwt beam="1">  1        4 0.19220687E+00 0.12499915E+03</pdfrwt>
<pdfrwt beam="2">  1       -4 0.48101486E-03 0.12499915E+03</pdfrwt>
<totfact> 0.23379225E+03</totfact>
</mgrwt>
</event>
<event>
 5    1  0.3206158E-002  0.1249930E+03  0.7818608E-02  0.1235080E+00
         -4   -1    0    0    0  501 -0.00000000000E+00  0.00000000000E+00  0.45870585541E+02  0.45888163157E+02  0.12700000000E+01 0.  1.
          4   -1    0    0  501    0  0.00000000000E+00 -0.00000000000E+00 -0.85109890560E+02  0.85119365430E+02  0.12700000000E+01 0.  1.
         25    2    1    2    0    0  0.00000000000E+00  0.00000000000E+00 -0.39239305019E+02  0.13100752859E+03  0.12499299776E+03 0.  0.
    9000005    1    3    3    0    0 -0.21540613021E+02  0.49688876327E+02  0.13054603341E+02  0.55717188625E+02  0.10000000000E+01 0.  0.
    9000005    1    3    3    0    0  0.21540613021E+02 -0.49688876327E+02 -0.52293908360E+02  0.75290339961E+02  0.10000000000E+01 0.  0.
<mgrwt>
<rscale>  0 0.12499300E+03</rscale>
<asrwt>0</asrwt>
<pdfrwt beam="2">  1        4 0.13095910E-01 0.12499300E+03</pdfrwt>
<pdfrwt beam="1">  1       -4 0.70590941E-02 0.12499300E+03</pdfrwt>
<totfact> 0.10324559E+04</totfact>
</mgrwt>
</event>
<event>
 5    1  0.3206158E-002  0.1250033E+03  0.7818608E-02  0.1235064E+00
         -4   -1    0    0    0  501 -0.00000000000E+00  0.00000000000E+00  0.73718541406E+02  0.73729480176E+02  0.12700000000E+01 0. -1.
          4   -1    0    0  501    0  0.00000000000E+00 -0.00000000000E+00 -0.52969043565E+02  0.52984266308E+02  0.12700000000E+01 0. -1.
         25    2    1    2    0    0  0.00000000000E+00  0.00000000000E+00  0.20749497842E+02  0.12671374648E+03  0.12500332751E+03 0.  0.
    9000005    1    3    3    0    0 -0.88412167111E+01 -0.53878153065E+02  0.41195304338E+02  0.68403768830E+02  0.10000000000E+01 0.  0.
    9000005    1    3    3    0    0  0.88412167111E+01  0.53878153065E+02 -0.20445806497E+02  0.58309977654E+02  0.10000000000E+01 0.  0.
<mgrwt>
<rscale>  0 0.12500333E+03</rscale>
<asrwt>0</asrwt>
<pdfrwt beam="2">  1        4 0.81510961E-02 0.12500333E+03</pdfrwt>
<pdfrwt beam="1">  1       -4 0.11343326E-01 0.12500333E+03</pdfrwt>
<totfact> 0.10414589E+04</totfact>
</mgrwt>
</event>
<event>
 5    1  0.3206158E-002  0.1249988E+03  0.7818608E-02  0.1235071E+00
          4   -1    0    0  501    0  0.00000000000E+00  0.00000000000E+00  0.45881709501E+01  0.47606945572E+01  0.12700000000E+01 0.  1.
         -4   -1    0    0    0  501 -0.00000000000E+00 -0.00000000000E+00 -0.83547348237E+03  0.83547444763E+03  0.12700000000E+01 0.  1.
         25    2    1    2    0    0  0.00000000000E+00  0.00000000000E+00 -0.83088531142E+03  0.84023514219E+03  0.12499877373E+03 0.  0.
    9000005    1    3    3    0    0  0.28678466761E+02 -0.15082446381E+02 -0.56259219512E+02  0.64930997410E+02  0.10000000000E+01 0.  0.
    9000005    1    3    3    0    0 -0.28678466761E+02  0.15082446381E+02 -0.77462609191E+03  0.77530414478E+03  0.10000000000E+01 0.  0.
<mgrwt>
<rscale>  0 0.12499877E+03</rscale>
<asrwt>0</asrwt>
<pdfrwt beam="1">  1        4 0.71921841E-03 0.12499877E+03</pdfrwt>
<pdfrwt beam="2">  1       -4 0.12854761E+00 0.12499877E+03</pdfrwt>
<totfact> 0.36531286E+03</totfact>
</mgrwt>
</event>
<event>
 5    1  0.3206158E-002  0.1249980E+03  0.7818608E-02  0.1235072E+00
         -4   -1    0    0    0  501 -0.00000000000E+00  0.00000000000E+00  0.26372363430E+02  0.26402925082E+02  0.12700000000E+01 0.  1.
          4   -1    0    0  501    0  0.00000000000E+00 -0.00000000000E+00 -0.14799520394E+03  0.14800065300E+03  0.12700000000E+01 0.  1.
         25    2    1    2    0    0  0.00000000000E+00  0.00000000000E+00 -0.12162284051E+03  0.17440357809E+03  0.12499797085E+03 0.  0.
    9000005    1    3    3    0    0 -0.61174837826E+02 -0.99492941995E+01 -0.71953699922E+02  0.94972017829E+02  0.10000000000E+01 0.  0.
    9000005    1    3    3    0    0  0.61174837826E+02  0.99492941995E+01 -0.49669140590E+02  0.79431560258E+02  0.10000000000E+01 0.  0.
<mgrwt>
<rscale>  0 0.12499797E+03</rscale>
<asrwt>0</asrwt>
<pdfrwt beam="2">  1        4 0.22771262E-01 0.12499797E+03</pdfrwt>
<pdfrwt beam="1">  1       -4 0.40600568E-02 0.12499797E+03</pdfrwt>
<totfact> 0.94638496E+03</totfact>
</mgrwt>
</event>
<event>
 5    1  0.3206158E-002  0.1249978E+03  0.7818608E-02  0.1235073E+00
          4   -1    0    0  501    0  0.00000000000E+00  0.00000000000E+00  0.36306044015E+02  0.36328249779E+02  0.12700000000E+01 0. -1.
         -4   -1    0    0    0  501 -0.00000000000E+00 -0.00000000000E+00 -0.10752956588E+03  0.10753706541E+03  0.12700000000E+01 0. -1.
         25    2    1    2    0    0  0.00000000000E+00  0.00000000000E+00 -0.71223521864E+02  0.14386531519E+03  0.12499775538E+03 0.  0.
    9000005    1    3    3    0    0  0.48506740488E+02 -0.16319943878E+02  0.56598690020E+01  0.51500277263E+02  0.10000000000E+01 0.  0.
    9000005    1    3    3    0    0 -0.48506740488E+02  0.16319943878E+02 -0.76883390866E+02  0.92365037931E+02  0.10000000000E+01 0.  0.
<mgrwt>
<rscale>  0 0.12499776E+03</rscale>
<asrwt>0</asrwt>
<pdfrwt beam="1">  1        4 0.55878303E-02 0.12499776E+03</pdfrwt>
<pdfrwt beam="2">  1       -4 0.16545295E-01 0.12499776E+03</pdfrwt>
<totfact> 0.10054602E+04</totfact>
</mgrwt>
</event>
<event>
 5    1  0.3206158E-002  0.1249940E+03  0.7818608E-02  0.1235079E+00
          4   -1    0    0  501    0  0.00000000000E+00  0.00000000000E+00  0.82753533069E+02  0.82763277698E+02  0.12700000000E+01 0.  1.
         -4   -1    0    0    0  501 -0.00000000000E+00 -0.00000000000E+00 -0.47177791578E+02  0.47194882330E+02  0.12700000000E+01 0.  1.
         25    2    1    2    0    0  0.00000000000E+00  0.00000000000E+00  0.35575741491E+02  0.12995816003E+03  0.12499395976E+03 0.  0.
    9000005    1    3    3    0    0  0.27480252598E+02  0.25221511568E+02  0.69914685926E+02  0.79248673406E+02  0.10000000000E+01 0.  0.
    9000005    1    3    3    0    0 -0.27480252598E+02 -0.25221511568E+02 -0.34338944435E+02  0.50709486622E+02  0.10000000000E+01 0.  0.
<mgrwt>
<rscale>  0 0.12499396E+03</rscale>
<asrwt>0</asrwt>
<pdfrwt beam="1">  1        4 0.12733377E-01 0.12499396E+03</pdfrwt>
<pdfrwt beam="2">  1       -4 0.72601862E-02 0.12499396E+03</pdfrwt>
<totfact> 0.10346813E+04</totfact>
</mgrwt>
</event>
<event>
 5    1  0.3206158E-002  0.1250057E+03  0.7818608E-02  0.1235060E+00
          4   -1    0    0  501    0  0.00000000000E+00  0.00000000000E+00  0.61495903081E+01  0.62793599162E+01  0.12700000000E+01 0. -1.
         -4   -1    0    0    0  501 -0.00000000000E+00 -0.00000000000E+00 -0.62849959177E+03  0.62850087490E+03  0.12700000000E+01 0. -1.
         25    2    1    2    0    0  0.00000000000E+00  0.00000000000E+00 -0.62235000146E+03  0.63478023482E+03  0.12500568867E+03 0.  0.
    9000005    1    3    3    0    0 -0.38518771320E+02  0.36616095957E+02 -0.14420406635E+03  0.15368879913E+03  0.10000000000E+01 0.  0.
    9000005    1    3    3    0    0  0.38518771320E+02 -0.36616095957E+02 -0.47814593512E+03  0.48109143569E+03  0.10000000000E+01 0.  0.
<mgrwt>
<rscale>  0 0.12500569E+03</rscale>
<asrwt>0</asrwt>
<pdfrwt beam="1">  1        4 0.95617229E-03 0.12500569E+03</pdfrwt>
<pdfrwt beam="2">  1       -4 0.96702276E-01 0.12500569E+03</pdfrwt>
<totfact> 0.46737483E+03</totfact>
</mgrwt>
</event>
<event>
 5    1  0.3206158E-002  0.1249992E+03  0.7818608E-02  0.1235071E+00
          4   -1    0    0  501    0  0.00000000000E+00  0.00000000000E+00  0.35279820630E+02  0.35302671905E+02  0.12700000000E+01 0.  1.
         -4   -1    0    0    0  501 -0.00000000000E+00 -0.00000000000E+00 -0.11065813304E+03  0.11066542056E+03  0.12700000000E+01 0.  1.
         25    2    1    2    0    0  0.00000000000E+00  0.00000000000E+00 -0.75378312406E+02  0.14596809246E+03  0.12499917614E+03 0.  0.
    9000005    1    3    3    0    0  0.60125333751E+02 -0.10457448329E+02 -0.21988008184E+02  0.64875931501E+02  0.10000000000E+01 0.  0.
    9000005    1    3    3    0    0 -0.60125333751E+02  0.10457448329E+02 -0.53390304222E+02  0.81092160960E+02  0.10000000000E+01 0.  0.
<mgrwt>
<rscale>  0 0.12499918E+03</rscale>
<asrwt>0</asrwt>
<pdfrwt beam="1">  1        4 0.54299831E-02 0.12499918E+03</pdfrwt>
<pdfrwt beam="2">  1       -4 0.17026646E-01 0.12499918E+03</pdfrwt>
<totfact> 0.10011542E+04</totfact>
</mgrwt>
</event>
<event>
 5    1  0.3206158E-002  0.1249988E+03  0.7818608E-02  0.1235071E+00
         -4   -1    0    0    0  501 -0.00000000000E+00  0.00000000000E+00  0.50254465479E+02  0.50270510248E+02  0.12700000000E+01 0.  1.
          4   -1    0    0  501    0  0.00000000000E+00 -0.00000000000E+00 -0.77694333370E+02  0.77704712455E+02  0.12700000000E+01 0.  1.
         25    2    1    2    0    0  0.00000000000E+00  0.00000000000E+00 -0.27439867891E+02  0.12797522270E+03  0.12499884510E+03 0.  0.
    9000005    1    3    3    0    0 -0.57558515610E+02 -0.21243878070E+02 -0.25872394156E+02  0.66593286854E+02  0.10000000000E+01 0.  0.
    9000005    1    3    3    0    0  0.57558515610E+02  0.21243878070E+02 -0.15674737350E+01  0.61381935849E+02  0.10000000000E+01 0.  0.
<mgrwt>
<rscale>  0 0.12499885E+03</rscale>
<asrwt>0</asrwt>
<pdfrwt beam="2">  1        4 0.11955007E-01 0.12499885E+03</pdfrwt>
<pdfrwt beam="1">  1       -4 0.77334888E-02 0.12499885E+03</pdfrwt>
<totfact> 0.10388294E+04</totfact>
</mgrwt>
</event>
<event>
 5    1  0.3206158E-002  0.1250130E+03  0.7818608E-02  0.1235049E+00
          4   -1    0    0  501    0  0.00000000000E+00  0.00000000000E+00  0.26139136543E+03  0.26139445064E+03  0.12700000000E+01 0.  1.
         -4   -1    0    0    0  501 -0.00000000000E+00 -0.00000000000E+00 -0.14917018029E+02  0.14970982830E+02  0.12700000000E+01 0.  1.
         25    2    1    2    0    0  0.00000000000E+00  0.00000000000E+00  0.24647434740E+03  0.27636543347E+03  0.12501299487E+03 0.  0.
    9000005    1    3    3    0    0  0.24828396771E+02  0.29785518664E+02  0.23159354675E+03  0.23481949941E+03  0.10000000000E+01 0.  0.
    9000005    1    3    3    0    0 -0.24828396771E+02 -0.29785518664E+02  0.14880800655E+02  0.41545934054E+02  0.10000000000E+01 0.  0.
<mgrwt>
<rscale>  0 0.12501299E+03</rscale>
<asrwt>0</asrwt>
<pdfrwt beam="1">  1        4 0.40218441E-01 0.12501299E+03</pdfrwt>
<pdfrwt beam="2">  1       -4 0.22993145E-02 0.12501299E+03</pdfrwt>
<totfact> 0.78639782E+03</totfact>
</mgrwt>
</event>
<event>
 5    1  0.3206158E-002  0.1249862E+03  0.7818608E-02  0.1235091E+00
         -4   -1    0    0    0  501 -0.00000000000E+00  0.00000000000E+00  0.17984525391E+03  0.17984973799E+03  0.12700000000E+01 0. -1.
          4   -1    0    0  501    0  0.00000000000E+00 -0.00000000000E+00 -0.21691928556E+02  0.21729074174E+02  0.12700000000E+01 0. -1.
         25    2    1    2    0    0  0.00000000000E+00  0.00000000000E+00  0.15815332536E+03  0.20157881217E+03  0.12498617200E+03 0.  0.
    9000005    1    3    3    0    0 -0.55191024047E+02  0.85286459886E+01  0.33871989149E+02  0.65323032590E+02  0.10000000000E+01 0.  0.
    9000005    1    3    3    0    0  0.55191024047E+02 -0.85286459886E+01  0.12428133621E+03  0.13625577958E+03  0.10000000000E+01 0.  0.
<mgrwt>
<rscale>  0 0.12498617E+03</rscale>
<asrwt>0</asrwt>
<pdfrwt beam="2">  1        4 0.33404220E-02 0.12498617E+03</pdfrwt>
<pdfrwt beam="1">  1       -4 0.27671703E-01 0.12498617E+03</pdfrwt>
<totfact> 0.89897718E+03</totfact>
</mgrwt>
</event>
<event>
 5    1  0.3206158E-002  0.1249953E+03  0.7818608E-02  0.1235077E+00
          4   -1    0    0  501    0  0.00000000000E+00  0.00000000000E+00  0.13515481732E+03  0.13516078405E+03  0.12700000000E+01 0. -1.
         -4   -1    0    0    0  501 -0.00000000000E+00 -0.00000000000E+00 -0.28879289070E+02  0.28907200439E+02  0.12700000000E+01 0. -1.
         25    2    1    2    0    0  0.00000000000E+00  0.00000000000E+00  0.10627552825E+03  0.16406798449E+03  0.12499526243E+03 0.  0.
    9000005    1    3    3    0    0 -0.21946773439E+02  0.42701909887E+02  0.10563888276E+03  0.11604174905E+03  0.10000000000E+01 0.  0.
    9000005    1    3    3    0    0  0.21946773439E+02 -0.42701909887E+02  0.63664548679E+00  0.48026235433E+02  0.10000000000E+01 0.  0.
<mgrwt>
<rscale>  0 0.12499526E+03</rscale>
<asrwt>0</asrwt>
<pdfrwt beam="1">  1        4 0.20795654E-01 0.12499526E+03</pdfrwt>
<pdfrwt beam="2">  1       -4 0.44455737E-02 0.12499526E+03</pdfrwt>
<totfact> 0.96574472E+03</totfact>
</mgrwt>
</event>
<event>
 5    1  0.3206158E-002  0.1249995E+03  0.7818608E-02  0.1235070E+00
          4   -1    0    0  501    0  0.00000000000E+00  0.00000000000E+00  0.64717683626E+02  0.64730143472E+02  0.12700000000E+01 0.  1.
         -4   -1    0    0    0  501 -0.00000000000E+00 -0.00000000000E+00 -0.60332898678E+02  0.60346263869E+02  0.12700000000E+01 0.  1.
         25    2    1    2    0    0  0.00000000000E+00  0.00000000000E+00  0.43847849477E+01  0.12507640734E+03  0.12499952534E+03 0.  0.
    9000005    1    3    3    0    0 -0.13758887861E+02  0.24079527936E+02 -0.53842851932E+02  0.60573784469E+02  0.10000000000E+01 0.  0.
    9000005    1    3    3    0    0  0.13758887861E+02 -0.24079527936E+02  0.58227636879E+02  0.64502622872E+02  0.10000000000E+01 0.  0.
<mgrwt>
<rscale>  0 0.12499953E+03</rscale>
<asrwt>0</asrwt>
<pdfrwt beam="1">  1        4 0.99585532E-02 0.12499953E+03</pdfrwt>
<pdfrwt beam="2">  1       -4 0.92839710E-02 0.12499953E+03</pdfrwt>
<totfact> 0.10451315E+04</totfact>
</mgrwt>
</event>
<event>
 5    1  0.3206158E-002  0.1250049E+03  0.7818608E-02  0.1235062E+00
          4   -1    0    0  501    0  0.00000000000E+00  0.00000000000E+00  0.37846408749E+03  0.37846621833E+03  0.12700000000E+01 0. -1.
         -4   -1    0    0    0  501 -0.00000000000E+00 -0.00000000000E+00 -0.10280899671E+02  0.10359044263E+02  0.12700000000E+01 0. -1.
         25    2    1    2    0    0  0.00000000000E+00  0.00000000000E+00  0.36818318781E+03  0.38882526259E+03  0.12500490007E+03 0.  0.
    9000005    1    3    3    0    0  0.56219673001E+02 -0.75814902210E+01  0.26564466086E+03  0.27163618402E+03  0.10000000000E+01 0.  0.
    9000005    1    3    3    0    0 -0.56219673001E+02  0.75814902210E+01  0.10253852695E+03  0.11718907857E+03  0.10000000000E+01 0.  0.
<mgrwt>
<rscale>  0 0.12500490E+03</rscale>
<asrwt>0</asrwt>
<pdfrwt beam="1">  1        4 0.58231425E-01 0.12500490E+03</pdfrwt>
<pdfrwt beam="2">  1       -4 0.15878518E-02 0.12500490E+03</pdfrwt>
<totfact> 0.65647226E+03</totfact>
</mgrwt>
</event>
<event>
 5    1  0.3206158E-002  0.1250006E+03  0.7818608E-02  0.1235068E+00
         -4   -1    0    0    0  501 -0.00000000000E+00  0.00000000000E+00  0.95288862066E+02  0.95297324904E+02  0.12700000000E+01 0.  1.
          4   -1    0    0  501    0  0.00000000000E+00 -0.00000000000E+00 -0.40974017579E+02  0.40993694839E+02  0.12700000000E+01 0.  1.
         25    2    1    2    0    0  0.00000000000E+00  0.00000000000E+00  0.54314844488E+02  0.13629101974E+03  0.12500055892E+03 0.  0.
    9000005    1    3    3    0    0  0.32934712781E+01  0.49943334571E+01 -0.40666423155E+02  0.41116277701E+02  0.10000000000E+01 0.  0.
    9000005    1    3    3    0    0 -0.32934712781E+01 -0.49943334571E+01  0.94981267643E+02  0.95174742042E+02  0.10000000000E+01 0.  0.
<mgrwt>
<rscale>  0 0.12500056E+03</rscale>
<asrwt>0</asrwt>
<pdfrwt beam="2">  1        4 0.63058597E-02 0.12500056E+03</pdfrwt>
<pdfrwt beam="1">  1       -4 0.14661989E-01 0.12500056E+03</pdfrwt>
<totfact> 0.10210802E+04</totfact>
</mgrwt>
</event>
<event>
 5    1  0.3206158E-002  0.1250031E+03  0.7818608E-02  0.1235065E+00
         -4   -1    0    0    0  501 -0.00000000000E+00  0.00000000000E+00  0.88677267384E+02  0.88686361132E+02  0.12700000000E+01 0. -1.
          4   -1    0    0  501    0  0.00000000000E+00 -0.00000000000E+00 -0.44031832333E+02  0.44050143684E+02  0.12700000000E+01 0. -1.
         25    2    1    2    0    0  0.00000000000E+00  0.00000000000E+00  0.44645435051E+02  0.13273650482E+03  0.12500305932E+03 0.  0.
    9000005    1    3    3    0    0  0.56517680049E+02  0.12385394965E+02  0.47401535371E+02  0.74803420524E+02  0.10000000000E+01 0.  0.
    9000005    1    3    3    0    0 -0.56517680049E+02 -0.12385394965E+02 -0.27561003191E+01  0.57933084292E+02  0.10000000000E+01 0.  0.
<mgrwt>
<rscale>  0 0.12500306E+03</rscale>
<asrwt>0</asrwt>
<pdfrwt beam="2">  1        4 0.67762361E-02 0.12500306E+03</pdfrwt>
<pdfrwt beam="1">  1       -4 0.13644765E-01 0.12500306E+03</pdfrwt>
<totfact> 0.10285293E+04</totfact>
</mgrwt>
</event>
<event>
 5    1  0.3206158E-002  0.1250465E+03  0.7818608E-02  0.1234997E+00
         -4   -1    0    0    0  501 -0.00000000000E+00  0.00000000000E+00  0.61034352040E+02  0.61047563661E+02  0.12700000000E+01 0. -1.
          4   -1    0    0  501    0  0.00000000000E+00 -0.00000000000E+00 -0.64022000396E+02  0.64034595608E+02  0.12700000000E+01 0. -1.
         25    2    1    2    0    0  0.00000000000E+00  0.00000000000E+00 -0.29876483560E+01  0.12508215927E+03  0.12504647346E+03 0.  0.
    9000005    1    3    3    0    0  0.20597604561E+01 -0.10792022865E+02 -0.63053606453E+02  0.64011465046E+02  0.10000000000E+01 0.  0.
    9000005    1    3    3    0    0 -0.20597604561E+01  0.10792022865E+02  0.60065958097E+02  0.61070694222E+02  0.10000000000E+01 0.  0.
<mgrwt>
<rscale>  0 0.12504647E+03</rscale>
<asrwt>0</asrwt>
<pdfrwt beam="2">  1        4 0.98515237E-02 0.12504647E+03</pdfrwt>
<pdfrwt beam="1">  1       -4 0.93918854E-02 0.12504647E+03</pdfrwt>
<totfact> 0.10440109E+04</totfact>
</mgrwt>
</event>
<event>
 5    1  0.3206158E-002  0.1249870E+03  0.7818608E-02  0.1235090E+00
         -4   -1    0    0    0  501 -0.00000000000E+00  0.00000000000E+00  0.86100121529E+01  0.87031723684E+01  0.12700000000E+01 0. -1.
          4   -1    0    0  501    0  0.00000000000E+00 -0.00000000000E+00 -0.45105810678E+03  0.45105989468E+03  0.12700000000E+01 0. -1.
         25    2    1    2    0    0  0.00000000000E+00  0.00000000000E+00 -0.44244809463E+03  0.45976306705E+03  0.12498704487E+03 0.  0.
    9000005    1    3    3    0    0  0.47980155125E+02  0.38382129260E+02 -0.17941902922E+03  0.18965091927E+03  0.10000000000E+01 0.  0.
    9000005    1    3    3    0    0 -0.47980155125E+02 -0.38382129260E+02 -0.26302906541E+03  0.27011214778E+03  0.10000000000E+01 0.  0.
<mgrwt>
<rscale>  0 0.12498704E+03</rscale>
<asrwt>0</asrwt>
<pdfrwt beam="2">  1        4 0.69400840E-01 0.12498704E+03</pdfrwt>
<pdfrwt beam="1">  1       -4 0.13319213E-02 0.12498704E+03</pdfrwt>
<totfact> 0.59144133E+03</totfact>
</mgrwt>
</event>
<event>
 5    1  0.3206158E-002  0.1250024E+03  0.7818608E-02  0.1235066E+00
          4   -1    0    0  501    0  0.00000000000E+00  0.00000000000E+00  0.69338716741E+01  0.70492181405E+01  0.12700000000E+01 0.  1.
         -4   -1    0    0    0  501 -0.00000000000E+00 -0.00000000000E+00 -0.55861564979E+03  0.55861709344E+03  0.12700000000E+01 0.  1.
         25    2    1    2    0    0  0.00000000000E+00  0.00000000000E+00 -0.55168177811E+03  0.56566631158E+03  0.12500236701E+03 0.  0.
    9000005    1    3    3    0    0 -0.49560505004E+02  0.30728512089E+02 -0.37752434088E+03  0.38200276578E+03  0.10000000000E+01 0.  0.
    9000005    1    3    3    0    0  0.49560505004E+02 -0.30728512089E+02 -0.17415743724E+03  0.18366354580E+03  0.10000000000E+01 0.  0.
<mgrwt>
<rscale>  0 0.12500237E+03</rscale>
<asrwt>0</asrwt>
<pdfrwt beam="1">  1        4 0.10757338E-02 0.12500237E+03</pdfrwt>
<pdfrwt beam="2">  1       -4 0.85949818E-01 0.12500237E+03</pdfrwt>
<totfact> 0.51106499E+03</totfact>
</mgrwt>
</event>
<event>
 5    1  0.3206158E-002  0.1250014E+03  0.7818608E-02  0.1235067E+00
         -4   -1    0    0    0  501 -0.00000000000E+00  0.00000000000E+00  0.34848572424E+02  0.34871706296E+02  0.12700000000E+01 0.  1.
          4   -1    0    0  501    0  0.00000000000E+00 -0.00000000000E+00 -0.11203069786E+03  0.11203789610E+03  0.12700000000E+01 0.  1.
         25    2    1    2    0    0  0.00000000000E+00  0.00000000000E+00 -0.77182125437E+02  0.14690960240E+03  0.12500140315E+03 0.  0.
    9000005    1    3    3    0    0  0.60490550711E+02 -0.11489882732E+02 -0.51151192959E+02  0.80053536285E+02  0.10000000000E+01 0.  0.
    9000005    1    3    3    0    0 -0.60490550711E+02  0.11489882732E+02 -0.26030932478E+02  0.66856066114E+02  0.10000000000E+01 0.  0.
<mgrwt>
<rscale>  0 0.12500140E+03</rscale>
<asrwt>0</asrwt>
<pdfrwt beam="2">  1        4 0.17237825E-01 0.12500140E+03</pdfrwt>
<pdfrwt beam="1">  1       -4 0.53636521E-02 0.12500140E+03</pdfrwt>
<totfact> 0.99920172E+03</totfact>
</mgrwt>
</event>
<event>
 5    1  0.3206158E-002  0.1249940E+03  0.7818608E-02  0.1235079E+00
          4   -1    0    0  501    0  0.00000000000E+00  0.00000000000E+00  0.70354756134E+02  0.70366217823E+02  0.12700000000E+01 0.  1.
         -4   -1    0    0    0  501 -0.00000000000E+00 -0.00000000000E+00 -0.55493588132E+02  0.55508118539E+02  0.12700000000E+01 0.  1.
         25    2    1    2    0    0  0.00000000000E+00  0.00000000000E+00  0.14861168002E+02  0.12587433636E+03  0.12499397682E+03 0.  0.
    9000005    1    3    3    0    0  0.17243013834E+02 -0.33678264890E+02 -0.42652242860E+02  0.57024213042E+02  0.10000000000E+01 0.  0.
    9000005    1    3    3    0    0 -0.17243013834E+02  0.33678264890E+02  0.57513410862E+02  0.68850123320E+02  0.10000000000E+01 0.  0.
<mgrwt>
<rscale>  0 0.12499398E+03</rscale>
<asrwt>0</asrwt>
<pdfrwt beam="1">  1        4 0.10825808E-01 0.12499398E+03</pdfrwt>
<pdfrwt beam="2">  1       -4 0.85394745E-02 0.12499398E+03</pdfrwt>
<totfact> 0.10435131E+04</totfact>
</mgrwt>
</event>
<event>
 5    1  0.3206158E-002  0.1249868E+03  0.7818608E-02  0.1235090E+00
         -4   -1    0    0    0  501 -0.00000000000E+00  0.00000000000E+00  0.70210029428E+02  0.70221514739E+02  0.12700000000E+01 0.  1.
          4   -1    0    0  501    0  0.00000000000E+00 -0.00000000000E+00 -0.55601639924E+02  0.55616142101E+02  0.12700000000E+01 0.  1.
         25    2    1    2    0    0  0.00000000000E+00  0.00000000000E+00  0.14608389504E+02  0.12583765684E+03  0.12498684265E+03 0.  0.
    9000005    1    3    3    0    0  0.29529338805E+02  0.55001793748E+02  0.10014833771E+02  0.63233504262E+02  0.10000000000E+01 0.  0.
    9000005    1    3    3    0    0 -0.29529338805E+02 -0.55001793748E+02  0.45935557326E+01  0.62604152578E+02  0.10000000000E+01 0.  0.
<mgrwt>
<rscale>  0 0.12498684E+03</rscale>
<asrwt>0</asrwt>
<pdfrwt beam="2">  1        4 0.85560975E-02 0.12498684E+03</pdfrwt>
<pdfrwt beam="1">  1       -4 0.10803542E-01 0.12498684E+03</pdfrwt>
<totfact> 0.10437617E+04</totfact>
</mgrwt>
</event>
<event>
 5    1  0.3206158E-002  0.1249953E+03  0.7818608E-02  0.1235077E+00
         -4   -1    0    0    0  501 -0.00000000000E+00  0.00000000000E+00  0.92612106231E+01  0.93478833008E+01  0.12700000000E+01 0.  1.
          4   -1    0    0  501    0  0.00000000000E+00 -0.00000000000E+00 -0.41970208247E+03  0.41970400395E+03  0.12700000000E+01 0.  1.
         25    2    1    2    0    0  0.00000000000E+00  0.00000000000E+00 -0.41044087185E+03  0.42905188725E+03  0.12499525059E+03 0.  0.
    9000005    1    3    3    0    0  0.27892935908E+02  0.48979274805E+02 -0.11260733416E+03  0.12593012721E+03  0.10000000000E+01 0.  0.
    9000005    1    3    3    0    0 -0.27892935908E+02 -0.48979274805E+02 -0.29783353769E+03  0.30312176004E+03  0.10000000000E+01 0.  0.
<mgrwt>
<rscale>  0 0.12499525E+03</rscale>
<asrwt>0</asrwt>
<pdfrwt beam="2">  1        4 0.64576351E-01 0.12499525E+03</pdfrwt>
<pdfrwt beam="1">  1       -4 0.14316169E-02 0.12499525E+03</pdfrwt>
<totfact> 0.61828507E+03</totfact>
</mgrwt>
</event>
<event>
 5    1  0.3206158E-002  0.1249997E+03  0.7818608E-02  0.1235070E+00
          4   -1    0    0  501    0  0.00000000000E+00  0.00000000000E+00  0.16359543630E+03  0.16360036576E+03  0.12700000000E+01 0. -1.
         -4   -1    0    0    0  501 -0.00000000000E+00 -0.00000000000E+00 -0.23855210256E+02  0.23888992368E+02  0.12700000000E+01 0. -1.
         25    2    1    2    0    0  0.00000000000E+00  0.00000000000E+00  0.13974022604E+03  0.18748935813E+03  0.12499971455E+03 0.  0.
    9000005    1    3    3    0    0  0.32675926844E+02 -0.47466763945E+02  0.10613037896E+03  0.12077030766E+03  0.10000000000E+01 0.  0.
    9000005    1    3    3    0    0 -0.32675926844E+02  0.47466763945E+02  0.33609847080E+02  0.66719050468E+02  0.10000000000E+01 0.  0.
<mgrwt>
<rscale>  0 0.12499971E+03</rscale>
<asrwt>0</asrwt>
<pdfrwt beam="1">  1        4 0.25171506E-01 0.12499971E+03</pdfrwt>
<pdfrwt beam="2">  1       -4 0.36730102E-02 0.12499971E+03</pdfrwt>
<totfact> 0.92286592E+03</totfact>
</mgrwt>
</event>
<event>
 5    1  0.3206158E-002  0.1249909E+03  0.7818608E-02  0.1235083E+00
         -4   -1    0    0    0  501 -0.00000000000E+00  0.00000000000E+00  0.12803865605E+03  0.12804495438E+03  0.12700000000E+01 0.  1.
          4   -1    0    0  501    0  0.00000000000E+00 -0.00000000000E+00 -0.30483657373E+02  0.30510101062E+02  0.12700000000E+01 0.  1.
         25    2    1    2    0    0  0.00000000000E+00  0.00000000000E+00  0.97554998673E+02  0.15855505544E+03  0.12499091103E+03 0.  0.
    9000005    1    3    3    0    0  0.39581915568E+02 -0.48300199391E+02  0.51626664070E+02  0.81030548216E+02  0.10000000000E+01 0.  0.
    9000005    1    3    3    0    0 -0.39581915568E+02  0.48300199391E+02  0.45928334604E+02  0.77524507226E+02  0.10000000000E+01 0.  0.
<mgrwt>
<rscale>  0 0.12499091E+03</rscale>
<asrwt>0</asrwt>
<pdfrwt beam="2">  1        4 0.46923121E-02 0.12499091E+03</pdfrwt>
<pdfrwt beam="1">  1       -4 0.19700773E-01 0.12499091E+03</pdfrwt>
<totfact> 0.97642034E+03</totfact>
</mgrwt>
</event>
<event>
 5    1  0.3206158E-002  0.1249991E+03  0.7818608E-02  0.1235071E+00
          4   -1    0    0  501    0  0.00000000000E+00  0.00000000000E+00  0.55215433561E+01  0.56657162860E+01  0.12700000000E+01 0. -1.
         -4   -1    0    0    0  501 -0.00000000000E+00 -0.00000000000E+00 -0.69818402379E+03  0.69818517886E+03  0.12700000000E+01 0. -1.
         25    2    1    2    0    0  0.00000000000E+00  0.00000000000E+00 -0.69266248043E+03  0.70385089514E+03  0.12499908317E+03 0.  0.
    9000005    1    3    3    0    0  0.60090777777E+02  0.16735077732E+02 -0.32509144572E+03  0.33102328087E+03  0.10000000000E+01 0.  0.
    9000005    1    3    3    0    0 -0.60090777777E+02 -0.16735077732E+02 -0.36757103472E+03  0.37282761427E+03  0.10000000000E+01 0.  0.
<mgrwt>
<rscale>  0 0.12499908E+03</rscale>
<asrwt>0</asrwt>
<pdfrwt beam="1">  1        4 0.86064784E-03 0.12499908E+03</pdfrwt>
<pdfrwt beam="2">  1       -4 0.10742404E+00 0.12499908E+03</pdfrwt>
<totfact> 0.42885071E+03</totfact>
</mgrwt>
</event>
<event>
 5    1  0.3206158E-002  0.1249946E+03  0.7818608E-02  0.1235078E+00
          4   -1    0    0  501    0  0.00000000000E+00  0.00000000000E+00  0.20503814693E+03  0.20504208006E+03  0.12700000000E+01 0. -1.
         -4   -1    0    0    0  501 -0.00000000000E+00 -0.00000000000E+00 -0.19024407677E+02  0.19066750836E+02  0.12700000000E+01 0. -1.
         25    2    1    2    0    0  0.00000000000E+00  0.00000000000E+00  0.18601373925E+03  0.22410883090E+03  0.12499462747E+03 0.  0.
    9000005    1    3    3    0    0 -0.19081415942E+02 -0.33563353850E+02  0.18110457483E+03  0.18517685110E+03  0.10000000000E+01 0.  0.
    9000005    1    3    3    0    0  0.19081415942E+02  0.33563353850E+02  0.49091644178E+01  0.38931979802E+02  0.10000000000E+01 0.  0.
<mgrwt>
<rscale>  0 0.12499463E+03</rscale>
<asrwt>0</asrwt>
<pdfrwt beam="1">  1        4 0.31547889E-01 0.12499463E+03</pdfrwt>
<pdfrwt beam="2">  1       -4 0.29303917E-02 0.12499463E+03</pdfrwt>
<totfact> 0.86232672E+03</totfact>
</mgrwt>
</event>
<event>
 5    1  0.3206158E-002  0.1249999E+03  0.7818608E-02  0.1235069E+00
         -4   -1    0    0    0  501 -0.00000000000E+00  0.00000000000E+00  0.10661433800E+04  0.10661441364E+04  0.12700000000E+01 0. -1.
          4   -1    0    0  501    0  0.00000000000E+00 -0.00000000000E+00 -0.35530651004E+01  0.37732176730E+01  0.12700000000E+01 0. -1.
         25    2    1    2    0    0  0.00000000000E+00  0.00000000000E+00  0.10625903149E+04  0.10699173541E+04  0.12499986906E+03 0.  0.
    9000005    1    3    3    0    0 -0.25288919251E+02  0.43156557209E+02  0.85192516697E+03  0.85339293880E+03  0.10000000000E+01 0.  0.
    9000005    1    3    3    0    0  0.25288919251E+02 -0.43156557209E+02  0.21066514791E+03  0.21652441527E+03  0.10000000000E+01 0.  0.
<mgrwt>
<rscale>  0 0.12499987E+03</rscale>
<asrwt>0</asrwt>
<pdfrwt beam="2">  1        4 0.56361829E-03 0.12499987E+03</pdfrwt>
<pdfrwt beam="1">  1       -4 0.16403908E+00 0.12499987E+03</pdfrwt>
<totfact> 0.28381008E+03</totfact>
</mgrwt>
</event>
<event>
 5    1  0.3206158E-002  0.1249983E+03  0.7818608E-02  0.1235072E+00
         -4   -1    0    0    0  501 -0.00000000000E+00  0.00000000000E+00  0.10949142725E+02  0.11022550813E+02  0.12700000000E+01 0.  1.
          4   -1    0    0  501    0  0.00000000000E+00 -0.00000000000E+00 -0.35548703715E+03  0.35548930573E+03  0.12700000000E+01 0.  1.
         25    2    1    2    0    0  0.00000000000E+00  0.00000000000E+00 -0.34453789443E+03  0.36651185654E+03  0.12499832113E+03 0.  0.
    9000005    1    3    3    0    0  0.18006919395E+02  0.37945772662E+02 -0.36595884593E+02  0.55717049260E+02  0.10000000000E+01 0.  0.
    9000005    1    3    3    0    0 -0.18006919395E+02 -0.37945772662E+02 -0.30794200984E+03  0.31079480728E+03  0.10000000000E+01 0.  0.
<mgrwt>
<rscale>  0 0.12499832E+03</rscale>
<asrwt>0</asrwt>
<pdfrwt beam="2">  1        4 0.54696126E-01 0.12499832E+03</pdfrwt>
<pdfrwt beam="1">  1       -4 0.16903050E-02 0.12499832E+03</pdfrwt>
<totfact> 0.67947974E+03</totfact>
</mgrwt>
</event>
<event>
 5    1  0.3206158E-002  0.1250002E+03  0.7818608E-02  0.1235069E+00
         -4   -1    0    0    0  501 -0.00000000000E+00  0.00000000000E+00  0.19692227212E+02  0.19733137423E+02  0.12700000000E+01 0.  1.
          4   -1    0    0  501    0  0.00000000000E+00 -0.00000000000E+00 -0.19811698055E+03  0.19812105108E+03  0.12700000000E+01 0.  1.
         25    2    1    2    0    0  0.00000000000E+00  0.00000000000E+00 -0.17842475334E+03  0.21785418850E+03  0.12500021938E+03 0.  0.
    9000005    1    3    3    0    0  0.56812899022E+00  0.46710646472E+02 -0.16155677207E+03  0.16817787567E+03  0.10000000000E+01 0.  0.
    9000005    1    3    3    0    0 -0.56812899022E+00 -0.46710646472E+02 -0.16867981264E+02  0.49676312829E+02  0.10000000000E+01 0.  0.
<mgrwt>
<rscale>  0 0.12500022E+03</rscale>
<asrwt>0</asrwt>
<pdfrwt beam="2">  1        4 0.30482994E-01 0.12500022E+03</pdfrwt>
<pdfrwt beam="1">  1       -4 0.30330336E-02 0.12500022E+03</pdfrwt>
<totfact> 0.87208612E+03</totfact>
</mgrwt>
</event>
<event>
 5    1  0.3206158E-002  0.1250005E+03  0.7818608E-02  0.1235068E+00
          4   -1    0    0  501    0  0.00000000000E+00  0.00000000000E+00  0.19072145420E+03  0.19072568257E+03  0.12700000000E+01 0.  1.
         -4   -1    0    0    0  501 -0.00000000000E+00 -0.00000000000E+00 -0.20457461782E+02  0.20496844697E+02  0.12700000000E+01 0.  1.
         25    2    1    2    0    0  0.00000000000E+00  0.00000000000E+00  0.17026399242E+03  0.21122252727E+03  0.12500051565E+03 0.  0.
    9000005    1    3    3    0    0 -0.47635536593E+02  0.37401208639E+02  0.59102495576E+02  0.84629189631E+02  0.10000000000E+01 0.  0.
    9000005    1    3    3    0    0  0.47635536593E+02 -0.37401208639E+02  0.11116149684E+03  0.12659333764E+03  0.10000000000E+01 0.  0.
<mgrwt>
<rscale>  0 0.12500052E+03</rscale>
<asrwt>0</asrwt>
<pdfrwt beam="1">  1        4 0.29345118E-01 0.12500052E+03</pdfrwt>
<pdfrwt beam="2">  1       -4 0.31506564E-02 0.12500052E+03</pdfrwt>
<totfact> 0.88275596E+03</totfact>
</mgrwt>
</event>
<event>
 5    1  0.3206158E-002  0.1250014E+03  0.7818608E-02  0.1235067E+00
          4   -1    0    0  501    0  0.00000000000E+00  0.00000000000E+00  0.17203598561E+03  0.17204067323E+03  0.12700000000E+01 0.  1.
         -4   -1    0    0    0  501 -0.00000000000E+00 -0.00000000000E+00 -0.22683745062E+02  0.22719269135E+02  0.12700000000E+01 0.  1.
         25    2    1    2    0    0  0.00000000000E+00  0.00000000000E+00  0.14935224055E+03  0.19475994237E+03  0.12500137356E+03 0.  0.
    9000005    1    3    3    0    0  0.15230583986E+02  0.34545346400E+02  0.15226675583E+03  0.15688058063E+03  0.10000000000E+01 0.  0.
    9000005    1    3    3    0    0 -0.15230583986E+02 -0.34545346400E+02 -0.29145152795E+01  0.37879361739E+02  0.10000000000E+01 0.  0.
<mgrwt>
<rscale>  0 0.12500137E+03</rscale>
<asrwt>0</asrwt>
<pdfrwt beam="1">  1        4 0.26470168E-01 0.12500137E+03</pdfrwt>
<pdfrwt beam="2">  1       -4 0.34929001E-02 0.12500137E+03</pdfrwt>
<totfact> 0.91022833E+03</totfact>
</mgrwt>
</event>
<event>
 5    1  0.3206158E-002  0.1249975E+03  0.7818608E-02  0.1235073E+00
          4   -1    0    0  501    0  0.00000000000E+00  0.00000000000E+00  0.20634244739E+03  0.20634635566E+03  0.12700000000E+01 0. -1.
         -4   -1    0    0    0  501 -0.00000000000E+00 -0.00000000000E+00 -0.18904745920E+02  0.18947356499E+02  0.12700000000E+01 0. -1.
         25    2    1    2    0    0  0.00000000000E+00  0.00000000000E+00  0.18743770147E+03  0.22529371216E+03  0.12499745920E+03 0.  0.
    9000005    1    3    3    0    0 -0.41551514784E+01 -0.27988338069E+02  0.19414394277E+03  0.19619756080E+03  0.10000000000E+01 0.  0.
    9000005    1    3    3    0    0  0.41551514784E+01  0.27988338069E+02 -0.67062412942E+01  0.29096151360E+02  0.10000000000E+01 0.  0.
<mgrwt>
<rscale>  0 0.12499746E+03</rscale>
<asrwt>0</asrwt>
<pdfrwt beam="1">  1        4 0.31748571E-01 0.12499746E+03</pdfrwt>
<pdfrwt beam="2">  1       -4 0.29120007E-02 0.12499746E+03</pdfrwt>
<totfact> 0.86042408E+03</totfact>
</mgrwt>
</event>
<event>
 5    1  0.3206158E-002  0.1250024E+03  0.7818608E-02  0.1235066E+00
         -4   -1    0    0    0  501 -0.00000000000E+00  0.00000000000E+00  0.47984071451E+02  0.48000875128E+02  0.12700000000E+01 0. -1.
          4   -1    0    0  501    0  0.00000000000E+00 -0.00000000000E+00 -0.81374332643E+02  0.81384242413E+02  0.12700000000E+01 0. -1.
         25    2    1    2    0    0  0.00000000000E+00  0.00000000000E+00 -0.33390261192E+02  0.12938511754E+03  0.12500239637E+03 0.  0.
    9000005    1    3    3    0    0  0.12941759635E+02  0.51302212917E+02 -0.51117621142E+02  0.73575929378E+02  0.10000000000E+01 0.  0.
    9000005    1    3    3    0    0 -0.12941759635E+02 -0.51302212917E+02  0.17727359949E+02  0.55809188163E+02  0.10000000000E+01 0.  0.
<mgrwt>
<rscale>  0 0.12500240E+03</rscale>
<asrwt>0</asrwt>
<pdfrwt beam="2">  1        4 0.12521183E-01 0.12500240E+03</pdfrwt>
<pdfrwt beam="1">  1       -4 0.73842197E-02 0.12500240E+03</pdfrwt>
<totfact> 0.10357118E+04</totfact>
</mgrwt>
</event>
<event>
 5    1  0.3206158E-002  0.1249998E+03  0.7818608E-02  0.1235070E+00
         -4   -1    0    0    0  501 -0.00000000000E+00  0.00000000000E+00  0.42755806593E+02  0.42774664200E+02  0.12700000000E+01 0. -1.
          4   -1    0    0  501    0  0.00000000000E+00 -0.00000000000E+00 -0.91318119907E+02  0.91326950696E+02  0.12700000000E+01 0. -1.
         25    2    1    2    0    0  0.00000000000E+00  0.00000000000E+00 -0.48562313314E+02  0.13410161490E+03  0.12499977937E+03 0.  0.
    9000005    1    3    3    0    0 -0.43432344188E+02 -0.44872103058E+02 -0.26765378892E+02  0.67950420615E+02  0.10000000000E+01 0.  0.
    9000005    1    3    3    0    0  0.43432344188E+02  0.44872103058E+02 -0.21796934422E+02  0.66151194281E+02  0.10000000000E+01 0.  0.
<mgrwt>
<rscale>  0 0.12499978E+03</rscale>
<asrwt>0</asrwt>
<pdfrwt beam="2">  1        4 0.14051071E-01 0.12499978E+03</pdfrwt>
<pdfrwt beam="1">  1       -4 0.65799463E-02 0.12499978E+03</pdfrwt>
<totfact> 0.10257092E+04</totfact>
</mgrwt>
</event>
<event>
 5    1  0.3206158E-002  0.1249996E+03  0.7818608E-02  0.1235070E+00
          4   -1    0    0  501    0  0.00000000000E+00  0.00000000000E+00  0.18961173356E+03  0.18961598668E+03  0.12700000000E+01 0. -1.
         -4   -1    0    0    0  501 -0.00000000000E+00 -0.00000000000E+00 -0.20577109431E+02  0.20616263787E+02  0.12700000000E+01 0. -1.
         25    2    1    2    0    0  0.00000000000E+00  0.00000000000E+00  0.16903462413E+03  0.21023225046E+03  0.12499957992E+03 0.  0.
    9000005    1    3    3    0    0  0.21273273621E+02 -0.41749540767E+02  0.14975810567E+02  0.49202146568E+02  0.10000000000E+01 0.  0.
    9000005    1    3    3    0    0 -0.21273273621E+02  0.41749540767E+02  0.15405881356E+03  0.16103010390E+03  0.10000000000E+01 0.  0.
<mgrwt>
<rscale>  0 0.12499958E+03</rscale>
<asrwt>0</asrwt>
<pdfrwt beam="1">  1        4 0.29174375E-01 0.12499958E+03</pdfrwt>
<pdfrwt beam="2">  1       -4 0.31690481E-02 0.12499958E+03</pdfrwt>
<totfact> 0.88438795E+03</totfact>
</mgrwt>
</event>
<event>
 5    1  0.3206158E-002  0.1249997E+03  0.7818608E-02  0.1235070E+00
         -4   -1    0    0    0  501 -0.00000000000E+00  0.00000000000E+00  0.23159127812E+01  0.26412784802E+01  0.12700000000E+01 0. -1.
          4   -1    0    0  501    0  0.00000000000E+00 -0.00000000000E+00 -0.15756605015E+04  0.15756610133E+04  0.12700000000E+01 0. -1.
         25    2    1    2    0    0  0.00000000000E+00  0.00000000000E+00 -0.15733445887E+04  0.15783022918E+04  0.12499971776E+03 0.  0.
    9000005    1    3    3    0    0 -0.67925615725E+01  0.28216539564E+02 -0.87878551981E+02  0.92552427823E+02  0.10000000000E+01 0.  0.
    9000005    1    3    3    0    0  0.67925615725E+01 -0.28216539564E+02 -0.14854660367E+04  0.14857498639E+04  0.10000000000E+01 0.  0.
<mgrwt>
<rscale>  0 0.12499972E+03</rscale>
<asrwt>0</asrwt>
<pdfrwt beam="2">  1        4 0.24243358E+00 0.12499972E+03</pdfrwt>
<pdfrwt beam="1">  1       -4 0.38136303E-03 0.12499972E+03</pdfrwt>
<totfact> 0.16441724E+03</totfact>
</mgrwt>
</event>
<event>
 5    1  0.3206158E-002  0.1249948E+03  0.7818608E-02  0.1235077E+00
          4   -1    0    0  501    0  0.00000000000E+00  0.00000000000E+00  0.34017322026E+03  0.34017559096E+03  0.12700000000E+01 0.  1.
         -4   -1    0    0    0  501 -0.00000000000E+00 -0.00000000000E+00 -0.11444631789E+02  0.11514881535E+02  0.12700000000E+01 0.  1.
         25    2    1    2    0    0  0.00000000000E+00  0.00000000000E+00  0.32872858847E+03  0.35169047249E+03  0.12499481414E+03 0.  0.
    9000005    1    3    3    0    0 -0.51245995476E+02  0.35269067684E+02  0.18097828824E+03  0.19137450197E+03  0.10000000000E+01 0.  0.
    9000005    1    3    3    0    0  0.51245995476E+02 -0.35269067684E+02  0.14775030023E+03  0.16031597053E+03  0.10000000000E+01 0.  0.
<mgrwt>
<rscale>  0 0.12499481E+03</rscale>
<asrwt>0</asrwt>
<pdfrwt beam="1">  1        4 0.52339925E-01 0.12499481E+03</pdfrwt>
<pdfrwt beam="2">  1       -4 0.17662989E-02 0.12499481E+03</pdfrwt>
<totfact> 0.69546963E+03</totfact>
</mgrwt>
</event>
<event>
 5    1  0.3206158E-002  0.1250003E+03  0.7818608E-02  0.1235069E+00
         -4   -1    0    0    0  501 -0.00000000000E+00  0.00000000000E+00  0.46710303816E+03  0.46710476465E+03  0.12700000000E+01 0.  1.
          4   -1    0    0  501    0  0.00000000000E+00 -0.00000000000E+00 -0.83127809043E+01  0.84092345884E+01  0.12700000000E+01 0.  1.
         25    2    1    2    0    0  0.00000000000E+00  0.00000000000E+00  0.45879025726E+03  0.47551399924E+03  0.12500025327E+03 0.  0.
    9000005    1    3    3    0    0 -0.13738912176E+02 -0.60961279778E+02  0.23122145412E+03  0.23951909358E+03  0.10000000000E+01 0.  0.
    9000005    1    3    3    0    0  0.13738912176E+02  0.60961279778E+02  0.22756880314E+03  0.23599490567E+03  0.10000000000E+01 0.  0.
<mgrwt>
<rscale>  0 0.12500025E+03</rscale>
<asrwt>0</asrwt>
<pdfrwt beam="2">  1        4 0.12864416E-02 0.12500025E+03</pdfrwt>
<pdfrwt beam="1">  1       -4 0.71869566E-01 0.12500025E+03</pdfrwt>
<totfact> 0.57815193E+03</totfact>
</mgrwt>
</event>
<event>
 5    1  0.3206158E-002  0.1250024E+03  0.7818608E-02  0.1235066E+00
          4   -1    0    0  501    0  0.00000000000E+00  0.00000000000E+00  0.39265632012E+03  0.39265837394E+03  0.12700000000E+01 0. -1.
         -4   -1    0    0    0  501 -0.00000000000E+00 -0.00000000000E+00 -0.99060328813E+01  0.99871110661E+01  0.12700000000E+01 0. -1.
         25    2    1    2    0    0  0.00000000000E+00  0.00000000000E+00  0.38275028724E+03  0.40264548501E+03  0.12500241685E+03 0.  0.
    9000005    1    3    3    0    0 -0.31541002158E+02 -0.14756153715E+02  0.24224420271E+02  0.42431137471E+02  0.10000000000E+01 0.  0.
    9000005    1    3    3    0    0  0.31541002158E+02  0.14756153715E+02  0.35852586697E+03  0.36021434754E+03  0.10000000000E+01 0.  0.
<mgrwt>
<rscale>  0 0.12500242E+03</rscale>
<asrwt>0</asrwt>
<pdfrwt beam="1">  1        4 0.60415055E-01 0.12500242E+03</pdfrwt>
<pdfrwt beam="2">  1       -4 0.15303999E-02 0.12500242E+03</pdfrwt>
<totfact> 0.64292874E+03</totfact>
</mgrwt>
</event>
<event>
 5    1  0.3206158E-002  0.1250030E+03  0.7818608E-02  0.1235065E+00
          4   -1    0    0  501    0  0.00000000000E+00  0.00000000000E+00  0.29441925320E+03  0.29442199231E+03  0.12700000000E+01 0. -1.
         -4   -1    0    0    0  501 -0.00000000000E+00 -0.00000000000E+00 -0.13235092641E+02  0.13295885725E+02  0.12700000000E+01 0. -1.
         25    2    1    2    0    0  0.00000000000E+00  0.00000000000E+00  0.28118416056E+03  0.30771787803E+03  0.12500304121E+03 0.  0.
    9000005    1    3    3    0    0  0.29856610759E+02  0.49543876887E+02  0.82367828831E+02  0.10065521432E+03  0.10000000000E+01 0.  0.
    9000005    1    3    3    0    0 -0.29856610759E+02 -0.49543876887E+02  0.19881633173E+03  0.20706266372E+03  0.10000000000E+01 0.  0.
<mgrwt>
<rscale>  0 0.12500304E+03</rscale>
<asrwt>0</asrwt>
<pdfrwt beam="1">  1        4 0.45300156E-01 0.12500304E+03</pdfrwt>
<pdfrwt beam="2">  1       -4 0.20410552E-02 0.12500304E+03</pdfrwt>
<totfact> 0.74635772E+03</totfact>
</mgrwt>
</event>
<event>
 5    1  0.3206158E-002  0.1249999E+03  0.7818608E-02  0.1235069E+00
         -4   -1    0    0    0  501 -0.00000000000E+00  0.00000000000E+00  0.11417177920E+02  0.11487595556E+02  0.12700000000E+01 0. -1.
          4   -1    0    0  501    0  0.00000000000E+00 -0.00000000000E+00 -0.34101375033E+03  0.34101611518E+03  0.12700000000E+01 0. -1.
         25    2    1    2    0    0  0.00000000000E+00  0.00000000000E+00 -0.32959657241E+03  0.35250371073E+03  0.12499986216E+03 0.  0.
    9000005    1    3    3    0    0  0.11018609318E+02  0.76087774530E+01  0.73378216866E+01  0.15301858474E+02  0.10000000000E+01 0.  0.
    9000005    1    3    3    0    0 -0.11018609318E+02 -0.76087774530E+01 -0.33693439409E+03  0.33720185226E+03  0.10000000000E+01 0.  0.
<mgrwt>
<rscale>  0 0.12499986E+03</rscale>
<asrwt>0</asrwt>
<pdfrwt beam="2">  1        4 0.52469245E-01 0.12499986E+03</pdfrwt>
<pdfrwt beam="1">  1       -4 0.17620878E-02 0.12499986E+03</pdfrwt>
<totfact> 0.69450208E+03</totfact>
</mgrwt>
</event>
<event>
 5    1  0.3206158E-002  0.1249967E+03  0.7818608E-02  0.1235074E+00
         -4   -1    0    0    0  501 -0.00000000000E+00  0.00000000000E+00  0.55713587967E+02  0.55728061012E+02  0.12700000000E+01 0. -1.
          4   -1    0    0  501    0  0.00000000000E+00 -0.00000000000E+00 -0.70079996974E+02  0.70091503593E+02  0.12700000000E+01 0. -1.
         25    2    1    2    0    0  0.00000000000E+00  0.00000000000E+00 -0.14366409007E+02  0.12581956461E+03  0.12499667647E+03 0.  0.
    9000005    1    3    3    0    0  0.41500459489E+02  0.14654493656E+01  0.39821180370E+02  0.57542697936E+02  0.10000000000E+01 0.  0.
    9000005    1    3    3    0    0 -0.41500459489E+02 -0.14654493656E+01 -0.54187589377E+02  0.68276866669E+02  0.10000000000E+01 0.  0.
<mgrwt>
<rscale>  0 0.12499668E+03</rscale>
<asrwt>0</asrwt>
<pdfrwt beam="2">  1        4 0.10783536E-01 0.12499668E+03</pdfrwt>
<pdfrwt beam="1">  1       -4 0.85733197E-02 0.12499668E+03</pdfrwt>
<totfact> 0.10435698E+04</totfact>
</mgrwt>
</event>
<event>
 5    1  0.3206158E-002  0.1250005E+03  0.7818608E-02  0.1235068E+00
         -4   -1    0    0    0  501 -0.00000000000E+00  0.00000000000E+00  0.12602057007E+03  0.12602696926E+03  0.12700000000E+01 0. -1.
          4   -1    0    0  501    0  0.00000000000E+00 -0.00000000000E+00 -0.30976991028E+02  0.31003013936E+02  0.12700000000E+01 0. -1.
         25    2    1    2    0    0  0.00000000000E+00  0.00000000000E+00  0.95043579041E+02  0.15702998319E+03  0.12500053482E+03 0.  0.
    9000005    1    3    3    0    0 -0.61442833252E+02 -0.34375690849E+01  0.61182135994E+02  0.86783019100E+02  0.10000000000E+01 0.  0.
    9000005    1    3    3    0    0  0.61442833252E+02  0.34375690849E+01  0.33861443047E+02  0.70246964095E+02  0.10000000000E+01 0.  0.
<mgrwt>
<rscale>  0 0.12500053E+03</rscale>
<asrwt>0</asrwt>
<pdfrwt beam="2">  1        4 0.47681849E-02 0.12500053E+03</pdfrwt>
<pdfrwt beam="1">  1       -4 0.19390274E-01 0.12500053E+03</pdfrwt>
<totfact> 0.97917278E+03</totfact>
</mgrwt>
</event>
<event>
 5    1  0.3206158E-002  0.1249984E+03  0.7818608E-02  0.1235072E+00
         -4   -1    0    0    0  501 -0.00000000000E+00  0.00000000000E+00  0.27326034629E+02  0.27355530859E+02  0.12700000000E+01 0.  1.
          4   -1    0    0  501    0  0.00000000000E+00 -0.00000000000E+00 -0.14283677429E+03  0.14284242014E+03  0.12700000000E+01 0.  1.
         25    2    1    2    0    0  0.00000000000E+00  0.00000000000E+00 -0.11551073967E+03  0.17019795100E+03  0.12499844617E+03 0.  0.
    9000005    1    3    3    0    0  0.14386179754E+02 -0.15609416839E+01 -0.14053076281E+03  0.14127736550E+03  0.10000000000E+01 0.  0.
    9000005    1    3    3    0    0 -0.14386179754E+02  0.15609416839E+01  0.25020023149E+02  0.28920585492E+02  0.10000000000E+01 0.  0.
<mgrwt>
<rscale>  0 0.12499845E+03</rscale>
<asrwt>0</asrwt>
<pdfrwt beam="2">  1        4 0.21977591E-01 0.12499845E+03</pdfrwt>
<pdfrwt beam="1">  1       -4 0.42067086E-02 0.12499845E+03</pdfrwt>
<totfact> 0.95415082E+03</totfact>
</mgrwt>
</event>
<event>
 5    1  0.3206158E-002  0.1249987E+03  0.7818608E-02  0.1235071E+00
         -4   -1    0    0    0  501 -0.00000000000E+00  0.00000000000E+00  0.23851279982E+03  0.23851618096E+03  0.12700000000E+01 0. -1.
          4   -1    0    0  501    0  0.00000000000E+00 -0.00000000000E+00 -0.16349055922E+02  0.16398308741E+02  0.12700000000E+01 0. -1.
         25    2    1    2    0    0  0.00000000000E+00  0.00000000000E+00  0.22216374390E+03  0.25491448970E+03  0.12499867181E+03 0.  0.
    9000005    1    3    3    0    0 -0.43059481035E+02  0.33536026069E+02  0.49011489576E+02  0.73361502588E+02  0.10000000000E+01 0.  0.
    9000005    1    3    3    0    0  0.43059481035E+02 -0.33536026069E+02  0.17315225433E+03  0.18155298711E+03  0.10000000000E+01 0.  0.
<mgrwt>
<rscale>  0 0.12499867E+03</rscale>
<asrwt>0</asrwt>
<pdfrwt beam="2">  1        4 0.25192884E-02 0.12499867E+03</pdfrwt>
<pdfrwt beam="1">  1       -4 0.36698322E-01 0.12499867E+03</pdfrwt>
<totfact> 0.81627496E+03</totfact>
</mgrwt>
</event>
<event>
 5    1  0.3206158E-002  0.1250008E+03  0.7818608E-02  0.1235068E+00
          4   -1    0    0  501    0  0.00000000000E+00  0.00000000000E+00  0.33489772181E+02  0.33513844016E+02  0.12700000000E+01 0.  1.
         -4   -1    0    0    0  501 -0.00000000000E+00 -0.00000000000E+00 -0.11657214091E+03  0.11657905874E+03  0.12700000000E+01 0.  1.
         25    2    1    2    0    0  0.00000000000E+00  0.00000000000E+00 -0.83082368730E+02  0.15009290276E+03  0.12500079785E+03 0.  0.
    9000005    1    3    3    0    0 -0.45259038154E+02 -0.96626903085E+01 -0.91965669857E+02  0.10295840204E+03  0.10000000000E+01 0.  0.
    9000005    1    3    3    0    0  0.45259038154E+02  0.96626903085E+01  0.88833011274E+01  0.47134500714E+02  0.10000000000E+01 0.  0.
<mgrwt>
<rscale>  0 0.12500080E+03</rscale>
<asrwt>0</asrwt>
<pdfrwt beam="1">  1        4 0.51546565E-02 0.12500080E+03</pdfrwt>
<pdfrwt beam="2">  1       -4 0.17936559E-01 0.12500080E+03</pdfrwt>
<totfact> 0.99283400E+03</totfact>
</mgrwt>
</event>
<event>
 5    1  0.3206158E-002  0.1249998E+03  0.7818608E-02  0.1235070E+00
         -4   -1    0    0    0  501 -0.00000000000E+00  0.00000000000E+00  0.93006119461E+01  0.93869208248E+01  0.12700000000E+01 0. -1.
          4   -1    0    0  501    0  0.00000000000E+00 -0.00000000000E+00 -0.41797061989E+03  0.41797254933E+03  0.12700000000E+01 0. -1.
         25    2    1    2    0    0  0.00000000000E+00  0.00000000000E+00 -0.40867000794E+03  0.42735947015E+03  0.12499976534E+03 0.  0.
    9000005    1    3    3    0    0  0.31526961470E+02  0.52680757229E+02 -0.16446083274E+03  0.17554935770E+03  0.10000000000E+01 0.  0.
    9000005    1    3    3    0    0 -0.31526961470E+02 -0.52680757229E+02 -0.24420917520E+03  0.25181011245E+03  0.10000000000E+01 0.  0.
<mgrwt>
<rscale>  0 0.12499977E+03</rscale>
<asrwt>0</asrwt>
<pdfrwt beam="2">  1        4 0.64309945E-01 0.12499977E+03</pdfrwt>
<pdfrwt beam="1">  1       -4 0.14376513E-02 0.12499977E+03</pdfrwt>
<totfact> 0.61976398E+03</totfact>
</mgrwt>
</event>
<event>
 4    1  0.3206158E-002  0.1235396E+03  0.7818608E-02  0.1237369E+00
         -4   -1    0    0    0  501 -0.00000000000E+00  0.00000000000E+00  0.33791810079E+02  0.33815666908E+02  0.12700000000E+01 0.  1.
          4   -1    0    0  501    0  0.00000000000E+00 -0.00000000000E+00 -0.11284490779E+03  0.11285205410E+03  0.12700000000E+01 0.  1.
    9000005    1    1    2    0    0  0.27401103188E+02 -0.44485856613E+02 -0.78627044767E+02  0.94408813483E+02  0.10000000000E+01 0.  0.
    9000005    1    1    2    0    0 -0.27401103188E+02  0.44485856613E+02 -0.42605294517E+00  0.52258907524E+02  0.10000000000E+01 0.  0.
<mgrwt>
<rscale>  0 0.12353958E+03</rscale>
<asrwt>0</asrwt>
<pdfrwt beam="2">  1        4 0.17363140E-01 0.12353958E+03</pdfrwt>
<pdfrwt beam="1">  1       -4 0.52011249E-02 0.12353958E+03</pdfrwt>
<totfact> 0.10333147E+04</totfact>
</mgrwt>
</event>
<event>
 5    1  0.3206158E-002  0.1250015E+03  0.7818608E-02  0.1235067E+00
         -4   -1    0    0    0  501 -0.00000000000E+00  0.00000000000E+00  0.14529735914E+03  0.14530290938E+03  0.12700000000E+01 0.  1.
          4   -1    0    0  501    0  0.00000000000E+00 -0.00000000000E+00 -0.26864092991E+02  0.26894095862E+02  0.12700000000E+01 0.  1.
         25    2    1    2    0    0  0.00000000000E+00  0.00000000000E+00  0.11843326615E+03  0.17219700524E+03  0.12500148032E+03 0.  0.
    9000005    1    3    3    0    0 -0.39271371608E+01 -0.54064398469E+02  0.16380042051E+02  0.56636449091E+02  0.10000000000E+01 0.  0.
    9000005    1    3    3    0    0  0.39271371608E+01  0.54064398469E+02  0.10205322410E+03  0.11556055615E+03  0.10000000000E+01 0.  0.
<mgrwt>
<rscale>  0 0.12500148E+03</rscale>
<asrwt>0</asrwt>
<pdfrwt beam="2">  1        4 0.41356722E-02 0.12500148E+03</pdfrwt>
<pdfrwt beam="1">  1       -4 0.22356175E-01 0.12500148E+03</pdfrwt>
<totfact> 0.95037566E+03</totfact>
</mgrwt>
</event>
<event>
 5    1  0.3206158E-002  0.1250027E+03  0.7818608E-02  0.1235065E+00
         -4   -1    0    0    0  501 -0.00000000000E+00  0.00000000000E+00  0.88761735117E+02  0.88770820212E+02  0.12700000000E+01 0.  1.
          4   -1    0    0  501    0  0.00000000000E+00 -0.00000000000E+00 -0.43989633315E+02  0.44007962225E+02  0.12700000000E+01 0.  1.
         25    2    1    2    0    0  0.00000000000E+00  0.00000000000E+00  0.44772101802E+02  0.13277878244E+03  0.12500265583E+03 0.  0.
    9000005    1    3    3    0    0 -0.54376084084E+02 -0.30736964204E+02  0.20289299573E+02  0.65682380940E+02  0.10000000000E+01 0.  0.
    9000005    1    3    3    0    0  0.54376084084E+02  0.30736964204E+02  0.24482802229E+02  0.67096401497E+02  0.10000000000E+01 0.  0.
<mgrwt>
<rscale>  0 0.12500266E+03</rscale>
<asrwt>0</asrwt>
<pdfrwt beam="2">  1        4 0.67697447E-02 0.12500266E+03</pdfrwt>
<pdfrwt beam="1">  1       -4 0.13657760E-01 0.12500266E+03</pdfrwt>
<totfact> 0.10284488E+04</totfact>
</mgrwt>
</event>
<event>
 5    1  0.3206158E-002  0.1250065E+03  0.7818608E-02  0.1235059E+00
         -4   -1    0    0    0  501 -0.00000000000E+00  0.00000000000E+00  0.26877781215E+02  0.26907768823E+02  0.12700000000E+01 0. -1.
          4   -1    0    0  501    0  0.00000000000E+00 -0.00000000000E+00 -0.14523507653E+03  0.14524062915E+03  0.12700000000E+01 0. -1.
         25    2    1    2    0    0  0.00000000000E+00  0.00000000000E+00 -0.11835729532E+03  0.17214839797E+03  0.12500648611E+03 0.  0.
    9000005    1    3    3    0    0 -0.12843894951E+02 -0.18947489639E+02 -0.13926100450E+03  0.14113327168E+03  0.10000000000E+01 0.  0.
    9000005    1    3    3    0    0  0.12843894951E+02  0.18947489639E+02  0.20903709183E+02  0.31015126289E+02  0.10000000000E+01 0.  0.
<mgrwt>
<rscale>  0 0.12500649E+03</rscale>
<asrwt>0</asrwt>
<pdfrwt beam="2">  1        4 0.22346591E-01 0.12500649E+03</pdfrwt>
<pdfrwt beam="1">  1       -4 0.41377772E-02 0.12500649E+03</pdfrwt>
<totfact> 0.95035882E+03</totfact>
</mgrwt>
</event>
<event>
 5    1  0.3206158E-002  0.1249951E+03  0.7818608E-02  0.1235077E+00
          4   -1    0    0  501    0  0.00000000000E+00  0.00000000000E+00  0.29020788144E+03  0.29021066030E+03  0.12700000000E+01 0. -1.
         -4   -1    0    0    0  501 -0.00000000000E+00 -0.00000000000E+00 -0.13426319024E+02  0.13486250129E+02  0.12700000000E+01 0. -1.
         25    2    1    2    0    0  0.00000000000E+00  0.00000000000E+00  0.27678156242E+03  0.30369691043E+03  0.12499512034E+03 0.  0.
    9000005    1    3    3    0    0 -0.17013803803E+02  0.49998923975E+02  0.57238958314E+02  0.77888768557E+02  0.10000000000E+01 0.  0.
    9000005    1    3    3    0    0  0.17013803803E+02 -0.49998923975E+02  0.21954260411E+03  0.22580814187E+03  0.10000000000E+01 0.  0.
<mgrwt>
<rscale>  0 0.12499512E+03</rscale>
<asrwt>0</asrwt>
<pdfrwt beam="1">  1        4 0.44652192E-01 0.12499512E+03</pdfrwt>
<pdfrwt beam="2">  1       -4 0.20704113E-02 0.12499512E+03</pdfrwt>
<totfact> 0.75145568E+03</totfact>
</mgrwt>
</event>
<event>
 5    1  0.3206158E-002  0.1250042E+03  0.7818608E-02  0.1235063E+00
          4   -1    0    0  501    0  0.00000000000E+00  0.00000000000E+00  0.61137939050E+03  0.61138070957E+03  0.12700000000E+01 0.  1.
         -4   -1    0    0    0  501 -0.00000000000E+00 -0.00000000000E+00 -0.63252208662E+01  0.64514586727E+01  0.12700000000E+01 0.  1.
         25    2    1    2    0    0  0.00000000000E+00  0.00000000000E+00  0.60505416964E+03  0.61783216824E+03  0.12500415960E+03 0.  0.
    9000005    1    3    3    0    0  0.28912385457E+00 -0.58742573357E+02  0.19713064494E+03  0.20569945234E+03  0.10000000000E+01 0.  0.
    9000005    1    3    3    0    0 -0.28912385457E+00  0.58742573357E+02  0.40792352470E+03  0.41213271590E+03  0.10000000000E+01 0.  0.
<mgrwt>
<rscale>  0 0.12500416E+03</rscale>
<asrwt>0</asrwt>
<pdfrwt beam="1">  1        4 0.94068172E-01 0.12500416E+03</pdfrwt>
<pdfrwt beam="2">  1       -4 0.98292305E-03 0.12500416E+03</pdfrwt>
<totfact> 0.47756646E+03</totfact>
</mgrwt>
</event>
<event>
 5    1  0.3206158E-002  0.1249781E+03  0.7818608E-02  0.1235103E+00
         -4   -1    0    0    0  501 -0.00000000000E+00  0.00000000000E+00  0.31100808572E+02  0.31126727965E+02  0.12700000000E+01 0.  1.
          4   -1    0    0  501    0  0.00000000000E+00 -0.00000000000E+00 -0.12547427876E+03  0.12548070581E+03  0.12700000000E+01 0.  1.
         25    2    1    2    0    0  0.00000000000E+00  0.00000000000E+00 -0.94373470193E+02  0.15660743378E+03  0.12497814384E+03 0.  0.
    9000005    1    3    3    0    0 -0.31166211665E-01 -0.38722131689E+02  0.14258591403E+02  0.41276044901E+02  0.10000000000E+01 0.  0.
    9000005    1    3    3    0    0  0.31166211665E-01  0.38722131689E+02 -0.10863206160E+03  0.11533138888E+03  0.10000000000E+01 0.  0.
<mgrwt>
<rscale>  0 0.12497814E+03</rscale>
<asrwt>0</asrwt>
<pdfrwt beam="2">  1        4 0.19306223E-01 0.12497814E+03</pdfrwt>
<pdfrwt beam="1">  1       -4 0.47872280E-02 0.12497814E+03</pdfrwt>
<totfact> 0.98049039E+03</totfact>
</mgrwt>
</event>
<event>
 5    1  0.3206158E-002  0.1250013E+03  0.7818608E-02  0.1235067E+00
          4   -1    0    0  501    0  0.00000000000E+00  0.00000000000E+00  0.10446701594E+03  0.10447473531E+03  0.12700000000E+01 0. -1.
         -4   -1    0    0    0  501 -0.00000000000E+00 -0.00000000000E+00 -0.37373056531E+02  0.37394628685E+02  0.12700000000E+01 0. -1.
         25    2    1    2    0    0  0.00000000000E+00  0.00000000000E+00  0.67093959407E+02  0.14186936400E+03  0.12500126820E+03 0.  0.
    9000005    1    3    3    0    0 -0.21321515204E+01 -0.21171509410E+02  0.10023444566E+03  0.10247303537E+03  0.10000000000E+01 0.  0.
    9000005    1    3    3    0    0  0.21321515204E+01  0.21171509410E+02 -0.33140486251E+02  0.39396328633E+02  0.10000000000E+01 0.  0.
<mgrwt>
<rscale>  0 0.12500127E+03</rscale>
<asrwt>0</asrwt>
<pdfrwt beam="1">  1        4 0.16074102E-01 0.12500127E+03</pdfrwt>
<pdfrwt beam="2">  1       -4 0.57519542E-02 0.12500127E+03</pdfrwt>
<totfact> 0.10094700E+04</totfact>
</mgrwt>
</event>
<event>
 5    1  0.3206158E-002  0.1250046E+03  0.7818608E-02  0.1235062E+00
          4   -1    0    0  501    0  0.00000000000E+00  0.00000000000E+00  0.17545259820E+02  0.17591163752E+02  0.12700000000E+01 0. -1.
         -4   -1    0    0    0  501 -0.00000000000E+00 -0.00000000000E+00 -0.22231618115E+03  0.22231980861E+03  0.12700000000E+01 0. -1.
         25    2    1    2    0    0  0.00000000000E+00  0.00000000000E+00 -0.20477092133E+03  0.23991097236E+03  0.12500457767E+03 0.  0.
    9000005    1    3    3    0    0  0.47831514718E+02  0.10675802222E+02 -0.17680828949E+03  0.18347751303E+03  0.10000000000E+01 0.  0.
    9000005    1    3    3    0    0 -0.47831514718E+02 -0.10675802222E+02 -0.27962631836E+02  0.56433459335E+02  0.10000000000E+01 0.  0.
<mgrwt>
<rscale>  0 0.12500458E+03</rscale>
<asrwt>0</asrwt>
<pdfrwt beam="1">  1        4 0.27030810E-02 0.12500458E+03</pdfrwt>
<pdfrwt beam="2">  1       -4 0.34206298E-01 0.12500458E+03</pdfrwt>
<totfact> 0.83802077E+03</totfact>
</mgrwt>
</event>
<event>
 5    1  0.3206158E-002  0.1249990E+03  0.7818608E-02  0.1235071E+00
          4   -1    0    0  501    0  0.00000000000E+00  0.00000000000E+00  0.14057234233E+03  0.14057807912E+03  0.12700000000E+01 0. -1.
         -4   -1    0    0    0  501 -0.00000000000E+00 -0.00000000000E+00 -0.27766920150E+02  0.27795948529E+02  0.12700000000E+01 0. -1.
         25    2    1    2    0    0  0.00000000000E+00  0.00000000000E+00  0.11280542218E+03  0.16837402765E+03  0.12499899965E+03 0.  0.
    9000005    1    3    3    0    0 -0.70221823375E+01 -0.57345971012E+02  0.24319258672E+02  0.62692087048E+02  0.10000000000E+01 0.  0.
    9000005    1    3    3    0    0  0.70221823375E+01  0.57345971012E+02  0.88486163510E+02  0.10568194060E+03  0.10000000000E+01 0.  0.
<mgrwt>
<rscale>  0 0.12499900E+03</rscale>
<asrwt>0</asrwt>
<pdfrwt beam="1">  1        4 0.21629188E-01 0.12499900E+03</pdfrwt>
<pdfrwt beam="2">  1       -4 0.42745081E-02 0.12499900E+03</pdfrwt>
<totfact> 0.95754344E+03</totfact>
</mgrwt>
</event>
<event>
 5    1  0.3206158E-002  0.1249956E+03  0.7818608E-02  0.1235076E+00
          4   -1    0    0  501    0  0.00000000000E+00  0.00000000000E+00  0.14396768664E+04  0.14396774266E+04  0.12700000000E+01 0.  1.
         -4   -1    0    0    0  501 -0.00000000000E+00 -0.00000000000E+00 -0.25638790142E+01  0.28611843002E+01  0.12700000000E+01 0.  1.
         25    2    1    2    0    0  0.00000000000E+00  0.00000000000E+00  0.14371129874E+04  0.14425386109E+04  0.12499562117E+03 0.  0.
    9000005    1    3    3    0    0  0.55620524261E+02 -0.19436821662E+02  0.47825912067E+03  0.48187573010E+03  0.10000000000E+01 0.  0.
    9000005    1    3    3    0    0 -0.55620524261E+02  0.19436821662E+02  0.95885386676E+03  0.96066288081E+03  0.10000000000E+01 0.  0.
<mgrwt>
<rscale>  0 0.12499562E+03</rscale>
<asrwt>0</asrwt>
<pdfrwt beam="1">  1        4 0.22151238E+00 0.12499562E+03</pdfrwt>
<pdfrwt beam="2">  1       -4 0.41735430E-03 0.12499562E+03</pdfrwt>
<totfact> 0.19087807E+03</totfact>
</mgrwt>
</event>
<event>
 5    1  0.3206158E-002  0.1250018E+03  0.7818608E-02  0.1235066E+00
         -4   -1    0    0    0  501 -0.00000000000E+00  0.00000000000E+00  0.15262644617E+03  0.15263172989E+03  0.12700000000E+01 0. -1.
          4   -1    0    0  501    0  0.00000000000E+00 -0.00000000000E+00 -0.25572801872E+02  0.25604317909E+02  0.12700000000E+01 0. -1.
         25    2    1    2    0    0  0.00000000000E+00  0.00000000000E+00  0.12705364429E+03  0.17823604780E+03  0.12500184081E+03 0.  0.
    9000005    1    3    3    0    0 -0.23348280523E+02 -0.45531671373E+02  0.11468128761E+03  0.12558293288E+03  0.10000000000E+01 0.  0.
    9000005    1    3    3    0    0  0.23348280523E+02  0.45531671373E+02  0.12372356683E+02  0.52653114924E+02  0.10000000000E+01 0.  0.
<mgrwt>
<rscale>  0 0.12500184E+03</rscale>
<asrwt>0</asrwt>
<pdfrwt beam="2">  1        4 0.39371080E-02 0.12500184E+03</pdfrwt>
<pdfrwt beam="1">  1       -4 0.23483822E-01 0.12500184E+03</pdfrwt>
<totfact> 0.93931609E+03</totfact>
</mgrwt>
</event>
<event>
 5    1  0.3206158E-002  0.1249995E+03  0.7818608E-02  0.1235070E+00
          4   -1    0    0  501    0  0.00000000000E+00  0.00000000000E+00  0.52541116216E+02  0.52556462907E+02  0.12700000000E+01 0.  1.
         -4   -1    0    0    0  501 -0.00000000000E+00 -0.00000000000E+00 -0.74314364860E+02  0.74325215941E+02  0.12700000000E+01 0.  1.
         25    2    1    2    0    0  0.00000000000E+00  0.00000000000E+00 -0.21773248644E+02  0.12688167885E+03  0.12499954428E+03 0.  0.
    9000005    1    3    3    0    0 -0.78153334132E+01 -0.34948592780E+02 -0.62870413946E+02  0.72361402165E+02  0.10000000000E+01 0.  0.
    9000005    1    3    3    0    0  0.78153334132E+01  0.34948592780E+02  0.41097165301E+02  0.54520276682E+02  0.10000000000E+01 0.  0.
<mgrwt>
<rscale>  0 0.12499954E+03</rscale>
<asrwt>0</asrwt>
<pdfrwt beam="1">  1        4 0.80852639E-02 0.12499954E+03</pdfrwt>
<pdfrwt beam="2">  1       -4 0.11434994E-01 0.12499954E+03</pdfrwt>
<totfact> 0.10411824E+04</totfact>
</mgrwt>
</event>
<event>
 5    1  0.3206158E-002  0.1249996E+03  0.7818608E-02  0.1235070E+00
         -4   -1    0    0    0  501 -0.00000000000E+00  0.00000000000E+00  0.41974341029E+02  0.41993549562E+02  0.12700000000E+01 0.  1.
          4   -1    0    0  501    0  0.00000000000E+00 -0.00000000000E+00 -0.93017321959E+02  0.93025991445E+02  0.12700000000E+01 0.  1.
         25    2    1    2    0    0  0.00000000000E+00  0.00000000000E+00 -0.51042980930E+02  0.13501954101E+03  0.12499956221E+03 0.  0.
    9000005    1    3    3    0    0  0.15701377374E+02  0.95869378339E+01  0.38988398932E+02  0.43122359395E+02  0.10000000000E+01 0.  0.
    9000005    1    3    3    0    0 -0.15701377374E+02 -0.95869378339E+01 -0.90031379862E+02  0.91897181612E+02  0.10000000000E+01 0.  0.
<mgrwt>
<rscale>  0 0.12499956E+03</rscale>
<asrwt>0</asrwt>
<pdfrwt beam="2">  1        4 0.14312502E-01 0.12499956E+03</pdfrwt>
<pdfrwt beam="1">  1       -4 0.64597354E-02 0.12499956E+03</pdfrwt>
<totfact> 0.10237760E+04</totfact>
</mgrwt>
</event>
<event>
 5    1  0.3206158E-002  0.1250004E+03  0.7818608E-02  0.1235069E+00
          4   -1    0    0  501    0  0.00000000000E+00  0.00000000000E+00  0.72052421512E+02  0.72063613189E+02  0.12700000000E+01 0.  1.
         -4   -1    0    0    0  501 -0.00000000000E+00 -0.00000000000E+00 -0.54191481193E+02  0.54206360640E+02  0.12700000000E+01 0.  1.
         25    2    1    2    0    0  0.00000000000E+00  0.00000000000E+00  0.17860940320E+02  0.12626997383E+03  0.12500037241E+03 0.  0.
    9000005    1    3    3    0    0  0.11060428832E+02  0.21632668848E+02  0.67091011819E+02  0.71361819724E+02  0.10000000000E+01 0.  0.
    9000005    1    3    3    0    0 -0.11060428832E+02 -0.21632668848E+02 -0.49230071499E+02  0.54908154105E+02  0.10000000000E+01 0.  0.
<mgrwt>
<rscale>  0 0.12500037E+03</rscale>
<asrwt>0</asrwt>
<pdfrwt beam="1">  1        4 0.11086993E-01 0.12500037E+03</pdfrwt>
<pdfrwt beam="2">  1       -4 0.83391564E-02 0.12500037E+03</pdfrwt>
<totfact> 0.10424962E+04</totfact>
</mgrwt>
</event>
<event>
 5    1  0.3206158E-002  0.1249995E+03  0.7818608E-02  0.1235070E+00
         -4   -1    0    0    0  501 -0.00000000000E+00  0.00000000000E+00  0.26185765954E+02  0.26216545131E+02  0.12700000000E+01 0. -1.
          4   -1    0    0  501    0  0.00000000000E+00 -0.00000000000E+00 -0.14905226425E+03  0.14905767467E+03  0.12700000000E+01 0. -1.
         25    2    1    2    0    0  0.00000000000E+00  0.00000000000E+00 -0.12286649830E+03  0.17527421980E+03  0.12499950289E+03 0.  0.
    9000005    1    3    3    0    0 -0.98006910534E+01 -0.60857994169E+02 -0.75833633666E+02  0.97731719490E+02  0.10000000000E+01 0.  0.
    9000005    1    3    3    0    0  0.98006910534E+01  0.60857994169E+02 -0.47032864630E+02  0.77542500312E+02  0.10000000000E+01 0.  0.
<mgrwt>
<rscale>  0 0.12499950E+03</rscale>
<asrwt>0</asrwt>
<pdfrwt beam="2">  1        4 0.22933901E-01 0.12499950E+03</pdfrwt>
<pdfrwt beam="1">  1       -4 0.40313633E-02 0.12499950E+03</pdfrwt>
<totfact> 0.94475696E+03</totfact>
</mgrwt>
</event>
<event>
 5    1  0.3206158E-002  0.1249927E+03  0.7818608E-02  0.1235081E+00
         -4   -1    0    0    0  501 -0.00000000000E+00  0.00000000000E+00  0.19296984674E+03  0.19297402584E+03  0.12700000000E+01 0. -1.
          4   -1    0    0  501    0  0.00000000000E+00 -0.00000000000E+00 -0.20216107317E+02  0.20255959494E+02  0.12700000000E+01 0. -1.
         25    2    1    2    0    0  0.00000000000E+00  0.00000000000E+00  0.17275373942E+03  0.21322998534E+03  0.12499268844E+03 0.  0.
    9000005    1    3    3    0    0 -0.20333271163E+02 -0.30723090020E+02  0.27434346787E+00  0.36856823533E+02  0.10000000000E+01 0.  0.
    9000005    1    3    3    0    0  0.20333271163E+02  0.30723090020E+02  0.17247939595E+03  0.17637316181E+03  0.10000000000E+01 0.  0.
<mgrwt>
<rscale>  0 0.12499269E+03</rscale>
<asrwt>0</asrwt>
<pdfrwt beam="2">  1        4 0.31135573E-02 0.12499269E+03</pdfrwt>
<pdfrwt beam="1">  1       -4 0.29691057E-01 0.12499269E+03</pdfrwt>
<totfact> 0.87965456E+03</totfact>
</mgrwt>
</event>
<event>
 5    1  0.3206158E-002  0.1250017E+03  0.7818608E-02  0.1235067E+00
          4   -1    0    0  501    0  0.00000000000E+00  0.00000000000E+00  0.92528754438E+01  0.93396254731E+01  0.12700000000E+01 0.  1.
         -4   -1    0    0    0  501 -0.00000000000E+00 -0.00000000000E+00 -0.42011972095E+03  0.42012164052E+03  0.12700000000E+01 0.  1.
         25    2    1    2    0    0  0.00000000000E+00  0.00000000000E+00 -0.41086684551E+03  0.42946126599E+03  0.12500165699E+03 0.  0.
    9000005    1    3    3    0    0 -0.23046711127E+02 -0.22694485906E+02 -0.21725584831E+02  0.38976808752E+02  0.10000000000E+01 0.  0.
    9000005    1    3    3    0    0  0.23046711127E+02  0.22694485906E+02 -0.38914126068E+03  0.39048445724E+03  0.10000000000E+01 0.  0.
<mgrwt>
<rscale>  0 0.12500166E+03</rscale>
<asrwt>0</asrwt>
<pdfrwt beam="1">  1        4 0.14303404E-02 0.12500166E+03</pdfrwt>
<pdfrwt beam="2">  1       -4 0.64640609E-01 0.12500166E+03</pdfrwt>
<totfact> 0.61782604E+03</totfact>
</mgrwt>
</event>
<event>
 5    1  0.3206158E-002  0.1250023E+03  0.7818608E-02  0.1235066E+00
         -4   -1    0    0    0  501 -0.00000000000E+00  0.00000000000E+00  0.23281871447E+02  0.23316484256E+02  0.12700000000E+01 0.  1.
          4   -1    0    0  501    0  0.00000000000E+00 -0.00000000000E+00 -0.16762516484E+03  0.16762997580E+03  0.12700000000E+01 0.  1.
         25    2    1    2    0    0  0.00000000000E+00  0.00000000000E+00 -0.14434329340E+03  0.19094646006E+03  0.12500225703E+03 0.  0.
    9000005    1    3    3    0    0 -0.57660829976E+02 -0.30518264019E+01 -0.35660271557E+02  0.67872969033E+02  0.10000000000E+01 0.  0.
    9000005    1    3    3    0    0  0.57660829976E+02  0.30518264019E+01 -0.10868302184E+03  0.12307349103E+03  0.10000000000E+01 0.  0.
<mgrwt>
<rscale>  0 0.12500226E+03</rscale>
<asrwt>0</asrwt>
<pdfrwt beam="2">  1        4 0.25791519E-01 0.12500226E+03</pdfrwt>
<pdfrwt beam="1">  1       -4 0.35848591E-02 0.12500226E+03</pdfrwt>
<totfact> 0.91678260E+03</totfact>
</mgrwt>
</event>
<event>
 5    1  0.3206158E-002  0.1249921E+03  0.7818608E-02  0.1235082E+00
          4   -1    0    0  501    0  0.00000000000E+00  0.00000000000E+00  0.74830854655E+01  0.75900901236E+01  0.12700000000E+01 0.  1.
         -4   -1    0    0    0  501 -0.00000000000E+00 -0.00000000000E+00 -0.51813133928E+03  0.51813289573E+03  0.12700000000E+01 0.  1.
         25    2    1    2    0    0  0.00000000000E+00  0.00000000000E+00 -0.51064825381E+03  0.52572298586E+03  0.12499207470E+03 0.  0.
    9000005    1    3    3    0    0 -0.28763234843E+02 -0.45697351752E+01 -0.22788159603E+02  0.36993328808E+02  0.10000000000E+01 0.  0.
    9000005    1    3    3    0    0  0.28763234843E+02  0.45697351752E+01 -0.48786009421E+03  0.48872965705E+03  0.10000000000E+01 0.  0.
<mgrwt>
<rscale>  0 0.12499207E+03</rscale>
<asrwt>0</asrwt>
<pdfrwt beam="1">  1        4 0.11595952E-02 0.12499207E+03</pdfrwt>
<pdfrwt beam="2">  1       -4 0.79720837E-01 0.12499207E+03</pdfrwt>
<totfact> 0.53931792E+03</totfact>
</mgrwt>
</event>
<event>
 5    1  0.3206158E-002  0.1250329E+03  0.7818608E-02  0.1235018E+00
          4   -1    0    0  501    0  0.00000000000E+00  0.00000000000E+00  0.36022307375E+02  0.36044687939E+02  0.12700000000E+01 0. -1.
         -4   -1    0    0    0  501 -0.00000000000E+00 -0.00000000000E+00 -0.10843703848E+03  0.10844447525E+03  0.12700000000E+01 0. -1.
         25    2    1    2    0    0  0.00000000000E+00  0.00000000000E+00 -0.72414731100E+02  0.14448916319E+03  0.12503289567E+03 0.  0.
    9000005    1    3    3    0    0  0.93706724925E+01 -0.29350413876E+02  0.26643858253E+02  0.40744956501E+02  0.10000000000E+01 0.  0.
    9000005    1    3    3    0    0 -0.93706724925E+01  0.29350413876E+02 -0.99058589353E+02  0.10374420669E+03  0.10000000000E+01 0.  0.
<mgrwt>
<rscale>  0 0.12503290E+03</rscale>
<asrwt>0</asrwt>
<pdfrwt beam="1">  1        4 0.55441871E-02 0.12503290E+03</pdfrwt>
<pdfrwt beam="2">  1       -4 0.16684915E-01 0.12503290E+03</pdfrwt>
<totfact> 0.10033943E+04</totfact>
</mgrwt>
</event>
<event>
 5    1  0.3206158E-002  0.1250144E+03  0.7818608E-02  0.1235047E+00
         -4   -1    0    0    0  501 -0.00000000000E+00  0.00000000000E+00  0.13644982152E+03  0.13645573162E+03  0.12700000000E+01 0. -1.
          4   -1    0    0  501    0  0.00000000000E+00 -0.00000000000E+00 -0.28613724992E+02  0.28641895152E+02  0.12700000000E+01 0. -1.
         25    2    1    2    0    0  0.00000000000E+00  0.00000000000E+00  0.10783609652E+03  0.16509762677E+03  0.12501440978E+03 0.  0.
    9000005    1    3    3    0    0 -0.48845399144E+02 -0.24792395448E+02  0.14175793324E+02  0.56590538131E+02  0.10000000000E+01 0.  0.
    9000005    1    3    3    0    0  0.48845399144E+02  0.24792395448E+02  0.93660303201E+02  0.10850708864E+03  0.10000000000E+01 0.  0.
<mgrwt>
<rscale>  0 0.12501441E+03</rscale>
<asrwt>0</asrwt>
<pdfrwt beam="2">  1        4 0.44047331E-02 0.12501441E+03</pdfrwt>
<pdfrwt beam="1">  1       -4 0.20994902E-01 0.12501441E+03</pdfrwt>
<totfact> 0.96337717E+03</totfact>
</mgrwt>
</event>
<event>
 5    1  0.3206158E-002  0.1250054E+03  0.7818608E-02  0.1235061E+00
          4   -1    0    0  501    0  0.00000000000E+00  0.00000000000E+00  0.27580215514E+03  0.27580507914E+03  0.12700000000E+01 0.  1.
         -4   -1    0    0    0  501 -0.00000000000E+00 -0.00000000000E+00 -0.14132982092E+02  0.14189928922E+02  0.12700000000E+01 0.  1.
         25    2    1    2    0    0  0.00000000000E+00  0.00000000000E+00  0.26166917304E+03  0.28999500806E+03  0.12500539419E+03 0.  0.
    9000005    1    3    3    0    0  0.54349676219E+02 -0.26384941796E+02  0.93750575843E+02  0.11153574732E+03  0.10000000000E+01 0.  0.
    9000005    1    3    3    0    0 -0.54349676219E+02  0.26384941796E+02  0.16791859720E+03  0.17845926074E+03  0.10000000000E+01 0.  0.
<mgrwt>
<rscale>  0 0.12500539E+03</rscale>
<asrwt>0</asrwt>
<pdfrwt beam="1">  1        4 0.42435702E-01 0.12500539E+03</pdfrwt>
<pdfrwt beam="2">  1       -4 0.21789106E-02 0.12500539E+03</pdfrwt>
<totfact> 0.76862025E+03</totfact>
</mgrwt>
</event>
<event>
 5    1  0.3206158E-002  0.1250042E+03  0.7818608E-02  0.1235063E+00
          4   -1    0    0  501    0  0.00000000000E+00  0.00000000000E+00  0.57721072840E+02  0.57735042650E+02  0.12700000000E+01 0.  1.
         -4   -1    0    0    0  501 -0.00000000000E+00 -0.00000000000E+00 -0.67651037031E+02  0.67662956714E+02  0.12700000000E+01 0.  1.
         25    2    1    2    0    0  0.00000000000E+00  0.00000000000E+00 -0.99299641911E+01  0.12539799936E+03  0.12500421615E+03 0.  0.
    9000005    1    3    3    0    0 -0.44672184085E+02  0.11672856602E+02  0.37282456735E+02  0.59353527211E+02  0.10000000000E+01 0.  0.
    9000005    1    3    3    0    0  0.44672184085E+02 -0.11672856602E+02 -0.47212420926E+02  0.66044472153E+02  0.10000000000E+01 0.  0.
<mgrwt>
<rscale>  0 0.12500422E+03</rscale>
<asrwt>0</asrwt>
<pdfrwt beam="1">  1        4 0.88821566E-02 0.12500422E+03</pdfrwt>
<pdfrwt beam="2">  1       -4 0.10409843E-01 0.12500422E+03</pdfrwt>
<totfact> 0.10443218E+04</totfact>
</mgrwt>
</event>
<event>
 5    1  0.3206158E-002  0.1250008E+03  0.7818608E-02  0.1235068E+00
         -4   -1    0    0    0  501 -0.00000000000E+00  0.00000000000E+00  0.74032531728E+02  0.74043424111E+02  0.12700000000E+01 0. -1.
          4   -1    0    0  501    0  0.00000000000E+00 -0.00000000000E+00 -0.52742195433E+02  0.52757483631E+02  0.12700000000E+01 0. -1.
         25    2    1    2    0    0  0.00000000000E+00  0.00000000000E+00  0.21290336295E+02  0.12680090774E+03  0.12500076714E+03 0.  0.
    9000005    1    3    3    0    0 -0.17401020694E+02  0.43319880019E+02 -0.31496943499E+02  0.56324639154E+02  0.10000000000E+01 0.  0.
    9000005    1    3    3    0    0  0.17401020694E+02 -0.43319880019E+02  0.52787279794E+02  0.70476268588E+02  0.10000000000E+01 0.  0.
<mgrwt>
<rscale>  0 0.12500077E+03</rscale>
<asrwt>0</asrwt>
<pdfrwt beam="2">  1        4 0.81161978E-02 0.12500077E+03</pdfrwt>
<pdfrwt beam="1">  1       -4 0.11391634E-01 0.12500077E+03</pdfrwt>
<totfact> 0.10413294E+04</totfact>
</mgrwt>
</event>
<event>
 5    1  0.3206158E-002  0.1250001E+03  0.7818608E-02  0.1235069E+00
          4   -1    0    0  501    0  0.00000000000E+00  0.00000000000E+00  0.11055843733E+03  0.11056573142E+03  0.12700000000E+01 0. -1.
         -4   -1    0    0    0  501 -0.00000000000E+00 -0.00000000000E+00 -0.35312175916E+02  0.35335006267E+02  0.12700000000E+01 0. -1.
         25    2    1    2    0    0  0.00000000000E+00  0.00000000000E+00  0.75246261415E+02  0.14590073769E+03  0.12500010161E+03 0.  0.
    9000005    1    3    3    0    0  0.33571860442E+02  0.22500739643E+02 -0.18011093749E+02  0.44257797009E+02  0.10000000000E+01 0.  0.
    9000005    1    3    3    0    0 -0.33571860442E+02 -0.22500739643E+02  0.93257355164E+02  0.10164294068E+03  0.10000000000E+01 0.  0.
<mgrwt>
<rscale>  0 0.12500010E+03</rscale>
<asrwt>0</asrwt>
<pdfrwt beam="1">  1        4 0.17011307E-01 0.12500010E+03</pdfrwt>
<pdfrwt beam="2">  1       -4 0.54349598E-02 0.12500010E+03</pdfrwt>
<totfact> 0.10012697E+04</totfact>
</mgrwt>
</event>
<event>
 5    1  0.3206158E-002  0.1250001E+03  0.7818608E-02  0.1235069E+00
         -4   -1    0    0    0  501 -0.00000000000E+00  0.00000000000E+00  0.29855869905E+03  0.29856140019E+03  0.12700000000E+01 0.  1.
          4   -1    0    0  501    0  0.00000000000E+00 -0.00000000000E+00 -0.13050126308E+02  0.13111777021E+02  0.12700000000E+01 0.  1.
         25    2    1    2    0    0  0.00000000000E+00  0.00000000000E+00  0.28550857275E+03  0.31167317721E+03  0.12500009711E+03 0.  0.
    9000005    1    3    3    0    0 -0.48195386595E+02 -0.36679145555E+02  0.10436095234E+03  0.12066633077E+03  0.10000000000E+01 0.  0.
    9000005    1    3    3    0    0  0.48195386595E+02  0.36679145555E+02  0.18114762040E+03  0.19100684644E+03  0.10000000000E+01 0.  0.
<mgrwt>
<rscale>  0 0.12500010E+03</rscale>
<asrwt>0</asrwt>
<pdfrwt beam="2">  1        4 0.20126620E-02 0.12500010E+03</pdfrwt>
<pdfrwt beam="1">  1       -4 0.45937056E-01 0.12500010E+03</pdfrwt>
<totfact> 0.74157365E+03</totfact>
</mgrwt>
</event>
<event>
 5    1  0.3206158E-002  0.1249966E+03  0.7818608E-02  0.1235075E+00
          4   -1    0    0  501    0  0.00000000000E+00  0.00000000000E+00  0.55126038570E+01  0.56570046212E+01  0.12700000000E+01 0.  1.
         -4   -1    0    0    0  501 -0.00000000000E+00 -0.00000000000E+00 -0.69925902010E+03  0.69926017339E+03  0.12700000000E+01 0.  1.
         25    2    1    2    0    0  0.00000000000E+00  0.00000000000E+00 -0.69374641624E+03  0.70491717801E+03  0.12499655118E+03 0.  0.
    9000005    1    3    3    0    0 -0.71551500676E+01  0.42780117361E+02 -0.60056891147E+03  0.60213399841E+03  0.10000000000E+01 0.  0.
    9000005    1    3    3    0    0  0.71551500676E+01 -0.42780117361E+02 -0.93177504770E+02  0.10278317960E+03  0.10000000000E+01 0.  0.
<mgrwt>
<rscale>  0 0.12499655E+03</rscale>
<asrwt>0</asrwt>
<pdfrwt beam="1">  1        4 0.85928992E-03 0.12499655E+03</pdfrwt>
<pdfrwt beam="2">  1       -4 0.10758944E+00 0.12499655E+03</pdfrwt>
<totfact> 0.42831645E+03</totfact>
</mgrwt>
</event>
<event>
 5    1  0.3206158E-002  0.1250000E+03  0.7818608E-02  0.1235069E+00
          4   -1    0    0  501    0  0.00000000000E+00  0.00000000000E+00  0.26819911400E+03  0.26820212089E+03  0.12700000000E+01 0. -1.
         -4   -1    0    0    0  501 -0.00000000000E+00 -0.00000000000E+00 -0.14533952461E+02  0.14589334259E+02  0.12700000000E+01 0. -1.
         25    2    1    2    0    0  0.00000000000E+00  0.00000000000E+00  0.25366516154E+03  0.28279145515E+03  0.12499997171E+03 0.  0.
    9000005    1    3    3    0    0  0.27256843241E+02 -0.47656843883E+02  0.59297590802E+02  0.80816548722E+02  0.10000000000E+01 0.  0.
    9000005    1    3    3    0    0 -0.27256843241E+02  0.47656843883E+02  0.19436757073E+03  0.20197490642E+03  0.10000000000E+01 0.  0.
<mgrwt>
<rscale>  0 0.12499997E+03</rscale>
<asrwt>0</asrwt>
<pdfrwt beam="1">  1        4 0.41265892E-01 0.12499997E+03</pdfrwt>
<pdfrwt beam="2">  1       -4 0.22404842E-02 0.12499997E+03</pdfrwt>
<totfact> 0.77809478E+03</totfact>
</mgrwt>
</event>
<event>
 5    1  0.3206158E-002  0.1249999E+03  0.7818608E-02  0.1235069E+00
         -4   -1    0    0    0  501 -0.00000000000E+00  0.00000000000E+00  0.14449107296E+02  0.14504813051E+02  0.12700000000E+01 0. -1.
          4   -1    0    0  501    0  0.00000000000E+00 -0.00000000000E+00 -0.26976764896E+03  0.26977063837E+03  0.12700000000E+01 0. -1.
         25    2    1    2    0    0  0.00000000000E+00  0.00000000000E+00 -0.25531854166E+03  0.28427545142E+03  0.12499989825E+03 0.  0.
    9000005    1    3    3    0    0  0.13100810844E+02 -0.58808679146E+02 -0.89935442368E+02  0.10825652766E+03  0.10000000000E+01 0.  0.
    9000005    1    3    3    0    0 -0.13100810844E+02  0.58808679146E+02 -0.16538309929E+03  0.17601892376E+03  0.10000000000E+01 0.  0.
<mgrwt>
<rscale>  0 0.12499990E+03</rscale>
<asrwt>0</asrwt>
<pdfrwt beam="2">  1        4 0.41507226E-01 0.12499990E+03</pdfrwt>
<pdfrwt beam="1">  1       -4 0.22274548E-02 0.12499990E+03</pdfrwt>
<totfact> 0.77614783E+03</totfact>
</mgrwt>
</event>
<event>
 5    1  0.3206158E-002  0.1250015E+03  0.7818608E-02  0.1235067E+00
         -4   -1    0    0    0  501 -0.00000000000E+00  0.00000000000E+00  0.57910152953E+03  0.57910292211E+03  0.12700000000E+01 0.  1.
          4   -1    0    0  501    0  0.00000000000E+00 -0.00000000000E+00 -0.66843376745E+01  0.68039157951E+01  0.12700000000E+01 0.  1.
         25    2    1    2    0    0  0.00000000000E+00  0.00000000000E+00  0.57241719185E+03  0.58590683791E+03  0.12500152471E+03 0.  0.
    9000005    1    3    3    0    0 -0.60343052390E+02 -0.16032943171E+02  0.27380207330E+03  0.28083253833E+03  0.10000000000E+01 0.  0.
    9000005    1    3    3    0    0  0.60343052390E+02  0.16032943171E+02  0.29861511855E+03  0.30507429958E+03  0.10000000000E+01 0.  0.
<mgrwt>
<rscale>  0 0.12500152E+03</rscale>
<asrwt>0</asrwt>
<pdfrwt beam="2">  1        4 0.10376650E-02 0.12500152E+03</pdfrwt>
<pdfrwt beam="1">  1       -4 0.89101858E-01 0.12500152E+03</pdfrwt>
<totfact> 0.49767800E+03</totfact>
</mgrwt>
</event>
<event>
 5    1  0.3206158E-002  0.1249971E+03  0.7818608E-02  0.1235074E+00
         -4   -1    0    0    0  501 -0.00000000000E+00  0.00000000000E+00  0.65844213601E+02  0.65856460312E+02  0.12700000000E+01 0.  1.
          4   -1    0    0  501    0  0.00000000000E+00 -0.00000000000E+00 -0.59298324982E+02  0.59311923301E+02  0.12700000000E+01 0.  1.
         25    2    1    2    0    0  0.00000000000E+00  0.00000000000E+00  0.65458886196E+01  0.12516838361E+03  0.12499710236E+03 0.  0.
    9000005    1    3    3    0    0 -0.30289737429E+01 -0.46346141987E+02 -0.38592589654E+02  0.60394764137E+02  0.10000000000E+01 0.  0.
    9000005    1    3    3    0    0  0.30289737429E+01  0.46346141987E+02  0.45138478274E+02  0.64773619475E+02  0.10000000000E+01 0.  0.
<mgrwt>
<rscale>  0 0.12499710E+03</rscale>
<asrwt>0</asrwt>
<pdfrwt beam="2">  1        4 0.91248073E-02 0.12499710E+03</pdfrwt>
<pdfrwt beam="1">  1       -4 0.10131867E-01 0.12499710E+03</pdfrwt>
<totfact> 0.10449891E+04</totfact>
</mgrwt>
</event>
<event>
 5    1  0.3206158E-002  0.1250314E+03  0.7818608E-02  0.1235020E+00
         -4   -1    0    0    0  501 -0.00000000000E+00  0.00000000000E+00  0.43870452492E+02  0.43888831175E+02  0.12700000000E+01 0.  1.
          4   -1    0    0  501    0  0.00000000000E+00 -0.00000000000E+00 -0.89043694561E+02  0.89052750890E+02  0.12700000000E+01 0.  1.
         25    2    1    2    0    0  0.00000000000E+00  0.00000000000E+00 -0.45173242069E+02  0.13294158207E+03  0.12503136584E+03 0.  0.
    9000005    1    3    3    0    0  0.27735486709E+02 -0.18505511845E+02 -0.78804126467E+02  0.85573369338E+02  0.10000000000E+01 0.  0.
    9000005    1    3    3    0    0 -0.27735486709E+02  0.18505511845E+02  0.33630884398E+02  0.47368212727E+02  0.10000000000E+01 0.  0.
<mgrwt>
<rscale>  0 0.12503137E+03</rscale>
<asrwt>0</asrwt>
<pdfrwt beam="2">  1        4 0.13701140E-01 0.12503137E+03</pdfrwt>
<pdfrwt beam="1">  1       -4 0.67514108E-02 0.12503137E+03</pdfrwt>
<totfact> 0.10274371E+04</totfact>
</mgrwt>
</event>
<event>
 5    1  0.3206158E-002  0.1249860E+03  0.7818608E-02  0.1235091E+00
          4   -1    0    0  501    0  0.00000000000E+00  0.00000000000E+00  0.76161517821E+01  0.77213125806E+01  0.12700000000E+01 0.  1.
         -4   -1    0    0    0  501 -0.00000000000E+00 -0.00000000000E+00 -0.50915389182E+03  0.50915547572E+03  0.12700000000E+01 0.  1.
         25    2    1    2    0    0  0.00000000000E+00  0.00000000000E+00 -0.50153774003E+03  0.51687678830E+03  0.12498603763E+03 0.  0.
    9000005    1    3    3    0    0  0.70233559370E+01 -0.36027286363E+02 -0.45989007373E+03  0.46135363097E+03  0.10000000000E+01 0.  0.
    9000005    1    3    3    0    0 -0.70233559370E+01  0.36027286363E+02 -0.41647666306E+02  0.55523157331E+02  0.10000000000E+01 0.  0.
<mgrwt>
<rscale>  0 0.12498604E+03</rscale>
<asrwt>0</asrwt>
<pdfrwt beam="1">  1        4 0.11799272E-02 0.12498604E+03</pdfrwt>
<pdfrwt beam="2">  1       -4 0.78339553E-01 0.12498604E+03</pdfrwt>
<totfact> 0.54595068E+03</totfact>
</mgrwt>
</event>
<event>
 5    1  0.3206158E-002  0.1249940E+03  0.7818608E-02  0.1235079E+00
         -4   -1    0    0    0  501 -0.00000000000E+00  0.00000000000E+00  0.10385199596E+03  0.10385976104E+03  0.12700000000E+01 0.  1.
          4   -1    0    0  501    0  0.00000000000E+00 -0.00000000000E+00 -0.37590147272E+02  0.37611594913E+02  0.12700000000E+01 0.  1.
         25    2    1    2    0    0  0.00000000000E+00  0.00000000000E+00  0.66261848685E+02  0.14147135596E+03  0.12499404772E+03 0.  0.
    9000005    1    3    3    0    0  0.20514556662E+02  0.20128588700E+02 -0.29671284898E+02  0.41320603404E+02  0.10000000000E+01 0.  0.
    9000005    1    3    3    0    0 -0.20514556662E+02 -0.20128588700E+02  0.95933133583E+02  0.10015075255E+03  0.10000000000E+01 0.  0.
<mgrwt>
<rscale>  0 0.12499405E+03</rscale>
<asrwt>0</asrwt>
<pdfrwt beam="2">  1        4 0.57853467E-02 0.12499405E+03</pdfrwt>
<pdfrwt beam="1">  1       -4 0.15979477E-01 0.12499405E+03</pdfrwt>
<totfact> 0.10104537E+04</totfact>
</mgrwt>
</event>
<event>
 5    1  0.3206158E-002  0.1250000E+03  0.7818608E-02  0.1235069E+00
         -4   -1    0    0    0  501 -0.00000000000E+00  0.00000000000E+00  0.51106401995E+03  0.51106559793E+03  0.12700000000E+01 0.  1.
          4   -1    0    0  501    0  0.00000000000E+00 -0.00000000000E+00 -0.75890164044E+01  0.76945480690E+01  0.12700000000E+01 0.  1.
         25    2    1    2    0    0  0.00000000000E+00  0.00000000000E+00  0.50347500355E+03  0.51876014600E+03  0.12500003953E+03 0.  0.
    9000005    1    3    3    0    0  0.44104185119E+02 -0.31398507454E+02  0.38127099829E+03  0.38509689631E+03  0.10000000000E+01 0.  0.
    9000005    1    3    3    0    0 -0.44104185119E+02  0.31398507454E+02  0.12220400526E+03  0.13366324969E+03  0.10000000000E+01 0.  0.
<mgrwt>
<rscale>  0 0.12500004E+03</rscale>
<asrwt>0</asrwt>
<pdfrwt beam="2">  1        4 0.11757802E-02 0.12500004E+03</pdfrwt>
<pdfrwt beam="1">  1       -4 0.78633471E-01 0.12500004E+03</pdfrwt>
<totfact> 0.54437585E+03</totfact>
</mgrwt>
</event>
<event>
 5    1  0.3206158E-002  0.1249974E+03  0.7818608E-02  0.1235073E+00
          4   -1    0    0  501    0  0.00000000000E+00  0.00000000000E+00  0.13495424197E+02  0.13555049770E+02  0.12700000000E+01 0. -1.
         -4   -1    0    0    0  501 -0.00000000000E+00 -0.00000000000E+00 -0.28873880113E+03  0.28874159412E+03  0.12700000000E+01 0. -1.
         25    2    1    2    0    0  0.00000000000E+00  0.00000000000E+00 -0.27524337693E+03  0.30229664389E+03  0.12499737743E+03 0.  0.
    9000005    1    3    3    0    0 -0.27288979457E+02  0.55822344780E+02 -0.15371166355E+03  0.16579836576E+03  0.10000000000E+01 0.  0.
    9000005    1    3    3    0    0  0.27288979457E+02 -0.55822344780E+02 -0.12153171337E+03  0.13649827813E+03  0.10000000000E+01 0.  0.
<mgrwt>
<rscale>  0 0.12499738E+03</rscale>
<asrwt>0</asrwt>
<pdfrwt beam="1">  1        4 0.20810208E-02 0.12499738E+03</pdfrwt>
<pdfrwt beam="2">  1       -4 0.44426151E-01 0.12499738E+03</pdfrwt>
<totfact> 0.75316038E+03</totfact>
</mgrwt>
</event>
<event>
 5    1  0.3206158E-002  0.1250006E+03  0.7818608E-02  0.1235068E+00
         -4   -1    0    0    0  501 -0.00000000000E+00  0.00000000000E+00  0.12741704320E+03  0.12742337226E+03  0.12700000000E+01 0. -1.
          4   -1    0    0  501    0  0.00000000000E+00 -0.00000000000E+00 -0.30637257168E+02  0.30663568396E+02  0.12700000000E+01 0. -1.
         25    2    1    2    0    0  0.00000000000E+00  0.00000000000E+00  0.96779786031E+02  0.15808694065E+03  0.12500061528E+03 0.  0.
    9000005    1    3    3    0    0  0.13971814359E+02  0.16592471843E+02  0.12250939088E+03  0.12441893976E+03  0.10000000000E+01 0.  0.
    9000005    1    3    3    0    0 -0.13971814359E+02 -0.16592471843E+02 -0.25729604848E+02  0.33668000890E+02  0.10000000000E+01 0.  0.
<mgrwt>
<rscale>  0 0.12500062E+03</rscale>
<asrwt>0</asrwt>
<pdfrwt beam="2">  1        4 0.47159350E-02 0.12500062E+03</pdfrwt>
<pdfrwt beam="1">  1       -4 0.19605133E-01 0.12500062E+03</pdfrwt>
<totfact> 0.97711529E+03</totfact>
</mgrwt>
</event>
<event>
 5    1  0.3206158E-002  0.1249901E+03  0.7818608E-02  0.1235085E+00
         -4   -1    0    0    0  501 -0.00000000000E+00  0.00000000000E+00  0.86331460316E+03  0.86331553729E+03  0.12700000000E+01 0. -1.
          4   -1    0    0  501    0  0.00000000000E+00 -0.00000000000E+00 -0.44339108276E+01  0.46122082810E+01  0.12700000000E+01 0. -1.
         25    2    1    2    0    0  0.00000000000E+00  0.00000000000E+00  0.85888069233E+03  0.86792774558E+03  0.12499011110E+03 0.  0.
    9000005    1    3    3    0    0  0.37492474846E+02  0.23491603070E+02  0.73584900191E+03  0.73717860434E+03  0.10000000000E+01 0.  0.
    9000005    1    3    3    0    0 -0.37492474846E+02 -0.23491603070E+02  0.12303169042E+03  0.13074914123E+03  0.10000000000E+01 0.  0.
<mgrwt>
<rscale>  0 0.12499011E+03</rscale>
<asrwt>0</asrwt>
<pdfrwt beam="2">  1        4 0.69592786E-03 0.12499011E+03</pdfrwt>
<pdfrwt beam="1">  1       -4 0.13283129E+00 0.12499011E+03</pdfrwt>
<totfact> 0.35412406E+03</totfact>
</mgrwt>
</event>
<event>
 5    1  0.3206158E-002  0.1249909E+03  0.7818608E-02  0.1235083E+00
         -4   -1    0    0    0  501 -0.00000000000E+00  0.00000000000E+00  0.18161746759E+01  0.22161657098E+01  0.12700000000E+01 0.  1.
          4   -1    0    0  501    0  0.00000000000E+00 -0.00000000000E+00 -0.19367784603E+04  0.19367788766E+04  0.12700000000E+01 0.  1.
         25    2    1    2    0    0  0.00000000000E+00  0.00000000000E+00 -0.19349622856E+04  0.19389950423E+04  0.12499091028E+03 0.  0.
    9000005    1    3    3    0    0 -0.27320610040E+02  0.28555772392E+02 -0.21660374679E+03  0.22018181350E+03  0.10000000000E+01 0.  0.
    9000005    1    3    3    0    0  0.27320610040E+02 -0.28555772392E+02 -0.17183585388E+04  0.17188132289E+04  0.10000000000E+01 0.  0.
<mgrwt>
<rscale>  0 0.12499091E+03</rscale>
<asrwt>0</asrwt>
<pdfrwt beam="2">  1        4 0.29799523E+00 0.12499091E+03</pdfrwt>
<pdfrwt beam="1">  1       -4 0.31021361E-03 0.12499091E+03</pdfrwt>
<totfact> 0.10680850E+03</totfact>
</mgrwt>
</event>
<event>
 5    1  0.3206158E-002  0.1249960E+03  0.7818608E-02  0.1235075E+00
         -4   -1    0    0    0  501 -0.00000000000E+00  0.00000000000E+00  0.27368612093E+02  0.27398062484E+02  0.12700000000E+01 0. -1.
          4   -1    0    0  501    0  0.00000000000E+00 -0.00000000000E+00 -0.14260930617E+03  0.14261496102E+03  0.12700000000E+01 0. -1.
         25    2    1    2    0    0  0.00000000000E+00  0.00000000000E+00 -0.11524069408E+03  0.17001302350E+03  0.12499604229E+03 0.  0.
    9000005    1    3    3    0    0 -0.26860906850E+02 -0.34598304114E+02 -0.11824160324E+03  0.12609769110E+03  0.10000000000E+01 0.  0.
    9000005    1    3    3    0    0  0.26860906850E+02  0.34598304114E+02  0.30009091590E+01  0.43915332404E+02  0.10000000000E+01 0.  0.
<mgrwt>
<rscale>  0 0.12499604E+03</rscale>
<asrwt>0</asrwt>
<pdfrwt beam="2">  1        4 0.21942593E-01 0.12499604E+03</pdfrwt>
<pdfrwt beam="1">  1       -4 0.42132562E-02 0.12499604E+03</pdfrwt>
<totfact> 0.95454688E+03</totfact>
</mgrwt>
</event>
<event>
 5    1  0.3206158E-002  0.1249987E+03  0.7818608E-02  0.1235071E+00
          4   -1    0    0  501    0  0.00000000000E+00  0.00000000000E+00  0.61526664765E+02  0.61539770695E+02  0.12700000000E+01 0. -1.
         -4   -1    0    0    0  501 -0.00000000000E+00 -0.00000000000E+00 -0.63461206151E+02  0.63473912642E+02  0.12700000000E+01 0. -1.
         25    2    1    2    0    0  0.00000000000E+00  0.00000000000E+00 -0.19345413852E+01  0.12501368334E+03  0.12499871428E+03 0.  0.
    9000005    1    3    3    0    0 -0.26076557022E+02 -0.27362444864E+02  0.48802927201E+02  0.61736665916E+02  0.10000000000E+01 0.  0.
    9000005    1    3    3    0    0  0.26076557022E+02  0.27362444864E+02 -0.50737468586E+02  0.63277017420E+02  0.10000000000E+01 0.  0.
<mgrwt>
<rscale>  0 0.12499871E+03</rscale>
<asrwt>0</asrwt>
<pdfrwt beam="1">  1        4 0.94676263E-02 0.12499871E+03</pdfrwt>
<pdfrwt beam="2">  1       -4 0.97652481E-02 0.12499871E+03</pdfrwt>
<totfact> 0.10452869E+04</totfact>
</mgrwt>
</event>
<event>
 5    1  0.3206158E-002  0.1249895E+03  0.7818608E-02  0.1235086E+00
          4   -1    0    0  501    0  0.00000000000E+00  0.00000000000E+00  0.11839180479E+03  0.11839861630E+03  0.12700000000E+01 0.  1.
         -4   -1    0    0    0  501 -0.00000000000E+00 -0.00000000000E+00 -0.32968715199E+02  0.32993167200E+02  0.12700000000E+01 0.  1.
         25    2    1    2    0    0  0.00000000000E+00  0.00000000000E+00  0.85423089592E+02  0.15139178350E+03  0.12498947106E+03 0.  0.
    9000005    1    3    3    0    0  0.45734327663E+01 -0.62028270182E+02  0.49996039074E+02  0.79806180915E+02  0.10000000000E+01 0.  0.
    9000005    1    3    3    0    0 -0.45734327663E+01  0.62028270182E+02  0.35427050518E+02  0.71585602585E+02  0.10000000000E+01 0.  0.
<mgrwt>
<rscale>  0 0.12498947E+03</rscale>
<asrwt>0</asrwt>
<pdfrwt beam="1">  1        4 0.18216529E-01 0.12498947E+03</pdfrwt>
<pdfrwt beam="2">  1       -4 0.50745150E-02 0.12498947E+03</pdfrwt>
<totfact> 0.99050453E+03</totfact>
</mgrwt>
</event>
<event>
 5    1  0.3206158E-002  0.1250535E+03  0.7818608E-02  0.1234986E+00
          4   -1    0    0  501    0  0.00000000000E+00  0.00000000000E+00  0.47913006771E+03  0.47913175087E+03  0.12700000000E+01 0. -1.
         -4   -1    0    0    0  501 -0.00000000000E+00 -0.00000000000E+00 -0.81086478137E+01  0.82075007991E+01  0.12700000000E+01 0. -1.
         25    2    1    2    0    0  0.00000000000E+00  0.00000000000E+00  0.47102141990E+03  0.48733925167E+03  0.12505346140E+03 0.  0.
    9000005    1    3    3    0    0 -0.55297990363E+02 -0.28098500172E+02  0.26599712973E+03  0.27313525308E+03  0.10000000000E+01 0.  0.
    9000005    1    3    3    0    0  0.55297990363E+02  0.28098500172E+02  0.20502429017E+03  0.21420399858E+03  0.10000000000E+01 0.  0.
<mgrwt>
<rscale>  0 0.12505346E+03</rscale>
<asrwt>0</asrwt>
<pdfrwt beam="1">  1        4 0.73720061E-01 0.12505346E+03</pdfrwt>
<pdfrwt beam="2">  1       -4 0.12552177E-02 0.12505346E+03</pdfrwt>
<totfact> 0.56793418E+03</totfact>
</mgrwt>
</event>
<event>
 5    1  0.3206158E-002  0.1250008E+03  0.7818608E-02  0.1235068E+00
          4   -1    0    0  501    0  0.00000000000E+00  0.00000000000E+00  0.20009109945E+02  0.20049373576E+02  0.12700000000E+01 0.  1.
         -4   -1    0    0    0  501 -0.00000000000E+00 -0.00000000000E+00 -0.19498747261E+03  0.19499160847E+03  0.12700000000E+01 0.  1.
         25    2    1    2    0    0  0.00000000000E+00  0.00000000000E+00 -0.17497836266E+03  0.21504098204E+03  0.12500078623E+03 0.  0.
    9000005    1    3    3    0    0  0.35750229319E+02  0.18136002828E+02 -0.50160694093E+01  0.40412305641E+02  0.10000000000E+01 0.  0.
    9000005    1    3    3    0    0 -0.35750229319E+02 -0.18136002828E+02 -0.16996229325E+03  0.17462867640E+03  0.10000000000E+01 0.  0.
<mgrwt>
<rscale>  0 0.12500079E+03</rscale>
<asrwt>0</asrwt>
<pdfrwt beam="1">  1        4 0.30817401E-02 0.12500079E+03</pdfrwt>
<pdfrwt beam="2">  1       -4 0.30001487E-01 0.12500079E+03</pdfrwt>
<totfact> 0.87657644E+03</totfact>
</mgrwt>
</event>
<event>
 5    1  0.3206158E-002  0.1250017E+03  0.7818608E-02  0.1235067E+00
         -4   -1    0    0    0  501 -0.00000000000E+00  0.00000000000E+00  0.10459351278E+03  0.10460122282E+03  0.12700000000E+01 0.  1.
          4   -1    0    0  501    0  0.00000000000E+00 -0.00000000000E+00 -0.37328078924E+02  0.37349677055E+02  0.12700000000E+01 0.  1.
         25    2    1    2    0    0  0.00000000000E+00  0.00000000000E+00  0.67265433854E+02  0.14195089987E+03  0.12500167752E+03 0.  0.
    9000005    1    3    3    0    0 -0.32500624037E+02 -0.25683492987E+02 -0.19503067253E+02  0.45796309972E+02  0.10000000000E+01 0.  0.
    9000005    1    3    3    0    0  0.32500624037E+02  0.25683492987E+02  0.86768501107E+02  0.96154589901E+02  0.10000000000E+01 0.  0.
<mgrwt>
<rscale>  0 0.12500168E+03</rscale>
<asrwt>0</asrwt>
<pdfrwt beam="2">  1        4 0.57450360E-02 0.12500168E+03</pdfrwt>
<pdfrwt beam="1">  1       -4 0.16093564E-01 0.12500168E+03</pdfrwt>
<totfact> 0.10092930E+04</totfact>
</mgrwt>
</event>
<event>
 5    1  0.3206158E-002  0.1250014E+03  0.7818608E-02  0.1235067E+00
          4   -1    0    0  501    0  0.00000000000E+00  0.00000000000E+00  0.41467735093E+01  0.43368918060E+01  0.12700000000E+01 0. -1.
         -4   -1    0    0    0  501 -0.00000000000E+00 -0.00000000000E+00 -0.92071774904E+03  0.92071862493E+03  0.12700000000E+01 0. -1.
         25    2    1    2    0    0  0.00000000000E+00  0.00000000000E+00 -0.91657097553E+03  0.92505551673E+03  0.12500142344E+03 0.  0.
    9000005    1    3    3    0    0  0.22392206776E+02 -0.57529223137E+02 -0.53015533777E+03  0.53373842339E+03  0.10000000000E+01 0.  0.
    9000005    1    3    3    0    0 -0.22392206776E+02  0.57529223137E+02 -0.38641563776E+03  0.39131709335E+03  0.10000000000E+01 0.  0.
<mgrwt>
<rscale>  0 0.12500142E+03</rscale>
<asrwt>0</asrwt>
<pdfrwt beam="1">  1        4 0.65265775E-03 0.12500142E+03</pdfrwt>
<pdfrwt beam="2">  1       -4 0.14166342E+00 0.12500142E+03</pdfrwt>
<totfact> 0.33217478E+03</totfact>
</mgrwt>
</event>
<event>
 5    1  0.3206158E-002  0.1249992E+03  0.7818608E-02  0.1235070E+00
          4   -1    0    0  501    0  0.00000000000E+00  0.00000000000E+00  0.17290882866E+03  0.17291349261E+03  0.12700000000E+01 0.  1.
         -4   -1    0    0    0  501 -0.00000000000E+00 -0.00000000000E+00 -0.22568282242E+02  0.22603987776E+02  0.12700000000E+01 0.  1.
         25    2    1    2    0    0  0.00000000000E+00  0.00000000000E+00  0.15034054641E+03  0.19551748039E+03  0.12499922096E+03 0.  0.
    9000005    1    3    3    0    0  0.21141350916E+02  0.12431938460E+02  0.16507406902E+03  0.16688905918E+03  0.10000000000E+01 0.  0.
    9000005    1    3    3    0    0 -0.21141350916E+02 -0.12431938460E+02 -0.14733522604E+02  0.28628421206E+02  0.10000000000E+01 0.  0.
<mgrwt>
<rscale>  0 0.12499922E+03</rscale>
<asrwt>0</asrwt>
<pdfrwt beam="1">  1        4 0.26604464E-01 0.12499922E+03</pdfrwt>
<pdfrwt beam="2">  1       -4 0.34751487E-02 0.12499922E+03</pdfrwt>
<totfact> 0.90897640E+03</totfact>
</mgrwt>
</event>
<event>
 5    1  0.3206158E-002  0.1249997E+03  0.7818608E-02  0.1235070E+00
         -4   -1    0    0    0  501 -0.00000000000E+00  0.00000000000E+00  0.21435490971E+03  0.21435867190E+03  0.12700000000E+01 0. -1.
          4   -1    0    0  501    0  0.00000000000E+00 -0.00000000000E+00 -0.18197129383E+02  0.18241392978E+02  0.12700000000E+01 0. -1.
         25    2    1    2    0    0  0.00000000000E+00  0.00000000000E+00  0.19615778033E+03  0.23260006488E+03  0.12499966159E+03 0.  0.
    9000005    1    3    3    0    0 -0.54722176435E+02  0.10669626504E+02  0.15060740163E+03  0.16059871403E+03  0.10000000000E+01 0.  0.
    9000005    1    3    3    0    0  0.54722176435E+02 -0.10669626504E+02  0.45550378701E+02  0.72001350844E+02  0.10000000000E+01 0.  0.
<mgrwt>
<rscale>  0 0.12499966E+03</rscale>
<asrwt>0</asrwt>
<pdfrwt beam="2">  1        4 0.28032528E-02 0.12499966E+03</pdfrwt>
<pdfrwt beam="1">  1       -4 0.32981371E-01 0.12499966E+03</pdfrwt>
<totfact> 0.84912589E+03</totfact>
</mgrwt>
</event>
<event>
 5    1  0.3206158E-002  0.1249992E+03  0.7818608E-02  0.1235070E+00
         -4   -1    0    0    0  501 -0.00000000000E+00  0.00000000000E+00  0.75770932296E+02  0.75781574813E+02  0.12700000000E+01 0.  1.
          4   -1    0    0  501    0  0.00000000000E+00 -0.00000000000E+00 -0.51530700351E+02  0.51546347869E+02  0.12700000000E+01 0.  1.
         25    2    1    2    0    0  0.00000000000E+00  0.00000000000E+00  0.24240231946E+02  0.12732792268E+03  0.12499924420E+03 0.  0.
    9000005    1    3    3    0    0 -0.44075108967E+02 -0.41145015725E+02 -0.46076052397E+01  0.60479397943E+02  0.10000000000E+01 0.  0.
    9000005    1    3    3    0    0  0.44075108967E+02  0.41145015725E+02  0.28847837186E+02  0.66848524739E+02  0.10000000000E+01 0.  0.
<mgrwt>
<rscale>  0 0.12499924E+03</rscale>
<asrwt>0</asrwt>
<pdfrwt beam="2">  1        4 0.79298224E-02 0.12499924E+03</pdfrwt>
<pdfrwt beam="1">  1       -4 0.11659089E-01 0.12499924E+03</pdfrwt>
<totfact> 0.10402207E+04</totfact>
</mgrwt>
</event>
<event>
 5    1  0.3206158E-002  0.1250000E+03  0.7818608E-02  0.1235069E+00
          4   -1    0    0  501    0  0.00000000000E+00  0.00000000000E+00  0.22907177442E+02  0.22942355554E+02  0.12700000000E+01 0.  1.
         -4   -1    0    0    0  501 -0.00000000000E+00 -0.00000000000E+00 -0.17035682070E+03  0.17036155453E+03  0.12700000000E+01 0.  1.
         25    2    1    2    0    0  0.00000000000E+00  0.00000000000E+00 -0.14744964326E+03  0.19330391008E+03  0.12500001742E+03 0.  0.
    9000005    1    3    3    0    0 -0.58816013092E+02  0.20759192510E+02 -0.79710852093E+02  0.10121801920E+03  0.10000000000E+01 0.  0.
    9000005    1    3    3    0    0  0.58816013092E+02 -0.20759192510E+02 -0.67738791168E+02  0.92085890877E+02  0.10000000000E+01 0.  0.
<mgrwt>
<rscale>  0 0.12500002E+03</rscale>
<asrwt>0</asrwt>
<pdfrwt beam="1">  1        4 0.35272514E-02 0.12500002E+03</pdfrwt>
<pdfrwt beam="2">  1       -4 0.26211811E-01 0.12500002E+03</pdfrwt>
<totfact> 0.91275567E+03</totfact>
</mgrwt>
</event>
<event>
 5    1  0.3206158E-002  0.1250003E+03  0.7818608E-02  0.1235069E+00
          4   -1    0    0  501    0  0.00000000000E+00  0.00000000000E+00  0.12803174489E+02  0.12866008588E+02  0.12700000000E+01 0.  1.
         -4   -1    0    0    0  501 -0.00000000000E+00 -0.00000000000E+00 -0.30429080745E+03  0.30429345770E+03  0.12700000000E+01 0.  1.
         25    2    1    2    0    0  0.00000000000E+00  0.00000000000E+00 -0.29148763296E+03  0.31715946628E+03  0.12500034754E+03 0.  0.
    9000005    1    3    3    0    0 -0.20903972003E+02 -0.13065100812E+02 -0.41865481895E-01  0.24671332705E+02  0.10000000000E+01 0.  0.
    9000005    1    3    3    0    0  0.20903972003E+02  0.13065100812E+02 -0.29144576748E+03  0.29248813358E+03  0.10000000000E+01 0.  0.
<mgrwt>
<rscale>  0 0.12500035E+03</rscale>
<asrwt>0</asrwt>
<pdfrwt beam="1">  1        4 0.19747566E-02 0.12500035E+03</pdfrwt>
<pdfrwt beam="2">  1       -4 0.46819002E-01 0.12500035E+03</pdfrwt>
<totfact> 0.73494683E+03</totfact>
</mgrwt>
</event>
<event>
 5    1  0.3206158E-002  0.1249926E+03  0.7818608E-02  0.1235081E+00
          4   -1    0    0  501    0  0.00000000000E+00  0.00000000000E+00  0.10300127338E+03  0.10300910260E+03  0.12700000000E+01 0.  1.
         -4   -1    0    0    0  501 -0.00000000000E+00 -0.00000000000E+00 -0.37899885039E+02  0.37921157498E+02  0.12700000000E+01 0.  1.
         25    2    1    2    0    0  0.00000000000E+00  0.00000000000E+00  0.65101388344E+02  0.14093026010E+03  0.12499258957E+03 0.  0.
    9000005    1    3    3    0    0  0.61261814057E+02  0.12249663782E+02  0.34030584468E+02  0.71148751244E+02  0.10000000000E+01 0.  0.
    9000005    1    3    3    0    0 -0.61261814057E+02 -0.12249663782E+02  0.31070803876E+02  0.69781508853E+02  0.10000000000E+01 0.  0.
<mgrwt>
<rscale>  0 0.12499259E+03</rscale>
<asrwt>0</asrwt>
<pdfrwt beam="1">  1        4 0.15848588E-01 0.12499259E+03</pdfrwt>
<pdfrwt beam="2">  1       -4 0.58329901E-02 0.12499259E+03</pdfrwt>
<totfact> 0.10116031E+04</totfact>
</mgrwt>
</event>
<event>
 5    1  0.3206158E-002  0.1250002E+03  0.7818608E-02  0.1235069E+00
         -4   -1    0    0    0  501 -0.00000000000E+00  0.00000000000E+00  0.71405122364E+01  0.72525729916E+01  0.12700000000E+01 0. -1.
          4   -1    0    0  501    0  0.00000000000E+00 -0.00000000000E+00 -0.54268462058E+03  0.54268610661E+03  0.12700000000E+01 0. -1.
         25    2    1    2    0    0  0.00000000000E+00  0.00000000000E+00 -0.53554410834E+03  0.54993867960E+03  0.12500023739E+03 0.  0.
    9000005    1    3    3    0    0  0.49530827024E+01  0.33350448333E+02 -0.49925770600E+03  0.50039588571E+03  0.10000000000E+01 0.  0.
    9000005    1    3    3    0    0 -0.49530827024E+01 -0.33350448333E+02 -0.36286402336E+02  0.49542793893E+02  0.10000000000E+01 0.  0.
<mgrwt>
<rscale>  0 0.12500024E+03</rscale>
<asrwt>0</asrwt>
<pdfrwt beam="2">  1        4 0.83498644E-01 0.12500024E+03</pdfrwt>
<pdfrwt beam="1">  1       -4 0.11072751E-02 0.12500024E+03</pdfrwt>
<totfact> 0.52187945E+03</totfact>
</mgrwt>
</event>
<event>
 5    1  0.3206158E-002  0.1249962E+03  0.7818608E-02  0.1235075E+00
          4   -1    0    0  501    0  0.00000000000E+00  0.00000000000E+00  0.11544833116E+04  0.11544840102E+04  0.12700000000E+01 0.  1.
         -4   -1    0    0    0  501 -0.00000000000E+00 -0.00000000000E+00 -0.32634396367E+01  0.35018478354E+01  0.12700000000E+01 0.  1.
         25    2    1    2    0    0  0.00000000000E+00  0.00000000000E+00  0.11512198720E+04  0.11579858580E+04  0.12499621459E+03 0.  0.
    9000005    1    3    3    0    0 -0.42885656005E+01  0.42634800658E+02  0.99699162632E+03  0.99791253172E+03  0.10000000000E+01 0.  0.
    9000005    1    3    3    0    0  0.42885656005E+01 -0.42634800658E+02  0.15422824567E+03  0.16007332627E+03  0.10000000000E+01 0.  0.
<mgrwt>
<rscale>  0 0.12499621E+03</rscale>
<asrwt>0</asrwt>
<pdfrwt beam="1">  1        4 0.17763122E+00 0.12499621E+03</pdfrwt>
<pdfrwt beam="2">  1       -4 0.52046045E-03 0.12499621E+03</pdfrwt>
<totfact> 0.25841823E+03</totfact>
</mgrwt>
</event>
<event>
 5    1  0.3206158E-002  0.1250015E+03  0.7818608E-02  0.1235067E+00
         -4   -1    0    0    0  501 -0.00000000000E+00  0.00000000000E+00  0.60069762446E+03  0.60069896698E+03  0.12700000000E+01 0. -1.
          4   -1    0    0  501    0  0.00000000000E+00 -0.00000000000E+00 -0.64396469956E+01  0.65636844400E+01  0.12700000000E+01 0. -1.
         25    2    1    2    0    0  0.00000000000E+00  0.00000000000E+00  0.59425797746E+03  0.60726265142E+03  0.12500153611E+03 0.  0.
    9000005    1    3    3    0    0  0.21038715931E+02 -0.51441993817E+02  0.43593979661E+03  0.43946946716E+03  0.10000000000E+01 0.  0.
    9000005    1    3    3    0    0 -0.21038715931E+02  0.51441993817E+02  0.15831818085E+03  0.16779318426E+03  0.10000000000E+01 0.  0.
<mgrwt>
<rscale>  0 0.12500154E+03</rscale>
<asrwt>0</asrwt>
<pdfrwt beam="2">  1        4 0.10003593E-02 0.12500154E+03</pdfrwt>
<pdfrwt beam="1">  1       -4 0.92424682E-01 0.12500154E+03</pdfrwt>
<totfact> 0.48410719E+03</totfact>
</mgrwt>
</event>
<event>
 5    1  0.3206158E-002  0.1249974E+03  0.7818608E-02  0.1235073E+00
         -4   -1    0    0    0  501 -0.00000000000E+00  0.00000000000E+00  0.63297484321E+02  0.63310223672E+02  0.12700000000E+01 0.  1.
          4   -1    0    0  501    0  0.00000000000E+00 -0.00000000000E+00 -0.61684510366E+02  0.61697582766E+02  0.12700000000E+01 0.  1.
         25    2    1    2    0    0  0.00000000000E+00  0.00000000000E+00  0.16129739545E+01  0.12500780644E+03  0.12499739991E+03 0.  0.
    9000005    1    3    3    0    0  0.20649158504E+02 -0.71866849029E+01  0.59352383197E+02  0.63259320088E+02  0.10000000000E+01 0.  0.
    9000005    1    3    3    0    0 -0.20649158504E+02  0.71866849029E+01 -0.57739409242E+02  0.61748486350E+02  0.10000000000E+01 0.  0.
<mgrwt>
<rscale>  0 0.12499740E+03</rscale>
<asrwt>0</asrwt>
<pdfrwt beam="2">  1        4 0.94919102E-02 0.12499740E+03</pdfrwt>
<pdfrwt beam="1">  1       -4 0.97400600E-02 0.12499740E+03</pdfrwt>
<totfact> 0.10453307E+04</totfact>
</mgrwt>
</event>
<event>
 5    1  0.3206158E-002  0.1250056E+03  0.7818608E-02  0.1235061E+00
          4   -1    0    0  501    0  0.00000000000E+00  0.00000000000E+00  0.15498140012E+03  0.15498660356E+03  0.12700000000E+01 0. -1.
         -4   -1    0    0    0  501 -0.00000000000E+00 -0.00000000000E+00 -0.25185270133E+02  0.25217270504E+02  0.12700000000E+01 0. -1.
         25    2    1    2    0    0  0.00000000000E+00  0.00000000000E+00  0.12979612998E+03  0.18020387406E+03  0.12500560334E+03 0.  0.
    9000005    1    3    3    0    0 -0.12778098601E+02 -0.49625245975E+02  0.11646616795E+03  0.12724509075E+03  0.10000000000E+01 0.  0.
    9000005    1    3    3    0    0  0.12778098601E+02  0.49625245975E+02  0.13329962029E+02  0.52958783310E+02  0.10000000000E+01 0.  0.
<mgrwt>
<rscale>  0 0.12500560E+03</rscale>
<asrwt>0</asrwt>
<pdfrwt beam="1">  1        4 0.23846154E-01 0.12500560E+03</pdfrwt>
<pdfrwt beam="2">  1       -4 0.38775189E-02 0.12500560E+03</pdfrwt>
<totfact> 0.93568562E+03</totfact>
</mgrwt>
</event>
<event>
 5    1  0.3206158E-002  0.1249985E+03  0.7818608E-02  0.1235072E+00
          4   -1    0    0  501    0  0.00000000000E+00  0.00000000000E+00  0.31324910492E+02  0.31350644608E+02  0.12700000000E+01 0.  1.
         -4   -1    0    0    0  501 -0.00000000000E+00 -0.00000000000E+00 -0.12461793164E+03  0.12462440285E+03  0.12700000000E+01 0.  1.
         25    2    1    2    0    0  0.00000000000E+00  0.00000000000E+00 -0.93293021146E+02  0.15597504746E+03  0.12499851053E+03 0.  0.
    9000005    1    3    3    0    0  0.55534595245E+02 -0.25091132596E+02 -0.63914249614E+02  0.88315839506E+02  0.10000000000E+01 0.  0.
    9000005    1    3    3    0    0 -0.55534595245E+02  0.25091132596E+02 -0.29378771533E+02  0.67659207953E+02  0.10000000000E+01 0.  0.
<mgrwt>
<rscale>  0 0.12499851E+03</rscale>
<asrwt>0</asrwt>
<pdfrwt beam="1">  1        4 0.48216944E-02 0.12499851E+03</pdfrwt>
<pdfrwt beam="2">  1       -4 0.19174467E-01 0.12499851E+03</pdfrwt>
<totfact> 0.98127711E+03</totfact>
</mgrwt>
</event>
<event>
 5    1  0.3206158E-002  0.1249807E+03  0.7818608E-02  0.1235099E+00
          4   -1    0    0  501    0  0.00000000000E+00  0.00000000000E+00  0.14588273780E+04  0.14588279308E+04  0.12700000000E+01 0.  1.
         -4   -1    0    0    0  501 -0.00000000000E+00 -0.00000000000E+00 -0.25256167852E+01  0.28269489111E+01  0.12700000000E+01 0.  1.
         25    2    1    2    0    0  0.00000000000E+00  0.00000000000E+00  0.14563017612E+04  0.14616548797E+04  0.12498066925E+03 0.  0.
    9000005    1    3    3    0    0 -0.48800712909E+02  0.36713973018E+02  0.88269221827E+03  0.88480279022E+03  0.10000000000E+01 0.  0.
    9000005    1    3    3    0    0  0.48800712909E+02 -0.36713973018E+02  0.57360954292E+03  0.57685208947E+03  0.10000000000E+01 0.  0.
<mgrwt>
<rscale>  0 0.12498067E+03</rscale>
<asrwt>0</asrwt>
<pdfrwt beam="1">  1        4 0.22445852E+00 0.12498067E+03</pdfrwt>
<pdfrwt beam="2">  1       -4 0.41177776E-03 0.12498067E+03</pdfrwt>
<totfact> 0.18703136E+03</totfact>
</mgrwt>
</event>
<event>
 5    1  0.3206158E-002  0.1249984E+03  0.7818608E-02  0.1235072E+00
         -4   -1    0    0    0  501 -0.00000000000E+00  0.00000000000E+00  0.71829399966E+02  0.71840626386E+02  0.12700000000E+01 0. -1.
          4   -1    0    0  501    0  0.00000000000E+00 -0.00000000000E+00 -0.54358068862E+02  0.54372902722E+02  0.12700000000E+01 0. -1.
         25    2    1    2    0    0  0.00000000000E+00  0.00000000000E+00  0.17471331104E+02  0.12621352911E+03  0.12499843007E+03 0.  0.
    9000005    1    3    3    0    0  0.42214203950E+00 -0.57602842023E+02 -0.15725566379E+02  0.59720675239E+02  0.10000000000E+01 0.  0.
    9000005    1    3    3    0    0 -0.42214203950E+00  0.57602842023E+02  0.33196897483E+02  0.66492853868E+02  0.10000000000E+01 0.  0.
<mgrwt>
<rscale>  0 0.12499843E+03</rscale>
<asrwt>0</asrwt>
<pdfrwt beam="2">  1        4 0.83647845E-02 0.12499843E+03</pdfrwt>
<pdfrwt beam="1">  1       -4 0.11052682E-01 0.12499843E+03</pdfrwt>
<totfact> 0.10426652E+04</totfact>
</mgrwt>
</event>
<event>
 5    1  0.3206158E-002  0.1250011E+03  0.7818608E-02  0.1235068E+00
         -4   -1    0    0    0  501 -0.00000000000E+00  0.00000000000E+00  0.45240098116E+03  0.45240276375E+03  0.12700000000E+01 0. -1.
          4   -1    0    0  501    0  0.00000000000E+00 -0.00000000000E+00 -0.85861332179E+01  0.86795497369E+01  0.12700000000E+01 0. -1.
         25    2    1    2    0    0  0.00000000000E+00  0.00000000000E+00  0.44381484794E+03  0.46108231349E+03  0.12500112224E+03 0.  0.
    9000005    1    3    3    0    0 -0.60799779974E+02  0.24833230127E+00  0.27518798368E+03  0.28182636725E+03  0.10000000000E+01 0.  0.
    9000005    1    3    3    0    0  0.60799779974E+02 -0.24833230127E+00  0.16862686426E+03  0.17925594624E+03  0.10000000000E+01 0.  0.
<mgrwt>
<rscale>  0 0.12500112E+03</rscale>
<asrwt>0</asrwt>
<pdfrwt beam="2">  1        4 0.13282660E-02 0.12500112E+03</pdfrwt>
<pdfrwt beam="1">  1       -4 0.69607502E-01 0.12500112E+03</pdfrwt>
<totfact> 0.59014140E+03</totfact>
</mgrwt>
</event>
<event>
 5    1  0.3206158E-002  0.1250092E+03  0.7818608E-02  0.1235055E+00
          4   -1    0    0  501    0  0.00000000000E+00  0.00000000000E+00  0.13448364741E+02  0.13508198037E+02  0.12700000000E+01 0.  1.
         -4   -1    0    0    0  501 -0.00000000000E+00 -0.00000000000E+00 -0.28979948832E+03  0.28980227110E+03  0.12700000000E+01 0.  1.
         25    2    1    2    0    0  0.00000000000E+00  0.00000000000E+00 -0.27635112358E+03  0.30331046913E+03  0.12500918838E+03 0.  0.
    9000005    1    3    3    0    0 -0.26716455958E+02 -0.18316727371E+02 -0.84974759788E+01  0.33503412044E+02  0.10000000000E+01 0.  0.
    9000005    1    3    3    0    0  0.26716455958E+02  0.18316727371E+02 -0.26785364760E+03  0.26980705709E+03  0.10000000000E+01 0.  0.
<mgrwt>
<rscale>  0 0.12500919E+03</rscale>
<asrwt>0</asrwt>
<pdfrwt beam="1">  1        4 0.20737960E-02 0.12500919E+03</pdfrwt>
<pdfrwt beam="2">  1       -4 0.44589348E-01 0.12500919E+03</pdfrwt>
<totfact> 0.75170119E+03</totfact>
</mgrwt>
</event>
<event>
 4    1  0.3206158E-002  0.1244819E+03  0.7818608E-02  0.1235881E+00
         -4   -1    0    0    0  501 -0.00000000000E+00  0.00000000000E+00  0.11490218196E+04  0.11490225215E+04  0.12700000000E+01 0.  1.
          4   -1    0    0  501    0  0.00000000000E+00 -0.00000000000E+00 -0.32511825838E+01  0.34904280816E+01  0.12700000000E+01 0.  1.
    9000005    1    1    2    0    0  0.51437664140E+02  0.36481813604E+01  0.89544647342E+03  0.89693061565E+03  0.10000000000E+01 0.  0.
    9000005    1    1    2    0    0 -0.51437664140E+02 -0.36481813604E+01  0.25032416362E+03  0.25558233392E+03  0.10000000000E+01 0.  0.
<mgrwt>
<rscale>  0 0.12448191E+03</rscale>
<asrwt>0</asrwt>
<pdfrwt beam="2">  1        4 0.51863938E-03 0.12448191E+03</pdfrwt>
<pdfrwt beam="1">  1       -4 0.17679106E+00 0.12448191E+03</pdfrwt>
<totfact> 0.26286529E+03</totfact>
</mgrwt>
</event>
<event>
 5    1  0.3206158E-002  0.1250013E+03  0.7818608E-02  0.1235067E+00
          4   -1    0    0  501    0  0.00000000000E+00  0.00000000000E+00  0.22312328300E+02  0.22348442768E+02  0.12700000000E+01 0.  1.
         -4   -1    0    0    0  501 -0.00000000000E+00 -0.00000000000E+00 -0.17489509558E+03  0.17489970657E+03  0.12700000000E+01 0.  1.
         25    2    1    2    0    0  0.00000000000E+00  0.00000000000E+00 -0.15258276728E+03  0.19724814934E+03  0.12500132618E+03 0.  0.
    9000005    1    3    3    0    0 -0.21989235072E+01 -0.34864922426E+02  0.54731923653E+01  0.35374481127E+02  0.10000000000E+01 0.  0.
    9000005    1    3    3    0    0  0.21989235072E+01  0.34864922426E+02 -0.15805595965E+03  0.16187366821E+03  0.10000000000E+01 0.  0.
<mgrwt>
<rscale>  0 0.12500133E+03</rscale>
<asrwt>0</asrwt>
<pdfrwt beam="1">  1        4 0.34357987E-02 0.12500133E+03</pdfrwt>
<pdfrwt beam="2">  1       -4 0.26910070E-01 0.12500133E+03</pdfrwt>
<totfact> 0.90598542E+03</totfact>
</mgrwt>
</event>
<event>
 5    1  0.3206158E-002  0.1249991E+03  0.7818608E-02  0.1235071E+00
         -4   -1    0    0    0  501 -0.00000000000E+00  0.00000000000E+00  0.95683030361E+01  0.96522185528E+01  0.12700000000E+01 0. -1.
          4   -1    0    0  501    0  0.00000000000E+00 -0.00000000000E+00 -0.40637609396E+03  0.40637807844E+03  0.12700000000E+01 0. -1.
         25    2    1    2    0    0  0.00000000000E+00  0.00000000000E+00 -0.39680779092E+03  0.41603029700E+03  0.12499914033E+03 0.  0.
    9000005    1    3    3    0    0  0.24745843550E+02 -0.46929056991E+02 -0.30831242220E+03  0.31284539768E+03  0.10000000000E+01 0.  0.
    9000005    1    3    3    0    0 -0.24745843550E+02  0.46929056991E+02 -0.88495368718E+02  0.10318489932E+03  0.10000000000E+01 0.  0.
<mgrwt>
<rscale>  0 0.12499914E+03</rscale>
<asrwt>0</asrwt>
<pdfrwt beam="2">  1        4 0.62525993E-01 0.12499914E+03</pdfrwt>
<pdfrwt beam="1">  1       -4 0.14786546E-02 0.12499914E+03</pdfrwt>
<totfact> 0.63024203E+03</totfact>
</mgrwt>
</event>
<event>
 5    1  0.3206158E-002  0.1250060E+03  0.7818608E-02  0.1235060E+00
         -4   -1    0    0    0  501 -0.00000000000E+00  0.00000000000E+00  0.70447317670E+02  0.70458764302E+02  0.12700000000E+01 0.  1.
          4   -1    0    0  501    0  0.00000000000E+00 -0.00000000000E+00 -0.55431367455E+02  0.55445914168E+02  0.12700000000E+01 0.  1.
         25    2    1    2    0    0  0.00000000000E+00  0.00000000000E+00  0.15015950215E+02  0.12590467847E+03  0.12500603705E+03 0.  0.
    9000005    1    3    3    0    0 -0.40879959386E+01  0.35449426970E+02  0.59182293495E+02  0.69115247569E+02  0.10000000000E+01 0.  0.
    9000005    1    3    3    0    0  0.40879959386E+01 -0.35449426970E+02 -0.44166343280E+02  0.56789430901E+02  0.10000000000E+01 0.  0.
<mgrwt>
<rscale>  0 0.12500604E+03</rscale>
<asrwt>0</asrwt>
<pdfrwt beam="2">  1        4 0.85299022E-02 0.12500604E+03</pdfrwt>
<pdfrwt beam="1">  1       -4 0.10840048E-01 0.12500604E+03</pdfrwt>
<totfact> 0.10431626E+04</totfact>
</mgrwt>
</event>
<event>
 5    1  0.3206158E-002  0.1250027E+03  0.7818608E-02  0.1235065E+00
          4   -1    0    0  501    0  0.00000000000E+00  0.00000000000E+00  0.13801653667E+03  0.13802237968E+03  0.12700000000E+01 0. -1.
         -4   -1    0    0    0  501 -0.00000000000E+00 -0.00000000000E+00 -0.28283305165E+02  0.28311804094E+02  0.12700000000E+01 0. -1.
         25    2    1    2    0    0  0.00000000000E+00  0.00000000000E+00  0.10973323150E+03  0.16633418378E+03  0.12500271436E+03 0.  0.
    9000005    1    3    3    0    0  0.32781819481E+02  0.45645335012E+02  0.18491666434E+02  0.59169975700E+02  0.10000000000E+01 0.  0.
    9000005    1    3    3    0    0 -0.32781819481E+02 -0.45645335012E+02  0.91241565068E+02  0.10716420808E+03  0.10000000000E+01 0.  0.
<mgrwt>
<rscale>  0 0.12500271E+03</rscale>
<asrwt>0</asrwt>
<pdfrwt beam="1">  1        4 0.21235955E-01 0.12500271E+03</pdfrwt>
<pdfrwt beam="2">  1       -4 0.43539195E-02 0.12500271E+03</pdfrwt>
<totfact> 0.96129453E+03</totfact>
</mgrwt>
</event>
<event>
 5    1  0.3206158E-002  0.1250001E+03  0.7818608E-02  0.1235069E+00
          4   -1    0    0  501    0  0.00000000000E+00  0.00000000000E+00  0.56613881166E+03  0.56614023613E+03  0.12700000000E+01 0.  1.
         -4   -1    0    0    0  501 -0.00000000000E+00 -0.00000000000E+00 -0.68399302672E+01  0.69568344856E+01  0.12700000000E+01 0.  1.
         25    2    1    2    0    0  0.00000000000E+00  0.00000000000E+00  0.55929888139E+03  0.57309707062E+03  0.12500005449E+03 0.  0.
    9000005    1    3    3    0    0  0.16464189051E+01 -0.62047280707E+02  0.24637343003E+03  0.25407369553E+03  0.10000000000E+01 0.  0.
    9000005    1    3    3    0    0 -0.16464189051E+01  0.62047280707E+02  0.31292545136E+03  0.31902337508E+03  0.10000000000E+01 0.  0.
<mgrwt>
<rscale>  0 0.12500005E+03</rscale>
<asrwt>0</asrwt>
<pdfrwt beam="1">  1        4 0.87107401E-01 0.12500005E+03</pdfrwt>
<pdfrwt beam="2">  1       -4 0.10613989E-02 0.12500005E+03</pdfrwt>
<totfact> 0.50610991E+03</totfact>
</mgrwt>
</event>
<event>
 5    1  0.3206158E-002  0.1249686E+03  0.7818608E-02  0.1235118E+00
         -4   -1    0    0    0  501 -0.00000000000E+00  0.00000000000E+00  0.54436845509E+01  0.55898659634E+01  0.12700000000E+01 0.  1.
          4   -1    0    0  501    0  0.00000000000E+00 -0.00000000000E+00 -0.70756493030E+03  0.70756607005E+03  0.12700000000E+01 0.  1.
         25    2    1    2    0    0  0.00000000000E+00  0.00000000000E+00 -0.70212124574E+03  0.71315593601E+03  0.12496857742E+03 0.  0.
    9000005    1    3    3    0    0 -0.52593738152E+02 -0.17031264916E+02 -0.18496567819E+03  0.19305301703E+03  0.10000000000E+01 0.  0.
    9000005    1    3    3    0    0  0.52593738152E+02  0.17031264916E+02 -0.51715556755E+03  0.52010291898E+03  0.10000000000E+01 0.  0.
<mgrwt>
<rscale>  0 0.12496858E+03</rscale>
<asrwt>0</asrwt>
<pdfrwt beam="2">  1        4 0.10886740E+00 0.12496858E+03</pdfrwt>
<pdfrwt beam="1">  1       -4 0.84882289E-03 0.12496858E+03</pdfrwt>
<totfact> 0.42430434E+03</totfact>
</mgrwt>
</event>
<event>
 5    1  0.3206158E-002  0.1250166E+03  0.7818608E-02  0.1235043E+00
         -4   -1    0    0    0  501 -0.00000000000E+00  0.00000000000E+00  0.53634571461E+03  0.53634721821E+03  0.12700000000E+01 0.  1.
          4   -1    0    0  501    0  0.00000000000E+00 -0.00000000000E+00 -0.72281412134E+01  0.73388640402E+01  0.12700000000E+01 0.  1.
         25    2    1    2    0    0  0.00000000000E+00  0.00000000000E+00  0.52911757339E+03  0.54368608225E+03  0.12501659712E+03 0.  0.
    9000005    1    3    3    0    0 -0.36687172497E+02 -0.32542803626E+02  0.43306462924E+03  0.43583363315E+03  0.10000000000E+01 0.  0.
    9000005    1    3    3    0    0  0.36687172497E+02  0.32542803626E+02  0.96052944159E+02  0.10785244909E+03  0.10000000000E+01 0.  0.
<mgrwt>
<rscale>  0 0.12501660E+03</rscale>
<asrwt>0</asrwt>
<pdfrwt beam="2">  1        4 0.11206542E-02 0.12501660E+03</pdfrwt>
<pdfrwt beam="1">  1       -4 0.82523383E-01 0.12501660E+03</pdfrwt>
<totfact> 0.52608148E+03</totfact>
</mgrwt>
</event>
<event>
 5    1  0.3206158E-002  0.1249919E+03  0.7818608E-02  0.1235082E+00
         -4   -1    0    0    0  501 -0.00000000000E+00  0.00000000000E+00  0.19140674227E+03  0.19141095550E+03  0.12700000000E+01 0. -1.
          4   -1    0    0  501    0  0.00000000000E+00 -0.00000000000E+00 -0.20381249336E+02  0.20420779233E+02  0.12700000000E+01 0. -1.
         25    2    1    2    0    0  0.00000000000E+00  0.00000000000E+00  0.17102549293E+03  0.21183173473E+03  0.12499185817E+03 0.  0.
    9000005    1    3    3    0    0 -0.12952730250E+02 -0.68827664936E+00 -0.18082888077E+02  0.22276395285E+02  0.10000000000E+01 0.  0.
    9000005    1    3    3    0    0  0.12952730250E+02  0.68827664936E+00  0.18910838101E+03  0.18955533945E+03  0.10000000000E+01 0.  0.
<mgrwt>
<rscale>  0 0.12499186E+03</rscale>
<asrwt>0</asrwt>
<pdfrwt beam="2">  1        4 0.31389417E-02 0.12499186E+03</pdfrwt>
<pdfrwt beam="1">  1       -4 0.29450555E-01 0.12499186E+03</pdfrwt>
<totfact> 0.88193655E+03</totfact>
</mgrwt>
</event>
<event>
 5    1  0.3206158E-002  0.1249495E+03  0.7818608E-02  0.1235148E+00
          4   -1    0    0  501    0  0.00000000000E+00  0.00000000000E+00  0.13957279874E+03  0.13957857661E+03  0.12700000000E+01 0. -1.
         -4   -1    0    0    0  501 -0.00000000000E+00 -0.00000000000E+00 -0.27943783017E+02  0.27972627858E+02  0.12700000000E+01 0. -1.
         25    2    1    2    0    0  0.00000000000E+00  0.00000000000E+00  0.11162901572E+03  0.16755120446E+03  0.12494946565E+03 0.  0.
    9000005    1    3    3    0    0  0.18507701898E+02 -0.57380627005E+02  0.77726695760E+02  0.98374339230E+02  0.10000000000E+01 0.  0.
    9000005    1    3    3    0    0 -0.18507701898E+02  0.57380627005E+02  0.33902319959E+02  0.69176865234E+02  0.10000000000E+01 0.  0.
<mgrwt>
<rscale>  0 0.12494947E+03</rscale>
<asrwt>0</asrwt>
<pdfrwt beam="1">  1        4 0.21475402E-01 0.12494947E+03</pdfrwt>
<pdfrwt beam="2">  1       -4 0.43017068E-02 0.12494947E+03</pdfrwt>
<totfact> 0.96015332E+03</totfact>
</mgrwt>
</event>
<event>
 5    1  0.3206158E-002  0.1250001E+03  0.7818608E-02  0.1235069E+00
          4   -1    0    0  501    0  0.00000000000E+00  0.00000000000E+00  0.58435660659E+03  0.58435798665E+03  0.12700000000E+01 0. -1.
         -4   -1    0    0    0  501 -0.00000000000E+00 -0.00000000000E+00 -0.66229968479E+01  0.67436627472E+01  0.12700000000E+01 0. -1.
         25    2    1    2    0    0  0.00000000000E+00  0.00000000000E+00  0.57773360974E+03  0.59110164940E+03  0.12500014439E+03 0.  0.
    9000005    1    3    3    0    0  0.52131738700E+02 -0.38597153924E+01  0.45079953800E+03  0.45382137349E+03  0.10000000000E+01 0.  0.
    9000005    1    3    3    0    0 -0.52131738700E+02  0.38597153924E+01  0.12693407174E+03  0.13728027590E+03  0.10000000000E+01 0.  0.
<mgrwt>
<rscale>  0 0.12500014E+03</rscale>
<asrwt>0</asrwt>
<pdfrwt beam="1">  1        4 0.89910413E-01 0.12500014E+03</pdfrwt>
<pdfrwt beam="2">  1       -4 0.10283107E-02 0.12500014E+03</pdfrwt>
<totfact> 0.49434001E+03</totfact>
</mgrwt>
</event>
<event>
 5    1  0.3206158E-002  0.1249981E+03  0.7818608E-02  0.1235072E+00
          4   -1    0    0  501    0  0.00000000000E+00  0.00000000000E+00  0.18068988874E+03  0.18069435186E+03  0.12700000000E+01 0. -1.
         -4   -1    0    0    0  501 -0.00000000000E+00 -0.00000000000E+00 -0.21594474224E+02  0.21631787190E+02  0.12700000000E+01 0. -1.
         25    2    1    2    0    0  0.00000000000E+00  0.00000000000E+00  0.15909541452E+03  0.20232613905E+03  0.12499806247E+03 0.  0.
    9000005    1    3    3    0    0  0.30794246908E+02 -0.49712414345E+02  0.43881914421E+02  0.73117933477E+02  0.10000000000E+01 0.  0.
    9000005    1    3    3    0    0 -0.30794246908E+02  0.49712414345E+02  0.11521350010E+03  0.12920820557E+03  0.10000000000E+01 0.  0.
<mgrwt>
<rscale>  0 0.12499806E+03</rscale>
<asrwt>0</asrwt>
<pdfrwt beam="1">  1        4 0.27801658E-01 0.12499806E+03</pdfrwt>
<pdfrwt beam="2">  1       -4 0.33254404E-02 0.12499806E+03</pdfrwt>
<totfact> 0.89748552E+03</totfact>
</mgrwt>
</event>
<event>
 5    1  0.3206158E-002  0.1250019E+03  0.7818608E-02  0.1235066E+00
         -4   -1    0    0    0  501 -0.00000000000E+00  0.00000000000E+00  0.23549338310E+03  0.23549680759E+03  0.12700000000E+01 0. -1.
          4   -1    0    0  501    0  0.00000000000E+00 -0.00000000000E+00 -0.16560160399E+02  0.16608787205E+02  0.12700000000E+01 0. -1.
         25    2    1    2    0    0  0.00000000000E+00  0.00000000000E+00  0.21893322270E+03  0.25210559480E+03  0.12500189968E+03 0.  0.
    9000005    1    3    3    0    0 -0.57833683681E+01  0.10783530727E+00  0.23496220685E+03  0.23503552418E+03  0.10000000000E+01 0.  0.
    9000005    1    3    3    0    0  0.57833683681E+01 -0.10783530727E+00 -0.16028984146E+02  0.17070070617E+02  0.10000000000E+01 0.  0.
<mgrwt>
<rscale>  0 0.12500190E+03</rscale>
<asrwt>0</asrwt>
<pdfrwt beam="2">  1        4 0.25517212E-02 0.12500190E+03</pdfrwt>
<pdfrwt beam="1">  1       -4 0.36233751E-01 0.12500190E+03</pdfrwt>
<totfact> 0.82023385E+03</totfact>
</mgrwt>
</event>
<event>
 5    1  0.3206158E-002  0.1249947E+03  0.7818608E-02  0.1235078E+00
         -4   -1    0    0    0  501 -0.00000000000E+00  0.00000000000E+00  0.19937692842E+02  0.19978100407E+02  0.12700000000E+01 0. -1.
          4   -1    0    0  501    0  0.00000000000E+00 -0.00000000000E+00 -0.19566548339E+03  0.19566960493E+03  0.12700000000E+01 0. -1.
         25    2    1    2    0    0  0.00000000000E+00  0.00000000000E+00 -0.17572779055E+03  0.21564770533E+03  0.12499470566E+03 0.  0.
    9000005    1    3    3    0    0  0.48548109464E+01  0.19237102502E+02  0.14367947683E+02  0.24516794705E+02  0.10000000000E+01 0.  0.
    9000005    1    3    3    0    0 -0.48548109464E+01 -0.19237102502E+02 -0.19009573824E+03  0.19113091063E+03  0.10000000000E+01 0.  0.
<mgrwt>
<rscale>  0 0.12499471E+03</rscale>
<asrwt>0</asrwt>
<pdfrwt beam="2">  1        4 0.30105806E-01 0.12499471E+03</pdfrwt>
<pdfrwt beam="1">  1       -4 0.30707628E-02 0.12499471E+03</pdfrwt>
<totfact> 0.87572123E+03</totfact>
</mgrwt>
</event>
<event>
 5    1  0.3206158E-002  0.1250051E+03  0.7818608E-02  0.1235061E+00
          4   -1    0    0  501    0  0.00000000000E+00  0.00000000000E+00  0.26636133783E+03  0.26636436546E+03  0.12700000000E+01 0. -1.
         -4   -1    0    0    0  501 -0.00000000000E+00 -0.00000000000E+00 -0.14635821259E+02  0.14690819035E+02  0.12700000000E+01 0. -1.
         25    2    1    2    0    0  0.00000000000E+00  0.00000000000E+00  0.25172551657E+03  0.28105518450E+03  0.12500512406E+03 0.  0.
    9000005    1    3    3    0    0 -0.40477011115E+02 -0.37639613348E+02  0.60295659603E+02  0.81802784113E+02  0.10000000000E+01 0.  0.
    9000005    1    3    3    0    0  0.40477011115E+02  0.37639613348E+02  0.19142985696E+03  0.19925240038E+03  0.10000000000E+01 0.  0.
<mgrwt>
<rscale>  0 0.12500512E+03</rscale>
<asrwt>0</asrwt>
<pdfrwt beam="1">  1        4 0.40983131E-01 0.12500512E+03</pdfrwt>
<pdfrwt beam="2">  1       -4 0.22561283E-02 0.12500512E+03</pdfrwt>
<totfact> 0.78029514E+03</totfact>
</mgrwt>
</event>
<event>
 5    1  0.3206158E-002  0.1250010E+03  0.7818608E-02  0.1235068E+00
         -4   -1    0    0    0  501 -0.00000000000E+00  0.00000000000E+00  0.27401276540E+03  0.27401570849E+03  0.12700000000E+01 0. -1.
          4   -1    0    0  501    0  0.00000000000E+00 -0.00000000000E+00 -0.14224637730E+02  0.14281219084E+02  0.12700000000E+01 0. -1.
         25    2    1    2    0    0  0.00000000000E+00  0.00000000000E+00  0.25978812767E+03  0.28829692758E+03  0.12500098869E+03 0.  0.
    9000005    1    3    3    0    0 -0.54902695236E+02 -0.18748349495E+02  0.76323724207E+02  0.95875530923E+02  0.10000000000E+01 0.  0.
    9000005    1    3    3    0    0  0.54902695236E+02  0.18748349495E+02  0.18346440346E+03  0.19242139665E+03  0.10000000000E+01 0.  0.
<mgrwt>
<rscale>  0 0.12500099E+03</rscale>
<asrwt>0</asrwt>
<pdfrwt beam="2">  1        4 0.21929846E-02 0.12500099E+03</pdfrwt>
<pdfrwt beam="1">  1       -4 0.42160389E-01 0.12500099E+03</pdfrwt>
<totfact> 0.77089004E+03</totfact>
</mgrwt>
</event>
<event>
 5    1  0.3206158E-002  0.1250155E+03  0.7818608E-02  0.1235045E+00
         -4   -1    0    0    0  501 -0.00000000000E+00  0.00000000000E+00  0.11283469478E+03  0.11284184173E+03  0.12700000000E+01 0. -1.
          4   -1    0    0  501    0  0.00000000000E+00 -0.00000000000E+00 -0.34607910348E+02  0.34631204984E+02  0.12700000000E+01 0. -1.
         25    2    1    2    0    0  0.00000000000E+00  0.00000000000E+00  0.78226784428E+02  0.14747304671E+03  0.12501547786E+03 0.  0.
    9000005    1    3    3    0    0  0.48131758674E+01 -0.43077981269E+02  0.92227755446E+02  0.10191093173E+03  0.10000000000E+01 0.  0.
    9000005    1    3    3    0    0 -0.48131758674E+01  0.43077981269E+02 -0.14000971018E+02  0.45562114981E+02  0.10000000000E+01 0.  0.
<mgrwt>
<rscale>  0 0.12501548E+03</rscale>
<asrwt>0</asrwt>
<pdfrwt beam="2">  1        4 0.53266357E-02 0.12501548E+03</pdfrwt>
<pdfrwt beam="1">  1       -4 0.17361525E-01 0.12501548E+03</pdfrwt>
<totfact> 0.99775045E+03</totfact>
</mgrwt>
</event>
<event>
 5    1  0.3206158E-002  0.1249982E+03  0.7818608E-02  0.1235072E+00
          4   -1    0    0  501    0  0.00000000000E+00  0.00000000000E+00  0.13773359537E+02  0.13831787048E+02  0.12700000000E+01 0.  1.
         -4   -1    0    0    0  501 -0.00000000000E+00 -0.00000000000E+00 -0.28294083112E+03  0.28294368134E+03  0.12700000000E+01 0.  1.
         25    2    1    2    0    0  0.00000000000E+00  0.00000000000E+00 -0.26916747158E+03  0.29677546839E+03  0.12499820352E+03 0.  0.
    9000005    1    3    3    0    0  0.55928431164E+02 -0.27519974728E+02 -0.14514824040E+03  0.15796945943E+03  0.10000000000E+01 0.  0.
    9000005    1    3    3    0    0 -0.55928431164E+02  0.27519974728E+02 -0.12401923118E+03  0.13880600896E+03  0.10000000000E+01 0.  0.
<mgrwt>
<rscale>  0 0.12499820E+03</rscale>
<asrwt>0</asrwt>
<pdfrwt beam="1">  1        4 0.21236923E-02 0.12499820E+03</pdfrwt>
<pdfrwt beam="2">  1       -4 0.43534068E-01 0.12499820E+03</pdfrwt>
<totfact> 0.76008140E+03</totfact>
</mgrwt>
</event>
<event>
 5    1  0.3206158E-002  0.1249601E+03  0.7818608E-02  0.1235132E+00
         -4   -1    0    0    0  501 -0.00000000000E+00  0.00000000000E+00  0.27558260364E+03  0.27558552997E+03  0.12700000000E+01 0.  1.
          4   -1    0    0  501    0  0.00000000000E+00 -0.00000000000E+00 -0.14133996584E+02  0.14190939343E+02  0.12700000000E+01 0.  1.
         25    2    1    2    0    0  0.00000000000E+00  0.00000000000E+00  0.26144860705E+03  0.28977646931E+03  0.12496010578E+03 0.  0.
    9000005    1    3    3    0    0 -0.22505243995E+02 -0.55876516586E+02  0.16911580313E+03  0.17952667206E+03  0.10000000000E+01 0.  0.
    9000005    1    3    3    0    0  0.22505243995E+02  0.55876516586E+02  0.92332803925E+02  0.11024979725E+03  0.10000000000E+01 0.  0.
<mgrwt>
<rscale>  0 0.12496011E+03</rscale>
<asrwt>0</asrwt>
<pdfrwt beam="2">  1        4 0.21790664E-02 0.12496011E+03</pdfrwt>
<pdfrwt beam="1">  1       -4 0.42401928E-01 0.12496011E+03</pdfrwt>
<totfact> 0.76967608E+03</totfact>
</mgrwt>
</event>
<event>
 5    1  0.3206158E-002  0.1250001E+03  0.7818608E-02  0.1235069E+00
         -4   -1    0    0    0  501 -0.00000000000E+00  0.00000000000E+00  0.34953365004E+02  0.34976429565E+02  0.12700000000E+01 0.  1.
          4   -1    0    0  501    0  0.00000000000E+00 -0.00000000000E+00 -0.11169274545E+03  0.11169996547E+03  0.12700000000E+01 0.  1.
         25    2    1    2    0    0  0.00000000000E+00  0.00000000000E+00 -0.76739380445E+02  0.14667639504E+03  0.12500012940E+03 0.  0.
    9000005    1    3    3    0    0  0.18572080288E+02  0.91238911675E+01 -0.10756198974E+03  0.10953880222E+03  0.10000000000E+01 0.  0.
    9000005    1    3    3    0    0 -0.18572080288E+02 -0.91238911675E+01  0.30822609293E+02  0.37137592812E+02  0.10000000000E+01 0.  0.
<mgrwt>
<rscale>  0 0.12500013E+03</rscale>
<asrwt>0</asrwt>
<pdfrwt beam="2">  1        4 0.17185829E-01 0.12500013E+03</pdfrwt>
<pdfrwt beam="1">  1       -4 0.53797704E-02 0.12500013E+03</pdfrwt>
<totfact> 0.99970093E+03</totfact>
</mgrwt>
</event>
<event>
 5    1  0.3206158E-002  0.1250004E+03  0.7818608E-02  0.1235069E+00
         -4   -1    0    0    0  501 -0.00000000000E+00  0.00000000000E+00  0.42606610727E+01  0.44459119173E+01  0.12700000000E+01 0.  1.
          4   -1    0    0  501    0  0.00000000000E+00 -0.00000000000E+00 -0.89713052362E+03  0.89713142254E+03  0.12700000000E+01 0.  1.
         25    2    1    2    0    0  0.00000000000E+00  0.00000000000E+00 -0.89286986255E+03  0.90157733446E+03  0.12500039426E+03 0.  0.
    9000005    1    3    3    0    0 -0.14414002368E+02  0.24767011843E+02 -0.45885359660E+02  0.54107620267E+02  0.10000000000E+01 0.  0.
    9000005    1    3    3    0    0  0.14414002368E+02 -0.24767011843E+02 -0.84698450289E+03  0.84746971419E+03  0.10000000000E+01 0.  0.
<mgrwt>
<rscale>  0 0.12500039E+03</rscale>
<asrwt>0</asrwt>
<pdfrwt beam="2">  1        4 0.13803425E+00 0.12500039E+03</pdfrwt>
<pdfrwt beam="1">  1       -4 0.66980624E-03 0.12500039E+03</pdfrwt>
<totfact> 0.34099332E+03</totfact>
</mgrwt>
</event>
<event>
 5    1  0.3206158E-002  0.1249986E+03  0.7818608E-02  0.1235071E+00
         -4   -1    0    0    0  501 -0.00000000000E+00  0.00000000000E+00  0.18194229537E+02  0.18238500170E+02  0.12700000000E+01 0.  1.
          4   -1    0    0  501    0  0.00000000000E+00 -0.00000000000E+00 -0.21438551108E+03  0.21438927273E+03  0.12700000000E+01 0.  1.
         25    2    1    2    0    0  0.00000000000E+00  0.00000000000E+00 -0.19619128154E+03  0.23262777290E+03  0.12499864707E+03 0.  0.
    9000005    1    3    3    0    0  0.18031483945E+02  0.54207138045E+02 -0.14523614832E+03  0.15607077564E+03  0.10000000000E+01 0.  0.
    9000005    1    3    3    0    0 -0.18031483945E+02 -0.54207138045E+02 -0.50955133220E+02  0.76556997262E+02  0.10000000000E+01 0.  0.
<mgrwt>
<rscale>  0 0.12499865E+03</rscale>
<asrwt>0</asrwt>
<pdfrwt beam="2">  1        4 0.32986079E-01 0.12499865E+03</pdfrwt>
<pdfrwt beam="1">  1       -4 0.28028072E-02 0.12499865E+03</pdfrwt>
<totfact> 0.84910290E+03</totfact>
</mgrwt>
</event>
<event>
 5    1  0.3206158E-002  0.1249956E+03  0.7818608E-02  0.1235076E+00
         -4   -1    0    0    0  501 -0.00000000000E+00  0.00000000000E+00  0.10740670314E+03  0.10741421125E+03  0.12700000000E+01 0. -1.
          4   -1    0    0  501    0  0.00000000000E+00 -0.00000000000E+00 -0.36346321300E+02  0.36368502472E+02  0.12700000000E+01 0. -1.
         25    2    1    2    0    0  0.00000000000E+00  0.00000000000E+00  0.71060381839E+02  0.14378271373E+03  0.12499556352E+03 0.  0.
    9000005    1    3    3    0    0  0.12222192434E+02 -0.55297883998E+02  0.65915052182E+02  0.86908181817E+02  0.10000000000E+01 0.  0.
    9000005    1    3    3    0    0 -0.12222192434E+02  0.55297883998E+02  0.51453296575E+01  0.56874531909E+02  0.10000000000E+01 0.  0.
<mgrwt>
<rscale>  0 0.12499556E+03</rscale>
<asrwt>0</asrwt>
<pdfrwt beam="2">  1        4 0.55940255E-02 0.12499556E+03</pdfrwt>
<pdfrwt beam="1">  1       -4 0.16526392E-01 0.12499556E+03</pdfrwt>
<totfact> 0.10056784E+04</totfact>
</mgrwt>
</event>
<event>
 5    1  0.3206158E-002  0.1250288E+03  0.7818608E-02  0.1235024E+00
          4   -1    0    0  501    0  0.00000000000E+00  0.00000000000E+00  0.23212933144E+03  0.23213280556E+03  0.12700000000E+01 0.  1.
         -4   -1    0    0    0  501 -0.00000000000E+00 -0.00000000000E+00 -0.16808100189E+02  0.16856011745E+02  0.12700000000E+01 0.  1.
         25    2    1    2    0    0  0.00000000000E+00  0.00000000000E+00  0.21532123125E+03  0.24898881730E+03  0.12502879074E+03 0.  0.
    9000005    1    3    3    0    0  0.46769407278E+02  0.36568610613E+02  0.14660400984E+03  0.15817198374E+03  0.10000000000E+01 0.  0.
    9000005    1    3    3    0    0 -0.46769407278E+02 -0.36568610613E+02  0.68717221411E+02  0.90816833559E+02  0.10000000000E+01 0.  0.
<mgrwt>
<rscale>  0 0.12502879E+03</rscale>
<asrwt>0</asrwt>
<pdfrwt beam="1">  1        4 0.35716157E-01 0.12502879E+03</pdfrwt>
<pdfrwt beam="2">  1       -4 0.25898144E-02 0.12502879E+03</pdfrwt>
<totfact> 0.82423716E+03</totfact>
</mgrwt>
</event>
<event>
 5    1  0.3206158E-002  0.1249995E+03  0.7818608E-02  0.1235070E+00
         -4   -1    0    0    0  501 -0.00000000000E+00  0.00000000000E+00  0.89323328209E+01  0.90221654620E+01  0.12700000000E+01 0.  1.
          4   -1    0    0  501    0  0.00000000000E+00 -0.00000000000E+00 -0.43503373825E+03  0.43503559201E+03  0.12700000000E+01 0.  1.
         25    2    1    2    0    0  0.00000000000E+00  0.00000000000E+00 -0.42610140543E+03  0.44405775747E+03  0.12499953705E+03 0.  0.
    9000005    1    3    3    0    0 -0.38507635187E+02 -0.23710634783E+02 -0.59832776243E+02  0.75006621591E+02  0.10000000000E+01 0.  0.
    9000005    1    3    3    0    0  0.38507635187E+02  0.23710634783E+02 -0.36626862919E+03  0.36905113588E+03  0.10000000000E+01 0.  0.
<mgrwt>
<rscale>  0 0.12499954E+03</rscale>
<asrwt>0</asrwt>
<pdfrwt beam="2">  1        4 0.66935304E-01 0.12499954E+03</pdfrwt>
<pdfrwt beam="1">  1       -4 0.13812582E-02 0.12499954E+03</pdfrwt>
<totfact> 0.60482674E+03</totfact>
</mgrwt>
</event>
<event>
 5    1  0.3206158E-002  0.1249978E+03  0.7818608E-02  0.1235073E+00
          4   -1    0    0  501    0  0.00000000000E+00  0.00000000000E+00  0.25882900351E+03  0.25883211926E+03  0.12700000000E+01 0.  1.
         -4   -1    0    0    0  501 -0.00000000000E+00 -0.00000000000E+00 -0.15061546159E+02  0.15114994962E+02  0.12700000000E+01 0.  1.
         25    2    1    2    0    0  0.00000000000E+00  0.00000000000E+00  0.24376745735E+03  0.27394711422E+03  0.12499779248E+03 0.  0.
    9000005    1    3    3    0    0  0.32613605160E+02  0.53182201755E+02  0.11394590204E+03  0.12991020906E+03  0.10000000000E+01 0.  0.
    9000005    1    3    3    0    0 -0.32613605160E+02 -0.53182201755E+02  0.12982155531E+03  0.14403690516E+03  0.10000000000E+01 0.  0.
<mgrwt>
<rscale>  0 0.12499779E+03</rscale>
<asrwt>0</asrwt>
<pdfrwt beam="1">  1        4 0.39824196E-01 0.12499779E+03</pdfrwt>
<pdfrwt beam="2">  1       -4 0.23215122E-02 0.12499779E+03</pdfrwt>
<totfact> 0.78991458E+03</totfact>
</mgrwt>
</event>
<event>
 5    1  0.3206158E-002  0.1250009E+03  0.7818608E-02  0.1235068E+00
         -4   -1    0    0    0  501 -0.00000000000E+00  0.00000000000E+00  0.14791355967E+02  0.14845777559E+02  0.12700000000E+01 0. -1.
          4   -1    0    0  501    0  0.00000000000E+00 -0.00000000000E+00 -0.26355274674E+03  0.26355580664E+03  0.12700000000E+01 0. -1.
         25    2    1    2    0    0  0.00000000000E+00  0.00000000000E+00 -0.24876139078E+03  0.27840158420E+03  0.12500085018E+03 0.  0.
    9000005    1    3    3    0    0 -0.38308955196E+02 -0.45593589788E+02 -0.16657722335E+03  0.17690484113E+03  0.10000000000E+01 0.  0.
    9000005    1    3    3    0    0  0.38308955196E+02  0.45593589788E+02 -0.82184167429E+02  0.10149674307E+03  0.10000000000E+01 0.  0.
<mgrwt>
<rscale>  0 0.12500085E+03</rscale>
<asrwt>0</asrwt>
<pdfrwt beam="2">  1        4 0.40550995E-01 0.12500085E+03</pdfrwt>
<pdfrwt beam="1">  1       -4 0.22800151E-02 0.12500085E+03</pdfrwt>
<totfact> 0.78389042E+03</totfact>
</mgrwt>
</event>
<event>
 5    1  0.3206158E-002  0.1250039E+03  0.7818608E-02  0.1235063E+00
          4   -1    0    0  501    0  0.00000000000E+00  0.00000000000E+00  0.28453872494E+02  0.28482200756E+02  0.12700000000E+01 0. -1.
         -4   -1    0    0    0  501 -0.00000000000E+00 -0.00000000000E+00 -0.13719269438E+03  0.13719857248E+03  0.12700000000E+01 0. -1.
         25    2    1    2    0    0  0.00000000000E+00  0.00000000000E+00 -0.10873882188E+03  0.16568077324E+03  0.12500394888E+03 0.  0.
    9000005    1    3    3    0    0 -0.16532590325E+02 -0.37348070971E+02  0.83222392281E+01  0.41694899135E+02  0.10000000000E+01 0.  0.
    9000005    1    3    3    0    0  0.16532590325E+02  0.37348070971E+02 -0.11706106111E+03  0.12398587410E+03  0.10000000000E+01 0.  0.
<mgrwt>
<rscale>  0 0.12500395E+03</rscale>
<asrwt>0</asrwt>
<pdfrwt beam="1">  1        4 0.43801502E-02 0.12500395E+03</pdfrwt>
<pdfrwt beam="2">  1       -4 0.21109199E-01 0.12500395E+03</pdfrwt>
<totfact> 0.96250082E+03</totfact>
</mgrwt>
</event>
<event>
 5    1  0.3206158E-002  0.1250008E+03  0.7818608E-02  0.1235068E+00
          4   -1    0    0  501    0  0.00000000000E+00  0.00000000000E+00  0.20873405722E+03  0.20873792072E+03  0.12700000000E+01 0. -1.
         -4   -1    0    0    0  501 -0.00000000000E+00 -0.00000000000E+00 -0.18688641802E+02  0.18731743977E+02  0.12700000000E+01 0. -1.
         25    2    1    2    0    0  0.00000000000E+00  0.00000000000E+00  0.19004541542E+03  0.22746966469E+03  0.12500075373E+03 0.  0.
    9000005    1    3    3    0    0 -0.59249854919E+02 -0.45267461230E+01  0.59818240429E+02  0.84322349508E+02  0.10000000000E+01 0.  0.
    9000005    1    3    3    0    0  0.59249854919E+02  0.45267461230E+01  0.13022717499E+03  0.14314731519E+03  0.10000000000E+01 0.  0.
<mgrwt>
<rscale>  0 0.12500075E+03</rscale>
<asrwt>0</asrwt>
<pdfrwt beam="1">  1        4 0.32116546E-01 0.12500075E+03</pdfrwt>
<pdfrwt beam="2">  1       -4 0.28787883E-02 0.12500075E+03</pdfrwt>
<totfact> 0.85698209E+03</totfact>
</mgrwt>
</event>
<event>
 5    1  0.3206158E-002  0.1249997E+03  0.7818608E-02  0.1235070E+00
         -4   -1    0    0    0  501 -0.00000000000E+00  0.00000000000E+00  0.93633521234E+01  0.94490879447E+01  0.12700000000E+01 0.  1.
          4   -1    0    0  501    0  0.00000000000E+00 -0.00000000000E+00 -0.41519470509E+03  0.41519664743E+03  0.12700000000E+01 0.  1.
         25    2    1    2    0    0  0.00000000000E+00  0.00000000000E+00 -0.40583135297E+03  0.42464573538E+03  0.12499965408E+03 0.  0.
    9000005    1    3    3    0    0 -0.47055640892E+02 -0.40054237795E+02 -0.23453917720E+03  0.24254525546E+03  0.10000000000E+01 0.  0.
    9000005    1    3    3    0    0  0.47055640892E+02  0.40054237795E+02 -0.17129217578E+03  0.18210047992E+03  0.10000000000E+01 0.  0.
<mgrwt>
<rscale>  0 0.12499965E+03</rscale>
<asrwt>0</asrwt>
<pdfrwt beam="2">  1        4 0.63882839E-01 0.12499965E+03</pdfrwt>
<pdfrwt beam="1">  1       -4 0.14472605E-02 0.12499965E+03</pdfrwt>
<totfact> 0.62224820E+03</totfact>
</mgrwt>
</event>
<event>
 5    1  0.3206158E-002  0.1249980E+03  0.7818608E-02  0.1235072E+00
         -4   -1    0    0    0  501 -0.00000000000E+00  0.00000000000E+00  0.57181135860E+01  0.58574502117E+01  0.12700000000E+01 0.  1.
          4   -1    0    0  501    0  0.00000000000E+00 -0.00000000000E+00 -0.67475143875E+03  0.67475263393E+03  0.12700000000E+01 0.  1.
         25    2    1    2    0    0  0.00000000000E+00  0.00000000000E+00 -0.66903332516E+03  0.68061008414E+03  0.12499798580E+03 0.  0.
    9000005    1    3    3    0    0  0.16017126994E+02 -0.55925276089E+02 -0.45879313152E+03  0.46246764469E+03  0.10000000000E+01 0.  0.
    9000005    1    3    3    0    0 -0.16017126994E+02  0.55925276089E+02 -0.21024019365E+03  0.21814243945E+03  0.10000000000E+01 0.  0.
<mgrwt>
<rscale>  0 0.12499799E+03</rscale>
<asrwt>0</asrwt>
<pdfrwt beam="2">  1        4 0.10381866E+00 0.12499799E+03</pdfrwt>
<pdfrwt beam="1">  1       -4 0.89052046E-03 0.12499799E+03</pdfrwt>
<totfact> 0.44132188E+03</totfact>
</mgrwt>
</event>
<event>
 5    1  0.3206158E-002  0.1250031E+03  0.7818608E-02  0.1235065E+00
          4   -1    0    0  501    0  0.00000000000E+00  0.00000000000E+00  0.56749041824E+02  0.56763250857E+02  0.12700000000E+01 0.  1.
         -4   -1    0    0    0  501 -0.00000000000E+00 -0.00000000000E+00 -0.68808438707E+02  0.68820157928E+02  0.12700000000E+01 0.  1.
         25    2    1    2    0    0  0.00000000000E+00  0.00000000000E+00 -0.12059396883E+02  0.12558340879E+03  0.12500305400E+03 0.  0.
    9000005    1    3    3    0    0 -0.40505314346E+02 -0.44623342987E+02  0.10585453610E+02  0.61196201334E+02  0.10000000000E+01 0.  0.
    9000005    1    3    3    0    0  0.40505314346E+02  0.44623342987E+02 -0.22644850493E+02  0.64387207452E+02  0.10000000000E+01 0.  0.
<mgrwt>
<rscale>  0 0.12500305E+03</rscale>
<asrwt>0</asrwt>
<pdfrwt beam="1">  1        4 0.87326163E-02 0.12500305E+03</pdfrwt>
<pdfrwt beam="2">  1       -4 0.10587908E-01 0.12500305E+03</pdfrwt>
<totfact> 0.10439394E+04</totfact>
</mgrwt>
</event>
<event>
 5    1  0.3206158E-002  0.1249934E+03  0.7818608E-02  0.1235080E+00
         -4   -1    0    0    0  501 -0.00000000000E+00  0.00000000000E+00  0.24829891575E+04  0.24829894823E+04  0.12700000000E+01 0.  1.
          4   -1    0    0  501    0  0.00000000000E+00 -0.00000000000E+00 -0.13163245152E+01  0.18291009347E+01  0.12700000000E+01 0.  1.
         25    2    1    2    0    0  0.00000000000E+00  0.00000000000E+00  0.24816728330E+04  0.24848185833E+04  0.12499336608E+03 0.  0.
    9000005    1    3    3    0    0 -0.15229740837E+02  0.53774943719E+02  0.17964511802E+04  0.17973206537E+04  0.10000000000E+01 0.  0.
    9000005    1    3    3    0    0  0.15229740837E+02 -0.53774943719E+02  0.68522165285E+03  0.68749792953E+03  0.10000000000E+01 0.  0.
<mgrwt>
<rscale>  0 0.12499337E+03</rscale>
<asrwt>0</asrwt>
<pdfrwt beam="2">  1        4 0.24198043E-03 0.12499337E+03</pdfrwt>
<pdfrwt beam="1">  1       -4 0.38203837E+00 0.12499337E+03</pdfrwt>
<totfact> 0.47903999E+02</totfact>
</mgrwt>
</event>
<event>
 5    1  0.3206158E-002  0.1249998E+03  0.7818608E-02  0.1235070E+00
         -4   -1    0    0    0  501 -0.00000000000E+00  0.00000000000E+00  0.90417458465E+02  0.90426377210E+02  0.12700000000E+01 0.  1.
          4   -1    0    0  501    0  0.00000000000E+00 -0.00000000000E+00 -0.43181838725E+02  0.43200510364E+02  0.12700000000E+01 0.  1.
         25    2    1    2    0    0  0.00000000000E+00  0.00000000000E+00  0.47235619739E+02  0.13362688757E+03  0.12499976524E+03 0.  0.
    9000005    1    3    3    0    0 -0.29339275307E+02 -0.32509505848E+01 -0.35264304306E+02  0.45999270792E+02  0.10000000000E+01 0.  0.
    9000005    1    3    3    0    0  0.29339275307E+02  0.32509505848E+01  0.82499924046E+02  0.87627616781E+02  0.10000000000E+01 0.  0.
<mgrwt>
<rscale>  0 0.12499977E+03</rscale>
<asrwt>0</asrwt>
<pdfrwt beam="2">  1        4 0.66454821E-02 0.12499977E+03</pdfrwt>
<pdfrwt beam="1">  1       -4 0.13912501E-01 0.12499977E+03</pdfrwt>
<totfact> 0.10267149E+04</totfact>
</mgrwt>
</event>
<event>
 5    1  0.3206158E-002  0.1250036E+03  0.7818608E-02  0.1235064E+00
         -4   -1    0    0    0  501 -0.00000000000E+00  0.00000000000E+00  0.69103567403E+01  0.70260892592E+01  0.12700000000E+01 0. -1.
          4   -1    0    0  501    0  0.00000000000E+00 -0.00000000000E+00 -0.56049659421E+03  0.56049803303E+03  0.12700000000E+01 0. -1.
         25    2    1    2    0    0  0.00000000000E+00  0.00000000000E+00 -0.55358623747E+03  0.56752412229E+03  0.12500362817E+03 0.  0.
    9000005    1    3    3    0    0  0.39309222083E+02 -0.48554283646E+02 -0.26927337029E+03  0.27642699099E+03  0.10000000000E+01 0.  0.
    9000005    1    3    3    0    0 -0.39309222083E+02  0.48554283646E+02 -0.28431286719E+03  0.29109713130E+03  0.10000000000E+01 0.  0.
<mgrwt>
<rscale>  0 0.12500363E+03</rscale>
<asrwt>0</asrwt>
<pdfrwt beam="2">  1        4 0.86239223E-01 0.12500363E+03</pdfrwt>
<pdfrwt beam="1">  1       -4 0.10721454E-02 0.12500363E+03</pdfrwt>
<totfact> 0.50979874E+03</totfact>
</mgrwt>
</event>
<event>
 5    1  0.3206158E-002  0.1250076E+03  0.7818608E-02  0.1235057E+00
         -4   -1    0    0    0  501 -0.00000000000E+00  0.00000000000E+00  0.69851038065E+02  0.69862582394E+02  0.12700000000E+01 0. -1.
          4   -1    0    0  501    0  0.00000000000E+00 -0.00000000000E+00 -0.55906016268E+02  0.55920439509E+02  0.12700000000E+01 0. -1.
         25    2    1    2    0    0  0.00000000000E+00  0.00000000000E+00  0.13945021797E+02  0.12578302190E+03  0.12500761963E+03 0.  0.
    9000005    1    3    3    0    0  0.53195039735E+02  0.24485736931E+02 -0.14990909865E+02  0.60456521104E+02  0.10000000000E+01 0.  0.
    9000005    1    3    3    0    0 -0.53195039735E+02 -0.24485736931E+02  0.28935931662E+02  0.65326500799E+02  0.10000000000E+01 0.  0.
<mgrwt>
<rscale>  0 0.12500762E+03</rscale>
<asrwt>0</asrwt>
<pdfrwt beam="2">  1        4 0.86029231E-02 0.12500762E+03</pdfrwt>
<pdfrwt beam="1">  1       -4 0.10748311E-01 0.12500762E+03</pdfrwt>
<totfact> 0.10433925E+04</totfact>
</mgrwt>
</event>
<event>
 5    1  0.3206158E-002  0.1250022E+03  0.7818608E-02  0.1235066E+00
         -4   -1    0    0    0  501 -0.00000000000E+00  0.00000000000E+00  0.13914535907E+03  0.13915115469E+03  0.12700000000E+01 0.  1.
          4   -1    0    0  501    0  0.00000000000E+00 -0.00000000000E+00 -0.28053381387E+02  0.28082113654E+02  0.12700000000E+01 0.  1.
         25    2    1    2    0    0  0.00000000000E+00  0.00000000000E+00  0.11109197768E+03  0.16723326834E+03  0.12500215412E+03 0.  0.
    9000005    1    3    3    0    0 -0.91966274249E+01 -0.39518868367E+02 -0.80411982046E+01  0.41376077406E+02  0.10000000000E+01 0.  0.
    9000005    1    3    3    0    0  0.91966274249E+01  0.39518868367E+02  0.11913317589E+03  0.12585719093E+03  0.10000000000E+01 0.  0.
<mgrwt>
<rscale>  0 0.12500215E+03</rscale>
<asrwt>0</asrwt>
<pdfrwt beam="2">  1        4 0.43185609E-02 0.12500215E+03</pdfrwt>
<pdfrwt beam="1">  1       -4 0.21409634E-01 0.12500215E+03</pdfrwt>
<totfact> 0.95961468E+03</totfact>
</mgrwt>
</event>
<event>
 5    1  0.3206158E-002  0.1249959E+03  0.7818608E-02  0.1235076E+00
         -4   -1    0    0    0  501 -0.00000000000E+00  0.00000000000E+00  0.29063599948E+03  0.29063877425E+03  0.12700000000E+01 0.  1.
          4   -1    0    0  501    0  0.00000000000E+00 -0.00000000000E+00 -0.13406628922E+02  0.13466647655E+02  0.12700000000E+01 0.  1.
         25    2    1    2    0    0  0.00000000000E+00  0.00000000000E+00  0.27722937056E+03  0.30410542190E+03  0.12499593485E+03 0.  0.
    9000005    1    3    3    0    0  0.31385309671E+02  0.44089572035E+02  0.62605112606E+02  0.82760667891E+02  0.10000000000E+01 0.  0.
    9000005    1    3    3    0    0 -0.31385309671E+02 -0.44089572035E+02  0.21462425796E+03  0.22134475401E+03  0.10000000000E+01 0.  0.
<mgrwt>
<rscale>  0 0.12499593E+03</rscale>
<asrwt>0</asrwt>
<pdfrwt beam="2">  1        4 0.20673885E-02 0.12499593E+03</pdfrwt>
<pdfrwt beam="1">  1       -4 0.44718062E-01 0.12499593E+03</pdfrwt>
<totfact> 0.75093504E+03</totfact>
</mgrwt>
</event>
<event>
 5    1  0.3206158E-002  0.1250018E+03  0.7818608E-02  0.1235066E+00
          4   -1    0    0  501    0  0.00000000000E+00  0.00000000000E+00  0.20323525994E+03  0.20323922796E+03  0.12700000000E+01 0. -1.
         -4   -1    0    0    0  501 -0.00000000000E+00 -0.00000000000E+00 -0.19195754871E+02  0.19237720891E+02  0.12700000000E+01 0. -1.
         25    2    1    2    0    0  0.00000000000E+00  0.00000000000E+00  0.18403950507E+03  0.22247694885E+03  0.12500181337E+03 0.  0.
    9000005    1    3    3    0    0 -0.53068975799E+02  0.26890632536E+02  0.57973112656E+02  0.83074088028E+02  0.10000000000E+01 0.  0.
    9000005    1    3    3    0    0  0.53068975799E+02 -0.26890632536E+02  0.12606639241E+03  0.13940286083E+03  0.10000000000E+01 0.  0.
<mgrwt>
<rscale>  0 0.12500181E+03</rscale>
<asrwt>0</asrwt>
<pdfrwt beam="1">  1        4 0.31270497E-01 0.12500181E+03</pdfrwt>
<pdfrwt beam="2">  1       -4 0.29567264E-02 0.12500181E+03</pdfrwt>
<totfact> 0.86474413E+03</totfact>
</mgrwt>
</event>
<event>
 5    1  0.3206158E-002  0.1250035E+03  0.7818608E-02  0.1235064E+00
          4   -1    0    0  501    0  0.00000000000E+00  0.00000000000E+00  0.61807680408E+01  0.63098964789E+01  0.12700000000E+01 0. -1.
         -4   -1    0    0    0  501 -0.00000000000E+00 -0.00000000000E+00 -0.62537266381E+03  0.62537395336E+03  0.12700000000E+01 0. -1.
         25    2    1    2    0    0  0.00000000000E+00  0.00000000000E+00 -0.61919189577E+03  0.63168384984E+03  0.12500352939E+03 0.  0.
    9000005    1    3    3    0    0 -0.13088020809E+02 -0.60772497528E+02 -0.34190479776E+03  0.34751184653E+03  0.10000000000E+01 0.  0.
    9000005    1    3    3    0    0  0.13088020809E+02  0.60772497528E+02 -0.27728709801E+03  0.28417200331E+03  0.10000000000E+01 0.  0.
<mgrwt>
<rscale>  0 0.12500353E+03</rscale>
<asrwt>0</asrwt>
<pdfrwt beam="1">  1        4 0.96092004E-03 0.12500353E+03</pdfrwt>
<pdfrwt beam="2">  1       -4 0.96221162E-01 0.12500353E+03</pdfrwt>
<totfact> 0.46923213E+03</totfact>
</mgrwt>
</event>
<event>
 5    1  0.3206158E-002  0.1250150E+03  0.7818608E-02  0.1235046E+00
         -4   -1    0    0    0  501 -0.00000000000E+00  0.00000000000E+00  0.18082114795E+03  0.18082560782E+03  0.12700000000E+01 0.  1.
          4   -1    0    0  501    0  0.00000000000E+00 -0.00000000000E+00 -0.21584629360E+02  0.21621959315E+02  0.12700000000E+01 0.  1.
         25    2    1    2    0    0  0.00000000000E+00  0.00000000000E+00  0.15923651859E+03  0.20244756714E+03  0.12501499346E+03 0.  0.
    9000005    1    3    3    0    0 -0.13924118742E+02 -0.49134102005E+02  0.21272104008E+02  0.55331216068E+02  0.10000000000E+01 0.  0.
    9000005    1    3    3    0    0  0.13924118742E+02  0.49134102005E+02  0.13796441458E+03  0.14711635107E+03  0.10000000000E+01 0.  0.
<mgrwt>
<rscale>  0 0.12501499E+03</rscale>
<asrwt>0</asrwt>
<pdfrwt beam="2">  1        4 0.33239267E-02 0.12501499E+03</pdfrwt>
<pdfrwt beam="1">  1       -4 0.27821853E-01 0.12501499E+03</pdfrwt>
<totfact> 0.89694249E+03</totfact>
</mgrwt>
</event>
<event>
 5    1  0.3206158E-002  0.1249996E+03  0.7818608E-02  0.1235070E+00
          4   -1    0    0  501    0  0.00000000000E+00  0.00000000000E+00  0.22781082865E+03  0.22781436863E+03  0.12700000000E+01 0. -1.
         -4   -1    0    0    0  501 -0.00000000000E+00 -0.00000000000E+00 -0.17119606160E+02  0.17166648336E+02  0.12700000000E+01 0. -1.
         25    2    1    2    0    0  0.00000000000E+00  0.00000000000E+00  0.21069122249E+03  0.24498101696E+03  0.12499962974E+03 0.  0.
    9000005    1    3    3    0    0  0.42453473624E+02  0.43052331506E+02  0.74393182586E+02  0.95870466183E+02  0.10000000000E+01 0.  0.
    9000005    1    3    3    0    0 -0.42453473624E+02 -0.43052331506E+02  0.13629803991E+03  0.14911055078E+03  0.10000000000E+01 0.  0.
<mgrwt>
<rscale>  0 0.12499963E+03</rscale>
<asrwt>0</asrwt>
<pdfrwt beam="1">  1        4 0.35051710E-01 0.12499963E+03</pdfrwt>
<pdfrwt beam="2">  1       -4 0.26376766E-02 0.12499963E+03</pdfrwt>
<totfact> 0.83061767E+03</totfact>
</mgrwt>
</event>
<event>
 5    1  0.3206158E-002  0.1250067E+03  0.7818608E-02  0.1235059E+00
          4   -1    0    0  501    0  0.00000000000E+00  0.00000000000E+00  0.57410828600E+02  0.57424873883E+02  0.12700000000E+01 0.  1.
         -4   -1    0    0    0  501 -0.00000000000E+00 -0.00000000000E+00 -0.68019344729E+02  0.68031199882E+02  0.12700000000E+01 0.  1.
         25    2    1    2    0    0  0.00000000000E+00  0.00000000000E+00 -0.10608516130E+02  0.12545607377E+03  0.12500674314E+03 0.  0.
    9000005    1    3    3    0    0 -0.20170031883E+02  0.12661341661E+02 -0.63291974098E+02  0.67631455286E+02  0.10000000000E+01 0.  0.
    9000005    1    3    3    0    0  0.20170031883E+02 -0.12661341661E+02  0.52683457968E+02  0.57824618480E+02  0.10000000000E+01 0.  0.
<mgrwt>
<rscale>  0 0.12500674E+03</rscale>
<asrwt>0</asrwt>
<pdfrwt beam="1">  1        4 0.88344275E-02 0.12500674E+03</pdfrwt>
<pdfrwt beam="2">  1       -4 0.10466507E-01 0.12500674E+03</pdfrwt>
<totfact> 0.10441337E+04</totfact>
</mgrwt>
</event>
<event>
 5    1  0.3206158E-002  0.1249979E+03  0.7818608E-02  0.1235072E+00
         -4   -1    0    0    0  501 -0.00000000000E+00  0.00000000000E+00  0.25605820963E+02  0.25637296410E+02  0.12700000000E+01 0.  1.
          4   -1    0    0  501    0  0.00000000000E+00 -0.00000000000E+00 -0.15242035606E+03  0.15242564692E+03  0.12700000000E+01 0.  1.
         25    2    1    2    0    0  0.00000000000E+00  0.00000000000E+00 -0.12681453509E+03  0.17806294333E+03  0.12499794189E+03 0.  0.
    9000005    1    3    3    0    0 -0.46506548167E+02  0.39758130136E+02 -0.81513528862E+02  0.10192655847E+03  0.10000000000E+01 0.  0.
    9000005    1    3    3    0    0  0.46506548167E+02 -0.39758130136E+02 -0.45301006230E+02  0.76136384862E+02  0.10000000000E+01 0.  0.
<mgrwt>
<rscale>  0 0.12499794E+03</rscale>
<asrwt>0</asrwt>
<pdfrwt beam="2">  1        4 0.23452113E-01 0.12499794E+03</pdfrwt>
<pdfrwt beam="1">  1       -4 0.39421853E-02 0.12499794E+03</pdfrwt>
<totfact> 0.93971184E+03</totfact>
</mgrwt>
</event>
<event>
 5    1  0.3206158E-002  0.1249996E+03  0.7818608E-02  0.1235070E+00
         -4   -1    0    0    0  501 -0.00000000000E+00  0.00000000000E+00  0.32721906179E+01  0.35100044786E+01  0.12700000000E+01 0. -1.
          4   -1    0    0  501    0  0.00000000000E+00 -0.00000000000E+00 -0.11516677110E+04  0.11516684113E+04  0.12700000000E+01 0. -1.
         25    2    1    2    0    0  0.00000000000E+00  0.00000000000E+00 -0.11483955204E+04  0.11551784158E+04  0.12499960368E+03 0.  0.
    9000005    1    3    3    0    0 -0.10398008964E+02 -0.61616379033E+02 -0.56747956596E+03  0.57091046105E+03  0.10000000000E+01 0.  0.
    9000005    1    3    3    0    0  0.10398008964E+02  0.61616379033E+02 -0.58091595446E+03  0.58426795471E+03  0.10000000000E+01 0.  0.
<mgrwt>
<rscale>  0 0.12499960E+03</rscale>
<asrwt>0</asrwt>
<pdfrwt beam="2">  1        4 0.17719768E+00 0.12499960E+03</pdfrwt>
<pdfrwt beam="1">  1       -4 0.52176210E-03 0.12499960E+03</pdfrwt>
<totfact> 0.25917266E+03</totfact>
</mgrwt>
</event>
<event>
 5    1  0.3206158E-002  0.1250017E+03  0.7818608E-02  0.1235067E+00
          4   -1    0    0  501    0  0.00000000000E+00  0.00000000000E+00  0.73615211269E+02  0.73626165391E+02  0.12700000000E+01 0. -1.
         -4   -1    0    0    0  501 -0.00000000000E+00 -0.00000000000E+00 -0.53042024007E+02  0.53057225811E+02  0.12700000000E+01 0. -1.
         25    2    1    2    0    0  0.00000000000E+00  0.00000000000E+00  0.20573187262E+02  0.12668339120E+03  0.12500170228E+03 0.  0.
    9000005    1    3    3    0    0  0.39889286605E+02  0.44007331409E+02 -0.94056153212E+01  0.60143711252E+02  0.10000000000E+01 0.  0.
    9000005    1    3    3    0    0 -0.39889286605E+02 -0.44007331409E+02  0.29978802583E+02  0.66539679951E+02  0.10000000000E+01 0.  0.
<mgrwt>
<rscale>  0 0.12500170E+03</rscale>
<asrwt>0</asrwt>
<pdfrwt beam="1">  1        4 0.11327429E-01 0.12500170E+03</pdfrwt>
<pdfrwt beam="2">  1       -4 0.81623234E-02 0.12500170E+03</pdfrwt>
<totfact> 0.10415632E+04</totfact>
</mgrwt>
</event>
<event>
 5    1  0.3206158E-002  0.1250005E+03  0.7818608E-02  0.1235069E+00
         -4   -1    0    0    0  501 -0.00000000000E+00  0.00000000000E+00  0.33214423348E+03  0.33214666148E+03  0.12700000000E+01 0.  1.
          4   -1    0    0  501    0  0.00000000000E+00 -0.00000000000E+00 -0.11724030754E+02  0.11792616212E+02  0.12700000000E+01 0.  1.
         25    2    1    2    0    0  0.00000000000E+00  0.00000000000E+00  0.32042020272E+03  0.34393927769E+03  0.12500048170E+03 0.  0.
    9000005    1    3    3    0    0  0.50497193304E+01  0.62284224944E+02  0.15835255256E+03  0.17023911197E+03  0.10000000000E+01 0.  0.
    9000005    1    3    3    0    0 -0.50497193304E+01 -0.62284224944E+02  0.16206765016E+03  0.17370016572E+03  0.10000000000E+01 0.  0.
<mgrwt>
<rscale>  0 0.12500048E+03</rscale>
<asrwt>0</asrwt>
<pdfrwt beam="2">  1        4 0.18091596E-02 0.12500048E+03</pdfrwt>
<pdfrwt beam="1">  1       -4 0.51104576E-01 0.12500048E+03</pdfrwt>
<totfact> 0.70395743E+03</totfact>
</mgrwt>
</event>
<event>
 5    1  0.3206158E-002  0.1250027E+03  0.7818608E-02  0.1235065E+00
         -4   -1    0    0    0  501 -0.00000000000E+00  0.00000000000E+00  0.79282341312E+02  0.79292512533E+02  0.12700000000E+01 0.  1.
          4   -1    0    0  501    0  0.00000000000E+00 -0.00000000000E+00 -0.49250707704E+02  0.49267079367E+02  0.12700000000E+01 0.  1.
         25    2    1    2    0    0  0.00000000000E+00  0.00000000000E+00  0.30031633607E+02  0.12855959190E+03  0.12500267858E+03 0.  0.
    9000005    1    3    3    0    0  0.63517279989E+01  0.62166298841E+02  0.14345935874E+02  0.64123311177E+02  0.10000000000E+01 0.  0.
    9000005    1    3    3    0    0 -0.63517279989E+01 -0.62166298841E+02  0.15685697733E+02  0.64436280724E+02  0.10000000000E+01 0.  0.
<mgrwt>
<rscale>  0 0.12500268E+03</rscale>
<asrwt>0</asrwt>
<pdfrwt beam="2">  1        4 0.75790738E-02 0.12500268E+03</pdfrwt>
<pdfrwt beam="1">  1       -4 0.12199325E-01 0.12500268E+03</pdfrwt>
<totfact> 0.10374793E+04</totfact>
</mgrwt>
</event>
<event>
 5    1  0.3206158E-002  0.1250177E+03  0.7818608E-02  0.1235042E+00
         -4   -1    0    0    0  501 -0.00000000000E+00  0.00000000000E+00  0.17533227068E+03  0.17533687017E+03  0.12700000000E+01 0.  1.
          4   -1    0    0  501    0  0.00000000000E+00 -0.00000000000E+00 -0.22262460393E+02  0.22298655627E+02  0.12700000000E+01 0.  1.
         25    2    1    2    0    0  0.00000000000E+00  0.00000000000E+00  0.15306981028E+03  0.19763552579E+03  0.12501773569E+03 0.  0.
    9000005    1    3    3    0    0  0.30584194805E+02  0.28893445406E+02  0.14959961628E+03  0.15540678670E+03  0.10000000000E+01 0.  0.
    9000005    1    3    3    0    0 -0.30584194805E+02 -0.28893445406E+02  0.34701939981E+01  0.42228739097E+02  0.10000000000E+01 0.  0.
<mgrwt>
<rscale>  0 0.12501774E+03</rscale>
<asrwt>0</asrwt>
<pdfrwt beam="2">  1        4 0.34281318E-02 0.12501774E+03</pdfrwt>
<pdfrwt beam="1">  1       -4 0.26977334E-01 0.12501774E+03</pdfrwt>
<totfact> 0.90499536E+03</totfact>
</mgrwt>
</event>
<event>
 5    1  0.3206158E-002  0.1249841E+03  0.7818608E-02  0.1235094E+00
          4   -1    0    0  501    0  0.00000000000E+00  0.00000000000E+00  0.12306309349E+02  0.12371667220E+02  0.12700000000E+01 0. -1.
         -4   -1    0    0    0  501 -0.00000000000E+00 -0.00000000000E+00 -0.31643085434E+03  0.31643340291E+03  0.12700000000E+01 0. -1.
         25    2    1    2    0    0  0.00000000000E+00  0.00000000000E+00 -0.30412454499E+03  0.32880507013E+03  0.12498414011E+03 0.  0.
    9000005    1    3    3    0    0 -0.62290297959E+02 -0.45179444903E+01 -0.14695709413E+03  0.15968055786E+03  0.10000000000E+01 0.  0.
    9000005    1    3    3    0    0  0.62290297959E+02  0.45179444903E+01 -0.15716745086E+03  0.16912451227E+03  0.10000000000E+01 0.  0.
<mgrwt>
<rscale>  0 0.12498414E+03</rscale>
<asrwt>0</asrwt>
<pdfrwt beam="1">  1        4 0.18985022E-02 0.12498414E+03</pdfrwt>
<pdfrwt beam="2">  1       -4 0.48686887E-01 0.12498414E+03</pdfrwt>
<totfact> 0.72146325E+03</totfact>
</mgrwt>
</event>
<event>
 5    1  0.3206158E-002  0.1250077E+03  0.7818608E-02  0.1235057E+00
          4   -1    0    0  501    0  0.00000000000E+00  0.00000000000E+00  0.14583942559E+02  0.14639135240E+02  0.12700000000E+01 0.  1.
         -4   -1    0    0    0  501 -0.00000000000E+00 -0.00000000000E+00 -0.26731620098E+03  0.26731921780E+03  0.12700000000E+01 0.  1.
         25    2    1    2    0    0  0.00000000000E+00  0.00000000000E+00 -0.25273225842E+03  0.28195835304E+03  0.12500767338E+03 0.  0.
    9000005    1    3    3    0    0  0.42380268508E+02 -0.21090254162E+02 -0.34334943765E+02  0.58487386185E+02  0.10000000000E+01 0.  0.
    9000005    1    3    3    0    0 -0.42380268508E+02  0.21090254162E+02 -0.21839731466E+03  0.22347096686E+03  0.10000000000E+01 0.  0.
<mgrwt>
<rscale>  0 0.12500767E+03</rscale>
<asrwt>0</asrwt>
<pdfrwt beam="1">  1        4 0.22481613E-02 0.12500767E+03</pdfrwt>
<pdfrwt beam="2">  1       -4 0.41130043E-01 0.12500767E+03</pdfrwt>
<totfact> 0.77905871E+03</totfact>
</mgrwt>
</event>
<event>
 5    1  0.3206158E-002  0.1249729E+03  0.7818608E-02  0.1235112E+00
         -4   -1    0    0    0  501 -0.00000000000E+00  0.00000000000E+00  0.23557613465E+03  0.23557955794E+03  0.12700000000E+01 0. -1.
          4   -1    0    0  501    0  0.00000000000E+00 -0.00000000000E+00 -0.16546630585E+02  0.16595297036E+02  0.12700000000E+01 0. -1.
         25    2    1    2    0    0  0.00000000000E+00  0.00000000000E+00  0.21902950407E+03  0.25217485497E+03  0.12497293238E+03 0.  0.
    9000005    1    3    3    0    0  0.60661614666E+02  0.81711571054E+01  0.13479487285E+03  0.14804478055E+03  0.10000000000E+01 0.  0.
    9000005    1    3    3    0    0 -0.60661614666E+02 -0.81711571054E+01  0.84234631216E+02  0.10413007442E+03  0.10000000000E+01 0.  0.
<mgrwt>
<rscale>  0 0.12497293E+03</rscale>
<asrwt>0</asrwt>
<pdfrwt beam="2">  1        4 0.25496426E-02 0.12497293E+03</pdfrwt>
<pdfrwt beam="1">  1       -4 0.36246487E-01 0.12497293E+03</pdfrwt>
<totfact> 0.82066373E+03</totfact>
</mgrwt>
</event>
<event>
 5    1  0.3206158E-002  0.1249991E+03  0.7818608E-02  0.1235071E+00
         -4   -1    0    0    0  501 -0.00000000000E+00  0.00000000000E+00  0.26485724254E+03  0.26486028737E+03  0.12700000000E+01 0. -1.
          4   -1    0    0  501    0  0.00000000000E+00 -0.00000000000E+00 -0.14717820550E+02  0.14772513048E+02  0.12700000000E+01 0. -1.
         25    2    1    2    0    0  0.00000000000E+00  0.00000000000E+00  0.25013942199E+03  0.27963280041E+03  0.12499909054E+03 0.  0.
    9000005    1    3    3    0    0 -0.52297612622E+02 -0.12096355080E+02  0.53489098442E+02  0.75785524635E+02  0.10000000000E+01 0.  0.
    9000005    1    3    3    0    0  0.52297612622E+02  0.12096355080E+02  0.19665032354E+03  0.20384727578E+03  0.10000000000E+01 0.  0.
<mgrwt>
<rscale>  0 0.12499909E+03</rscale>
<asrwt>0</asrwt>
<pdfrwt beam="2">  1        4 0.22687214E-02 0.12499909E+03</pdfrwt>
<pdfrwt beam="1">  1       -4 0.40751710E-01 0.12499909E+03</pdfrwt>
<totfact> 0.78228398E+03</totfact>
</mgrwt>
</event>
<event>
 5    1  0.3206158E-002  0.1249980E+03  0.7818608E-02  0.1235072E+00
          4   -1    0    0  501    0  0.00000000000E+00  0.00000000000E+00  0.14921137575E+03  0.14921678040E+03  0.12700000000E+01 0.  1.
         -4   -1    0    0    0  501 -0.00000000000E+00 -0.00000000000E+00 -0.26157174053E+02  0.26187986835E+02  0.12700000000E+01 0.  1.
         25    2    1    2    0    0  0.00000000000E+00  0.00000000000E+00  0.12305420169E+03  0.17540476723E+03  0.12499798324E+03 0.  0.
    9000005    1    3    3    0    0 -0.43206736084E+02 -0.10046499316E+02 -0.23821195365E+00  0.44371285044E+02  0.10000000000E+01 0.  0.
    9000005    1    3    3    0    0  0.43206736084E+02  0.10046499316E+02  0.12329241365E+03  0.13103348219E+03  0.10000000000E+01 0.  0.
<mgrwt>
<rscale>  0 0.12499798E+03</rscale>
<asrwt>0</asrwt>
<pdfrwt beam="1">  1        4 0.22958382E-01 0.12499798E+03</pdfrwt>
<pdfrwt beam="2">  1       -4 0.40269666E-02 0.12499798E+03</pdfrwt>
<totfact> 0.94455034E+03</totfact>
</mgrwt>
</event>
<event>
 5    1  0.3206158E-002  0.1250050E+03  0.7818608E-02  0.1235061E+00
          4   -1    0    0  501    0  0.00000000000E+00  0.00000000000E+00  0.37934961173E+01  0.40004390749E+01  0.12700000000E+01 0. -1.
         -4   -1    0    0    0  501 -0.00000000000E+00 -0.00000000000E+00 -0.10022545590E+04  0.10022553637E+04  0.12700000000E+01 0. -1.
         25    2    1    2    0    0  0.00000000000E+00  0.00000000000E+00 -0.99846106292E+03  0.10062558027E+04  0.12500498548E+03 0.  0.
    9000005    1    3    3    0    0  0.41678395785E+01  0.60334740086E+02 -0.62597469105E+03  0.62889026514E+03  0.10000000000E+01 0.  0.
    9000005    1    3    3    0    0 -0.41678395785E+01 -0.60334740086E+02 -0.37248637187E+03  0.37736553761E+03  0.10000000000E+01 0.  0.
<mgrwt>
<rscale>  0 0.12500499E+03</rscale>
<asrwt>0</asrwt>
<pdfrwt beam="1">  1        4 0.59959617E-03 0.12500499E+03</pdfrwt>
<pdfrwt beam="2">  1       -4 0.15420878E+00 0.12500499E+03</pdfrwt>
<totfact> 0.30395553E+03</totfact>
</mgrwt>
</event>
<event>
 5    1  0.3206158E-002  0.1250003E+03  0.7818608E-02  0.1235069E+00
          4   -1    0    0  501    0  0.00000000000E+00  0.00000000000E+00  0.64905565440E+03  0.64905689690E+03  0.12700000000E+01 0. -1.
         -4   -1    0    0    0  501 -0.00000000000E+00 -0.00000000000E+00 -0.59501289622E+01  0.60841543921E+01  0.12700000000E+01 0. -1.
         25    2    1    2    0    0  0.00000000000E+00  0.00000000000E+00  0.64310552544E+03  0.65514105129E+03  0.12500032094E+03 0.  0.
    9000005    1    3    3    0    0 -0.31170313070E+02  0.31067173464E+02  0.55409013463E+03  0.55583597848E+03  0.10000000000E+01 0.  0.
    9000005    1    3    3    0    0  0.31170313070E+02 -0.31067173464E+02  0.89015390814E+02  0.99305072810E+02  0.10000000000E+01 0.  0.
<mgrwt>
<rscale>  0 0.12500032E+03</rscale>
<asrwt>0</asrwt>
<pdfrwt beam="1">  1        4 0.99865080E-01 0.12500032E+03</pdfrwt>
<pdfrwt beam="2">  1       -4 0.92581006E-03 0.12500032E+03</pdfrwt>
<totfact> 0.45561664E+03</totfact>
</mgrwt>
</event>
<event>
 5    1  0.3206158E-002  0.1250000E+03  0.7818608E-02  0.1235069E+00
         -4   -1    0    0    0  501 -0.00000000000E+00  0.00000000000E+00  0.45071698094E+02  0.45089587147E+02  0.12700000000E+01 0. -1.
          4   -1    0    0  501    0  0.00000000000E+00 -0.00000000000E+00 -0.86627746663E+02  0.86637055536E+02  0.12700000000E+01 0. -1.
         25    2    1    2    0    0  0.00000000000E+00  0.00000000000E+00 -0.41556048570E+02  0.13172664268E+03  0.12500001288E+03 0.  0.
    9000005    1    3    3    0    0  0.49672474491E+02 -0.37915394227E+02 -0.20182863803E+02  0.65675564959E+02  0.10000000000E+01 0.  0.
    9000005    1    3    3    0    0 -0.49672474491E+02  0.37915394227E+02 -0.21373184767E+02  0.66051077724E+02  0.10000000000E+01 0.  0.
<mgrwt>
<rscale>  0 0.12500001E+03</rscale>
<asrwt>0</asrwt>
<pdfrwt beam="2">  1        4 0.13329438E-01 0.12500001E+03</pdfrwt>
<pdfrwt beam="1">  1       -4 0.69361996E-02 0.12500001E+03</pdfrwt>
<totfact> 0.10307533E+04</totfact>
</mgrwt>
</event>
<event>
 5    1  0.3206158E-002  0.1249988E+03  0.7818608E-02  0.1235071E+00
         -4   -1    0    0    0  501 -0.00000000000E+00  0.00000000000E+00  0.63178847906E+02  0.63191611174E+02  0.12700000000E+01 0. -1.
          4   -1    0    0  501    0  0.00000000000E+00 -0.00000000000E+00 -0.61801704450E+02  0.61814752065E+02  0.12700000000E+01 0. -1.
         25    2    1    2    0    0  0.00000000000E+00  0.00000000000E+00  0.13771434564E+01  0.12500636324E+03  0.12499877730E+03 0.  0.
    9000005    1    3    3    0    0  0.47557784522E+02 -0.30926593912E+02  0.26900398964E+02  0.62791946490E+02  0.10000000000E+01 0.  0.
    9000005    1    3    3    0    0 -0.47557784522E+02  0.30926593912E+02 -0.25523255507E+02  0.62214416748E+02  0.10000000000E+01 0.  0.
<mgrwt>
<rscale>  0 0.12499878E+03</rscale>
<asrwt>0</asrwt>
<pdfrwt beam="2">  1        4 0.95099401E-02 0.12499878E+03</pdfrwt>
<pdfrwt beam="1">  1       -4 0.97218081E-02 0.12499878E+03</pdfrwt>
<totfact> 0.10453013E+04</totfact>
</mgrwt>
</event>
<event>
 5    1  0.3206158E-002  0.1249979E+03  0.7818608E-02  0.1235073E+00
         -4   -1    0    0    0  501 -0.00000000000E+00  0.00000000000E+00  0.40836794832E+01  0.42766035731E+01  0.12700000000E+01 0.  1.
          4   -1    0    0  501    0  0.00000000000E+00 -0.00000000000E+00 -0.93425262192E+03  0.93425348512E+03  0.12700000000E+01 0.  1.
         25    2    1    2    0    0  0.00000000000E+00  0.00000000000E+00 -0.93016894243E+03  0.93853008869E+03  0.12499786364E+03 0.  0.
    9000005    1    3    3    0    0 -0.47130857920E+02  0.38503520930E+02 -0.57160745374E+03  0.57483903840E+03  0.10000000000E+01 0.  0.
    9000005    1    3    3    0    0  0.47130857920E+02 -0.38503520930E+02 -0.35856148869E+03  0.36369105030E+03  0.10000000000E+01 0.  0.
<mgrwt>
<rscale>  0 0.12499786E+03</rscale>
<asrwt>0</asrwt>
<pdfrwt beam="2">  1        4 0.14374591E+00 0.12499786E+03</pdfrwt>
<pdfrwt beam="1">  1       -4 0.64316584E-03 0.12499786E+03</pdfrwt>
<totfact> 0.32728296E+03</totfact>
</mgrwt>
</event>
<event>
 5    1  0.3206158E-002  0.1250010E+03  0.7818608E-02  0.1235068E+00
         -4   -1    0    0    0  501 -0.00000000000E+00  0.00000000000E+00  0.23855230496E+03  0.23855568554E+03  0.12700000000E+01 0.  1.
          4   -1    0    0  501    0  0.00000000000E+00 -0.00000000000E+00 -0.16346960724E+02  0.16396219836E+02  0.12700000000E+01 0.  1.
         25    2    1    2    0    0  0.00000000000E+00  0.00000000000E+00  0.22220534424E+03  0.25495190537E+03  0.12500103618E+03 0.  0.
    9000005    1    3    3    0    0 -0.17897694663E+01 -0.44411668335E+02  0.21506128099E+02  0.49387377992E+02  0.10000000000E+01 0.  0.
    9000005    1    3    3    0    0  0.17897694663E+01  0.44411668335E+02  0.20069921614E+03  0.20556452738E+03  0.10000000000E+01 0.  0.
<mgrwt>
<rscale>  0 0.12500104E+03</rscale>
<asrwt>0</asrwt>
<pdfrwt beam="2">  1        4 0.25189663E-02 0.12500104E+03</pdfrwt>
<pdfrwt beam="1">  1       -4 0.36704403E-01 0.12500104E+03</pdfrwt>
<totfact> 0.81617867E+03</totfact>
</mgrwt>
</event>
<event>
 5    1  0.3206158E-002  0.1249993E+03  0.7818608E-02  0.1235070E+00
          4   -1    0    0  501    0  0.00000000000E+00  0.00000000000E+00  0.12594298784E+02  0.12658169767E+02  0.12700000000E+01 0. -1.
         -4   -1    0    0    0  501 -0.00000000000E+00 -0.00000000000E+00 -0.30930727388E+03  0.30930988114E+03  0.12700000000E+01 0. -1.
         25    2    1    2    0    0  0.00000000000E+00  0.00000000000E+00 -0.29671297509E+03  0.32196805091E+03  0.12499934487E+03 0.  0.
    9000005    1    3    3    0    0 -0.39037988075E+02 -0.42772975186E+02 -0.20885758855E+03  0.21673943853E+03  0.10000000000E+01 0.  0.
    9000005    1    3    3    0    0  0.39037988075E+02  0.42772975186E+02 -0.87855386543E+02  0.10522861238E+03  0.10000000000E+01 0.  0.
<mgrwt>
<rscale>  0 0.12499934E+03</rscale>
<asrwt>0</asrwt>
<pdfrwt beam="1">  1        4 0.19426984E-02 0.12499934E+03</pdfrwt>
<pdfrwt beam="2">  1       -4 0.47590842E-01 0.12499934E+03</pdfrwt>
<totfact> 0.72923723E+03</totfact>
</mgrwt>
</event>
<event>
 5    1  0.3206158E-002  0.1250010E+03  0.7818608E-02  0.1235068E+00
          4   -1    0    0  501    0  0.00000000000E+00  0.00000000000E+00  0.39110717239E+03  0.39110923435E+03  0.12700000000E+01 0.  1.
         -4   -1    0    0    0  501 -0.00000000000E+00 -0.00000000000E+00 -0.99453701766E+01  0.10026130258E+02  0.12700000000E+01 0.  1.
         25    2    1    2    0    0  0.00000000000E+00  0.00000000000E+00  0.38116180221E+03  0.40113536461E+03  0.12500104509E+03 0.  0.
    9000005    1    3    3    0    0 -0.23493262551E+01 -0.37856361828E+02  0.31200558008E+02  0.49123296761E+02  0.10000000000E+01 0.  0.
    9000005    1    3    3    0    0  0.23493262551E+01  0.37856361828E+02  0.34996124421E+03  0.35201206785E+03  0.10000000000E+01 0.  0.
<mgrwt>
<rscale>  0 0.12500105E+03</rscale>
<asrwt>0</asrwt>
<pdfrwt beam="1">  1        4 0.60176705E-01 0.12500105E+03</pdfrwt>
<pdfrwt beam="2">  1       -4 0.15364279E-02 0.12500105E+03</pdfrwt>
<totfact> 0.64441026E+03</totfact>
</mgrwt>
</event>
<event>
 5    1  0.3206158E-002  0.1249953E+03  0.7818608E-02  0.1235077E+00
         -4   -1    0    0    0  501 -0.00000000000E+00  0.00000000000E+00  0.43764662481E+02  0.43783085571E+02  0.12700000000E+01 0.  1.
          4   -1    0    0  501    0  0.00000000000E+00 -0.00000000000E+00 -0.89207333117E+02  0.89216372835E+02  0.12700000000E+01 0.  1.
         25    2    1    2    0    0  0.00000000000E+00  0.00000000000E+00 -0.45442670635E+02  0.13299945841E+03  0.12499527840E+03 0.  0.
    9000005    1    3    3    0    0 -0.28102538375E+02 -0.23850713833E+02 -0.76413998518E+02  0.84845202475E+02  0.10000000000E+01 0.  0.
    9000005    1    3    3    0    0  0.28102538375E+02  0.23850713833E+02  0.30971327883E+02  0.48154255931E+02  0.10000000000E+01 0.  0.
<mgrwt>
<rscale>  0 0.12499528E+03</rscale>
<asrwt>0</asrwt>
<pdfrwt beam="2">  1        4 0.13726318E-01 0.12499528E+03</pdfrwt>
<pdfrwt beam="1">  1       -4 0.67351375E-02 0.12499528E+03</pdfrwt>
<totfact> 0.10281506E+04</totfact>
</mgrwt>
</event>
<event>
 5    1  0.3206158E-002  0.1250018E+03  0.7818608E-02  0.1235067E+00
         -4   -1    0    0    0  501 -0.00000000000E+00  0.00000000000E+00  0.11941147169E+02  0.12008492650E+02  0.12700000000E+01 0.  1.
          4   -1    0    0  501    0  0.00000000000E+00 -0.00000000000E+00 -0.32614599687E+03  0.32614846953E+03  0.12700000000E+01 0.  1.
         25    2    1    2    0    0  0.00000000000E+00  0.00000000000E+00 -0.31420484970E+03  0.33815696218E+03  0.12500177396E+03 0.  0.
    9000005    1    3    3    0    0  0.52936959340E+02 -0.88493827741E+01 -0.70504720164E+02  0.88614608305E+02  0.10000000000E+01 0.  0.
    9000005    1    3    3    0    0 -0.52936959340E+02  0.88493827741E+01 -0.24370012954E+03  0.24954235387E+03  0.10000000000E+01 0.  0.
<mgrwt>
<rscale>  0 0.12500177E+03</rscale>
<asrwt>0</asrwt>
<pdfrwt beam="2">  1        4 0.50181671E-01 0.12500177E+03</pdfrwt>
<pdfrwt beam="1">  1       -4 0.18424704E-02 0.12500177E+03</pdfrwt>
<totfact> 0.71044603E+03</totfact>
</mgrwt>
</event>
<event>
 5    1  0.3206158E-002  0.1250014E+03  0.7818608E-02  0.1235067E+00
          4   -1    0    0  501    0  0.00000000000E+00  0.00000000000E+00  0.66004781296E+02  0.66016998220E+02  0.12700000000E+01 0.  1.
         -4   -1    0    0    0  501 -0.00000000000E+00 -0.00000000000E+00 -0.59158133539E+02  0.59171764075E+02  0.12700000000E+01 0.  1.
         25    2    1    2    0    0  0.00000000000E+00  0.00000000000E+00  0.68466477573E+01  0.12518876229E+03  0.12500139847E+03 0.  0.
    9000005    1    3    3    0    0  0.44371623520E+02 -0.84325287460E+01  0.46678209392E+02  0.64960016524E+02  0.10000000000E+01 0.  0.
    9000005    1    3    3    0    0 -0.44371623520E+02  0.84325287460E+01 -0.39831561635E+02  0.60228745770E+02  0.10000000000E+01 0.  0.
<mgrwt>
<rscale>  0 0.12500140E+03</rscale>
<asrwt>0</asrwt>
<pdfrwt beam="1">  1        4 0.10156570E-01 0.12500140E+03</pdfrwt>
<pdfrwt beam="2">  1       -4 0.91032396E-02 0.12500140E+03</pdfrwt>
<totfact> 0.10448434E+04</totfact>
</mgrwt>
</event>
<event>
 5    1  0.3206158E-002  0.1249977E+03  0.7818608E-02  0.1235073E+00
         -4   -1    0    0    0  501 -0.00000000000E+00  0.00000000000E+00  0.42193797745E+03  0.42193988875E+03  0.12700000000E+01 0.  1.
          4   -1    0    0  501    0  0.00000000000E+00 -0.00000000000E+00 -0.92120348928E+01  0.92991659231E+01  0.12700000000E+01 0.  1.
         25    2    1    2    0    0  0.00000000000E+00  0.00000000000E+00  0.41272594256E+03  0.43123905467E+03  0.12499767443E+03 0.  0.
    9000005    1    3    3    0    0 -0.44083549109E+02  0.44126144908E+02  0.21955825760E+03  0.22824833942E+03  0.10000000000E+01 0.  0.
    9000005    1    3    3    0    0  0.44083549109E+02 -0.44126144908E+02  0.19316768496E+03  0.20299071525E+03  0.10000000000E+01 0.  0.
<mgrwt>
<rscale>  0 0.12499767E+03</rscale>
<asrwt>0</asrwt>
<pdfrwt beam="2">  1        4 0.14240858E-02 0.12499767E+03</pdfrwt>
<pdfrwt beam="1">  1       -4 0.64920374E-01 0.12499767E+03</pdfrwt>
<totfact> 0.61627003E+03</totfact>
</mgrwt>
</event>
<event>
 5    1  0.3206158E-002  0.1250002E+03  0.7818608E-02  0.1235069E+00
         -4   -1    0    0    0  501 -0.00000000000E+00  0.00000000000E+00  0.21018496848E+02  0.21056830477E+02  0.12700000000E+01 0.  1.
          4   -1    0    0  501    0  0.00000000000E+00 -0.00000000000E+00 -0.18563904499E+03  0.18564338912E+03  0.12700000000E+01 0.  1.
         25    2    1    2    0    0  0.00000000000E+00  0.00000000000E+00 -0.16462054814E+03  0.20670021959E+03  0.12500022365E+03 0.  0.
    9000005    1    3    3    0    0 -0.51982807972E+02  0.34213604570E+02 -0.91734469404E+02  0.11085574383E+03  0.10000000000E+01 0.  0.
    9000005    1    3    3    0    0  0.51982807972E+02 -0.34213604570E+02 -0.72886078734E+02  0.95844475769E+02  0.10000000000E+01 0.  0.
<mgrwt>
<rscale>  0 0.12500022E+03</rscale>
<asrwt>0</asrwt>
<pdfrwt beam="2">  1        4 0.28563135E-01 0.12500022E+03</pdfrwt>
<pdfrwt beam="1">  1       -4 0.32368979E-02 0.12500022E+03</pdfrwt>
<totfact> 0.89017185E+03</totfact>
</mgrwt>
</event>
<event>
 5    1  0.3206158E-002  0.1250280E+03  0.7818608E-02  0.1235025E+00
         -4   -1    0    0    0  501 -0.00000000000E+00  0.00000000000E+00  0.12358916381E+03  0.12359568888E+03  0.12700000000E+01 0.  1.
          4   -1    0    0  501    0  0.00000000000E+00 -0.00000000000E+00 -0.31600794678E+02  0.31626304310E+02  0.12700000000E+01 0.  1.
         25    2    1    2    0    0  0.00000000000E+00  0.00000000000E+00  0.91988369127E+02  0.15522199319E+03  0.12502802532E+03 0.  0.
    9000005    1    3    3    0    0  0.17541536234E+01  0.54229600499E+02  0.84522140910E+02  0.10044361069E+03  0.10000000000E+01 0.  0.
    9000005    1    3    3    0    0 -0.17541536234E+01 -0.54229600499E+02  0.74662282169E+01  0.54778382497E+02  0.10000000000E+01 0.  0.
<mgrwt>
<rscale>  0 0.12502803E+03</rscale>
<asrwt>0</asrwt>
<pdfrwt beam="2">  1        4 0.48641250E-02 0.12502803E+03</pdfrwt>
<pdfrwt beam="1">  1       -4 0.19016181E-01 0.12502803E+03</pdfrwt>
<totfact> 0.98210025E+03</totfact>
</mgrwt>
</event>
<event>
 5    1  0.3206158E-002  0.1250005E+03  0.7818608E-02  0.1235068E+00
         -4   -1    0    0    0  501 -0.00000000000E+00  0.00000000000E+00  0.32308229310E+02  0.32333180807E+02  0.12700000000E+01 0. -1.
          4   -1    0    0  501    0  0.00000000000E+00 -0.00000000000E+00 -0.12083180213E+03  0.12083847610E+03  0.12700000000E+01 0. -1.
         25    2    1    2    0    0  0.00000000000E+00  0.00000000000E+00 -0.88523572819E+02  0.15317165691E+03  0.12500053414E+03 0.  0.
    9000005    1    3    3    0    0  0.21735306111E+02  0.49365762510E+02 -0.82931445183E+02  0.98934456283E+02  0.10000000000E+01 0.  0.
    9000005    1    3    3    0    0 -0.21735306111E+02 -0.49365762510E+02 -0.55921276364E+01  0.54237200623E+02  0.10000000000E+01 0.  0.
<mgrwt>
<rscale>  0 0.12500053E+03</rscale>
<asrwt>0</asrwt>
<pdfrwt beam="2">  1        4 0.18591941E-01 0.12500053E+03</pdfrwt>
<pdfrwt beam="1">  1       -4 0.49729296E-02 0.12500053E+03</pdfrwt>
<totfact> 0.98674006E+03</totfact>
</mgrwt>
</event>
<event>
 5    1  0.3206158E-002  0.1249924E+03  0.7818608E-02  0.1235081E+00
         -4   -1    0    0    0  501 -0.00000000000E+00  0.00000000000E+00  0.23387610265E+03  0.23387955082E+03  0.12700000000E+01 0. -1.
          4   -1    0    0  501    0  0.00000000000E+00 -0.00000000000E+00 -0.16672474495E+02  0.16720774676E+02  0.12700000000E+01 0. -1.
         25    2    1    2    0    0  0.00000000000E+00  0.00000000000E+00  0.21720362816E+03  0.25060032550E+03  0.12499242799E+03 0.  0.
    9000005    1    3    3    0    0  0.38546141653E+02  0.29462405757E+02  0.29643985326E+02  0.56864789240E+02  0.10000000000E+01 0.  0.
    9000005    1    3    3    0    0 -0.38546141653E+02 -0.29462405757E+02  0.18755964283E+03  0.19373553626E+03  0.10000000000E+01 0.  0.
<mgrwt>
<rscale>  0 0.12499243E+03</rscale>
<asrwt>0</asrwt>
<pdfrwt beam="2">  1        4 0.25689768E-02 0.12499243E+03</pdfrwt>
<pdfrwt beam="1">  1       -4 0.35984919E-01 0.12499243E+03</pdfrwt>
<totfact> 0.82257413E+03</totfact>
</mgrwt>
</event>
<event>
 5    1  0.3206158E-002  0.1249981E+03  0.7818608E-02  0.1235072E+00
          4   -1    0    0  501    0  0.00000000000E+00  0.00000000000E+00  0.83388737315E+02  0.83398407725E+02  0.12700000000E+01 0. -1.
         -4   -1    0    0    0  501 -0.00000000000E+00 -0.00000000000E+00 -0.46821461616E+02  0.46838682388E+02  0.12700000000E+01 0. -1.
         25    2    1    2    0    0  0.00000000000E+00  0.00000000000E+00  0.36567275700E+02  0.13023709011E+03  0.12499813594E+03 0.  0.
    9000005    1    3    3    0    0 -0.37256585726E+02 -0.95627770220E+01 -0.33031293087E+02  0.50710612374E+02  0.10000000000E+01 0.  0.
    9000005    1    3    3    0    0  0.37256585726E+02  0.95627770220E+01  0.69598568787E+02  0.79526477739E+02  0.10000000000E+01 0.  0.
<mgrwt>
<rscale>  0 0.12499814E+03</rscale>
<asrwt>0</asrwt>
<pdfrwt beam="1">  1        4 0.12831105E-01 0.12499814E+03</pdfrwt>
<pdfrwt beam="2">  1       -4 0.72053704E-02 0.12499814E+03</pdfrwt>
<totfact> 0.10339873E+04</totfact>
</mgrwt>
</event>
<event>
 5    1  0.3206158E-002  0.1249990E+03  0.7818608E-02  0.1235071E+00
          4   -1    0    0  501    0  0.00000000000E+00  0.00000000000E+00  0.64687951942E+03  0.64688076609E+03  0.12700000000E+01 0.  1.
         -4   -1    0    0    0  501 -0.00000000000E+00 -0.00000000000E+00 -0.59704669011E+01  0.61040457909E+01  0.12700000000E+01 0.  1.
         25    2    1    2    0    0  0.00000000000E+00  0.00000000000E+00  0.64090905252E+03  0.65298481188E+03  0.12499900381E+03 0.  0.
    9000005    1    3    3    0    0 -0.26267196982E+01  0.15624585642E+02  0.63623867910E+03  0.63643670865E+03  0.10000000000E+01 0.  0.
    9000005    1    3    3    0    0  0.26267196982E+01 -0.15624585642E+02  0.46703734168E+01  0.16548103236E+02  0.10000000000E+01 0.  0.
<mgrwt>
<rscale>  0 0.12499900E+03</rscale>
<asrwt>0</asrwt>
<pdfrwt beam="1">  1        4 0.99530311E-01 0.12499900E+03</pdfrwt>
<pdfrwt beam="2">  1       -4 0.92890444E-03 0.12499900E+03</pdfrwt>
<totfact> 0.45685988E+03</totfact>
</mgrwt>
</event>
<event>
 5    1  0.3206158E-002  0.1249986E+03  0.7818608E-02  0.1235071E+00
         -4   -1    0    0    0  501 -0.00000000000E+00  0.00000000000E+00  0.95929281017E+02  0.95937687362E+02  0.12700000000E+01 0.  1.
          4   -1    0    0  501    0  0.00000000000E+00 -0.00000000000E+00 -0.40699080344E+02  0.40718890467E+02  0.12700000000E+01 0.  1.
         25    2    1    2    0    0  0.00000000000E+00  0.00000000000E+00  0.55230200673E+02  0.13665657783E+03  0.12499858078E+03 0.  0.
    9000005    1    3    3    0    0  0.55840956337E+02  0.25441851592E+02  0.14695081096E+02  0.63106621091E+02  0.10000000000E+01 0.  0.
    9000005    1    3    3    0    0 -0.55840956337E+02 -0.25441851592E+02  0.40535119577E+02  0.73549956738E+02  0.10000000000E+01 0.  0.
<mgrwt>
<rscale>  0 0.12499858E+03</rscale>
<asrwt>0</asrwt>
<pdfrwt beam="2">  1        4 0.62635675E-02 0.12499858E+03</pdfrwt>
<pdfrwt beam="1">  1       -4 0.14760521E-01 0.12499858E+03</pdfrwt>
<totfact> 0.10203598E+04</totfact>
</mgrwt>
</event>
<event>
 5    1  0.3206158E-002  0.1249982E+03  0.7818608E-02  0.1235072E+00
          4   -1    0    0  501    0  0.00000000000E+00  0.00000000000E+00  0.39256026335E+03  0.39256231768E+03  0.12700000000E+01 0.  1.
         -4   -1    0    0    0  501 -0.00000000000E+00 -0.00000000000E+00 -0.99078091731E+01  0.99888729400E+01  0.12700000000E+01 0.  1.
         25    2    1    2    0    0  0.00000000000E+00  0.00000000000E+00  0.38265245418E+03  0.40255119062E+03  0.12499824151E+03 0.  0.
    9000005    1    3    3    0    0  0.25202510253E+02  0.38307232890E+02  0.54597931417E+02  0.71305993645E+02  0.10000000000E+01 0.  0.
    9000005    1    3    3    0    0 -0.25202510253E+02 -0.38307232890E+02  0.32805452276E+03  0.33124519697E+03  0.10000000000E+01 0.  0.
<mgrwt>
<rscale>  0 0.12499824E+03</rscale>
<asrwt>0</asrwt>
<pdfrwt beam="1">  1        4 0.60400279E-01 0.12499824E+03</pdfrwt>
<pdfrwt beam="2">  1       -4 0.15306721E-02 0.12499824E+03</pdfrwt>
<totfact> 0.64307913E+03</totfact>
</mgrwt>
</event>
<event>
 5    1  0.3206158E-002  0.1250005E+03  0.7818608E-02  0.1235069E+00
         -4   -1    0    0    0  501 -0.00000000000E+00  0.00000000000E+00  0.11442018145E+03  0.11442722938E+03  0.12700000000E+01 0.  1.
          4   -1    0    0  501    0  0.00000000000E+00 -0.00000000000E+00 -0.34119859081E+02  0.34143486695E+02  0.12700000000E+01 0.  1.
         25    2    1    2    0    0  0.00000000000E+00  0.00000000000E+00  0.80300322371E+02  0.14857071608E+03  0.12500046361E+03 0.  0.
    9000005    1    3    3    0    0  0.27327646752E+02 -0.52577173814E+02  0.63746007026E+02  0.87038571306E+02  0.10000000000E+01 0.  0.
    9000005    1    3    3    0    0 -0.27327646752E+02  0.52577173814E+02  0.16554315345E+02  0.61532144769E+02  0.10000000000E+01 0.  0.
<mgrwt>
<rscale>  0 0.12500046E+03</rscale>
<asrwt>0</asrwt>
<pdfrwt beam="2">  1        4 0.52515687E-02 0.12500046E+03</pdfrwt>
<pdfrwt beam="1">  1       -4 0.17605465E-01 0.12500046E+03</pdfrwt>
<totfact> 0.99588331E+03</totfact>
</mgrwt>
</event>
<event>
 5    1  0.3206158E-002  0.1249975E+03  0.7818608E-02  0.1235073E+00
          4   -1    0    0  501    0  0.00000000000E+00  0.00000000000E+00  0.67969126945E+02  0.67980990855E+02  0.12700000000E+01 0. -1.
         -4   -1    0    0    0  501 -0.00000000000E+00 -0.00000000000E+00 -0.57444772326E+02  0.57458809312E+02  0.12700000000E+01 0. -1.
         25    2    1    2    0    0  0.00000000000E+00  0.00000000000E+00  0.10524354619E+02  0.12543980017E+03  0.12499752568E+03 0.  0.
    9000005    1    3    3    0    0  0.53002908855E+02  0.19888160550E+02  0.31818008567E+02  0.64947924881E+02  0.10000000000E+01 0.  0.
    9000005    1    3    3    0    0 -0.53002908855E+02 -0.19888160550E+02 -0.21293653948E+02  0.60491875286E+02  0.10000000000E+01 0.  0.
<mgrwt>
<rscale>  0 0.12499753E+03</rscale>
<asrwt>0</asrwt>
<pdfrwt beam="1">  1        4 0.10458781E-01 0.12499753E+03</pdfrwt>
<pdfrwt beam="2">  1       -4 0.88396496E-02 0.12499753E+03</pdfrwt>
<totfact> 0.10443868E+04</totfact>
</mgrwt>
</event>
<event>
 5    1  0.3206158E-002  0.1249827E+03  0.7818608E-02  0.1235096E+00
         -4   -1    0    0    0  501 -0.00000000000E+00  0.00000000000E+00  0.53325505382E+03  0.53325656613E+03  0.12700000000E+01 0.  1.
          4   -1    0    0  501    0  0.00000000000E+00 -0.00000000000E+00 -0.72666679877E+01  0.73768125667E+01  0.12700000000E+01 0.  1.
         25    2    1    2    0    0  0.00000000000E+00  0.00000000000E+00  0.52598838583E+03  0.54063337870E+03  0.12498267134E+03 0.  0.
    9000005    1    3    3    0    0 -0.44044587443E+02  0.36523010356E+02  0.15439401962E+03  0.16465834101E+03  0.10000000000E+01 0.  0.
    9000005    1    3    3    0    0  0.44044587443E+02 -0.36523010356E+02  0.37159436621E+03  0.37597503769E+03  0.10000000000E+01 0.  0.
<mgrwt>
<rscale>  0 0.12498267E+03</rscale>
<asrwt>0</asrwt>
<pdfrwt beam="2">  1        4 0.11265377E-02 0.12498267E+03</pdfrwt>
<pdfrwt beam="1">  1       -4 0.82047842E-01 0.12498267E+03</pdfrwt>
<totfact> 0.52864127E+03</totfact>
</mgrwt>
</event>
<event>
 5    1  0.3206158E-002  0.1250004E+03  0.7818608E-02  0.1235069E+00
         -4   -1    0    0    0  501 -0.00000000000E+00  0.00000000000E+00  0.72206444553E+01  0.73314805019E+01  0.12700000000E+01 0. -1.
          4   -1    0    0  501    0  0.00000000000E+00 -0.00000000000E+00 -0.53675500497E+03  0.53675650743E+03  0.12700000000E+01 0. -1.
         25    2    1    2    0    0  0.00000000000E+00  0.00000000000E+00 -0.52953436052E+03  0.54408798793E+03  0.12500039855E+03 0.  0.
    9000005    1    3    3    0    0  0.28342876900E+02 -0.53269956577E+02 -0.19400845501E+03  0.20317797017E+03  0.10000000000E+01 0.  0.
    9000005    1    3    3    0    0 -0.28342876900E+02  0.53269956577E+02 -0.33552590551E+03  0.34091001776E+03  0.10000000000E+01 0.  0.
<mgrwt>
<rscale>  0 0.12500040E+03</rscale>
<asrwt>0</asrwt>
<pdfrwt beam="2">  1        4 0.82586303E-01 0.12500040E+03</pdfrwt>
<pdfrwt beam="1">  1       -4 0.11195102E-02 0.12500040E+03</pdfrwt>
<totfact> 0.52598463E+03</totfact>
</mgrwt>
</event>
<event>
 5    1  0.3206158E-002  0.1250038E+03  0.7818608E-02  0.1235063E+00
          4   -1    0    0  501    0  0.00000000000E+00  0.00000000000E+00  0.88434702293E+03  0.88434793484E+03  0.12700000000E+01 0.  1.
         -4   -1    0    0    0  501 -0.00000000000E+00 -0.00000000000E+00 -0.43251536798E+01  0.45077549128E+01  0.12700000000E+01 0.  1.
         25    2    1    2    0    0  0.00000000000E+00  0.00000000000E+00  0.88002186925E+03  0.88885568976E+03  0.12500378737E+03 0.  0.
    9000005    1    3    3    0    0  0.12498736980E+02 -0.61073955873E+02  0.47120075689E+03  0.47530768961E+03  0.10000000000E+01 0.  0.
    9000005    1    3    3    0    0 -0.12498736980E+02  0.61073955873E+02  0.40882111236E+03  0.41354800014E+03  0.10000000000E+01 0.  0.
<mgrwt>
<rscale>  0 0.12500379E+03</rscale>
<asrwt>0</asrwt>
<pdfrwt beam="1">  1        4 0.13606749E+00 0.12500379E+03</pdfrwt>
<pdfrwt beam="2">  1       -4 0.67952473E-03 0.12500379E+03</pdfrwt>
<totfact> 0.34584982E+03</totfact>
</mgrwt>
</event>
<event>
 5    1  0.3206158E-002  0.1250160E+03  0.7818608E-02  0.1235044E+00
         -4   -1    0    0    0  501 -0.00000000000E+00  0.00000000000E+00  0.17534469213E+03  0.17534929130E+03  0.12700000000E+01 0.  1.
          4   -1    0    0  501    0  0.00000000000E+00 -0.00000000000E+00 -0.22260254198E+02  0.22296453013E+02  0.12700000000E+01 0.  1.
         25    2    1    2    0    0  0.00000000000E+00  0.00000000000E+00  0.15308443793E+03  0.19764574431E+03  0.12501597941E+03 0.  0.
    9000005    1    3    3    0    0  0.34260121122E+02  0.80283959443E+01  0.15820382631E+03  0.16207301349E+03  0.10000000000E+01 0.  0.
    9000005    1    3    3    0    0 -0.34260121122E+02 -0.80283959443E+01 -0.51193883815E+01  0.35572730822E+02  0.10000000000E+01 0.  0.
<mgrwt>
<rscale>  0 0.12501598E+03</rscale>
<asrwt>0</asrwt>
<pdfrwt beam="2">  1        4 0.34277929E-02 0.12501598E+03</pdfrwt>
<pdfrwt beam="1">  1       -4 0.26979244E-01 0.12501598E+03</pdfrwt>
<totfact> 0.90501362E+03</totfact>
</mgrwt>
</event>
<event>
 5    1  0.3206158E-002  0.1249996E+03  0.7818608E-02  0.1235070E+00
          4   -1    0    0  501    0  0.00000000000E+00  0.00000000000E+00  0.27103572030E+03  0.27103869572E+03  0.12700000000E+01 0.  1.
         -4   -1    0    0    0  501 -0.00000000000E+00 -0.00000000000E+00 -0.14381186743E+02  0.14437154572E+02  0.12700000000E+01 0.  1.
         25    2    1    2    0    0  0.00000000000E+00  0.00000000000E+00  0.25665453355E+03  0.28547585029E+03  0.12499964602E+03 0.  0.
    9000005    1    3    3    0    0  0.22222742583E+02 -0.58003922103E+02  0.14397140587E+03  0.15680264977E+03  0.10000000000E+01 0.  0.
    9000005    1    3    3    0    0 -0.22222742583E+02  0.58003922103E+02  0.11268312769E+03  0.12867320052E+03  0.10000000000E+01 0.  0.
<mgrwt>
<rscale>  0 0.12499965E+03</rscale>
<asrwt>0</asrwt>
<pdfrwt beam="1">  1        4 0.41702336E-01 0.12499965E+03</pdfrwt>
<pdfrwt beam="2">  1       -4 0.22170244E-02 0.12499965E+03</pdfrwt>
<totfact> 0.77458213E+03</totfact>
</mgrwt>
</event>
<event>
 5    1  0.3206158E-002  0.1249986E+03  0.7818608E-02  0.1235071E+00
         -4   -1    0    0    0  501 -0.00000000000E+00  0.00000000000E+00  0.18215085925E+02  0.18259305990E+02  0.12700000000E+01 0. -1.
          4   -1    0    0  501    0  0.00000000000E+00 -0.00000000000E+00 -0.21414060663E+03  0.21414437258E+03  0.12700000000E+01 0. -1.
         25    2    1    2    0    0  0.00000000000E+00  0.00000000000E+00 -0.19592552070E+03  0.23240367857E+03  0.12499864059E+03 0.  0.
    9000005    1    3    3    0    0 -0.76933649391E+01  0.61569516193E+02 -0.11177284936E+03  0.12784429217E+03  0.10000000000E+01 0.  0.
    9000005    1    3    3    0    0  0.76933649391E+01 -0.61569516193E+02 -0.84152671349E+02  0.10455938640E+03  0.10000000000E+01 0.  0.
<mgrwt>
<rscale>  0 0.12499864E+03</rscale>
<asrwt>0</asrwt>
<pdfrwt beam="2">  1        4 0.32948398E-01 0.12499864E+03</pdfrwt>
<pdfrwt beam="1">  1       -4 0.28060123E-02 0.12499864E+03</pdfrwt>
<totfact> 0.84944448E+03</totfact>
</mgrwt>
</event>
