<event>
 5    1  0.3276024E-002  0.1250011E+03  0.7818608E-02  0.1235068E+00
          4   -1    0    0  501    0  0.00000000000E+00  0.00000000000E+00  0.10823383852E+03  0.10824128926E+03  0.12700000000E+01 0. -1.
         -4   -1    0    0    0  501 -0.00000000000E+00 -0.00000000000E+00 -0.36071622850E+02  0.36093972836E+02  0.12700000000E+01 0. -1.
         25    2    1    2    0    0  0.00000000000E+00  0.00000000000E+00  0.72162215667E+02  0.14433526209E+03  0.12500113005E+03 0.  0.
    9000005    1    3    3    0    0 -0.18053332901E+01  0.53336646695E+02  0.73625936746E+02  0.90938636841E+02  0.10000000000E+01 0.  0.
    9000005    1    3    3    0    0  0.18053332901E+01 -0.53336646695E+02 -0.14637210785E+01  0.53396625252E+02  0.10000000000E+01 0.  0.
<mgrwt>
<rscale>  0 0.12500113E+03</rscale>
<asrwt>0</asrwt>
<pdfrwt beam="1">  1        4 0.16653652E-01 0.12500113E+03</pdfrwt>
<pdfrwt beam="2">  1       -4 0.55517727E-02 0.12500113E+03</pdfrwt>
<totfact> 0.10044256E+04</totfact>
</mgrwt>
</event>
<event>
 5    1  0.3276024E-002  0.1249989E+03  0.7818608E-02  0.1235071E+00
          4   -1    0    0  501    0  0.00000000000E+00  0.00000000000E+00  0.37935229642E+03  0.37935442228E+03  0.12700000000E+01 0.  1.
         -4   -1    0    0    0  501 -0.00000000000E+00 -0.00000000000E+00 -0.10255660009E+02  0.10333995463E+02  0.12700000000E+01 0.  1.
         25    2    1    2    0    0  0.00000000000E+00  0.00000000000E+00  0.36909663642E+03  0.38968841774E+03  0.12499894363E+03 0.  0.
    9000005    1    3    3    0    0 -0.83772490947E+00 -0.25865683124E+00  0.37934841020E+03  0.37935074141E+03  0.10000000000E+01 0.  0.
    9000005    1    3    3    0    0  0.83772490947E+00  0.25865683124E+00 -0.10251773781E+02  0.10337676336E+02  0.10000000000E+01 0.  0.
<mgrwt>
<rscale>  0 0.12499894E+03</rscale>
<asrwt>0</asrwt>
<pdfrwt beam="1">  1        4 0.58368077E-01 0.12499894E+03</pdfrwt>
<pdfrwt beam="2">  1       -4 0.15839833E-02 0.12499894E+03</pdfrwt>
<totfact> 0.65569721E+03</totfact>
</mgrwt>
</event>
<event>
 5    1  0.3276024E-002  0.1250002E+03  0.7818608E-02  0.1235069E+00
          4   -1    0    0  501    0  0.00000000000E+00  0.00000000000E+00  0.32889230798E+03  0.32889475999E+03  0.12700000000E+01 0. -1.
         -4   -1    0    0    0  501 -0.00000000000E+00 -0.00000000000E+00 -0.11840563723E+02  0.11908478042E+02  0.12700000000E+01 0. -1.
         25    2    1    2    0    0  0.00000000000E+00  0.00000000000E+00  0.31705174426E+03  0.34080323803E+03  0.12500015407E+03 0.  0.
    9000005    1    3    3    0    0  0.12355637339E+02  0.52544306937E+02  0.24438410257E+03  0.25027615858E+03  0.10000000000E+01 0.  0.
    9000005    1    3    3    0    0 -0.12355637339E+02 -0.52544306937E+02  0.72667641691E+02  0.90527079454E+02  0.10000000000E+01 0.  0.
<mgrwt>
<rscale>  0 0.12500015E+03</rscale>
<asrwt>0</asrwt>
<pdfrwt beam="1">  1        4 0.50604226E-01 0.12500015E+03</pdfrwt>
<pdfrwt beam="2">  1       -4 0.18270381E-02 0.12500015E+03</pdfrwt>
<totfact> 0.70748064E+03</totfact>
</mgrwt>
</event>
<event>
 5    1  0.3276024E-002  0.1249974E+03  0.7818608E-02  0.1235073E+00
         -4   -1    0    0    0  501 -0.00000000000E+00  0.00000000000E+00  0.39067698770E+02  0.39088335692E+02  0.12700000000E+01 0. -1.
          4   -1    0    0  501    0  0.00000000000E+00 -0.00000000000E+00 -0.99931460204E+02  0.99939529909E+02  0.12700000000E+01 0. -1.
         25    2    1    2    0    0  0.00000000000E+00  0.00000000000E+00 -0.60863761434E+02  0.13902786560E+03  0.12499739980E+03 0.  0.
    9000005    1    3    3    0    0  0.14108270660E+01 -0.37486708836E+02  0.25156434000E+02  0.45178423434E+02  0.10000000000E+01 0.  0.
    9000005    1    3    3    0    0 -0.14108270660E+01  0.37486708836E+02 -0.86020195435E+02  0.93849442167E+02  0.10000000000E+01 0.  0.
<mgrwt>
<rscale>  0 0.12499740E+03</rscale>
<asrwt>0</asrwt>
<pdfrwt beam="2">  1        4 0.15376279E-01 0.12499740E+03</pdfrwt>
<pdfrwt beam="1">  1       -4 0.60126234E-02 0.12499740E+03</pdfrwt>
<totfact> 0.10154368E+04</totfact>
</mgrwt>
</event>
<event>
 5    1  0.3276024E-002  0.1250035E+03  0.7818608E-02  0.1235064E+00
          4   -1    0    0  501    0  0.00000000000E+00  0.00000000000E+00  0.90922424191E+02  0.90931293408E+02  0.12700000000E+01 0.  1.
         -4   -1    0    0    0  501 -0.00000000000E+00 -0.00000000000E+00 -0.42944490729E+02  0.42963265518E+02  0.12700000000E+01 0.  1.
         25    2    1    2    0    0  0.00000000000E+00  0.00000000000E+00  0.47977933462E+02  0.13389455893E+03  0.12500348319E+03 0.  0.
    9000005    1    3    3    0    0  0.94232899003E+01  0.61378553148E+02  0.31513013613E+02  0.69643342870E+02  0.10000000000E+01 0.  0.
    9000005    1    3    3    0    0 -0.94232899003E+01 -0.61378553148E+02  0.16464919849E+02  0.64251216056E+02  0.10000000000E+01 0.  0.
<mgrwt>
<rscale>  0 0.12500348E+03</rscale>
<asrwt>0</asrwt>
<pdfrwt beam="1">  1        4 0.13990192E-01 0.12500348E+03</pdfrwt>
<pdfrwt beam="2">  1       -4 0.66089713E-02 0.12500348E+03</pdfrwt>
<totfact> 0.10260617E+04</totfact>
</mgrwt>
</event>
<event>
 5    1  0.3276024E-002  0.1250017E+03  0.7818608E-02  0.1235067E+00
          4   -1    0    0  501    0  0.00000000000E+00  0.00000000000E+00  0.19616775714E+01  0.23368951397E+01  0.12700000000E+01 0.  1.
         -4   -1    0    0    0  501 -0.00000000000E+00 -0.00000000000E+00 -0.18171378494E+04  0.18171382932E+04  0.12700000000E+01 0.  1.
         25    2    1    2    0    0  0.00000000000E+00  0.00000000000E+00 -0.18151761718E+04  0.18194751883E+04  0.12500170486E+03 0.  0.
    9000005    1    3    3    0    0 -0.11789460504E+02 -0.49263342925E+02 -0.14403088816E+04  0.14411996887E+04  0.10000000000E+01 0.  0.
    9000005    1    3    3    0    0  0.11789460504E+02  0.49263342925E+02 -0.37486729025E+03  0.37827549965E+03  0.10000000000E+01 0.  0.
<mgrwt>
<rscale>  0 0.12500170E+03</rscale>
<asrwt>0</asrwt>
<pdfrwt beam="1">  1        4 0.33069503E-03 0.12500170E+03</pdfrwt>
<pdfrwt beam="2">  1       -4 0.27958734E+00 0.12500170E+03</pdfrwt>
<totfact> 0.12405493E+03</totfact>
</mgrwt>
</event>
<event>
 5    1  0.3276024E-002  0.1250097E+03  0.7818608E-02  0.1235054E+00
         -4   -1    0    0    0  501 -0.00000000000E+00  0.00000000000E+00  0.42908585138E+02  0.42927375631E+02  0.12700000000E+01 0. -1.
          4   -1    0    0  501    0  0.00000000000E+00 -0.00000000000E+00 -0.91007585198E+02  0.91016446116E+02  0.12700000000E+01 0. -1.
         25    2    1    2    0    0  0.00000000000E+00  0.00000000000E+00 -0.48099000060E+02  0.13394382175E+03  0.12500973393E+03 0.  0.
    9000005    1    3    3    0    0 -0.55451531794E+02 -0.25529614470E+02 -0.97052479412E+01  0.61820914186E+02  0.10000000000E+01 0.  0.
    9000005    1    3    3    0    0  0.55451531794E+02  0.25529614470E+02 -0.38393752119E+02  0.72122907561E+02  0.10000000000E+01 0.  0.
<mgrwt>
<rscale>  0 0.12500973E+03</rscale>
<asrwt>0</asrwt>
<pdfrwt beam="2">  1        4 0.14003294E-01 0.12500973E+03</pdfrwt>
<pdfrwt beam="1">  1       -4 0.66034478E-02 0.12500973E+03</pdfrwt>
<totfact> 0.10258128E+04</totfact>
</mgrwt>
</event>
<event>
 5    1  0.3276024E-002  0.1249996E+03  0.7818608E-02  0.1235070E+00
          4   -1    0    0  501    0  0.00000000000E+00  0.00000000000E+00  0.17639086804E+01  0.21735394712E+01  0.12700000000E+01 0.  1.
         -4   -1    0    0    0  501 -0.00000000000E+00 -0.00000000000E+00 -0.19837292390E+04  0.19837296455E+04  0.12700000000E+01 0.  1.
         25    2    1    2    0    0  0.00000000000E+00  0.00000000000E+00 -0.19819653303E+04  0.19859031850E+04  0.12499955847E+03 0.  0.
    9000005    1    3    3    0    0  0.57368327975E+02 -0.37556243168E+00 -0.59732535160E+03  0.60007486347E+03  0.10000000000E+01 0.  0.
    9000005    1    3    3    0    0 -0.57368327975E+02  0.37556243168E+00 -0.13846399787E+04  0.13858283215E+04  0.10000000000E+01 0.  0.
<mgrwt>
<rscale>  0 0.12499956E+03</rscale>
<asrwt>0</asrwt>
<pdfrwt beam="1">  1        4 0.30291349E-03 0.12499956E+03</pdfrwt>
<pdfrwt beam="2">  1       -4 0.30521906E+00 0.12499956E+03</pdfrwt>
<totfact> 0.10046597E+03</totfact>
</mgrwt>
</event>
<event>
 5    1  0.3276024E-002  0.1250079E+03  0.7818608E-02  0.1235057E+00
         -4   -1    0    0    0  501 -0.00000000000E+00  0.00000000000E+00  0.42032075208E+02  0.42051257368E+02  0.12700000000E+01 0.  1.
          4   -1    0    0  501    0  0.00000000000E+00 -0.00000000000E+00 -0.92901927676E+02  0.92910607930E+02  0.12700000000E+01 0.  1.
         25    2    1    2    0    0  0.00000000000E+00  0.00000000000E+00 -0.50869852468E+02  0.13496186530E+03  0.12500785253E+03 0.  0.
    9000005    1    3    3    0    0  0.26578982215E+02 -0.47466237426E+02 -0.58645610734E+02  0.79998710298E+02  0.10000000000E+01 0.  0.
    9000005    1    3    3    0    0 -0.26578982215E+02  0.47466237426E+02  0.77757582655E+01  0.54963155000E+02  0.10000000000E+01 0.  0.
<mgrwt>
<rscale>  0 0.12500785E+03</rscale>
<asrwt>0</asrwt>
<pdfrwt beam="2">  1        4 0.14294747E-01 0.12500785E+03</pdfrwt>
<pdfrwt beam="1">  1       -4 0.64686164E-02 0.12500785E+03</pdfrwt>
<totfact> 0.10237062E+04</totfact>
</mgrwt>
</event>
<event>
 5    1  0.3276024E-002  0.1249981E+03  0.7818608E-02  0.1235072E+00
          4   -1    0    0  501    0  0.00000000000E+00  0.00000000000E+00  0.36573864006E+03  0.36574084505E+03  0.12700000000E+01 0.  1.
         -4   -1    0    0    0  501 -0.00000000000E+00 -0.00000000000E+00 -0.10640117277E+02  0.10715642569E+02  0.12700000000E+01 0.  1.
         25    2    1    2    0    0  0.00000000000E+00  0.00000000000E+00  0.35509852279E+03  0.37645648762E+03  0.12499810472E+03 0.  0.
    9000005    1    3    3    0    0  0.10068917732E+02 -0.54014653552E+00 -0.81886660188E+01  0.13028012655E+02  0.10000000000E+01 0.  0.
    9000005    1    3    3    0    0 -0.10068917732E+02  0.54014653552E+00  0.36328718881E+03  0.36342847496E+03  0.10000000000E+01 0.  0.
<mgrwt>
<rscale>  0 0.12499810E+03</rscale>
<asrwt>0</asrwt>
<pdfrwt beam="1">  1        4 0.56273451E-01 0.12499810E+03</pdfrwt>
<pdfrwt beam="2">  1       -4 0.16429207E-02 0.12499810E+03</pdfrwt>
<totfact> 0.66911642E+03</totfact>
</mgrwt>
</event>
<event>
 5    1  0.3276024E-002  0.1249971E+03  0.7818608E-02  0.1235074E+00
         -4   -1    0    0    0  501 -0.00000000000E+00  0.00000000000E+00  0.81365047079E+01  0.82350233067E+01  0.12700000000E+01 0.  1.
          4   -1    0    0  501    0  0.00000000000E+00 -0.00000000000E+00 -0.47707865448E+03  0.47708034487E+03  0.12700000000E+01 0.  1.
         25    2    1    2    0    0  0.00000000000E+00  0.00000000000E+00 -0.46894214978E+03  0.48531536818E+03  0.12499706699E+03 0.  0.
    9000005    1    3    3    0    0  0.20538030675E+02 -0.16186682721E+02 -0.14109303697E+02  0.29730318739E+02  0.10000000000E+01 0.  0.
    9000005    1    3    3    0    0 -0.20538030675E+02  0.16186682721E+02 -0.45483284608E+03  0.45558504944E+03  0.10000000000E+01 0.  0.
<mgrwt>
<rscale>  0 0.12499707E+03</rscale>
<asrwt>0</asrwt>
<pdfrwt beam="2">  1        4 0.73404402E-01 0.12499707E+03</pdfrwt>
<pdfrwt beam="1">  1       -4 0.12594787E-02 0.12499707E+03</pdfrwt>
<totfact> 0.57025678E+03</totfact>
</mgrwt>
</event>
<event>
 5    1  0.3276024E-002  0.1250005E+03  0.7818608E-02  0.1235068E+00
         -4   -1    0    0    0  501 -0.00000000000E+00  0.00000000000E+00  0.99647381735E+03  0.99647462665E+03  0.12700000000E+01 0. -1.
          4   -1    0    0  501    0  0.00000000000E+00 -0.00000000000E+00 -0.38164116807E+01  0.40221757939E+01  0.12700000000E+01 0. -1.
         25    2    1    2    0    0  0.00000000000E+00  0.00000000000E+00  0.99265740567E+03  0.10004968024E+04  0.12500050671E+03 0.  0.
    9000005    1    3    3    0    0 -0.53533873769E+02 -0.31694035282E+02  0.44904839652E+03  0.45333855994E+03  0.10000000000E+01 0.  0.
    9000005    1    3    3    0    0  0.53533873769E+02  0.31694035282E+02  0.54360900915E+03  0.54715824250E+03  0.10000000000E+01 0.  0.
<mgrwt>
<rscale>  0 0.12500051E+03</rscale>
<asrwt>0</asrwt>
<pdfrwt beam="2">  1        4 0.60303040E-03 0.12500051E+03</pdfrwt>
<pdfrwt beam="1">  1       -4 0.15331958E+00 0.12500051E+03</pdfrwt>
<totfact> 0.30587739E+03</totfact>
</mgrwt>
</event>
<event>
 5    1  0.3276024E-002  0.1250085E+03  0.7818608E-02  0.1235056E+00
          4   -1    0    0  501    0  0.00000000000E+00  0.00000000000E+00  0.23899156495E+03  0.23899493931E+03  0.12700000000E+01 0. -1.
         -4   -1    0    0    0  501 -0.00000000000E+00 -0.00000000000E+00 -0.16318775030E+02  0.16368118966E+02  0.12700000000E+01 0. -1.
         25    2    1    2    0    0  0.00000000000E+00  0.00000000000E+00  0.22267278992E+03  0.25536305828E+03  0.12500848036E+03 0.  0.
    9000005    1    3    3    0    0 -0.47609396034E+02  0.76557158382E+01  0.30124813089E+02  0.56866237253E+02  0.10000000000E+01 0.  0.
    9000005    1    3    3    0    0  0.47609396034E+02 -0.76557158382E+01  0.19254797683E+03  0.19849682102E+03  0.10000000000E+01 0.  0.
<mgrwt>
<rscale>  0 0.12500848E+03</rscale>
<asrwt>0</asrwt>
<pdfrwt beam="1">  1        4 0.36771987E-01 0.12500848E+03</pdfrwt>
<pdfrwt beam="2">  1       -4 0.25146361E-02 0.12500848E+03</pdfrwt>
<totfact> 0.81545826E+03</totfact>
</mgrwt>
</event>
<event>
 5    1  0.3276024E-002  0.1250008E+03  0.7818608E-02  0.1235068E+00
         -4   -1    0    0    0  501 -0.00000000000E+00  0.00000000000E+00  0.10234786497E+03  0.10235574417E+03  0.12700000000E+01 0. -1.
          4   -1    0    0  501    0  0.00000000000E+00 -0.00000000000E+00 -0.38146957552E+02  0.38168092308E+02  0.12700000000E+01 0. -1.
         25    2    1    2    0    0  0.00000000000E+00  0.00000000000E+00  0.64200907421E+02  0.14052383648E+03  0.12500076842E+03 0.  0.
    9000005    1    3    3    0    0  0.45590778912E+00 -0.16554399656E+01 -0.38125946550E+02  0.38177691572E+02  0.10000000000E+01 0.  0.
    9000005    1    3    3    0    0 -0.45590778912E+00  0.16554399656E+01  0.10232685397E+03  0.10234614491E+03  0.10000000000E+01 0.  0.
<mgrwt>
<rscale>  0 0.12500077E+03</rscale>
<asrwt>0</asrwt>
<pdfrwt beam="2">  1        4 0.58709947E-02 0.12500077E+03</pdfrwt>
<pdfrwt beam="1">  1       -4 0.15748057E-01 0.12500077E+03</pdfrwt>
<totfact> 0.10122565E+04</totfact>
</mgrwt>
</event>
<event>
 5    1  0.3276024E-002  0.1249910E+03  0.7818608E-02  0.1235083E+00
         -4   -1    0    0    0  501 -0.00000000000E+00  0.00000000000E+00  0.16524686489E+03  0.16525174509E+03  0.12700000000E+01 0.  1.
          4   -1    0    0  501    0  0.00000000000E+00 -0.00000000000E+00 -0.23613181710E+02  0.23647309582E+02  0.12700000000E+01 0.  1.
         25    2    1    2    0    0  0.00000000000E+00  0.00000000000E+00  0.14163368318E+03  0.18889905467E+03  0.12499101026E+03 0.  0.
    9000005    1    3    3    0    0  0.34021491362E+02 -0.52387089139E+02  0.68279305139E+02  0.92546920496E+02  0.10000000000E+01 0.  0.
    9000005    1    3    3    0    0 -0.34021491362E+02  0.52387089139E+02  0.73354378040E+02  0.96352134177E+02  0.10000000000E+01 0.  0.
<mgrwt>
<rscale>  0 0.12499101E+03</rscale>
<asrwt>0</asrwt>
<pdfrwt beam="2">  1        4 0.36357978E-02 0.12499101E+03</pdfrwt>
<pdfrwt beam="1">  1       -4 0.25425595E-01 0.12499101E+03</pdfrwt>
<totfact> 0.92057767E+03</totfact>
</mgrwt>
</event>
<event>
 5    1  0.3276024E-002  0.1249959E+03  0.7818608E-02  0.1235076E+00
          4   -1    0    0  501    0  0.00000000000E+00  0.00000000000E+00  0.33881725426E+02  0.33905518988E+02  0.12700000000E+01 0.  1.
         -4   -1    0    0    0  501 -0.00000000000E+00 -0.00000000000E+00 -0.11521539233E+03  0.11522239162E+03  0.12700000000E+01 0.  1.
         25    2    1    2    0    0  0.00000000000E+00  0.00000000000E+00 -0.81333666905E+02  0.14912791061E+03  0.12499587333E+03 0.  0.
    9000005    1    3    3    0    0  0.49490106424E+02 -0.65006400975E+01  0.41876128900E+01  0.50100549470E+02  0.10000000000E+01 0.  0.
    9000005    1    3    3    0    0 -0.49490106424E+02  0.65006400975E+01 -0.85521279795E+02  0.99027361135E+02  0.10000000000E+01 0.  0.
<mgrwt>
<rscale>  0 0.12499587E+03</rscale>
<asrwt>0</asrwt>
<pdfrwt beam="1">  1        4 0.52149419E-02 0.12499587E+03</pdfrwt>
<pdfrwt beam="2">  1       -4 0.17727813E-01 0.12499587E+03</pdfrwt>
<totfact> 0.99487061E+03</totfact>
</mgrwt>
</event>
<event>
 5    1  0.3276024E-002  0.1250002E+03  0.7818608E-02  0.1235069E+00
          4   -1    0    0  501    0  0.00000000000E+00  0.00000000000E+00  0.48071956135E+02  0.48088729102E+02  0.12700000000E+01 0.  1.
         -4   -1    0    0    0  501 -0.00000000000E+00 -0.00000000000E+00 -0.81222801411E+02  0.81232729667E+02  0.12700000000E+01 0.  1.
         25    2    1    2    0    0  0.00000000000E+00  0.00000000000E+00 -0.33150845276E+02  0.12932145877E+03  0.12500024462E+03 0.  0.
    9000005    1    3    3    0    0  0.60063112231E+02 -0.14055867483E+02 -0.62234985356E+01  0.62007070529E+02  0.10000000000E+01 0.  0.
    9000005    1    3    3    0    0 -0.60063112231E+02  0.14055867483E+02 -0.26927346741E+02  0.67314388240E+02  0.10000000000E+01 0.  0.
<mgrwt>
<rscale>  0 0.12500024E+03</rscale>
<asrwt>0</asrwt>
<pdfrwt beam="1">  1        4 0.73977395E-02 0.12500024E+03</pdfrwt>
<pdfrwt beam="2">  1       -4 0.12497869E-01 0.12500024E+03</pdfrwt>
<totfact> 0.10358987E+04</totfact>
</mgrwt>
</event>
<event>
 5    1  0.3276024E-002  0.1250020E+03  0.7818608E-02  0.1235066E+00
          4   -1    0    0  501    0  0.00000000000E+00  0.00000000000E+00  0.12682327938E+02  0.12745757801E+02  0.12700000000E+01 0. -1.
         -4   -1    0    0    0  501 -0.00000000000E+00 -0.00000000000E+00 -0.30718433438E+03  0.30718695967E+03  0.12700000000E+01 0. -1.
         25    2    1    2    0    0  0.00000000000E+00  0.00000000000E+00 -0.29450200644E+03  0.31993271747E+03  0.12500204761E+03 0.  0.
    9000005    1    3    3    0    0  0.21196273024E+02  0.41594825725E+02 -0.25358146592E+03  0.25784485912E+03  0.10000000000E+01 0.  0.
    9000005    1    3    3    0    0 -0.21196273024E+02 -0.41594825725E+02 -0.40920540521E+02  0.62087858344E+02  0.10000000000E+01 0.  0.
<mgrwt>
<rscale>  0 0.12500205E+03</rscale>
<asrwt>0</asrwt>
<pdfrwt beam="1">  1        4 0.19562088E-02 0.12500205E+03</pdfrwt>
<pdfrwt beam="2">  1       -4 0.47264204E-01 0.12500205E+03</pdfrwt>
<totfact> 0.73160810E+03</totfact>
</mgrwt>
</event>
<event>
 5    1  0.3276024E-002  0.1249883E+03  0.7818608E-02  0.1235088E+00
          4   -1    0    0  501    0  0.00000000000E+00  0.00000000000E+00  0.45554644788E+02  0.45572344265E+02  0.12700000000E+01 0. -1.
         -4   -1    0    0    0  501 -0.00000000000E+00 -0.00000000000E+00 -0.85693510711E+02  0.85702921059E+02  0.12700000000E+01 0. -1.
         25    2    1    2    0    0  0.00000000000E+00  0.00000000000E+00 -0.40138865923E+02  0.13127526532E+03  0.12498826636E+03 0.  0.
    9000005    1    3    3    0    0 -0.11344398096E+02 -0.35428188501E+01  0.44361784128E+02  0.45937074619E+02  0.10000000000E+01 0.  0.
    9000005    1    3    3    0    0  0.11344398096E+02  0.35428188501E+01 -0.84500650051E+02  0.85338190704E+02  0.10000000000E+01 0.  0.
<mgrwt>
<rscale>  0 0.12498827E+03</rscale>
<asrwt>0</asrwt>
<pdfrwt beam="1">  1        4 0.70104923E-02 0.12498827E+03</pdfrwt>
<pdfrwt beam="2">  1       -4 0.13185702E-01 0.12498827E+03</pdfrwt>
<totfact> 0.10319923E+04</totfact>
</mgrwt>
</event>
<event>
 5    1  0.3276024E-002  0.1250089E+03  0.7818608E-02  0.1235055E+00
         -4   -1    0    0    0  501 -0.00000000000E+00  0.00000000000E+00  0.30152915242E+02  0.30179648732E+02  0.12700000000E+01 0. -1.
          4   -1    0    0  501    0  0.00000000000E+00 -0.00000000000E+00 -0.12947913260E+03  0.12948536086E+03  0.12700000000E+01 0. -1.
         25    2    1    2    0    0  0.00000000000E+00  0.00000000000E+00 -0.99326217354E+02  0.15966500960E+03  0.12500887103E+03 0.  0.
    9000005    1    3    3    0    0 -0.32053135691E+02  0.43052680726E+02 -0.90551762010E+02  0.10526898132E+03  0.10000000000E+01 0.  0.
    9000005    1    3    3    0    0  0.32053135691E+02 -0.43052680726E+02 -0.87744553444E+01  0.54396028274E+02  0.10000000000E+01 0.  0.
<mgrwt>
<rscale>  0 0.12500887E+03</rscale>
<asrwt>0</asrwt>
<pdfrwt beam="2">  1        4 0.19922402E-01 0.12500887E+03</pdfrwt>
<pdfrwt beam="1">  1       -4 0.46414456E-02 0.12500887E+03</pdfrwt>
<totfact> 0.97387986E+03</totfact>
</mgrwt>
</event>
<event>
 5    1  0.3276024E-002  0.1250001E+03  0.7818608E-02  0.1235069E+00
          4   -1    0    0  501    0  0.00000000000E+00  0.00000000000E+00  0.26323195700E+02  0.26353814371E+02  0.12700000000E+01 0.  1.
         -4   -1    0    0    0  501 -0.00000000000E+00 -0.00000000000E+00 -0.14827645056E+03  0.14828188929E+03  0.12700000000E+01 0.  1.
         25    2    1    2    0    0  0.00000000000E+00  0.00000000000E+00 -0.12195325486E+03  0.17463570366E+03  0.12500013049E+03 0.  0.
    9000005    1    3    3    0    0 -0.12769173385E+02  0.32524637467E+00 -0.14644005378E+03  0.14699947933E+03  0.10000000000E+01 0.  0.
    9000005    1    3    3    0    0  0.12769173385E+02 -0.32524637467E+00  0.24486798913E+02  0.27636224329E+02  0.10000000000E+01 0.  0.
<mgrwt>
<rscale>  0 0.12500013E+03</rscale>
<asrwt>0</asrwt>
<pdfrwt beam="1">  1        4 0.40524962E-02 0.12500013E+03</pdfrwt>
<pdfrwt beam="2">  1       -4 0.22814535E-01 0.12500013E+03</pdfrwt>
<totfact> 0.94591326E+03</totfact>
</mgrwt>
</event>
<event>
 5    1  0.3276024E-002  0.1250306E+03  0.7818608E-02  0.1235021E+00
         -4   -1    0    0    0  501 -0.00000000000E+00  0.00000000000E+00  0.74771354904E+01  0.75842240962E+01  0.12700000000E+01 0. -1.
          4   -1    0    0  501    0  0.00000000000E+00 -0.00000000000E+00 -0.51885792816E+03  0.51885948244E+03  0.12700000000E+01 0. -1.
         25    2    1    2    0    0  0.00000000000E+00  0.00000000000E+00 -0.51138079267E+03  0.52644370654E+03  0.12503064039E+03 0.  0.
    9000005    1    3    3    0    0  0.19675278000E+02  0.57214623851E+02 -0.32180162459E+03  0.32744146857E+03  0.10000000000E+01 0.  0.
    9000005    1    3    3    0    0 -0.19675278000E+02 -0.57214623851E+02 -0.18957916808E+03  0.19900223797E+03  0.10000000000E+01 0.  0.
<mgrwt>
<rscale>  0 0.12503064E+03</rscale>
<asrwt>0</asrwt>
<pdfrwt beam="2">  1        4 0.79832625E-01 0.12503064E+03</pdfrwt>
<pdfrwt beam="1">  1       -4 0.11586861E-02 0.12503064E+03</pdfrwt>
<totfact> 0.53833252E+03</totfact>
</mgrwt>
</event>
<event>
 5    1  0.3276024E-002  0.1250086E+03  0.7818608E-02  0.1235056E+00
         -4   -1    0    0    0  501 -0.00000000000E+00  0.00000000000E+00  0.21428954468E+03  0.21429330802E+03  0.12700000000E+01 0. -1.
          4   -1    0    0  501    0  0.00000000000E+00 -0.00000000000E+00 -0.18205311247E+02  0.18249554998E+02  0.12700000000E+01 0. -1.
         25    2    1    2    0    0  0.00000000000E+00  0.00000000000E+00  0.19608423344E+03  0.23254286302E+03  0.12500862585E+03 0.  0.
    9000005    1    3    3    0    0  0.20824340507E+02  0.56612087473E+02  0.67634150160E+02  0.90630899110E+02  0.10000000000E+01 0.  0.
    9000005    1    3    3    0    0 -0.20824340507E+02 -0.56612087473E+02  0.12845008328E+03  0.14191196391E+03  0.10000000000E+01 0.  0.
<mgrwt>
<rscale>  0 0.12500863E+03</rscale>
<asrwt>0</asrwt>
<pdfrwt beam="2">  1        4 0.28045101E-02 0.12500863E+03</pdfrwt>
<pdfrwt beam="1">  1       -4 0.32971314E-01 0.12500863E+03</pdfrwt>
<totfact> 0.84904324E+03</totfact>
</mgrwt>
</event>
<event>
 5    1  0.3276024E-002  0.1250096E+03  0.7818608E-02  0.1235054E+00
          4   -1    0    0  501    0  0.00000000000E+00  0.00000000000E+00  0.18591596830E+02  0.18634923469E+02  0.12700000000E+01 0. -1.
         -4   -1    0    0    0  501 -0.00000000000E+00 -0.00000000000E+00 -0.20985077873E+03  0.20985462166E+03  0.12700000000E+01 0. -1.
         25    2    1    2    0    0  0.00000000000E+00  0.00000000000E+00 -0.19125918190E+03  0.22848954513E+03  0.12500958993E+03 0.  0.
    9000005    1    3    3    0    0  0.60571690774E+00 -0.55382130802E+02 -0.14855001025E+03  0.15854227465E+03  0.10000000000E+01 0.  0.
    9000005    1    3    3    0    0 -0.60571690774E+00  0.55382130802E+02 -0.42709171648E+02  0.69947270482E+02  0.10000000000E+01 0.  0.
<mgrwt>
<rscale>  0 0.12500959E+03</rscale>
<asrwt>0</asrwt>
<pdfrwt beam="1">  1        4 0.28638742E-02 0.12500959E+03</pdfrwt>
<pdfrwt beam="2">  1       -4 0.32288362E-01 0.12500959E+03</pdfrwt>
<totfact> 0.85523767E+03</totfact>
</mgrwt>
</event>
<event>
 5    1  0.3276024E-002  0.1250013E+03  0.7818608E-02  0.1235067E+00
         -4   -1    0    0    0  501 -0.00000000000E+00  0.00000000000E+00  0.38098659163E+02  0.38119820698E+02  0.12700000000E+01 0.  1.
          4   -1    0    0  501    0  0.00000000000E+00 -0.00000000000E+00 -0.10247843142E+03  0.10248630058E+03  0.12700000000E+01 0.  1.
         25    2    1    2    0    0  0.00000000000E+00  0.00000000000E+00 -0.64379772259E+02  0.14060612128E+03  0.12500130505E+03 0.  0.
    9000005    1    3    3    0    0  0.37048825624E+02 -0.47955146982E+02 -0.15019255481E+02  0.62441089335E+02  0.10000000000E+01 0.  0.
    9000005    1    3    3    0    0 -0.37048825624E+02  0.47955146982E+02 -0.49360516778E+02  0.78165031944E+02  0.10000000000E+01 0.  0.
<mgrwt>
<rscale>  0 0.12500131E+03</rscale>
<asrwt>0</asrwt>
<pdfrwt beam="2">  1        4 0.15768146E-01 0.12500131E+03</pdfrwt>
<pdfrwt beam="1">  1       -4 0.58635653E-02 0.12500131E+03</pdfrwt>
<totfact> 0.10120742E+04</totfact>
</mgrwt>
</event>
<event>
 5    1  0.3276024E-002  0.1250040E+03  0.7818608E-02  0.1235063E+00
         -4   -1    0    0    0  501 -0.00000000000E+00  0.00000000000E+00  0.58349988830E+02  0.58363808104E+02  0.12700000000E+01 0. -1.
          4   -1    0    0  501    0  0.00000000000E+00 -0.00000000000E+00 -0.66921714324E+02  0.66933763887E+02  0.12700000000E+01 0. -1.
         25    2    1    2    0    0  0.00000000000E+00  0.00000000000E+00 -0.85717254943E+01  0.12529757199E+03  0.12500402821E+03 0.  0.
    9000005    1    3    3    0    0  0.85996879674E+01  0.11384529197E+02  0.56700581520E+02  0.58476645620E+02  0.10000000000E+01 0.  0.
    9000005    1    3    3    0    0 -0.85996879674E+01 -0.11384529197E+02 -0.65272307015E+02  0.66820926372E+02  0.10000000000E+01 0.  0.
<mgrwt>
<rscale>  0 0.12500403E+03</rscale>
<asrwt>0</asrwt>
<pdfrwt beam="2">  1        4 0.10297638E-01 0.12500403E+03</pdfrwt>
<pdfrwt beam="1">  1       -4 0.89789113E-02 0.12500403E+03</pdfrwt>
<totfact> 0.10445452E+04</totfact>
</mgrwt>
</event>
<event>
 4    1  0.3276024E-002  0.1247082E+03  0.7818608E-02  0.1235526E+00
         -4   -1    0    0    0  501 -0.00000000000E+00  0.00000000000E+00  0.79560440667E+03  0.79560542030E+03  0.12700000000E+01 0. -1.
          4   -1    0    0  501    0  0.00000000000E+00 -0.00000000000E+00 -0.48033440369E+01  0.49684015475E+01  0.12700000000E+01 0. -1.
    9000005    1    1    2    0    0  0.11365936638E+02  0.51804458627E+02  0.60579672503E+03  0.60811475768E+03  0.10000000000E+01 0.  0.
    9000005    1    1    2    0    0 -0.11365936638E+02 -0.51804458627E+02  0.18500433760E+03  0.19245906417E+03  0.10000000000E+01 0.  0.
<mgrwt>
<rscale>  0 0.12470815E+03</rscale>
<asrwt>0</asrwt>
<pdfrwt beam="2">  1        4 0.75175098E-03 0.12470815E+03</pdfrwt>
<pdfrwt beam="1">  1       -4 0.12241341E+00 0.12470815E+03</pdfrwt>
<totfact> 0.38483976E+03</totfact>
</mgrwt>
</event>
<event>
 5    1  0.3276024E-002  0.1250009E+03  0.7818608E-02  0.1235068E+00
          4   -1    0    0  501    0  0.00000000000E+00  0.00000000000E+00  0.26365832917E+01  0.29265118237E+01  0.12700000000E+01 0. -1.
         -4   -1    0    0    0  501 -0.00000000000E+00 -0.00000000000E+00 -0.14040740181E+04  0.14040745924E+04  0.12700000000E+01 0. -1.
         25    2    1    2    0    0  0.00000000000E+00  0.00000000000E+00 -0.14014374348E+04  0.14070011043E+04  0.12500089514E+03 0.  0.
    9000005    1    3    3    0    0  0.22462503078E+02 -0.36945850358E+02 -0.19285976214E+03  0.19764981092E+03  0.10000000000E+01 0.  0.
    9000005    1    3    3    0    0 -0.22462503078E+02  0.36945850358E+02 -0.12085776726E+04  0.12093512933E+04  0.10000000000E+01 0.  0.
<mgrwt>
<rscale>  0 0.12500090E+03</rscale>
<asrwt>0</asrwt>
<pdfrwt beam="1">  1        4 0.42797570E-03 0.12500090E+03</pdfrwt>
<pdfrwt beam="2">  1       -4 0.21603317E+00 0.12500090E+03</pdfrwt>
<totfact> 0.19830872E+03</totfact>
</mgrwt>
</event>
<event>
 5    1  0.3276024E-002  0.1249987E+03  0.7818608E-02  0.1235071E+00
          4   -1    0    0  501    0  0.00000000000E+00  0.00000000000E+00  0.59327955500E+02  0.59341547029E+02  0.12700000000E+01 0.  1.
         -4   -1    0    0    0  501 -0.00000000000E+00 -0.00000000000E+00 -0.65813035665E+02  0.65825288176E+02  0.12700000000E+01 0.  1.
         25    2    1    2    0    0  0.00000000000E+00  0.00000000000E+00 -0.64850801656E+01  0.12516683520E+03  0.12499872148E+03 0.  0.
    9000005    1    3    3    0    0  0.37200562328E+02  0.16702483906E+02 -0.50659317998E+02  0.65040151493E+02  0.10000000000E+01 0.  0.
    9000005    1    3    3    0    0 -0.37200562328E+02 -0.16702483906E+02  0.44174237832E+02  0.60126683712E+02  0.10000000000E+01 0.  0.
<mgrwt>
<rscale>  0 0.12499872E+03</rscale>
<asrwt>0</asrwt>
<pdfrwt beam="1">  1        4 0.91293658E-02 0.12499872E+03</pdfrwt>
<pdfrwt beam="2">  1       -4 0.10127070E-01 0.12499872E+03</pdfrwt>
<totfact> 0.10449542E+04</totfact>
</mgrwt>
</event>
<event>
 5    1  0.3276024E-002  0.1249994E+03  0.7818608E-02  0.1235070E+00
         -4   -1    0    0    0  501 -0.00000000000E+00  0.00000000000E+00  0.16474251405E+03  0.16474740920E+03  0.12700000000E+01 0. -1.
          4   -1    0    0  501    0  0.00000000000E+00 -0.00000000000E+00 -0.23688755043E+02  0.23722774195E+02  0.12700000000E+01 0. -1.
         25    2    1    2    0    0  0.00000000000E+00  0.00000000000E+00  0.14105375901E+03  0.18847018339E+03  0.12499938838E+03 0.  0.
    9000005    1    3    3    0    0  0.18996518084E+02 -0.58930571375E+02  0.57774699351E+02  0.84691179157E+02  0.10000000000E+01 0.  0.
    9000005    1    3    3    0    0 -0.18996518084E+02  0.58930571375E+02  0.83279059658E+02  0.10377900423E+03  0.10000000000E+01 0.  0.
<mgrwt>
<rscale>  0 0.12499939E+03</rscale>
<asrwt>0</asrwt>
<pdfrwt beam="2">  1        4 0.36474172E-02 0.12499939E+03</pdfrwt>
<pdfrwt beam="1">  1       -4 0.25347996E-01 0.12499939E+03</pdfrwt>
<totfact> 0.92115442E+03</totfact>
</mgrwt>
</event>
<event>
 5    1  0.3276024E-002  0.1250026E+03  0.7818608E-02  0.1235065E+00
          4   -1    0    0  501    0  0.00000000000E+00  0.00000000000E+00  0.33747996464E+02  0.33771884244E+02  0.12700000000E+01 0. -1.
         -4   -1    0    0    0  501 -0.00000000000E+00 -0.00000000000E+00 -0.11568405289E+03  0.11569102383E+03  0.12700000000E+01 0. -1.
         25    2    1    2    0    0  0.00000000000E+00  0.00000000000E+00 -0.81936056430E+02  0.14946290807E+03  0.12500257416E+03 0.  0.
    9000005    1    3    3    0    0  0.22284016876E+01 -0.44448502370E+02  0.11489103549E+02  0.45974282347E+02  0.10000000000E+01 0.  0.
    9000005    1    3    3    0    0 -0.22284016876E+01  0.44448502370E+02 -0.93425159979E+02  0.10348862572E+03  0.10000000000E+01 0.  0.
<mgrwt>
<rscale>  0 0.12500257E+03</rscale>
<asrwt>0</asrwt>
<pdfrwt beam="1">  1        4 0.51943733E-02 0.12500257E+03</pdfrwt>
<pdfrwt beam="2">  1       -4 0.17799920E-01 0.12500257E+03</pdfrwt>
<totfact> 0.99405108E+03</totfact>
</mgrwt>
</event>
<event>
 5    1  0.3276024E-002  0.1249788E+03  0.7818608E-02  0.1235102E+00
         -4   -1    0    0    0  501 -0.00000000000E+00  0.00000000000E+00  0.75372968336E+03  0.75373075331E+03  0.12700000000E+01 0. -1.
          4   -1    0    0  501    0  0.00000000000E+00 -0.00000000000E+00 -0.51018860932E+01  0.52575794533E+01  0.12700000000E+01 0. -1.
         25    2    1    2    0    0  0.00000000000E+00  0.00000000000E+00  0.74862779727E+03  0.75898833276E+03  0.12497883990E+03 0.  0.
    9000005    1    3    3    0    0  0.48222842695E+02 -0.39704110805E+02  0.38304844538E+03  0.38810948260E+03  0.10000000000E+01 0.  0.
    9000005    1    3    3    0    0 -0.48222842695E+02  0.39704110805E+02  0.36557935189E+03  0.37087885017E+03  0.10000000000E+01 0.  0.
<mgrwt>
<rscale>  0 0.12497884E+03</rscale>
<asrwt>0</asrwt>
<pdfrwt beam="2">  1        4 0.79696405E-03 0.12497884E+03</pdfrwt>
<pdfrwt beam="1">  1       -4 0.11597050E+00 0.12497884E+03</pdfrwt>
<totfact> 0.40166438E+03</totfact>
</mgrwt>
</event>
<event>
 4    1  0.3276024E-002  0.1249046E+03  0.7818608E-02  0.1235218E+00
         -4   -1    0    0    0  501 -0.00000000000E+00  0.00000000000E+00  0.13347985030E+02  0.13408266270E+02  0.12700000000E+01 0.  1.
          4   -1    0    0  501    0  0.00000000000E+00 -0.00000000000E+00 -0.29148075666E+03  0.29148352338E+03  0.12700000000E+01 0.  1.
    9000005    1    1    2    0    0  0.31918064357E+02 -0.49710097731E+02 -0.89674062502E+02  0.10738851956E+03  0.10000000000E+01 0.  0.
    9000005    1    1    2    0    0 -0.31918064357E+02  0.49710097731E+02 -0.18845870913E+03  0.19750327008E+03  0.10000000000E+01 0.  0.
<mgrwt>
<rscale>  0 0.12490462E+03</rscale>
<asrwt>0</asrwt>
<pdfrwt beam="2">  1        4 0.44848038E-01 0.12490462E+03</pdfrwt>
<pdfrwt beam="1">  1       -4 0.20583862E-02 0.12490462E+03</pdfrwt>
<totfact> 0.75148240E+03</totfact>
</mgrwt>
</event>
<event>
 5    1  0.3276024E-002  0.1249998E+03  0.7818608E-02  0.1235070E+00
         -4   -1    0    0    0  501 -0.00000000000E+00  0.00000000000E+00  0.45892761033E+02  0.45910330158E+02  0.12700000000E+01 0. -1.
          4   -1    0    0  501    0  0.00000000000E+00 -0.00000000000E+00 -0.85078059989E+02  0.85087538403E+02  0.12700000000E+01 0. -1.
         25    2    1    2    0    0  0.00000000000E+00  0.00000000000E+00 -0.39185298956E+02  0.13099786856E+03  0.12499981565E+03 0.  0.
    9000005    1    3    3    0    0  0.50061525022E+00  0.60679397518E+02 -0.39429534928E+01  0.60817651887E+02  0.10000000000E+01 0.  0.
    9000005    1    3    3    0    0 -0.50061525022E+00 -0.60679397518E+02 -0.35242345463E+02  0.70180216675E+02  0.10000000000E+01 0.  0.
<mgrwt>
<rscale>  0 0.12499982E+03</rscale>
<asrwt>0</asrwt>
<pdfrwt beam="2">  1        4 0.13091013E-01 0.12499982E+03</pdfrwt>
<pdfrwt beam="1">  1       -4 0.70625054E-02 0.12499982E+03</pdfrwt>
<totfact> 0.10323178E+04</totfact>
</mgrwt>
</event>
<event>
 5    1  0.3276024E-002  0.1250015E+03  0.7818608E-02  0.1235067E+00
         -4   -1    0    0    0  501 -0.00000000000E+00  0.00000000000E+00  0.11073077954E+02  0.11145669804E+02  0.12700000000E+01 0.  1.
          4   -1    0    0  501    0  0.00000000000E+00 -0.00000000000E+00 -0.35155189263E+03  0.35155418660E+03  0.12700000000E+01 0.  1.
         25    2    1    2    0    0  0.00000000000E+00  0.00000000000E+00 -0.34047881468E+03  0.36269985640E+03  0.12500145035E+03 0.  0.
    9000005    1    3    3    0    0 -0.28444726229E+02  0.27167800765E+02 -0.29337155336E+02  0.49080143967E+02  0.10000000000E+01 0.  0.
    9000005    1    3    3    0    0  0.28444726229E+02 -0.27167800765E+02 -0.31114165934E+03  0.31361971243E+03  0.10000000000E+01 0.  0.
<mgrwt>
<rscale>  0 0.12500145E+03</rscale>
<asrwt>0</asrwt>
<pdfrwt beam="2">  1        4 0.54090659E-01 0.12500145E+03</pdfrwt>
<pdfrwt beam="1">  1       -4 0.17093112E-02 0.12500145E+03</pdfrwt>
<totfact> 0.68347459E+03</totfact>
</mgrwt>
</event>
<event>
 5    1  0.3276024E-002  0.1250017E+03  0.7818608E-02  0.1235067E+00
         -4   -1    0    0    0  501 -0.00000000000E+00  0.00000000000E+00  0.28324860725E+02  0.28353317885E+02  0.12700000000E+01 0. -1.
          4   -1    0    0  501    0  0.00000000000E+00 -0.00000000000E+00 -0.13781208907E+03  0.13781794075E+03  0.12700000000E+01 0. -1.
         25    2    1    2    0    0  0.00000000000E+00  0.00000000000E+00 -0.10948722834E+03  0.16617125864E+03  0.12500173610E+03 0.  0.
    9000005    1    3    3    0    0 -0.95002362789E+01  0.24173361029E+01 -0.13679014102E+03  0.13714459772E+03  0.10000000000E+01 0.  0.
    9000005    1    3    3    0    0  0.95002362789E+01 -0.24173361029E+01  0.27302912679E+02  0.29026660916E+02  0.10000000000E+01 0.  0.
<mgrwt>
<rscale>  0 0.12500174E+03</rscale>
<asrwt>0</asrwt>
<pdfrwt beam="2">  1        4 0.21204499E-01 0.12500174E+03</pdfrwt>
<pdfrwt beam="1">  1       -4 0.43603101E-02 0.12500174E+03</pdfrwt>
<totfact> 0.96162284E+03</totfact>
</mgrwt>
</event>
<event>
 5    1  0.3276024E-002  0.1250013E+03  0.7818608E-02  0.1235067E+00
          4   -1    0    0  501    0  0.00000000000E+00  0.00000000000E+00  0.31828862903E+01  0.34269031409E+01  0.12700000000E+01 0.  1.
         -4   -1    0    0    0  501 -0.00000000000E+00 -0.00000000000E+00 -0.11817390145E+04  0.11817396969E+04  0.12700000000E+01 0.  1.
         25    2    1    2    0    0  0.00000000000E+00  0.00000000000E+00 -0.11785561282E+04  0.11851666000E+04  0.12500129029E+03 0.  0.
    9000005    1    3    3    0    0  0.51663575196E+02  0.34948022261E+02 -0.55275206765E+03  0.55626103365E+03  0.10000000000E+01 0.  0.
    9000005    1    3    3    0    0 -0.51663575196E+02 -0.34948022261E+02 -0.62580406052E+03  0.62890556638E+03  0.10000000000E+01 0.  0.
<mgrwt>
<rscale>  0 0.12500129E+03</rscale>
<asrwt>0</asrwt>
<pdfrwt beam="1">  1        4 0.50849878E-03 0.12500129E+03</pdfrwt>
<pdfrwt beam="2">  1       -4 0.18182449E+00 0.12500129E+03</pdfrwt>
<totfact> 0.25103698E+03</totfact>
</mgrwt>
</event>
<event>
 5    1  0.3276024E-002  0.1250021E+03  0.7818608E-02  0.1235066E+00
          4   -1    0    0  501    0  0.00000000000E+00  0.00000000000E+00  0.52823675266E+03  0.52823827934E+03  0.12700000000E+01 0. -1.
         -4   -1    0    0    0  501 -0.00000000000E+00 -0.00000000000E+00 -0.73390585362E+01  0.74481326652E+01  0.12700000000E+01 0. -1.
         25    2    1    2    0    0  0.00000000000E+00  0.00000000000E+00  0.52089769412E+03  0.53568641201E+03  0.12500209704E+03 0.  0.
    9000005    1    3    3    0    0  0.61394275493E+02 -0.60156406724E+01  0.30328934055E+03  0.30950100014E+03  0.10000000000E+01 0.  0.
    9000005    1    3    3    0    0 -0.61394275493E+02  0.60156406724E+01  0.21760835357E+03  0.22618541186E+03  0.10000000000E+01 0.  0.
<mgrwt>
<rscale>  0 0.12500210E+03</rscale>
<asrwt>0</asrwt>
<pdfrwt beam="1">  1        4 0.81275690E-01 0.12500210E+03</pdfrwt>
<pdfrwt beam="2">  1       -4 0.11375938E-02 0.12500210E+03</pdfrwt>
<totfact> 0.53195642E+03</totfact>
</mgrwt>
</event>
<event>
 5    1  0.3276024E-002  0.1250034E+03  0.7818608E-02  0.1235064E+00
          4   -1    0    0  501    0  0.00000000000E+00  0.00000000000E+00  0.62198780664E+01  0.63482110205E+01  0.12700000000E+01 0.  1.
         -4   -1    0    0    0  501 -0.00000000000E+00 -0.00000000000E+00 -0.62151885609E+03  0.62152015364E+03  0.12700000000E+01 0.  1.
         25    2    1    2    0    0  0.00000000000E+00  0.00000000000E+00 -0.61529897802E+03  0.62786836466E+03  0.12500340387E+03 0.  0.
    9000005    1    3    3    0    0 -0.21878160810E+02 -0.57856912163E+02 -0.35240228746E+03  0.35779106810E+03  0.10000000000E+01 0.  0.
    9000005    1    3    3    0    0  0.21878160810E+02  0.57856912163E+02 -0.26289669056E+03  0.27007729656E+03  0.10000000000E+01 0.  0.
<mgrwt>
<rscale>  0 0.12500340E+03</rscale>
<asrwt>0</asrwt>
<pdfrwt beam="1">  1        4 0.96687639E-03 0.12500340E+03</pdfrwt>
<pdfrwt beam="2">  1       -4 0.95628209E-01 0.12500340E+03</pdfrwt>
<totfact> 0.47150942E+03</totfact>
</mgrwt>
</event>
<event>
 5    1  0.3276024E-002  0.1250025E+03  0.7818608E-02  0.1235065E+00
         -4   -1    0    0    0  501 -0.00000000000E+00  0.00000000000E+00  0.25350867436E+02  0.25382659036E+02  0.12700000000E+01 0.  1.
          4   -1    0    0  501    0  0.00000000000E+00 -0.00000000000E+00 -0.15396258378E+03  0.15396782165E+03  0.12700000000E+01 0.  1.
         25    2    1    2    0    0  0.00000000000E+00  0.00000000000E+00 -0.12861171635E+03  0.17935048069E+03  0.12500248535E+03 0.  0.
    9000005    1    3    3    0    0 -0.80234561888E+01 -0.28236075592E+02  0.14851016293E+02  0.32912072237E+02  0.10000000000E+01 0.  0.
    9000005    1    3    3    0    0  0.80234561888E+01  0.28236075592E+02 -0.14346273264E+03  0.14643840845E+03  0.10000000000E+01 0.  0.
<mgrwt>
<rscale>  0 0.12500249E+03</rscale>
<asrwt>0</asrwt>
<pdfrwt beam="2">  1        4 0.23689399E-01 0.12500249E+03</pdfrwt>
<pdfrwt beam="1">  1       -4 0.39029820E-02 0.12500249E+03</pdfrwt>
<totfact> 0.93728826E+03</totfact>
</mgrwt>
</event>
<event>
 5    1  0.3276024E-002  0.1249993E+03  0.7818608E-02  0.1235070E+00
          4   -1    0    0  501    0  0.00000000000E+00  0.00000000000E+00  0.24507288154E+03  0.24507617217E+03  0.12700000000E+01 0.  1.
         -4   -1    0    0    0  501 -0.00000000000E+00 -0.00000000000E+00 -0.15910261738E+02  0.15960868666E+02  0.12700000000E+01 0.  1.
         25    2    1    2    0    0  0.00000000000E+00  0.00000000000E+00  0.22916261980E+03  0.26103704083E+03  0.12499932150E+03 0.  0.
    9000005    1    3    3    0    0 -0.91988740789E+00 -0.24865661273E+02  0.23429181013E+03  0.23561154385E+03  0.10000000000E+01 0.  0.
    9000005    1    3    3    0    0  0.91988740789E+00  0.24865661273E+02 -0.51291903291E+01  0.25425496983E+02  0.10000000000E+01 0.  0.
<mgrwt>
<rscale>  0 0.12499932E+03</rscale>
<asrwt>0</asrwt>
<pdfrwt beam="1">  1        4 0.37707666E-01 0.12499932E+03</pdfrwt>
<pdfrwt beam="2">  1       -4 0.24518785E-02 0.12499932E+03</pdfrwt>
<totfact> 0.80761965E+03</totfact>
</mgrwt>
</event>
<event>
 5    1  0.3276024E-002  0.1250050E+03  0.7818608E-02  0.1235061E+00
          4   -1    0    0  501    0  0.00000000000E+00  0.00000000000E+00  0.17894120551E+03  0.17894571224E+03  0.12700000000E+01 0. -1.
         -4   -1    0    0    0  501 -0.00000000000E+00 -0.00000000000E+00 -0.21808303731E+02  0.21845251467E+02  0.12700000000E+01 0. -1.
         25    2    1    2    0    0  0.00000000000E+00  0.00000000000E+00  0.15713290178E+03  0.20079096371E+03  0.12500504904E+03 0.  0.
    9000005    1    3    3    0    0 -0.38214288138E+02 -0.46412022816E+02  0.51158227070E+02  0.78946639427E+02  0.10000000000E+01 0.  0.
    9000005    1    3    3    0    0  0.38214288138E+02  0.46412022816E+02  0.10597467471E+03  0.12184432428E+03  0.10000000000E+01 0.  0.
<mgrwt>
<rscale>  0 0.12500505E+03</rscale>
<asrwt>0</asrwt>
<pdfrwt beam="1">  1        4 0.27532606E-01 0.12500505E+03</pdfrwt>
<pdfrwt beam="2">  1       -4 0.33583123E-02 0.12500505E+03</pdfrwt>
<totfact> 0.89992106E+03</totfact>
</mgrwt>
</event>
<event>
 5    1  0.3276024E-002  0.1249963E+03  0.7818608E-02  0.1235075E+00
         -4   -1    0    0    0  501 -0.00000000000E+00  0.00000000000E+00  0.36232706796E+03  0.36232929370E+03  0.12700000000E+01 0.  1.
          4   -1    0    0  501    0  0.00000000000E+00 -0.00000000000E+00 -0.10740696373E+02  0.10815519339E+02  0.12700000000E+01 0.  1.
         25    2    1    2    0    0  0.00000000000E+00  0.00000000000E+00  0.35158637159E+03  0.37314481304E+03  0.12499629921E+03 0.  0.
    9000005    1    3    3    0    0 -0.48178349758E+01 -0.17431087315E+02 -0.27726042125E+01  0.18323254977E+02  0.10000000000E+01 0.  0.
    9000005    1    3    3    0    0  0.48178349758E+01  0.17431087315E+02  0.35435897580E+03  0.35482155807E+03  0.10000000000E+01 0.  0.
<mgrwt>
<rscale>  0 0.12499630E+03</rscale>
<asrwt>0</asrwt>
<pdfrwt beam="2">  1        4 0.16583420E-02 0.12499630E+03</pdfrwt>
<pdfrwt beam="1">  1       -4 0.55748541E-01 0.12499630E+03</pdfrwt>
<totfact> 0.67256717E+03</totfact>
</mgrwt>
</event>
<event>
 5    1  0.3276024E-002  0.1250018E+03  0.7818608E-02  0.1235066E+00
          4   -1    0    0  501    0  0.00000000000E+00  0.00000000000E+00  0.20358492034E+03  0.20358888155E+03  0.12700000000E+01 0. -1.
         -4   -1    0    0    0  501 -0.00000000000E+00 -0.00000000000E+00 -0.19162723704E+02  0.19204761903E+02  0.12700000000E+01 0. -1.
         25    2    1    2    0    0  0.00000000000E+00  0.00000000000E+00  0.18442219664E+03  0.22279364345E+03  0.12500184379E+03 0.  0.
    9000005    1    3    3    0    0  0.42642981852E+02  0.44059426313E+02  0.11372546204E+03  0.12920579579E+03  0.10000000000E+01 0.  0.
    9000005    1    3    3    0    0 -0.42642981852E+02 -0.44059426313E+02  0.70696734595E+02  0.93587847666E+02  0.10000000000E+01 0.  0.
<mgrwt>
<rscale>  0 0.12500184E+03</rscale>
<asrwt>0</asrwt>
<pdfrwt beam="1">  1        4 0.31324293E-01 0.12500184E+03</pdfrwt>
<pdfrwt beam="2">  1       -4 0.29516499E-02 0.12500184E+03</pdfrwt>
<totfact> 0.86424656E+03</totfact>
</mgrwt>
</event>
<event>
 5    1  0.3276024E-002  0.1249981E+03  0.7818608E-02  0.1235072E+00
         -4   -1    0    0    0  501 -0.00000000000E+00  0.00000000000E+00  0.13160558653E+03  0.13161171417E+03  0.12700000000E+01 0. -1.
          4   -1    0    0  501    0  0.00000000000E+00 -0.00000000000E+00 -0.29660174106E+02  0.29687351313E+02  0.12700000000E+01 0. -1.
         25    2    1    2    0    0  0.00000000000E+00  0.00000000000E+00  0.10194541243E+03  0.16129906548E+03  0.12499808563E+03 0.  0.
    9000005    1    3    3    0    0  0.25313130458E+02 -0.67507916530E+01  0.12418359186E+03  0.12692081093E+03  0.10000000000E+01 0.  0.
    9000005    1    3    3    0    0 -0.25313130458E+02  0.67507916530E+01 -0.22238179430E+02  0.34378254550E+02  0.10000000000E+01 0.  0.
<mgrwt>
<rscale>  0 0.12499809E+03</rscale>
<asrwt>0</asrwt>
<pdfrwt beam="2">  1        4 0.45656655E-02 0.12499809E+03</pdfrwt>
<pdfrwt beam="1">  1       -4 0.20249576E-01 0.12499809E+03</pdfrwt>
<totfact> 0.97097095E+03</totfact>
</mgrwt>
</event>
<event>
 5    1  0.3276024E-002  0.1250002E+03  0.7818608E-02  0.1235069E+00
          4   -1    0    0  501    0  0.00000000000E+00  0.00000000000E+00  0.75956579963E+03  0.75956686135E+03  0.12700000000E+01 0.  1.
         -4   -1    0    0    0  501 -0.00000000000E+00 -0.00000000000E+00 -0.50632705300E+01  0.52201157516E+01  0.12700000000E+01 0.  1.
         25    2    1    2    0    0  0.00000000000E+00  0.00000000000E+00  0.75450252910E+03  0.76478697710E+03  0.12500021573E+03 0.  0.
    9000005    1    3    3    0    0  0.44332114244E+02  0.43872079977E+02  0.40107939626E+03  0.40590119224E+03  0.10000000000E+01 0.  0.
    9000005    1    3    3    0    0 -0.44332114244E+02 -0.43872079977E+02  0.35342313284E+03  0.35888578487E+03  0.10000000000E+01 0.  0.
<mgrwt>
<rscale>  0 0.12500022E+03</rscale>
<asrwt>0</asrwt>
<pdfrwt beam="1">  1        4 0.11686831E+00 0.12500022E+03</pdfrwt>
<pdfrwt beam="2">  1       -4 0.79111216E-03 0.12500022E+03</pdfrwt>
<totfact> 0.39876512E+03</totfact>
</mgrwt>
</event>
<event>
 5    1  0.3276024E-002  0.1249945E+03  0.7818608E-02  0.1235078E+00
          4   -1    0    0  501    0  0.00000000000E+00  0.00000000000E+00  0.88276813016E+01  0.89185681117E+01  0.12700000000E+01 0. -1.
         -4   -1    0    0    0  501 -0.00000000000E+00 -0.00000000000E+00 -0.44010346238E+03  0.44010529478E+03  0.12700000000E+01 0. -1.
         25    2    1    2    0    0  0.00000000000E+00  0.00000000000E+00 -0.43127578108E+03  0.44902386289E+03  0.12499452031E+03 0.  0.
    9000005    1    3    3    0    0  0.47735660818E+02 -0.37452800624E+02 -0.16193234969E+03  0.17292915157E+03  0.10000000000E+01 0.  0.
    9000005    1    3    3    0    0 -0.47735660818E+02  0.37452800624E+02 -0.26934343139E+03  0.27609471132E+03  0.10000000000E+01 0.  0.
<mgrwt>
<rscale>  0 0.12499452E+03</rscale>
<asrwt>0</asrwt>
<pdfrwt beam="1">  1        4 0.13652374E-02 0.12499452E+03</pdfrwt>
<pdfrwt beam="2">  1       -4 0.67715341E-01 0.12499452E+03</pdfrwt>
<totfact> 0.60055707E+03</totfact>
</mgrwt>
</event>
<event>
 5    1  0.3276024E-002  0.1250045E+03  0.7818608E-02  0.1235062E+00
          4   -1    0    0  501    0  0.00000000000E+00  0.00000000000E+00  0.85631258303E+02  0.85640675491E+02  0.12700000000E+01 0. -1.
         -4   -1    0    0    0  501 -0.00000000000E+00 -0.00000000000E+00 -0.45599616120E+02  0.45617298148E+02  0.12700000000E+01 0. -1.
         25    2    1    2    0    0  0.00000000000E+00  0.00000000000E+00  0.40031642182E+02  0.13125797364E+03  0.12500449299E+03 0.  0.
    9000005    1    3    3    0    0 -0.15607581278E+02 -0.29156525265E+02 -0.35663598516E+02  0.48647629109E+02  0.10000000000E+01 0.  0.
    9000005    1    3    3    0    0  0.15607581278E+02  0.29156525265E+02  0.75695240698E+02  0.82610344529E+02  0.10000000000E+01 0.  0.
<mgrwt>
<rscale>  0 0.12500449E+03</rscale>
<asrwt>0</asrwt>
<pdfrwt beam="1">  1        4 0.13176124E-01 0.12500449E+03</pdfrwt>
<pdfrwt beam="2">  1       -4 0.70174101E-02 0.12500449E+03</pdfrwt>
<totfact> 0.10316516E+04</totfact>
</mgrwt>
</event>
<event>
 5    1  0.3276024E-002  0.1249992E+03  0.7818608E-02  0.1235071E+00
         -4   -1    0    0    0  501 -0.00000000000E+00  0.00000000000E+00  0.49366310570E+01  0.50973744412E+01  0.12700000000E+01 0. -1.
          4   -1    0    0  501    0  0.00000000000E+00 -0.00000000000E+00 -0.77843076482E+03  0.77843180081E+03  0.12700000000E+01 0. -1.
         25    2    1    2    0    0  0.00000000000E+00  0.00000000000E+00 -0.77349413376E+03  0.78352917525E+03  0.12499917404E+03 0.  0.
    9000005    1    3    3    0    0  0.18366202888E+02 -0.11583899763E+02 -0.75405375706E+03  0.75436700132E+03  0.10000000000E+01 0.  0.
    9000005    1    3    3    0    0 -0.18366202888E+02  0.11583899763E+02 -0.19440376697E+02  0.29162173930E+02  0.10000000000E+01 0.  0.
<mgrwt>
<rscale>  0 0.12499917E+03</rscale>
<asrwt>0</asrwt>
<pdfrwt beam="2">  1        4 0.11977093E+00 0.12499917E+03</pdfrwt>
<pdfrwt beam="1">  1       -4 0.77192689E-03 0.12499917E+03</pdfrwt>
<totfact> 0.39011420E+03</totfact>
</mgrwt>
</event>
<event>
 5    1  0.3276024E-002  0.1249987E+03  0.7818608E-02  0.1235071E+00
          4   -1    0    0  501    0  0.00000000000E+00  0.00000000000E+00  0.17212733881E+02  0.17259522232E+02  0.12700000000E+01 0. -1.
         -4   -1    0    0    0  501 -0.00000000000E+00 -0.00000000000E+00 -0.22657837430E+03  0.22658193353E+03  0.12700000000E+01 0. -1.
         25    2    1    2    0    0  0.00000000000E+00  0.00000000000E+00 -0.20936564042E+03  0.24384145576E+03  0.12499873663E+03 0.  0.
    9000005    1    3    3    0    0  0.55256574524E+02  0.59455242908E+01 -0.16042561300E+03  0.16978225936E+03  0.10000000000E+01 0.  0.
    9000005    1    3    3    0    0 -0.55256574524E+02 -0.59455242908E+01 -0.48940027421E+02  0.74059196399E+02  0.10000000000E+01 0.  0.
<mgrwt>
<rscale>  0 0.12499874E+03</rscale>
<asrwt>0</asrwt>
<pdfrwt beam="1">  1        4 0.26519860E-02 0.12499874E+03</pdfrwt>
<pdfrwt beam="2">  1       -4 0.34862082E-01 0.12499874E+03</pdfrwt>
<totfact> 0.83230901E+03</totfact>
</mgrwt>
</event>
<event>
 5    1  0.3276024E-002  0.1249992E+03  0.7818608E-02  0.1235071E+00
          4   -1    0    0  501    0  0.00000000000E+00  0.00000000000E+00  0.14822744275E+03  0.14823288327E+03  0.12700000000E+01 0.  1.
         -4   -1    0    0    0  501 -0.00000000000E+00 -0.00000000000E+00 -0.26331521209E+02  0.26362130209E+02  0.12700000000E+01 0.  1.
         25    2    1    2    0    0  0.00000000000E+00  0.00000000000E+00  0.12189592154E+03  0.17459501348E+03  0.12499921218E+03 0.  0.
    9000005    1    3    3    0    0 -0.48231789890E+02  0.36510515689E+02  0.39045953956E+02  0.72006318002E+02  0.10000000000E+01 0.  0.
    9000005    1    3    3    0    0  0.48231789890E+02 -0.36510515689E+02  0.82849967583E+02  0.10258869548E+03  0.10000000000E+01 0.  0.
<mgrwt>
<rscale>  0 0.12499921E+03</rscale>
<asrwt>0</asrwt>
<pdfrwt beam="1">  1        4 0.22806994E-01 0.12499921E+03</pdfrwt>
<pdfrwt beam="2">  1       -4 0.40537764E-02 0.12499921E+03</pdfrwt>
<totfact> 0.94600738E+03</totfact>
</mgrwt>
</event>
<event>
 5    1  0.3276024E-002  0.1250096E+03  0.7818608E-02  0.1235054E+00
         -4   -1    0    0    0  501 -0.00000000000E+00  0.00000000000E+00  0.10241545525E+03  0.10242332925E+03  0.12700000000E+01 0. -1.
          4   -1    0    0  501    0  0.00000000000E+00 -0.00000000000E+00 -0.38127167529E+02  0.38148313249E+02  0.12700000000E+01 0. -1.
         25    2    1    2    0    0  0.00000000000E+00  0.00000000000E+00  0.64288287720E+02  0.14057164249E+03  0.12500961057E+03 0.  0.
    9000005    1    3    3    0    0 -0.45661961370E+02  0.36655952027E+02  0.75804239895E+01  0.59051980179E+02  0.10000000000E+01 0.  0.
    9000005    1    3    3    0    0  0.45661961370E+02 -0.36655952027E+02  0.56707863730E+02  0.81519662316E+02  0.10000000000E+01 0.  0.
<mgrwt>
<rscale>  0 0.12500961E+03</rscale>
<asrwt>0</asrwt>
<pdfrwt beam="2">  1        4 0.58679505E-02 0.12500961E+03</pdfrwt>
<pdfrwt beam="1">  1       -4 0.15758456E-01 0.12500961E+03</pdfrwt>
<totfact> 0.10119561E+04</totfact>
</mgrwt>
</event>
<event>
 5    1  0.3276024E-002  0.1249980E+03  0.7818608E-02  0.1235072E+00
          4   -1    0    0  501    0  0.00000000000E+00  0.00000000000E+00  0.32126499446E+02  0.32151591977E+02  0.12700000000E+01 0. -1.
         -4   -1    0    0    0  501 -0.00000000000E+00 -0.00000000000E+00 -0.12150996650E+03  0.12151660323E+03  0.12700000000E+01 0. -1.
         25    2    1    2    0    0  0.00000000000E+00  0.00000000000E+00 -0.89383467058E+02  0.15366819520E+03  0.12499804012E+03 0.  0.
    9000005    1    3    3    0    0  0.37579217508E+02  0.92848095947E+01 -0.10500235057E+03  0.11191469476E+03  0.10000000000E+01 0.  0.
    9000005    1    3    3    0    0 -0.37579217508E+02 -0.92848095947E+01  0.15618883509E+02  0.41753500449E+02  0.10000000000E+01 0.  0.
<mgrwt>
<rscale>  0 0.12499804E+03</rscale>
<asrwt>0</asrwt>
<pdfrwt beam="1">  1        4 0.49449791E-02 0.12499804E+03</pdfrwt>
<pdfrwt beam="2">  1       -4 0.18696281E-01 0.12499804E+03</pdfrwt>
<totfact> 0.98581806E+03</totfact>
</mgrwt>
</event>
<event>
 5    1  0.3276024E-002  0.1250141E+03  0.7818608E-02  0.1235047E+00
          4   -1    0    0  501    0  0.00000000000E+00  0.00000000000E+00  0.80659706648E+02  0.80669704205E+02  0.12700000000E+01 0.  1.
         -4   -1    0    0    0  501 -0.00000000000E+00 -0.00000000000E+00 -0.48418335574E+02  0.48434988590E+02  0.12700000000E+01 0.  1.
         25    2    1    2    0    0  0.00000000000E+00  0.00000000000E+00  0.32241371074E+02  0.12910469280E+03  0.12501406198E+03 0.  0.
    9000005    1    3    3    0    0  0.61310875992E+02  0.11686385953E+02  0.19472465701E+02  0.65389387915E+02  0.10000000000E+01 0.  0.
    9000005    1    3    3    0    0 -0.61310875992E+02 -0.11686385953E+02  0.12768905373E+02  0.63715304880E+02  0.10000000000E+01 0.  0.
<mgrwt>
<rscale>  0 0.12501406E+03</rscale>
<asrwt>0</asrwt>
<pdfrwt beam="1">  1        4 0.12411236E-01 0.12501406E+03</pdfrwt>
<pdfrwt beam="2">  1       -4 0.74510248E-02 0.12501406E+03</pdfrwt>
<totfact> 0.10360409E+04</totfact>
</mgrwt>
</event>
<event>
 5    1  0.3276024E-002  0.1249962E+03  0.7818608E-02  0.1235075E+00
          4   -1    0    0  501    0  0.00000000000E+00  0.00000000000E+00  0.68714376963E+01  0.69878148239E+01  0.12700000000E+01 0.  1.
         -4   -1    0    0    0  501 -0.00000000000E+00 -0.00000000000E+00 -0.56355170727E+03  0.56355313828E+03  0.12700000000E+01 0.  1.
         25    2    1    2    0    0  0.00000000000E+00  0.00000000000E+00 -0.55668026957E+03  0.57054095310E+03  0.12499622649E+03 0.  0.
    9000005    1    3    3    0    0 -0.39124077946E+01  0.35793227199E+02 -0.51146558052E+03  0.51273238839E+03  0.10000000000E+01 0.  0.
    9000005    1    3    3    0    0  0.39124077946E+01 -0.35793227199E+02 -0.45214689049E+02  0.57808564710E+02  0.10000000000E+01 0.  0.
<mgrwt>
<rscale>  0 0.12499623E+03</rscale>
<asrwt>0</asrwt>
<pdfrwt beam="1">  1        4 0.10662069E-02 0.12499623E+03</pdfrwt>
<pdfrwt beam="2">  1       -4 0.86709289E-01 0.12499623E+03</pdfrwt>
<totfact> 0.50785784E+03</totfact>
</mgrwt>
</event>
<event>
 5    1  0.3276024E-002  0.1250013E+03  0.7818608E-02  0.1235067E+00
         -4   -1    0    0    0  501 -0.00000000000E+00  0.00000000000E+00  0.12270303205E+02  0.12335851845E+02  0.12700000000E+01 0. -1.
          4   -1    0    0  501    0  0.00000000000E+00 -0.00000000000E+00 -0.31744175235E+03  0.31744429281E+03  0.12700000000E+01 0. -1.
         25    2    1    2    0    0  0.00000000000E+00  0.00000000000E+00 -0.30517144915E+03  0.32978014466E+03  0.12500132173E+03 0.  0.
    9000005    1    3    3    0    0  0.10785702385E+02 -0.42061923274E+02 -0.27115267124E+03  0.27460937326E+03  0.10000000000E+01 0.  0.
    9000005    1    3    3    0    0 -0.10785702385E+02  0.42061923274E+02 -0.34018777914E+02  0.55170771394E+02  0.10000000000E+01 0.  0.
<mgrwt>
<rscale>  0 0.12500132E+03</rscale>
<asrwt>0</asrwt>
<pdfrwt beam="2">  1        4 0.48842424E-01 0.12500132E+03</pdfrwt>
<pdfrwt beam="1">  1       -4 0.18929768E-02 0.12500132E+03</pdfrwt>
<totfact> 0.72005704E+03</totfact>
</mgrwt>
</event>
<event>
 4    1  0.3276024E-002  0.1251443E+03  0.7818608E-02  0.1234844E+00
         -4   -1    0    0    0  501 -0.00000000000E+00  0.00000000000E+00  0.63383898042E+02  0.63396620028E+02  0.12700000000E+01 0.  1.
          4   -1    0    0  501    0  0.00000000000E+00 -0.00000000000E+00 -0.61745328907E+02  0.61758388433E+02  0.12700000000E+01 0.  1.
    9000005    1    1    2    0    0 -0.23133368852E+02 -0.39436669656E+02  0.43529726163E+02  0.63136682902E+02  0.10000000000E+01 0.  0.
    9000005    1    1    2    0    0  0.23133368852E+02  0.39436669656E+02 -0.41891157028E+02  0.62018325559E+02  0.10000000000E+01 0.  0.
<mgrwt>
<rscale>  0 0.12514428E+03</rscale>
<asrwt>0</asrwt>
<pdfrwt beam="2">  1        4 0.95012646E-02 0.12514428E+03</pdfrwt>
<pdfrwt beam="1">  1       -4 0.97533521E-02 0.12514428E+03</pdfrwt>
<totfact> 0.10415496E+04</totfact>
</mgrwt>
</event>
<event>
 5    1  0.3276024E-002  0.1249991E+03  0.7818608E-02  0.1235071E+00
         -4   -1    0    0    0  501 -0.00000000000E+00  0.00000000000E+00  0.91012844611E+01  0.91894656451E+01  0.12700000000E+01 0. -1.
          4   -1    0    0  501    0  0.00000000000E+00 -0.00000000000E+00 -0.42703324011E+03  0.42703512860E+03  0.12700000000E+01 0. -1.
         25    2    1    2    0    0  0.00000000000E+00  0.00000000000E+00 -0.41793195565E+03  0.43622459425E+03  0.12499910829E+03 0.  0.
    9000005    1    3    3    0    0  0.61005241469E+02 -0.82860525553E+01 -0.24637323828E+03  0.25395092182E+03  0.10000000000E+01 0.  0.
    9000005    1    3    3    0    0 -0.61005241469E+02  0.82860525553E+01 -0.17155871737E+03  0.18227367243E+03  0.10000000000E+01 0.  0.
<mgrwt>
<rscale>  0 0.12499911E+03</rscale>
<asrwt>0</asrwt>
<pdfrwt beam="2">  1        4 0.65704335E-01 0.12499911E+03</pdfrwt>
<pdfrwt beam="1">  1       -4 0.14071264E-02 0.12499911E+03</pdfrwt>
<totfact> 0.61177004E+03</totfact>
</mgrwt>
</event>
<event>
 5    1  0.3276024E-002  0.1249979E+03  0.7818608E-02  0.1235073E+00
         -4   -1    0    0    0  501 -0.00000000000E+00  0.00000000000E+00  0.90222350763E+02  0.90231288793E+02  0.12700000000E+01 0.  1.
          4   -1    0    0  501    0  0.00000000000E+00 -0.00000000000E+00 -0.43273972855E+02  0.43292604757E+02  0.12700000000E+01 0.  1.
         25    2    1    2    0    0  0.00000000000E+00  0.00000000000E+00  0.46948377909E+02  0.13352389355E+03  0.12499791982E+03 0.  0.
    9000005    1    3    3    0    0 -0.58550472582E+02 -0.19692241910E+02  0.13386667303E+02  0.63215070137E+02  0.10000000000E+01 0.  0.
    9000005    1    3    3    0    0  0.58550472582E+02  0.19692241910E+02  0.33561710606E+02  0.70308823413E+02  0.10000000000E+01 0.  0.
<mgrwt>
<rscale>  0 0.12499792E+03</rscale>
<asrwt>0</asrwt>
<pdfrwt beam="2">  1        4 0.66596550E-02 0.12499792E+03</pdfrwt>
<pdfrwt beam="1">  1       -4 0.13882482E-01 0.12499792E+03</pdfrwt>
<totfact> 0.10269760E+04</totfact>
</mgrwt>
</event>
<event>
 5    1  0.3276024E-002  0.1249827E+03  0.7818608E-02  0.1235096E+00
         -4   -1    0    0    0  501 -0.00000000000E+00  0.00000000000E+00  0.93034099386E+02  0.93042767309E+02  0.12700000000E+01 0.  1.
          4   -1    0    0  501    0  0.00000000000E+00 -0.00000000000E+00 -0.41955453293E+02  0.41974670469E+02  0.12700000000E+01 0.  1.
         25    2    1    2    0    0  0.00000000000E+00  0.00000000000E+00  0.51078646093E+02  0.13501743778E+03  0.12498272048E+03 0.  0.
    9000005    1    3    3    0    0 -0.60567812457E+02  0.14231509312E+02  0.19317164936E+02  0.65154805074E+02  0.10000000000E+01 0.  0.
    9000005    1    3    3    0    0  0.60567812457E+02 -0.14231509312E+02  0.31761481157E+02  0.69862632704E+02  0.10000000000E+01 0.  0.
<mgrwt>
<rscale>  0 0.12498272E+03</rscale>
<asrwt>0</asrwt>
<pdfrwt beam="2">  1        4 0.64568302E-02 0.12498272E+03</pdfrwt>
<pdfrwt beam="1">  1       -4 0.14315083E-01 0.12498272E+03</pdfrwt>
<totfact> 0.10241694E+04</totfact>
</mgrwt>
</event>
<event>
 5    1  0.3276024E-002  0.1250052E+03  0.7818608E-02  0.1235061E+00
         -4   -1    0    0    0  501 -0.00000000000E+00  0.00000000000E+00  0.16715139710E+03  0.16715622170E+03  0.12700000000E+01 0. -1.
          4   -1    0    0  501    0  0.00000000000E+00 -0.00000000000E+00 -0.23349060000E+02  0.23383573356E+02  0.12700000000E+01 0. -1.
         25    2    1    2    0    0  0.00000000000E+00  0.00000000000E+00  0.14380233710E+03  0.19053979506E+03  0.12500520527E+03 0.  0.
    9000005    1    3    3    0    0 -0.21205150535E+02  0.50326434841E+02  0.11821361301E+03  0.13022237424E+03  0.10000000000E+01 0.  0.
    9000005    1    3    3    0    0  0.21205150535E+02 -0.50326434841E+02  0.25588724096E+02  0.60317420816E+02  0.10000000000E+01 0.  0.
<mgrwt>
<rscale>  0 0.12500521E+03</rscale>
<asrwt>0</asrwt>
<pdfrwt beam="2">  1        4 0.35951890E-02 0.12500521E+03</pdfrwt>
<pdfrwt beam="1">  1       -4 0.25718626E-01 0.12500521E+03</pdfrwt>
<totfact> 0.91742779E+03</totfact>
</mgrwt>
</event>
<event>
 5    1  0.3276024E-002  0.1249988E+03  0.7818608E-02  0.1235071E+00
         -4   -1    0    0    0  501 -0.00000000000E+00  0.00000000000E+00  0.27968109021E+04  0.27968111904E+04  0.12700000000E+01 0.  1.
          4   -1    0    0  501    0  0.00000000000E+00 -0.00000000000E+00 -0.11075962306E+01  0.16851318673E+01  0.12700000000E+01 0.  1.
         25    2    1    2    0    0  0.00000000000E+00  0.00000000000E+00  0.27957033058E+04  0.27984963223E+04  0.12499876621E+03 0.  0.
    9000005    1    3    3    0    0  0.10240244844E+02 -0.49999661582E+02  0.59052709675E+03  0.59272934866E+03  0.10000000000E+01 0.  0.
    9000005    1    3    3    0    0 -0.10240244844E+02  0.49999661582E+02  0.22051762091E+04  0.22057669736E+04  0.10000000000E+01 0.  0.
<mgrwt>
<rscale>  0 0.12499877E+03</rscale>
<asrwt>0</asrwt>
<pdfrwt beam="2">  1        4 0.21484769E-03 0.12499877E+03</pdfrwt>
<pdfrwt beam="1">  1       -4 0.43032250E+00 0.12499877E+03</pdfrwt>
<totfact> 0.27257277E+02</totfact>
</mgrwt>
</event>
<event>
 5    1  0.3276024E-002  0.1249977E+03  0.7818608E-02  0.1235073E+00
          4   -1    0    0  501    0  0.00000000000E+00  0.00000000000E+00  0.47372293645E+02  0.47389314251E+02  0.12700000000E+01 0.  1.
         -4   -1    0    0    0  501 -0.00000000000E+00 -0.00000000000E+00 -0.82418824757E+02  0.82428608956E+02  0.12700000000E+01 0.  1.
         25    2    1    2    0    0  0.00000000000E+00  0.00000000000E+00 -0.35046531113E+02  0.12981792321E+03  0.12499773535E+03 0.  0.
    9000005    1    3    3    0    0 -0.24580799359E+02 -0.56927182519E+02 -0.94659601034E+01  0.62733756522E+02  0.10000000000E+01 0.  0.
    9000005    1    3    3    0    0  0.24580799359E+02  0.56927182519E+02 -0.25580571009E+02  0.67084166685E+02  0.10000000000E+01 0.  0.
<mgrwt>
<rscale>  0 0.12499774E+03</rscale>
<asrwt>0</asrwt>
<pdfrwt beam="1">  1        4 0.72901071E-02 0.12499774E+03</pdfrwt>
<pdfrwt beam="2">  1       -4 0.12681881E-01 0.12499774E+03</pdfrwt>
<totfact> 0.10348933E+04</totfact>
</mgrwt>
</event>
<event>
 5    1  0.3276024E-002  0.1250040E+03  0.7818608E-02  0.1235063E+00
         -4   -1    0    0    0  501 -0.00000000000E+00  0.00000000000E+00  0.43046040107E+01  0.44880414090E+01  0.12700000000E+01 0. -1.
          4   -1    0    0  501    0  0.00000000000E+00 -0.00000000000E+00 -0.88839910696E+03  0.88840001471E+03  0.12700000000E+01 0. -1.
         25    2    1    2    0    0  0.00000000000E+00  0.00000000000E+00 -0.88409450295E+03  0.89288805612E+03  0.12500396244E+03 0.  0.
    9000005    1    3    3    0    0  0.94093500843E+01 -0.52370534675E+02 -0.20792980689E+03  0.21463227475E+03  0.10000000000E+01 0.  0.
    9000005    1    3    3    0    0 -0.94093500843E+01  0.52370534675E+02 -0.67616469606E+03  0.67825578137E+03  0.10000000000E+01 0.  0.
<mgrwt>
<rscale>  0 0.12500396E+03</rscale>
<asrwt>0</asrwt>
<pdfrwt beam="2">  1        4 0.13669082E+00 0.12500396E+03</pdfrwt>
<pdfrwt beam="1">  1       -4 0.67642787E-03 0.12500396E+03</pdfrwt>
<totfact> 0.34430605E+03</totfact>
</mgrwt>
</event>
<event>
 5    1  0.3276024E-002  0.1249957E+03  0.7818608E-02  0.1235076E+00
          4   -1    0    0  501    0  0.00000000000E+00  0.00000000000E+00  0.32229142800E+02  0.32254155478E+02  0.12700000000E+01 0.  1.
         -4   -1    0    0    0  501 -0.00000000000E+00 -0.00000000000E+00 -0.12111865396E+03  0.12112531213E+03  0.12700000000E+01 0.  1.
         25    2    1    2    0    0  0.00000000000E+00  0.00000000000E+00 -0.88889511164E+02  0.15337946761E+03  0.12499566348E+03 0.  0.
    9000005    1    3    3    0    0  0.14628587930E+02  0.57004152807E+02 -0.70228294581E+02  0.91632321709E+02  0.10000000000E+01 0.  0.
    9000005    1    3    3    0    0 -0.14628587930E+02 -0.57004152807E+02 -0.18661216583E+02  0.61747145897E+02  0.10000000000E+01 0.  0.
<mgrwt>
<rscale>  0 0.12499566E+03</rscale>
<asrwt>0</asrwt>
<pdfrwt beam="1">  1        4 0.49607659E-02 0.12499566E+03</pdfrwt>
<pdfrwt beam="2">  1       -4 0.18636075E-01 0.12499566E+03</pdfrwt>
<totfact> 0.98643891E+03</totfact>
</mgrwt>
</event>
<event>
 5    1  0.3276024E-002  0.1249999E+03  0.7818608E-02  0.1235069E+00
         -4   -1    0    0    0  501 -0.00000000000E+00  0.00000000000E+00  0.10218997144E+03  0.10219786281E+03  0.12700000000E+01 0. -1.
          4   -1    0    0  501    0  0.00000000000E+00 -0.00000000000E+00 -0.38205377414E+02  0.38226479871E+02  0.12700000000E+01 0. -1.
         25    2    1    2    0    0  0.00000000000E+00  0.00000000000E+00  0.63984594024E+02  0.14042434268E+03  0.12499987098E+03 0.  0.
    9000005    1    3    3    0    0  0.21106032497E+02  0.34790261724E+02  0.85272715831E+02  0.94489486102E+02  0.10000000000E+01 0.  0.
    9000005    1    3    3    0    0 -0.21106032497E+02 -0.34790261724E+02 -0.21288121807E+02  0.45934856576E+02  0.10000000000E+01 0.  0.
<mgrwt>
<rscale>  0 0.12499987E+03</rscale>
<asrwt>0</asrwt>
<pdfrwt beam="2">  1        4 0.58799806E-02 0.12499987E+03</pdfrwt>
<pdfrwt beam="1">  1       -4 0.15723764E-01 0.12499987E+03</pdfrwt>
<totfact> 0.10124828E+04</totfact>
</mgrwt>
</event>
<event>
 5    1  0.3276024E-002  0.1249849E+03  0.7818608E-02  0.1235093E+00
         -4   -1    0    0    0  501 -0.00000000000E+00  0.00000000000E+00  0.15007037955E+03  0.15007575327E+03  0.12700000000E+01 0.  1.
          4   -1    0    0  501    0  0.00000000000E+00 -0.00000000000E+00 -0.26001834714E+02  0.26032831358E+02  0.12700000000E+01 0.  1.
         25    2    1    2    0    0  0.00000000000E+00  0.00000000000E+00  0.12406854484E+03  0.17610858463E+03  0.12498491813E+03 0.  0.
    9000005    1    3    3    0    0  0.10697283732E+02 -0.60560019385E+02  0.46448010712E+02  0.77073766783E+02  0.10000000000E+01 0.  0.
    9000005    1    3    3    0    0 -0.10697283732E+02  0.60560019385E+02  0.77620534126E+02  0.99034817842E+02  0.10000000000E+01 0.  0.
<mgrwt>
<rscale>  0 0.12498492E+03</rscale>
<asrwt>0</asrwt>
<pdfrwt beam="2">  1        4 0.40030799E-02 0.12498492E+03</pdfrwt>
<pdfrwt beam="1">  1       -4 0.23090549E-01 0.12498492E+03</pdfrwt>
<totfact> 0.94354113E+03</totfact>
</mgrwt>
</event>
<event>
 5    1  0.3276024E-002  0.1249976E+03  0.7818608E-02  0.1235073E+00
          4   -1    0    0  501    0  0.00000000000E+00  0.00000000000E+00  0.47994728916E+01  0.49646591059E+01  0.12700000000E+01 0.  1.
         -4   -1    0    0    0  501 -0.00000000000E+00 -0.00000000000E+00 -0.79992613051E+03  0.79992713866E+03  0.12700000000E+01 0.  1.
         25    2    1    2    0    0  0.00000000000E+00  0.00000000000E+00 -0.79512665761E+03  0.80489179777E+03  0.12499761783E+03 0.  0.
    9000005    1    3    3    0    0 -0.29324250928E+02 -0.50137776888E+01 -0.75143266929E+03  0.75202201174E+03  0.10000000000E+01 0.  0.
    9000005    1    3    3    0    0  0.29324250928E+02  0.50137776888E+01 -0.43693988323E+02  0.52869786030E+02  0.10000000000E+01 0.  0.
<mgrwt>
<rscale>  0 0.12499762E+03</rscale>
<asrwt>0</asrwt>
<pdfrwt beam="1">  1        4 0.75116526E-03 0.12499762E+03</pdfrwt>
<pdfrwt beam="2">  1       -4 0.12307824E+00 0.12499762E+03</pdfrwt>
<totfact> 0.38049282E+03</totfact>
</mgrwt>
</event>
<event>
 5    1  0.3276024E-002  0.1249444E+03  0.7818608E-02  0.1235156E+00
          4   -1    0    0  501    0  0.00000000000E+00  0.00000000000E+00  0.21496961784E+02  0.21534443711E+02  0.12700000000E+01 0.  1.
         -4   -1    0    0    0  501 -0.00000000000E+00 -0.00000000000E+00 -0.18135219812E+03  0.18135664494E+03  0.12700000000E+01 0.  1.
         25    2    1    2    0    0  0.00000000000E+00  0.00000000000E+00 -0.15985523634E+03  0.20289108865E+03  0.12494437670E+03 0.  0.
    9000005    1    3    3    0    0 -0.33834584436E+02 -0.51759300247E+02 -0.65588905316E+02  0.90148259920E+02  0.10000000000E+01 0.  0.
    9000005    1    3    3    0    0  0.33834584436E+02  0.51759300247E+02 -0.94266331024E+02  0.11274282873E+03  0.10000000000E+01 0.  0.
<mgrwt>
<rscale>  0 0.12494438E+03</rscale>
<asrwt>0</asrwt>
<pdfrwt beam="1">  1        4 0.33104503E-02 0.12494438E+03</pdfrwt>
<pdfrwt beam="2">  1       -4 0.27903562E-01 0.12494438E+03</pdfrwt>
<totfact> 0.89761830E+03</totfact>
</mgrwt>
</event>
<event>
 5    1  0.3276024E-002  0.1250379E+03  0.7818608E-02  0.1235010E+00
         -4   -1    0    0    0  501 -0.00000000000E+00  0.00000000000E+00  0.96434325225E+01  0.97266998934E+01  0.12700000000E+01 0.  1.
          4   -1    0    0  501    0  0.00000000000E+00 -0.00000000000E+00 -0.40348768090E+03  0.40348967959E+03  0.12700000000E+01 0.  1.
         25    2    1    2    0    0  0.00000000000E+00  0.00000000000E+00 -0.39384424838E+03  0.41321637949E+03  0.12503793143E+03 0.  0.
    9000005    1    3    3    0    0  0.15105099874E+02  0.49569306136E+01  0.28673748399E+01  0.16185087018E+02  0.10000000000E+01 0.  0.
    9000005    1    3    3    0    0 -0.15105099874E+02 -0.49569306136E+01 -0.39671162322E+03  0.39703129247E+03  0.10000000000E+01 0.  0.
<mgrwt>
<rscale>  0 0.12503793E+03</rscale>
<asrwt>0</asrwt>
<pdfrwt beam="2">  1        4 0.62081574E-01 0.12503793E+03</pdfrwt>
<pdfrwt beam="1">  1       -4 0.14901642E-02 0.12503793E+03</pdfrwt>
<totfact> 0.63234430E+03</totfact>
</mgrwt>
</event>
<event>
 5    1  0.3276024E-002  0.1250012E+03  0.7818608E-02  0.1235067E+00
         -4   -1    0    0    0  501 -0.00000000000E+00  0.00000000000E+00  0.43204343152E+03  0.43204529811E+03  0.12700000000E+01 0.  1.
          4   -1    0    0  501    0  0.00000000000E+00 -0.00000000000E+00 -0.89950150790E+01  0.90842278852E+01  0.12700000000E+01 0.  1.
         25    2    1    2    0    0  0.00000000000E+00  0.00000000000E+00  0.42304841644E+03  0.44112952599E+03  0.12500118420E+03 0.  0.
    9000005    1    3    3    0    0 -0.28404412112E+02  0.48180164058E+02  0.11314252372E+03  0.12621556762E+03  0.10000000000E+01 0.  0.
    9000005    1    3    3    0    0  0.28404412112E+02 -0.48180164058E+02  0.30990589272E+03  0.31491395837E+03  0.10000000000E+01 0.  0.
<mgrwt>
<rscale>  0 0.12500118E+03</rscale>
<asrwt>0</asrwt>
<pdfrwt beam="2">  1        4 0.13908546E-02 0.12500118E+03</pdfrwt>
<pdfrwt beam="1">  1       -4 0.66475227E-01 0.12500118E+03</pdfrwt>
<totfact> 0.60738375E+03</totfact>
</mgrwt>
</event>
<event>
 5    1  0.3276024E-002  0.1249969E+03  0.7818608E-02  0.1235074E+00
         -4   -1    0    0    0  501 -0.00000000000E+00  0.00000000000E+00  0.33856286553E+01  0.36159896835E+01  0.12700000000E+01 0. -1.
          4   -1    0    0  501    0  0.00000000000E+00 -0.00000000000E+00 -0.11155277435E+04  0.11155284665E+04  0.12700000000E+01 0. -1.
         25    2    1    2    0    0  0.00000000000E+00  0.00000000000E+00 -0.11121421149E+04  0.11191444561E+04  0.12499692013E+03 0.  0.
    9000005    1    3    3    0    0 -0.14757678762E+02 -0.33070946158E+02 -0.10010056469E+03  0.10645468338E+03  0.10000000000E+01 0.  0.
    9000005    1    3    3    0    0  0.14757678762E+02  0.33070946158E+02 -0.10120415502E+04  0.10126897728E+04  0.10000000000E+01 0.  0.
<mgrwt>
<rscale>  0 0.12499692E+03</rscale>
<asrwt>0</asrwt>
<pdfrwt beam="2">  1        4 0.17163715E+00 0.12499692E+03</pdfrwt>
<pdfrwt beam="1">  1       -4 0.53864252E-03 0.12499692E+03</pdfrwt>
<totfact> 0.26931602E+03</totfact>
</mgrwt>
</event>
<event>
 5    1  0.3276024E-002  0.1249475E+03  0.7818608E-02  0.1235151E+00
          4   -1    0    0  501    0  0.00000000000E+00  0.00000000000E+00  0.46107248918E+01  0.47824349475E+01  0.12700000000E+01 0.  1.
         -4   -1    0    0    0  501 -0.00000000000E+00 -0.00000000000E+00 -0.83085181849E+03  0.83085278912E+03  0.12700000000E+01 0.  1.
         25    2    1    2    0    0  0.00000000000E+00  0.00000000000E+00 -0.82624109360E+03  0.83563522407E+03  0.12494752079E+03 0.  0.
    9000005    1    3    3    0    0 -0.46133567231E+02  0.36404122496E+02 -0.55474039151E+03  0.55784538013E+03  0.10000000000E+01 0.  0.
    9000005    1    3    3    0    0  0.46133567231E+02 -0.36404122496E+02 -0.27150070209E+03  0.27778984394E+03  0.10000000000E+01 0.  0.
<mgrwt>
<rscale>  0 0.12494752E+03</rscale>
<asrwt>0</asrwt>
<pdfrwt beam="1">  1        4 0.72262608E-03 0.12494752E+03</pdfrwt>
<pdfrwt beam="2">  1       -4 0.12783652E+00 0.12494752E+03</pdfrwt>
<totfact> 0.36764612E+03</totfact>
</mgrwt>
</event>
<event>
 5    1  0.3276024E-002  0.1249972E+03  0.7818608E-02  0.1235074E+00
         -4   -1    0    0    0  501 -0.00000000000E+00  0.00000000000E+00  0.21212570353E+02  0.21250553898E+02  0.12700000000E+01 0.  1.
          4   -1    0    0  501    0  0.00000000000E+00 -0.00000000000E+00 -0.18393473059E+03  0.18393911497E+03  0.12700000000E+01 0.  1.
         25    2    1    2    0    0  0.00000000000E+00  0.00000000000E+00 -0.16272216023E+03  0.20518966887E+03  0.12499719509E+03 0.  0.
    9000005    1    3    3    0    0 -0.38446459782E+02 -0.79663276332E+00 -0.50208323267E+00  0.38470988824E+02  0.10000000000E+01 0.  0.
    9000005    1    3    3    0    0  0.38446459782E+02  0.79663276332E+00 -0.16222007700E+03  0.16671868004E+03  0.10000000000E+01 0.  0.
<mgrwt>
<rscale>  0 0.12499720E+03</rscale>
<asrwt>0</asrwt>
<pdfrwt beam="2">  1        4 0.28300909E-01 0.12499720E+03</pdfrwt>
<pdfrwt beam="1">  1       -4 0.32667316E-02 0.12499720E+03</pdfrwt>
<totfact> 0.89273147E+03</totfact>
</mgrwt>
</event>
<event>
 5    1  0.3276024E-002  0.1249833E+03  0.7818608E-02  0.1235095E+00
         -4   -1    0    0    0  501 -0.00000000000E+00  0.00000000000E+00  0.63196335416E+02  0.63209095153E+02  0.12700000000E+01 0. -1.
          4   -1    0    0  501    0  0.00000000000E+00 -0.00000000000E+00 -0.61769275493E+02  0.61782329958E+02  0.12700000000E+01 0. -1.
         25    2    1    2    0    0  0.00000000000E+00  0.00000000000E+00  0.14270599231E+01  0.12499142511E+03  0.12498327829E+03 0.  0.
    9000005    1    3    3    0    0  0.73773385025E+01 -0.61240919820E+02 -0.92535422614E+01  0.62381915874E+02  0.10000000000E+01 0.  0.
    9000005    1    3    3    0    0 -0.73773385025E+01  0.61240919820E+02  0.10680602185E+02  0.62609509236E+02  0.10000000000E+01 0.  0.
<mgrwt>
<rscale>  0 0.12498328E+03</rscale>
<asrwt>0</asrwt>
<pdfrwt beam="2">  1        4 0.95049511E-02 0.12498328E+03</pdfrwt>
<pdfrwt beam="1">  1       -4 0.97244989E-02 0.12498328E+03</pdfrwt>
<totfact> 0.10457000E+04</totfact>
</mgrwt>
</event>
<event>
 5    1  0.3276024E-002  0.1249917E+03  0.7818608E-02  0.1235082E+00
         -4   -1    0    0    0  501 -0.00000000000E+00  0.00000000000E+00  0.55190571128E+02  0.55205181292E+02  0.12700000000E+01 0.  1.
          4   -1    0    0  501    0  0.00000000000E+00 -0.00000000000E+00 -0.70738440526E+02  0.70749840057E+02  0.12700000000E+01 0.  1.
         25    2    1    2    0    0  0.00000000000E+00  0.00000000000E+00 -0.15547869398E+02  0.12595502135E+03  0.12499172437E+03 0.  0.
    9000005    1    3    3    0    0 -0.55554201444E+02 -0.27305374257E+02 -0.16376708300E+02  0.64039435788E+02  0.10000000000E+01 0.  0.
    9000005    1    3    3    0    0  0.55554201444E+02  0.27305374257E+02  0.82883890196E+00  0.61915585560E+02  0.10000000000E+01 0.  0.
<mgrwt>
<rscale>  0 0.12499172E+03</rscale>
<asrwt>0</asrwt>
<pdfrwt beam="2">  1        4 0.10884838E-01 0.12499172E+03</pdfrwt>
<pdfrwt beam="1">  1       -4 0.84928579E-02 0.12499172E+03</pdfrwt>
<totfact> 0.10433891E+04</totfact>
</mgrwt>
</event>
<event>
 5    1  0.3276024E-002  0.1249993E+03  0.7818608E-02  0.1235070E+00
          4   -1    0    0  501    0  0.00000000000E+00  0.00000000000E+00  0.17188822259E+03  0.17189291423E+03  0.12700000000E+01 0. -1.
         -4   -1    0    0    0  501 -0.00000000000E+00 -0.00000000000E+00 -0.22702528125E+02  0.22738022853E+02  0.12700000000E+01 0. -1.
         25    2    1    2    0    0  0.00000000000E+00  0.00000000000E+00  0.14918569446E+03  0.19463093709E+03  0.12499932096E+03 0.  0.
    9000005    1    3    3    0    0 -0.51873556898E+02 -0.34398266199E+02  0.65909424219E+02  0.90659576569E+02  0.10000000000E+01 0.  0.
    9000005    1    3    3    0    0  0.51873556898E+02  0.34398266199E+02  0.83276270242E+02  0.10397136052E+03  0.10000000000E+01 0.  0.
<mgrwt>
<rscale>  0 0.12499932E+03</rscale>
<asrwt>0</asrwt>
<pdfrwt beam="1">  1        4 0.26447432E-01 0.12499932E+03</pdfrwt>
<pdfrwt beam="2">  1       -4 0.34957881E-02 0.12499932E+03</pdfrwt>
<totfact> 0.91049117E+03</totfact>
</mgrwt>
</event>
<event>
 4    1  0.3276024E-002  0.1245173E+03  0.7818608E-02  0.1235826E+00
          4   -1    0    0  501    0  0.00000000000E+00  0.00000000000E+00  0.10712173594E+03  0.10712926403E+03  0.12700000000E+01 0.  1.
         -4   -1    0    0    0  501 -0.00000000000E+00 -0.00000000000E+00 -0.36164516481E+02  0.36186809092E+02  0.12700000000E+01 0.  1.
    9000005    1    1    2    0    0 -0.13064010665E+02 -0.59143008566E+02  0.52021360375E+02  0.79848517658E+02  0.10000000000E+01 0.  0.
    9000005    1    1    2    0    0  0.13064010665E+02  0.59143008566E+02  0.18935859084E+02  0.63467555460E+02  0.10000000000E+01 0.  0.
<mgrwt>
<rscale>  0 0.12451735E+03</rscale>
<asrwt>0</asrwt>
<pdfrwt beam="1">  1        4 0.16482561E-01 0.12451735E+03</pdfrwt>
<pdfrwt beam="2">  1       -4 0.55660657E-02 0.12451735E+03</pdfrwt>
<totfact> 0.10175513E+04</totfact>
</mgrwt>
</event>
<event>
 5    1  0.3276024E-002  0.1250014E+03  0.7818608E-02  0.1235067E+00
          4   -1    0    0  501    0  0.00000000000E+00  0.00000000000E+00  0.80439771757E+02  0.80449796645E+02  0.12700000000E+01 0.  1.
         -4   -1    0    0    0  501 -0.00000000000E+00 -0.00000000000E+00 -0.48540918512E+02  0.48557529488E+02  0.12700000000E+01 0.  1.
         25    2    1    2    0    0  0.00000000000E+00  0.00000000000E+00  0.31898853244E+02  0.12900732613E+03  0.12500141342E+03 0.  0.
    9000005    1    3    3    0    0 -0.62755489912E+01  0.39664549131E+02 -0.33466974257E+02  0.52284771576E+02  0.10000000000E+01 0.  0.
    9000005    1    3    3    0    0  0.62755489912E+01 -0.39664549131E+02  0.65365827501E+02  0.76722554557E+02  0.10000000000E+01 0.  0.
<mgrwt>
<rscale>  0 0.12500141E+03</rscale>
<asrwt>0</asrwt>
<pdfrwt beam="1">  1        4 0.12377398E-01 0.12500141E+03</pdfrwt>
<pdfrwt beam="2">  1       -4 0.74698826E-02 0.12500141E+03</pdfrwt>
<totfact> 0.10365459E+04</totfact>
</mgrwt>
</event>
<event>
 5    1  0.3276024E-002  0.1249630E+03  0.7818608E-02  0.1235127E+00
         -4   -1    0    0    0  501 -0.00000000000E+00  0.00000000000E+00  0.47082903140E+01  0.48765661772E+01  0.12700000000E+01 0. -1.
          4   -1    0    0  501    0  0.00000000000E+00 -0.00000000000E+00 -0.81443683521E+03  0.81443782541E+03  0.12700000000E+01 0. -1.
         25    2    1    2    0    0  0.00000000000E+00  0.00000000000E+00 -0.80972854490E+03  0.81931439158E+03  0.12496301785E+03 0.  0.
    9000005    1    3    3    0    0  0.43803828881E+02  0.34460881077E+02 -0.21981291084E+03  0.22677090537E+03  0.10000000000E+01 0.  0.
    9000005    1    3    3    0    0 -0.43803828881E+02 -0.34460881077E+02 -0.58991563406E+03  0.59254348621E+03  0.10000000000E+01 0.  0.
<mgrwt>
<rscale>  0 0.12496302E+03</rscale>
<asrwt>0</asrwt>
<pdfrwt beam="2">  1        4 0.12531089E+00 0.12496302E+03</pdfrwt>
<pdfrwt beam="1">  1       -4 0.73737347E-03 0.12496302E+03</pdfrwt>
<totfact> 0.37447163E+03</totfact>
</mgrwt>
</event>
<event>
 5    1  0.3276024E-002  0.1249943E+03  0.7818608E-02  0.1235078E+00
          4   -1    0    0  501    0  0.00000000000E+00  0.00000000000E+00  0.89235218016E+02  0.89244254910E+02  0.12700000000E+01 0. -1.
         -4   -1    0    0    0  501 -0.00000000000E+00 -0.00000000000E+00 -0.43750312930E+02  0.43768742060E+02  0.12700000000E+01 0. -1.
         25    2    1    2    0    0  0.00000000000E+00  0.00000000000E+00  0.45484905086E+02  0.13301299697E+03  0.12499432296E+03 0.  0.
    9000005    1    3    3    0    0  0.84465544449E+01  0.56442072081E+02 -0.43431694481E+01  0.57244343857E+02  0.10000000000E+01 0.  0.
    9000005    1    3    3    0    0 -0.84465544449E+01 -0.56442072081E+02  0.49828074534E+02  0.75768653113E+02  0.10000000000E+01 0.  0.
<mgrwt>
<rscale>  0 0.12499432E+03</rscale>
<asrwt>0</asrwt>
<pdfrwt beam="1">  1        4 0.13730608E-01 0.12499432E+03</pdfrwt>
<pdfrwt beam="2">  1       -4 0.67329303E-02 0.12499432E+03</pdfrwt>
<totfact> 0.10281440E+04</totfact>
</mgrwt>
</event>
<event>
 5    1  0.3276024E-002  0.1250055E+03  0.7818608E-02  0.1235061E+00
          4   -1    0    0  501    0  0.00000000000E+00  0.00000000000E+00  0.81171403432E+02  0.81181337973E+02  0.12700000000E+01 0.  1.
         -4   -1    0    0    0  501 -0.00000000000E+00 -0.00000000000E+00 -0.48106459585E+02  0.48123220526E+02  0.12700000000E+01 0.  1.
         25    2    1    2    0    0  0.00000000000E+00  0.00000000000E+00  0.33064943846E+02  0.12930455850E+03  0.12500551323E+03 0.  0.
    9000005    1    3    3    0    0 -0.29322609394E+02 -0.52931636883E+02  0.32690868069E+02  0.68784202110E+02  0.10000000000E+01 0.  0.
    9000005    1    3    3    0    0  0.29322609394E+02  0.52931636883E+02  0.37407577692E+00  0.60520356389E+02  0.10000000000E+01 0.  0.
<mgrwt>
<rscale>  0 0.12500551E+03</rscale>
<asrwt>0</asrwt>
<pdfrwt beam="1">  1        4 0.12489961E-01 0.12500551E+03</pdfrwt>
<pdfrwt beam="2">  1       -4 0.74030474E-02 0.12500551E+03</pdfrwt>
<totfact> 0.10358118E+04</totfact>
</mgrwt>
</event>
<event>
 5    1  0.3276024E-002  0.1250014E+03  0.7818608E-02  0.1235067E+00
         -4   -1    0    0    0  501 -0.00000000000E+00  0.00000000000E+00  0.13951309428E+03  0.13951887462E+03  0.12700000000E+01 0. -1.
          4   -1    0    0  501    0  0.00000000000E+00 -0.00000000000E+00 -0.27979020054E+02  0.28007828606E+02  0.12700000000E+01 0. -1.
         25    2    1    2    0    0  0.00000000000E+00  0.00000000000E+00  0.11153407422E+03  0.16752670322E+03  0.12500138631E+03 0.  0.
    9000005    1    3    3    0    0  0.53144250151E+02 -0.31552490021E+02  0.43377213445E+02  0.75514591947E+02  0.10000000000E+01 0.  0.
    9000005    1    3    3    0    0 -0.53144250151E+02  0.31552490021E+02  0.68156860778E+02  0.92012111278E+02  0.10000000000E+01 0.  0.
<mgrwt>
<rscale>  0 0.12500139E+03</rscale>
<asrwt>0</asrwt>
<pdfrwt beam="2">  1        4 0.43071254E-02 0.12500139E+03</pdfrwt>
<pdfrwt beam="1">  1       -4 0.21466213E-01 0.12500139E+03</pdfrwt>
<totfact> 0.95908018E+03</totfact>
</mgrwt>
</event>
<event>
 5    1  0.3276024E-002  0.1249987E+03  0.7818608E-02  0.1235071E+00
         -4   -1    0    0    0  501 -0.00000000000E+00  0.00000000000E+00  0.14319668302E+02  0.14375875636E+02  0.12700000000E+01 0. -1.
          4   -1    0    0  501    0  0.00000000000E+00 -0.00000000000E+00 -0.27219157839E+03  0.27219454117E+03  0.12700000000E+01 0. -1.
         25    2    1    2    0    0  0.00000000000E+00  0.00000000000E+00 -0.25787191009E+03  0.28657041681E+03  0.12499872711E+03 0.  0.
    9000005    1    3    3    0    0 -0.10775097530E+02  0.17109052881E+02  0.66245233538E+01  0.21300392648E+02  0.10000000000E+01 0.  0.
    9000005    1    3    3    0    0  0.10775097530E+02 -0.17109052881E+02 -0.26449643344E+03  0.26527002416E+03  0.10000000000E+01 0.  0.
<mgrwt>
<rscale>  0 0.12499873E+03</rscale>
<asrwt>0</asrwt>
<pdfrwt beam="2">  1        4 0.41880175E-01 0.12499873E+03</pdfrwt>
<pdfrwt beam="1">  1       -4 0.22075776E-02 0.12499873E+03</pdfrwt>
<totfact> 0.77317093E+03</totfact>
</mgrwt>
</event>
<event>
 5    1  0.3276024E-002  0.1249998E+03  0.7818608E-02  0.1235070E+00
          4   -1    0    0  501    0  0.00000000000E+00  0.00000000000E+00  0.56908615623E+02  0.56922784824E+02  0.12700000000E+01 0.  1.
         -4   -1    0    0    0  501 -0.00000000000E+00 -0.00000000000E+00 -0.68611937341E+02  0.68623690120E+02  0.12700000000E+01 0.  1.
         25    2    1    2    0    0  0.00000000000E+00  0.00000000000E+00 -0.11703321718E+02  0.12554647494E+03  0.12499979853E+03 0.  0.
    9000005    1    3    3    0    0  0.12745899801E+02  0.11524176102E+02 -0.66197478456E+02  0.68398616584E+02  0.10000000000E+01 0.  0.
    9000005    1    3    3    0    0 -0.12745899801E+02 -0.11524176102E+02  0.54494156738E+02  0.57147858360E+02  0.10000000000E+01 0.  0.
<mgrwt>
<rscale>  0 0.12499980E+03</rscale>
<asrwt>0</asrwt>
<pdfrwt beam="1">  1        4 0.87571656E-02 0.12499980E+03</pdfrwt>
<pdfrwt beam="2">  1       -4 0.10557677E-01 0.12499980E+03</pdfrwt>
<totfact> 0.10440975E+04</totfact>
</mgrwt>
</event>
<event>
 5    1  0.3276024E-002  0.1250136E+03  0.7818608E-02  0.1235048E+00
         -4   -1    0    0    0  501 -0.00000000000E+00  0.00000000000E+00  0.28246634762E+03  0.28246920264E+03  0.12700000000E+01 0.  1.
          4   -1    0    0  501    0  0.00000000000E+00 -0.00000000000E+00 -0.13800006641E+02  0.13858321807E+02  0.12700000000E+01 0.  1.
         25    2    1    2    0    0  0.00000000000E+00  0.00000000000E+00  0.26866634098E+03  0.29632752445E+03  0.12501359513E+03 0.  0.
    9000005    1    3    3    0    0 -0.40041921514E+02 -0.44715231886E+02  0.17561371726E+03  0.18559090800E+03  0.10000000000E+01 0.  0.
    9000005    1    3    3    0    0  0.40041921514E+02  0.44715231886E+02  0.93052623724E+02  0.11073661645E+03  0.10000000000E+01 0.  0.
<mgrwt>
<rscale>  0 0.12501360E+03</rscale>
<asrwt>0</asrwt>
<pdfrwt beam="2">  1        4 0.21277835E-02 0.12501360E+03</pdfrwt>
<pdfrwt beam="1">  1       -4 0.43461063E-01 0.12501360E+03</pdfrwt>
<totfact> 0.76038874E+03</totfact>
</mgrwt>
</event>
<event>
 5    1  0.3276024E-002  0.1249860E+03  0.7818608E-02  0.1235091E+00
          4   -1    0    0  501    0  0.00000000000E+00  0.00000000000E+00  0.15375972780E+02  0.15428332345E+02  0.12700000000E+01 0.  1.
         -4   -1    0    0    0  501 -0.00000000000E+00 -0.00000000000E+00 -0.25350642501E+03  0.25350960617E+03  0.12700000000E+01 0.  1.
         25    2    1    2    0    0  0.00000000000E+00  0.00000000000E+00 -0.23813045223E+03  0.26893793851E+03  0.12498600919E+03 0.  0.
    9000005    1    3    3    0    0 -0.33595780463E+02  0.45053452230E+02 -0.60299138002E+02  0.82434677573E+02  0.10000000000E+01 0.  0.
    9000005    1    3    3    0    0  0.33595780463E+02 -0.45053452230E+02 -0.17783131423E+03  0.18650326094E+03  0.10000000000E+01 0.  0.
<mgrwt>
<rscale>  0 0.12498601E+03</rscale>
<asrwt>0</asrwt>
<pdfrwt beam="1">  1        4 0.23698068E-02 0.12498601E+03</pdfrwt>
<pdfrwt beam="2">  1       -4 0.39005258E-01 0.12498601E+03</pdfrwt>
<totfact> 0.79692685E+03</totfact>
</mgrwt>
</event>
<event>
 5    1  0.3276024E-002  0.1249990E+03  0.7818608E-02  0.1235071E+00
         -4   -1    0    0    0  501 -0.00000000000E+00  0.00000000000E+00  0.43987783264E+02  0.44006112944E+02  0.12700000000E+01 0. -1.
          4   -1    0    0  501    0  0.00000000000E+00 -0.00000000000E+00 -0.88760243391E+02  0.88769328638E+02  0.12700000000E+01 0. -1.
         25    2    1    2    0    0  0.00000000000E+00  0.00000000000E+00 -0.44772460127E+02  0.13277544158E+03  0.12499897880E+03 0.  0.
    9000005    1    3    3    0    0  0.50133289441E+02  0.46597080612E+01 -0.61704249788E+02  0.79645929157E+02  0.10000000000E+01 0.  0.
    9000005    1    3    3    0    0 -0.50133289441E+02 -0.46597080612E+01  0.16931789661E+02  0.53129512425E+02  0.10000000000E+01 0.  0.
<mgrwt>
<rscale>  0 0.12499898E+03</rscale>
<asrwt>0</asrwt>
<pdfrwt beam="2">  1        4 0.13657531E-01 0.12499898E+03</pdfrwt>
<pdfrwt beam="1">  1       -4 0.67694601E-02 0.12499898E+03</pdfrwt>
<totfact> 0.10285412E+04</totfact>
</mgrwt>
</event>
<event>
 5    1  0.3276024E-002  0.1250104E+03  0.7818608E-02  0.1235053E+00
          4   -1    0    0  501    0  0.00000000000E+00  0.00000000000E+00  0.55897459255E+01  0.57322037221E+01  0.12700000000E+01 0.  1.
         -4   -1    0    0    0  501 -0.00000000000E+00 -0.00000000000E+00 -0.69000331682E+03  0.69000448559E+03  0.12700000000E+01 0.  1.
         25    2    1    2    0    0  0.00000000000E+00  0.00000000000E+00 -0.68441357090E+03  0.69573668931E+03  0.12501041884E+03 0.  0.
    9000005    1    3    3    0    0  0.27112353625E+02  0.20850431150E+02 -0.63332083906E+03  0.63424451546E+03  0.10000000000E+01 0.  0.
    9000005    1    3    3    0    0 -0.27112353625E+02 -0.20850431150E+02 -0.51092731834E+02  0.61492173848E+02  0.10000000000E+01 0.  0.
<mgrwt>
<rscale>  0 0.12501042E+03</rscale>
<asrwt>0</asrwt>
<pdfrwt beam="1">  1        4 0.87100965E-03 0.12501042E+03</pdfrwt>
<pdfrwt beam="2">  1       -4 0.10616534E+00 0.12501042E+03</pdfrwt>
<totfact> 0.43302849E+03</totfact>
</mgrwt>
</event>
<event>
 5    1  0.3276024E-002  0.1250006E+03  0.7818608E-02  0.1235068E+00
         -4   -1    0    0    0  501 -0.00000000000E+00  0.00000000000E+00  0.20200954921E+03  0.20201354131E+03  0.12700000000E+01 0. -1.
          4   -1    0    0  501    0  0.00000000000E+00 -0.00000000000E+00 -0.19312112094E+02  0.19353825811E+02  0.12700000000E+01 0. -1.
         25    2    1    2    0    0  0.00000000000E+00  0.00000000000E+00  0.18269743712E+03  0.22136736712E+03  0.12500063079E+03 0.  0.
    9000005    1    3    3    0    0  0.41403820236E+02  0.21040764390E+02  0.17301407806E+02  0.49571451545E+02  0.10000000000E+01 0.  0.
    9000005    1    3    3    0    0 -0.41403820236E+02 -0.21040764390E+02  0.16539602932E+03  0.17179591558E+03  0.10000000000E+01 0.  0.
<mgrwt>
<rscale>  0 0.12500063E+03</rscale>
<asrwt>0</asrwt>
<pdfrwt beam="2">  1        4 0.29746101E-02 0.12500063E+03</pdfrwt>
<pdfrwt beam="1">  1       -4 0.31081907E-01 0.12500063E+03</pdfrwt>
<totfact> 0.86651223E+03</totfact>
</mgrwt>
</event>
<event>
 5    1  0.3276024E-002  0.1250014E+03  0.7818608E-02  0.1235067E+00
          4   -1    0    0  501    0  0.00000000000E+00  0.00000000000E+00  0.27806036653E+02  0.27835024239E+02  0.12700000000E+01 0.  1.
         -4   -1    0    0    0  501 -0.00000000000E+00 -0.00000000000E+00 -0.14038018669E+03  0.14038593133E+03  0.12700000000E+01 0.  1.
         25    2    1    2    0    0  0.00000000000E+00  0.00000000000E+00 -0.11257415004E+03  0.16822095557E+03  0.12500140253E+03 0.  0.
    9000005    1    3    3    0    0 -0.58037563845E+02  0.88020308669E+01 -0.27439492127E+02  0.64805557575E+02  0.10000000000E+01 0.  0.
    9000005    1    3    3    0    0  0.58037563845E+02 -0.88020308669E+01 -0.85134657909E+02  0.10341539799E+03  0.10000000000E+01 0.  0.
<mgrwt>
<rscale>  0 0.12500140E+03</rscale>
<asrwt>0</asrwt>
<pdfrwt beam="1">  1        4 0.42805236E-02 0.12500140E+03</pdfrwt>
<pdfrwt beam="2">  1       -4 0.21599623E-01 0.12500140E+03</pdfrwt>
<totfact> 0.95777831E+03</totfact>
</mgrwt>
</event>
<event>
 5    1  0.3276024E-002  0.1249952E+03  0.7818608E-02  0.1235077E+00
          4   -1    0    0  501    0  0.00000000000E+00  0.00000000000E+00  0.80947732321E+03  0.80947831947E+03  0.12700000000E+01 0.  1.
         -4   -1    0    0    0  501 -0.00000000000E+00 -0.00000000000E+00 -0.47406886939E+01  0.49078538377E+01  0.12700000000E+01 0.  1.
         25    2    1    2    0    0  0.00000000000E+00  0.00000000000E+00  0.80473663452E+03  0.81438617331E+03  0.12499515327E+03 0.  0.
    9000005    1    3    3    0    0 -0.11623053155E+02  0.61389262641E+02  0.39520098730E+03  0.40011068131E+03  0.10000000000E+01 0.  0.
    9000005    1    3    3    0    0  0.11623053155E+02 -0.61389262641E+02  0.40953564722E+03  0.41427549200E+03  0.10000000000E+01 0.  0.
<mgrwt>
<rscale>  0 0.12499515E+03</rscale>
<asrwt>0</asrwt>
<pdfrwt beam="1">  1        4 0.12454784E+00 0.12499515E+03</pdfrwt>
<pdfrwt beam="2">  1       -4 0.74227262E-03 0.12499515E+03</pdfrwt>
<totfact> 0.37634508E+03</totfact>
</mgrwt>
</event>
<event>
 5    1  0.3276024E-002  0.1249935E+03  0.7818608E-02  0.1235079E+00
          4   -1    0    0  501    0  0.00000000000E+00  0.00000000000E+00  0.52110492849E+03  0.52110647607E+03  0.12700000000E+01 0. -1.
         -4   -1    0    0    0  501 -0.00000000000E+00 -0.00000000000E+00 -0.74399474385E+01  0.75475637055E+01  0.12700000000E+01 0. -1.
         25    2    1    2    0    0  0.00000000000E+00  0.00000000000E+00  0.51366498105E+03  0.52865403977E+03  0.12499352386E+03 0.  0.
    9000005    1    3    3    0    0  0.20465127907E+02 -0.46041884241E+02  0.41316028715E+03  0.41622241584E+03  0.10000000000E+01 0.  0.
    9000005    1    3    3    0    0 -0.20465127907E+02  0.46041884241E+02  0.10050469390E+03  0.11243162394E+03  0.10000000000E+01 0.  0.
<mgrwt>
<rscale>  0 0.12499352E+03</rscale>
<asrwt>0</asrwt>
<pdfrwt beam="1">  1        4 0.80178404E-01 0.12499352E+03</pdfrwt>
<pdfrwt beam="2">  1       -4 0.11530043E-02 0.12499352E+03</pdfrwt>
<totfact> 0.53715375E+03</totfact>
</mgrwt>
</event>
<event>
 5    1  0.3276024E-002  0.1249986E+03  0.7818608E-02  0.1235071E+00
          4   -1    0    0  501    0  0.00000000000E+00  0.00000000000E+00  0.56733221963E+02  0.56747434958E+02  0.12700000000E+01 0.  1.
         -4   -1    0    0    0  501 -0.00000000000E+00 -0.00000000000E+00 -0.68822714778E+02  0.68834431568E+02  0.12700000000E+01 0.  1.
         25    2    1    2    0    0  0.00000000000E+00  0.00000000000E+00 -0.12089492814E+02  0.12558186653E+03  0.12499859745E+03 0.  0.
    9000005    1    3    3    0    0  0.57264956287E+02 -0.24928982175E+02 -0.39294599104E+01  0.62587299239E+02  0.10000000000E+01 0.  0.
    9000005    1    3    3    0    0 -0.57264956287E+02  0.24928982175E+02 -0.81600329040E+01  0.62994567288E+02  0.10000000000E+01 0.  0.
<mgrwt>
<rscale>  0 0.12499860E+03</rscale>
<asrwt>0</asrwt>
<pdfrwt beam="1">  1        4 0.87301826E-02 0.12499860E+03</pdfrwt>
<pdfrwt beam="2">  1       -4 0.10590105E-01 0.12499860E+03</pdfrwt>
<totfact> 0.10440477E+04</totfact>
</mgrwt>
</event>
<event>
 5    1  0.3276024E-002  0.1250015E+03  0.7818608E-02  0.1235067E+00
         -4   -1    0    0    0  501 -0.00000000000E+00  0.00000000000E+00  0.11510986664E+02  0.11580833907E+02  0.12700000000E+01 0. -1.
          4   -1    0    0  501    0  0.00000000000E+00 -0.00000000000E+00 -0.33826046278E+03  0.33826284688E+03  0.12700000000E+01 0. -1.
         25    2    1    2    0    0  0.00000000000E+00  0.00000000000E+00 -0.32674947612E+03  0.34984368079E+03  0.12500152337E+03 0.  0.
    9000005    1    3    3    0    0 -0.17766637905E+02  0.59671099481E+02 -0.14828977257E+03  0.16083267760E+03  0.10000000000E+01 0.  0.
    9000005    1    3    3    0    0  0.17766637905E+02 -0.59671099481E+02 -0.17845970354E+03  0.18901100319E+03  0.10000000000E+01 0.  0.
<mgrwt>
<rscale>  0 0.12500152E+03</rscale>
<asrwt>0</asrwt>
<pdfrwt beam="2">  1        4 0.52045620E-01 0.12500152E+03</pdfrwt>
<pdfrwt beam="1">  1       -4 0.17764775E-02 0.12500152E+03</pdfrwt>
<totfact> 0.69739408E+03</totfact>
</mgrwt>
</event>
<event>
 5    1  0.3276024E-002  0.1249912E+03  0.7818608E-02  0.1235083E+00
         -4   -1    0    0    0  501 -0.00000000000E+00  0.00000000000E+00  0.11420733047E+03  0.11421439154E+03  0.12700000000E+01 0. -1.
          4   -1    0    0  501    0  0.00000000000E+00 -0.00000000000E+00 -0.34178431400E+02  0.34202018551E+02  0.12700000000E+01 0. -1.
         25    2    1    2    0    0  0.00000000000E+00  0.00000000000E+00  0.80028899073E+02  0.14841641009E+03  0.12499122408E+03 0.  0.
    9000005    1    3    3    0    0 -0.22869143410E+02 -0.96565939956E+01  0.10810679388E+03  0.11092486831E+03  0.10000000000E+01 0.  0.
    9000005    1    3    3    0    0  0.22869143410E+02  0.96565939956E+01 -0.28077894804E+02  0.37491541773E+02  0.10000000000E+01 0.  0.
<mgrwt>
<rscale>  0 0.12499122E+03</rscale>
<asrwt>0</asrwt>
<pdfrwt beam="2">  1        4 0.52605778E-02 0.12499122E+03</pdfrwt>
<pdfrwt beam="1">  1       -4 0.17572716E-01 0.12499122E+03</pdfrwt>
<totfact> 0.99639986E+03</totfact>
</mgrwt>
</event>
<event>
 5    1  0.3276024E-002  0.1250030E+03  0.7818608E-02  0.1235065E+00
          4   -1    0    0  501    0  0.00000000000E+00  0.00000000000E+00  0.16257461887E+02  0.16306991354E+02  0.12700000000E+01 0.  1.
         -4   -1    0    0    0  501 -0.00000000000E+00 -0.00000000000E+00 -0.23986914830E+03  0.23987251032E+03  0.12700000000E+01 0.  1.
         25    2    1    2    0    0  0.00000000000E+00  0.00000000000E+00 -0.22361168641E+03  0.25617950167E+03  0.12500300307E+03 0.  0.
    9000005    1    3    3    0    0 -0.19938975861E+02  0.44004044800E+02 -0.19304843032E+03  0.19900405816E+03  0.10000000000E+01 0.  0.
    9000005    1    3    3    0    0  0.19938975861E+02 -0.44004044800E+02 -0.30563256093E+02  0.57175443506E+02  0.10000000000E+01 0.  0.
<mgrwt>
<rscale>  0 0.12500300E+03</rscale>
<asrwt>0</asrwt>
<pdfrwt beam="1">  1        4 0.25052167E-02 0.12500300E+03</pdfrwt>
<pdfrwt beam="2">  1       -4 0.36907012E-01 0.12500300E+03</pdfrwt>
<totfact> 0.81439776E+03</totfact>
</mgrwt>
</event>
<event>
 5    1  0.3276024E-002  0.1250044E+03  0.7818608E-02  0.1235062E+00
          4   -1    0    0  501    0  0.00000000000E+00  0.00000000000E+00  0.22885572456E+03  0.22885924837E+03  0.12700000000E+01 0. -1.
         -4   -1    0    0    0  501 -0.00000000000E+00 -0.00000000000E+00 -0.17042536745E+02  0.17089791066E+02  0.12700000000E+01 0. -1.
         25    2    1    2    0    0  0.00000000000E+00  0.00000000000E+00  0.21181318782E+03  0.24594903944E+03  0.12500441379E+03 0.  0.
    9000005    1    3    3    0    0  0.21877868466E+02  0.56200051101E+02  0.13814270060E+03  0.15073650056E+03  0.10000000000E+01 0.  0.
    9000005    1    3    3    0    0 -0.21877868466E+02 -0.56200051101E+02  0.73670487215E+02  0.95212538873E+02  0.10000000000E+01 0.  0.
<mgrwt>
<rscale>  0 0.12500441E+03</rscale>
<asrwt>0</asrwt>
<pdfrwt beam="1">  1        4 0.35212479E-01 0.12500441E+03</pdfrwt>
<pdfrwt beam="2">  1       -4 0.26258348E-02 0.12500441E+03</pdfrwt>
<totfact> 0.82911110E+03</totfact>
</mgrwt>
</event>
<event>
 5    1  0.3276024E-002  0.1249945E+03  0.7818608E-02  0.1235078E+00
          4   -1    0    0  501    0  0.00000000000E+00  0.00000000000E+00  0.27074858515E+02  0.27104628085E+02  0.12700000000E+01 0. -1.
         -4   -1    0    0    0  501 -0.00000000000E+00 -0.00000000000E+00 -0.14415134042E+03  0.14415693478E+03  0.12700000000E+01 0. -1.
         25    2    1    2    0    0  0.00000000000E+00  0.00000000000E+00 -0.11707648191E+03  0.17126156287E+03  0.12499448108E+03 0.  0.
    9000005    1    3    3    0    0  0.43758399259E+02 -0.37921559709E+02 -0.90731380921E+02  0.10763840244E+03  0.10000000000E+01 0.  0.
    9000005    1    3    3    0    0 -0.43758399259E+02  0.37921559709E+02 -0.26345100989E+02  0.63623160426E+02  0.10000000000E+01 0.  0.
<mgrwt>
<rscale>  0 0.12499448E+03</rscale>
<asrwt>0</asrwt>
<pdfrwt beam="1">  1        4 0.41680832E-02 0.12499448E+03</pdfrwt>
<pdfrwt beam="2">  1       -4 0.22179849E-01 0.12499448E+03</pdfrwt>
<totfact> 0.95225814E+03</totfact>
</mgrwt>
</event>
<event>
 5    1  0.3276024E-002  0.1250448E+03  0.7818608E-02  0.1234999E+00
         -4   -1    0    0    0  501 -0.00000000000E+00  0.00000000000E+00  0.16582664386E+02  0.16631225395E+02  0.12700000000E+01 0.  1.
          4   -1    0    0  501    0  0.00000000000E+00 -0.00000000000E+00 -0.23533638064E+03  0.23533980742E+03  0.12700000000E+01 0.  1.
         25    2    1    2    0    0  0.00000000000E+00  0.00000000000E+00 -0.21875371626E+03  0.25197103281E+03  0.12504484395E+03 0.  0.
    9000005    1    3    3    0    0 -0.61595774808E+02 -0.64513352865E+01 -0.92231906658E+02  0.11110078221E+03  0.10000000000E+01 0.  0.
    9000005    1    3    3    0    0  0.61595774808E+02  0.64513352865E+01 -0.12652180960E+03  0.14087025061E+03  0.10000000000E+01 0.  0.
<mgrwt>
<rscale>  0 0.12504484E+03</rscale>
<asrwt>0</asrwt>
<pdfrwt beam="2">  1        4 0.36209593E-01 0.12504484E+03</pdfrwt>
<pdfrwt beam="1">  1       -4 0.25551784E-02 0.12504484E+03</pdfrwt>
<totfact> 0.81964291E+03</totfact>
</mgrwt>
</event>
<event>
 5    1  0.3276024E-002  0.1249999E+03  0.7818608E-02  0.1235069E+00
         -4   -1    0    0    0  501 -0.00000000000E+00  0.00000000000E+00  0.34407498919E+03  0.34407733300E+03  0.12700000000E+01 0.  1.
          4   -1    0    0  501    0  0.00000000000E+00 -0.00000000000E+00 -0.11314972225E+02  0.11386021976E+02  0.12700000000E+01 0.  1.
         25    2    1    2    0    0  0.00000000000E+00  0.00000000000E+00  0.33276001696E+03  0.35546335498E+03  0.12499987137E+03 0.  0.
    9000005    1    3    3    0    0 -0.18986832605E+02 -0.20434463044E+02  0.73564918822E+01  0.28864945263E+02  0.10000000000E+01 0.  0.
    9000005    1    3    3    0    0  0.18986832605E+02  0.20434463044E+02  0.32540352508E+03  0.32659840971E+03  0.10000000000E+01 0.  0.
<mgrwt>
<rscale>  0 0.12499987E+03</rscale>
<asrwt>0</asrwt>
<pdfrwt beam="2">  1        4 0.17464106E-02 0.12499987E+03</pdfrwt>
<pdfrwt beam="1">  1       -4 0.52940259E-01 0.12499987E+03</pdfrwt>
<totfact> 0.69127868E+03</totfact>
</mgrwt>
</event>
<event>
 5    1  0.3276024E-002  0.1250041E+03  0.7818608E-02  0.1235063E+00
         -4   -1    0    0    0  501 -0.00000000000E+00  0.00000000000E+00  0.54787791024E+03  0.54787938219E+03  0.12700000000E+01 0. -1.
          4   -1    0    0  501    0  0.00000000000E+00 -0.00000000000E+00 -0.70722013377E+01  0.71853275333E+01  0.12700000000E+01 0. -1.
         25    2    1    2    0    0  0.00000000000E+00  0.00000000000E+00  0.54080570890E+03  0.55506470972E+03  0.12500406873E+03 0.  0.
    9000005    1    3    3    0    0 -0.11231260106E+02 -0.60550175446E+02  0.31761288618E+03  0.32352961289E+03  0.10000000000E+01 0.  0.
    9000005    1    3    3    0    0  0.11231260106E+02  0.60550175446E+02  0.22319282272E+03  0.23153509683E+03  0.10000000000E+01 0.  0.
<mgrwt>
<rscale>  0 0.12500407E+03</rscale>
<asrwt>0</asrwt>
<pdfrwt beam="2">  1        4 0.10968463E-02 0.12500407E+03</pdfrwt>
<pdfrwt beam="1">  1       -4 0.84297722E-01 0.12500407E+03</pdfrwt>
<totfact> 0.51828102E+03</totfact>
</mgrwt>
</event>
<event>
 5    1  0.3276024E-002  0.1249998E+03  0.7818608E-02  0.1235070E+00
          4   -1    0    0  501    0  0.00000000000E+00  0.00000000000E+00  0.84887235438E+02  0.84896735157E+02  0.12700000000E+01 0. -1.
         -4   -1    0    0    0  501 -0.00000000000E+00 -0.00000000000E+00 -0.45995924796E+02  0.46013454530E+02  0.12700000000E+01 0. -1.
         25    2    1    2    0    0  0.00000000000E+00  0.00000000000E+00  0.38891310643E+02  0.13091018969E+03  0.12499977488E+03 0.  0.
    9000005    1    3    3    0    0  0.33790956995E+02  0.27546230371E+02 -0.27444257130E+02  0.51524856445E+02  0.10000000000E+01 0.  0.
    9000005    1    3    3    0    0 -0.33790956995E+02 -0.27546230371E+02  0.66335567773E+02  0.79385333243E+02  0.10000000000E+01 0.  0.
<mgrwt>
<rscale>  0 0.12499977E+03</rscale>
<asrwt>0</asrwt>
<pdfrwt beam="1">  1        4 0.13061654E-01 0.12499977E+03</pdfrwt>
<pdfrwt beam="2">  1       -4 0.70783755E-02 0.12499977E+03</pdfrwt>
<totfact> 0.10325067E+04</totfact>
</mgrwt>
</event>
<event>
 5    1  0.3276024E-002  0.1249983E+03  0.7818608E-02  0.1235072E+00
          4   -1    0    0  501    0  0.00000000000E+00  0.00000000000E+00  0.89688697977E+02  0.89697689183E+02  0.12700000000E+01 0. -1.
         -4   -1    0    0    0  501 -0.00000000000E+00 -0.00000000000E+00 -0.43531812089E+02  0.43550333681E+02  0.12700000000E+01 0. -1.
         25    2    1    2    0    0  0.00000000000E+00  0.00000000000E+00  0.46156885888E+02  0.13324802286E+03  0.12499830992E+03 0.  0.
    9000005    1    3    3    0    0  0.24654181404E+02 -0.13432709455E+02 -0.36435200168E+02  0.46008587842E+02  0.10000000000E+01 0.  0.
    9000005    1    3    3    0    0 -0.24654181404E+02  0.13432709455E+02  0.82592086055E+02  0.87239435022E+02  0.10000000000E+01 0.  0.
<mgrwt>
<rscale>  0 0.12499831E+03</rscale>
<asrwt>0</asrwt>
<pdfrwt beam="1">  1        4 0.13800378E-01 0.12499831E+03</pdfrwt>
<pdfrwt beam="2">  1       -4 0.66993182E-02 0.12499831E+03</pdfrwt>
<totfact> 0.10275523E+04</totfact>
</mgrwt>
</event>
<event>
 5    1  0.3276024E-002  0.1250018E+03  0.7818608E-02  0.1235066E+00
         -4   -1    0    0    0  501 -0.00000000000E+00  0.00000000000E+00  0.59446702405E+01  0.60788160252E+01  0.12700000000E+01 0.  1.
          4   -1    0    0  501    0  0.00000000000E+00 -0.00000000000E+00 -0.64965391340E+03  0.64965515476E+03  0.12700000000E+01 0.  1.
         25    2    1    2    0    0  0.00000000000E+00  0.00000000000E+00 -0.64370924316E+03  0.65573397078E+03  0.12500180280E+03 0.  0.
    9000005    1    3    3    0    0  0.37274327593E+02 -0.15872062174E+02 -0.57146108960E+03  0.57289621642E+03  0.10000000000E+01 0.  0.
    9000005    1    3    3    0    0 -0.37274327593E+02  0.15872062174E+02 -0.72248153561E+02  0.82837754364E+02  0.10000000000E+01 0.  0.
<mgrwt>
<rscale>  0 0.12500180E+03</rscale>
<asrwt>0</asrwt>
<pdfrwt beam="2">  1        4 0.99957115E-01 0.12500180E+03</pdfrwt>
<pdfrwt beam="1">  1       -4 0.92497956E-03 0.12500180E+03</pdfrwt>
<totfact> 0.45526447E+03</totfact>
</mgrwt>
</event>
<event>
 5    1  0.3276024E-002  0.1249987E+03  0.7818608E-02  0.1235071E+00
          4   -1    0    0  501    0  0.00000000000E+00  0.00000000000E+00  0.21406194855E+03  0.21406571589E+03  0.12700000000E+01 0.  1.
         -4   -1    0    0    0  501 -0.00000000000E+00 -0.00000000000E+00 -0.18221825550E+02  0.18266029300E+02  0.12700000000E+01 0.  1.
         25    2    1    2    0    0  0.00000000000E+00  0.00000000000E+00  0.19584012300E+03  0.23233174519E+03  0.12499874417E+03 0.  0.
    9000005    1    3    3    0    0  0.49069242623E+02 -0.90095243553E+01  0.27973456046E+02  0.57205562176E+02  0.10000000000E+01 0.  0.
    9000005    1    3    3    0    0 -0.49069242623E+02  0.90095243553E+01  0.16786666696E+03  0.17512618301E+03  0.10000000000E+01 0.  0.
<mgrwt>
<rscale>  0 0.12499874E+03</rscale>
<asrwt>0</asrwt>
<pdfrwt beam="1">  1        4 0.32936296E-01 0.12499874E+03</pdfrwt>
<pdfrwt beam="2">  1       -4 0.28070480E-02 0.12499874E+03</pdfrwt>
<totfact> 0.84955217E+03</totfact>
</mgrwt>
</event>
<event>
 5    1  0.3276024E-002  0.1250051E+03  0.7818608E-02  0.1235061E+00
          4   -1    0    0  501    0  0.00000000000E+00  0.00000000000E+00  0.11136997302E+04  0.11137004543E+04  0.12700000000E+01 0.  1.
         -4   -1    0    0    0  501 -0.00000000000E+00 -0.00000000000E+00 -0.33920395090E+01  0.36219928259E+01  0.12700000000E+01 0.  1.
         25    2    1    2    0    0  0.00000000000E+00  0.00000000000E+00  0.11103076907E+04  0.11173224471E+04  0.12500513143E+03 0.  0.
    9000005    1    3    3    0    0 -0.42745856401E+02 -0.14520070743E+02  0.94141806407E+03  0.94250040427E+03  0.10000000000E+01 0.  0.
    9000005    1    3    3    0    0  0.42745856401E+02  0.14520070743E+02  0.16888962661E+03  0.17482204286E+03  0.10000000000E+01 0.  0.
<mgrwt>
<rscale>  0 0.12500513E+03</rscale>
<asrwt>0</asrwt>
<pdfrwt beam="1">  1        4 0.17135632E+00 0.12500513E+03</pdfrwt>
<pdfrwt beam="2">  1       -4 0.53959616E-03 0.12500513E+03</pdfrwt>
<totfact> 0.26978821E+03</totfact>
</mgrwt>
</event>
<event>
 5    1  0.3276024E-002  0.1249981E+03  0.7818608E-02  0.1235072E+00
          4   -1    0    0  501    0  0.00000000000E+00  0.00000000000E+00  0.32325503538E+02  0.32350441712E+02  0.12700000000E+01 0. -1.
         -4   -1    0    0    0  501 -0.00000000000E+00 -0.00000000000E+00 -0.12076248235E+03  0.12076916015E+03  0.12700000000E+01 0. -1.
         25    2    1    2    0    0  0.00000000000E+00  0.00000000000E+00 -0.88436978809E+02  0.15311960186E+03  0.12499805299E+03 0.  0.
    9000005    1    3    3    0    0  0.35181715934E+02 -0.63360517501E+01  0.18569497519E+02  0.40295470291E+02  0.10000000000E+01 0.  0.
    9000005    1    3    3    0    0 -0.35181715934E+02  0.63360517501E+01 -0.10700647633E+03  0.11282413157E+03  0.10000000000E+01 0.  0.
<mgrwt>
<rscale>  0 0.12499805E+03</rscale>
<asrwt>0</asrwt>
<pdfrwt beam="1">  1        4 0.49755865E-02 0.12499805E+03</pdfrwt>
<pdfrwt beam="2">  1       -4 0.18581275E-01 0.12499805E+03</pdfrwt>
<totfact> 0.98689771E+03</totfact>
</mgrwt>
</event>
<event>
 5    1  0.3276024E-002  0.1249968E+03  0.7818608E-02  0.1235074E+00
          4   -1    0    0  501    0  0.00000000000E+00  0.00000000000E+00  0.73552396848E+03  0.73552506491E+03  0.12700000000E+01 0.  1.
         -4   -1    0    0    0  501 -0.00000000000E+00 -0.00000000000E+00 -0.52335239270E+01  0.53854129548E+01  0.12700000000E+01 0.  1.
         25    2    1    2    0    0  0.00000000000E+00  0.00000000000E+00  0.73029044456E+03  0.74091047787E+03  0.12499681117E+03 0.  0.
    9000005    1    3    3    0    0 -0.19164426460E+02  0.10198768978E+02  0.71248282899E+03  0.71281419159E+03  0.10000000000E+01 0.  0.
    9000005    1    3    3    0    0  0.19164426460E+02 -0.10198768978E+02  0.17807615565E+02  0.28096286272E+02  0.10000000000E+01 0.  0.
<mgrwt>
<rscale>  0 0.12499681E+03</rscale>
<asrwt>0</asrwt>
<pdfrwt beam="1">  1        4 0.11316923E+00 0.12499681E+03</pdfrwt>
<pdfrwt beam="2">  1       -4 0.81692615E-03 0.12499681E+03</pdfrwt>
<totfact> 0.41015588E+03</totfact>
</mgrwt>
</event>
<event>
 5    1  0.3276024E-002  0.1250009E+03  0.7818608E-02  0.1235068E+00
         -4   -1    0    0    0  501 -0.00000000000E+00  0.00000000000E+00  0.29130246258E+02  0.29157917399E+02  0.12700000000E+01 0.  1.
          4   -1    0    0  501    0  0.00000000000E+00 -0.00000000000E+00 -0.13400366897E+03  0.13400968696E+03  0.12700000000E+01 0.  1.
         25    2    1    2    0    0  0.00000000000E+00  0.00000000000E+00 -0.10487342271E+03  0.16316760435E+03  0.12500092927E+03 0.  0.
    9000005    1    3    3    0    0  0.39647043479E+02  0.48288927131E+02 -0.54087601612E+02  0.82644886038E+02  0.10000000000E+01 0.  0.
    9000005    1    3    3    0    0 -0.39647043479E+02 -0.48288927131E+02 -0.50785821103E+02  0.80522718317E+02  0.10000000000E+01 0.  0.
<mgrwt>
<rscale>  0 0.12500093E+03</rscale>
<asrwt>0</asrwt>
<pdfrwt beam="2">  1        4 0.20618540E-01 0.12500093E+03</pdfrwt>
<pdfrwt beam="1">  1       -4 0.44841679E-02 0.12500093E+03</pdfrwt>
<totfact> 0.96733529E+03</totfact>
</mgrwt>
</event>
<event>
 5    1  0.3276024E-002  0.1250106E+03  0.7818608E-02  0.1235053E+00
          4   -1    0    0  501    0  0.00000000000E+00  0.00000000000E+00  0.14407664727E+03  0.14408224453E+03  0.12700000000E+01 0.  1.
         -4   -1    0    0    0  501 -0.00000000000E+00 -0.00000000000E+00 -0.27095904131E+02  0.27125650603E+02  0.12700000000E+01 0.  1.
         25    2    1    2    0    0  0.00000000000E+00  0.00000000000E+00  0.11698074314E+03  0.17120789513E+03  0.12501059591E+03 0.  0.
    9000005    1    3    3    0    0  0.48309961429E+02  0.39608627637E+02  0.56034137130E+02  0.83925683081E+02  0.10000000000E+01 0.  0.
    9000005    1    3    3    0    0 -0.48309961429E+02 -0.39608627637E+02  0.60946606008E+02  0.87282212051E+02  0.10000000000E+01 0.  0.
<mgrwt>
<rscale>  0 0.12501060E+03</rscale>
<asrwt>0</asrwt>
<pdfrwt beam="1">  1        4 0.22168357E-01 0.12501060E+03</pdfrwt>
<pdfrwt beam="2">  1       -4 0.41713194E-02 0.12501060E+03</pdfrwt>
<totfact> 0.95201339E+03</totfact>
</mgrwt>
</event>
<event>
 5    1  0.3276024E-002  0.1249977E+03  0.7818608E-02  0.1235073E+00
          4   -1    0    0  501    0  0.00000000000E+00  0.00000000000E+00  0.79277361101E+03  0.79277462826E+03  0.12700000000E+01 0. -1.
         -4   -1    0    0    0  501 -0.00000000000E+00 -0.00000000000E+00 -0.48442659786E+01  0.50079749272E+01  0.12700000000E+01 0. -1.
         25    2    1    2    0    0  0.00000000000E+00  0.00000000000E+00  0.78792934503E+03  0.79778260318E+03  0.12499771673E+03 0.  0.
    9000005    1    3    3    0    0  0.57328792371E+02 -0.20806707674E+02  0.48091452864E+03  0.48476725691E+03  0.10000000000E+01 0.  0.
    9000005    1    3    3    0    0 -0.57328792371E+02  0.20806707674E+02  0.30701481639E+03  0.31301534627E+03  0.10000000000E+01 0.  0.
<mgrwt>
<rscale>  0 0.12499772E+03</rscale>
<asrwt>0</asrwt>
<pdfrwt beam="1">  1        4 0.12197773E+00 0.12499772E+03</pdfrwt>
<pdfrwt beam="2">  1       -4 0.75794362E-03 0.12499772E+03</pdfrwt>
<totfact> 0.38365852E+03</totfact>
</mgrwt>
</event>
<event>
 5    1  0.3276024E-002  0.1250006E+03  0.7818608E-02  0.1235068E+00
         -4   -1    0    0    0  501 -0.00000000000E+00  0.00000000000E+00  0.50960935839E+03  0.50961094088E+03  0.12700000000E+01 0. -1.
          4   -1    0    0  501    0  0.00000000000E+00 -0.00000000000E+00 -0.76110523334E+01  0.77162826297E+01  0.12700000000E+01 0. -1.
         25    2    1    2    0    0  0.00000000000E+00  0.00000000000E+00  0.50199830606E+03  0.51732722350E+03  0.12500062758E+03 0.  0.
    9000005    1    3    3    0    0 -0.16653969047E+02 -0.41537904302E+02  0.43151681522E+03  0.43383235702E+03  0.10000000000E+01 0.  0.
    9000005    1    3    3    0    0  0.16653969047E+02  0.41537904302E+02  0.70481490837E+02  0.83494866486E+02  0.10000000000E+01 0.  0.
<mgrwt>
<rscale>  0 0.12500063E+03</rscale>
<asrwt>0</asrwt>
<pdfrwt beam="2">  1        4 0.11791468E-02 0.12500063E+03</pdfrwt>
<pdfrwt beam="1">  1       -4 0.78409701E-01 0.12500063E+03</pdfrwt>
<totfact> 0.54543836E+03</totfact>
</mgrwt>
</event>
<event>
 5    1  0.3276024E-002  0.1249467E+03  0.7818608E-02  0.1235153E+00
         -4   -1    0    0    0  501 -0.00000000000E+00  0.00000000000E+00  0.45181544629E+01  0.46932525769E+01  0.12700000000E+01 0.  1.
          4   -1    0    0  501    0  0.00000000000E+00 -0.00000000000E+00 -0.84723491439E+03  0.84723586625E+03  0.12700000000E+01 0.  1.
         25    2    1    2    0    0  0.00000000000E+00  0.00000000000E+00 -0.84271675993E+03  0.85192911883E+03  0.12494673283E+03 0.  0.
    9000005    1    3    3    0    0  0.88336896639E+01  0.48785846660E+02 -0.68043986567E+03  0.68224446037E+03  0.10000000000E+01 0.  0.
    9000005    1    3    3    0    0 -0.88336896639E+01 -0.48785846660E+02 -0.16227689426E+03  0.16968465846E+03  0.10000000000E+01 0.  0.
<mgrwt>
<rscale>  0 0.12494673E+03</rscale>
<asrwt>0</asrwt>
<pdfrwt beam="2">  1        4 0.13035725E+00 0.12494673E+03</pdfrwt>
<pdfrwt beam="1">  1       -4 0.70864367E-03 0.12494673E+03</pdfrwt>
<totfact> 0.36090504E+03</totfact>
</mgrwt>
</event>
<event>
 5    1  0.3276024E-002  0.1250064E+03  0.7818608E-02  0.1235059E+00
          4   -1    0    0  501    0  0.00000000000E+00  0.00000000000E+00  0.85965763352E+02  0.85975143901E+02  0.12700000000E+01 0. -1.
         -4   -1    0    0    0  501 -0.00000000000E+00 -0.00000000000E+00 -0.45423527901E+02  0.45441278448E+02  0.12700000000E+01 0. -1.
         25    2    1    2    0    0  0.00000000000E+00  0.00000000000E+00  0.40542235451E+02  0.13141642235E+03  0.12500641266E+03 0.  0.
    9000005    1    3    3    0    0 -0.54005826960E+02 -0.14520524029E+02  0.49597346529E+02  0.74755412823E+02  0.10000000000E+01 0.  0.
    9000005    1    3    3    0    0  0.54005826960E+02  0.14520524029E+02 -0.90551110771E+01  0.56661009525E+02  0.10000000000E+01 0.  0.
<mgrwt>
<rscale>  0 0.12500641E+03</rscale>
<asrwt>0</asrwt>
<pdfrwt beam="1">  1        4 0.13227589E-01 0.12500641E+03</pdfrwt>
<pdfrwt beam="2">  1       -4 0.69903221E-02 0.12500641E+03</pdfrwt>
<totfact> 0.10312678E+04</totfact>
</mgrwt>
</event>
<event>
 5    1  0.3276024E-002  0.1250077E+03  0.7818608E-02  0.1235057E+00
         -4   -1    0    0    0  501 -0.00000000000E+00  0.00000000000E+00  0.18665708230E+03  0.18666140274E+03  0.12700000000E+01 0.  1.
          4   -1    0    0  501    0  0.00000000000E+00 -0.00000000000E+00 -0.20906151051E+02  0.20944690300E+02  0.12700000000E+01 0.  1.
         25    2    1    2    0    0  0.00000000000E+00  0.00000000000E+00  0.16575093125E+03  0.20760609304E+03  0.12500767439E+03 0.  0.
    9000005    1    3    3    0    0  0.57487973573E+02 -0.40517487565E+01  0.12302454345E+03  0.13585772729E+03  0.10000000000E+01 0.  0.
    9000005    1    3    3    0    0 -0.57487973573E+02  0.40517487565E+01  0.42726387802E+02  0.71748365752E+02  0.10000000000E+01 0.  0.
<mgrwt>
<rscale>  0 0.12500767E+03</rscale>
<asrwt>0</asrwt>
<pdfrwt beam="2">  1        4 0.32196279E-02 0.12500767E+03</pdfrwt>
<pdfrwt beam="1">  1       -4 0.28719770E-01 0.12500767E+03</pdfrwt>
<totfact> 0.88853087E+03</totfact>
</mgrwt>
</event>
<event>
 5    1  0.3276024E-002  0.1249977E+03  0.7818608E-02  0.1235073E+00
          4   -1    0    0  501    0  0.00000000000E+00  0.00000000000E+00  0.13080149265E+03  0.13080765795E+03  0.12700000000E+01 0. -1.
         -4   -1    0    0    0  501 -0.00000000000E+00 -0.00000000000E+00 -0.29842471123E+02  0.29869482465E+02  0.12700000000E+01 0. -1.
         25    2    1    2    0    0  0.00000000000E+00  0.00000000000E+00  0.10095902153E+03  0.16067714042E+03  0.12499767768E+03 0.  0.
    9000005    1    3    3    0    0  0.82737537266E+01 -0.10069399497E+02 -0.28082464925E+02  0.30975355418E+02  0.10000000000E+01 0.  0.
    9000005    1    3    3    0    0 -0.82737537266E+01  0.10069399497E+02  0.12904148645E+03  0.12970178500E+03  0.10000000000E+01 0.  0.
<mgrwt>
<rscale>  0 0.12499768E+03</rscale>
<asrwt>0</asrwt>
<pdfrwt beam="1">  1        4 0.20125858E-01 0.12499768E+03</pdfrwt>
<pdfrwt beam="2">  1       -4 0.45937015E-02 0.12499768E+03</pdfrwt>
<totfact> 0.97217471E+03</totfact>
</mgrwt>
</event>
<event>
 5    1  0.3276024E-002  0.1249975E+03  0.7818608E-02  0.1235073E+00
         -4   -1    0    0    0  501 -0.00000000000E+00  0.00000000000E+00  0.53498547878E+03  0.53498698621E+03  0.12700000000E+01 0. -1.
          4   -1    0    0  501    0  0.00000000000E+00 -0.00000000000E+00 -0.72445566146E+01  0.73550323278E+01  0.12700000000E+01 0. -1.
         25    2    1    2    0    0  0.00000000000E+00  0.00000000000E+00  0.52774092217E+03  0.54234201853E+03  0.12499753652E+03 0.  0.
    9000005    1    3    3    0    0 -0.10875732557E+02 -0.58869169964E+02  0.34163532794E+03  0.34684226679E+03  0.10000000000E+01 0.  0.
    9000005    1    3    3    0    0  0.10875732557E+02  0.58869169964E+02  0.18610559423E+03  0.19549975175E+03  0.10000000000E+01 0.  0.
<mgrwt>
<rscale>  0 0.12499754E+03</rscale>
<asrwt>0</asrwt>
<pdfrwt beam="2">  1        4 0.11231607E-02 0.12499754E+03</pdfrwt>
<pdfrwt beam="1">  1       -4 0.82314113E-01 0.12499754E+03</pdfrwt>
<totfact> 0.52725402E+03</totfact>
</mgrwt>
</event>
<event>
 5    1  0.3276024E-002  0.1250022E+03  0.7818608E-02  0.1235066E+00
          4   -1    0    0  501    0  0.00000000000E+00  0.00000000000E+00  0.88908907938E+02  0.88917977995E+02  0.12700000000E+01 0.  1.
         -4   -1    0    0    0  501 -0.00000000000E+00 -0.00000000000E+00 -0.43916483335E+02  0.43934842762E+02  0.12700000000E+01 0.  1.
         25    2    1    2    0    0  0.00000000000E+00  0.00000000000E+00  0.44992424603E+02  0.13285282076E+03  0.12500221483E+03 0.  0.
    9000005    1    3    3    0    0  0.37551909323E+02  0.15650872774E+02  0.72912699076E+02  0.83500643105E+02  0.10000000000E+01 0.  0.
    9000005    1    3    3    0    0 -0.37551909323E+02 -0.15650872774E+02 -0.27920274473E+02  0.49352177652E+02  0.10000000000E+01 0.  0.
<mgrwt>
<rscale>  0 0.12500221E+03</rscale>
<asrwt>0</asrwt>
<pdfrwt beam="1">  1        4 0.13680403E-01 0.12500221E+03</pdfrwt>
<pdfrwt beam="2">  1       -4 0.67584920E-02 0.12500221E+03</pdfrwt>
<totfact> 0.10283015E+04</totfact>
</mgrwt>
</event>
<event>
 5    1  0.3276024E-002  0.1249421E+03  0.7818608E-02  0.1235160E+00
          4   -1    0    0  501    0  0.00000000000E+00  0.00000000000E+00  0.21982861178E+02  0.22019516016E+02  0.12700000000E+01 0.  1.
         -4   -1    0    0    0  501 -0.00000000000E+00 -0.00000000000E+00 -0.17734397171E+03  0.17734851903E+03  0.12700000000E+01 0.  1.
         25    2    1    2    0    0  0.00000000000E+00  0.00000000000E+00 -0.15536111053E+03  0.19936803504E+03  0.12494214154E+03 0.  0.
    9000005    1    3    3    0    0 -0.54409318636E+02  0.21885004280E+02 -0.43371246676E+02  0.72947874575E+02  0.10000000000E+01 0.  0.
    9000005    1    3    3    0    0  0.54409318636E+02 -0.21885004280E+02 -0.11198986385E+03  0.12642016047E+03  0.10000000000E+01 0.  0.
<mgrwt>
<rscale>  0 0.12494214E+03</rscale>
<asrwt>0</asrwt>
<pdfrwt beam="1">  1        4 0.33851482E-02 0.12494214E+03</pdfrwt>
<pdfrwt beam="2">  1       -4 0.27286856E-01 0.12494214E+03</pdfrwt>
<totfact> 0.90359146E+03</totfact>
</mgrwt>
</event>
<event>
 5    1  0.3276024E-002  0.1250043E+03  0.7818608E-02  0.1235063E+00
          4   -1    0    0  501    0  0.00000000000E+00  0.00000000000E+00  0.51363156432E+02  0.51378854976E+02  0.12700000000E+01 0.  1.
         -4   -1    0    0    0  501 -0.00000000000E+00 -0.00000000000E+00 -0.76024154469E+02  0.76034761542E+02  0.12700000000E+01 0.  1.
         25    2    1    2    0    0  0.00000000000E+00  0.00000000000E+00 -0.24660998037E+02  0.12741361652E+03  0.12500425933E+03 0.  0.
    9000005    1    3    3    0    0  0.99744314736E+01 -0.58240704321E+02  0.84098473385E+01  0.59692499155E+02  0.10000000000E+01 0.  0.
    9000005    1    3    3    0    0 -0.99744314736E+01  0.58240704321E+02 -0.33070845375E+02  0.67721117363E+02  0.10000000000E+01 0.  0.
<mgrwt>
<rscale>  0 0.12500426E+03</rscale>
<asrwt>0</asrwt>
<pdfrwt beam="1">  1        4 0.79040476E-02 0.12500426E+03</pdfrwt>
<pdfrwt beam="2">  1       -4 0.11698047E-01 0.12500426E+03</pdfrwt>
<totfact> 0.10399172E+04</totfact>
</mgrwt>
</event>
<event>
 5    1  0.3276024E-002  0.1249999E+03  0.7818608E-02  0.1235069E+00
         -4   -1    0    0    0  501 -0.00000000000E+00  0.00000000000E+00  0.38669106074E+02  0.38689955603E+02  0.12700000000E+01 0.  1.
          4   -1    0    0  501    0  0.00000000000E+00 -0.00000000000E+00 -0.10096506450E+03  0.10097305160E+03  0.12700000000E+01 0.  1.
         25    2    1    2    0    0  0.00000000000E+00  0.00000000000E+00 -0.62295958429E+02  0.13966300721E+03  0.12499987658E+03 0.  0.
    9000005    1    3    3    0    0 -0.38451922269E+02  0.49237558367E+02 -0.29433432243E+02  0.69066738839E+02  0.10000000000E+01 0.  0.
    9000005    1    3    3    0    0  0.38451922269E+02 -0.49237558367E+02 -0.32862526186E+02  0.70596268368E+02  0.10000000000E+01 0.  0.
<mgrwt>
<rscale>  0 0.12499988E+03</rscale>
<asrwt>0</asrwt>
<pdfrwt beam="2">  1        4 0.15535305E-01 0.12499988E+03</pdfrwt>
<pdfrwt beam="1">  1       -4 0.59513115E-02 0.12499988E+03</pdfrwt>
<totfact> 0.10140603E+04</totfact>
</mgrwt>
</event>
<event>
 5    1  0.3276024E-002  0.1249998E+03  0.7818608E-02  0.1235070E+00
         -4   -1    0    0    0  501 -0.00000000000E+00  0.00000000000E+00  0.90925421837E+02  0.90934290761E+02  0.12700000000E+01 0.  1.
          4   -1    0    0  501    0  0.00000000000E+00 -0.00000000000E+00 -0.42940512431E+02  0.42959288958E+02  0.12700000000E+01 0.  1.
         25    2    1    2    0    0  0.00000000000E+00  0.00000000000E+00  0.47984909407E+02  0.13389357972E+03  0.12499975664E+03 0.  0.
    9000005    1    3    3    0    0 -0.20642924265E+02 -0.57302846101E+02  0.90159327918E+01  0.61579489586E+02  0.10000000000E+01 0.  0.
    9000005    1    3    3    0    0  0.20642924265E+02  0.57302846101E+02  0.38968976615E+02  0.72314090134E+02  0.10000000000E+01 0.  0.
<mgrwt>
<rscale>  0 0.12499976E+03</rscale>
<asrwt>0</asrwt>
<pdfrwt beam="2">  1        4 0.66083593E-02 0.12499976E+03</pdfrwt>
<pdfrwt beam="1">  1       -4 0.13990653E-01 0.12499976E+03</pdfrwt>
<totfact> 0.10261501E+04</totfact>
</mgrwt>
</event>
<event>
 5    1  0.3276024E-002  0.1249980E+03  0.7818608E-02  0.1235072E+00
         -4   -1    0    0    0  501 -0.00000000000E+00  0.00000000000E+00  0.39400821088E+01  0.41397037363E+01  0.12700000000E+01 0. -1.
          4   -1    0    0  501    0  0.00000000000E+00 -0.00000000000E+00 -0.96668824328E+03  0.96668907751E+03  0.12700000000E+01 0. -1.
         25    2    1    2    0    0  0.00000000000E+00  0.00000000000E+00 -0.96274816117E+03  0.97082878125E+03  0.12499800269E+03 0.  0.
    9000005    1    3    3    0    0  0.21491676839E+02 -0.33120620975E+02 -0.85758154030E+03  0.85849051595E+03  0.10000000000E+01 0.  0.
    9000005    1    3    3    0    0 -0.21491676839E+02  0.33120620975E+02 -0.10516662086E+03  0.11233826530E+03  0.10000000000E+01 0.  0.
<mgrwt>
<rscale>  0 0.12499800E+03</rscale>
<asrwt>0</asrwt>
<pdfrwt beam="2">  1        4 0.14873650E+00 0.12499800E+03</pdfrwt>
<pdfrwt beam="1">  1       -4 0.62158693E-03 0.12499800E+03</pdfrwt>
<totfact> 0.31589236E+03</totfact>
</mgrwt>
</event>
<event>
 5    1  0.3276024E-002  0.1249988E+03  0.7818608E-02  0.1235071E+00
          4   -1    0    0  501    0  0.00000000000E+00  0.00000000000E+00  0.22487174368E+02  0.22523008482E+02  0.12700000000E+01 0. -1.
         -4   -1    0    0    0  501 -0.00000000000E+00 -0.00000000000E+00 -0.17353033744E+03  0.17353498470E+03  0.12700000000E+01 0. -1.
         25    2    1    2    0    0  0.00000000000E+00  0.00000000000E+00 -0.15104316308E+03  0.19605799318E+03  0.12499879830E+03 0.  0.
    9000005    1    3    3    0    0  0.23431930689E+02  0.38710156844E+02 -0.79195301249E+01  0.45948346826E+02  0.10000000000E+01 0.  0.
    9000005    1    3    3    0    0 -0.23431930689E+02 -0.38710156844E+02 -0.14312363295E+03  0.15010964635E+03  0.10000000000E+01 0.  0.
<mgrwt>
<rscale>  0 0.12499880E+03</rscale>
<asrwt>0</asrwt>
<pdfrwt beam="1">  1        4 0.34626794E-02 0.12499880E+03</pdfrwt>
<pdfrwt beam="2">  1       -4 0.26700088E-01 0.12499880E+03</pdfrwt>
<totfact> 0.90806240E+03</totfact>
</mgrwt>
</event>
<event>
 5    1  0.3276024E-002  0.1249978E+03  0.7818608E-02  0.1235073E+00
         -4   -1    0    0    0  501 -0.00000000000E+00  0.00000000000E+00  0.54083078811E+02  0.54097988074E+02  0.12700000000E+01 0. -1.
          4   -1    0    0  501    0  0.00000000000E+00 -0.00000000000E+00 -0.72193840273E+02  0.72205010029E+02  0.12700000000E+01 0. -1.
         25    2    1    2    0    0  0.00000000000E+00  0.00000000000E+00 -0.18110761462E+02  0.12630299810E+03  0.12499779058E+03 0.  0.
    9000005    1    3    3    0    0  0.10161389157E+01 -0.59788271498E+02 -0.27395442037E+02  0.65781305790E+02  0.10000000000E+01 0.  0.
    9000005    1    3    3    0    0 -0.10161389157E+01  0.59788271498E+02  0.92846805752E+01  0.60521692313E+02  0.10000000000E+01 0.  0.
<mgrwt>
<rscale>  0 0.12499779E+03</rscale>
<asrwt>0</asrwt>
<pdfrwt beam="2">  1        4 0.11108751E-01 0.12499779E+03</pdfrwt>
<pdfrwt beam="1">  1       -4 0.83224797E-02 0.12499779E+03</pdfrwt>
<totfact> 0.10424848E+04</totfact>
</mgrwt>
</event>
<event>
 5    1  0.3276024E-002  0.1250013E+03  0.7818608E-02  0.1235067E+00
          4   -1    0    0  501    0  0.00000000000E+00  0.00000000000E+00  0.11389873584E+02  0.11460458990E+02  0.12700000000E+01 0. -1.
         -4   -1    0    0    0  501 -0.00000000000E+00 -0.00000000000E+00 -0.34183388884E+03  0.34183624802E+03  0.12700000000E+01 0. -1.
         25    2    1    2    0    0  0.00000000000E+00  0.00000000000E+00 -0.33044401526E+03  0.35329670701E+03  0.12500126385E+03 0.  0.
    9000005    1    3    3    0    0 -0.22760900373E+02 -0.28058908687E+02 -0.21107006028E+02  0.41855306067E+02  0.10000000000E+01 0.  0.
    9000005    1    3    3    0    0  0.22760900373E+02  0.28058908687E+02 -0.30933700923E+03  0.31144140094E+03  0.10000000000E+01 0.  0.
<mgrwt>
<rscale>  0 0.12500126E+03</rscale>
<asrwt>0</asrwt>
<pdfrwt beam="1">  1        4 0.17578996E-02 0.12500126E+03</pdfrwt>
<pdfrwt beam="2">  1       -4 0.52595432E-01 0.12500126E+03</pdfrwt>
<totfact> 0.69361458E+03</totfact>
</mgrwt>
</event>
<event>
 5    1  0.3276024E-002  0.1250119E+03  0.7818608E-02  0.1235051E+00
          4   -1    0    0  501    0  0.00000000000E+00  0.00000000000E+00  0.44624517983E+02  0.44642586229E+02  0.12700000000E+01 0.  1.
         -4   -1    0    0    0  501 -0.00000000000E+00 -0.00000000000E+00 -0.87512231162E+02  0.87521445960E+02  0.12700000000E+01 0.  1.
         25    2    1    2    0    0  0.00000000000E+00  0.00000000000E+00 -0.42887713179E+02  0.13216403219E+03  0.12501190128E+03 0.  0.
    9000005    1    3    3    0    0 -0.32232032019E+02  0.28379288505E+02  0.26559906428E+02  0.50504618933E+02  0.10000000000E+01 0.  0.
    9000005    1    3    3    0    0  0.32232032019E+02 -0.28379288505E+02 -0.69447619607E+02  0.81659413256E+02  0.10000000000E+01 0.  0.
<mgrwt>
<rscale>  0 0.12501190E+03</rscale>
<asrwt>0</asrwt>
<pdfrwt beam="1">  1        4 0.68674092E-02 0.12501190E+03</pdfrwt>
<pdfrwt beam="2">  1       -4 0.13465519E-01 0.12501190E+03</pdfrwt>
<totfact> 0.10295434E+04</totfact>
</mgrwt>
</event>
<event>
 5    1  0.3276024E-002  0.1249992E+03  0.7818608E-02  0.1235071E+00
          4   -1    0    0  501    0  0.00000000000E+00  0.00000000000E+00  0.45986806079E+02  0.46004339289E+02  0.12700000000E+01 0. -1.
         -4   -1    0    0    0  501 -0.00000000000E+00 -0.00000000000E+00 -0.84903280337E+02  0.84912778261E+02  0.12700000000E+01 0. -1.
         25    2    1    2    0    0  0.00000000000E+00  0.00000000000E+00 -0.38916474257E+02  0.13091711755E+03  0.12499919879E+03 0.  0.
    9000005    1    3    3    0    0  0.38947688569E+02 -0.39729843059E+02  0.10346319359E+02  0.56598844499E+02  0.10000000000E+01 0.  0.
    9000005    1    3    3    0    0 -0.38947688569E+02  0.39729843059E+02 -0.49262793616E+02  0.74318273050E+02  0.10000000000E+01 0.  0.
<mgrwt>
<rscale>  0 0.12499920E+03</rscale>
<asrwt>0</asrwt>
<pdfrwt beam="1">  1        4 0.70769726E-02 0.12499920E+03</pdfrwt>
<pdfrwt beam="2">  1       -4 0.13064122E-01 0.12499920E+03</pdfrwt>
<totfact> 0.10325053E+04</totfact>
</mgrwt>
</event>
<event>
 5    1  0.3276024E-002  0.1250045E+03  0.7818608E-02  0.1235062E+00
         -4   -1    0    0    0  501 -0.00000000000E+00  0.00000000000E+00  0.11035223199E+03  0.11035953971E+03  0.12700000000E+01 0. -1.
          4   -1    0    0  501    0  0.00000000000E+00 -0.00000000000E+00 -0.35380717686E+02  0.35403503837E+02  0.12700000000E+01 0. -1.
         25    2    1    2    0    0  0.00000000000E+00  0.00000000000E+00  0.74971514307E+02  0.14576304355E+03  0.12500454755E+03 0.  0.
    9000005    1    3    3    0    0  0.13902511765E+02 -0.60791058566E+02  0.42251170209E+02  0.75332556169E+02  0.10000000000E+01 0.  0.
    9000005    1    3    3    0    0 -0.13902511765E+02  0.60791058566E+02  0.32720344098E+02  0.70430487382E+02  0.10000000000E+01 0.  0.
<mgrwt>
<rscale>  0 0.12500455E+03</rscale>
<asrwt>0</asrwt>
<pdfrwt beam="2">  1        4 0.54455023E-02 0.12500455E+03</pdfrwt>
<pdfrwt beam="1">  1       -4 0.16979581E-01 0.12500455E+03</pdfrwt>
<totfact> 0.10014483E+04</totfact>
</mgrwt>
</event>
<event>
 5    1  0.3276024E-002  0.1250077E+03  0.7818608E-02  0.1235057E+00
          4   -1    0    0  501    0  0.00000000000E+00  0.00000000000E+00  0.22763820985E+02  0.22799220290E+02  0.12700000000E+01 0. -1.
         -4   -1    0    0    0  501 -0.00000000000E+00 -0.00000000000E+00 -0.17144910349E+03  0.17145380715E+03  0.12700000000E+01 0. -1.
         25    2    1    2    0    0  0.00000000000E+00  0.00000000000E+00 -0.14868528250E+03  0.19425302744E+03  0.12500770151E+03 0.  0.
    9000005    1    3    3    0    0  0.57922166103E+01 -0.12573292231E+02 -0.16904427389E+03  0.16961310087E+03  0.10000000000E+01 0.  0.
    9000005    1    3    3    0    0 -0.57922166103E+01  0.12573292231E+02  0.20358991392E+02  0.24639926569E+02  0.10000000000E+01 0.  0.
<mgrwt>
<rscale>  0 0.12500770E+03</rscale>
<asrwt>0</asrwt>
<pdfrwt beam="1">  1        4 0.35052113E-02 0.12500770E+03</pdfrwt>
<pdfrwt beam="2">  1       -4 0.26379869E-01 0.12500770E+03</pdfrwt>
<totfact> 0.91096813E+03</totfact>
</mgrwt>
</event>
<event>
 5    1  0.3276024E-002  0.1250003E+03  0.7818608E-02  0.1235069E+00
         -4   -1    0    0    0  501 -0.00000000000E+00  0.00000000000E+00  0.14216195098E+02  0.14272809922E+02  0.12700000000E+01 0. -1.
          4   -1    0    0  501    0  0.00000000000E+00 -0.00000000000E+00 -0.27417195798E+03  0.27417489937E+03  0.12700000000E+01 0. -1.
         25    2    1    2    0    0  0.00000000000E+00  0.00000000000E+00 -0.25995576288E+03  0.28844770929E+03  0.12500032935E+03 0.  0.
    9000005    1    3    3    0    0  0.58977635199E+02 -0.20601770364E+02 -0.13360906174E+03  0.14749635851E+03  0.10000000000E+01 0.  0.
    9000005    1    3    3    0    0 -0.58977635199E+02  0.20601770364E+02 -0.12634670114E+03  0.14095135078E+03  0.10000000000E+01 0.  0.
<mgrwt>
<rscale>  0 0.12500033E+03</rscale>
<asrwt>0</asrwt>
<pdfrwt beam="2">  1        4 0.42184879E-01 0.12500033E+03</pdfrwt>
<pdfrwt beam="1">  1       -4 0.21916884E-02 0.12500033E+03</pdfrwt>
<totfact> 0.77070607E+03</totfact>
</mgrwt>
</event>
<event>
 5    1  0.3276024E-002  0.1249983E+03  0.7818608E-02  0.1235072E+00
          4   -1    0    0  501    0  0.00000000000E+00  0.00000000000E+00  0.56856903476E+02  0.56871085561E+02  0.12700000000E+01 0.  1.
         -4   -1    0    0    0  501 -0.00000000000E+00 -0.00000000000E+00 -0.68672734969E+02  0.68684477345E+02  0.12700000000E+01 0.  1.
         25    2    1    2    0    0  0.00000000000E+00  0.00000000000E+00 -0.11815831493E+02  0.12555556291E+03  0.12499834200E+03 0.  0.
    9000005    1    3    3    0    0  0.44177092775E+02 -0.18423310716E+02 -0.46263032079E+02  0.66575536355E+02  0.10000000000E+01 0.  0.
    9000005    1    3    3    0    0 -0.44177092775E+02  0.18423310716E+02  0.34447200586E+02  0.58980026551E+02  0.10000000000E+01 0.  0.
<mgrwt>
<rscale>  0 0.12499834E+03</rscale>
<asrwt>0</asrwt>
<pdfrwt beam="1">  1        4 0.87492101E-02 0.12499834E+03</pdfrwt>
<pdfrwt beam="2">  1       -4 0.10567030E-01 0.12499834E+03</pdfrwt>
<totfact> 0.10441118E+04</totfact>
</mgrwt>
</event>
<event>
 5    1  0.3276024E-002  0.1250030E+03  0.7818608E-02  0.1235065E+00
         -4   -1    0    0    0  501 -0.00000000000E+00  0.00000000000E+00  0.26990659092E+02  0.27020521428E+02  0.12700000000E+01 0. -1.
          4   -1    0    0  501    0  0.00000000000E+00 -0.00000000000E+00 -0.14462034837E+03  0.14462592458E+03  0.12700000000E+01 0. -1.
         25    2    1    2    0    0  0.00000000000E+00  0.00000000000E+00 -0.11762968927E+03  0.17164644601E+03  0.12500303448E+03 0.  0.
    9000005    1    3    3    0    0  0.12578083771E+02  0.58362032290E+02 -0.33454328868E+02  0.68443605431E+02  0.10000000000E+01 0.  0.
    9000005    1    3    3    0    0 -0.12578083771E+02 -0.58362032290E+02 -0.84175360405E+02  0.10320284058E+03  0.10000000000E+01 0.  0.
<mgrwt>
<rscale>  0 0.12500303E+03</rscale>
<asrwt>0</asrwt>
<pdfrwt beam="2">  1        4 0.22252010E-01 0.12500303E+03</pdfrwt>
<pdfrwt beam="1">  1       -4 0.41551352E-02 0.12500303E+03</pdfrwt>
<totfact> 0.95136171E+03</totfact>
</mgrwt>
</event>
<event>
 5    1  0.3276024E-002  0.1249950E+03  0.7818608E-02  0.1235077E+00
          4   -1    0    0  501    0  0.00000000000E+00  0.00000000000E+00  0.83178297994E+01  0.84142256074E+01  0.12700000000E+01 0. -1.
         -4   -1    0    0    0  501 -0.00000000000E+00 -0.00000000000E+00 -0.46678388291E+03  0.46678561058E+03  0.12700000000E+01 0. -1.
         25    2    1    2    0    0  0.00000000000E+00  0.00000000000E+00 -0.45846605311E+03  0.47519983618E+03  0.12499504973E+03 0.  0.
    9000005    1    3    3    0    0  0.39488895253E+02  0.12791794340E+02 -0.51648693723E+02  0.66269075851E+02  0.10000000000E+01 0.  0.
    9000005    1    3    3    0    0 -0.39488895253E+02 -0.12791794340E+02 -0.40681735938E+03  0.40893076033E+03  0.10000000000E+01 0.  0.
<mgrwt>
<rscale>  0 0.12499505E+03</rscale>
<asrwt>0</asrwt>
<pdfrwt beam="1">  1        4 0.12872144E-02 0.12499505E+03</pdfrwt>
<pdfrwt beam="2">  1       -4 0.71820433E-01 0.12499505E+03</pdfrwt>
<totfact> 0.57847551E+03</totfact>
</mgrwt>
</event>
<event>
 5    1  0.3276024E-002  0.1250235E+03  0.7818608E-02  0.1235033E+00
         -4   -1    0    0    0  501 -0.00000000000E+00  0.00000000000E+00  0.37367325222E+02  0.37388900683E+02  0.12700000000E+01 0.  1.
          4   -1    0    0  501    0  0.00000000000E+00 -0.00000000000E+00 -0.10452019794E+03  0.10452791339E+03  0.12700000000E+01 0.  1.
         25    2    1    2    0    0  0.00000000000E+00  0.00000000000E+00 -0.67152872719E+02  0.14191681407E+03  0.12502349300E+03 0.  0.
    9000005    1    3    3    0    0  0.56552270038E+02 -0.24585337144E+02 -0.45159145268E+02  0.76439168299E+02  0.10000000000E+01 0.  0.
    9000005    1    3    3    0    0 -0.56552270038E+02  0.24585337144E+02 -0.21993727451E+02  0.65477645774E+02  0.10000000000E+01 0.  0.
<mgrwt>
<rscale>  0 0.12502349E+03</rscale>
<asrwt>0</asrwt>
<pdfrwt beam="2">  1        4 0.16082283E-01 0.12502349E+03</pdfrwt>
<pdfrwt beam="1">  1       -4 0.57510725E-02 0.12502349E+03</pdfrwt>
<totfact> 0.10088673E+04</totfact>
</mgrwt>
</event>
<event>
 5    1  0.3276024E-002  0.1250041E+03  0.7818608E-02  0.1235063E+00
          4   -1    0    0  501    0  0.00000000000E+00  0.00000000000E+00  0.77696988229E+02  0.77707366960E+02  0.12700000000E+01 0. -1.
         -4   -1    0    0    0  501 -0.00000000000E+00 -0.00000000000E+00 -0.50256953206E+02  0.50272997181E+02  0.12700000000E+01 0. -1.
         25    2    1    2    0    0  0.00000000000E+00  0.00000000000E+00  0.27440035023E+02  0.12798036414E+03  0.12500407227E+03 0.  0.
    9000005    1    3    3    0    0  0.48362835080E+02 -0.39114133821E+02  0.19915989073E+02  0.65318648963E+02  0.10000000000E+01 0.  0.
    9000005    1    3    3    0    0 -0.48362835080E+02  0.39114133821E+02  0.75240459501E+01  0.62661715178E+02  0.10000000000E+01 0.  0.
<mgrwt>
<rscale>  0 0.12500407E+03</rscale>
<asrwt>0</asrwt>
<pdfrwt beam="1">  1        4 0.11955415E-01 0.12500407E+03</pdfrwt>
<pdfrwt beam="2">  1       -4 0.77338715E-02 0.12500407E+03</pdfrwt>
<totfact> 0.10386957E+04</totfact>
</mgrwt>
</event>
<event>
 5    1  0.3276024E-002  0.1249998E+03  0.7818608E-02  0.1235070E+00
         -4   -1    0    0    0  501 -0.00000000000E+00  0.00000000000E+00  0.35392445436E+03  0.35392673295E+03  0.12700000000E+01 0.  1.
          4   -1    0    0  501    0  0.00000000000E+00 -0.00000000000E+00 -0.10998060268E+02  0.11071144008E+02  0.12700000000E+01 0.  1.
         25    2    1    2    0    0  0.00000000000E+00  0.00000000000E+00  0.34292639410E+03  0.36499787696E+03  0.12499975366E+03 0.  0.
    9000005    1    3    3    0    0 -0.37757424468E+02 -0.39645778366E+02  0.25944279107E+03  0.26515839169E+03  0.10000000000E+01 0.  0.
    9000005    1    3    3    0    0  0.37757424468E+02  0.39645778366E+02  0.83483603028E+02  0.99839485271E+02  0.10000000000E+01 0.  0.
<mgrwt>
<rscale>  0 0.12499975E+03</rscale>
<asrwt>0</asrwt>
<pdfrwt beam="2">  1        4 0.16978062E-02 0.12499975E+03</pdfrwt>
<pdfrwt beam="1">  1       -4 0.54455719E-01 0.12499975E+03</pdfrwt>
<totfact> 0.68105885E+03</totfact>
</mgrwt>
</event>
<event>
 5    1  0.3276024E-002  0.1250021E+03  0.7818608E-02  0.1235066E+00
          4   -1    0    0  501    0  0.00000000000E+00  0.00000000000E+00  0.18785476114E+03  0.18785905403E+03  0.12700000000E+01 0.  1.
         -4   -1    0    0    0  501 -0.00000000000E+00 -0.00000000000E+00 -0.20770749607E+02  0.20809539621E+02  0.12700000000E+01 0.  1.
         25    2    1    2    0    0  0.00000000000E+00  0.00000000000E+00  0.16708401153E+03  0.20866859365E+03  0.12500206026E+03 0.  0.
    9000005    1    3    3    0    0 -0.29013462829E+02 -0.47838879236E+02  0.13001512272E+03  0.14154600498E+03  0.10000000000E+01 0.  0.
    9000005    1    3    3    0    0  0.29013462829E+02  0.47838879236E+02  0.37068888815E+02  0.67122588670E+02  0.10000000000E+01 0.  0.
<mgrwt>
<rscale>  0 0.12500206E+03</rscale>
<asrwt>0</asrwt>
<pdfrwt beam="1">  1        4 0.28904045E-01 0.12500206E+03</pdfrwt>
<pdfrwt beam="2">  1       -4 0.31988141E-02 0.12500206E+03</pdfrwt>
<totfact> 0.88689694E+03</totfact>
</mgrwt>
</event>
<event>
 5    1  0.3276024E-002  0.1249960E+03  0.7818608E-02  0.1235076E+00
          4   -1    0    0  501    0  0.00000000000E+00  0.00000000000E+00  0.67292884369E+02  0.67304867481E+02  0.12700000000E+01 0. -1.
         -4   -1    0    0    0  501 -0.00000000000E+00 -0.00000000000E+00 -0.58020637534E+02  0.58034535234E+02  0.12700000000E+01 0. -1.
         25    2    1    2    0    0  0.00000000000E+00  0.00000000000E+00  0.92722468352E+01  0.12533940272E+03  0.12499596518E+03 0.  0.
    9000005    1    3    3    0    0 -0.31888341268E+02  0.19472352693E+02 -0.45591011844E+02  0.58954043026E+02  0.10000000000E+01 0.  0.
    9000005    1    3    3    0    0  0.31888341268E+02 -0.19472352693E+02  0.54863258679E+02  0.66385359689E+02  0.10000000000E+01 0.  0.
<mgrwt>
<rscale>  0 0.12499597E+03</rscale>
<asrwt>0</asrwt>
<pdfrwt beam="1">  1        4 0.10354742E-01 0.12499597E+03</pdfrwt>
<pdfrwt beam="2">  1       -4 0.89282428E-02 0.12499597E+03</pdfrwt>
<totfact> 0.10446448E+04</totfact>
</mgrwt>
</event>
<event>
 5    1  0.3276024E-002  0.1250030E+03  0.7818608E-02  0.1235065E+00
         -4   -1    0    0    0  501 -0.00000000000E+00  0.00000000000E+00  0.28857539416E+02  0.28885471800E+02  0.12700000000E+01 0.  1.
          4   -1    0    0  501    0  0.00000000000E+00 -0.00000000000E+00 -0.13527331187E+03  0.13527927338E+03  0.12700000000E+01 0.  1.
         25    2    1    2    0    0  0.00000000000E+00  0.00000000000E+00 -0.10641577246E+03  0.16416474518E+03  0.12500298769E+03 0.  0.
    9000005    1    3    3    0    0  0.17453997139E+02 -0.23376479487E+02  0.19372258968E+02  0.35034072371E+02  0.10000000000E+01 0.  0.
    9000005    1    3    3    0    0 -0.17453997139E+02  0.23376479487E+02 -0.12578803143E+03  0.12913067281E+03  0.10000000000E+01 0.  0.
<mgrwt>
<rscale>  0 0.12500299E+03</rscale>
<asrwt>0</asrwt>
<pdfrwt beam="2">  1        4 0.20813886E-01 0.12500299E+03</pdfrwt>
<pdfrwt beam="1">  1       -4 0.44422288E-02 0.12500299E+03</pdfrwt>
<totfact> 0.96539330E+03</totfact>
</mgrwt>
</event>
<event>
 5    1  0.3276024E-002  0.1249968E+03  0.7818608E-02  0.1235074E+00
          4   -1    0    0  501    0  0.00000000000E+00  0.00000000000E+00  0.37247523412E+02  0.37269168227E+02  0.12700000000E+01 0. -1.
         -4   -1    0    0    0  501 -0.00000000000E+00 -0.00000000000E+00 -0.10481135036E+03  0.10481904438E+03  0.12700000000E+01 0. -1.
         25    2    1    2    0    0  0.00000000000E+00  0.00000000000E+00 -0.67563826948E+02  0.14208821260E+03  0.12499675776E+03 0.  0.
    9000005    1    3    3    0    0  0.29438437254E+02  0.10964055962E+02 -0.95188925301E+02  0.10024352154E+03  0.10000000000E+01 0.  0.
    9000005    1    3    3    0    0 -0.29438437254E+02 -0.10964055962E+02  0.27625098353E+02  0.41844691063E+02  0.10000000000E+01 0.  0.
<mgrwt>
<rscale>  0 0.12499676E+03</rscale>
<asrwt>0</asrwt>
<pdfrwt beam="1">  1        4 0.57326451E-02 0.12499676E+03</pdfrwt>
<pdfrwt beam="2">  1       -4 0.16127080E-01 0.12499676E+03</pdfrwt>
<totfact> 0.10091225E+04</totfact>
</mgrwt>
</event>
<event>
 5    1  0.3276024E-002  0.1249991E+03  0.7818608E-02  0.1235071E+00
          4   -1    0    0  501    0  0.00000000000E+00  0.00000000000E+00  0.10238898153E+02  0.10317360873E+02  0.12700000000E+01 0. -1.
         -4   -1    0    0    0  501 -0.00000000000E+00 -0.00000000000E+00 -0.37996976547E+03  0.37997188787E+03  0.12700000000E+01 0. -1.
         25    2    1    2    0    0  0.00000000000E+00  0.00000000000E+00 -0.36973086732E+03  0.39028924874E+03  0.12499913375E+03 0.  0.
    9000005    1    3    3    0    0 -0.32401937821E+02 -0.17801100819E+02 -0.27553280939E+02  0.46118847074E+02  0.10000000000E+01 0.  0.
    9000005    1    3    3    0    0  0.32401937821E+02  0.17801100819E+02 -0.34217758638E+03  0.34417040167E+03  0.10000000000E+01 0.  0.
<mgrwt>
<rscale>  0 0.12499913E+03</rscale>
<asrwt>0</asrwt>
<pdfrwt beam="1">  1        4 0.15814142E-02 0.12499913E+03</pdfrwt>
<pdfrwt beam="2">  1       -4 0.58463075E-01 0.12499913E+03</pdfrwt>
<totfact> 0.65509589E+03</totfact>
</mgrwt>
</event>
<event>
 5    1  0.3276024E-002  0.1250011E+03  0.7818608E-02  0.1235068E+00
          4   -1    0    0  501    0  0.00000000000E+00  0.00000000000E+00  0.20434167345E+02  0.20473595070E+02  0.12700000000E+01 0. -1.
         -4   -1    0    0    0  501 -0.00000000000E+00 -0.00000000000E+00 -0.19094010992E+03  0.19094433345E+03  0.12700000000E+01 0. -1.
         25    2    1    2    0    0  0.00000000000E+00  0.00000000000E+00 -0.17050594257E+03  0.21141792851E+03  0.12500105618E+03 0.  0.
    9000005    1    3    3    0    0  0.61414225419E+02 -0.38495433361E+01 -0.66819039807E+02  0.90842226682E+02  0.10000000000E+01 0.  0.
    9000005    1    3    3    0    0 -0.61414225419E+02  0.38495433361E+01 -0.10368690276E+03  0.12057570183E+03  0.10000000000E+01 0.  0.
<mgrwt>
<rscale>  0 0.12500106E+03</rscale>
<asrwt>0</asrwt>
<pdfrwt beam="1">  1        4 0.31470760E-02 0.12500106E+03</pdfrwt>
<pdfrwt beam="2">  1       -4 0.29378758E-01 0.12500106E+03</pdfrwt>
<totfact> 0.88242754E+03</totfact>
</mgrwt>
</event>
<event>
 5    1  0.3276024E-002  0.1249999E+03  0.7818608E-02  0.1235069E+00
          4   -1    0    0  501    0  0.00000000000E+00  0.00000000000E+00  0.13923689471E+02  0.13981488780E+02  0.12700000000E+01 0. -1.
         -4   -1    0    0    0  501 -0.00000000000E+00 -0.00000000000E+00 -0.27990641083E+03  0.27990929195E+03  0.12700000000E+01 0. -1.
         25    2    1    2    0    0  0.00000000000E+00  0.00000000000E+00 -0.26598272135E+03  0.29389078073E+03  0.12499993176E+03 0.  0.
    9000005    1    3    3    0    0  0.42323577179E+02 -0.45738954362E+02 -0.14399619570E+03  0.15690519911E+03  0.10000000000E+01 0.  0.
    9000005    1    3    3    0    0 -0.42323577179E+02  0.45738954362E+02 -0.12198652566E+03  0.13698558163E+03  0.10000000000E+01 0.  0.
<mgrwt>
<rscale>  0 0.12499993E+03</rscale>
<asrwt>0</asrwt>
<pdfrwt beam="1">  1        4 0.21467740E-02 0.12499993E+03</pdfrwt>
<pdfrwt beam="2">  1       -4 0.43067188E-01 0.12499993E+03</pdfrwt>
<totfact> 0.76371732E+03</totfact>
</mgrwt>
</event>
<event>
 5    1  0.3276024E-002  0.1250017E+03  0.7818608E-02  0.1235067E+00
          4   -1    0    0  501    0  0.00000000000E+00  0.00000000000E+00  0.26122458760E+03  0.26122767477E+03  0.12700000000E+01 0.  1.
         -4   -1    0    0    0  501 -0.00000000000E+00 -0.00000000000E+00 -0.14923863519E+02  0.14977803655E+02  0.12700000000E+01 0.  1.
         25    2    1    2    0    0  0.00000000000E+00  0.00000000000E+00  0.24630072408E+03  0.27620547842E+03  0.12500167851E+03 0.  0.
    9000005    1    3    3    0    0 -0.13002504653E+02 -0.23419414516E+01  0.25811429455E+03  0.25845413300E+03  0.10000000000E+01 0.  0.
    9000005    1    3    3    0    0  0.13002504653E+02  0.23419414516E+01 -0.11813570469E+02  0.17751345421E+02  0.10000000000E+01 0.  0.
<mgrwt>
<rscale>  0 0.12500168E+03</rscale>
<asrwt>0</asrwt>
<pdfrwt beam="1">  1        4 0.40192786E-01 0.12500168E+03</pdfrwt>
<pdfrwt beam="2">  1       -4 0.23003656E-02 0.12500168E+03</pdfrwt>
<totfact> 0.78680997E+03</totfact>
</mgrwt>
</event>
<event>
 5    1  0.3276024E-002  0.1250042E+03  0.7818608E-02  0.1235063E+00
          4   -1    0    0  501    0  0.00000000000E+00  0.00000000000E+00  0.14971636807E+02  0.15025405442E+02  0.12700000000E+01 0. -1.
         -4   -1    0    0    0  501 -0.00000000000E+00 -0.00000000000E+00 -0.26040445236E+03  0.26040754925E+03  0.12700000000E+01 0. -1.
         25    2    1    2    0    0  0.00000000000E+00  0.00000000000E+00 -0.24543281555E+03  0.27543295469E+03  0.12500418226E+03 0.  0.
    9000005    1    3    3    0    0 -0.12152572132E+02 -0.24280573197E+02 -0.24673966866E+03  0.24823113289E+03  0.10000000000E+01 0.  0.
    9000005    1    3    3    0    0  0.12152572132E+02  0.24280573197E+02  0.13068531154E+01  0.27201821801E+02  0.10000000000E+01 0.  0.
<mgrwt>
<rscale>  0 0.12500418E+03</rscale>
<asrwt>0</asrwt>
<pdfrwt beam="1">  1        4 0.23077032E-02 0.12500418E+03</pdfrwt>
<pdfrwt beam="2">  1       -4 0.40066594E-01 0.12500418E+03</pdfrwt>
<totfact> 0.78780260E+03</totfact>
</mgrwt>
</event>
<event>
 5    1  0.3276024E-002  0.1250027E+03  0.7818608E-02  0.1235065E+00
         -4   -1    0    0    0  501 -0.00000000000E+00  0.00000000000E+00  0.17617135536E+01  0.21717584223E+01  0.12700000000E+01 0. -1.
          4   -1    0    0  501    0  0.00000000000E+00 -0.00000000000E+00 -0.19858353732E+04  0.19858357793E+04  0.12700000000E+01 0. -1.
         25    2    1    2    0    0  0.00000000000E+00  0.00000000000E+00 -0.19840736596E+04  0.19880075377E+04  0.12500273254E+03 0.  0.
    9000005    1    3    3    0    0 -0.32756679366E+02 -0.32611098612E+02 -0.16609268275E+04  0.16615701641E+04  0.10000000000E+01 0.  0.
    9000005    1    3    3    0    0  0.32756679366E+02  0.32611098612E+02 -0.32314683211E+03  0.32643737363E+03  0.10000000000E+01 0.  0.
<mgrwt>
<rscale>  0 0.12500273E+03</rscale>
<asrwt>0</asrwt>
<pdfrwt beam="2">  1        4 0.30554310E+00 0.12500273E+03</pdfrwt>
<pdfrwt beam="1">  1       -4 0.30260760E-03 0.12500273E+03</pdfrwt>
<totfact> 0.10018113E+03</totfact>
</mgrwt>
</event>
<event>
 5    1  0.3276024E-002  0.1249996E+03  0.7818608E-02  0.1235070E+00
         -4   -1    0    0    0  501 -0.00000000000E+00  0.00000000000E+00  0.46734634344E+02  0.46751887099E+02  0.12700000000E+01 0.  1.
          4   -1    0    0  501    0  0.00000000000E+00 -0.00000000000E+00 -0.83545559858E+02  0.83555212117E+02  0.12700000000E+01 0.  1.
         25    2    1    2    0    0  0.00000000000E+00  0.00000000000E+00 -0.36810925514E+02  0.13030709922E+03  0.12499958348E+03 0.  0.
    9000005    1    3    3    0    0  0.51567473463E+01 -0.23524240293E+02 -0.78518842040E+02  0.82135196352E+02  0.10000000000E+01 0.  0.
    9000005    1    3    3    0    0 -0.51567473463E+01  0.23524240293E+02  0.41707916526E+02  0.48171902864E+02  0.10000000000E+01 0.  0.
<mgrwt>
<rscale>  0 0.12499958E+03</rscale>
<asrwt>0</asrwt>
<pdfrwt beam="2">  1        4 0.12855233E-01 0.12499958E+03</pdfrwt>
<pdfrwt beam="1">  1       -4 0.71920133E-02 0.12499958E+03</pdfrwt>
<totfact> 0.10338040E+04</totfact>
</mgrwt>
</event>
<event>
 5    1  0.3276024E-002  0.1249970E+03  0.7818608E-02  0.1235074E+00
         -4   -1    0    0    0  501 -0.00000000000E+00  0.00000000000E+00  0.22262323695E+04  0.22262327317E+04  0.12700000000E+01 0. -1.
          4   -1    0    0  501    0  0.00000000000E+00 -0.00000000000E+00 -0.15243372686E+01  0.19840625263E+01  0.12700000000E+01 0. -1.
         25    2    1    2    0    0  0.00000000000E+00  0.00000000000E+00  0.22247080322E+04  0.22282167943E+04  0.12499701442E+03 0.  0.
    9000005    1    3    3    0    0  0.93965142012E+01  0.29605939100E+01  0.12319049262E+02  0.15805649944E+02  0.10000000000E+01 0.  0.
    9000005    1    3    3    0    0 -0.93965142012E+01 -0.29605939100E+01  0.22123889830E+04  0.22124111443E+04  0.10000000000E+01 0.  0.
<mgrwt>
<rscale>  0 0.12499701E+03</rscale>
<asrwt>0</asrwt>
<pdfrwt beam="2">  1        4 0.26990603E-03 0.12499701E+03</pdfrwt>
<pdfrwt beam="1">  1       -4 0.34253108E+00 0.12499701E+03</pdfrwt>
<totfact> 0.71694268E+02</totfact>
</mgrwt>
</event>
<event>
 5    1  0.3276024E-002  0.1250010E+03  0.7818608E-02  0.1235068E+00
          4   -1    0    0  501    0  0.00000000000E+00  0.00000000000E+00  0.27622547821E+02  0.27651727760E+02  0.12700000000E+01 0.  1.
         -4   -1    0    0    0  501 -0.00000000000E+00 -0.00000000000E+00 -0.14131086258E+03  0.14131656939E+03  0.12700000000E+01 0.  1.
         25    2    1    2    0    0  0.00000000000E+00  0.00000000000E+00 -0.11368831476E+03  0.16896829715E+03  0.12500101011E+03 0.  0.
    9000005    1    3    3    0    0  0.49603969413E+02  0.11875806119E+02 -0.10565144033E+03  0.11732355005E+03  0.10000000000E+01 0.  0.
    9000005    1    3    3    0    0 -0.49603969413E+02 -0.11875806119E+02 -0.80368744351E+01  0.51644747102E+02  0.10000000000E+01 0.  0.
<mgrwt>
<rscale>  0 0.12500101E+03</rscale>
<asrwt>0</asrwt>
<pdfrwt beam="1">  1        4 0.42523064E-02 0.12500101E+03</pdfrwt>
<pdfrwt beam="2">  1       -4 0.21742816E-01 0.12500101E+03</pdfrwt>
<totfact> 0.95638924E+03</totfact>
</mgrwt>
</event>
<event>
 5    1  0.3276024E-002  0.1250075E+03  0.7818608E-02  0.1235058E+00
         -4   -1    0    0    0  501 -0.00000000000E+00  0.00000000000E+00  0.20555458861E+03  0.20555851187E+03  0.12700000000E+01 0.  1.
          4   -1    0    0  501    0  0.00000000000E+00 -0.00000000000E+00 -0.18980433556E+02  0.19022874598E+02  0.12700000000E+01 0.  1.
         25    2    1    2    0    0  0.00000000000E+00  0.00000000000E+00  0.18657415506E+03  0.22458138646E+03  0.12500753501E+03 0.  0.
    9000005    1    3    3    0    0  0.33818356351E+02 -0.27360256947E+02  0.12673416301E+02  0.45319756919E+02  0.10000000000E+01 0.  0.
    9000005    1    3    3    0    0 -0.33818356351E+02  0.27360256947E+02  0.17390073876E+03  0.17926162954E+03  0.10000000000E+01 0.  0.
<mgrwt>
<rscale>  0 0.12500754E+03</rscale>
<asrwt>0</asrwt>
<pdfrwt beam="2">  1        4 0.29236329E-02 0.12500754E+03</pdfrwt>
<pdfrwt beam="1">  1       -4 0.31627352E-01 0.12500754E+03</pdfrwt>
<totfact> 0.86134061E+03</totfact>
</mgrwt>
</event>
<event>
 5    1  0.3276024E-002  0.1250190E+03  0.7818608E-02  0.1235040E+00
          4   -1    0    0  501    0  0.00000000000E+00  0.00000000000E+00  0.82683553504E+02  0.82693306380E+02  0.12700000000E+01 0. -1.
         -4   -1    0    0    0  501 -0.00000000000E+00 -0.00000000000E+00 -0.47236687913E+02  0.47253757363E+02  0.12700000000E+01 0. -1.
         25    2    1    2    0    0  0.00000000000E+00  0.00000000000E+00  0.35446865592E+02  0.12994706374E+03  0.12501903493E+03 0.  0.
    9000005    1    3    3    0    0 -0.16069201530E+01  0.50858771515E+02  0.55447913363E+02  0.75263988260E+02  0.10000000000E+01 0.  0.
    9000005    1    3    3    0    0  0.16069201530E+01 -0.50858771515E+02 -0.20001047772E+02  0.54683075484E+02  0.10000000000E+01 0.  0.
<mgrwt>
<rscale>  0 0.12501903E+03</rscale>
<asrwt>0</asrwt>
<pdfrwt beam="1">  1        4 0.12722610E-01 0.12501903E+03</pdfrwt>
<pdfrwt beam="2">  1       -4 0.72692461E-02 0.12501903E+03</pdfrwt>
<totfact> 0.10341196E+04</totfact>
</mgrwt>
</event>
<event>
 5    1  0.3276024E-002  0.1250002E+03  0.7818608E-02  0.1235069E+00
          4   -1    0    0  501    0  0.00000000000E+00  0.00000000000E+00  0.29530270578E+03  0.29530543670E+03  0.12700000000E+01 0.  1.
         -4   -1    0    0    0  501 -0.00000000000E+00 -0.00000000000E+00 -0.13194721680E+02  0.13255699914E+02  0.12700000000E+01 0.  1.
         25    2    1    2    0    0  0.00000000000E+00  0.00000000000E+00  0.28210798410E+03  0.30856113661E+03  0.12500024133E+03 0.  0.
    9000005    1    3    3    0    0 -0.22396005767E+02  0.67719796706E+01  0.28409460353E+03  0.28505821254E+03  0.10000000000E+01 0.  0.
    9000005    1    3    3    0    0  0.22396005767E+02 -0.67719796706E+01 -0.19866194293E+01  0.23502924067E+02  0.10000000000E+01 0.  0.
<mgrwt>
<rscale>  0 0.12500024E+03</rscale>
<asrwt>0</asrwt>
<pdfrwt beam="1">  1        4 0.45436082E-01 0.12500024E+03</pdfrwt>
<pdfrwt beam="2">  1       -4 0.20348581E-02 0.12500024E+03</pdfrwt>
<totfact> 0.74536945E+03</totfact>
</mgrwt>
</event>
<event>
 5    1  0.3276024E-002  0.1250027E+03  0.7818608E-02  0.1235065E+00
         -4   -1    0    0    0  501 -0.00000000000E+00  0.00000000000E+00  0.81110135025E+02  0.81120077070E+02  0.12700000000E+01 0.  1.
          4   -1    0    0  501    0  0.00000000000E+00 -0.00000000000E+00 -0.48140599621E+02  0.48157348679E+02  0.12700000000E+01 0.  1.
         25    2    1    2    0    0  0.00000000000E+00  0.00000000000E+00  0.32969535405E+02  0.12927742575E+03  0.12500265015E+03 0.  0.
    9000005    1    3    3    0    0 -0.33986955988E+01  0.32623501510E+02  0.71497576981E+02  0.78668592823E+02  0.10000000000E+01 0.  0.
    9000005    1    3    3    0    0  0.33986955988E+01 -0.32623501510E+02 -0.38528041576E+02  0.50608832927E+02  0.10000000000E+01 0.  0.
<mgrwt>
<rscale>  0 0.12500265E+03</rscale>
<asrwt>0</asrwt>
<pdfrwt beam="2">  1        4 0.74082993E-02 0.12500265E+03</pdfrwt>
<pdfrwt beam="1">  1       -4 0.12480535E-01 0.12500265E+03</pdfrwt>
<totfact> 0.10359370E+04</totfact>
</mgrwt>
</event>
<event>
 5    1  0.3276024E-002  0.1249985E+03  0.7818608E-02  0.1235072E+00
         -4   -1    0    0    0  501 -0.00000000000E+00  0.00000000000E+00  0.11990941565E+02  0.12058008940E+02  0.12700000000E+01 0.  1.
          4   -1    0    0  501    0  0.00000000000E+00 -0.00000000000E+00 -0.32478237313E+03  0.32478485617E+03  0.12700000000E+01 0.  1.
         25    2    1    2    0    0  0.00000000000E+00  0.00000000000E+00 -0.31279143157E+03  0.33684286511E+03  0.12499854445E+03 0.  0.
    9000005    1    3    3    0    0  0.62136288010E+02 -0.27224802016E+01 -0.14004200059E+03  0.15323541404E+03  0.10000000000E+01 0.  0.
    9000005    1    3    3    0    0 -0.62136288010E+02  0.27224802016E+01 -0.17274943098E+03  0.18360745107E+03  0.10000000000E+01 0.  0.
<mgrwt>
<rscale>  0 0.12499854E+03</rscale>
<asrwt>0</asrwt>
<pdfrwt beam="2">  1        4 0.49971862E-01 0.12499854E+03</pdfrwt>
<pdfrwt beam="1">  1       -4 0.18501105E-02 0.12499854E+03</pdfrwt>
<totfact> 0.71198973E+03</totfact>
</mgrwt>
</event>
<event>
 5    1  0.3276024E-002  0.1250005E+03  0.7818608E-02  0.1235068E+00
          4   -1    0    0  501    0  0.00000000000E+00  0.00000000000E+00  0.44112218744E+02  0.44130496740E+02  0.12700000000E+01 0.  1.
         -4   -1    0    0    0  501 -0.00000000000E+00 -0.00000000000E+00 -0.88512151302E+02  0.88521262011E+02  0.12700000000E+01 0.  1.
         25    2    1    2    0    0  0.00000000000E+00  0.00000000000E+00 -0.44399932558E+02  0.13265175875E+03  0.12500054035E+03 0.  0.
    9000005    1    3    3    0    0  0.62017816650E+02 -0.87888425591E+00 -0.14097039264E+02  0.63613744863E+02  0.10000000000E+01 0.  0.
    9000005    1    3    3    0    0 -0.62017816650E+02  0.87888425591E+00 -0.30302893294E+02  0.69038013887E+02  0.10000000000E+01 0.  0.
<mgrwt>
<rscale>  0 0.12500054E+03</rscale>
<asrwt>0</asrwt>
<pdfrwt beam="1">  1        4 0.67886020E-02 0.12500054E+03</pdfrwt>
<pdfrwt beam="2">  1       -4 0.13619361E-01 0.12500054E+03</pdfrwt>
<totfact> 0.10287681E+04</totfact>
</mgrwt>
</event>
<event>
 5    1  0.3276024E-002  0.1250169E+03  0.7818608E-02  0.1235043E+00
         -4   -1    0    0    0  501 -0.00000000000E+00  0.00000000000E+00  0.98075051882E+01  0.98893911854E+01  0.12700000000E+01 0.  1.
          4   -1    0    0  501    0  0.00000000000E+00 -0.00000000000E+00 -0.39666025199E+03  0.39666228508E+03  0.12700000000E+01 0.  1.
         25    2    1    2    0    0  0.00000000000E+00  0.00000000000E+00 -0.38685274680E+03  0.40655167627E+03  0.12501686994E+03 0.  0.
    9000005    1    3    3    0    0 -0.41446149477E+02 -0.46778865748E+02 -0.19177183946E+03  0.20170147247E+03  0.10000000000E+01 0.  0.
    9000005    1    3    3    0    0  0.41446149477E+02  0.46778865748E+02 -0.19508090733E+03  0.20485020379E+03  0.10000000000E+01 0.  0.
<mgrwt>
<rscale>  0 0.12501687E+03</rscale>
<asrwt>0</asrwt>
<pdfrwt beam="2">  1        4 0.61031097E-01 0.12501687E+03</pdfrwt>
<pdfrwt beam="1">  1       -4 0.15153026E-02 0.12501687E+03</pdfrwt>
<totfact> 0.63896742E+03</totfact>
</mgrwt>
</event>
<event>
 5    1  0.3276024E-002  0.1250112E+03  0.7818608E-02  0.1235052E+00
          4   -1    0    0  501    0  0.00000000000E+00  0.00000000000E+00  0.52278152319E+02  0.52293576182E+02  0.12700000000E+01 0. -1.
         -4   -1    0    0    0  501 -0.00000000000E+00 -0.00000000000E+00 -0.74702059026E+02  0.74712853799E+02  0.12700000000E+01 0. -1.
         25    2    1    2    0    0  0.00000000000E+00  0.00000000000E+00 -0.22423906707E+02  0.12700642998E+03  0.12501120616E+03 0.  0.
    9000005    1    3    3    0    0  0.17563355404E+02 -0.36634442302E+02 -0.59460943051E+02  0.72021924192E+02  0.10000000000E+01 0.  0.
    9000005    1    3    3    0    0 -0.17563355404E+02  0.36634442302E+02  0.37037036344E+02  0.54984505790E+02  0.10000000000E+01 0.  0.
<mgrwt>
<rscale>  0 0.12501121E+03</rscale>
<asrwt>0</asrwt>
<pdfrwt beam="1">  1        4 0.80448095E-02 0.12501121E+03</pdfrwt>
<pdfrwt beam="2">  1       -4 0.11494641E-01 0.12501121E+03</pdfrwt>
<totfact> 0.10406373E+04</totfact>
</mgrwt>
</event>
<event>
 5    1  0.3276024E-002  0.1250004E+03  0.7818608E-02  0.1235069E+00
          4   -1    0    0  501    0  0.00000000000E+00  0.00000000000E+00  0.12631126738E+02  0.12694812432E+02  0.12700000000E+01 0. -1.
         -4   -1    0    0    0  501 -0.00000000000E+00 -0.00000000000E+00 -0.30841516082E+03  0.30841777563E+03  0.12700000000E+01 0. -1.
         25    2    1    2    0    0  0.00000000000E+00  0.00000000000E+00 -0.29578403409E+03  0.32111258806E+03  0.12500039757E+03 0.  0.
    9000005    1    3    3    0    0  0.42954704519E+02  0.45340472188E+02 -0.15328656273E+03  0.16552533151E+03  0.10000000000E+01 0.  0.
    9000005    1    3    3    0    0 -0.42954704519E+02 -0.45340472188E+02 -0.14249747135E+03  0.15558725655E+03  0.10000000000E+01 0.  0.
<mgrwt>
<rscale>  0 0.12500040E+03</rscale>
<asrwt>0</asrwt>
<pdfrwt beam="1">  1        4 0.19483505E-02 0.12500040E+03</pdfrwt>
<pdfrwt beam="2">  1       -4 0.47453581E-01 0.12500040E+03</pdfrwt>
<totfact> 0.73023351E+03</totfact>
</mgrwt>
</event>
<event>
 5    1  0.3276024E-002  0.1249450E+03  0.7818608E-02  0.1235155E+00
         -4   -1    0    0    0  501 -0.00000000000E+00  0.00000000000E+00  0.69924689156E+03  0.69924804487E+03  0.12700000000E+01 0.  1.
          4   -1    0    0  501    0  0.00000000000E+00 -0.00000000000E+00 -0.55080375006E+01  0.56525549187E+01  0.12700000000E+01 0.  1.
         25    2    1    2    0    0  0.00000000000E+00  0.00000000000E+00  0.69373885406E+03  0.70490059979E+03  0.12494501972E+03 0.  0.
    9000005    1    3    3    0    0  0.63525695060E+00  0.15365992349E+02  0.68842669310E+03  0.68859917880E+03  0.10000000000E+01 0.  0.
    9000005    1    3    3    0    0 -0.63525695060E+00 -0.15365992349E+02  0.53121609614E+01  0.16301420991E+02  0.10000000000E+01 0.  0.
<mgrwt>
<rscale>  0 0.12494502E+03</rscale>
<asrwt>0</asrwt>
<pdfrwt beam="2">  1        4 0.85859581E-03 0.12494502E+03</pdfrwt>
<pdfrwt beam="1">  1       -4 0.10758765E+00 0.12494502E+03</pdfrwt>
<totfact> 0.42880813E+03</totfact>
</mgrwt>
</event>
<event>
 5    1  0.3276024E-002  0.1250023E+03  0.7818608E-02  0.1235066E+00
          4   -1    0    0  501    0  0.00000000000E+00  0.00000000000E+00  0.96666164120E+02  0.96674506389E+02  0.12700000000E+01 0.  1.
         -4   -1    0    0    0  501 -0.00000000000E+00 -0.00000000000E+00 -0.40391102889E+02  0.40411063988E+02  0.12700000000E+01 0.  1.
         25    2    1    2    0    0  0.00000000000E+00  0.00000000000E+00  0.56275061230E+02  0.13708557038E+03  0.12500228434E+03 0.  0.
    9000005    1    3    3    0    0  0.10753909680E+02  0.40444282468E+02 -0.22760065341E+02  0.47648789409E+02  0.10000000000E+01 0.  0.
    9000005    1    3    3    0    0 -0.10753909680E+02 -0.40444282468E+02  0.79035126572E+02  0.89436780968E+02  0.10000000000E+01 0.  0.
<mgrwt>
<rscale>  0 0.12500228E+03</rscale>
<asrwt>0</asrwt>
<pdfrwt beam="1">  1        4 0.14873895E-01 0.12500228E+03</pdfrwt>
<pdfrwt beam="2">  1       -4 0.62161930E-02 0.12500228E+03</pdfrwt>
<totfact> 0.10193772E+04</totfact>
</mgrwt>
</event>
<event>
 5    1  0.3276024E-002  0.1250022E+03  0.7818608E-02  0.1235066E+00
          4   -1    0    0  501    0  0.00000000000E+00  0.00000000000E+00  0.22636236097E+02  0.22671834612E+02  0.12700000000E+01 0. -1.
         -4   -1    0    0    0  501 -0.00000000000E+00 -0.00000000000E+00 -0.17239871334E+03  0.17240339110E+03  0.12700000000E+01 0. -1.
         25    2    1    2    0    0  0.00000000000E+00  0.00000000000E+00 -0.14976247724E+03  0.19507522571E+03  0.12500217636E+03 0.  0.
    9000005    1    3    3    0    0  0.20320192480E+02  0.84933943773E+01 -0.16614934917E+03  0.16760565086E+03  0.10000000000E+01 0.  0.
    9000005    1    3    3    0    0 -0.20320192480E+02 -0.84933943773E+01  0.16386871931E+02  0.27469574845E+02  0.10000000000E+01 0.  0.
<mgrwt>
<rscale>  0 0.12500218E+03</rscale>
<asrwt>0</asrwt>
<pdfrwt beam="1">  1        4 0.34855961E-02 0.12500218E+03</pdfrwt>
<pdfrwt beam="2">  1       -4 0.26525976E-01 0.12500218E+03</pdfrwt>
<totfact> 0.90967232E+03</totfact>
</mgrwt>
</event>
<event>
 5    1  0.3276024E-002  0.1249974E+03  0.7818608E-02  0.1235073E+00
         -4   -1    0    0    0  501 -0.00000000000E+00  0.00000000000E+00  0.50973428642E+02  0.50989247175E+02  0.12700000000E+01 0.  1.
          4   -1    0    0  501    0  0.00000000000E+00 -0.00000000000E+00 -0.76596876016E+02  0.76607403790E+02  0.12700000000E+01 0.  1.
         25    2    1    2    0    0  0.00000000000E+00  0.00000000000E+00 -0.25623447375E+02  0.12759665097E+03  0.12499737710E+03 0.  0.
    9000005    1    3    3    0    0  0.54310353286E+02  0.29136253199E+02 -0.22747521303E+01  0.61682333142E+02  0.10000000000E+01 0.  0.
    9000005    1    3    3    0    0 -0.54310353286E+02 -0.29136253199E+02 -0.23348695245E+02  0.65914317824E+02  0.10000000000E+01 0.  0.
<mgrwt>
<rscale>  0 0.12499738E+03</rscale>
<asrwt>0</asrwt>
<pdfrwt beam="2">  1        4 0.11786161E-01 0.12499738E+03</pdfrwt>
<pdfrwt beam="1">  1       -4 0.78440926E-02 0.12499738E+03</pdfrwt>
<totfact> 0.10396824E+04</totfact>
</mgrwt>
</event>
<event>
 5    1  0.3276024E-002  0.1249503E+03  0.7818608E-02  0.1235147E+00
         -4   -1    0    0    0  501 -0.00000000000E+00  0.00000000000E+00  0.12207361943E+04  0.12207368549E+04  0.12700000000E+01 0. -1.
          4   -1    0    0  501    0  0.00000000000E+00 -0.00000000000E+00 -0.30705716263E+01  0.33228466881E+01  0.12700000000E+01 0. -1.
         25    2    1    2    0    0  0.00000000000E+00  0.00000000000E+00  0.12176656227E+04  0.12240597016E+04  0.12495032802E+03 0.  0.
    9000005    1    3    3    0    0  0.55102594913E+02 -0.24182032492E+02  0.44459250269E+03  0.44864747866E+03  0.10000000000E+01 0.  0.
    9000005    1    3    3    0    0 -0.55102594913E+02  0.24182032492E+02  0.77307311997E+03  0.77541222293E+03  0.10000000000E+01 0.  0.
<mgrwt>
<rscale>  0 0.12495033E+03</rscale>
<asrwt>0</asrwt>
<pdfrwt beam="2">  1        4 0.49185170E-03 0.12495033E+03</pdfrwt>
<pdfrwt beam="1">  1       -4 0.18782522E+00 0.12495033E+03</pdfrwt>
<totfact> 0.24117632E+03</totfact>
</mgrwt>
</event>
<event>
 5    1  0.3276024E-002  0.1250012E+03  0.7818608E-02  0.1235067E+00
         -4   -1    0    0    0  501 -0.00000000000E+00  0.00000000000E+00  0.13466400656E+03  0.13466999503E+03  0.12700000000E+01 0. -1.
          4   -1    0    0  501    0  0.00000000000E+00 -0.00000000000E+00 -0.28987410857E+02  0.29015218217E+02  0.12700000000E+01 0. -1.
         25    2    1    2    0    0  0.00000000000E+00  0.00000000000E+00  0.10567659570E+03  0.16368521325E+03  0.12500122463E+03 0.  0.
    9000005    1    3    3    0    0  0.58513820328E+02 -0.28043352224E+01  0.81335273353E+02  0.10024050158E+03  0.10000000000E+01 0.  0.
    9000005    1    3    3    0    0 -0.58513820328E+02  0.28043352224E+01  0.24341322348E+02  0.63444711671E+02  0.10000000000E+01 0.  0.
<mgrwt>
<rscale>  0 0.12500122E+03</rscale>
<asrwt>0</asrwt>
<pdfrwt beam="2">  1        4 0.44622014E-02 0.12500122E+03</pdfrwt>
<pdfrwt beam="1">  1       -4 0.20720139E-01 0.12500122E+03</pdfrwt>
<totfact> 0.96634314E+03</totfact>
</mgrwt>
</event>
<event>
 5    1  0.3276024E-002  0.1249958E+03  0.7818608E-02  0.1235076E+00
          4   -1    0    0  501    0  0.00000000000E+00  0.00000000000E+00  0.12546581015E+03  0.12547223764E+03  0.12700000000E+01 0.  1.
         -4   -1    0    0    0  501 -0.00000000000E+00 -0.00000000000E+00 -0.31111730338E+02  0.31137640640E+02  0.12700000000E+01 0.  1.
         25    2    1    2    0    0  0.00000000000E+00  0.00000000000E+00  0.94354079814E+02  0.15660987828E+03  0.12499584632E+03 0.  0.
    9000005    1    3    3    0    0  0.22851579746E+02 -0.12572000935E+01  0.12003214244E+03  0.12219856983E+03  0.10000000000E+01 0.  0.
    9000005    1    3    3    0    0 -0.22851579746E+02  0.12572000935E+01 -0.25678062626E+02  0.34411308449E+02  0.10000000000E+01 0.  0.
<mgrwt>
<rscale>  0 0.12499585E+03</rscale>
<asrwt>0</asrwt>
<pdfrwt beam="1">  1        4 0.19304920E-01 0.12499585E+03</pdfrwt>
<pdfrwt beam="2">  1       -4 0.47889076E-02 0.12499585E+03</pdfrwt>
<totfact> 0.98009537E+03</totfact>
</mgrwt>
</event>
<event>
 5    1  0.3276024E-002  0.1250020E+03  0.7818608E-02  0.1235066E+00
          4   -1    0    0  501    0  0.00000000000E+00  0.00000000000E+00  0.59151188885E+03  0.59151325222E+03  0.12700000000E+01 0.  1.
         -4   -1    0    0    0  501 -0.00000000000E+00 -0.00000000000E+00 -0.65416058255E+01  0.66637457017E+01  0.12700000000E+01 0.  1.
         25    2    1    2    0    0  0.00000000000E+00  0.00000000000E+00  0.58497028303E+03  0.59817699793E+03  0.12500195526E+03 0.  0.
    9000005    1    3    3    0    0 -0.22182863700E+02  0.50422689352E+02  0.15126931436E+03  0.16099047336E+03  0.10000000000E+01 0.  0.
    9000005    1    3    3    0    0  0.22182863700E+02 -0.50422689352E+02  0.43370096867E+03  0.43718652457E+03  0.10000000000E+01 0.  0.
<mgrwt>
<rscale>  0 0.12500196E+03</rscale>
<asrwt>0</asrwt>
<pdfrwt beam="1">  1        4 0.91011368E-01 0.12500196E+03</pdfrwt>
<pdfrwt beam="2">  1       -4 0.10159007E-02 0.12500196E+03</pdfrwt>
<totfact> 0.48980770E+03</totfact>
</mgrwt>
</event>
<event>
 5    1  0.3276024E-002  0.1250023E+03  0.7818608E-02  0.1235066E+00
          4   -1    0    0  501    0  0.00000000000E+00  0.00000000000E+00  0.62828300676E+03  0.62828429033E+03  0.12700000000E+01 0. -1.
         -4   -1    0    0    0  501 -0.00000000000E+00 -0.00000000000E+00 -0.61514123194E+01  0.62811442845E+01  0.12700000000E+01 0. -1.
         25    2    1    2    0    0  0.00000000000E+00  0.00000000000E+00  0.62213159444E+03  0.63456543462E+03  0.12500228004E+03 0.  0.
    9000005    1    3    3    0    0  0.54129744650E+02 -0.60966590262E+00  0.15255498022E+03  0.16187780248E+03  0.10000000000E+01 0.  0.
    9000005    1    3    3    0    0 -0.54129744650E+02  0.60966590262E+00  0.46957661422E+03  0.47268763213E+03  0.10000000000E+01 0.  0.
<mgrwt>
<rscale>  0 0.12500228E+03</rscale>
<asrwt>0</asrwt>
<pdfrwt beam="1">  1        4 0.96669024E-01 0.12500228E+03</pdfrwt>
<pdfrwt beam="2">  1       -4 0.95644903E-03 0.12500228E+03</pdfrwt>
<totfact> 0.46753644E+03</totfact>
</mgrwt>
</event>
<event>
 5    1  0.3276024E-002  0.1249999E+03  0.7818608E-02  0.1235069E+00
          4   -1    0    0  501    0  0.00000000000E+00  0.00000000000E+00  0.92567716145E+02  0.92576427735E+02  0.12700000000E+01 0. -1.
         -4   -1    0    0    0  501 -0.00000000000E+00 -0.00000000000E+00 -0.42178514554E+02  0.42197630147E+02  0.12700000000E+01 0. -1.
         25    2    1    2    0    0  0.00000000000E+00  0.00000000000E+00  0.50389201591E+02  0.13477405788E+03  0.12499990016E+03 0.  0.
    9000005    1    3    3    0    0 -0.61477848285E+02 -0.16121358319E+01  0.13231077836E+02  0.62914117911E+02  0.10000000000E+01 0.  0.
    9000005    1    3    3    0    0  0.61477848285E+02  0.16121358319E+01  0.37158123754E+02  0.71859939971E+02  0.10000000000E+01 0.  0.
<mgrwt>
<rscale>  0 0.12499990E+03</rscale>
<asrwt>0</asrwt>
<pdfrwt beam="1">  1        4 0.14243328E-01 0.12499990E+03</pdfrwt>
<pdfrwt beam="2">  1       -4 0.64911428E-02 0.12499990E+03</pdfrwt>
<totfact> 0.10242858E+04</totfact>
</mgrwt>
</event>
<event>
 5    1  0.3276024E-002  0.1250005E+03  0.7818608E-02  0.1235068E+00
         -4   -1    0    0    0  501 -0.00000000000E+00  0.00000000000E+00  0.22255558719E+02  0.22291765158E+02  0.12700000000E+01 0. -1.
          4   -1    0    0  501    0  0.00000000000E+00 -0.00000000000E+00 -0.17533827011E+03  0.17534286944E+03  0.12700000000E+01 0. -1.
         25    2    1    2    0    0  0.00000000000E+00  0.00000000000E+00 -0.15308271139E+03  0.19763463460E+03  0.12500052907E+03 0.  0.
    9000005    1    3    3    0    0  0.42274820239E+02  0.21884738229E+02 -0.14055383418E+03  0.14839973887E+03  0.10000000000E+01 0.  0.
    9000005    1    3    3    0    0 -0.42274820239E+02 -0.21884738229E+02 -0.12528877208E+02  0.49234895732E+02  0.10000000000E+01 0.  0.
<mgrwt>
<rscale>  0 0.12500053E+03</rscale>
<asrwt>0</asrwt>
<pdfrwt beam="2">  1        4 0.26978256E-01 0.12500053E+03</pdfrwt>
<pdfrwt beam="1">  1       -4 0.34270711E-02 0.12500053E+03</pdfrwt>
<totfact> 0.90534549E+03</totfact>
</mgrwt>
</event>
<event>
 5    1  0.3276024E-002  0.1250031E+03  0.7818608E-02  0.1235064E+00
          4   -1    0    0  501    0  0.00000000000E+00  0.00000000000E+00  0.28325515991E+02  0.28353972493E+02  0.12700000000E+01 0.  1.
         -4   -1    0    0    0  501 -0.00000000000E+00 -0.00000000000E+00 -0.13781190282E+03  0.13781775451E+03  0.12700000000E+01 0.  1.
         25    2    1    2    0    0  0.00000000000E+00  0.00000000000E+00 -0.10948638683E+03  0.16617172701E+03  0.12500309578E+03 0.  0.
    9000005    1    3    3    0    0  0.57642535131E+02  0.20632921914E+01 -0.86717212272E+02  0.10415274329E+03  0.10000000000E+01 0.  0.
    9000005    1    3    3    0    0 -0.57642535131E+02 -0.20632921914E+01 -0.22769174559E+02  0.62018983716E+02  0.10000000000E+01 0.  0.
<mgrwt>
<rscale>  0 0.12500310E+03</rscale>
<asrwt>0</asrwt>
<pdfrwt beam="1">  1        4 0.43604109E-02 0.12500310E+03</pdfrwt>
<pdfrwt beam="2">  1       -4 0.21204470E-01 0.12500310E+03</pdfrwt>
<totfact> 0.96159258E+03</totfact>
</mgrwt>
</event>
<event>
 5    1  0.3276024E-002  0.1250093E+03  0.7818608E-02  0.1235055E+00
         -4   -1    0    0    0  501 -0.00000000000E+00  0.00000000000E+00  0.30925844372E+02  0.30951910282E+02  0.12700000000E+01 0.  1.
          4   -1    0    0  501    0  0.00000000000E+00 -0.00000000000E+00 -0.12624647916E+03  0.12625286690E+03  0.12700000000E+01 0.  1.
         25    2    1    2    0    0  0.00000000000E+00  0.00000000000E+00 -0.95320634789E+02  0.15720477718E+03  0.12500927387E+03 0.  0.
    9000005    1    3    3    0    0 -0.32114019750E+02  0.36822190998E+02  0.13459616196E+01  0.48887581522E+02  0.10000000000E+01 0.  0.
    9000005    1    3    3    0    0  0.32114019750E+02 -0.36822190998E+02 -0.96666596408E+02  0.10831719566E+03  0.10000000000E+01 0.  0.
<mgrwt>
<rscale>  0 0.12500927E+03</rscale>
<asrwt>0</asrwt>
<pdfrwt beam="2">  1        4 0.19425031E-01 0.12500927E+03</pdfrwt>
<pdfrwt beam="1">  1       -4 0.47603187E-02 0.12500927E+03</pdfrwt>
<totfact> 0.97863997E+03</totfact>
</mgrwt>
</event>
<event>
 5    1  0.3276024E-002  0.1249964E+03  0.7818608E-02  0.1235075E+00
         -4   -1    0    0    0  501 -0.00000000000E+00  0.00000000000E+00  0.89688561706E+01  0.90583266119E+01  0.12700000000E+01 0. -1.
          4   -1    0    0  501    0  0.00000000000E+00 -0.00000000000E+00 -0.43325807426E+03  0.43325993562E+03  0.12700000000E+01 0. -1.
         25    2    1    2    0    0  0.00000000000E+00  0.00000000000E+00 -0.42428921809E+03  0.44231826223E+03  0.12499641801E+03 0.  0.
    9000005    1    3    3    0    0  0.71170721966E+01 -0.14186301677E+02 -0.42602423029E+03  0.42632094561E+03  0.10000000000E+01 0.  0.
    9000005    1    3    3    0    0 -0.71170721966E+01  0.14186301677E+02  0.17350121941E+01  0.15997316626E+02  0.10000000000E+01 0.  0.
<mgrwt>
<rscale>  0 0.12499642E+03</rscale>
<asrwt>0</asrwt>
<pdfrwt beam="2">  1        4 0.66662098E-01 0.12499642E+03</pdfrwt>
<pdfrwt beam="1">  1       -4 0.13868499E-02 0.12499642E+03</pdfrwt>
<totfact> 0.60639863E+03</totfact>
</mgrwt>
</event>
<event>
 5    1  0.3276024E-002  0.1249985E+03  0.7818608E-02  0.1235072E+00
          4   -1    0    0  501    0  0.00000000000E+00  0.00000000000E+00  0.68477666252E+01  0.69645393066E+01  0.12700000000E+01 0. -1.
         -4   -1    0    0    0  501 -0.00000000000E+00 -0.00000000000E+00 -0.56548757586E+03  0.56548900197E+03  0.12700000000E+01 0. -1.
         25    2    1    2    0    0  0.00000000000E+00  0.00000000000E+00 -0.55863980923E+03  0.57245354128E+03  0.12499848184E+03 0.  0.
    9000005    1    3    3    0    0  0.52746545315E+02 -0.22219539708E+02 -0.16443927182E+03  0.17411829343E+03  0.10000000000E+01 0.  0.
    9000005    1    3    3    0    0 -0.52746545315E+02  0.22219539708E+02 -0.39420053741E+03  0.39833524785E+03  0.10000000000E+01 0.  0.
<mgrwt>
<rscale>  0 0.12499848E+03</rscale>
<asrwt>0</asrwt>
<pdfrwt beam="1">  1        4 0.10625952E-02 0.12499848E+03</pdfrwt>
<pdfrwt beam="2">  1       -4 0.87007144E-01 0.12499848E+03</pdfrwt>
<totfact> 0.50655608E+03</totfact>
</mgrwt>
</event>
<event>
 5    1  0.3276024E-002  0.1250044E+03  0.7818608E-02  0.1235062E+00
          4   -1    0    0  501    0  0.00000000000E+00  0.00000000000E+00  0.16739171986E+02  0.16787280267E+02  0.12700000000E+01 0. -1.
         -4   -1    0    0    0  501 -0.00000000000E+00 -0.00000000000E+00 -0.23299167889E+03  0.23299514015E+03  0.12700000000E+01 0. -1.
         25    2    1    2    0    0  0.00000000000E+00  0.00000000000E+00 -0.21625250690E+03  0.24978242041E+03  0.12500444314E+03 0.  0.
    9000005    1    3    3    0    0 -0.27802322454E+02 -0.42443477574E+02 -0.18102891045E+03  0.18800767097E+03  0.10000000000E+01 0.  0.
    9000005    1    3    3    0    0  0.27802322454E+02  0.42443477574E+02 -0.35223596452E+02  0.61774749448E+02  0.10000000000E+01 0.  0.
<mgrwt>
<rscale>  0 0.12500444E+03</rscale>
<asrwt>0</asrwt>
<pdfrwt beam="1">  1        4 0.25792243E-02 0.12500444E+03</pdfrwt>
<pdfrwt beam="2">  1       -4 0.35848838E-01 0.12500444E+03</pdfrwt>
<totfact> 0.82353535E+03</totfact>
</mgrwt>
</event>
<event>
 5    1  0.3276024E-002  0.1250014E+03  0.7818608E-02  0.1235067E+00
         -4   -1    0    0    0  501 -0.00000000000E+00  0.00000000000E+00  0.64924719592E+03  0.64924843805E+03  0.12700000000E+01 0.  1.
          4   -1    0    0  501    0  0.00000000000E+00 -0.00000000000E+00 -0.59484423323E+01  0.60825049265E+01  0.12700000000E+01 0.  1.
         25    2    1    2    0    0  0.00000000000E+00  0.00000000000E+00  0.64329875359E+03  0.65533094298E+03  0.12500143381E+03 0.  0.
    9000005    1    3    3    0    0 -0.33662156371E+02  0.30751296804E+02  0.97590452937E+02  0.10772037658E+03  0.10000000000E+01 0.  0.
    9000005    1    3    3    0    0  0.33662156371E+02 -0.30751296804E+02  0.54570830065E+03  0.54761056640E+03  0.10000000000E+01 0.  0.
<mgrwt>
<rscale>  0 0.12500143E+03</rscale>
<asrwt>0</asrwt>
<pdfrwt beam="2">  1        4 0.92555299E-03 0.12500143E+03</pdfrwt>
<pdfrwt beam="1">  1       -4 0.99894597E-01 0.12500143E+03</pdfrwt>
<totfact> 0.45549726E+03</totfact>
</mgrwt>
</event>
<event>
 5    1  0.3276024E-002  0.1249965E+03  0.7818608E-02  0.1235075E+00
          4   -1    0    0  501    0  0.00000000000E+00  0.00000000000E+00  0.32433503437E+03  0.32433752083E+03  0.12700000000E+01 0.  1.
         -4   -1    0    0    0  501 -0.00000000000E+00 -0.00000000000E+00 -0.12007175998E+02  0.12074153198E+02  0.12700000000E+01 0.  1.
         25    2    1    2    0    0  0.00000000000E+00  0.00000000000E+00  0.31232785837E+03  0.33641167403E+03  0.12499649318E+03 0.  0.
    9000005    1    3    3    0    0  0.43054684596E+02  0.20017423437E+02  0.26550864403E+03  0.26972252995E+03  0.10000000000E+01 0.  0.
    9000005    1    3    3    0    0 -0.43054684596E+02 -0.20017423437E+02  0.46819214339E+02  0.66689144080E+02  0.10000000000E+01 0.  0.
<mgrwt>
<rscale>  0 0.12499649E+03</rscale>
<asrwt>0</asrwt>
<pdfrwt beam="1">  1        4 0.49903031E-01 0.12499649E+03</pdfrwt>
<pdfrwt beam="2">  1       -4 0.18526016E-02 0.12499649E+03</pdfrwt>
<totfact> 0.71251309E+03</totfact>
</mgrwt>
</event>
<event>
 5    1  0.3276024E-002  0.1250018E+03  0.7818608E-02  0.1235066E+00
         -4   -1    0    0    0  501 -0.00000000000E+00  0.00000000000E+00  0.10017718480E+02  0.10097899957E+02  0.12700000000E+01 0.  1.
          4   -1    0    0  501    0  0.00000000000E+00 -0.00000000000E+00 -0.38830971547E+03  0.38831179229E+03  0.12700000000E+01 0.  1.
         25    2    1    2    0    0  0.00000000000E+00  0.00000000000E+00 -0.37829199699E+03  0.39840969224E+03  0.12500179153E+03 0.  0.
    9000005    1    3    3    0    0 -0.22387520926E+02 -0.10090672065E+02 -0.59885863690E+01  0.25295966529E+02  0.10000000000E+01 0.  0.
    9000005    1    3    3    0    0  0.22387520926E+02  0.10090672065E+02 -0.37230341062E+03  0.37311372571E+03  0.10000000000E+01 0.  0.
<mgrwt>
<rscale>  0 0.12500179E+03</rscale>
<asrwt>0</asrwt>
<pdfrwt beam="2">  1        4 0.59746272E-01 0.12500179E+03</pdfrwt>
<pdfrwt beam="1">  1       -4 0.15475153E-02 0.12500179E+03</pdfrwt>
<totfact> 0.64705201E+03</totfact>
</mgrwt>
</event>
<event>
 5    1  0.3276024E-002  0.1250049E+03  0.7818608E-02  0.1235062E+00
          4   -1    0    0  501    0  0.00000000000E+00  0.00000000000E+00  0.56231910302E+01  0.57648224051E+01  0.12700000000E+01 0. -1.
         -4   -1    0    0    0  501 -0.00000000000E+00 -0.00000000000E+00 -0.68593951358E+03  0.68594068927E+03  0.12700000000E+01 0. -1.
         25    2    1    2    0    0  0.00000000000E+00  0.00000000000E+00 -0.68031632255E+03  0.69170551167E+03  0.12500486450E+03 0.  0.
    9000005    1    3    3    0    0 -0.31004544899E+02  0.54077474808E+02 -0.31547450935E+03  0.32157552944E+03  0.10000000000E+01 0.  0.
    9000005    1    3    3    0    0  0.31004544899E+02 -0.54077474808E+02 -0.36484181320E+03  0.37012998223E+03  0.10000000000E+01 0.  0.
<mgrwt>
<rscale>  0 0.12500486E+03</rscale>
<asrwt>0</asrwt>
<pdfrwt beam="1">  1        4 0.87609201E-03 0.12500486E+03</pdfrwt>
<pdfrwt beam="2">  1       -4 0.10554008E+00 0.12500486E+03</pdfrwt>
<totfact> 0.43523564E+03</totfact>
</mgrwt>
</event>
<event>
 5    1  0.3276024E-002  0.1249984E+03  0.7818608E-02  0.1235072E+00
         -4   -1    0    0    0  501 -0.00000000000E+00  0.00000000000E+00  0.43900480488E+02  0.43918846605E+02  0.12700000000E+01 0.  1.
          4   -1    0    0  501    0  0.00000000000E+00 -0.00000000000E+00 -0.88935870961E+02  0.88944938269E+02  0.12700000000E+01 0.  1.
         25    2    1    2    0    0  0.00000000000E+00  0.00000000000E+00 -0.45035390473E+02  0.13286378487E+03  0.12499839573E+03 0.  0.
    9000005    1    3    3    0    0 -0.43722291843E+02 -0.44609162965E+02 -0.20519650006E+02  0.65754636801E+02  0.10000000000E+01 0.  0.
    9000005    1    3    3    0    0  0.43722291843E+02  0.44609162965E+02 -0.24515740467E+02  0.67109148073E+02  0.10000000000E+01 0.  0.
<mgrwt>
<rscale>  0 0.12499840E+03</rscale>
<asrwt>0</asrwt>
<pdfrwt beam="2">  1        4 0.13684552E-01 0.12499840E+03</pdfrwt>
<pdfrwt beam="1">  1       -4 0.67560303E-02 0.12499840E+03</pdfrwt>
<totfact> 0.10283668E+04</totfact>
</mgrwt>
</event>
<event>
 5    1  0.3276024E-002  0.1249977E+03  0.7818608E-02  0.1235073E+00
          4   -1    0    0  501    0  0.00000000000E+00  0.00000000000E+00  0.18080834768E+04  0.18080839229E+04  0.12700000000E+01 0. -1.
         -4   -1    0    0    0  501 -0.00000000000E+00 -0.00000000000E+00 -0.19732238774E+01  0.23465959325E+01  0.12700000000E+01 0. -1.
         25    2    1    2    0    0  0.00000000000E+00  0.00000000000E+00  0.18061102530E+04  0.18104305188E+04  0.12499767012E+03 0.  0.
    9000005    1    3    3    0    0 -0.58775453936E+02  0.18822676606E+02  0.76095428319E+03  0.76345351414E+03  0.10000000000E+01 0.  0.
    9000005    1    3    3    0    0  0.58775453936E+02 -0.18822676606E+02  0.10451559698E+04  0.10469770047E+04  0.10000000000E+01 0.  0.
<mgrwt>
<rscale>  0 0.12499767E+03</rscale>
<asrwt>0</asrwt>
<pdfrwt beam="1">  1        4 0.27819514E+00 0.12499767E+03</pdfrwt>
<pdfrwt beam="2">  1       -4 0.33232851E-03 0.12499767E+03</pdfrwt>
<totfact> 0.12544151E+03</totfact>
</mgrwt>
</event>
<event>
 5    1  0.3276024E-002  0.1249968E+03  0.7818608E-02  0.1235074E+00
          4   -1    0    0  501    0  0.00000000000E+00  0.00000000000E+00  0.71391629286E+01  0.72512445360E+01  0.12700000000E+01 0. -1.
         -4   -1    0    0    0  501 -0.00000000000E+00 -0.00000000000E+00 -0.54275583215E+03  0.54275731799E+03  0.12700000000E+01 0. -1.
         25    2    1    2    0    0  0.00000000000E+00  0.00000000000E+00 -0.53561666922E+03  0.55000856253E+03  0.12499680998E+03 0.  0.
    9000005    1    3    3    0    0 -0.15290115002E+02  0.37808696971E+02 -0.59471718391E+02  0.72119140814E+02  0.10000000000E+01 0.  0.
    9000005    1    3    3    0    0  0.15290115002E+02 -0.37808696971E+02 -0.47614495083E+03  0.47788942171E+03  0.10000000000E+01 0.  0.
<mgrwt>
<rscale>  0 0.12499681E+03</rscale>
<asrwt>0</asrwt>
<pdfrwt beam="1">  1        4 0.11070691E-02 0.12499681E+03</pdfrwt>
<pdfrwt beam="2">  1       -4 0.83509601E-01 0.12499681E+03</pdfrwt>
<totfact> 0.52187001E+03</totfact>
</mgrwt>
</event>
<event>
 5    1  0.3276024E-002  0.1249975E+03  0.7818608E-02  0.1235073E+00
          4   -1    0    0  501    0  0.00000000000E+00  0.00000000000E+00  0.11039595442E+03  0.11040325925E+03  0.12700000000E+01 0. -1.
         -4   -1    0    0    0  501 -0.00000000000E+00 -0.00000000000E+00 -0.35362688791E+02  0.35385486552E+02  0.12700000000E+01 0. -1.
         25    2    1    2    0    0  0.00000000000E+00  0.00000000000E+00  0.75033265631E+02  0.14578874580E+03  0.12499746978E+03 0.  0.
    9000005    1    3    3    0    0  0.15276878313E+01  0.45111709777E+02  0.87921835927E+02  0.98836478194E+02  0.10000000000E+01 0.  0.
    9000005    1    3    3    0    0 -0.15276878313E+01 -0.45111709777E+02 -0.12888570296E+02  0.46952267607E+02  0.10000000000E+01 0.  0.
<mgrwt>
<rscale>  0 0.12499747E+03</rscale>
<asrwt>0</asrwt>
<pdfrwt beam="1">  1        4 0.16986309E-01 0.12499747E+03</pdfrwt>
<pdfrwt beam="2">  1       -4 0.54427293E-02 0.12499747E+03</pdfrwt>
<totfact> 0.10015558E+04</totfact>
</mgrwt>
</event>
<event>
 5    1  0.3276024E-002  0.1250005E+03  0.7818608E-02  0.1235068E+00
          4   -1    0    0  501    0  0.00000000000E+00  0.00000000000E+00  0.56310443176E+02  0.56324762855E+02  0.12700000000E+01 0. -1.
         -4   -1    0    0    0  501 -0.00000000000E+00 -0.00000000000E+00 -0.69341514862E+02  0.69353144005E+02  0.12700000000E+01 0. -1.
         25    2    1    2    0    0  0.00000000000E+00  0.00000000000E+00 -0.13031071686E+02  0.12567790686E+03  0.12500050977E+03 0.  0.
    9000005    1    3    3    0    0  0.61167085174E+02 -0.20055550128E+01 -0.19227123864E+02  0.64156970406E+02  0.10000000000E+01 0.  0.
    9000005    1    3    3    0    0 -0.61167085174E+02  0.20055550128E+01  0.61960521787E+01  0.61520936454E+02  0.10000000000E+01 0.  0.
<mgrwt>
<rscale>  0 0.12500051E+03</rscale>
<asrwt>0</asrwt>
<pdfrwt beam="1">  1        4 0.86651412E-02 0.12500051E+03</pdfrwt>
<pdfrwt beam="2">  1       -4 0.10669921E-01 0.12500051E+03</pdfrwt>
<totfact> 0.10437911E+04</totfact>
</mgrwt>
</event>
<event>
 5    1  0.3276024E-002  0.1250004E+03  0.7818608E-02  0.1235069E+00
         -4   -1    0    0    0  501 -0.00000000000E+00  0.00000000000E+00  0.44785296633E+03  0.44785476703E+03  0.12700000000E+01 0.  1.
          4   -1    0    0  501    0  0.00000000000E+00 -0.00000000000E+00 -0.86741627710E+01  0.87666413054E+01  0.12700000000E+01 0.  1.
         25    2    1    2    0    0  0.00000000000E+00  0.00000000000E+00  0.43917880356E+03  0.45662140833E+03  0.12500035621E+03 0.  0.
    9000005    1    3    3    0    0 -0.31447926184E+02  0.45223610061E+02  0.32740592698E+03  0.33200871674E+03  0.10000000000E+01 0.  0.
    9000005    1    3    3    0    0  0.31447926184E+02 -0.45223610061E+02  0.11177287658E+03  0.12461269160E+03  0.10000000000E+01 0.  0.
<mgrwt>
<rscale>  0 0.12500036E+03</rscale>
<asrwt>0</asrwt>
<pdfrwt beam="2">  1        4 0.13417388E-02 0.12500036E+03</pdfrwt>
<pdfrwt beam="1">  1       -4 0.68907712E-01 0.12500036E+03</pdfrwt>
<totfact> 0.59393975E+03</totfact>
</mgrwt>
</event>
<event>
 5    1  0.3276024E-002  0.1250028E+03  0.7818608E-02  0.1235065E+00
         -4   -1    0    0    0  501 -0.00000000000E+00  0.00000000000E+00  0.21593234978E+02  0.21630550081E+02  0.12700000000E+01 0. -1.
          4   -1    0    0  501    0  0.00000000000E+00 -0.00000000000E+00 -0.18071398907E+03  0.18071845159E+03  0.12700000000E+01 0. -1.
         25    2    1    2    0    0  0.00000000000E+00  0.00000000000E+00 -0.15912075410E+03  0.20234900168E+03  0.12500281635E+03 0.  0.
    9000005    1    3    3    0    0  0.55294002603E+02 -0.17368220015E+02 -0.41723572640E+02  0.71420853426E+02  0.10000000000E+01 0.  0.
    9000005    1    3    3    0    0 -0.55294002603E+02  0.17368220015E+02 -0.11739718146E+03  0.13092814825E+03  0.10000000000E+01 0.  0.
<mgrwt>
<rscale>  0 0.12500282E+03</rscale>
<asrwt>0</asrwt>
<pdfrwt beam="2">  1        4 0.27805365E-01 0.12500282E+03</pdfrwt>
<pdfrwt beam="1">  1       -4 0.33252499E-02 0.12500282E+03</pdfrwt>
<totfact> 0.89735181E+03</totfact>
</mgrwt>
</event>
<event>
 5    1  0.3276024E-002  0.1250007E+03  0.7818608E-02  0.1235068E+00
         -4   -1    0    0    0  501 -0.00000000000E+00  0.00000000000E+00  0.12155242124E+02  0.12221407901E+02  0.12700000000E+01 0. -1.
          4   -1    0    0  501    0  0.00000000000E+00 -0.00000000000E+00 -0.32042752170E+03  0.32043003848E+03  0.12700000000E+01 0. -1.
         25    2    1    2    0    0  0.00000000000E+00  0.00000000000E+00 -0.30827227957E+03  0.33265144638E+03  0.12500074571E+03 0.  0.
    9000005    1    3    3    0    0  0.49142137039E+02 -0.37479527286E+02 -0.12951008297E+03  0.14350444658E+03  0.10000000000E+01 0.  0.
    9000005    1    3    3    0    0 -0.49142137039E+02  0.37479527286E+02 -0.17876219661E+03  0.18914699980E+03  0.10000000000E+01 0.  0.
<mgrwt>
<rscale>  0 0.12500075E+03</rscale>
<asrwt>0</asrwt>
<pdfrwt beam="2">  1        4 0.49301819E-01 0.12500075E+03</pdfrwt>
<pdfrwt beam="1">  1       -4 0.18753208E-02 0.12500075E+03</pdfrwt>
<totfact> 0.71675065E+03</totfact>
</mgrwt>
</event>
<event>
 5    1  0.3276024E-002  0.1249982E+03  0.7818608E-02  0.1235072E+00
         -4   -1    0    0    0  501 -0.00000000000E+00  0.00000000000E+00  0.22027826731E+03  0.22028192833E+03  0.12700000000E+01 0.  1.
          4   -1    0    0  501    0  0.00000000000E+00 -0.00000000000E+00 -0.17706194991E+02  0.17751682767E+02  0.12700000000E+01 0.  1.
         25    2    1    2    0    0  0.00000000000E+00  0.00000000000E+00  0.20257207232E+03  0.23803361110E+03  0.12499822210E+03 0.  0.
    9000005    1    3    3    0    0 -0.47931843720E+02 -0.36158521648E+02  0.13428252110E+03  0.14709757239E+03  0.10000000000E+01 0.  0.
    9000005    1    3    3    0    0  0.47931843720E+02  0.36158521648E+02  0.68289551223E+02  0.90936038711E+02  0.10000000000E+01 0.  0.
<mgrwt>
<rscale>  0 0.12499822E+03</rscale>
<asrwt>0</asrwt>
<pdfrwt beam="2">  1        4 0.27278108E-02 0.12499822E+03</pdfrwt>
<pdfrwt beam="1">  1       -4 0.33892743E-01 0.12499822E+03</pdfrwt>
<totfact> 0.84094434E+03</totfact>
</mgrwt>
</event>
<event>
 5    1  0.3276024E-002  0.1250004E+03  0.7818608E-02  0.1235069E+00
          4   -1    0    0  501    0  0.00000000000E+00  0.00000000000E+00  0.63167160715E+02  0.63179926343E+02  0.12700000000E+01 0. -1.
         -4   -1    0    0    0  501 -0.00000000000E+00 -0.00000000000E+00 -0.61814703386E+02  0.61827748258E+02  0.12700000000E+01 0. -1.
         25    2    1    2    0    0  0.00000000000E+00  0.00000000000E+00  0.13524573287E+01  0.12500767460E+03  0.12500035827E+03 0.  0.
    9000005    1    3    3    0    0 -0.22724594862E+02  0.52752479031E+02 -0.23943114997E+02  0.62237480760E+02  0.10000000000E+01 0.  0.
    9000005    1    3    3    0    0  0.22724594862E+02 -0.52752479031E+02  0.25295572326E+02  0.62770193841E+02  0.10000000000E+01 0.  0.
<mgrwt>
<rscale>  0 0.12500036E+03</rscale>
<asrwt>0</asrwt>
<pdfrwt beam="1">  1        4 0.97200101E-02 0.12500036E+03</pdfrwt>
<pdfrwt beam="2">  1       -4 0.95119398E-02 0.12500036E+03</pdfrwt>
<totfact> 0.10452611E+04</totfact>
</mgrwt>
</event>
<event>
 5    1  0.3276024E-002  0.1250019E+03  0.7818608E-02  0.1235066E+00
          4   -1    0    0  501    0  0.00000000000E+00  0.00000000000E+00  0.16641648055E+02  0.16690037447E+02  0.12700000000E+01 0. -1.
         -4   -1    0    0    0  501 -0.00000000000E+00 -0.00000000000E+00 -0.23434341501E+03  0.23434685631E+03  0.12700000000E+01 0. -1.
         25    2    1    2    0    0  0.00000000000E+00  0.00000000000E+00 -0.21770176696E+03  0.25103689375E+03  0.12500185074E+03 0.  0.
    9000005    1    3    3    0    0 -0.56409854199E+02 -0.23999539419E+02 -0.84475791768E+02  0.10438011754E+03  0.10000000000E+01 0.  0.
    9000005    1    3    3    0    0  0.56409854199E+02  0.23999539419E+02 -0.13322597519E+03  0.14665677621E+03  0.10000000000E+01 0.  0.
<mgrwt>
<rscale>  0 0.12500185E+03</rscale>
<asrwt>0</asrwt>
<pdfrwt beam="1">  1        4 0.25642407E-02 0.12500185E+03</pdfrwt>
<pdfrwt beam="2">  1       -4 0.36056818E-01 0.12500185E+03</pdfrwt>
<totfact> 0.82177208E+03</totfact>
</mgrwt>
</event>
<event>
 5    1  0.3276024E-002  0.1249984E+03  0.7818608E-02  0.1235072E+00
         -4   -1    0    0    0  501 -0.00000000000E+00  0.00000000000E+00  0.20446315672E+03  0.20446710091E+03  0.12700000000E+01 0.  1.
          4   -1    0    0  501    0  0.00000000000E+00 -0.00000000000E+00 -0.19079166828E+02  0.19121388727E+02  0.12700000000E+01 0.  1.
         25    2    1    2    0    0  0.00000000000E+00  0.00000000000E+00  0.18538398989E+03  0.22358848964E+03  0.12499835595E+03 0.  0.
    9000005    1    3    3    0    0 -0.32867034954E+02  0.17869259436E+02  0.18222858763E+03  0.18603174613E+03  0.10000000000E+01 0.  0.
    9000005    1    3    3    0    0  0.32867034954E+02 -0.17869259436E+02  0.31554022614E+01  0.37556743507E+02  0.10000000000E+01 0.  0.
<mgrwt>
<rscale>  0 0.12499836E+03</rscale>
<asrwt>0</asrwt>
<pdfrwt beam="2">  1        4 0.29388077E-02 0.12499836E+03</pdfrwt>
<pdfrwt beam="1">  1       -4 0.31459421E-01 0.12499836E+03</pdfrwt>
<totfact> 0.86306852E+03</totfact>
</mgrwt>
</event>
<event>
 5    1  0.3276024E-002  0.1249997E+03  0.7818608E-02  0.1235070E+00
          4   -1    0    0  501    0  0.00000000000E+00  0.00000000000E+00  0.97719422159E+02  0.97727674520E+02  0.12700000000E+01 0. -1.
         -4   -1    0    0    0  501 -0.00000000000E+00 -0.00000000000E+00 -0.39953911521E+02  0.39974090932E+02  0.12700000000E+01 0. -1.
         25    2    1    2    0    0  0.00000000000E+00  0.00000000000E+00  0.57765510638E+02  0.13770176545E+03  0.12499968796E+03 0.  0.
    9000005    1    3    3    0    0  0.45725819337E+02  0.37518178557E+01 -0.17858834429E+02  0.49242914804E+02  0.10000000000E+01 0.  0.
    9000005    1    3    3    0    0 -0.45725819337E+02 -0.37518178557E+01  0.75624345067E+02  0.88458850648E+02  0.10000000000E+01 0.  0.
<mgrwt>
<rscale>  0 0.12499969E+03</rscale>
<asrwt>0</asrwt>
<pdfrwt beam="1">  1        4 0.15035944E-01 0.12499969E+03</pdfrwt>
<pdfrwt beam="2">  1       -4 0.61489428E-02 0.12499969E+03</pdfrwt>
<totfact> 0.10181505E+04</totfact>
</mgrwt>
</event>
<event>
 5    1  0.3276024E-002  0.1250007E+03  0.7818608E-02  0.1235068E+00
          4   -1    0    0  501    0  0.00000000000E+00  0.00000000000E+00  0.20079644344E+03  0.20080045965E+03  0.12700000000E+01 0.  1.
         -4   -1    0    0    0  501 -0.00000000000E+00 -0.00000000000E+00 -0.19429071685E+02  0.19470534830E+02  0.12700000000E+01 0.  1.
         25    2    1    2    0    0  0.00000000000E+00  0.00000000000E+00  0.18136737175E+03  0.22027099448E+03  0.12500074990E+03 0.  0.
    9000005    1    3    3    0    0 -0.35066756041E+02 -0.80595222270E+01  0.64686534636E+00  0.36000718222E+02  0.10000000000E+01 0.  0.
    9000005    1    3    3    0    0  0.35066756041E+02  0.80595222270E+01  0.18072050641E+03  0.18427027626E+03  0.10000000000E+01 0.  0.
<mgrwt>
<rscale>  0 0.12500075E+03</rscale>
<asrwt>0</asrwt>
<pdfrwt beam="1">  1        4 0.30895258E-01 0.12500075E+03</pdfrwt>
<pdfrwt beam="2">  1       -4 0.29925864E-02 0.12500075E+03</pdfrwt>
<totfact> 0.86824032E+03</totfact>
</mgrwt>
</event>
<event>
 5    1  0.3276024E-002  0.1250027E+03  0.7818608E-02  0.1235065E+00
         -4   -1    0    0    0  501 -0.00000000000E+00  0.00000000000E+00  0.34889559069E+02  0.34912665782E+02  0.12700000000E+01 0.  1.
          4   -1    0    0  501    0  0.00000000000E+00 -0.00000000000E+00 -0.11190147241E+03  0.11190867896E+03  0.12700000000E+01 0.  1.
         25    2    1    2    0    0  0.00000000000E+00  0.00000000000E+00 -0.77011913339E+02  0.14682134474E+03  0.12500268988E+03 0.  0.
    9000005    1    3    3    0    0 -0.58502666465E+02  0.20700355017E+02 -0.47165108553E+02  0.77952640405E+02  0.10000000000E+01 0.  0.
    9000005    1    3    3    0    0  0.58502666465E+02 -0.20700355017E+02 -0.29846804786E+02  0.68868704338E+02  0.10000000000E+01 0.  0.
<mgrwt>
<rscale>  0 0.12500269E+03</rscale>
<asrwt>0</asrwt>
<pdfrwt beam="2">  1        4 0.17217943E-01 0.12500269E+03</pdfrwt>
<pdfrwt beam="1">  1       -4 0.53699563E-02 0.12500269E+03</pdfrwt>
<totfact> 0.99935080E+03</totfact>
</mgrwt>
</event>
<event>
 5    1  0.3276024E-002  0.1250053E+03  0.7818608E-02  0.1235061E+00
          4   -1    0    0  501    0  0.00000000000E+00  0.00000000000E+00  0.73042144288E+02  0.73053184339E+02  0.12700000000E+01 0.  1.
         -4   -1    0    0    0  501 -0.00000000000E+00 -0.00000000000E+00 -0.53461321160E+02  0.53476403770E+02  0.12700000000E+01 0.  1.
         25    2    1    2    0    0  0.00000000000E+00  0.00000000000E+00  0.19580823127E+02  0.12652958811E+03  0.12500531202E+03 0.  0.
    9000005    1    3    3    0    0 -0.33595640537E+02  0.25259960354E+02 -0.37021214122E+02  0.56020558327E+02  0.10000000000E+01 0.  0.
    9000005    1    3    3    0    0  0.33595640537E+02 -0.25259960354E+02  0.56602037249E+02  0.70509029783E+02  0.10000000000E+01 0.  0.
<mgrwt>
<rscale>  0 0.12500531E+03</rscale>
<asrwt>0</asrwt>
<pdfrwt beam="1">  1        4 0.11239262E-01 0.12500531E+03</pdfrwt>
<pdfrwt beam="2">  1       -4 0.82268281E-02 0.12500531E+03</pdfrwt>
<totfact> 0.10418134E+04</totfact>
</mgrwt>
</event>
<event>
 5    1  0.3276024E-002  0.1249727E+03  0.7818608E-02  0.1235112E+00
          4   -1    0    0  501    0  0.00000000000E+00  0.00000000000E+00  0.77090979684E+01  0.78130078386E+01  0.12700000000E+01 0. -1.
         -4   -1    0    0    0  501 -0.00000000000E+00 -0.00000000000E+00 -0.50298955388E+03  0.50299115719E+03  0.12700000000E+01 0. -1.
         25    2    1    2    0    0  0.00000000000E+00  0.00000000000E+00 -0.49528045591E+03  0.51080416503E+03  0.12497265702E+03 0.  0.
    9000005    1    3    3    0    0  0.18579173678E+02  0.53117351336E+02 -0.35859460876E+03  0.36298447920E+03  0.10000000000E+01 0.  0.
    9000005    1    3    3    0    0 -0.18579173678E+02 -0.53117351336E+02 -0.13668584715E+03  0.14781968583E+03  0.10000000000E+01 0.  0.
<mgrwt>
<rscale>  0 0.12497266E+03</rscale>
<asrwt>0</asrwt>
<pdfrwt beam="1">  1        4 0.11941319E-02 0.12497266E+03</pdfrwt>
<pdfrwt beam="2">  1       -4 0.77391099E-01 0.12497266E+03</pdfrwt>
<totfact> 0.55068835E+03</totfact>
</mgrwt>
</event>
<event>
 5    1  0.3276024E-002  0.1249987E+03  0.7818608E-02  0.1235071E+00
         -4   -1    0    0    0  501 -0.00000000000E+00  0.00000000000E+00  0.10304553614E+02  0.10382520175E+02  0.12700000000E+01 0. -1.
          4   -1    0    0  501    0  0.00000000000E+00 -0.00000000000E+00 -0.37756468504E+03  0.37756682096E+03  0.12700000000E+01 0. -1.
         25    2    1    2    0    0  0.00000000000E+00  0.00000000000E+00 -0.36726013143E+03  0.38794934113E+03  0.12499874860E+03 0.  0.
    9000005    1    3    3    0    0  0.10337613692E+02 -0.55126407336E+02 -0.98103646845E+02  0.11300934725E+03  0.10000000000E+01 0.  0.
    9000005    1    3    3    0    0 -0.10337613692E+02  0.55126407336E+02 -0.26915648458E+03  0.27493999388E+03  0.10000000000E+01 0.  0.
<mgrwt>
<rscale>  0 0.12499875E+03</rscale>
<asrwt>0</asrwt>
<pdfrwt beam="2">  1        4 0.58093026E-01 0.12499875E+03</pdfrwt>
<pdfrwt beam="1">  1       -4 0.15914780E-02 0.12499875E+03</pdfrwt>
<totfact> 0.65743765E+03</totfact>
</mgrwt>
</event>
<event>
 5    1  0.3276024E-002  0.1249956E+03  0.7818608E-02  0.1235076E+00
          4   -1    0    0  501    0  0.00000000000E+00  0.00000000000E+00  0.25574846428E+01  0.28554557777E+01  0.12700000000E+01 0.  1.
         -4   -1    0    0    0  501 -0.00000000000E+00 -0.00000000000E+00 -0.14428999132E+04  0.14429004721E+04  0.12700000000E+01 0.  1.
         25    2    1    2    0    0  0.00000000000E+00  0.00000000000E+00 -0.14403424286E+04  0.14457559279E+04  0.12499556599E+03 0.  0.
    9000005    1    3    3    0    0  0.28891472813E+02  0.55204444991E+02 -0.77530929760E+03  0.77780958781E+03  0.10000000000E+01 0.  0.
    9000005    1    3    3    0    0 -0.28891472813E+02 -0.55204444991E+02 -0.66503313099E+03  0.66794634011E+03  0.10000000000E+01 0.  0.
<mgrwt>
<rscale>  0 0.12499557E+03</rscale>
<asrwt>0</asrwt>
<pdfrwt beam="1">  1        4 0.41642418E-03 0.12499557E+03</pdfrwt>
<pdfrwt beam="2">  1       -4 0.22200695E+00 0.12499557E+03</pdfrwt>
<totfact> 0.19021750E+03</totfact>
</mgrwt>
</event>
<event>
 5    1  0.3276024E-002  0.1249462E+03  0.7818608E-02  0.1235153E+00
         -4   -1    0    0    0  501 -0.00000000000E+00  0.00000000000E+00  0.97500460854E+02  0.97508731746E+02  0.12700000000E+01 0.  1.
          4   -1    0    0  501    0  0.00000000000E+00 -0.00000000000E+00 -0.40009417557E+02  0.40029568986E+02  0.12700000000E+01 0.  1.
         25    2    1    2    0    0  0.00000000000E+00  0.00000000000E+00  0.57491043297E+02  0.13753830073E+03  0.12494624488E+03 0.  0.
    9000005    1    3    3    0    0  0.52076333135E+02 -0.33534436316E+02  0.37646749591E+02  0.72489865820E+02  0.10000000000E+01 0.  0.
    9000005    1    3    3    0    0 -0.52076333135E+02  0.33534436316E+02  0.19844293706E+02  0.65048434912E+02  0.10000000000E+01 0.  0.
<mgrwt>
<rscale>  0 0.12494624E+03</rscale>
<asrwt>0</asrwt>
<pdfrwt beam="2">  1        4 0.61574814E-02 0.12494624E+03</pdfrwt>
<pdfrwt beam="1">  1       -4 0.15002257E-01 0.12494624E+03</pdfrwt>
<totfact> 0.10197196E+04</totfact>
</mgrwt>
</event>
<event>
 5    1  0.3276024E-002  0.1250093E+03  0.7818608E-02  0.1235055E+00
          4   -1    0    0  501    0  0.00000000000E+00  0.00000000000E+00  0.26479547736E+02  0.26509985823E+02  0.12700000000E+01 0. -1.
         -4   -1    0    0    0  501 -0.00000000000E+00 -0.00000000000E+00 -0.14742346659E+03  0.14742893679E+03  0.12700000000E+01 0. -1.
         25    2    1    2    0    0  0.00000000000E+00  0.00000000000E+00 -0.12094391886E+03  0.17393892261E+03  0.12500926882E+03 0.  0.
    9000005    1    3    3    0    0 -0.32741921753E+01  0.50070407246E+02 -0.86326511830E+01  0.50924342732E+02  0.10000000000E+01 0.  0.
    9000005    1    3    3    0    0  0.32741921753E+01 -0.50070407246E+02 -0.11231126767E+03  0.12301457988E+03  0.10000000000E+01 0.  0.
<mgrwt>
<rscale>  0 0.12500927E+03</rscale>
<asrwt>0</asrwt>
<pdfrwt beam="1">  1        4 0.40765388E-02 0.12500927E+03</pdfrwt>
<pdfrwt beam="2">  1       -4 0.22683295E-01 0.12500927E+03</pdfrwt>
<totfact> 0.94699840E+03</totfact>
</mgrwt>
</event>
<event>
 5    1  0.3276024E-002  0.1250018E+03  0.7818608E-02  0.1235067E+00
         -4   -1    0    0    0  501 -0.00000000000E+00  0.00000000000E+00  0.12834887626E+03  0.12835515937E+03  0.12700000000E+01 0.  1.
          4   -1    0    0  501    0  0.00000000000E+00 -0.00000000000E+00 -0.30415200733E+02  0.30441703888E+02  0.12700000000E+01 0.  1.
         25    2    1    2    0    0  0.00000000000E+00  0.00000000000E+00  0.97933675527E+02  0.15879686326E+03  0.12500175590E+03 0.  0.
    9000005    1    3    3    0    0  0.54050759532E+01 -0.31945473718E+02 -0.18918642692E+02  0.37531895481E+02  0.10000000000E+01 0.  0.
    9000005    1    3    3    0    0 -0.54050759532E+01  0.31945473718E+02  0.11685231822E+03  0.12126496778E+03  0.10000000000E+01 0.  0.
<mgrwt>
<rscale>  0 0.12500176E+03</rscale>
<asrwt>0</asrwt>
<pdfrwt beam="2">  1        4 0.46817837E-02 0.12500176E+03</pdfrwt>
<pdfrwt beam="1">  1       -4 0.19748503E-01 0.12500176E+03</pdfrwt>
<totfact> 0.97571391E+03</totfact>
</mgrwt>
</event>
<event>
 5    1  0.3276024E-002  0.1249997E+03  0.7818608E-02  0.1235070E+00
         -4   -1    0    0    0  501 -0.00000000000E+00  0.00000000000E+00  0.49148743019E+01  0.50763066696E+01  0.12700000000E+01 0.  1.
          4   -1    0    0  501    0  0.00000000000E+00 -0.00000000000E+00 -0.78177439888E+03  0.78177543044E+03  0.12700000000E+01 0.  1.
         25    2    1    2    0    0  0.00000000000E+00  0.00000000000E+00 -0.77685952458E+03  0.78685173711E+03  0.12499974108E+03 0.  0.
    9000005    1    3    3    0    0 -0.62446171547E+02  0.20682023658E+01 -0.39596258307E+03  0.40086303021E+03  0.10000000000E+01 0.  0.
    9000005    1    3    3    0    0  0.62446171547E+02 -0.20682023658E+01 -0.38089694151E+03  0.38598870690E+03  0.10000000000E+01 0.  0.
<mgrwt>
<rscale>  0 0.12499974E+03</rscale>
<asrwt>0</asrwt>
<pdfrwt beam="2">  1        4 0.12028538E+00 0.12499974E+03</pdfrwt>
<pdfrwt beam="1">  1       -4 0.76863235E-03 0.12499974E+03</pdfrwt>
<totfact> 0.38858731E+03</totfact>
</mgrwt>
</event>
<event>
 5    1  0.3276024E-002  0.1250046E+03  0.7818608E-02  0.1235062E+00
          4   -1    0    0  501    0  0.00000000000E+00  0.00000000000E+00  0.10962364849E+03  0.10963100478E+03  0.12700000000E+01 0. -1.
         -4   -1    0    0    0  501 -0.00000000000E+00 -0.00000000000E+00 -0.35616055357E+02  0.35638691042E+02  0.12700000000E+01 0. -1.
         25    2    1    2    0    0  0.00000000000E+00  0.00000000000E+00  0.74007593137E+02  0.14526969582E+03  0.12500464264E+03 0.  0.
    9000005    1    3    3    0    0 -0.34991845791E+00 -0.36880288121E+02 -0.21625561288E+02  0.42766143102E+02  0.10000000000E+01 0.  0.
    9000005    1    3    3    0    0  0.34991845791E+00  0.36880288121E+02  0.95633154424E+02  0.10250355272E+03  0.10000000000E+01 0.  0.
<mgrwt>
<rscale>  0 0.12500464E+03</rscale>
<asrwt>0</asrwt>
<pdfrwt beam="1">  1        4 0.16867484E-01 0.12500464E+03</pdfrwt>
<pdfrwt beam="2">  1       -4 0.54817002E-02 0.12500464E+03</pdfrwt>
<totfact> 0.10024464E+04</totfact>
</mgrwt>
</event>
<event>
 5    1  0.3276024E-002  0.1250013E+03  0.7818608E-02  0.1235067E+00
          4   -1    0    0  501    0  0.00000000000E+00  0.00000000000E+00  0.23012622594E+03  0.23012973030E+03  0.12700000000E+01 0. -1.
         -4   -1    0    0    0  501 -0.00000000000E+00 -0.00000000000E+00 -0.16947350569E+02  0.16994869558E+02  0.12700000000E+01 0. -1.
         25    2    1    2    0    0  0.00000000000E+00  0.00000000000E+00  0.21317887537E+03  0.24712459985E+03  0.12500133978E+03 0.  0.
    9000005    1    3    3    0    0  0.38352739287E+01  0.51108774150E+02  0.17727889854E+03  0.18454165923E+03  0.10000000000E+01 0.  0.
    9000005    1    3    3    0    0 -0.38352739287E+01 -0.51108774150E+02  0.35899976828E+02  0.62582940626E+02  0.10000000000E+01 0.  0.
<mgrwt>
<rscale>  0 0.12500134E+03</rscale>
<asrwt>0</asrwt>
<pdfrwt beam="1">  1        4 0.35407958E-01 0.12500134E+03</pdfrwt>
<pdfrwt beam="2">  1       -4 0.26112097E-02 0.12500134E+03</pdfrwt>
<totfact> 0.82745127E+03</totfact>
</mgrwt>
</event>
<event>
 5    1  0.3276024E-002  0.1250040E+03  0.7818608E-02  0.1235063E+00
          4   -1    0    0  501    0  0.00000000000E+00  0.00000000000E+00  0.15024395780E+03  0.15024932530E+03  0.12700000000E+01 0.  1.
         -4   -1    0    0    0  501 -0.00000000000E+00 -0.00000000000E+00 -0.25979700907E+02  0.26010723927E+02  0.12700000000E+01 0.  1.
         25    2    1    2    0    0  0.00000000000E+00  0.00000000000E+00  0.12426425689E+03  0.17626004923E+03  0.12500399759E+03 0.  0.
    9000005    1    3    3    0    0  0.54238917492E+02 -0.25776831883E+01  0.18512207683E+02  0.57377752262E+02  0.10000000000E+01 0.  0.
    9000005    1    3    3    0    0 -0.54238917492E+02  0.25776831883E+01  0.10575204921E+03  0.11888229697E+03  0.10000000000E+01 0.  0.
<mgrwt>
<rscale>  0 0.12500400E+03</rscale>
<asrwt>0</asrwt>
<pdfrwt beam="1">  1        4 0.23117254E-01 0.12500400E+03</pdfrwt>
<pdfrwt beam="2">  1       -4 0.39996763E-02 0.12500400E+03</pdfrwt>
<totfact> 0.94286116E+03</totfact>
</mgrwt>
</event>
<event>
 5    1  0.3276024E-002  0.1250076E+03  0.7818608E-02  0.1235057E+00
          4   -1    0    0  501    0  0.00000000000E+00  0.00000000000E+00  0.12912893958E+03  0.12913518474E+03  0.12700000000E+01 0. -1.
         -4   -1    0    0    0  501 -0.00000000000E+00 -0.00000000000E+00 -0.30234142299E+02  0.30260804030E+02  0.12700000000E+01 0. -1.
         25    2    1    2    0    0  0.00000000000E+00  0.00000000000E+00  0.98894797279E+02  0.15939598877E+03  0.12500760099E+03 0.  0.
    9000005    1    3    3    0    0  0.60318201468E+01 -0.27767370006E+01  0.12868410357E+03  0.12885919306E+03  0.10000000000E+01 0.  0.
    9000005    1    3    3    0    0 -0.60318201468E+01  0.27767370006E+01 -0.29789306295E+02  0.30536795709E+02  0.10000000000E+01 0.  0.
<mgrwt>
<rscale>  0 0.12500760E+03</rscale>
<asrwt>0</asrwt>
<pdfrwt beam="1">  1        4 0.19868522E-01 0.12500760E+03</pdfrwt>
<pdfrwt beam="2">  1       -4 0.46539378E-02 0.12500760E+03</pdfrwt>
<totfact> 0.97442709E+03</totfact>
</mgrwt>
</event>
<event>
 5    1  0.3276024E-002  0.1249919E+03  0.7818608E-02  0.1235082E+00
         -4   -1    0    0    0  501 -0.00000000000E+00  0.00000000000E+00  0.23957717894E+02  0.23991355666E+02  0.12700000000E+01 0.  1.
          4   -1    0    0  501    0  0.00000000000E+00 -0.00000000000E+00 -0.16287605145E+03  0.16288100269E+03  0.12700000000E+01 0.  1.
         25    2    1    2    0    0  0.00000000000E+00  0.00000000000E+00 -0.13891833356E+03  0.18687235835E+03  0.12499189941E+03 0.  0.
    9000005    1    3    3    0    0 -0.38551885760E+02  0.18643014427E+02 -0.14219856663E+01  0.42858277215E+02  0.10000000000E+01 0.  0.
    9000005    1    3    3    0    0  0.38551885760E+02 -0.18643014427E+02 -0.13749634789E+03  0.14401408114E+03  0.10000000000E+01 0.  0.
<mgrwt>
<rscale>  0 0.12499190E+03</rscale>
<asrwt>0</asrwt>
<pdfrwt beam="2">  1        4 0.25060822E-01 0.12499190E+03</pdfrwt>
<pdfrwt beam="1">  1       -4 0.36887712E-02 0.12499190E+03</pdfrwt>
<totfact> 0.92411152E+03</totfact>
</mgrwt>
</event>
<event>
 5    1  0.3276024E-002  0.1249980E+03  0.7818608E-02  0.1235072E+00
          4   -1    0    0  501    0  0.00000000000E+00  0.00000000000E+00  0.51808548325E+02  0.51824111951E+02  0.12700000000E+01 0.  1.
         -4   -1    0    0    0  501 -0.00000000000E+00 -0.00000000000E+00 -0.75363165390E+02  0.75373865481E+02  0.12700000000E+01 0.  1.
         25    2    1    2    0    0  0.00000000000E+00  0.00000000000E+00 -0.23554617065E+02  0.12719797743E+03  0.12499802190E+03 0.  0.
    9000005    1    3    3    0    0  0.69697406668E+01 -0.38520739263E+02 -0.61344993846E+02  0.72777969938E+02  0.10000000000E+01 0.  0.
    9000005    1    3    3    0    0 -0.69697406668E+01  0.38520739263E+02  0.37790376781E+02  0.54420007494E+02  0.10000000000E+01 0.  0.
<mgrwt>
<rscale>  0 0.12499802E+03</rscale>
<asrwt>0</asrwt>
<pdfrwt beam="1">  1        4 0.79725662E-02 0.12499802E+03</pdfrwt>
<pdfrwt beam="2">  1       -4 0.11596353E-01 0.12499802E+03</pdfrwt>
<totfact> 0.10405312E+04</totfact>
</mgrwt>
</event>
<event>
 5    1  0.3276024E-002  0.1249966E+03  0.7818608E-02  0.1235075E+00
         -4   -1    0    0    0  501 -0.00000000000E+00  0.00000000000E+00  0.47625009691E+03  0.47625179024E+03  0.12700000000E+01 0. -1.
          4   -1    0    0  501    0  0.00000000000E+00 -0.00000000000E+00 -0.81507704679E+01  0.82491186935E+01  0.12700000000E+01 0. -1.
         25    2    1    2    0    0  0.00000000000E+00  0.00000000000E+00  0.46809932644E+03  0.48450090893E+03  0.12499660532E+03 0.  0.
    9000005    1    3    3    0    0  0.21319615929E+02 -0.30239557782E+02  0.38850507851E+02  0.53659284737E+02  0.10000000000E+01 0.  0.
    9000005    1    3    3    0    0 -0.21319615929E+02  0.30239557782E+02  0.42924881859E+03  0.43084162420E+03  0.10000000000E+01 0.  0.
<mgrwt>
<rscale>  0 0.12499661E+03</rscale>
<asrwt>0</asrwt>
<pdfrwt beam="2">  1        4 0.12616604E-02 0.12499661E+03</pdfrwt>
<pdfrwt beam="1">  1       -4 0.73276927E-01 0.12499661E+03</pdfrwt>
<totfact> 0.57091551E+03</totfact>
</mgrwt>
</event>
<event>
 5    1  0.3276024E-002  0.1250068E+03  0.7818608E-02  0.1235059E+00
         -4   -1    0    0    0  501 -0.00000000000E+00  0.00000000000E+00  0.16170002440E+02  0.16219798978E+02  0.12700000000E+01 0. -1.
          4   -1    0    0  501    0  0.00000000000E+00 -0.00000000000E+00 -0.24117706315E+03  0.24118040694E+03  0.12700000000E+01 0. -1.
         25    2    1    2    0    0  0.00000000000E+00  0.00000000000E+00 -0.22500706071E+03  0.25740020591E+03  0.12500675436E+03 0.  0.
    9000005    1    3    3    0    0 -0.45161636935E+01  0.62101615241E+02 -0.12352799503E+03  0.13833716748E+03  0.10000000000E+01 0.  0.
    9000005    1    3    3    0    0  0.45161636935E+01 -0.62101615241E+02 -0.10147906568E+03  0.11906303843E+03  0.10000000000E+01 0.  0.
<mgrwt>
<rscale>  0 0.12500675E+03</rscale>
<asrwt>0</asrwt>
<pdfrwt beam="2">  1        4 0.37108249E-01 0.12500675E+03</pdfrwt>
<pdfrwt beam="1">  1       -4 0.24917806E-02 0.12500675E+03</pdfrwt>
<totfact> 0.81260075E+03</totfact>
</mgrwt>
</event>
<event>
 5    1  0.3276024E-002  0.1249962E+03  0.7818608E-02  0.1235075E+00
          4   -1    0    0  501    0  0.00000000000E+00  0.00000000000E+00  0.19735858905E+02  0.19776678860E+02  0.12700000000E+01 0.  1.
         -4   -1    0    0    0  501 -0.00000000000E+00 -0.00000000000E+00 -0.19766703491E+03  0.19767111471E+03  0.12700000000E+01 0.  1.
         25    2    1    2    0    0  0.00000000000E+00  0.00000000000E+00 -0.17793117601E+03  0.21744779357E+03  0.12499615807E+03 0.  0.
    9000005    1    3    3    0    0  0.50146111396E+02 -0.31223974965E+02 -0.53507696683E+02  0.79709740340E+02  0.10000000000E+01 0.  0.
    9000005    1    3    3    0    0 -0.50146111396E+02  0.31223974965E+02 -0.12442347932E+03  0.13773805323E+03  0.10000000000E+01 0.  0.
<mgrwt>
<rscale>  0 0.12499616E+03</rscale>
<asrwt>0</asrwt>
<pdfrwt beam="1">  1        4 0.30397399E-02 0.12499616E+03</pdfrwt>
<pdfrwt beam="2">  1       -4 0.30413766E-01 0.12499616E+03</pdfrwt>
<totfact> 0.87281313E+03</totfact>
</mgrwt>
</event>
<event>
 5    1  0.3276024E-002  0.1249999E+03  0.7818608E-02  0.1235069E+00
         -4   -1    0    0    0  501 -0.00000000000E+00  0.00000000000E+00  0.95612550959E+02  0.95620985149E+02  0.12700000000E+01 0. -1.
          4   -1    0    0  501    0  0.00000000000E+00 -0.00000000000E+00 -0.40834797269E+02  0.40854541583E+02  0.12700000000E+01 0. -1.
         25    2    1    2    0    0  0.00000000000E+00  0.00000000000E+00  0.54777753690E+02  0.13647552673E+03  0.12499986839E+03 0.  0.
    9000005    1    3    3    0    0  0.54260990320E+02  0.30999148847E+02  0.27171954442E+02  0.68150696313E+02  0.10000000000E+01 0.  0.
    9000005    1    3    3    0    0 -0.54260990320E+02 -0.30999148847E+02  0.27605799248E+02  0.68324830420E+02  0.10000000000E+01 0.  0.
<mgrwt>
<rscale>  0 0.12499987E+03</rscale>
<asrwt>0</asrwt>
<pdfrwt beam="2">  1        4 0.62844442E-02 0.12499987E+03</pdfrwt>
<pdfrwt beam="1">  1       -4 0.14711791E-01 0.12499987E+03</pdfrwt>
<totfact> 0.10207094E+04</totfact>
</mgrwt>
</event>
<event>
 5    1  0.3276024E-002  0.1250000E+03  0.7818608E-02  0.1235069E+00
          4   -1    0    0  501    0  0.00000000000E+00  0.00000000000E+00  0.56509265629E+02  0.56523534938E+02  0.12700000000E+01 0. -1.
         -4   -1    0    0    0  501 -0.00000000000E+00 -0.00000000000E+00 -0.69096955472E+02  0.69108625768E+02  0.12700000000E+01 0. -1.
         25    2    1    2    0    0  0.00000000000E+00  0.00000000000E+00 -0.12587689843E+02  0.12563216071E+03  0.12499995947E+03 0.  0.
    9000005    1    3    3    0    0 -0.54840420103E+01 -0.60058789256E+02  0.10163174260E+02  0.61167172525E+02  0.10000000000E+01 0.  0.
    9000005    1    3    3    0    0  0.54840420103E+01  0.60058789256E+02 -0.22750864103E+02  0.64464988181E+02  0.10000000000E+01 0.  0.
<mgrwt>
<rscale>  0 0.12499996E+03</rscale>
<asrwt>0</asrwt>
<pdfrwt beam="1">  1        4 0.86957286E-02 0.12499996E+03</pdfrwt>
<pdfrwt beam="2">  1       -4 0.10632296E-01 0.12499996E+03</pdfrwt>
<totfact> 0.10439048E+04</totfact>
</mgrwt>
</event>
<event>
 5    1  0.3276024E-002  0.1249972E+03  0.7818608E-02  0.1235074E+00
         -4   -1    0    0    0  501 -0.00000000000E+00  0.00000000000E+00  0.57798229879E+02  0.57812181045E+02  0.12700000000E+01 0.  1.
          4   -1    0    0  501    0  0.00000000000E+00 -0.00000000000E+00 -0.67553155638E+02  0.67565092590E+02  0.12700000000E+01 0.  1.
         25    2    1    2    0    0  0.00000000000E+00  0.00000000000E+00 -0.97549257588E+01  0.12537727363E+03  0.12499720864E+03 0.  0.
    9000005    1    3    3    0    0  0.55650838171E+02 -0.14947656888E+02  0.19375123224E+02  0.60801674611E+02  0.10000000000E+01 0.  0.
    9000005    1    3    3    0    0 -0.55650838171E+02  0.14947656888E+02 -0.29130048983E+02  0.64575599024E+02  0.10000000000E+01 0.  0.
<mgrwt>
<rscale>  0 0.12499721E+03</rscale>
<asrwt>0</asrwt>
<pdfrwt beam="2">  1        4 0.10394785E-01 0.12499721E+03</pdfrwt>
<pdfrwt beam="1">  1       -4 0.88940268E-02 0.12499721E+03</pdfrwt>
<totfact> 0.10445328E+04</totfact>
</mgrwt>
</event>
<event>
 5    1  0.3276024E-002  0.1249635E+03  0.7818608E-02  0.1235126E+00
         -4   -1    0    0    0  501 -0.00000000000E+00  0.00000000000E+00  0.85019554456E+01  0.85962867797E+01  0.12700000000E+01 0.  1.
          4   -1    0    0  501    0  0.00000000000E+00 -0.00000000000E+00 -0.45655663111E+03  0.45655839748E+03  0.12700000000E+01 0.  1.
         25    2    1    2    0    0  0.00000000000E+00  0.00000000000E+00 -0.44805467567E+03  0.46515468426E+03  0.12496354630E+03 0.  0.
    9000005    1    3    3    0    0  0.53166807203E+01 -0.18060705947E+02 -0.22907153661E+01  0.18992197610E+02  0.10000000000E+01 0.  0.
    9000005    1    3    3    0    0 -0.53166807203E+01  0.18060705947E+02 -0.44576396030E+03  0.44616248665E+03  0.10000000000E+01 0.  0.
<mgrwt>
<rscale>  0 0.12496355E+03</rscale>
<asrwt>0</asrwt>
<pdfrwt beam="2">  1        4 0.70246855E-01 0.12496355E+03</pdfrwt>
<pdfrwt beam="1">  1       -4 0.13153856E-02 0.12496355E+03</pdfrwt>
<totfact> 0.58720184E+03</totfact>
</mgrwt>
</event>
<event>
 5    1  0.3276024E-002  0.1249994E+03  0.7818608E-02  0.1235070E+00
         -4   -1    0    0    0  501 -0.00000000000E+00  0.00000000000E+00  0.82353259943E+03  0.82353357869E+03  0.12700000000E+01 0. -1.
          4   -1    0    0  501    0  0.00000000000E+00 -0.00000000000E+00 -0.46572308674E+01  0.48272869556E+01  0.12700000000E+01 0. -1.
         25    2    1    2    0    0  0.00000000000E+00  0.00000000000E+00  0.81887536856E+03  0.82836086564E+03  0.12499941795E+03 0.  0.
    9000005    1    3    3    0    0 -0.21545724613E+01 -0.83762403861E+01  0.81957965689E+03  0.81962590099E+03  0.10000000000E+01 0.  0.
    9000005    1    3    3    0    0  0.21545724613E+01  0.83762403861E+01 -0.70428832360E+00  0.87349646559E+01  0.10000000000E+01 0.  0.
<mgrwt>
<rscale>  0 0.12499942E+03</rscale>
<asrwt>0</asrwt>
<pdfrwt beam="2">  1        4 0.72965353E-03 0.12499942E+03</pdfrwt>
<pdfrwt beam="1">  1       -4 0.12671050E+00 0.12499942E+03</pdfrwt>
<totfact> 0.37030001E+03</totfact>
</mgrwt>
</event>
<event>
 5    1  0.3276024E-002  0.1250028E+03  0.7818608E-02  0.1235065E+00
         -4   -1    0    0    0  501 -0.00000000000E+00  0.00000000000E+00  0.24571156193E+03  0.24571484401E+03  0.12700000000E+01 0.  1.
          4   -1    0    0  501    0  0.00000000000E+00 -0.00000000000E+00 -0.15869673770E+02  0.15920409717E+02  0.12700000000E+01 0.  1.
         25    2    1    2    0    0  0.00000000000E+00  0.00000000000E+00  0.22984188816E+03  0.26163525373E+03  0.12500284972E+03 0.  0.
    9000005    1    3    3    0    0 -0.13354113078E+02  0.55404539900E+02  0.16858728802E+03  0.17796254960E+03  0.10000000000E+01 0.  0.
    9000005    1    3    3    0    0  0.13354113078E+02 -0.55404539900E+02  0.61254600137E+02  0.83672704125E+02  0.10000000000E+01 0.  0.
<mgrwt>
<rscale>  0 0.12500285E+03</rscale>
<asrwt>0</asrwt>
<pdfrwt beam="2">  1        4 0.24456435E-02 0.12500285E+03</pdfrwt>
<pdfrwt beam="1">  1       -4 0.37805934E-01 0.12500285E+03</pdfrwt>
<totfact> 0.80672005E+03</totfact>
</mgrwt>
</event>
<event>
 5    1  0.3276024E-002  0.1249948E+03  0.7818608E-02  0.1235077E+00
          4   -1    0    0  501    0  0.00000000000E+00  0.00000000000E+00  0.66916397404E+01  0.68110896643E+01  0.12700000000E+01 0. -1.
         -4   -1    0    0    0  501 -0.00000000000E+00 -0.00000000000E+00 -0.57841817052E+03  0.57841956475E+03  0.12700000000E+01 0. -1.
         25    2    1    2    0    0  0.00000000000E+00  0.00000000000E+00 -0.57172653078E+03  0.58523065442E+03  0.12499477137E+03 0.  0.
    9000005    1    3    3    0    0 -0.50275121029E+02 -0.11363725595E+02 -0.12044726663E+03  0.13101628178E+03  0.10000000000E+01 0.  0.
    9000005    1    3    3    0    0  0.50275121029E+02  0.11363725595E+02 -0.45127926416E+03  0.45421437264E+03  0.10000000000E+01 0.  0.
<mgrwt>
<rscale>  0 0.12499477E+03</rscale>
<asrwt>0</asrwt>
<pdfrwt beam="1">  1        4 0.10387792E-02 0.12499477E+03</pdfrwt>
<pdfrwt beam="2">  1       -4 0.88996668E-01 0.12499477E+03</pdfrwt>
<totfact> 0.49819095E+03</totfact>
</mgrwt>
</event>
<event>
 5    1  0.3276024E-002  0.1249990E+03  0.7818608E-02  0.1235071E+00
          4   -1    0    0  501    0  0.00000000000E+00  0.00000000000E+00  0.35881039390E+03  0.35881264146E+03  0.12700000000E+01 0. -1.
         -4   -1    0    0    0  501 -0.00000000000E+00 -0.00000000000E+00 -0.10847169964E+02  0.10921263491E+02  0.12700000000E+01 0. -1.
         25    2    1    2    0    0  0.00000000000E+00  0.00000000000E+00  0.34796322393E+03  0.36973390495E+03  0.12499902103E+03 0.  0.
    9000005    1    3    3    0    0 -0.30256592414E+02  0.32222115957E+02  0.43315553673E+02  0.61894776284E+02  0.10000000000E+01 0.  0.
    9000005    1    3    3    0    0  0.30256592414E+02 -0.32222115957E+02  0.30464767026E+03  0.30783912866E+03  0.10000000000E+01 0.  0.
<mgrwt>
<rscale>  0 0.12499902E+03</rscale>
<asrwt>0</asrwt>
<pdfrwt beam="1">  1        4 0.55207464E-01 0.12499902E+03</pdfrwt>
<pdfrwt beam="2">  1       -4 0.16746680E-02 0.12499902E+03</pdfrwt>
<totfact> 0.67608251E+03</totfact>
</mgrwt>
</event>
<event>
 5    1  0.3276024E-002  0.1249958E+03  0.7818608E-02  0.1235076E+00
         -4   -1    0    0    0  501 -0.00000000000E+00  0.00000000000E+00  0.53115808254E+01  0.54612993752E+01  0.12700000000E+01 0. -1.
          4   -1    0    0  501    0  0.00000000000E+00 -0.00000000000E+00 -0.72500212000E+03  0.72500323234E+03  0.12700000000E+01 0. -1.
         25    2    1    2    0    0  0.00000000000E+00  0.00000000000E+00 -0.71969053917E+03  0.73046453171E+03  0.12499583960E+03 0.  0.
    9000005    1    3    3    0    0  0.25109655476E+02  0.57135005833E+02 -0.34128564043E+03  0.34694638211E+03  0.10000000000E+01 0.  0.
    9000005    1    3    3    0    0 -0.25109655476E+02 -0.57135005833E+02 -0.37840489874E+03  0.38351814961E+03  0.10000000000E+01 0.  0.
<mgrwt>
<rscale>  0 0.12499584E+03</rscale>
<asrwt>0</asrwt>
<pdfrwt beam="2">  1        4 0.11155031E+00 0.12499584E+03</pdfrwt>
<pdfrwt beam="1">  1       -4 0.82876923E-03 0.12499584E+03</pdfrwt>
<totfact> 0.41530201E+03</totfact>
</mgrwt>
</event>
<event>
 5    1  0.3276024E-002  0.1249737E+03  0.7818608E-02  0.1235110E+00
         -4   -1    0    0    0  501 -0.00000000000E+00  0.00000000000E+00  0.19209896062E+02  0.19251831256E+02  0.12700000000E+01 0.  1.
          4   -1    0    0  501    0  0.00000000000E+00 -0.00000000000E+00 -0.20299458279E+03  0.20299855552E+03  0.12700000000E+01 0.  1.
         25    2    1    2    0    0  0.00000000000E+00  0.00000000000E+00 -0.18378468673E+03  0.22225038677E+03  0.12497369061E+03 0.  0.
    9000005    1    3    3    0    0 -0.43587707589E+02  0.81854027561E+01 -0.17015543254E+03  0.17584299899E+03  0.10000000000E+01 0.  0.
    9000005    1    3    3    0    0  0.43587707589E+02 -0.81854027561E+01 -0.13629254190E+02  0.46407387784E+02  0.10000000000E+01 0.  0.
<mgrwt>
<rscale>  0 0.12497369E+03</rscale>
<asrwt>0</asrwt>
<pdfrwt beam="2">  1        4 0.31233466E-01 0.12497369E+03</pdfrwt>
<pdfrwt beam="1">  1       -4 0.29589002E-02 0.12497369E+03</pdfrwt>
<totfact> 0.86564354E+03</totfact>
</mgrwt>
</event>
<event>
 5    1  0.3276024E-002  0.1249935E+03  0.7818608E-02  0.1235079E+00
          4   -1    0    0  501    0  0.00000000000E+00  0.00000000000E+00  0.40100317958E+02  0.40120423731E+02  0.12700000000E+01 0.  1.
         -4   -1    0    0    0  501 -0.00000000000E+00 -0.00000000000E+00 -0.97353227841E+02  0.97361511241E+02  0.12700000000E+01 0.  1.
         25    2    1    2    0    0  0.00000000000E+00  0.00000000000E+00 -0.57252909883E+02  0.13748193497E+03  0.12499354685E+03 0.  0.
    9000005    1    3    3    0    0 -0.25321921346E+02 -0.25285362285E+01  0.34148126148E+02  0.42599151583E+02  0.10000000000E+01 0.  0.
    9000005    1    3    3    0    0  0.25321921346E+02  0.25285362285E+01 -0.91401036032E+02  0.94882783390E+02  0.10000000000E+01 0.  0.
<mgrwt>
<rscale>  0 0.12499355E+03</rscale>
<asrwt>0</asrwt>
<pdfrwt beam="1">  1        4 0.61714635E-02 0.12499355E+03</pdfrwt>
<pdfrwt beam="2">  1       -4 0.14979603E-01 0.12499355E+03</pdfrwt>
<totfact> 0.10187501E+04</totfact>
</mgrwt>
</event>
<event>
 5    1  0.3276024E-002  0.1250345E+03  0.7818608E-02  0.1235015E+00
          4   -1    0    0  501    0  0.00000000000E+00  0.00000000000E+00  0.10030693138E+03  0.10031497088E+03  0.12700000000E+01 0.  1.
         -4   -1    0    0    0  501 -0.00000000000E+00 -0.00000000000E+00 -0.38944503513E+02  0.38965205683E+02  0.12700000000E+01 0.  1.
         25    2    1    2    0    0  0.00000000000E+00  0.00000000000E+00  0.61362427869E+02  0.13928017657E+03  0.12503447537E+03 0.  0.
    9000005    1    3    3    0    0 -0.36661871592E+02  0.24242660008E+02 -0.18830693570E+02  0.47826712340E+02  0.10000000000E+01 0.  0.
    9000005    1    3    3    0    0  0.36661871592E+02 -0.24242660008E+02  0.80193121439E+02  0.91453464227E+02  0.10000000000E+01 0.  0.
<mgrwt>
<rscale>  0 0.12503448E+03</rscale>
<asrwt>0</asrwt>
<pdfrwt beam="1">  1        4 0.15434046E-01 0.12503448E+03</pdfrwt>
<pdfrwt beam="2">  1       -4 0.59936730E-02 0.12503448E+03</pdfrwt>
<totfact> 0.10140647E+04</totfact>
</mgrwt>
</event>
<event>
 5    1  0.3276024E-002  0.1250001E+03  0.7818608E-02  0.1235069E+00
          4   -1    0    0  501    0  0.00000000000E+00  0.00000000000E+00  0.20661037101E+02  0.20700032707E+02  0.12700000000E+01 0. -1.
         -4   -1    0    0    0  501 -0.00000000000E+00 -0.00000000000E+00 -0.18884449892E+03  0.18884876932E+03  0.12700000000E+01 0. -1.
         25    2    1    2    0    0  0.00000000000E+00  0.00000000000E+00 -0.16818346182E+03  0.20954880203E+03  0.12500009440E+03 0.  0.
    9000005    1    3    3    0    0  0.62357962708E+02 -0.34223575611E+01 -0.87850678319E+02  0.10779132491E+03  0.10000000000E+01 0.  0.
    9000005    1    3    3    0    0 -0.62357962708E+02  0.34223575611E+01 -0.80332783504E+02  0.10175747712E+03  0.10000000000E+01 0.  0.
<mgrwt>
<rscale>  0 0.12500009E+03</rscale>
<asrwt>0</asrwt>
<pdfrwt beam="1">  1        4 0.31819494E-02 0.12500009E+03</pdfrwt>
<pdfrwt beam="2">  1       -4 0.29056327E-01 0.12500009E+03</pdfrwt>
<totfact> 0.88549434E+03</totfact>
</mgrwt>
</event>
<event>
 5    1  0.3276024E-002  0.1249966E+03  0.7818608E-02  0.1235075E+00
         -4   -1    0    0    0  501 -0.00000000000E+00  0.00000000000E+00  0.18661134560E+03  0.18661566710E+03  0.12700000000E+01 0. -1.
          4   -1    0    0  501    0  0.00000000000E+00 -0.00000000000E+00 -0.20907559501E+02  0.20946096159E+02  0.12700000000E+01 0. -1.
         25    2    1    2    0    0  0.00000000000E+00  0.00000000000E+00  0.16570378610E+03  0.20756176325E+03  0.12499656331E+03 0.  0.
    9000005    1    3    3    0    0 -0.49305713746E+02 -0.34171718719E+02  0.11191254587E+03  0.12698101311E+03  0.10000000000E+01 0.  0.
    9000005    1    3    3    0    0  0.49305713746E+02  0.34171718719E+02  0.53791240227E+02  0.80580750142E+02  0.10000000000E+01 0.  0.
<mgrwt>
<rscale>  0 0.12499656E+03</rscale>
<asrwt>0</asrwt>
<pdfrwt beam="2">  1        4 0.32198444E-02 0.12499656E+03</pdfrwt>
<pdfrwt beam="1">  1       -4 0.28712735E-01 0.12499656E+03</pdfrwt>
<totfact> 0.88882461E+03</totfact>
</mgrwt>
</event>
<event>
 5    1  0.3276024E-002  0.1249992E+03  0.7818608E-02  0.1235071E+00
         -4   -1    0    0    0  501 -0.00000000000E+00  0.00000000000E+00  0.25097217095E+02  0.25129329596E+02  0.12700000000E+01 0. -1.
          4   -1    0    0  501    0  0.00000000000E+00 -0.00000000000E+00 -0.15550855939E+03  0.15551374519E+03  0.12700000000E+01 0. -1.
         25    2    1    2    0    0  0.00000000000E+00  0.00000000000E+00 -0.13041134229E+03  0.18064307479E+03  0.12499920908E+03 0.  0.
    9000005    1    3    3    0    0 -0.59039087439E+02 -0.19199763689E+02 -0.75521659596E+02  0.97768941077E+02  0.10000000000E+01 0.  0.
    9000005    1    3    3    0    0  0.59039087439E+02  0.19199763689E+02 -0.54889682697E+02  0.82874133708E+02  0.10000000000E+01 0.  0.
<mgrwt>
<rscale>  0 0.12499921E+03</rscale>
<asrwt>0</asrwt>
<pdfrwt beam="2">  1        4 0.23927262E-01 0.12499921E+03</pdfrwt>
<pdfrwt beam="1">  1       -4 0.38639795E-02 0.12499921E+03</pdfrwt>
<totfact> 0.93503034E+03</totfact>
</mgrwt>
</event>
<event>
 5    1  0.3276024E-002  0.1250004E+03  0.7818608E-02  0.1235069E+00
         -4   -1    0    0    0  501 -0.00000000000E+00  0.00000000000E+00  0.63850004650E+02  0.63862633784E+02  0.12700000000E+01 0. -1.
          4   -1    0    0  501    0  0.00000000000E+00 -0.00000000000E+00 -0.61153700202E+02  0.61166886045E+02  0.12700000000E+01 0. -1.
         25    2    1    2    0    0  0.00000000000E+00  0.00000000000E+00  0.26963044473E+01  0.12502951983E+03  0.12500044308E+03 0.  0.
    9000005    1    3    3    0    0  0.51530780561E+01 -0.59077459944E+01  0.63361138537E+02  0.63852091218E+02  0.10000000000E+01 0.  0.
    9000005    1    3    3    0    0 -0.51530780561E+01  0.59077459944E+01 -0.60664834090E+02  0.61177428610E+02  0.10000000000E+01 0.  0.
<mgrwt>
<rscale>  0 0.12500044E+03</rscale>
<asrwt>0</asrwt>
<pdfrwt beam="2">  1        4 0.94102473E-02 0.12500044E+03</pdfrwt>
<pdfrwt beam="1">  1       -4 0.98250634E-02 0.12500044E+03</pdfrwt>
<totfact> 0.10452117E+04</totfact>
</mgrwt>
</event>
<event>
 5    1  0.3276024E-002  0.1249969E+03  0.7818608E-02  0.1235074E+00
          4   -1    0    0  501    0  0.00000000000E+00  0.00000000000E+00  0.45132754665E+02  0.45150619527E+02  0.12700000000E+01 0. -1.
         -4   -1    0    0    0  501 -0.00000000000E+00 -0.00000000000E+00 -0.86506279697E+02  0.86515601639E+02  0.12700000000E+01 0. -1.
         25    2    1    2    0    0  0.00000000000E+00  0.00000000000E+00 -0.41373525032E+02  0.13166622117E+03  0.12499690085E+03 0.  0.
    9000005    1    3    3    0    0 -0.11368630868E+02  0.35782485058E+02  0.31932811283E+02  0.49298442583E+02  0.10000000000E+01 0.  0.
    9000005    1    3    3    0    0  0.11368630868E+02 -0.35782485058E+02 -0.73306336315E+02  0.82367778582E+02  0.10000000000E+01 0.  0.
<mgrwt>
<rscale>  0 0.12499690E+03</rscale>
<asrwt>0</asrwt>
<pdfrwt beam="1">  1        4 0.69455920E-02 0.12499690E+03</pdfrwt>
<pdfrwt beam="2">  1       -4 0.13310750E-01 0.12499690E+03</pdfrwt>
<totfact> 0.10309549E+04</totfact>
</mgrwt>
</event>
<event>
 5    1  0.3276024E-002  0.1250039E+03  0.7818608E-02  0.1235063E+00
         -4   -1    0    0    0  501 -0.00000000000E+00  0.00000000000E+00  0.61769670135E+02  0.61782724516E+02  0.12700000000E+01 0. -1.
          4   -1    0    0  501    0  0.00000000000E+00 -0.00000000000E+00 -0.63216826232E+02  0.63229581833E+02  0.12700000000E+01 0. -1.
         25    2    1    2    0    0  0.00000000000E+00  0.00000000000E+00 -0.14471560968E+01  0.12501230635E+03  0.12500392985E+03 0.  0.
    9000005    1    3    3    0    0  0.38164803764E+02  0.13836086156E+02  0.46792825999E+02  0.61956098097E+02  0.10000000000E+01 0.  0.
    9000005    1    3    3    0    0 -0.38164803764E+02 -0.13836086156E+02 -0.48239982096E+02  0.63056208252E+02  0.10000000000E+01 0.  0.
<mgrwt>
<rscale>  0 0.12500393E+03</rscale>
<asrwt>0</asrwt>
<pdfrwt beam="2">  1        4 0.97276510E-02 0.12500393E+03</pdfrwt>
<pdfrwt beam="1">  1       -4 0.95050115E-02 0.12500393E+03</pdfrwt>
<totfact> 0.10451667E+04</totfact>
</mgrwt>
</event>
<event>
 5    1  0.3276024E-002  0.1250029E+03  0.7818608E-02  0.1235065E+00
         -4   -1    0    0    0  501 -0.00000000000E+00  0.00000000000E+00  0.38871495601E+02  0.38892236632E+02  0.12700000000E+01 0.  1.
          4   -1    0    0  501    0  0.00000000000E+00 -0.00000000000E+00 -0.10044448295E+03  0.10045251144E+03  0.12700000000E+01 0.  1.
         25    2    1    2    0    0  0.00000000000E+00  0.00000000000E+00 -0.61572987346E+02  0.13934474807E+03  0.12500290414E+03 0.  0.
    9000005    1    3    3    0    0 -0.51047916503E+02 -0.27498296271E+02 -0.56771599991E+02  0.81154547886E+02  0.10000000000E+01 0.  0.
    9000005    1    3    3    0    0  0.51047916503E+02  0.27498296271E+02 -0.48013873552E+01  0.58190200186E+02  0.10000000000E+01 0.  0.
<mgrwt>
<rscale>  0 0.12500290E+03</rscale>
<asrwt>0</asrwt>
<pdfrwt beam="2">  1        4 0.15455210E-01 0.12500290E+03</pdfrwt>
<pdfrwt beam="1">  1       -4 0.59824432E-02 0.12500290E+03</pdfrwt>
<totfact> 0.10146520E+04</totfact>
</mgrwt>
</event>
<event>
 5    1  0.3276024E-002  0.1250013E+03  0.7818608E-02  0.1235067E+00
         -4   -1    0    0    0  501 -0.00000000000E+00  0.00000000000E+00  0.69174517757E+02  0.69186174969E+02  0.12700000000E+01 0. -1.
          4   -1    0    0  501    0  0.00000000000E+00 -0.00000000000E+00 -0.56447121619E+02  0.56461406634E+02  0.12700000000E+01 0. -1.
         25    2    1    2    0    0  0.00000000000E+00  0.00000000000E+00  0.12727396138E+02  0.12564758160E+03  0.12500131259E+03 0.  0.
    9000005    1    3    3    0    0 -0.17010242017E+02  0.51904247248E+02  0.36884026222E+02  0.65915329068E+02  0.10000000000E+01 0.  0.
    9000005    1    3    3    0    0  0.17010242017E+02 -0.51904247248E+02 -0.24156630085E+02  0.59732252535E+02  0.10000000000E+01 0.  0.
<mgrwt>
<rscale>  0 0.12500131E+03</rscale>
<asrwt>0</asrwt>
<pdfrwt beam="2">  1        4 0.86861681E-02 0.12500131E+03</pdfrwt>
<pdfrwt beam="1">  1       -4 0.10644229E-01 0.12500131E+03</pdfrwt>
<totfact> 0.10438389E+04</totfact>
</mgrwt>
</event>
<event>
 5    1  0.3276024E-002  0.1250134E+03  0.7818608E-02  0.1235048E+00
         -4   -1    0    0    0  501 -0.00000000000E+00  0.00000000000E+00  0.26813216534E+03  0.26813517298E+03  0.12700000000E+01 0.  1.
          4   -1    0    0  501    0  0.00000000000E+00 -0.00000000000E+00 -0.14540728655E+02  0.14596084742E+02  0.12700000000E+01 0.  1.
         25    2    1    2    0    0  0.00000000000E+00  0.00000000000E+00  0.25359143668E+03  0.28273125772E+03  0.12501338862E+03 0.  0.
    9000005    1    3    3    0    0 -0.33612938575E+01  0.33590115061E+02  0.24575054340E+03  0.24806032272E+03  0.10000000000E+01 0.  0.
    9000005    1    3    3    0    0  0.33612938575E+01 -0.33590115061E+02  0.78408932787E+01  0.34670934998E+02  0.10000000000E+01 0.  0.
<mgrwt>
<rscale>  0 0.12501339E+03</rscale>
<asrwt>0</asrwt>
<pdfrwt beam="2">  1        4 0.22415249E-02 0.12501339E+03</pdfrwt>
<pdfrwt beam="1">  1       -4 0.41255589E-01 0.12501339E+03</pdfrwt>
<totfact> 0.77794200E+03</totfact>
</mgrwt>
</event>
<event>
 5    1  0.3276024E-002  0.1250010E+03  0.7818608E-02  0.1235068E+00
         -4   -1    0    0    0  501 -0.00000000000E+00  0.00000000000E+00  0.26253331471E+03  0.26253638650E+03  0.12700000000E+01 0.  1.
          4   -1    0    0  501    0  0.00000000000E+00 -0.00000000000E+00 -0.14849048506E+02  0.14903259426E+02  0.12700000000E+01 0.  1.
         25    2    1    2    0    0  0.00000000000E+00  0.00000000000E+00  0.24768426621E+03  0.27743964592E+03  0.12500104561E+03 0.  0.
    9000005    1    3    3    0    0  0.51160888216E+02 -0.13885461791E+02  0.50394741776E+02  0.73149658447E+02  0.10000000000E+01 0.  0.
    9000005    1    3    3    0    0 -0.51160888216E+02  0.13885461791E+02  0.19728952443E+03  0.20428998748E+03  0.10000000000E+01 0.  0.
<mgrwt>
<rscale>  0 0.12500105E+03</rscale>
<asrwt>0</asrwt>
<pdfrwt beam="2">  1        4 0.22888754E-02 0.12500105E+03</pdfrwt>
<pdfrwt beam="1">  1       -4 0.40394146E-01 0.12500105E+03</pdfrwt>
<totfact> 0.78516993E+03</totfact>
</mgrwt>
</event>
<event>
 5    1  0.3276024E-002  0.1249885E+03  0.7818608E-02  0.1235087E+00
          4   -1    0    0  501    0  0.00000000000E+00  0.00000000000E+00  0.15245461455E+02  0.15298267712E+02  0.12700000000E+01 0. -1.
         -4   -1    0    0    0  501 -0.00000000000E+00 -0.00000000000E+00 -0.25567929683E+03  0.25568245096E+03  0.12700000000E+01 0. -1.
         25    2    1    2    0    0  0.00000000000E+00  0.00000000000E+00 -0.24043383538E+03  0.27098071867E+03  0.12498848226E+03 0.  0.
    9000005    1    3    3    0    0 -0.22699647305E+02  0.55650580983E+02 -0.83152277404E+02  0.10260391020E+03  0.10000000000E+01 0.  0.
    9000005    1    3    3    0    0  0.22699647305E+02 -0.55650580983E+02 -0.15728155797E+03  0.16837680847E+03  0.10000000000E+01 0.  0.
<mgrwt>
<rscale>  0 0.12498848E+03</rscale>
<asrwt>0</asrwt>
<pdfrwt beam="1">  1        4 0.23497604E-02 0.12498848E+03</pdfrwt>
<pdfrwt beam="2">  1       -4 0.39339578E-01 0.12498848E+03</pdfrwt>
<totfact> 0.79409692E+03</totfact>
</mgrwt>
</event>
<event>
 5    1  0.3276024E-002  0.1250060E+03  0.7818608E-02  0.1235060E+00
          4   -1    0    0  501    0  0.00000000000E+00  0.00000000000E+00  0.11078188911E+02  0.11150747488E+02  0.12700000000E+01 0.  1.
         -4   -1    0    0    0  501 -0.00000000000E+00 -0.00000000000E+00 -0.35141617764E+03  0.35141847249E+03  0.12700000000E+01 0.  1.
         25    2    1    2    0    0  0.00000000000E+00  0.00000000000E+00 -0.34033798873E+03  0.36256921998E+03  0.12500597067E+03 0.  0.
    9000005    1    3    3    0    0  0.59184265945E+02  0.13672607565E+02 -0.12755108200E+03  0.14127985013E+03  0.10000000000E+01 0.  0.
    9000005    1    3    3    0    0 -0.59184265945E+02 -0.13672607565E+02 -0.21278690673E+03  0.22128936985E+03  0.10000000000E+01 0.  0.
<mgrwt>
<rscale>  0 0.12500597E+03</rscale>
<asrwt>0</asrwt>
<pdfrwt beam="1">  1        4 0.17100950E-02 0.12500597E+03</pdfrwt>
<pdfrwt beam="2">  1       -4 0.54069777E-01 0.12500597E+03</pdfrwt>
<totfact> 0.68354545E+03</totfact>
</mgrwt>
</event>
<event>
 5    1  0.3276024E-002  0.1249975E+03  0.7818608E-02  0.1235073E+00
         -4   -1    0    0    0  501 -0.00000000000E+00  0.00000000000E+00  0.47612380021E+03  0.47612549399E+03  0.12700000000E+01 0. -1.
          4   -1    0    0  501    0  0.00000000000E+00 -0.00000000000E+00 -0.81530714775E+01  0.82513922775E+01  0.12700000000E+01 0. -1.
         25    2    1    2    0    0  0.00000000000E+00  0.00000000000E+00  0.46797072873E+03  0.48437688627E+03  0.12499745997E+03 0.  0.
    9000005    1    3    3    0    0  0.89232880357E+01 -0.26123943667E+02  0.16737852715E+02  0.32299244815E+02  0.10000000000E+01 0.  0.
    9000005    1    3    3    0    0 -0.89232880357E+01  0.26123943667E+02  0.45123287602E+03  0.45207764145E+03  0.10000000000E+01 0.  0.
<mgrwt>
<rscale>  0 0.12499746E+03</rscale>
<asrwt>0</asrwt>
<pdfrwt beam="2">  1        4 0.12620117E-02 0.12499746E+03</pdfrwt>
<pdfrwt beam="1">  1       -4 0.73257532E-01 0.12499746E+03</pdfrwt>
<totfact> 0.57100412E+03</totfact>
</mgrwt>
</event>
<event>
 5    1  0.3276024E-002  0.1250007E+03  0.7818608E-02  0.1235068E+00
          4   -1    0    0  501    0  0.00000000000E+00  0.00000000000E+00  0.19696618553E+03  0.19697027985E+03  0.12700000000E+01 0.  1.
         -4   -1    0    0    0  501 -0.00000000000E+00 -0.00000000000E+00 -0.19807656313E+02  0.19848328610E+02  0.12700000000E+01 0.  1.
         25    2    1    2    0    0  0.00000000000E+00  0.00000000000E+00  0.17715852922E+03  0.21681860846E+03  0.12500065799E+03 0.  0.
    9000005    1    3    3    0    0  0.74282202013E+01 -0.13359733991E+01  0.19618125014E+03  0.19632892345E+03  0.10000000000E+01 0.  0.
    9000005    1    3    3    0    0 -0.74282202013E+01  0.13359733991E+01 -0.19022720918E+02  0.20489685000E+02  0.10000000000E+01 0.  0.
<mgrwt>
<rscale>  0 0.12500066E+03</rscale>
<asrwt>0</asrwt>
<pdfrwt beam="1">  1        4 0.30305934E-01 0.12500066E+03</pdfrwt>
<pdfrwt beam="2">  1       -4 0.30507753E-02 0.12500066E+03</pdfrwt>
<totfact> 0.87372994E+03</totfact>
</mgrwt>
</event>
<event>
 5    1  0.3276024E-002  0.1249833E+03  0.7818608E-02  0.1235095E+00
         -4   -1    0    0    0  501 -0.00000000000E+00  0.00000000000E+00  0.10743213070E+03  0.10743963704E+03  0.12700000000E+01 0.  1.
          4   -1    0    0  501    0  0.00000000000E+00 -0.00000000000E+00 -0.36330591896E+02  0.36352782665E+02  0.12700000000E+01 0.  1.
         25    2    1    2    0    0  0.00000000000E+00  0.00000000000E+00  0.71101538806E+02  0.14379241970E+03  0.12498332346E+03 0.  0.
    9000005    1    3    3    0    0 -0.91292398186E+01 -0.60166998744E+02  0.19247955773E+02  0.63834900790E+02  0.10000000000E+01 0.  0.
    9000005    1    3    3    0    0  0.91292398186E+01  0.60166998744E+02  0.51853583034E+02  0.79957518914E+02  0.10000000000E+01 0.  0.
<mgrwt>
<rscale>  0 0.12498332E+03</rscale>
<asrwt>0</asrwt>
<pdfrwt beam="2">  1        4 0.55916064E-02 0.12498332E+03</pdfrwt>
<pdfrwt beam="1">  1       -4 0.16530304E-01 0.12498332E+03</pdfrwt>
<totfact> 0.10059359E+04</totfact>
</mgrwt>
</event>
<event>
 5    1  0.3276024E-002  0.1249980E+03  0.7818608E-02  0.1235072E+00
         -4   -1    0    0    0  501 -0.00000000000E+00  0.00000000000E+00  0.11202312326E+02  0.11274072088E+02  0.12700000000E+01 0. -1.
          4   -1    0    0  501    0  0.00000000000E+00 -0.00000000000E+00 -0.34750308203E+03  0.34750540273E+03  0.12700000000E+01 0. -1.
         25    2    1    2    0    0  0.00000000000E+00  0.00000000000E+00 -0.33630076971E+03  0.35877947481E+03  0.12499801535E+03 0.  0.
    9000005    1    3    3    0    0 -0.50372959777E+02  0.28385598775E+02 -0.23619171490E+03  0.24316805604E+03  0.10000000000E+01 0.  0.
    9000005    1    3    3    0    0  0.50372959777E+02 -0.28385598775E+02 -0.10010905481E+03  0.11561141877E+03  0.10000000000E+01 0.  0.
<mgrwt>
<rscale>  0 0.12499802E+03</rscale>
<asrwt>0</asrwt>
<pdfrwt beam="2">  1        4 0.53467703E-01 0.12499802E+03</pdfrwt>
<pdfrwt beam="1">  1       -4 0.17291314E-02 0.12499802E+03</pdfrwt>
<totfact> 0.68772407E+03</totfact>
</mgrwt>
</event>
<event>
 5    1  0.3276024E-002  0.1249981E+03  0.7818608E-02  0.1235072E+00
         -4   -1    0    0    0  501 -0.00000000000E+00  0.00000000000E+00  0.18001102902E+02  0.18045847325E+02  0.12700000000E+01 0. -1.
          4   -1    0    0  501    0  0.00000000000E+00 -0.00000000000E+00 -0.21667799656E+03  0.21668171841E+03  0.12700000000E+01 0. -1.
         25    2    1    2    0    0  0.00000000000E+00  0.00000000000E+00 -0.19867689365E+03  0.23472756573E+03  0.12499808815E+03 0.  0.
    9000005    1    3    3    0    0 -0.20365767996E+02  0.37397022730E+02 -0.13452168805E+02  0.44668363085E+02  0.10000000000E+01 0.  0.
    9000005    1    3    3    0    0  0.20365767996E+02 -0.37397022730E+02 -0.18522472485E+03  0.19005920265E+03  0.10000000000E+01 0.  0.
<mgrwt>
<rscale>  0 0.12499809E+03</rscale>
<asrwt>0</asrwt>
<pdfrwt beam="2">  1        4 0.33338803E-01 0.12499809E+03</pdfrwt>
<pdfrwt beam="1">  1       -4 0.27731288E-02 0.12499809E+03</pdfrwt>
<totfact> 0.84592530E+03</totfact>
</mgrwt>
</event>
<event>
 5    1  0.3276024E-002  0.1249968E+03  0.7818608E-02  0.1235074E+00
          4   -1    0    0  501    0  0.00000000000E+00  0.00000000000E+00  0.12239792498E+03  0.12240451355E+03  0.12700000000E+01 0. -1.
         -4   -1    0    0    0  501 -0.00000000000E+00 -0.00000000000E+00 -0.31892641888E+02  0.31917918268E+02  0.12700000000E+01 0. -1.
         25    2    1    2    0    0  0.00000000000E+00  0.00000000000E+00  0.90505283088E+02  0.15432243182E+03  0.12499682675E+03 0.  0.
    9000005    1    3    3    0    0  0.33637063415E+02  0.39690787231E+02  0.25158251495E+01  0.52097408787E+02  0.10000000000E+01 0.  0.
    9000005    1    3    3    0    0 -0.33637063415E+02 -0.39690787231E+02  0.87989457938E+02  0.10222502303E+03  0.10000000000E+01 0.  0.
<mgrwt>
<rscale>  0 0.12499683E+03</rscale>
<asrwt>0</asrwt>
<pdfrwt beam="1">  1        4 0.18832901E-01 0.12499683E+03</pdfrwt>
<pdfrwt beam="2">  1       -4 0.49090114E-02 0.12499683E+03</pdfrwt>
<totfact> 0.98455705E+03</totfact>
</mgrwt>
</event>
<event>
 5    1  0.3276024E-002  0.1250041E+03  0.7818608E-02  0.1235063E+00
          4   -1    0    0  501    0  0.00000000000E+00  0.00000000000E+00  0.10883899638E+04  0.10883907048E+04  0.12700000000E+01 0.  1.
         -4   -1    0    0    0  501 -0.00000000000E+00 -0.00000000000E+00 -0.34761464630E+01  0.37008774949E+01  0.12700000000E+01 0.  1.
         25    2    1    2    0    0  0.00000000000E+00  0.00000000000E+00  0.10849138174E+04  0.10920915823E+04  0.12500413184E+03 0.  0.
    9000005    1    3    3    0    0  0.50783828115E+02  0.35813623783E+02  0.60033899607E+03  0.60354744888E+03  0.10000000000E+01 0.  0.
    9000005    1    3    3    0    0 -0.50783828115E+02 -0.35813623783E+02  0.48457482129E+03  0.48854413340E+03  0.10000000000E+01 0.  0.
<mgrwt>
<rscale>  0 0.12500413E+03</rscale>
<asrwt>0</asrwt>
<pdfrwt beam="1">  1        4 0.16746175E+00 0.12500413E+03</pdfrwt>
<pdfrwt beam="2">  1       -4 0.55213642E-03 0.12500413E+03</pdfrwt>
<totfact> 0.27713542E+03</totfact>
</mgrwt>
</event>
<event>
 5    1  0.3276024E-002  0.1249966E+03  0.7818608E-02  0.1235075E+00
         -4   -1    0    0    0  501 -0.00000000000E+00  0.00000000000E+00  0.35233307748E+03  0.35233536636E+03  0.12700000000E+01 0.  1.
          4   -1    0    0  501    0  0.00000000000E+00 -0.00000000000E+00 -0.11047499402E+02  0.11120258227E+02  0.12700000000E+01 0.  1.
         25    2    1    2    0    0  0.00000000000E+00  0.00000000000E+00  0.34128557808E+03  0.36345562458E+03  0.12499658091E+03 0.  0.
    9000005    1    3    3    0    0  0.90771263654E+01 -0.61826757792E+02  0.17153479007E+03  0.18256540309E+03  0.10000000000E+01 0.  0.
    9000005    1    3    3    0    0 -0.90771263654E+01  0.61826757792E+02  0.16975078801E+03  0.18089022149E+03  0.10000000000E+01 0.  0.
<mgrwt>
<rscale>  0 0.12499658E+03</rscale>
<asrwt>0</asrwt>
<pdfrwt beam="2">  1        4 0.17053883E-02 0.12499658E+03</pdfrwt>
<pdfrwt beam="1">  1       -4 0.54210859E-01 0.12499658E+03</pdfrwt>
<totfact> 0.68274366E+03</totfact>
</mgrwt>
</event>
<event>
 5    1  0.3276024E-002  0.1250007E+03  0.7818608E-02  0.1235068E+00
         -4   -1    0    0    0  501 -0.00000000000E+00  0.00000000000E+00  0.64364610741E+03  0.64364736035E+03  0.12700000000E+01 0. -1.
          4   -1    0    0  501    0  0.00000000000E+00 -0.00000000000E+00 -0.60012931487E+01  0.61342008002E+01  0.12700000000E+01 0. -1.
         25    2    1    2    0    0  0.00000000000E+00  0.00000000000E+00  0.63764481426E+03  0.64978156115E+03  0.12500067222E+03 0.  0.
    9000005    1    3    3    0    0 -0.56383474136E+02 -0.26021851456E+02  0.35523191799E+03  0.36062022748E+03  0.10000000000E+01 0.  0.
    9000005    1    3    3    0    0  0.56383474136E+02  0.26021851456E+02  0.28241289627E+03  0.28916133366E+03  0.10000000000E+01 0.  0.
<mgrwt>
<rscale>  0 0.12500067E+03</rscale>
<asrwt>0</asrwt>
<pdfrwt beam="2">  1        4 0.93359642E-03 0.12500067E+03</pdfrwt>
<pdfrwt beam="1">  1       -4 0.99032745E-01 0.12500067E+03</pdfrwt>
<totfact> 0.45868002E+03</totfact>
</mgrwt>
</event>
<event>
 5    1  0.3276024E-002  0.1249939E+03  0.7818608E-02  0.1235079E+00
         -4   -1    0    0    0  501 -0.00000000000E+00  0.00000000000E+00  0.98493585560E+01  0.99308994539E+01  0.12700000000E+01 0. -1.
          4   -1    0    0  501    0  0.00000000000E+00 -0.00000000000E+00 -0.39484315703E+03  0.39484519948E+03  0.12700000000E+01 0. -1.
         25    2    1    2    0    0  0.00000000000E+00  0.00000000000E+00 -0.38499379848E+03  0.40477609894E+03  0.12499386147E+03 0.  0.
    9000005    1    3    3    0    0 -0.24872242952E+02  0.56298857039E+02 -0.22747675524E+03  0.23565836278E+03  0.10000000000E+01 0.  0.
    9000005    1    3    3    0    0  0.24872242952E+02 -0.56298857039E+02 -0.15751704324E+03  0.16911773616E+03  0.10000000000E+01 0.  0.
<mgrwt>
<rscale>  0 0.12499386E+03</rscale>
<asrwt>0</asrwt>
<pdfrwt beam="2">  1        4 0.60751518E-01 0.12499386E+03</pdfrwt>
<pdfrwt beam="1">  1       -4 0.15217157E-02 0.12499386E+03</pdfrwt>
<totfact> 0.64099597E+03</totfact>
</mgrwt>
</event>
<event>
 5    1  0.3276024E-002  0.1250048E+03  0.7818608E-02  0.1235062E+00
          4   -1    0    0  501    0  0.00000000000E+00  0.00000000000E+00  0.34240761299E+01  0.36520127798E+01  0.12700000000E+01 0. -1.
         -4   -1    0    0    0  501 -0.00000000000E+00 -0.00000000000E+00 -0.11039275577E+04  0.11039282882E+04  0.12700000000E+01 0. -1.
         25    2    1    2    0    0  0.00000000000E+00  0.00000000000E+00 -0.11005034815E+04  0.11075803010E+04  0.12500484083E+03 0.  0.
    9000005    1    3    3    0    0  0.27375351500E+02 -0.40130002481E+02 -0.89860075812E+03  0.89991341220E+03  0.10000000000E+01 0.  0.
    9000005    1    3    3    0    0 -0.27375351500E+02  0.40130002481E+02 -0.20190272342E+03  0.20766688877E+03  0.10000000000E+01 0.  0.
<mgrwt>
<rscale>  0 0.12500484E+03</rscale>
<asrwt>0</asrwt>
<pdfrwt beam="1">  1        4 0.54437161E-03 0.12500484E+03</pdfrwt>
<pdfrwt beam="2">  1       -4 0.16985232E+00 0.12500484E+03</pdfrwt>
<totfact> 0.27259766E+03</totfact>
</mgrwt>
</event>
<event>
 5    1  0.3276024E-002  0.1250003E+03  0.7818608E-02  0.1235069E+00
         -4   -1    0    0    0  501 -0.00000000000E+00  0.00000000000E+00  0.61711203353E+02  0.61724270099E+02  0.12700000000E+01 0. -1.
          4   -1    0    0  501    0  0.00000000000E+00 -0.00000000000E+00 -0.63273012041E+02  0.63285756318E+02  0.12700000000E+01 0. -1.
         25    2    1    2    0    0  0.00000000000E+00  0.00000000000E+00 -0.15618086889E+01  0.12501002642E+03  0.12500026983E+03 0.  0.
    9000005    1    3    3    0    0 -0.45721723075E+02 -0.31234323948E+02 -0.29752250893E+02  0.62866965782E+02  0.10000000000E+01 0.  0.
    9000005    1    3    3    0    0  0.45721723075E+02  0.31234323948E+02  0.28190442204E+02  0.62143060635E+02  0.10000000000E+01 0.  0.
<mgrwt>
<rscale>  0 0.12500027E+03</rscale>
<asrwt>0</asrwt>
<pdfrwt beam="2">  1        4 0.97362951E-02 0.12500027E+03</pdfrwt>
<pdfrwt beam="1">  1       -4 0.94960167E-02 0.12500027E+03</pdfrwt>
<totfact> 0.10452581E+04</totfact>
</mgrwt>
</event>
<event>
 5    1  0.3276024E-002  0.1250134E+03  0.7818608E-02  0.1235048E+00
          4   -1    0    0  501    0  0.00000000000E+00  0.00000000000E+00  0.54884539310E+01  0.56334737554E+01  0.12700000000E+01 0.  1.
         -4   -1    0    0    0  501 -0.00000000000E+00 -0.00000000000E+00 -0.70244611616E+03  0.70244726422E+03  0.12700000000E+01 0.  1.
         25    2    1    2    0    0  0.00000000000E+00  0.00000000000E+00 -0.69695766223E+03  0.70808073797E+03  0.12501339348E+03 0.  0.
    9000005    1    3    3    0    0 -0.54571577646E+01  0.42117037493E+02 -0.60818979537E+03  0.60967159407E+03  0.10000000000E+01 0.  0.
    9000005    1    3    3    0    0  0.54571577646E+01 -0.42117037493E+02 -0.88767866855E+02  0.98409143905E+02  0.10000000000E+01 0.  0.
<mgrwt>
<rscale>  0 0.12501339E+03</rscale>
<asrwt>0</asrwt>
<pdfrwt beam="1">  1        4 0.85562177E-03 0.12501339E+03</pdfrwt>
<pdfrwt beam="2">  1       -4 0.10807981E+00 0.12501339E+03</pdfrwt>
<totfact> 0.42651070E+03</totfact>
</mgrwt>
</event>
<event>
 5    1  0.3276024E-002  0.1249998E+03  0.7818608E-02  0.1235070E+00
         -4   -1    0    0    0  501 -0.00000000000E+00  0.00000000000E+00  0.16388793036E+03  0.16389285103E+03  0.12700000000E+01 0. -1.
          4   -1    0    0  501    0  0.00000000000E+00 -0.00000000000E+00 -0.23812595412E+02  0.23846437894E+02  0.12700000000E+01 0. -1.
         25    2    1    2    0    0  0.00000000000E+00  0.00000000000E+00  0.14007533495E+03  0.18773928893E+03  0.12499976458E+03 0.  0.
    9000005    1    3    3    0    0  0.58705504995E+02  0.21387724111E+02  0.71855065845E+02  0.95225634926E+02  0.10000000000E+01 0.  0.
    9000005    1    3    3    0    0 -0.58705504995E+02 -0.21387724111E+02  0.68220269107E+02  0.92513654000E+02  0.10000000000E+01 0.  0.
<mgrwt>
<rscale>  0 0.12499976E+03</rscale>
<asrwt>0</asrwt>
<pdfrwt beam="2">  1        4 0.36664580E-02 0.12499976E+03</pdfrwt>
<pdfrwt beam="1">  1       -4 0.25216509E-01 0.12499976E+03</pdfrwt>
<totfact> 0.92242651E+03</totfact>
</mgrwt>
</event>
<event>
 5    1  0.3276024E-002  0.1250003E+03  0.7818608E-02  0.1235069E+00
         -4   -1    0    0    0  501 -0.00000000000E+00  0.00000000000E+00  0.27306543038E+02  0.27336060299E+02  0.12700000000E+01 0. -1.
          4   -1    0    0  501    0  0.00000000000E+00 -0.00000000000E+00 -0.14294281533E+03  0.14294845698E+03  0.12700000000E+01 0. -1.
         25    2    1    2    0    0  0.00000000000E+00  0.00000000000E+00 -0.11563627229E+03  0.17028451728E+03  0.12500027743E+03 0.  0.
    9000005    1    3    3    0    0 -0.10055210184E+02 -0.41894147412E+02 -0.11948323853E+03  0.12701760165E+03  0.10000000000E+01 0.  0.
    9000005    1    3    3    0    0  0.10055210184E+02  0.41894147412E+02  0.38469662387E+01  0.43266915634E+02  0.10000000000E+01 0.  0.
<mgrwt>
<rscale>  0 0.12500028E+03</rscale>
<asrwt>0</asrwt>
<pdfrwt beam="2">  1        4 0.21993907E-01 0.12500028E+03</pdfrwt>
<pdfrwt beam="1">  1       -4 0.42037112E-02 0.12500028E+03</pdfrwt>
<totfact> 0.95395039E+03</totfact>
</mgrwt>
</event>
<event>
 5    1  0.3276024E-002  0.1250085E+03  0.7818608E-02  0.1235056E+00
          4   -1    0    0  501    0  0.00000000000E+00  0.00000000000E+00  0.51731332731E+01  0.53267445839E+01  0.12700000000E+01 0. -1.
         -4   -1    0    0    0  501 -0.00000000000E+00 -0.00000000000E+00 -0.74400274060E+03  0.74400382453E+03  0.12700000000E+01 0. -1.
         25    2    1    2    0    0  0.00000000000E+00  0.00000000000E+00 -0.73882960733E+03  0.74933056912E+03  0.12500845232E+03 0.  0.
    9000005    1    3    3    0    0  0.16966831250E+02 -0.59953071807E+02 -0.39849403505E+03  0.40333700568E+03  0.10000000000E+01 0.  0.
    9000005    1    3    3    0    0 -0.16966831250E+02  0.59953071807E+02 -0.34033557227E+03  0.34599356343E+03  0.10000000000E+01 0.  0.
<mgrwt>
<rscale>  0 0.12500845E+03</rscale>
<asrwt>0</asrwt>
<pdfrwt beam="1">  1        4 0.80776688E-03 0.12500845E+03</pdfrwt>
<pdfrwt beam="2">  1       -4 0.11447378E+00 0.12500845E+03</pdfrwt>
<totfact> 0.40598696E+03</totfact>
</mgrwt>
</event>
<event>
 4    1  0.3276024E-002  0.1248126E+03  0.7818608E-02  0.1235362E+00
          4   -1    0    0  501    0  0.00000000000E+00  0.00000000000E+00  0.24922165329E+03  0.24922488915E+03  0.12700000000E+01 0. -1.
         -4   -1    0    0    0  501 -0.00000000000E+00 -0.00000000000E+00 -0.15597694208E+02  0.15649311953E+02  0.12700000000E+01 0. -1.
    9000005    1    1    2    0    0  0.53763897709E+02  0.30065196366E+02  0.95688682253E+02  0.11380596048E+03  0.10000000000E+01 0.  0.
    9000005    1    1    2    0    0 -0.53763897709E+02 -0.30065196366E+02  0.13793527683E+03  0.15106824062E+03  0.10000000000E+01 0.  0.
<mgrwt>
<rscale>  0 0.12481261E+03</rscale>
<asrwt>0</asrwt>
<pdfrwt beam="1">  1        4 0.38346014E-01 0.12481261E+03</pdfrwt>
<pdfrwt beam="2">  1       -4 0.24038647E-02 0.12481261E+03</pdfrwt>
<totfact> 0.80562310E+03</totfact>
</mgrwt>
</event>
<event>
 5    1  0.3276024E-002  0.1250023E+03  0.7818608E-02  0.1235066E+00
         -4   -1    0    0    0  501 -0.00000000000E+00  0.00000000000E+00  0.47229113557E+03  0.47229284309E+03  0.12700000000E+01 0. -1.
          4   -1    0    0  501    0  0.00000000000E+00 -0.00000000000E+00 -0.82206682864E+01  0.83181901321E+01  0.12700000000E+01 0. -1.
         25    2    1    2    0    0  0.00000000000E+00  0.00000000000E+00  0.46407046728E+03  0.48061103323E+03  0.12500226660E+03 0.  0.
    9000005    1    3    3    0    0 -0.55202667039E+02 -0.14491729661E+02  0.32991188364E+03  0.33481367302E+03  0.10000000000E+01 0.  0.
    9000005    1    3    3    0    0  0.55202667039E+02  0.14491729661E+02  0.13415858365E+03  0.14579736020E+03  0.10000000000E+01 0.  0.
<mgrwt>
<rscale>  0 0.12500227E+03</rscale>
<asrwt>0</asrwt>
<pdfrwt beam="2">  1        4 0.12723512E-02 0.12500227E+03</pdfrwt>
<pdfrwt beam="1">  1       -4 0.72667808E-01 0.12500227E+03</pdfrwt>
<totfact> 0.57397866E+03</totfact>
</mgrwt>
</event>
<event>
 5    1  0.3276024E-002  0.1249986E+03  0.7818608E-02  0.1235071E+00
          4   -1    0    0  501    0  0.00000000000E+00  0.00000000000E+00  0.22343179525E+03  0.22343540460E+03  0.12700000000E+01 0. -1.
         -4   -1    0    0    0  501 -0.00000000000E+00 -0.00000000000E+00 -0.17455756881E+02  0.17501895563E+02  0.12700000000E+01 0. -1.
         25    2    1    2    0    0  0.00000000000E+00  0.00000000000E+00  0.20597603836E+03  0.24093730016E+03  0.12499861690E+03 0.  0.
    9000005    1    3    3    0    0  0.55307962019E+02  0.36566949974E+01  0.15861362959E+03  0.16802269363E+03  0.10000000000E+01 0.  0.
    9000005    1    3    3    0    0 -0.55307962019E+02 -0.36566949974E+01  0.47362408771E+02  0.72914606531E+02  0.10000000000E+01 0.  0.
<mgrwt>
<rscale>  0 0.12499862E+03</rscale>
<asrwt>0</asrwt>
<pdfrwt beam="1">  1        4 0.34377947E-01 0.12499862E+03</pdfrwt>
<pdfrwt beam="2">  1       -4 0.26893280E-02 0.12499862E+03</pdfrwt>
<totfact> 0.83660552E+03</totfact>
</mgrwt>
</event>
<event>
 5    1  0.3276024E-002  0.1250004E+03  0.7818608E-02  0.1235069E+00
         -4   -1    0    0    0  501 -0.00000000000E+00  0.00000000000E+00  0.14242951787E+02  0.14299460676E+02  0.12700000000E+01 0.  1.
          4   -1    0    0  501    0  0.00000000000E+00 -0.00000000000E+00 -0.27365920759E+03  0.27366215448E+03  0.12700000000E+01 0.  1.
         25    2    1    2    0    0  0.00000000000E+00  0.00000000000E+00 -0.25941625580E+03  0.28796161516E+03  0.12500039213E+03 0.  0.
    9000005    1    3    3    0    0  0.53416448085E+01  0.38448621472E+02 -0.16887608859E+02  0.42344078633E+02  0.10000000000E+01 0.  0.
    9000005    1    3    3    0    0 -0.53416448085E+01 -0.38448621472E+02 -0.24252864694E+03  0.24561753653E+03  0.10000000000E+01 0.  0.
<mgrwt>
<rscale>  0 0.12500039E+03</rscale>
<asrwt>0</asrwt>
<pdfrwt beam="2">  1        4 0.42105986E-01 0.12500039E+03</pdfrwt>
<pdfrwt beam="1">  1       -4 0.21957971E-02 0.12500039E+03</pdfrwt>
<totfact> 0.77133488E+03</totfact>
</mgrwt>
</event>
<event>
 5    1  0.3276024E-002  0.1250004E+03  0.7818608E-02  0.1235069E+00
         -4   -1    0    0    0  501 -0.00000000000E+00  0.00000000000E+00  0.29444414243E+02  0.29471790413E+02  0.12700000000E+01 0. -1.
          4   -1    0    0  501    0  0.00000000000E+00 -0.00000000000E+00 -0.13257403366E+03  0.13258011653E+03  0.12700000000E+01 0. -1.
         25    2    1    2    0    0  0.00000000000E+00  0.00000000000E+00 -0.10312961941E+03  0.16205190695E+03  0.12500040858E+03 0.  0.
    9000005    1    3    3    0    0  0.54853652292E+02  0.29578998501E+02 -0.45562662732E+02  0.77206195071E+02  0.10000000000E+01 0.  0.
    9000005    1    3    3    0    0 -0.54853652292E+02 -0.29578998501E+02 -0.57566956681E+02  0.84845711875E+02  0.10000000000E+01 0.  0.
<mgrwt>
<rscale>  0 0.12500041E+03</rscale>
<asrwt>0</asrwt>
<pdfrwt beam="2">  1        4 0.20398579E-01 0.12500041E+03</pdfrwt>
<pdfrwt beam="1">  1       -4 0.45324837E-02 0.12500041E+03</pdfrwt>
<totfact> 0.96947756E+03</totfact>
</mgrwt>
</event>
<event>
 5    1  0.3276024E-002  0.1250008E+03  0.7818608E-02  0.1235068E+00
         -4   -1    0    0    0  501 -0.00000000000E+00  0.00000000000E+00  0.23628491459E+03  0.23628832760E+03  0.12700000000E+01 0.  1.
          4   -1    0    0  501    0  0.00000000000E+00 -0.00000000000E+00 -0.16504236866E+02  0.16553027957E+02  0.12700000000E+01 0.  1.
         25    2    1    2    0    0  0.00000000000E+00  0.00000000000E+00  0.21978067772E+03  0.25284135556E+03  0.12500081912E+03 0.  0.
    9000005    1    3    3    0    0 -0.17621315912E+02  0.32734377321E+02  0.82852465141E+01  0.38101122593E+02  0.10000000000E+01 0.  0.
    9000005    1    3    3    0    0  0.17621315912E+02 -0.32734377321E+02  0.21149543121E+03  0.21474023297E+03  0.10000000000E+01 0.  0.
<mgrwt>
<rscale>  0 0.12500082E+03</rscale>
<asrwt>0</asrwt>
<pdfrwt beam="2">  1        4 0.25431293E-02 0.12500082E+03</pdfrwt>
<pdfrwt beam="1">  1       -4 0.36355538E-01 0.12500082E+03</pdfrwt>
<totfact> 0.81919797E+03</totfact>
</mgrwt>
</event>
<event>
 5    1  0.3276024E-002  0.1250023E+03  0.7818608E-02  0.1235066E+00
         -4   -1    0    0    0  501 -0.00000000000E+00  0.00000000000E+00  0.65776465316E+02  0.65788724637E+02  0.12700000000E+01 0.  1.
          4   -1    0    0  501    0  0.00000000000E+00 -0.00000000000E+00 -0.59364298512E+02  0.59377881722E+02  0.12700000000E+01 0.  1.
         25    2    1    2    0    0  0.00000000000E+00  0.00000000000E+00  0.64121668036E+01  0.12516660636E+03  0.12500225384E+03 0.  0.
    9000005    1    3    3    0    0  0.10249910677E+01 -0.36673954883E+02 -0.47450562711E+02  0.59988211134E+02  0.10000000000E+01 0.  0.
    9000005    1    3    3    0    0 -0.10249910677E+01  0.36673954883E+02  0.53862729514E+02  0.65178395226E+02  0.10000000000E+01 0.  0.
<mgrwt>
<rscale>  0 0.12500225E+03</rscale>
<asrwt>0</asrwt>
<pdfrwt beam="2">  1        4 0.91349569E-02 0.12500225E+03</pdfrwt>
<pdfrwt beam="1">  1       -4 0.10121444E-01 0.12500225E+03</pdfrwt>
<totfact> 0.10448713E+04</totfact>
</mgrwt>
</event>
<event>
 5    1  0.3276024E-002  0.1250008E+03  0.7818608E-02  0.1235068E+00
         -4   -1    0    0    0  501 -0.00000000000E+00  0.00000000000E+00  0.98744081475E+01  0.99557438830E+01  0.12700000000E+01 0.  1.
          4   -1    0    0  501    0  0.00000000000E+00 -0.00000000000E+00 -0.39389371321E+03  0.39389576059E+03  0.12700000000E+01 0.  1.
         25    2    1    2    0    0  0.00000000000E+00  0.00000000000E+00 -0.38401930506E+03  0.40385150447E+03  0.12500084400E+03 0.  0.
    9000005    1    3    3    0    0  0.41642118419E+02  0.38041494189E+02 -0.27894621594E+03  0.28459306508E+03  0.10000000000E+01 0.  0.
    9000005    1    3    3    0    0 -0.41642118419E+02 -0.38041494189E+02 -0.10507308912E+03  0.11925843938E+03  0.10000000000E+01 0.  0.
<mgrwt>
<rscale>  0 0.12500084E+03</rscale>
<asrwt>0</asrwt>
<pdfrwt beam="2">  1        4 0.60605435E-01 0.12500084E+03</pdfrwt>
<pdfrwt beam="1">  1       -4 0.15255541E-02 0.12500084E+03</pdfrwt>
<totfact> 0.64178722E+03</totfact>
</mgrwt>
</event>
<event>
 5    1  0.3276024E-002  0.1250003E+03  0.7818608E-02  0.1235069E+00
         -4   -1    0    0    0  501 -0.00000000000E+00  0.00000000000E+00  0.30350683145E+02  0.30377242590E+02  0.12700000000E+01 0.  1.
          4   -1    0    0  501    0  0.00000000000E+00 -0.00000000000E+00 -0.12861840808E+03  0.12862467803E+03  0.12700000000E+01 0.  1.
         25    2    1    2    0    0  0.00000000000E+00  0.00000000000E+00 -0.98267724937E+02  0.15900192062E+03  0.12500025998E+03 0.  0.
    9000005    1    3    3    0    0 -0.12135801459E+02 -0.52370428026E+02 -0.89665522147E+02  0.10455068278E+03  0.10000000000E+01 0.  0.
    9000005    1    3    3    0    0  0.12135801459E+02  0.52370428026E+02 -0.86022027895E+01  0.54451237833E+02  0.10000000000E+01 0.  0.
<mgrwt>
<rscale>  0 0.12500026E+03</rscale>
<asrwt>0</asrwt>
<pdfrwt beam="2">  1        4 0.19789972E-01 0.12500026E+03</pdfrwt>
<pdfrwt beam="1">  1       -4 0.46718613E-02 0.12500026E+03</pdfrwt>
<totfact> 0.97534982E+03</totfact>
</mgrwt>
</event>
<event>
 5    1  0.3276024E-002  0.1249768E+03  0.7818608E-02  0.1235106E+00
         -4   -1    0    0    0  501 -0.00000000000E+00  0.00000000000E+00  0.43144803395E+03  0.43144990312E+03  0.12700000000E+01 0. -1.
          4   -1    0    0  501    0  0.00000000000E+00 -0.00000000000E+00 -0.90039969888E+01  0.90931216738E+01  0.12700000000E+01 0. -1.
         25    2    1    2    0    0  0.00000000000E+00  0.00000000000E+00  0.42244403696E+03  0.44054302479E+03  0.12497676715E+03 0.  0.
    9000005    1    3    3    0    0  0.29264535462E+02 -0.31342750249E+02  0.51037380431E+02  0.66667797550E+02  0.10000000000E+01 0.  0.
    9000005    1    3    3    0    0 -0.29264535462E+02  0.31342750249E+02  0.37140665653E+03  0.37387522724E+03  0.10000000000E+01 0.  0.
<mgrwt>
<rscale>  0 0.12497677E+03</rscale>
<asrwt>0</asrwt>
<pdfrwt beam="2">  1        4 0.13922297E-02 0.12497677E+03</pdfrwt>
<pdfrwt beam="1">  1       -4 0.66383626E-01 0.12497677E+03</pdfrwt>
<totfact> 0.60822952E+03</totfact>
</mgrwt>
</event>
<event>
 5    1  0.3276024E-002  0.1250003E+03  0.7818608E-02  0.1235069E+00
         -4   -1    0    0    0  501 -0.00000000000E+00  0.00000000000E+00  0.73265443513E+03  0.73265553586E+03  0.12700000000E+01 0.  1.
          4   -1    0    0  501    0  0.00000000000E+00 -0.00000000000E+00 -0.52549159973E+01  0.54062040415E+01  0.12700000000E+01 0.  1.
         25    2    1    2    0    0  0.00000000000E+00  0.00000000000E+00  0.72739951914E+03  0.73806173990E+03  0.12500028584E+03 0.  0.
    9000005    1    3    3    0    0 -0.57384894403E+02  0.13104179792E+02  0.48762666407E+03  0.49116749602E+03  0.10000000000E+01 0.  0.
    9000005    1    3    3    0    0  0.57384894403E+02 -0.13104179792E+02  0.23977285507E+03  0.24689424388E+03  0.10000000000E+01 0.  0.
<mgrwt>
<rscale>  0 0.12500029E+03</rscale>
<asrwt>0</asrwt>
<pdfrwt beam="2">  1        4 0.82017073E-03 0.12500029E+03</pdfrwt>
<pdfrwt beam="1">  1       -4 0.11272780E+00 0.12500029E+03</pdfrwt>
<totfact> 0.41151495E+03</totfact>
</mgrwt>
</event>
<event>
 5    1  0.3276024E-002  0.1250029E+03  0.7818608E-02  0.1235065E+00
          4   -1    0    0  501    0  0.00000000000E+00  0.00000000000E+00  0.11478643315E+03  0.11479345859E+03  0.12700000000E+01 0. -1.
         -4   -1    0    0    0  501 -0.00000000000E+00 -0.00000000000E+00 -0.34012236807E+02  0.34035939133E+02  0.12700000000E+01 0. -1.
         25    2    1    2    0    0  0.00000000000E+00  0.00000000000E+00  0.80774196340E+02  0.14882939772E+03  0.12500287529E+03 0.  0.
    9000005    1    3    3    0    0  0.48870753999E+02 -0.38827068025E+02  0.36710085679E+02  0.72419073444E+02  0.10000000000E+01 0.  0.
    9000005    1    3    3    0    0 -0.48870753999E+02  0.38827068025E+02  0.44064110661E+02  0.76410324278E+02  0.10000000000E+01 0.  0.
<mgrwt>
<rscale>  0 0.12500288E+03</rscale>
<asrwt>0</asrwt>
<pdfrwt beam="1">  1        4 0.17661815E-01 0.12500288E+03</pdfrwt>
<pdfrwt beam="2">  1       -4 0.52350155E-02 0.12500288E+03</pdfrwt>
<totfact> 0.99531112E+03</totfact>
</mgrwt>
</event>
<event>
 5    1  0.3276024E-002  0.1250061E+03  0.7818608E-02  0.1235060E+00
          4   -1    0    0  501    0  0.00000000000E+00  0.00000000000E+00  0.24569369520E+02  0.24602171014E+02  0.12700000000E+01 0. -1.
         -4   -1    0    0    0  501 -0.00000000000E+00 -0.00000000000E+00 -0.15886270691E+03  0.15886778322E+03  0.12700000000E+01 0. -1.
         25    2    1    2    0    0  0.00000000000E+00  0.00000000000E+00 -0.13429333739E+03  0.18346995424E+03  0.12500609441E+03 0.  0.
    9000005    1    3    3    0    0 -0.31981818568E+02  0.37264243718E+02 -0.12387941670E+03  0.13326128643E+03  0.10000000000E+01 0.  0.
    9000005    1    3    3    0    0  0.31981818568E+02 -0.37264243718E+02 -0.10413920686E+02  0.50208667806E+02  0.10000000000E+01 0.  0.
<mgrwt>
<rscale>  0 0.12500609E+03</rscale>
<asrwt>0</asrwt>
<pdfrwt beam="1">  1        4 0.37828168E-02 0.12500609E+03</pdfrwt>
<pdfrwt beam="2">  1       -4 0.24443329E-01 0.12500609E+03</pdfrwt>
<totfact> 0.92983401E+03</totfact>
</mgrwt>
</event>
<event>
 5    1  0.3276024E-002  0.1249991E+03  0.7818608E-02  0.1235071E+00
          4   -1    0    0  501    0  0.00000000000E+00  0.00000000000E+00  0.36142635283E+02  0.36164941383E+02  0.12700000000E+01 0. -1.
         -4   -1    0    0    0  501 -0.00000000000E+00 -0.00000000000E+00 -0.10801770384E+03  0.10802516949E+03  0.12700000000E+01 0. -1.
         25    2    1    2    0    0  0.00000000000E+00  0.00000000000E+00 -0.71875068557E+02  0.14419011087E+03  0.12499905037E+03 0.  0.
    9000005    1    3    3    0    0 -0.20654138251E+02  0.31669644852E+01  0.31999070864E+02  0.38230401870E+02  0.10000000000E+01 0.  0.
    9000005    1    3    3    0    0  0.20654138251E+02 -0.31669644852E+01 -0.10387413942E+03  0.10595970900E+03  0.10000000000E+01 0.  0.
<mgrwt>
<rscale>  0 0.12499905E+03</rscale>
<asrwt>0</asrwt>
<pdfrwt beam="1">  1        4 0.55626956E-02 0.12499905E+03</pdfrwt>
<pdfrwt beam="2">  1       -4 0.16620398E-01 0.12499905E+03</pdfrwt>
<totfact> 0.10047684E+04</totfact>
</mgrwt>
</event>
<event>
 5    1  0.3276024E-002  0.1250003E+03  0.7818608E-02  0.1235069E+00
          4   -1    0    0  501    0  0.00000000000E+00  0.00000000000E+00  0.15754615046E+03  0.15755126919E+03  0.12700000000E+01 0.  1.
         -4   -1    0    0    0  501 -0.00000000000E+00 -0.00000000000E+00 -0.24772646231E+02  0.24805178921E+02  0.12700000000E+01 0.  1.
         25    2    1    2    0    0  0.00000000000E+00  0.00000000000E+00  0.13277350422E+03  0.18235644811E+03  0.12500028297E+03 0.  0.
    9000005    1    3    3    0    0 -0.52711275236E+02  0.25508286701E+02  0.98218957307E+02  0.11435521327E+03  0.10000000000E+01 0.  0.
    9000005    1    3    3    0    0  0.52711275236E+02 -0.25508286701E+02  0.34554546917E+02  0.68001234842E+02  0.10000000000E+01 0.  0.
<mgrwt>
<rscale>  0 0.12500028E+03</rscale>
<asrwt>0</asrwt>
<pdfrwt beam="1">  1        4 0.24240766E-01 0.12500028E+03</pdfrwt>
<pdfrwt beam="2">  1       -4 0.38140726E-02 0.12500028E+03</pdfrwt>
<totfact> 0.93193955E+03</totfact>
</mgrwt>
</event>
<event>
 5    1  0.3276024E-002  0.1250027E+03  0.7818608E-02  0.1235065E+00
         -4   -1    0    0    0  501 -0.00000000000E+00  0.00000000000E+00  0.31289843751E+03  0.31290101486E+03  0.12700000000E+01 0.  1.
          4   -1    0    0  501    0  0.00000000000E+00 -0.00000000000E+00 -0.12449692903E+02  0.12514301954E+02  0.12700000000E+01 0.  1.
         25    2    1    2    0    0  0.00000000000E+00  0.00000000000E+00  0.30044874461E+03  0.32541531681E+03  0.12500272108E+03 0.  0.
    9000005    1    3    3    0    0 -0.14277415526E+02  0.50422229751E+02  0.23885684817E+03  0.24454005759E+03  0.10000000000E+01 0.  0.
    9000005    1    3    3    0    0  0.14277415526E+02 -0.50422229751E+02  0.61591896438E+02  0.80875259220E+02  0.10000000000E+01 0.  0.
<mgrwt>
<rscale>  0 0.12500272E+03</rscale>
<asrwt>0</asrwt>
<pdfrwt beam="2">  1        4 0.19205055E-02 0.12500272E+03</pdfrwt>
<pdfrwt beam="1">  1       -4 0.48143391E-01 0.12500272E+03</pdfrwt>
<totfact> 0.72512265E+03</totfact>
</mgrwt>
</event>
<event>
 5    1  0.3276024E-002  0.1249986E+03  0.7818608E-02  0.1235071E+00
          4   -1    0    0  501    0  0.00000000000E+00  0.00000000000E+00  0.21199139012E+02  0.21237146580E+02  0.12700000000E+01 0.  1.
         -4   -1    0    0    0  501 -0.00000000000E+00 -0.00000000000E+00 -0.18405521573E+03  0.18405959724E+03  0.12700000000E+01 0.  1.
         25    2    1    2    0    0  0.00000000000E+00  0.00000000000E+00 -0.16285607672E+03  0.20529674383E+03  0.12499860520E+03 0.  0.
    9000005    1    3    3    0    0 -0.54490881245E+02  0.18775725614E+02 -0.41758949925E+02  0.71180010607E+02  0.10000000000E+01 0.  0.
    9000005    1    3    3    0    0  0.54490881245E+02 -0.18775725614E+02 -0.12109712679E+03  0.13411673322E+03  0.10000000000E+01 0.  0.
<mgrwt>
<rscale>  0 0.12499861E+03</rscale>
<asrwt>0</asrwt>
<pdfrwt beam="1">  1        4 0.32646668E-02 0.12499861E+03</pdfrwt>
<pdfrwt beam="2">  1       -4 0.28319447E-01 0.12499861E+03</pdfrwt>
<totfact> 0.89252576E+03</totfact>
</mgrwt>
</event>
<event>
 5    1  0.3276024E-002  0.1250027E+03  0.7818608E-02  0.1235065E+00
          4   -1    0    0  501    0  0.00000000000E+00  0.00000000000E+00  0.96128672975E+01  0.96963971494E+01  0.12700000000E+01 0.  1.
         -4   -1    0    0    0  501 -0.00000000000E+00 -0.00000000000E+00 -0.40453115685E+03  0.40453315039E+03  0.12700000000E+01 0.  1.
         25    2    1    2    0    0  0.00000000000E+00  0.00000000000E+00 -0.39491828955E+03  0.41422954754E+03  0.12500265049E+03 0.  0.
    9000005    1    3    3    0    0 -0.23030862244E+02 -0.54720522189E+02 -0.13280592093E+03  0.14547566394E+03  0.10000000000E+01 0.  0.
    9000005    1    3    3    0    0  0.23030862244E+02  0.54720522189E+02 -0.26211236862E+03  0.26875388360E+03  0.10000000000E+01 0.  0.
<mgrwt>
<rscale>  0 0.12500265E+03</rscale>
<asrwt>0</asrwt>
<pdfrwt beam="1">  1        4 0.14854817E-02 0.12500265E+03</pdfrwt>
<pdfrwt beam="2">  1       -4 0.62242128E-01 0.12500265E+03</pdfrwt>
<totfact> 0.63188287E+03</totfact>
</mgrwt>
</event>
<event>
 5    1  0.3276024E-002  0.1249988E+03  0.7818608E-02  0.1235071E+00
          4   -1    0    0  501    0  0.00000000000E+00  0.00000000000E+00  0.23742446986E+02  0.23776389315E+02  0.12700000000E+01 0. -1.
         -4   -1    0    0    0  501 -0.00000000000E+00 -0.00000000000E+00 -0.16436902357E+03  0.16437392984E+03  0.12700000000E+01 0. -1.
         25    2    1    2    0    0  0.00000000000E+00  0.00000000000E+00 -0.14062657659E+03  0.18815031915E+03  0.12499883421E+03 0.  0.
    9000005    1    3    3    0    0 -0.22142787123E+02 -0.34583007197E+02  0.59007832630E+00  0.41080842260E+02  0.10000000000E+01 0.  0.
    9000005    1    3    3    0    0  0.22142787123E+02  0.34583007197E+02 -0.14121665491E+03  0.14706947689E+03  0.10000000000E+01 0.  0.
<mgrwt>
<rscale>  0 0.12499883E+03</rscale>
<asrwt>0</asrwt>
<pdfrwt beam="1">  1        4 0.36556726E-02 0.12499883E+03</pdfrwt>
<pdfrwt beam="2">  1       -4 0.25290530E-01 0.12499883E+03</pdfrwt>
<totfact> 0.92172560E+03</totfact>
</mgrwt>
</event>
<event>
 5    1  0.3276024E-002  0.1250025E+03  0.7818608E-02  0.1235065E+00
         -4   -1    0    0    0  501 -0.00000000000E+00  0.00000000000E+00  0.13488988724E+02  0.13548642619E+02  0.12700000000E+01 0. -1.
          4   -1    0    0  501    0  0.00000000000E+00 -0.00000000000E+00 -0.28889973554E+03  0.28890252698E+03  0.12700000000E+01 0. -1.
         25    2    1    2    0    0  0.00000000000E+00  0.00000000000E+00 -0.27541074681E+03  0.30245116960E+03  0.12500252209E+03 0.  0.
    9000005    1    3    3    0    0 -0.30500367950E+02 -0.52512329283E+02 -0.10201456225E+03  0.11872568418E+03  0.10000000000E+01 0.  0.
    9000005    1    3    3    0    0  0.30500367950E+02  0.52512329283E+02 -0.17339618456E+03  0.18372548542E+03  0.10000000000E+01 0.  0.
<mgrwt>
<rscale>  0 0.12500252E+03</rscale>
<asrwt>0</asrwt>
<pdfrwt beam="2">  1        4 0.44450912E-01 0.12500252E+03</pdfrwt>
<pdfrwt beam="1">  1       -4 0.20800327E-02 0.12500252E+03</pdfrwt>
<totfact> 0.75288181E+03</totfact>
</mgrwt>
</event>
<event>
 5    1  0.3276024E-002  0.1250005E+03  0.7818608E-02  0.1235069E+00
         -4   -1    0    0    0  501 -0.00000000000E+00  0.00000000000E+00  0.94068969592E+01  0.94922394829E+01  0.12700000000E+01 0.  1.
          4   -1    0    0  501    0  0.00000000000E+00 -0.00000000000E+00 -0.41329535512E+03  0.41329730638E+03  0.12700000000E+01 0.  1.
         25    2    1    2    0    0  0.00000000000E+00  0.00000000000E+00 -0.40388845816E+03  0.42278954586E+03  0.12500045383E+03 0.  0.
    9000005    1    3    3    0    0 -0.30614699841E+02  0.86723441967E+01 -0.38386091167E+03  0.38517874929E+03  0.10000000000E+01 0.  0.
    9000005    1    3    3    0    0  0.30614699841E+02 -0.86723441967E+01 -0.20027546489E+02  0.37610796569E+02  0.10000000000E+01 0.  0.
<mgrwt>
<rscale>  0 0.12500045E+03</rscale>
<asrwt>0</asrwt>
<pdfrwt beam="2">  1        4 0.63590602E-01 0.12500045E+03</pdfrwt>
<pdfrwt beam="1">  1       -4 0.14539301E-02 0.12500045E+03</pdfrwt>
<totfact> 0.62394439E+03</totfact>
</mgrwt>
</event>
<event>
 5    1  0.3276024E-002  0.1249998E+03  0.7818608E-02  0.1235070E+00
         -4   -1    0    0    0  501 -0.00000000000E+00  0.00000000000E+00  0.16371249175E+02  0.16420435425E+02  0.12700000000E+01 0. -1.
          4   -1    0    0  501    0  0.00000000000E+00 -0.00000000000E+00 -0.23819481576E+03  0.23819820141E+03  0.12700000000E+01 0. -1.
         25    2    1    2    0    0  0.00000000000E+00  0.00000000000E+00 -0.22182356658E+03  0.25461863683E+03  0.12499982212E+03 0.  0.
    9000005    1    3    3    0    0 -0.51333584458E+02  0.35437045872E+02 -0.10320419564E+03  0.12059447380E+03  0.10000000000E+01 0.  0.
    9000005    1    3    3    0    0  0.51333584458E+02 -0.35437045872E+02 -0.11861937094E+03  0.13402416303E+03  0.10000000000E+01 0.  0.
<mgrwt>
<rscale>  0 0.12499982E+03</rscale>
<asrwt>0</asrwt>
<pdfrwt beam="2">  1        4 0.36649398E-01 0.12499982E+03</pdfrwt>
<pdfrwt beam="1">  1       -4 0.25226979E-02 0.12499982E+03</pdfrwt>
<totfact> 0.81667565E+03</totfact>
</mgrwt>
</event>
<event>
 5    1  0.3276024E-002  0.1249957E+03  0.7818608E-02  0.1235076E+00
         -4   -1    0    0    0  501 -0.00000000000E+00  0.00000000000E+00  0.45966905032E+02  0.45984445829E+02  0.12700000000E+01 0. -1.
          4   -1    0    0  501    0  0.00000000000E+00 -0.00000000000E+00 -0.84935253962E+02  0.84944748311E+02  0.12700000000E+01 0. -1.
         25    2    1    2    0    0  0.00000000000E+00  0.00000000000E+00 -0.38968348930E+02  0.13092919414E+03  0.12499568657E+03 0.  0.
    9000005    1    3    3    0    0 -0.35603581783E+02 -0.14102702279E+02 -0.71209233301E+02  0.80859484012E+02  0.10000000000E+01 0.  0.
    9000005    1    3    3    0    0  0.35603581783E+02  0.14102702279E+02  0.32240884371E+02  0.50069710129E+02  0.10000000000E+01 0.  0.
<mgrwt>
<rscale>  0 0.12499569E+03</rscale>
<asrwt>0</asrwt>
<pdfrwt beam="2">  1        4 0.13069042E-01 0.12499569E+03</pdfrwt>
<pdfrwt beam="1">  1       -4 0.70739112E-02 0.12499569E+03</pdfrwt>
<totfact> 0.10325612E+04</totfact>
</mgrwt>
</event>
<event>
 5    1  0.3276024E-002  0.1250078E+03  0.7818608E-02  0.1235057E+00
          4   -1    0    0  501    0  0.00000000000E+00  0.00000000000E+00  0.21762972391E+03  0.21763342948E+03  0.12700000000E+01 0.  1.
         -4   -1    0    0    0  501 -0.00000000000E+00 -0.00000000000E+00 -0.17924984835E+02  0.17969918791E+02  0.12700000000E+01 0.  1.
         25    2    1    2    0    0  0.00000000000E+00  0.00000000000E+00  0.19970473907E+03  0.23560334828E+03  0.12500781939E+03 0.  0.
    9000005    1    3    3    0    0  0.53196962747E+02 -0.13178581721E+02  0.15646103296E+03  0.16578494110E+03  0.10000000000E+01 0.  0.
    9000005    1    3    3    0    0 -0.53196962747E+02  0.13178581721E+02  0.43243706120E+02  0.69818407177E+02  0.10000000000E+01 0.  0.
<mgrwt>
<rscale>  0 0.12500782E+03</rscale>
<asrwt>0</asrwt>
<pdfrwt beam="1">  1        4 0.33485238E-01 0.12500782E+03</pdfrwt>
<pdfrwt beam="2">  1       -4 0.27614314E-02 0.12500782E+03</pdfrwt>
<totfact> 0.84441831E+03</totfact>
</mgrwt>
</event>
<event>
 5    1  0.3276024E-002  0.1249996E+03  0.7818608E-02  0.1235070E+00
         -4   -1    0    0    0  501 -0.00000000000E+00  0.00000000000E+00  0.92206314992E+02  0.92215060725E+02  0.12700000000E+01 0. -1.
          4   -1    0    0  501    0  0.00000000000E+00 -0.00000000000E+00 -0.42343715459E+02  0.42362756507E+02  0.12700000000E+01 0. -1.
         25    2    1    2    0    0  0.00000000000E+00  0.00000000000E+00  0.49862599533E+02  0.13457781723E+03  0.12499964023E+03 0.  0.
    9000005    1    3    3    0    0 -0.43457655098E+02 -0.18142667085E+02  0.69158254818E+02  0.83675494412E+02  0.10000000000E+01 0.  0.
    9000005    1    3    3    0    0  0.43457655098E+02  0.18142667085E+02 -0.19295655284E+02  0.50902322820E+02  0.10000000000E+01 0.  0.
<mgrwt>
<rscale>  0 0.12499964E+03</rscale>
<asrwt>0</asrwt>
<pdfrwt beam="2">  1        4 0.65165552E-02 0.12499964E+03</pdfrwt>
<pdfrwt beam="1">  1       -4 0.14187724E-01 0.12499964E+03</pdfrwt>
<totfact> 0.10247060E+04</totfact>
</mgrwt>
</event>
<event>
 5    1  0.3276024E-002  0.1250048E+03  0.7818608E-02  0.1235062E+00
         -4   -1    0    0    0  501 -0.00000000000E+00  0.00000000000E+00  0.11300560932E+02  0.11371700725E+02  0.12700000000E+01 0.  1.
          4   -1    0    0  501    0  0.00000000000E+00 -0.00000000000E+00 -0.34453822856E+03  0.34454056922E+03  0.12700000000E+01 0.  1.
         25    2    1    2    0    0  0.00000000000E+00  0.00000000000E+00 -0.33323766763E+03  0.35591226995E+03  0.12500480300E+03 0.  0.
    9000005    1    3    3    0    0  0.12804073963E+01  0.61463205270E+02 -0.13463574672E+03  0.14801063928E+03  0.10000000000E+01 0.  0.
    9000005    1    3    3    0    0 -0.12804073963E+01 -0.61463205270E+02 -0.19860192091E+03  0.20790163067E+03  0.10000000000E+01 0.  0.
<mgrwt>
<rscale>  0 0.12500480E+03</rscale>
<asrwt>0</asrwt>
<pdfrwt beam="2">  1        4 0.53011526E-01 0.12500480E+03</pdfrwt>
<pdfrwt beam="1">  1       -4 0.17442004E-02 0.12500480E+03</pdfrwt>
<totfact> 0.69071658E+03</totfact>
</mgrwt>
</event>
<event>
 5    1  0.3276024E-002  0.1249984E+03  0.7818608E-02  0.1235072E+00
          4   -1    0    0  501    0  0.00000000000E+00  0.00000000000E+00  0.28001561009E+02  0.28030346394E+02  0.12700000000E+01 0.  1.
         -4   -1    0    0    0  501 -0.00000000000E+00 -0.00000000000E+00 -0.13939422967E+03  0.13940001494E+03  0.12700000000E+01 0.  1.
         25    2    1    2    0    0  0.00000000000E+00  0.00000000000E+00 -0.11139266866E+03  0.16743036133E+03  0.12499839705E+03 0.  0.
    9000005    1    3    3    0    0 -0.75350831029E+01  0.54317073607E+02 -0.15556583310E+02  0.57009904814E+02  0.10000000000E+01 0.  0.
    9000005    1    3    3    0    0  0.75350831029E+01 -0.54317073607E+02 -0.95836085348E+02  0.11042045652E+03  0.10000000000E+01 0.  0.
<mgrwt>
<rscale>  0 0.12499840E+03</rscale>
<asrwt>0</asrwt>
<pdfrwt beam="1">  1        4 0.43105918E-02 0.12499840E+03</pdfrwt>
<pdfrwt beam="2">  1       -4 0.21447925E-01 0.12499840E+03</pdfrwt>
<totfact> 0.95932544E+03</totfact>
</mgrwt>
</event>
<event>
 5    1  0.3276024E-002  0.1249990E+03  0.7818608E-02  0.1235071E+00
          4   -1    0    0  501    0  0.00000000000E+00  0.00000000000E+00  0.17321119338E+02  0.17367615701E+02  0.12700000000E+01 0.  1.
         -4   -1    0    0    0  501 -0.00000000000E+00 -0.00000000000E+00 -0.22516538586E+03  0.22516896742E+03  0.12700000000E+01 0.  1.
         25    2    1    2    0    0  0.00000000000E+00  0.00000000000E+00 -0.20784426652E+03  0.24253658312E+03  0.12499902010E+03 0.  0.
    9000005    1    3    3    0    0  0.28759411794E+02 -0.45606470543E+02 -0.42621458826E+02  0.68736036215E+02  0.10000000000E+01 0.  0.
    9000005    1    3    3    0    0 -0.28759411794E+02  0.45606470543E+02 -0.16522280769E+03  0.17380054690E+03  0.10000000000E+01 0.  0.
<mgrwt>
<rscale>  0 0.12499902E+03</rscale>
<asrwt>0</asrwt>
<pdfrwt beam="1">  1        4 0.26686399E-02 0.12499902E+03</pdfrwt>
<pdfrwt beam="2">  1       -4 0.34644679E-01 0.12499902E+03</pdfrwt>
<totfact> 0.83422856E+03</totfact>
</mgrwt>
</event>
<event>
 5    1  0.3276024E-002  0.1250000E+03  0.7818608E-02  0.1235069E+00
          4   -1    0    0  501    0  0.00000000000E+00  0.00000000000E+00  0.17192923277E+02  0.17239765393E+02  0.12700000000E+01 0.  1.
         -4   -1    0    0    0  501 -0.00000000000E+00 -0.00000000000E+00 -0.22684347576E+03  0.22684703082E+03  0.12700000000E+01 0.  1.
         25    2    1    2    0    0  0.00000000000E+00  0.00000000000E+00 -0.20965055248E+03  0.24408679622E+03  0.12500003973E+03 0.  0.
    9000005    1    3    3    0    0  0.29519352083E+02 -0.55074362222E+02 -0.10322102046E+03  0.12066547388E+03  0.10000000000E+01 0.  0.
    9000005    1    3    3    0    0 -0.29519352083E+02  0.55074362222E+02 -0.10642953202E+03  0.12342132234E+03  0.10000000000E+01 0.  0.
<mgrwt>
<rscale>  0 0.12500004E+03</rscale>
<asrwt>0</asrwt>
<pdfrwt beam="1">  1        4 0.26489420E-02 0.12500004E+03</pdfrwt>
<pdfrwt beam="2">  1       -4 0.34902871E-01 0.12500004E+03</pdfrwt>
<totfact> 0.83192379E+03</totfact>
</mgrwt>
</event>
<event>
 5    1  0.3276024E-002  0.1249972E+03  0.7818608E-02  0.1235074E+00
          4   -1    0    0  501    0  0.00000000000E+00  0.00000000000E+00  0.26958114808E+03  0.26958413955E+03  0.12700000000E+01 0. -1.
         -4   -1    0    0    0  501 -0.00000000000E+00 -0.00000000000E+00 -0.14458507239E+02  0.14514176917E+02  0.12700000000E+01 0. -1.
         25    2    1    2    0    0  0.00000000000E+00  0.00000000000E+00  0.25512264084E+03  0.28409831647E+03  0.12499716618E+03 0.  0.
    9000005    1    3    3    0    0  0.58881527550E+02  0.20355572071E+02  0.11649904440E+03  0.13211514276E+03  0.10000000000E+01 0.  0.
    9000005    1    3    3    0    0 -0.58881527550E+02 -0.20355572071E+02  0.13862359644E+03  0.15198317371E+03  0.10000000000E+01 0.  0.
<mgrwt>
<rscale>  0 0.12499717E+03</rscale>
<asrwt>0</asrwt>
<pdfrwt beam="1">  1        4 0.41478531E-01 0.12499717E+03</pdfrwt>
<pdfrwt beam="2">  1       -4 0.22288984E-02 0.12499717E+03</pdfrwt>
<totfact> 0.77642709E+03</totfact>
</mgrwt>
</event>
<event>
 5    1  0.3276024E-002  0.1250007E+03  0.7818608E-02  0.1235068E+00
         -4   -1    0    0    0  501 -0.00000000000E+00  0.00000000000E+00  0.11489745302E+03  0.11490447167E+03  0.12700000000E+01 0. -1.
          4   -1    0    0  501    0  0.00000000000E+00 -0.00000000000E+00 -0.33978192565E+02  0.34001918622E+02  0.12700000000E+01 0. -1.
         25    2    1    2    0    0  0.00000000000E+00  0.00000000000E+00  0.80919260454E+02  0.14890639029E+03  0.12500074543E+03 0.  0.
    9000005    1    3    3    0    0 -0.58401552553E+02  0.15806710026E+02  0.59094249673E+02  0.84579688855E+02  0.10000000000E+01 0.  0.
    9000005    1    3    3    0    0  0.58401552553E+02 -0.15806710026E+02  0.21825010781E+02  0.64326701440E+02  0.10000000000E+01 0.  0.
<mgrwt>
<rscale>  0 0.12500075E+03</rscale>
<asrwt>0</asrwt>
<pdfrwt beam="2">  1        4 0.52297793E-02 0.12500075E+03</pdfrwt>
<pdfrwt beam="1">  1       -4 0.17678896E-01 0.12500075E+03</pdfrwt>
<totfact> 0.99520471E+03</totfact>
</mgrwt>
</event>
<event>
 5    1  0.3276024E-002  0.1250007E+03  0.7818608E-02  0.1235068E+00
          4   -1    0    0  501    0  0.00000000000E+00  0.00000000000E+00  0.17614027294E+02  0.17659752476E+02  0.12700000000E+01 0.  1.
         -4   -1    0    0    0  501 -0.00000000000E+00 -0.00000000000E+00 -0.22143658332E+03  0.22144022519E+03  0.12700000000E+01 0.  1.
         25    2    1    2    0    0  0.00000000000E+00  0.00000000000E+00 -0.20382255603E+03  0.23909997767E+03  0.12500065990E+03 0.  0.
    9000005    1    3    3    0    0 -0.89805737879E+01 -0.28126420365E+02 -0.20726319727E+03  0.20935801674E+03  0.10000000000E+01 0.  0.
    9000005    1    3    3    0    0  0.89805737879E+01  0.28126420365E+02  0.34406412424E+01  0.29741960935E+02  0.10000000000E+01 0.  0.
<mgrwt>
<rscale>  0 0.12500066E+03</rscale>
<asrwt>0</asrwt>
<pdfrwt beam="1">  1        4 0.27136480E-02 0.12500066E+03</pdfrwt>
<pdfrwt beam="2">  1       -4 0.34070962E-01 0.12500066E+03</pdfrwt>
<totfact> 0.83930358E+03</totfact>
</mgrwt>
</event>
<event>
 5    1  0.3276024E-002  0.1250040E+03  0.7818608E-02  0.1235063E+00
         -4   -1    0    0    0  501 -0.00000000000E+00  0.00000000000E+00  0.29122815243E+03  0.29123092156E+03  0.12700000000E+01 0. -1.
          4   -1    0    0  501    0  0.00000000000E+00 -0.00000000000E+00 -0.13380983870E+02  0.13441117116E+02  0.12700000000E+01 0. -1.
         25    2    1    2    0    0  0.00000000000E+00  0.00000000000E+00  0.27784716856E+03  0.30467203867E+03  0.12500400821E+03 0.  0.
    9000005    1    3    3    0    0 -0.41169267030E+02  0.46858942237E+02  0.12953713736E+03  0.14377600276E+03  0.10000000000E+01 0.  0.
    9000005    1    3    3    0    0  0.41169267030E+02 -0.46858942237E+02  0.14831003120E+03  0.16089603591E+03  0.10000000000E+01 0.  0.
<mgrwt>
<rscale>  0 0.12500401E+03</rscale>
<asrwt>0</asrwt>
<pdfrwt beam="2">  1        4 0.20634516E-02 0.12500401E+03</pdfrwt>
<pdfrwt beam="1">  1       -4 0.44809168E-01 0.12500401E+03</pdfrwt>
<totfact> 0.75009827E+03</totfact>
</mgrwt>
</event>
<event>
 5    1  0.3276024E-002  0.1250202E+03  0.7818608E-02  0.1235038E+00
         -4   -1    0    0    0  501 -0.00000000000E+00  0.00000000000E+00  0.12758419490E+03  0.12759051566E+03  0.12700000000E+01 0.  1.
          4   -1    0    0  501    0  0.00000000000E+00 -0.00000000000E+00 -0.30606680026E+02  0.30633017517E+02  0.12700000000E+01 0.  1.
         25    2    1    2    0    0  0.00000000000E+00  0.00000000000E+00  0.96977514870E+02  0.15822353318E+03  0.12502019062E+03 0.  0.
    9000005    1    3    3    0    0  0.56006623475E+02 -0.12318414515E+02  0.17026159691E+02  0.59827880817E+02  0.10000000000E+01 0.  0.
    9000005    1    3    3    0    0 -0.56006623475E+02  0.12318414515E+02  0.79951355178E+02  0.98395652363E+02  0.10000000000E+01 0.  0.
<mgrwt>
<rscale>  0 0.12502019E+03</rscale>
<asrwt>0</asrwt>
<pdfrwt beam="2">  1        4 0.47112321E-02 0.12502019E+03</pdfrwt>
<pdfrwt beam="1">  1       -4 0.19630850E-01 0.12502019E+03</pdfrwt>
<totfact> 0.97642042E+03</totfact>
</mgrwt>
</event>
<event>
 5    1  0.3276024E-002  0.1249911E+03  0.7818608E-02  0.1235083E+00
         -4   -1    0    0    0  501 -0.00000000000E+00  0.00000000000E+00  0.40478545795E+02  0.40498463794E+02  0.12700000000E+01 0. -1.
          4   -1    0    0  501    0  0.00000000000E+00 -0.00000000000E+00 -0.96440219822E+02  0.96448581635E+02  0.12700000000E+01 0. -1.
         25    2    1    2    0    0  0.00000000000E+00  0.00000000000E+00 -0.55961674027E+02  0.13694704543E+03  0.12499113685E+03 0.  0.
    9000005    1    3    3    0    0  0.11839784714E+01 -0.60365938813E+02 -0.10339524072E+02  0.61264623821E+02  0.10000000000E+01 0.  0.
    9000005    1    3    3    0    0 -0.11839784714E+01  0.60365938813E+02 -0.45622149956E+02  0.75682421608E+02  0.10000000000E+01 0.  0.
<mgrwt>
<rscale>  0 0.12499114E+03</rscale>
<asrwt>0</asrwt>
<pdfrwt beam="2">  1        4 0.14839132E-01 0.12499114E+03</pdfrwt>
<pdfrwt beam="1">  1       -4 0.62296440E-02 0.12499114E+03</pdfrwt>
<totfact> 0.10199231E+04</totfact>
</mgrwt>
</event>
<event>
 5    1  0.3276024E-002  0.1249989E+03  0.7818608E-02  0.1235071E+00
         -4   -1    0    0    0  501 -0.00000000000E+00  0.00000000000E+00  0.11760674628E+04  0.11760681485E+04  0.12700000000E+01 0.  1.
          4   -1    0    0  501    0  0.00000000000E+00 -0.00000000000E+00 -0.31992770966E+01  0.34421321795E+01  0.12700000000E+01 0.  1.
         25    2    1    2    0    0  0.00000000000E+00  0.00000000000E+00  0.11728681857E+04  0.11795102807E+04  0.12499888493E+03 0.  0.
    9000005    1    3    3    0    0  0.12057440428E+02 -0.41385544748E+02  0.15950255368E+03  0.16522775134E+03  0.10000000000E+01 0.  0.
    9000005    1    3    3    0    0 -0.12057440428E+02  0.41385544748E+02  0.10133656320E+04  0.10142825294E+04  0.10000000000E+01 0.  0.
<mgrwt>
<rscale>  0 0.12499888E+03</rscale>
<asrwt>0</asrwt>
<pdfrwt beam="2">  1        4 0.51092935E-03 0.12499888E+03</pdfrwt>
<pdfrwt beam="1">  1       -4 0.18095256E+00 0.12499888E+03</pdfrwt>
<totfact> 0.25256004E+03</totfact>
</mgrwt>
</event>
<event>
 5    1  0.3276024E-002  0.1249988E+03  0.7818608E-02  0.1235071E+00
          4   -1    0    0  501    0  0.00000000000E+00  0.00000000000E+00  0.35463790693E+02  0.35486523502E+02  0.12700000000E+01 0. -1.
         -4   -1    0    0    0  501 -0.00000000000E+00 -0.00000000000E+00 -0.11008375562E+03  0.11009108116E+03  0.12700000000E+01 0. -1.
         25    2    1    2    0    0  0.00000000000E+00  0.00000000000E+00 -0.74619964924E+02  0.14557760466E+03  0.12499879925E+03 0.  0.
    9000005    1    3    3    0    0 -0.55648609403E+02  0.36259652099E+01 -0.44669546112E+01  0.55954169064E+02  0.10000000000E+01 0.  0.
    9000005    1    3    3    0    0  0.55648609403E+02 -0.36259652099E+01 -0.70153010313E+02  0.89623435596E+02  0.10000000000E+01 0.  0.
<mgrwt>
<rscale>  0 0.12499880E+03</rscale>
<asrwt>0</asrwt>
<pdfrwt beam="1">  1        4 0.54582800E-02 0.12499880E+03</pdfrwt>
<pdfrwt beam="2">  1       -4 0.16938274E-01 0.12499880E+03</pdfrwt>
<totfact> 0.10019537E+04</totfact>
</mgrwt>
</event>
<event>
 5    1  0.3276024E-002  0.1250007E+03  0.7818608E-02  0.1235068E+00
          4   -1    0    0  501    0  0.00000000000E+00  0.00000000000E+00  0.40430582082E+03  0.40430781546E+03  0.12700000000E+01 0. -1.
         -4   -1    0    0    0  501 -0.00000000000E+00 -0.00000000000E+00 -0.96179659310E+01  0.97014518836E+01  0.12700000000E+01 0. -1.
         25    2    1    2    0    0  0.00000000000E+00  0.00000000000E+00  0.39468785488E+03  0.41400926735E+03  0.12500068262E+03 0.  0.
    9000005    1    3    3    0    0  0.97169596266E+01 -0.81160979416E+01  0.40002991399E+03  0.40023146108E+03  0.10000000000E+01 0.  0.
    9000005    1    3    3    0    0 -0.97169596266E+01  0.81160979416E+01 -0.53420591034E+01  0.13777806271E+02  0.10000000000E+01 0.  0.
<mgrwt>
<rscale>  0 0.12500068E+03</rscale>
<asrwt>0</asrwt>
<pdfrwt beam="1">  1        4 0.62207472E-01 0.12500068E+03</pdfrwt>
<pdfrwt beam="2">  1       -4 0.14862625E-02 0.12500068E+03</pdfrwt>
<totfact> 0.63211740E+03</totfact>
</mgrwt>
</event>
<event>
 5    1  0.3276024E-002  0.1250038E+03  0.7818608E-02  0.1235063E+00
         -4   -1    0    0    0  501 -0.00000000000E+00  0.00000000000E+00  0.51671340362E+02  0.51686945303E+02  0.12700000000E+01 0.  1.
          4   -1    0    0  501    0  0.00000000000E+00 -0.00000000000E+00 -0.75570294006E+02  0.75580964774E+02  0.12700000000E+01 0.  1.
         25    2    1    2    0    0  0.00000000000E+00  0.00000000000E+00 -0.23898953644E+02  0.12726791008E+03  0.12500384374E+03 0.  0.
    9000005    1    3    3    0    0 -0.15186768435E+02 -0.44016927340E+02 -0.54386093851E+02  0.71602898212E+02  0.10000000000E+01 0.  0.
    9000005    1    3    3    0    0  0.15186768435E+02  0.44016927340E+02  0.30487140207E+02  0.55665011865E+02  0.10000000000E+01 0.  0.
<mgrwt>
<rscale>  0 0.12500384E+03</rscale>
<asrwt>0</asrwt>
<pdfrwt beam="2">  1        4 0.11628220E-01 0.12500384E+03</pdfrwt>
<pdfrwt beam="1">  1       -4 0.79514582E-02 0.12500384E+03</pdfrwt>
<totfact> 0.10402428E+04</totfact>
</mgrwt>
</event>
<event>
 5    1  0.3276024E-002  0.1250003E+03  0.7818608E-02  0.1235069E+00
         -4   -1    0    0    0  501 -0.00000000000E+00  0.00000000000E+00  0.42817680668E+02  0.42836511037E+02  0.12700000000E+01 0. -1.
          4   -1    0    0  501    0  0.00000000000E+00 -0.00000000000E+00 -0.91186949958E+02  0.91195793448E+02  0.12700000000E+01 0. -1.
         25    2    1    2    0    0  0.00000000000E+00  0.00000000000E+00 -0.48369269290E+02  0.13403230449E+03  0.12500028974E+03 0.  0.
    9000005    1    3    3    0    0 -0.14632060702E+02 -0.88608271667E+00  0.40953354621E+02  0.43509304726E+02  0.10000000000E+01 0.  0.
    9000005    1    3    3    0    0  0.14632060702E+02  0.88608271667E+00 -0.89322623911E+02  0.90522999759E+02  0.10000000000E+01 0.  0.
<mgrwt>
<rscale>  0 0.12500029E+03</rscale>
<asrwt>0</asrwt>
<pdfrwt beam="2">  1        4 0.14030890E-01 0.12500029E+03</pdfrwt>
<pdfrwt beam="1">  1       -4 0.65894642E-02 0.12500029E+03</pdfrwt>
<totfact> 0.10258441E+04</totfact>
</mgrwt>
</event>
<event>
 5    1  0.3276024E-002  0.1250018E+03  0.7818608E-02  0.1235066E+00
          4   -1    0    0  501    0  0.00000000000E+00  0.00000000000E+00  0.66573035006E+01  0.67773586226E+01  0.12700000000E+01 0.  1.
         -4   -1    0    0    0  501 -0.00000000000E+00 -0.00000000000E+00 -0.58141448390E+03  0.58141587095E+03  0.12700000000E+01 0.  1.
         25    2    1    2    0    0  0.00000000000E+00  0.00000000000E+00 -0.57475718040E+03  0.58819322957E+03  0.12500183555E+03 0.  0.
    9000005    1    3    3    0    0 -0.18184711189E+02  0.53051054300E+02 -0.15763479490E+03  0.16731654624E+03  0.10000000000E+01 0.  0.
    9000005    1    3    3    0    0  0.18184711189E+02 -0.53051054300E+02 -0.41712238550E+03  0.42087668333E+03  0.10000000000E+01 0.  0.
<mgrwt>
<rscale>  0 0.12500184E+03</rscale>
<asrwt>0</asrwt>
<pdfrwt beam="1">  1        4 0.10335427E-02 0.12500184E+03</pdfrwt>
<pdfrwt beam="2">  1       -4 0.89457684E-01 0.12500184E+03</pdfrwt>
<totfact> 0.49619489E+03</totfact>
</mgrwt>
</event>
<event>
 5    1  0.3276024E-002  0.1249891E+03  0.7818608E-02  0.1235086E+00
         -4   -1    0    0    0  501 -0.00000000000E+00  0.00000000000E+00  0.21071719713E+02  0.21109956695E+02  0.12700000000E+01 0. -1.
          4   -1    0    0  501    0  0.00000000000E+00 -0.00000000000E+00 -0.18513804369E+03  0.18514239958E+03  0.12700000000E+01 0. -1.
         25    2    1    2    0    0  0.00000000000E+00  0.00000000000E+00 -0.16406632398E+03  0.20625235627E+03  0.12498910274E+03 0.  0.
    9000005    1    3    3    0    0 -0.58131842919E+02 -0.20688385109E+01 -0.11969801997E+03  0.13308721666E+03  0.10000000000E+01 0.  0.
    9000005    1    3    3    0    0  0.58131842919E+02  0.20688385109E+01 -0.44368304008E+02  0.73165139612E+02  0.10000000000E+01 0.  0.
<mgrwt>
<rscale>  0 0.12498910E+03</rscale>
<asrwt>0</asrwt>
<pdfrwt beam="2">  1        4 0.28486051E-01 0.12498910E+03</pdfrwt>
<pdfrwt beam="1">  1       -4 0.32450795E-02 0.12498910E+03</pdfrwt>
<totfact> 0.89113317E+03</totfact>
</mgrwt>
</event>
<event>
 5    1  0.3276024E-002  0.1249989E+03  0.7818608E-02  0.1235071E+00
         -4   -1    0    0    0  501 -0.00000000000E+00  0.00000000000E+00  0.21072754106E+04  0.21072757933E+04  0.12700000000E+01 0.  1.
          4   -1    0    0  501    0  0.00000000000E+00 -0.00000000000E+00 -0.16357079784E+01  0.20708550385E+01  0.12700000000E+01 0.  1.
         25    2    1    2    0    0  0.00000000000E+00  0.00000000000E+00  0.21056397026E+04  0.21093466483E+04  0.12499890236E+03 0.  0.
    9000005    1    3    3    0    0 -0.13920034593E+02  0.11452861568E+02  0.43106284264E+02  0.46734218130E+02  0.10000000000E+01 0.  0.
    9000005    1    3    3    0    0  0.13920034593E+02 -0.11452861568E+02  0.20625334184E+04  0.20626124302E+04  0.10000000000E+01 0.  0.
<mgrwt>
<rscale>  0 0.12499890E+03</rscale>
<asrwt>0</asrwt>
<pdfrwt beam="2">  1        4 0.28514936E-03 0.12499890E+03</pdfrwt>
<pdfrwt beam="1">  1       -4 0.32423007E+00 0.12499890E+03</pdfrwt>
<totfact> 0.85009071E+02</totfact>
</mgrwt>
</event>
<event>
 5    1  0.3276024E-002  0.1250012E+03  0.7818608E-02  0.1235067E+00
          4   -1    0    0  501    0  0.00000000000E+00  0.00000000000E+00  0.84878052927E+02  0.84887553673E+02  0.12700000000E+01 0.  1.
         -4   -1    0    0    0  501 -0.00000000000E+00 -0.00000000000E+00 -0.46001926890E+02  0.46019454338E+02  0.12700000000E+01 0.  1.
         25    2    1    2    0    0  0.00000000000E+00  0.00000000000E+00  0.38876126037E+02  0.13090700801E+03  0.12500116628E+03 0.  0.
    9000005    1    3    3    0    0  0.29802895820E+02 -0.40990236899E+02 -0.18853230996E+02  0.54081941896E+02  0.10000000000E+01 0.  0.
    9000005    1    3    3    0    0 -0.29802895820E+02  0.40990236899E+02  0.57729357033E+02  0.76825066116E+02  0.10000000000E+01 0.  0.
<mgrwt>
<rscale>  0 0.12500117E+03</rscale>
<asrwt>0</asrwt>
<pdfrwt beam="1">  1        4 0.13060241E-01 0.12500117E+03</pdfrwt>
<pdfrwt beam="2">  1       -4 0.70792987E-02 0.12500117E+03</pdfrwt>
<totfact> 0.10324812E+04</totfact>
</mgrwt>
</event>
<event>
 5    1  0.3276024E-002  0.1249993E+03  0.7818608E-02  0.1235070E+00
         -4   -1    0    0    0  501 -0.00000000000E+00  0.00000000000E+00  0.33809741148E+01  0.36116320362E+01  0.12700000000E+01 0. -1.
          4   -1    0    0  501    0  0.00000000000E+00 -0.00000000000E+00 -0.11170085602E+04  0.11170092821E+04  0.12700000000E+01 0. -1.
         25    2    1    2    0    0  0.00000000000E+00  0.00000000000E+00 -0.11136275861E+04  0.11206209142E+04  0.12499933149E+03 0.  0.
    9000005    1    3    3    0    0 -0.47450453922E+02 -0.30342239314E+02 -0.31409336756E+03  0.31910474865E+03  0.10000000000E+01 0.  0.
    9000005    1    3    3    0    0  0.47450453922E+02  0.30342239314E+02 -0.79953421850E+03  0.80151616553E+03  0.10000000000E+01 0.  0.
<mgrwt>
<rscale>  0 0.12499933E+03</rscale>
<asrwt>0</asrwt>
<pdfrwt beam="2">  1        4 0.17186498E+00 0.12499933E+03</pdfrwt>
<pdfrwt beam="1">  1       -4 0.53794921E-03 0.12499933E+03</pdfrwt>
<totfact> 0.26888028E+03</totfact>
</mgrwt>
</event>
<event>
 5    1  0.3276024E-002  0.1250036E+03  0.7818608E-02  0.1235064E+00
         -4   -1    0    0    0  501 -0.00000000000E+00  0.00000000000E+00  0.10064257160E+03  0.10065058429E+03  0.12700000000E+01 0. -1.
          4   -1    0    0  501    0  0.00000000000E+00 -0.00000000000E+00 -0.38795362521E+02  0.38816144233E+02  0.12700000000E+01 0. -1.
         25    2    1    2    0    0  0.00000000000E+00  0.00000000000E+00  0.61847209075E+02  0.13946672852E+03  0.12500356432E+03 0.  0.
    9000005    1    3    3    0    0  0.10317996859E+02 -0.11376930901E+02 -0.36662315328E+02  0.39762054538E+02  0.10000000000E+01 0.  0.
    9000005    1    3    3    0    0 -0.10317996859E+02  0.11376930901E+02  0.98509524403E+02  0.99704673983E+02  0.10000000000E+01 0.  0.
<mgrwt>
<rscale>  0 0.12500356E+03</rscale>
<asrwt>0</asrwt>
<pdfrwt beam="2">  1        4 0.59707322E-02 0.12500356E+03</pdfrwt>
<pdfrwt beam="1">  1       -4 0.15485688E-01 0.12500356E+03</pdfrwt>
<totfact> 0.10143835E+04</totfact>
</mgrwt>
</event>
<event>
 5    1  0.3276024E-002  0.1249985E+03  0.7818608E-02  0.1235072E+00
         -4   -1    0    0    0  501 -0.00000000000E+00  0.00000000000E+00  0.20476383163E+02  0.20515729757E+02  0.12700000000E+01 0. -1.
          4   -1    0    0  501    0  0.00000000000E+00 -0.00000000000E+00 -0.19053929593E+03  0.19054352834E+03  0.12700000000E+01 0. -1.
         25    2    1    2    0    0  0.00000000000E+00  0.00000000000E+00 -0.17006291276E+03  0.21105925810E+03  0.12499846451E+03 0.  0.
    9000005    1    3    3    0    0 -0.30707525884E+02 -0.54004880457E+01 -0.17647614205E+03  0.17921201447E+03  0.10000000000E+01 0.  0.
    9000005    1    3    3    0    0  0.30707525884E+02  0.54004880457E+01  0.64132292831E+01  0.31847243631E+02  0.10000000000E+01 0.  0.
<mgrwt>
<rscale>  0 0.12499846E+03</rscale>
<asrwt>0</asrwt>
<pdfrwt beam="2">  1        4 0.29317089E-01 0.12499846E+03</pdfrwt>
<pdfrwt beam="1">  1       -4 0.31535652E-02 0.12499846E+03</pdfrwt>
<totfact> 0.88306213E+03</totfact>
</mgrwt>
</event>
<event>
 5    1  0.3276024E-002  0.1249883E+03  0.7818608E-02  0.1235088E+00
          4   -1    0    0  501    0  0.00000000000E+00  0.00000000000E+00  0.19160987639E+03  0.19161408515E+03  0.12700000000E+01 0. -1.
         -4   -1    0    0    0  501 -0.00000000000E+00 -0.00000000000E+00 -0.20358447923E+02  0.20398022008E+02  0.12700000000E+01 0. -1.
         25    2    1    2    0    0  0.00000000000E+00  0.00000000000E+00  0.17125142846E+03  0.21201210716E+03  0.12498832678E+03 0.  0.
    9000005    1    3    3    0    0 -0.49003075653E+02  0.26823533731E+02  0.38139137576E+02  0.67649073906E+02  0.10000000000E+01 0.  0.
    9000005    1    3    3    0    0  0.49003075653E+02 -0.26823533731E+02  0.13311229089E+03  0.14436303325E+03  0.10000000000E+01 0.  0.
<mgrwt>
<rscale>  0 0.12498833E+03</rscale>
<asrwt>0</asrwt>
<pdfrwt beam="1">  1        4 0.29481811E-01 0.12498833E+03</pdfrwt>
<pdfrwt beam="2">  1       -4 0.31354368E-02 0.12498833E+03</pdfrwt>
<totfact> 0.88171331E+03</totfact>
</mgrwt>
</event>
<event>
 5    1  0.3276024E-002  0.1249943E+03  0.7818608E-02  0.1235078E+00
         -4   -1    0    0    0  501 -0.00000000000E+00  0.00000000000E+00  0.10257185040E+02  0.10335508935E+02  0.12700000000E+01 0. -1.
          4   -1    0    0  501    0  0.00000000000E+00 -0.00000000000E+00 -0.37926843023E+03  0.37927055655E+03  0.12700000000E+01 0. -1.
         25    2    1    2    0    0  0.00000000000E+00  0.00000000000E+00 -0.36901124519E+03  0.38960606549E+03  0.12499434863E+03 0.  0.
    9000005    1    3    3    0    0 -0.34377160915E+02  0.51812781747E+02 -0.20385689432E+03  0.21313138414E+03  0.10000000000E+01 0.  0.
    9000005    1    3    3    0    0  0.34377160915E+02 -0.51812781747E+02 -0.16515435087E+03  0.17647468135E+03  0.10000000000E+01 0.  0.
<mgrwt>
<rscale>  0 0.12499435E+03</rscale>
<asrwt>0</asrwt>
<pdfrwt beam="2">  1        4 0.58355167E-01 0.12499435E+03</pdfrwt>
<pdfrwt beam="1">  1       -4 0.15842172E-02 0.12499435E+03</pdfrwt>
<totfact> 0.65584593E+03</totfact>
</mgrwt>
</event>
<event>
 5    1  0.3276024E-002  0.1250015E+03  0.7818608E-02  0.1235067E+00
          4   -1    0    0  501    0  0.00000000000E+00  0.00000000000E+00  0.11908486589E+03  0.11909163776E+03  0.12700000000E+01 0. -1.
         -4   -1    0    0    0  501 -0.00000000000E+00 -0.00000000000E+00 -0.32783014468E+02  0.32807604875E+02  0.12700000000E+01 0. -1.
         25    2    1    2    0    0  0.00000000000E+00  0.00000000000E+00  0.86301851424E+02  0.15189924264E+03  0.12500148141E+03 0.  0.
    9000005    1    3    3    0    0  0.50213513872E+02 -0.19765689056E+02  0.48532330022E+01  0.54190712394E+02  0.10000000000E+01 0.  0.
    9000005    1    3    3    0    0 -0.50213513872E+02  0.19765689056E+02  0.81448618422E+02  0.97708530242E+02  0.10000000000E+01 0.  0.
<mgrwt>
<rscale>  0 0.12500148E+03</rscale>
<asrwt>0</asrwt>
<pdfrwt beam="1">  1        4 0.18323161E-01 0.12500148E+03</pdfrwt>
<pdfrwt beam="2">  1       -4 0.50459531E-02 0.12500148E+03</pdfrwt>
<totfact> 0.98923154E+03</totfact>
</mgrwt>
</event>
<event>
 5    1  0.3276024E-002  0.1249996E+03  0.7818608E-02  0.1235070E+00
          4   -1    0    0  501    0  0.00000000000E+00  0.00000000000E+00  0.68408328068E+03  0.68408445956E+03  0.12700000000E+01 0.  1.
         -4   -1    0    0    0  501 -0.00000000000E+00 -0.00000000000E+00 -0.56383423522E+01  0.57796024500E+01  0.12700000000E+01 0.  1.
         25    2    1    2    0    0  0.00000000000E+00  0.00000000000E+00  0.67844493833E+03  0.68986406201E+03  0.12499955882E+03 0.  0.
    9000005    1    3    3    0    0  0.35566204496E+02 -0.21032100659E+02  0.59796082269E+03  0.59938756213E+03  0.10000000000E+01 0.  0.
    9000005    1    3    3    0    0 -0.35566204496E+02  0.21032100659E+02  0.80484115638E+02  0.90476499880E+02  0.10000000000E+01 0.  0.
<mgrwt>
<rscale>  0 0.12499956E+03</rscale>
<asrwt>0</asrwt>
<pdfrwt beam="1">  1        4 0.10525449E+00 0.12499956E+03</pdfrwt>
<pdfrwt beam="2">  1       -4 0.87839456E-03 0.12499956E+03</pdfrwt>
<totfact> 0.43627619E+03</totfact>
</mgrwt>
</event>
<event>
 5    1  0.3276024E-002  0.1249996E+03  0.7818608E-02  0.1235070E+00
         -4   -1    0    0    0  501 -0.00000000000E+00  0.00000000000E+00  0.10856339828E+03  0.10857082640E+03  0.12700000000E+01 0. -1.
          4   -1    0    0  501    0  0.00000000000E+00 -0.00000000000E+00 -0.35961188566E+02  0.35983607144E+02  0.12700000000E+01 0. -1.
         25    2    1    2    0    0  0.00000000000E+00  0.00000000000E+00  0.72602209714E+02  0.14455443355E+03  0.12499961361E+03 0.  0.
    9000005    1    3    3    0    0 -0.60771529761E+01  0.23573916082E+02  0.10285981854E+03  0.10570621352E+03  0.10000000000E+01 0.  0.
    9000005    1    3    3    0    0  0.60771529761E+01 -0.23573916082E+02 -0.30257608821E+02  0.38848220028E+02  0.10000000000E+01 0.  0.
<mgrwt>
<rscale>  0 0.12499961E+03</rscale>
<asrwt>0</asrwt>
<pdfrwt beam="2">  1        4 0.55347865E-02 0.12499961E+03</pdfrwt>
<pdfrwt beam="1">  1       -4 0.16704357E-01 0.12499961E+03</pdfrwt>
<totfact> 0.10040137E+04</totfact>
</mgrwt>
</event>
<event>
 5    1  0.3276024E-002  0.1249928E+03  0.7818608E-02  0.1235081E+00
         -4   -1    0    0    0  501 -0.00000000000E+00  0.00000000000E+00  0.60192362770E+01  0.61517562824E+01  0.12700000000E+01 0.  1.
          4   -1    0    0  501    0  0.00000000000E+00 -0.00000000000E+00 -0.64168781856E+03  0.64168907533E+03  0.12700000000E+01 0.  1.
         25    2    1    2    0    0  0.00000000000E+00  0.00000000000E+00 -0.63566858229E+03  0.64784083161E+03  0.12499278616E+03 0.  0.
    9000005    1    3    3    0    0  0.29965361267E+02 -0.33114459841E+02 -0.91299370426E+02  0.10164184850E+03  0.10000000000E+01 0.  0.
    9000005    1    3    3    0    0 -0.29965361267E+02  0.33114459841E+02 -0.54436921186E+03  0.54619898311E+03  0.10000000000E+01 0.  0.
<mgrwt>
<rscale>  0 0.12499279E+03</rscale>
<asrwt>0</asrwt>
<pdfrwt beam="2">  1        4 0.98731440E-01 0.12499279E+03</pdfrwt>
<pdfrwt beam="1">  1       -4 0.93632738E-03 0.12499279E+03</pdfrwt>
<totfact> 0.45987740E+03</totfact>
</mgrwt>
</event>
<event>
 5    1  0.3276024E-002  0.1249960E+03  0.7818608E-02  0.1235075E+00
          4   -1    0    0  501    0  0.00000000000E+00  0.00000000000E+00  0.46172283935E+03  0.46172458595E+03  0.12700000000E+01 0. -1.
         -4   -1    0    0    0  501 -0.00000000000E+00 -0.00000000000E+00 -0.84101875694E+01  0.85055367234E+01  0.12700000000E+01 0. -1.
         25    2    1    2    0    0  0.00000000000E+00  0.00000000000E+00  0.45331265178E+03  0.47023012268E+03  0.12499603198E+03 0.  0.
    9000005    1    3    3    0    0  0.31446987460E+02  0.51401897394E+02  0.28892034224E+03  0.29513900494E+03  0.10000000000E+01 0.  0.
    9000005    1    3    3    0    0 -0.31446987460E+02 -0.51401897394E+02  0.16439230954E+03  0.17509111774E+03  0.10000000000E+01 0.  0.
<mgrwt>
<rscale>  0 0.12499603E+03</rscale>
<asrwt>0</asrwt>
<pdfrwt beam="1">  1        4 0.71041760E-01 0.12499603E+03</pdfrwt>
<pdfrwt beam="2">  1       -4 0.13013438E-02 0.12499603E+03</pdfrwt>
<totfact> 0.58255544E+03</totfact>
</mgrwt>
</event>
<event>
 5    1  0.3276024E-002  0.1249994E+03  0.7818608E-02  0.1235070E+00
          4   -1    0    0  501    0  0.00000000000E+00  0.00000000000E+00  0.93137407914E+01  0.93999291237E+01  0.12700000000E+01 0.  1.
         -4   -1    0    0    0  501 -0.00000000000E+00 -0.00000000000E+00 -0.41738406950E+03  0.41738600165E+03  0.12700000000E+01 0.  1.
         25    2    1    2    0    0  0.00000000000E+00  0.00000000000E+00 -0.40807032871E+03  0.42678593078E+03  0.12499935013E+03 0.  0.
    9000005    1    3    3    0    0  0.43928576640E+02 -0.21953660417E+02 -0.72085350747E+02  0.87229472334E+02  0.10000000000E+01 0.  0.
    9000005    1    3    3    0    0 -0.43928576640E+02  0.21953660417E+02 -0.33598497797E+03  0.33955645844E+03  0.10000000000E+01 0.  0.
<mgrwt>
<rscale>  0 0.12499935E+03</rscale>
<asrwt>0</asrwt>
<pdfrwt beam="1">  1        4 0.14396620E-02 0.12499935E+03</pdfrwt>
<pdfrwt beam="2">  1       -4 0.64219698E-01 0.12499935E+03</pdfrwt>
<totfact> 0.62029307E+03</totfact>
</mgrwt>
</event>
<event>
 5    1  0.3276024E-002  0.1249948E+03  0.7818608E-02  0.1235077E+00
         -4   -1    0    0    0  501 -0.00000000000E+00  0.00000000000E+00  0.17723429159E+02  0.17768872816E+02  0.12700000000E+01 0. -1.
          4   -1    0    0  501    0  0.00000000000E+00 -0.00000000000E+00 -0.22005247340E+03  0.22005613818E+03  0.12700000000E+01 0. -1.
         25    2    1    2    0    0  0.00000000000E+00  0.00000000000E+00 -0.20232904424E+03  0.23782501100E+03  0.12499477473E+03 0.  0.
    9000005    1    3    3    0    0 -0.60455494651E+02 -0.28565966443E+01 -0.71572106740E+02  0.93736830761E+02  0.10000000000E+01 0.  0.
    9000005    1    3    3    0    0  0.60455494651E+02  0.28565966443E+01 -0.13075693750E+03  0.14408818024E+03  0.10000000000E+01 0.  0.
<mgrwt>
<rscale>  0 0.12499477E+03</rscale>
<asrwt>0</asrwt>
<pdfrwt beam="2">  1        4 0.33858002E-01 0.12499477E+03</pdfrwt>
<pdfrwt beam="1">  1       -4 0.27304591E-02 0.12499477E+03</pdfrwt>
<totfact> 0.84132166E+03</totfact>
</mgrwt>
</event>
<event>
 5    1  0.3276024E-002  0.1250004E+03  0.7818608E-02  0.1235069E+00
         -4   -1    0    0    0  501 -0.00000000000E+00  0.00000000000E+00  0.13989393256E+02  0.14046922213E+02  0.12700000000E+01 0. -1.
          4   -1    0    0  501    0  0.00000000000E+00 -0.00000000000E+00 -0.27859905589E+03  0.27860195054E+03  0.12700000000E+01 0. -1.
         25    2    1    2    0    0  0.00000000000E+00  0.00000000000E+00 -0.26460966264E+03  0.29264887275E+03  0.12500035665E+03 0.  0.
    9000005    1    3    3    0    0 -0.48838075335E+01 -0.47880777744E+02 -0.38984278309E+02  0.61945091885E+02  0.10000000000E+01 0.  0.
    9000005    1    3    3    0    0  0.48838075335E+01  0.47880777744E+02 -0.22562538433E+03  0.23070378087E+03  0.10000000000E+01 0.  0.
<mgrwt>
<rscale>  0 0.12500036E+03</rscale>
<asrwt>0</asrwt>
<pdfrwt beam="2">  1        4 0.42866037E-01 0.12500036E+03</pdfrwt>
<pdfrwt beam="1">  1       -4 0.21568625E-02 0.12500036E+03</pdfrwt>
<totfact> 0.76529696E+03</totfact>
</mgrwt>
</event>
<event>
 5    1  0.3276024E-002  0.1250014E+03  0.7818608E-02  0.1235067E+00
          4   -1    0    0  501    0  0.00000000000E+00  0.00000000000E+00  0.72108498148E+01  0.73218341317E+01  0.12700000000E+01 0.  1.
         -4   -1    0    0    0  501 -0.00000000000E+00 -0.00000000000E+00 -0.53748197931E+03  0.53748347973E+03  0.12700000000E+01 0.  1.
         25    2    1    2    0    0  0.00000000000E+00  0.00000000000E+00 -0.53027112950E+03  0.54480531387E+03  0.12500143694E+03 0.  0.
    9000005    1    3    3    0    0  0.56426750949E+01  0.52651776241E+02 -0.40977185465E+03  0.41318037488E+03  0.10000000000E+01 0.  0.
    9000005    1    3    3    0    0 -0.56426750949E+01 -0.52651776241E+02 -0.12049927485E+03  0.13162493898E+03  0.10000000000E+01 0.  0.
<mgrwt>
<rscale>  0 0.12500144E+03</rscale>
<asrwt>0</asrwt>
<pdfrwt beam="1">  1        4 0.11180146E-02 0.12500144E+03</pdfrwt>
<pdfrwt beam="2">  1       -4 0.82698157E-01 0.12500144E+03</pdfrwt>
<totfact> 0.52546589E+03</totfact>
</mgrwt>
</event>
<event>
 5    1  0.3276024E-002  0.1249969E+03  0.7818608E-02  0.1235074E+00
         -4   -1    0    0    0  501 -0.00000000000E+00  0.00000000000E+00  0.64604697962E+02  0.64617179594E+02  0.12700000000E+01 0. -1.
          4   -1    0    0  501    0  0.00000000000E+00 -0.00000000000E+00 -0.60435917210E+02  0.60449259624E+02  0.12700000000E+01 0. -1.
         25    2    1    2    0    0  0.00000000000E+00  0.00000000000E+00  0.41687807514E+01  0.12506643922E+03  0.12499694191E+03 0.  0.
    9000005    1    3    3    0    0  0.59540193118E+02 -0.95644152581E+01  0.18480882008E+02  0.63079756147E+02  0.10000000000E+01 0.  0.
    9000005    1    3    3    0    0 -0.59540193118E+02  0.95644152581E+01 -0.14312101257E+02  0.61986683071E+02  0.10000000000E+01 0.  0.
<mgrwt>
<rscale>  0 0.12499694E+03</rscale>
<asrwt>0</asrwt>
<pdfrwt beam="2">  1        4 0.92998199E-02 0.12499694E+03</pdfrwt>
<pdfrwt beam="1">  1       -4 0.99411707E-02 0.12499694E+03</pdfrwt>
<totfact> 0.10452142E+04</totfact>
</mgrwt>
</event>
<event>
 5    1  0.3276024E-002  0.1250119E+03  0.7818608E-02  0.1235051E+00
         -4   -1    0    0    0  501 -0.00000000000E+00  0.00000000000E+00  0.34358404077E+03  0.34358638793E+03  0.12700000000E+01 0. -1.
          4   -1    0    0  501    0  0.00000000000E+00 -0.00000000000E+00 -0.11333435821E+02  0.11404370544E+02  0.12700000000E+01 0. -1.
         25    2    1    2    0    0  0.00000000000E+00  0.00000000000E+00  0.33225060495E+03  0.35499075848E+03  0.12501189589E+03 0.  0.
    9000005    1    3    3    0    0  0.33906371053E+02 -0.49644816339E+02  0.11762253945E+03  0.13209962746E+03  0.10000000000E+01 0.  0.
    9000005    1    3    3    0    0 -0.33906371053E+02  0.49644816339E+02  0.21462806550E+03  0.22289113102E+03  0.10000000000E+01 0.  0.
<mgrwt>
<rscale>  0 0.12501190E+03</rscale>
<asrwt>0</asrwt>
<pdfrwt beam="2">  1        4 0.17492424E-02 0.12501190E+03</pdfrwt>
<pdfrwt beam="1">  1       -4 0.52864725E-01 0.12501190E+03</pdfrwt>
<totfact> 0.69160770E+03</totfact>
</mgrwt>
</event>
<event>
 5    1  0.3276024E-002  0.1249987E+03  0.7818608E-02  0.1235071E+00
          4   -1    0    0  501    0  0.00000000000E+00  0.00000000000E+00  0.43488446184E+02  0.43506986238E+02  0.12700000000E+01 0. -1.
         -4   -1    0    0    0  501 -0.00000000000E+00 -0.00000000000E+00 -0.89778682827E+02  0.89787665022E+02  0.12700000000E+01 0. -1.
         25    2    1    2    0    0  0.00000000000E+00  0.00000000000E+00 -0.46290236642E+02  0.13329465126E+03  0.12499871218E+03 0.  0.
    9000005    1    3    3    0    0  0.66973516249E+01  0.61991403436E+02 -0.18699386884E+02  0.65103423018E+02  0.10000000000E+01 0.  0.
    9000005    1    3    3    0    0 -0.66973516249E+01 -0.61991403436E+02 -0.27590849758E+02  0.68191228242E+02  0.10000000000E+01 0.  0.
<mgrwt>
<rscale>  0 0.12499871E+03</rscale>
<asrwt>0</asrwt>
<pdfrwt beam="1">  1        4 0.66926473E-02 0.12499871E+03</pdfrwt>
<pdfrwt beam="2">  1       -4 0.13814222E-01 0.12499871E+03</pdfrwt>
<totfact> 0.10274440E+04</totfact>
</mgrwt>
</event>
<event>
 5    1  0.3276024E-002  0.1249998E+03  0.7818608E-02  0.1235070E+00
         -4   -1    0    0    0  501 -0.00000000000E+00  0.00000000000E+00  0.23199995774E+03  0.23200343380E+03  0.12700000000E+01 0.  1.
          4   -1    0    0  501    0  0.00000000000E+00 -0.00000000000E+00 -0.16809683007E+02  0.16857590065E+02  0.12700000000E+01 0.  1.
         25    2    1    2    0    0  0.00000000000E+00  0.00000000000E+00  0.21519027474E+03  0.24886102386E+03  0.12499981942E+03 0.  0.
    9000005    1    3    3    0    0 -0.37124182632E+01 -0.20489474719E+02  0.22489965022E+03  0.22586379368E+03  0.10000000000E+01 0.  0.
    9000005    1    3    3    0    0  0.37124182632E+01  0.20489474719E+02 -0.97093754887E+01  0.22997230181E+02  0.10000000000E+01 0.  0.
<mgrwt>
<rscale>  0 0.12499982E+03</rscale>
<asrwt>0</asrwt>
<pdfrwt beam="2">  1        4 0.25900575E-02 0.12499982E+03</pdfrwt>
<pdfrwt beam="1">  1       -4 0.35696255E-01 0.12499982E+03</pdfrwt>
<totfact> 0.82495454E+03</totfact>
</mgrwt>
</event>
<event>
 5    1  0.3276024E-002  0.1250001E+03  0.7818608E-02  0.1235069E+00
          4   -1    0    0  501    0  0.00000000000E+00  0.00000000000E+00  0.25817924463E+02  0.25849141641E+02  0.12700000000E+01 0. -1.
         -4   -1    0    0    0  501 -0.00000000000E+00 -0.00000000000E+00 -0.15117490279E+03  0.15118023725E+03  0.12700000000E+01 0. -1.
         25    2    1    2    0    0  0.00000000000E+00  0.00000000000E+00 -0.12535697833E+03  0.17702937889E+03  0.12500011590E+03 0.  0.
    9000005    1    3    3    0    0  0.32816449406E+02 -0.47073436460E+02 -0.27630510894E+02  0.63696726007E+02  0.10000000000E+01 0.  0.
    9000005    1    3    3    0    0 -0.32816449406E+02  0.47073436460E+02 -0.97726467437E+02  0.11333265288E+03  0.10000000000E+01 0.  0.
<mgrwt>
<rscale>  0 0.12500012E+03</rscale>
<asrwt>0</asrwt>
<pdfrwt beam="1">  1        4 0.39748001E-02 0.12500012E+03</pdfrwt>
<pdfrwt beam="2">  1       -4 0.23260488E-01 0.12500012E+03</pdfrwt>
<totfact> 0.94154229E+03</totfact>
</mgrwt>
</event>
<event>
 5    1  0.3276024E-002  0.1249989E+03  0.7818608E-02  0.1235071E+00
          4   -1    0    0  501    0  0.00000000000E+00  0.00000000000E+00  0.96557253580E+02  0.96565605258E+02  0.12700000000E+01 0. -1.
         -4   -1    0    0    0  501 -0.00000000000E+00 -0.00000000000E+00 -0.40434516264E+02  0.40454455941E+02  0.12700000000E+01 0. -1.
         25    2    1    2    0    0  0.00000000000E+00  0.00000000000E+00  0.56122737316E+02  0.13702006120E+03  0.12499894211E+03 0.  0.
    9000005    1    3    3    0    0  0.46392138899E+02  0.33141074625E+02  0.56107520747E+02  0.79997595360E+02  0.10000000000E+01 0.  0.
    9000005    1    3    3    0    0 -0.46392138899E+02 -0.33141074625E+02  0.15216568974E-01  0.57022465840E+02  0.10000000000E+01 0.  0.
<mgrwt>
<rscale>  0 0.12499894E+03</rscale>
<asrwt>0</asrwt>
<pdfrwt beam="1">  1        4 0.14857138E-01 0.12499894E+03</pdfrwt>
<pdfrwt beam="2">  1       -4 0.62228711E-02 0.12499894E+03</pdfrwt>
<totfact> 0.10195910E+04</totfact>
</mgrwt>
</event>
<event>
 5    1  0.3276024E-002  0.1250066E+03  0.7818608E-02  0.1235059E+00
         -4   -1    0    0    0  501 -0.00000000000E+00  0.00000000000E+00  0.95209785468E+01  0.96053075167E+01  0.12700000000E+01 0. -1.
          4   -1    0    0  501    0  0.00000000000E+00 -0.00000000000E+00 -0.40842701391E+03  0.40842898843E+03  0.12700000000E+01 0. -1.
         25    2    1    2    0    0  0.00000000000E+00  0.00000000000E+00 -0.39890603536E+03  0.41803429595E+03  0.12500658999E+03 0.  0.
    9000005    1    3    3    0    0 -0.40400675028E+02 -0.26646549093E+02 -0.33167853531E+03  0.33519233868E+03  0.10000000000E+01 0.  0.
    9000005    1    3    3    0    0  0.40400675028E+02  0.26646549093E+02 -0.67227500050E+02  0.82841957269E+02  0.10000000000E+01 0.  0.
<mgrwt>
<rscale>  0 0.12500659E+03</rscale>
<asrwt>0</asrwt>
<pdfrwt beam="2">  1        4 0.62841550E-01 0.12500659E+03</pdfrwt>
<pdfrwt beam="1">  1       -4 0.14714050E-02 0.12500659E+03</pdfrwt>
<totfact> 0.62826664E+03</totfact>
</mgrwt>
</event>
<event>
 5    1  0.3276024E-002  0.1249978E+03  0.7818608E-02  0.1235073E+00
         -4   -1    0    0    0  501 -0.00000000000E+00  0.00000000000E+00  0.20868741362E+02  0.20907349570E+02  0.12700000000E+01 0.  1.
          4   -1    0    0  501    0  0.00000000000E+00 -0.00000000000E+00 -0.18696147683E+03  0.18696579023E+03  0.12700000000E+01 0.  1.
         25    2    1    2    0    0  0.00000000000E+00  0.00000000000E+00 -0.16609273546E+03  0.20787313980E+03  0.12499778189E+03 0.  0.
    9000005    1    3    3    0    0  0.27507704738E+02  0.27125309089E+01  0.10157846456E+02  0.29465462638E+02  0.10000000000E+01 0.  0.
    9000005    1    3    3    0    0 -0.27507704738E+02 -0.27125309089E+01 -0.17625058192E+03  0.17840767716E+03  0.10000000000E+01 0.  0.
<mgrwt>
<rscale>  0 0.12499778E+03</rscale>
<asrwt>0</asrwt>
<pdfrwt beam="2">  1        4 0.28766605E-01 0.12499778E+03</pdfrwt>
<pdfrwt beam="1">  1       -4 0.32138774E-02 0.12499778E+03</pdfrwt>
<totfact> 0.88828813E+03</totfact>
</mgrwt>
</event>
<event>
 5    1  0.3276024E-002  0.1249987E+03  0.7818608E-02  0.1235071E+00
         -4   -1    0    0    0  501 -0.00000000000E+00  0.00000000000E+00  0.42457626138E+02  0.42476616124E+02  0.12700000000E+01 0. -1.
          4   -1    0    0  501    0  0.00000000000E+00 -0.00000000000E+00 -0.91957660603E+02  0.91966429981E+02  0.12700000000E+01 0. -1.
         25    2    1    2    0    0  0.00000000000E+00  0.00000000000E+00 -0.49500034464E+02  0.13444304610E+03  0.12499871693E+03 0.  0.
    9000005    1    3    3    0    0  0.40730932416E+02  0.44610869759E+02 -0.75400802930E+01  0.60885066863E+02  0.10000000000E+01 0.  0.
    9000005    1    3    3    0    0 -0.40730932416E+02 -0.44610869759E+02 -0.41959954171E+02  0.73557979242E+02  0.10000000000E+01 0.  0.
<mgrwt>
<rscale>  0 0.12499872E+03</rscale>
<asrwt>0</asrwt>
<pdfrwt beam="2">  1        4 0.14149468E-01 0.12499872E+03</pdfrwt>
<pdfrwt beam="1">  1       -4 0.65340779E-02 0.12499872E+03</pdfrwt>
<totfact> 0.10250120E+04</totfact>
</mgrwt>
</event>
<event>
 5    1  0.3276024E-002  0.1250049E+03  0.7818608E-02  0.1235062E+00
         -4   -1    0    0    0  501 -0.00000000000E+00  0.00000000000E+00  0.45549095396E+02  0.45566797028E+02  0.12700000000E+01 0.  1.
          4   -1    0    0  501    0  0.00000000000E+00 -0.00000000000E+00 -0.85726704961E+02  0.85736111666E+02  0.12700000000E+01 0.  1.
         25    2    1    2    0    0  0.00000000000E+00  0.00000000000E+00 -0.40177609566E+02  0.13130290869E+03  0.12500485399E+03 0.  0.
    9000005    1    3    3    0    0  0.37478486564E+02  0.32017119533E+02  0.20263118241E+02  0.53304097958E+02  0.10000000000E+01 0.  0.
    9000005    1    3    3    0    0 -0.37478486564E+02 -0.32017119533E+02 -0.60440727806E+02  0.77998810735E+02  0.10000000000E+01 0.  0.
<mgrwt>
<rscale>  0 0.12500485E+03</rscale>
<asrwt>0</asrwt>
<pdfrwt beam="2">  1        4 0.13190809E-01 0.12500485E+03</pdfrwt>
<pdfrwt beam="1">  1       -4 0.70096384E-02 0.12500485E+03</pdfrwt>
<totfact> 0.10315470E+04</totfact>
</mgrwt>
</event>
<event>
 5    1  0.3276024E-002  0.1250004E+03  0.7818608E-02  0.1235069E+00
          4   -1    0    0  501    0  0.00000000000E+00  0.00000000000E+00  0.61000833914E+02  0.61014052793E+02  0.12700000000E+01 0.  1.
         -4   -1    0    0    0  501 -0.00000000000E+00 -0.00000000000E+00 -0.64009964814E+02  0.64022562394E+02  0.12700000000E+01 0.  1.
         25    2    1    2    0    0  0.00000000000E+00  0.00000000000E+00 -0.30091308997E+01  0.12503661519E+03  0.12500040107E+03 0.  0.
    9000005    1    3    3    0    0  0.39055290485E+02 -0.31672120465E+02 -0.38621058077E+02  0.63411553021E+02  0.10000000000E+01 0.  0.
    9000005    1    3    3    0    0 -0.39055290485E+02  0.31672120465E+02  0.35611927178E+02  0.61625062165E+02  0.10000000000E+01 0.  0.
<mgrwt>
<rscale>  0 0.12500040E+03</rscale>
<asrwt>0</asrwt>
<pdfrwt beam="1">  1        4 0.93867295E-02 0.12500040E+03</pdfrwt>
<pdfrwt beam="2">  1       -4 0.98496728E-02 0.12500040E+03</pdfrwt>
<totfact> 0.10451973E+04</totfact>
</mgrwt>
</event>
<event>
 5    1  0.3276024E-002  0.1249996E+03  0.7818608E-02  0.1235070E+00
         -4   -1    0    0    0  501 -0.00000000000E+00  0.00000000000E+00  0.51659940442E+01  0.53198115065E+01  0.12700000000E+01 0. -1.
          4   -1    0    0  501    0  0.00000000000E+00 -0.00000000000E+00 -0.74489553996E+03  0.74489662259E+03  0.12700000000E+01 0. -1.
         25    2    1    2    0    0  0.00000000000E+00  0.00000000000E+00 -0.73972954592E+03  0.75021643410E+03  0.12499958758E+03 0.  0.
    9000005    1    3    3    0    0  0.29593235685E+02  0.48124860394E+02 -0.53017585665E+03  0.53317839487E+03  0.10000000000E+01 0.  0.
    9000005    1    3    3    0    0 -0.29593235685E+02 -0.48124860394E+02 -0.20955368927E+03  0.21703803923E+03  0.10000000000E+01 0.  0.
<mgrwt>
<rscale>  0 0.12499959E+03</rscale>
<asrwt>0</asrwt>
<pdfrwt beam="2">  1        4 0.11461115E+00 0.12499959E+03</pdfrwt>
<pdfrwt beam="1">  1       -4 0.80668430E-03 0.12499959E+03</pdfrwt>
<totfact> 0.40564176E+03</totfact>
</mgrwt>
</event>
<event>
 5    1  0.3276024E-002  0.1249998E+03  0.7818608E-02  0.1235070E+00
          4   -1    0    0  501    0  0.00000000000E+00  0.00000000000E+00  0.15284521558E+02  0.15337193330E+02  0.12700000000E+01 0.  1.
         -4   -1    0    0    0  501 -0.00000000000E+00 -0.00000000000E+00 -0.25507446576E+03  0.25507762736E+03  0.12700000000E+01 0.  1.
         25    2    1    2    0    0  0.00000000000E+00  0.00000000000E+00 -0.23978994420E+03  0.27041482069E+03  0.12499983165E+03 0.  0.
    9000005    1    3    3    0    0 -0.23095528515E+02  0.57382295115E+02 -0.10065378135E+03  0.11814531277E+03  0.10000000000E+01 0.  0.
    9000005    1    3    3    0    0  0.23095528515E+02 -0.57382295115E+02 -0.13913616285E+03  0.15226950793E+03  0.10000000000E+01 0.  0.
<mgrwt>
<rscale>  0 0.12499983E+03</rscale>
<asrwt>0</asrwt>
<pdfrwt beam="1">  1        4 0.23557599E-02 0.12499983E+03</pdfrwt>
<pdfrwt beam="2">  1       -4 0.39246517E-01 0.12499983E+03</pdfrwt>
<totfact> 0.79466645E+03</totfact>
</mgrwt>
</event>
<event>
 5    1  0.3276024E-002  0.1249999E+03  0.7818608E-02  0.1235069E+00
          4   -1    0    0  501    0  0.00000000000E+00  0.00000000000E+00  0.68395967044E+02  0.68407756927E+02  0.12700000000E+01 0. -1.
         -4   -1    0    0    0  501 -0.00000000000E+00 -0.00000000000E+00 -0.57088461705E+02  0.57102586280E+02  0.12700000000E+01 0. -1.
         25    2    1    2    0    0  0.00000000000E+00  0.00000000000E+00  0.11307505338E+02  0.12551034321E+03  0.12499994630E+03 0.  0.
    9000005    1    3    3    0    0 -0.36198280082E+02  0.48729115044E+02 -0.92528930253E+01  0.61412198814E+02  0.10000000000E+01 0.  0.
    9000005    1    3    3    0    0  0.36198280082E+02 -0.48729115044E+02  0.20560398363E+02  0.64098144393E+02  0.10000000000E+01 0.  0.
<mgrwt>
<rscale>  0 0.12499995E+03</rscale>
<asrwt>0</asrwt>
<pdfrwt beam="1">  1        4 0.10524450E-01 0.12499995E+03</pdfrwt>
<pdfrwt beam="2">  1       -4 0.87848337E-02 0.12499995E+03</pdfrwt>
<totfact> 0.10441738E+04</totfact>
</mgrwt>
</event>
<event>
 5    1  0.3276024E-002  0.1250011E+03  0.7818608E-02  0.1235068E+00
         -4   -1    0    0    0  501 -0.00000000000E+00  0.00000000000E+00  0.62648821512E+01  0.63923116608E+01  0.12700000000E+01 0.  1.
          4   -1    0    0  501    0  0.00000000000E+00 -0.00000000000E+00 -0.61712100006E+03  0.61712230685E+03  0.12700000000E+01 0.  1.
         25    2    1    2    0    0  0.00000000000E+00  0.00000000000E+00 -0.61085611791E+03  0.62351461852E+03  0.12500113085E+03 0.  0.
    9000005    1    3    3    0    0  0.38093676651E+02 -0.36373953390E+02 -0.47318811912E+03  0.47611152975E+03  0.10000000000E+01 0.  0.
    9000005    1    3    3    0    0 -0.38093676651E+02  0.36373953390E+02 -0.13766799879E+03  0.14740308876E+03  0.10000000000E+01 0.  0.
<mgrwt>
<rscale>  0 0.12500113E+03</rscale>
<asrwt>0</asrwt>
<pdfrwt beam="2">  1        4 0.94951548E-01 0.12500113E+03</pdfrwt>
<pdfrwt beam="1">  1       -4 0.97373130E-03 0.12500113E+03</pdfrwt>
<totfact> 0.47415006E+03</totfact>
</mgrwt>
</event>
<event>
 5    1  0.3276024E-002  0.1250011E+03  0.7818608E-02  0.1235067E+00
          4   -1    0    0  501    0  0.00000000000E+00  0.00000000000E+00  0.53905673336E+03  0.53905822940E+03  0.12700000000E+01 0. -1.
         -4   -1    0    0    0  501 -0.00000000000E+00 -0.00000000000E+00 -0.71894263274E+01  0.73007363270E+01  0.12700000000E+01 0. -1.
         25    2    1    2    0    0  0.00000000000E+00  0.00000000000E+00  0.53186730704E+03  0.54635896573E+03  0.12500114854E+03 0.  0.
    9000005    1    3    3    0    0  0.14986608414E+02  0.25263030333E+02  0.24843455625E+02  0.38483976155E+02  0.10000000000E+01 0.  0.
    9000005    1    3    3    0    0 -0.14986608414E+02 -0.25263030333E+02  0.50702385141E+03  0.50787498957E+03  0.10000000000E+01 0.  0.
<mgrwt>
<rscale>  0 0.12500115E+03</rscale>
<asrwt>0</asrwt>
<pdfrwt beam="1">  1        4 0.82940489E-01 0.12500115E+03</pdfrwt>
<pdfrwt beam="2">  1       -4 0.11147429E-02 0.12500115E+03</pdfrwt>
<totfact> 0.52437406E+03</totfact>
</mgrwt>
</event>
<event>
 5    1  0.3276024E-002  0.1250038E+03  0.7818608E-02  0.1235063E+00
         -4   -1    0    0    0  501 -0.00000000000E+00  0.00000000000E+00  0.21471328787E+03  0.21471704377E+03  0.12700000000E+01 0.  1.
          4   -1    0    0  501    0  0.00000000000E+00 -0.00000000000E+00 -0.18167875731E+02  0.18212210425E+02  0.12700000000E+01 0.  1.
         25    2    1    2    0    0  0.00000000000E+00  0.00000000000E+00  0.19654541214E+03  0.23292925420E+03  0.12500375366E+03 0.  0.
    9000005    1    3    3    0    0 -0.38084924881E+02 -0.41526008030E+02  0.47905842689E+02  0.73965131041E+02  0.10000000000E+01 0.  0.
    9000005    1    3    3    0    0  0.38084924881E+02  0.41526008030E+02  0.14863956945E+03  0.15896412316E+03  0.10000000000E+01 0.  0.
<mgrwt>
<rscale>  0 0.12500375E+03</rscale>
<asrwt>0</asrwt>
<pdfrwt beam="2">  1        4 0.27987571E-02 0.12500375E+03</pdfrwt>
<pdfrwt beam="1">  1       -4 0.33036513E-01 0.12500375E+03</pdfrwt>
<totfact> 0.84854722E+03</totfact>
</mgrwt>
</event>
<event>
 5    1  0.3276024E-002  0.1250004E+03  0.7818608E-02  0.1235069E+00
          4   -1    0    0  501    0  0.00000000000E+00  0.00000000000E+00  0.47349267313E+02  0.47366296193E+02  0.12700000000E+01 0.  1.
         -4   -1    0    0    0  501 -0.00000000000E+00 -0.00000000000E+00 -0.82462408288E+02  0.82472187316E+02  0.12700000000E+01 0.  1.
         25    2    1    2    0    0  0.00000000000E+00  0.00000000000E+00 -0.35113140975E+02  0.12983848351E+03  0.12500039652E+03 0.  0.
    9000005    1    3    3    0    0  0.56549552666E+02  0.26465871494E+02 -0.14812242625E+02  0.64177073727E+02  0.10000000000E+01 0.  0.
    9000005    1    3    3    0    0 -0.56549552666E+02 -0.26465871494E+02 -0.20300898350E+02  0.65661409781E+02  0.10000000000E+01 0.  0.
<mgrwt>
<rscale>  0 0.12500040E+03</rscale>
<asrwt>0</asrwt>
<pdfrwt beam="1">  1        4 0.72865648E-02 0.12500040E+03</pdfrwt>
<pdfrwt beam="2">  1       -4 0.12688587E-01 0.12500040E+03</pdfrwt>
<totfact> 0.10347871E+04</totfact>
</mgrwt>
</event>
<event>
 5    1  0.3276024E-002  0.1250001E+03  0.7818608E-02  0.1235069E+00
          4   -1    0    0  501    0  0.00000000000E+00  0.00000000000E+00  0.10571017365E+03  0.10571780226E+03  0.12700000000E+01 0.  1.
         -4   -1    0    0    0  501 -0.00000000000E+00 -0.00000000000E+00 -0.36932634201E+02  0.36954463452E+02  0.12700000000E+01 0.  1.
         25    2    1    2    0    0  0.00000000000E+00  0.00000000000E+00  0.68777539452E+02  0.14267226571E+03  0.12500010188E+03 0.  0.
    9000005    1    3    3    0    0 -0.55563724385E+02 -0.56257324156E+01  0.66393768520E+02  0.86764675018E+02  0.10000000000E+01 0.  0.
    9000005    1    3    3    0    0  0.55563724385E+02  0.56257324156E+01  0.23837709318E+01  0.55907590689E+02  0.10000000000E+01 0.  0.
<mgrwt>
<rscale>  0 0.12500010E+03</rscale>
<asrwt>0</asrwt>
<pdfrwt beam="1">  1        4 0.16265370E-01 0.12500010E+03</pdfrwt>
<pdfrwt beam="2">  1       -4 0.56842097E-02 0.12500010E+03</pdfrwt>
<totfact> 0.10078476E+04</totfact>
</mgrwt>
</event>
<event>
 5    1  0.3276024E-002  0.1250032E+03  0.7818608E-02  0.1235064E+00
         -4   -1    0    0    0  501 -0.00000000000E+00  0.00000000000E+00  0.13607154665E+03  0.13607747318E+03  0.12700000000E+01 0. -1.
          4   -1    0    0  501    0  0.00000000000E+00 -0.00000000000E+00 -0.28688192925E+02  0.28716290033E+02  0.12700000000E+01 0. -1.
         25    2    1    2    0    0  0.00000000000E+00  0.00000000000E+00  0.10738335372E+03  0.16479376321E+03  0.12500319891E+03 0.  0.
    9000005    1    3    3    0    0 -0.57482638704E+02  0.22782150080E+02  0.41741459322E+02  0.74609848821E+02  0.10000000000E+01 0.  0.
    9000005    1    3    3    0    0  0.57482638704E+02 -0.22782150080E+02  0.65641894400E+02  0.90183914392E+02  0.10000000000E+01 0.  0.
<mgrwt>
<rscale>  0 0.12500320E+03</rscale>
<asrwt>0</asrwt>
<pdfrwt beam="2">  1        4 0.44161853E-02 0.12500320E+03</pdfrwt>
<pdfrwt beam="1">  1       -4 0.20936702E-01 0.12500320E+03</pdfrwt>
<totfact> 0.96419535E+03</totfact>
</mgrwt>
</event>
<event>
 5    1  0.3276024E-002  0.1249988E+03  0.7818608E-02  0.1235071E+00
          4   -1    0    0  501    0  0.00000000000E+00  0.00000000000E+00  0.30178402206E+02  0.30205113139E+02  0.12700000000E+01 0.  1.
         -4   -1    0    0    0  501 -0.00000000000E+00 -0.00000000000E+00 -0.12934909463E+03  0.12935532916E+03  0.12700000000E+01 0.  1.
         25    2    1    2    0    0  0.00000000000E+00  0.00000000000E+00 -0.99170692421E+02  0.15956044229E+03  0.12499883403E+03 0.  0.
    9000005    1    3    3    0    0 -0.18944943917E+02 -0.19276437851E+02  0.22337953064E+02  0.35078142815E+02  0.10000000000E+01 0.  0.
    9000005    1    3    3    0    0  0.18944943917E+02  0.19276437851E+02 -0.12150864548E+03  0.12448229948E+03  0.10000000000E+01 0.  0.
<mgrwt>
<rscale>  0 0.12499883E+03</rscale>
<asrwt>0</asrwt>
<pdfrwt beam="1">  1        4 0.46453654E-02 0.12499883E+03</pdfrwt>
<pdfrwt beam="2">  1       -4 0.19902395E-01 0.12499883E+03</pdfrwt>
<totfact> 0.97430149E+03</totfact>
</mgrwt>
</event>
<event>
 5    1  0.3276024E-002  0.1249936E+03  0.7818608E-02  0.1235079E+00
         -4   -1    0    0    0  501 -0.00000000000E+00  0.00000000000E+00  0.15973677759E+02  0.16024084409E+02  0.12700000000E+01 0.  1.
          4   -1    0    0  501    0  0.00000000000E+00 -0.00000000000E+00 -0.24408050903E+03  0.24408381304E+03  0.12700000000E+01 0.  1.
         25    2    1    2    0    0  0.00000000000E+00  0.00000000000E+00 -0.22810683127E+03  0.26010789744E+03  0.12499356720E+03 0.  0.
    9000005    1    3    3    0    0  0.60812294224E+02  0.32667188950E+01 -0.84916756660E+02  0.10450197196E+03  0.10000000000E+01 0.  0.
    9000005    1    3    3    0    0 -0.60812294224E+02 -0.32667188950E+01 -0.14319007461E+03  0.15560592549E+03  0.10000000000E+01 0.  0.
<mgrwt>
<rscale>  0 0.12499357E+03</rscale>
<asrwt>0</asrwt>
<pdfrwt beam="2">  1        4 0.37554976E-01 0.12499357E+03</pdfrwt>
<pdfrwt beam="1">  1       -4 0.24616207E-02 0.12499357E+03</pdfrwt>
<totfact> 0.80902507E+03</totfact>
</mgrwt>
</event>
<event>
 5    1  0.3276024E-002  0.1250017E+03  0.7818608E-02  0.1235067E+00
          4   -1    0    0  501    0  0.00000000000E+00  0.00000000000E+00  0.15394856397E+04  0.15394861636E+04  0.12700000000E+01 0.  1.
         -4   -1    0    0    0  501 -0.00000000000E+00 -0.00000000000E+00 -0.23779748009E+01  0.26958605590E+01  0.12700000000E+01 0.  1.
         25    2    1    2    0    0  0.00000000000E+00  0.00000000000E+00  0.15371076649E+04  0.15421820241E+04  0.12500168789E+03 0.  0.
    9000005    1    3    3    0    0  0.55286366640E+02 -0.25193224600E+02  0.94906427106E+03  0.95100750339E+03  0.10000000000E+01 0.  0.
    9000005    1    3    3    0    0 -0.55286366640E+02  0.25193224600E+02  0.58804339388E+03  0.59117452076E+03  0.10000000000E+01 0.  0.
<mgrwt>
<rscale>  0 0.12500169E+03</rscale>
<asrwt>0</asrwt>
<pdfrwt beam="1">  1        4 0.23686751E+00 0.12500169E+03</pdfrwt>
<pdfrwt beam="2">  1       -4 0.39033686E-03 0.12500169E+03</pdfrwt>
<totfact> 0.17115454E+03</totfact>
</mgrwt>
</event>
<event>
 5    1  0.3276024E-002  0.1250002E+03  0.7818608E-02  0.1235069E+00
         -4   -1    0    0    0  501 -0.00000000000E+00  0.00000000000E+00  0.54780057666E+02  0.54794777286E+02  0.12700000000E+01 0. -1.
          4   -1    0    0  501    0  0.00000000000E+00 -0.00000000000E+00 -0.71278139162E+02  0.71289452393E+02  0.12700000000E+01 0. -1.
         25    2    1    2    0    0  0.00000000000E+00  0.00000000000E+00 -0.16498081497E+02  0.12608422968E+03  0.12500018512E+03 0.  0.
    9000005    1    3    3    0    0  0.40037540211E+02  0.41113059847E+02  0.16703589673E+02  0.59777071056E+02  0.10000000000E+01 0.  0.
    9000005    1    3    3    0    0 -0.40037540211E+02 -0.41113059847E+02 -0.33201671170E+02  0.66307158623E+02  0.10000000000E+01 0.  0.
<mgrwt>
<rscale>  0 0.12500019E+03</rscale>
<asrwt>0</asrwt>
<pdfrwt beam="2">  1        4 0.10967870E-01 0.12500019E+03</pdfrwt>
<pdfrwt beam="1">  1       -4 0.84297037E-02 0.12500019E+03</pdfrwt>
<totfact> 0.10429068E+04</totfact>
</mgrwt>
</event>
<event>
 5    1  0.3276024E-002  0.1249939E+03  0.7818608E-02  0.1235079E+00
         -4   -1    0    0    0  501 -0.00000000000E+00  0.00000000000E+00  0.12396117080E+03  0.12396767629E+03  0.12700000000E+01 0. -1.
          4   -1    0    0  501    0  0.00000000000E+00 -0.00000000000E+00 -0.31488690879E+02  0.31514291254E+02  0.12700000000E+01 0. -1.
         25    2    1    2    0    0  0.00000000000E+00  0.00000000000E+00  0.92472479916E+02  0.15548196755E+03  0.12499393061E+03 0.  0.
    9000005    1    3    3    0    0 -0.15909075911E+02  0.60069158269E+02  0.54437431125E+02  0.82618620051E+02  0.10000000000E+01 0.  0.
    9000005    1    3    3    0    0  0.15909075911E+02 -0.60069158269E+02  0.38035048791E+02  0.72863347494E+02  0.10000000000E+01 0.  0.
<mgrwt>
<rscale>  0 0.12499393E+03</rscale>
<asrwt>0</asrwt>
<pdfrwt beam="2">  1        4 0.48468837E-02 0.12499393E+03</pdfrwt>
<pdfrwt beam="1">  1       -4 0.19073419E-01 0.12499393E+03</pdfrwt>
<totfact> 0.98234373E+03</totfact>
</mgrwt>
</event>
<event>
 5    1  0.3276024E-002  0.1249998E+03  0.7818608E-02  0.1235070E+00
          4   -1    0    0  501    0  0.00000000000E+00  0.00000000000E+00  0.26759244358E+03  0.26759545729E+03  0.12700000000E+01 0.  1.
         -4   -1    0    0    0  501 -0.00000000000E+00 -0.00000000000E+00 -0.14566979818E+02  0.14622236526E+02  0.12700000000E+01 0.  1.
         25    2    1    2    0    0  0.00000000000E+00  0.00000000000E+00  0.25302546377E+03  0.28221769382E+03  0.12499976556E+03 0.  0.
    9000005    1    3    3    0    0  0.11552075821E+02  0.27067218258E+02  0.25097885145E+03  0.25270035346E+03  0.10000000000E+01 0.  0.
    9000005    1    3    3    0    0 -0.11552075821E+02 -0.27067218258E+02  0.20466123119E+01  0.29517340361E+02  0.10000000000E+01 0.  0.
<mgrwt>
<rscale>  0 0.12499977E+03</rscale>
<asrwt>0</asrwt>
<pdfrwt beam="1">  1        4 0.41172547E-01 0.12499977E+03</pdfrwt>
<pdfrwt beam="2">  1       -4 0.22455564E-02 0.12499977E+03</pdfrwt>
<totfact> 0.77885379E+03</totfact>
</mgrwt>
</event>
<event>
 5    1  0.3276024E-002  0.1250046E+03  0.7818608E-02  0.1235062E+00
          4   -1    0    0  501    0  0.00000000000E+00  0.00000000000E+00  0.59890937583E+03  0.59891072236E+03  0.12700000000E+01 0. -1.
         -4   -1    0    0    0  501 -0.00000000000E+00 -0.00000000000E+00 -0.64595669611E+01  0.65832290956E+01  0.12700000000E+01 0. -1.
         25    2    1    2    0    0  0.00000000000E+00  0.00000000000E+00  0.59244980887E+03  0.60549395146E+03  0.12500459680E+03 0.  0.
    9000005    1    3    3    0    0  0.10310554845E+02 -0.27561894670E+02  0.56327333105E+03  0.56404238409E+03  0.10000000000E+01 0.  0.
    9000005    1    3    3    0    0 -0.10310554845E+02  0.27561894670E+02  0.29176477819E+02  0.41451567364E+02  0.10000000000E+01 0.  0.
<mgrwt>
<rscale>  0 0.12500460E+03</rscale>
<asrwt>0</asrwt>
<pdfrwt beam="1">  1        4 0.92149531E-01 0.12500460E+03</pdfrwt>
<pdfrwt beam="2">  1       -4 0.10033955E-02 0.12500460E+03</pdfrwt>
<totfact> 0.48517748E+03</totfact>
</mgrwt>
</event>
<event>
 5    1  0.3276024E-002  0.1249993E+03  0.7818608E-02  0.1235070E+00
          4   -1    0    0  501    0  0.00000000000E+00  0.00000000000E+00  0.42819166208E+03  0.42819354546E+03  0.12700000000E+01 0.  1.
         -4   -1    0    0    0  501 -0.00000000000E+00 -0.00000000000E+00 -0.90764554295E+01  0.91648755127E+01  0.12700000000E+01 0.  1.
         25    2    1    2    0    0  0.00000000000E+00  0.00000000000E+00  0.41911520665E+03  0.43735842097E+03  0.12499932780E+03 0.  0.
    9000005    1    3    3    0    0  0.31153220428E+02 -0.48106542593E+02  0.29671045490E+03  0.30219671843E+03  0.10000000000E+01 0.  0.
    9000005    1    3    3    0    0 -0.31153220428E+02  0.48106542593E+02  0.12240475175E+03  0.13516170254E+03  0.10000000000E+01 0.  0.
<mgrwt>
<rscale>  0 0.12499933E+03</rscale>
<asrwt>0</asrwt>
<pdfrwt beam="1">  1        4 0.65882590E-01 0.12499933E+03</pdfrwt>
<pdfrwt beam="2">  1       -4 0.14033241E-02 0.12499933E+03</pdfrwt>
<totfact> 0.61075514E+03</totfact>
</mgrwt>
</event>
<event>
 5    1  0.3276024E-002  0.1249934E+03  0.7818608E-02  0.1235080E+00
         -4   -1    0    0    0  501 -0.00000000000E+00  0.00000000000E+00  0.52793619312E+02  0.52808892623E+02  0.12700000000E+01 0.  1.
          4   -1    0    0  501    0  0.00000000000E+00 -0.00000000000E+00 -0.73951695100E+02  0.73962599387E+02  0.12700000000E+01 0.  1.
         25    2    1    2    0    0  0.00000000000E+00  0.00000000000E+00 -0.21158075788E+02  0.12677149201E+03  0.12499338789E+03 0.  0.
    9000005    1    3    3    0    0 -0.78468514202E+01  0.58098448063E+02 -0.32516200631E+02  0.67047043545E+02  0.10000000000E+01 0.  0.
    9000005    1    3    3    0    0  0.78468514202E+01 -0.58098448063E+02  0.11358124844E+02  0.59724448466E+02  0.10000000000E+01 0.  0.
<mgrwt>
<rscale>  0 0.12499339E+03</rscale>
<asrwt>0</asrwt>
<pdfrwt beam="2">  1        4 0.11379198E-01 0.12499339E+03</pdfrwt>
<pdfrwt beam="1">  1       -4 0.81241089E-02 0.12499339E+03</pdfrwt>
<totfact> 0.10415669E+04</totfact>
</mgrwt>
</event>
<event>
 5    1  0.3276024E-002  0.1250024E+03  0.7818608E-02  0.1235066E+00
         -4   -1    0    0    0  501 -0.00000000000E+00  0.00000000000E+00  0.17314780107E+03  0.17315245859E+03  0.12700000000E+01 0.  1.
          4   -1    0    0  501    0  0.00000000000E+00 -0.00000000000E+00 -0.22538235695E+02  0.22573988753E+02  0.12700000000E+01 0.  1.
         25    2    1    2    0    0  0.00000000000E+00  0.00000000000E+00  0.15060956538E+03  0.19572644734E+03  0.12500240400E+03 0.  0.
    9000005    1    3    3    0    0 -0.60245763466E+01 -0.49093694697E+02  0.15498614903E+02  0.51842969081E+02  0.10000000000E+01 0.  0.
    9000005    1    3    3    0    0  0.60245763466E+01  0.49093694697E+02  0.13511095047E+03  0.14388347826E+03  0.10000000000E+01 0.  0.
<mgrwt>
<rscale>  0 0.12500240E+03</rscale>
<asrwt>0</asrwt>
<pdfrwt beam="2">  1        4 0.34705294E-02 0.12500240E+03</pdfrwt>
<pdfrwt beam="1">  1       -4 0.26641231E-01 0.12500240E+03</pdfrwt>
<totfact> 0.90855478E+03</totfact>
</mgrwt>
</event>
<event>
 5    1  0.3276024E-002  0.1250050E+03  0.7818608E-02  0.1235061E+00
         -4   -1    0    0    0  501 -0.00000000000E+00  0.00000000000E+00  0.66899200216E+03  0.66899320763E+03  0.12700000000E+01 0.  1.
          4   -1    0    0  501    0  0.00000000000E+00 -0.00000000000E+00 -0.57692036589E+01  0.59073353432E+01  0.12700000000E+01 0.  1.
         25    2    1    2    0    0  0.00000000000E+00  0.00000000000E+00  0.66322279850E+03  0.67490054297E+03  0.12500504971E+03 0.  0.
    9000005    1    3    3    0    0 -0.34008402357E+02  0.37615337769E+02  0.52880973533E+03  0.53123650217E+03  0.10000000000E+01 0.  0.
    9000005    1    3    3    0    0  0.34008402357E+02 -0.37615337769E+02  0.13441306317E+03  0.14366404080E+03  0.10000000000E+01 0.  0.
<mgrwt>
<rscale>  0 0.12500505E+03</rscale>
<asrwt>0</asrwt>
<pdfrwt beam="2">  1        4 0.89828796E-03 0.12500505E+03</pdfrwt>
<pdfrwt beam="1">  1       -4 0.10293257E+00 0.12500505E+03</pdfrwt>
<totfact> 0.44440277E+03</totfact>
</mgrwt>
</event>
<event>
 5    1  0.3276024E-002  0.1249984E+03  0.7818608E-02  0.1235072E+00
          4   -1    0    0  501    0  0.00000000000E+00  0.00000000000E+00  0.10873287031E+03  0.10874028686E+03  0.12700000000E+01 0.  1.
         -4   -1    0    0    0  501 -0.00000000000E+00 -0.00000000000E+00 -0.35904427039E+02  0.35926881037E+02  0.12700000000E+01 0.  1.
         25    2    1    2    0    0  0.00000000000E+00  0.00000000000E+00  0.72828443268E+02  0.14466716789E+03  0.12499842926E+03 0.  0.
    9000005    1    3    3    0    0  0.31106642390E+02  0.33988571242E+02 -0.12446121902E+02  0.47736276836E+02  0.10000000000E+01 0.  0.
    9000005    1    3    3    0    0 -0.31106642390E+02 -0.33988571242E+02  0.85274565170E+02  0.96930891056E+02  0.10000000000E+01 0.  0.
<mgrwt>
<rscale>  0 0.12499843E+03</rscale>
<asrwt>0</asrwt>
<pdfrwt beam="1">  1        4 0.16730431E-01 0.12499843E+03</pdfrwt>
<pdfrwt beam="2">  1       -4 0.55260558E-02 0.12499843E+03</pdfrwt>
<totfact> 0.10038110E+04</totfact>
</mgrwt>
</event>
<event>
 5    1  0.3276024E-002  0.1250001E+03  0.7818608E-02  0.1235069E+00
          4   -1    0    0  501    0  0.00000000000E+00  0.00000000000E+00  0.48622348797E+03  0.48622514657E+03  0.12700000000E+01 0.  1.
         -4   -1    0    0    0  501 -0.00000000000E+00 -0.00000000000E+00 -0.79819928476E+01  0.80823950546E+01  0.12700000000E+01 0.  1.
         25    2    1    2    0    0  0.00000000000E+00  0.00000000000E+00  0.47824149512E+03  0.49430754162E+03  0.12500007219E+03 0.  0.
    9000005    1    3    3    0    0 -0.13737640151E+02 -0.79028031620E+01  0.77848488242E-01  0.15880274404E+02  0.10000000000E+01 0.  0.
    9000005    1    3    3    0    0  0.13737640151E+02  0.79028031620E+01  0.47816364663E+03  0.47842726722E+03  0.10000000000E+01 0.  0.
<mgrwt>
<rscale>  0 0.12500007E+03</rscale>
<asrwt>0</asrwt>
<pdfrwt beam="1">  1        4 0.74811464E-01 0.12500007E+03</pdfrwt>
<pdfrwt beam="2">  1       -4 0.12358497E-02 0.12500007E+03</pdfrwt>
<totfact> 0.56308661E+03</totfact>
</mgrwt>
</event>
<event>
 5    1  0.3276024E-002  0.1250314E+03  0.7818608E-02  0.1235020E+00
         -4   -1    0    0    0  501 -0.00000000000E+00  0.00000000000E+00  0.21739089120E+03  0.21739460084E+03  0.12700000000E+01 0. -1.
          4   -1    0    0  501    0  0.00000000000E+00 -0.00000000000E+00 -0.17951525035E+02  0.17996392724E+02  0.12700000000E+01 0. -1.
         25    2    1    2    0    0  0.00000000000E+00  0.00000000000E+00  0.19943936616E+03  0.23539099357E+03  0.12503143236E+03 0.  0.
    9000005    1    3    3    0    0 -0.53886921798E+02  0.30046297509E+02  0.11860585508E+03  0.13369715478E+03  0.10000000000E+01 0.  0.
    9000005    1    3    3    0    0  0.53886921798E+02 -0.30046297509E+02  0.80833511076E+02  0.10169383879E+03  0.10000000000E+01 0.  0.
<mgrwt>
<rscale>  0 0.12503143E+03</rscale>
<asrwt>0</asrwt>
<pdfrwt beam="2">  1        4 0.27655099E-02 0.12503143E+03</pdfrwt>
<pdfrwt beam="1">  1       -4 0.33448488E-01 0.12503143E+03</pdfrwt>
<totfact> 0.84429422E+03</totfact>
</mgrwt>
</event>
<event>
 5    1  0.3276024E-002  0.1250015E+03  0.7818608E-02  0.1235067E+00
          4   -1    0    0  501    0  0.00000000000E+00  0.00000000000E+00  0.83631813693E+03  0.83631910121E+03  0.12700000000E+01 0. -1.
         -4   -1    0    0    0  501 -0.00000000000E+00 -0.00000000000E+00 -0.45835727026E+01  0.47562631046E+01  0.12700000000E+01 0. -1.
         25    2    1    2    0    0  0.00000000000E+00  0.00000000000E+00  0.83173456422E+03  0.84107536432E+03  0.12500153253E+03 0.  0.
    9000005    1    3    3    0    0  0.32255332158E+01  0.59987852009E+02  0.30002737938E+03  0.30598427220E+03  0.10000000000E+01 0.  0.
    9000005    1    3    3    0    0 -0.32255332158E+01 -0.59987852009E+02  0.53170718484E+03  0.53509109212E+03  0.10000000000E+01 0.  0.
<mgrwt>
<rscale>  0 0.12500153E+03</rscale>
<asrwt>0</asrwt>
<pdfrwt beam="1">  1        4 0.12867771E+00 0.12500153E+03</pdfrwt>
<pdfrwt beam="2">  1       -4 0.71852293E-03 0.12500153E+03</pdfrwt>
<totfact> 0.36494108E+03</totfact>
</mgrwt>
</event>
<event>
 5    1  0.3276024E-002  0.1250003E+03  0.7818608E-02  0.1235069E+00
         -4   -1    0    0    0  501 -0.00000000000E+00  0.00000000000E+00  0.22271818472E+03  0.22272180564E+03  0.12700000000E+01 0. -1.
          4   -1    0    0  501    0  0.00000000000E+00 -0.00000000000E+00 -0.17512307159E+02  0.17558297242E+02  0.12700000000E+01 0. -1.
         25    2    1    2    0    0  0.00000000000E+00  0.00000000000E+00  0.20520587756E+03  0.24028010288E+03  0.12500030261E+03 0.  0.
    9000005    1    3    3    0    0  0.51285175193E+02 -0.16484469704E+02  0.16349147933E+03  0.17214055521E+03  0.10000000000E+01 0.  0.
    9000005    1    3    3    0    0 -0.51285175193E+02  0.16484469704E+02  0.41714398236E+02  0.68139547666E+02  0.10000000000E+01 0.  0.
<mgrwt>
<rscale>  0 0.12500030E+03</rscale>
<asrwt>0</asrwt>
<pdfrwt beam="2">  1        4 0.26980173E-02 0.12500030E+03</pdfrwt>
<pdfrwt beam="1">  1       -4 0.34268152E-01 0.12500030E+03</pdfrwt>
<totfact> 0.83755103E+03</totfact>
</mgrwt>
</event>
<event>
 5    1  0.3276024E-002  0.1249923E+03  0.7818608E-02  0.1235081E+00
          4   -1    0    0  501    0  0.00000000000E+00  0.00000000000E+00  0.23835144770E+01  0.27007482782E+01  0.12700000000E+01 0. -1.
         -4   -1    0    0    0  501 -0.00000000000E+00 -0.00000000000E+00 -0.15360983956E+04  0.15360989206E+04  0.12700000000E+01 0. -1.
         25    2    1    2    0    0  0.00000000000E+00  0.00000000000E+00 -0.15337148811E+04  0.15387996689E+04  0.12499233720E+03 0.  0.
    9000005    1    3    3    0    0  0.50004779824E+02  0.68382728862E+01 -0.31325687177E+03  0.31729813692E+03  0.10000000000E+01 0.  0.
    9000005    1    3    3    0    0 -0.50004779824E+02 -0.68382728862E+01 -0.12204580093E+04  0.12215015319E+04  0.10000000000E+01 0.  0.
<mgrwt>
<rscale>  0 0.12499234E+03</rscale>
<asrwt>0</asrwt>
<pdfrwt beam="1">  1        4 0.39113875E-03 0.12499234E+03</pdfrwt>
<pdfrwt beam="2">  1       -4 0.23634653E+00 0.12499234E+03</pdfrwt>
<totfact> 0.17183166E+03</totfact>
</mgrwt>
</event>
<event>
 5    1  0.3276024E-002  0.1249991E+03  0.7818608E-02  0.1235071E+00
         -4   -1    0    0    0  501 -0.00000000000E+00  0.00000000000E+00  0.67992972685E+03  0.67993091293E+03  0.12700000000E+01 0. -1.
          4   -1    0    0  501    0  0.00000000000E+00 -0.00000000000E+00 -0.56736042067E+01  0.58140076276E+01  0.12700000000E+01 0. -1.
         25    2    1    2    0    0  0.00000000000E+00  0.00000000000E+00  0.67425612264E+03  0.68574492055E+03  0.12499910858E+03 0.  0.
    9000005    1    3    3    0    0  0.58462292211E+01 -0.62192304351E+02  0.34683869659E+03  0.35242040601E+03  0.10000000000E+01 0.  0.
    9000005    1    3    3    0    0 -0.58462292211E+01  0.62192304351E+02  0.32741742605E+03  0.33332451455E+03  0.10000000000E+01 0.  0.
<mgrwt>
<rscale>  0 0.12499911E+03</rscale>
<asrwt>0</asrwt>
<pdfrwt beam="2">  1        4 0.88375463E-03 0.12499911E+03</pdfrwt>
<pdfrwt beam="1">  1       -4 0.10461535E+00 0.12499911E+03</pdfrwt>
<totfact> 0.43850853E+03</totfact>
</mgrwt>
</event>
<event>
 5    1  0.3276024E-002  0.1249599E+03  0.7818608E-02  0.1235132E+00
         -4   -1    0    0    0  501 -0.00000000000E+00  0.00000000000E+00  0.16928846981E+03  0.16929323351E+03  0.12700000000E+01 0.  1.
          4   -1    0    0  501    0  0.00000000000E+00 -0.00000000000E+00 -0.23037154611E+02  0.23072134547E+02  0.12700000000E+01 0.  1.
         25    2    1    2    0    0  0.00000000000E+00  0.00000000000E+00  0.14625131520E+03  0.19236536805E+03  0.12495994410E+03 0.  0.
    9000005    1    3    3    0    0  0.70846042616E+01  0.61251826250E+02  0.88578902673E+02  0.10793145897E+03  0.10000000000E+01 0.  0.
    9000005    1    3    3    0    0 -0.70846042616E+01 -0.61251826250E+02  0.57672412526E+02  0.84433909083E+02  0.10000000000E+01 0.  0.
<mgrwt>
<rscale>  0 0.12495994E+03</rscale>
<asrwt>0</asrwt>
<pdfrwt beam="2">  1        4 0.35472347E-02 0.12495994E+03</pdfrwt>
<pdfrwt beam="1">  1       -4 0.26047438E-01 0.12495994E+03</pdfrwt>
<totfact> 0.91519439E+03</totfact>
</mgrwt>
</event>
<event>
 5    1  0.3276024E-002  0.1250137E+03  0.7818608E-02  0.1235048E+00
          4   -1    0    0  501    0  0.00000000000E+00  0.00000000000E+00  0.14902216884E+03  0.14902758036E+03  0.12700000000E+01 0.  1.
         -4   -1    0    0    0  501 -0.00000000000E+00 -0.00000000000E+00 -0.26197011578E+02  0.26227777558E+02  0.12700000000E+01 0.  1.
         25    2    1    2    0    0  0.00000000000E+00  0.00000000000E+00  0.12282515727E+03  0.17525535791E+03  0.12501368413E+03 0.  0.
    9000005    1    3    3    0    0 -0.61525454737E+02  0.34103109471E+01  0.76055009936E+02  0.97889613023E+02  0.10000000000E+01 0.  0.
    9000005    1    3    3    0    0  0.61525454737E+02 -0.34103109471E+01  0.46770147330E+02  0.77365744892E+02  0.10000000000E+01 0.  0.
<mgrwt>
<rscale>  0 0.12501368E+03</rscale>
<asrwt>0</asrwt>
<pdfrwt beam="1">  1        4 0.22929271E-01 0.12501368E+03</pdfrwt>
<pdfrwt beam="2">  1       -4 0.40330923E-02 0.12501368E+03</pdfrwt>
<totfact> 0.94449096E+03</totfact>
</mgrwt>
</event>
<event>
 5    1  0.3276024E-002  0.1250021E+03  0.7818608E-02  0.1235066E+00
         -4   -1    0    0    0  501 -0.00000000000E+00  0.00000000000E+00  0.92528165530E+01  0.93395671293E+01  0.12700000000E+01 0.  1.
          4   -1    0    0  501    0  0.00000000000E+00 -0.00000000000E+00 -0.42012563116E+03  0.42012755070E+03  0.12700000000E+01 0.  1.
         25    2    1    2    0    0  0.00000000000E+00  0.00000000000E+00 -0.41087281461E+03  0.42946711783E+03  0.12500214204E+03 0.  0.
    9000005    1    3    3    0    0  0.44699282757E+02  0.40274205367E+02 -0.26347256436E+03  0.27025696970E+03  0.10000000000E+01 0.  0.
    9000005    1    3    3    0    0 -0.44699282757E+02 -0.40274205367E+02 -0.14740025024E+03  0.15921014813E+03  0.10000000000E+01 0.  0.
<mgrwt>
<rscale>  0 0.12500214E+03</rscale>
<asrwt>0</asrwt>
<pdfrwt beam="2">  1        4 0.64641519E-01 0.12500214E+03</pdfrwt>
<pdfrwt beam="1">  1       -4 0.14303313E-02 0.12500214E+03</pdfrwt>
<totfact> 0.61781412E+03</totfact>
</mgrwt>
</event>
<event>
 5    1  0.3276024E-002  0.1250015E+03  0.7818608E-02  0.1235067E+00
          4   -1    0    0  501    0  0.00000000000E+00  0.00000000000E+00  0.10687696071E+03  0.10688450604E+03  0.12700000000E+01 0. -1.
         -4   -1    0    0    0  501 -0.00000000000E+00 -0.00000000000E+00 -0.36530023105E+02  0.36552092800E+02  0.12700000000E+01 0. -1.
         25    2    1    2    0    0  0.00000000000E+00  0.00000000000E+00  0.70346937605E+02  0.14343659884E+03  0.12500146501E+03 0.  0.
    9000005    1    3    3    0    0  0.11151851398E+02  0.56807928549E+02  0.62177951971E+02  0.84962357823E+02  0.10000000000E+01 0.  0.
    9000005    1    3    3    0    0 -0.11151851398E+02 -0.56807928549E+02  0.81689856338E+01  0.58474241012E+02  0.10000000000E+01 0.  0.
<mgrwt>
<rscale>  0 0.12500147E+03</rscale>
<asrwt>0</asrwt>
<pdfrwt beam="1">  1        4 0.16444887E-01 0.12500147E+03</pdfrwt>
<pdfrwt beam="2">  1       -4 0.56222818E-02 0.12500147E+03</pdfrwt>
<totfact> 0.10062518E+04</totfact>
</mgrwt>
</event>
<event>
 5    1  0.3276024E-002  0.1250038E+03  0.7818608E-02  0.1235063E+00
          4   -1    0    0  501    0  0.00000000000E+00  0.00000000000E+00  0.17438983225E+03  0.17439445660E+03  0.12700000000E+01 0.  1.
         -4   -1    0    0    0  501 -0.00000000000E+00 -0.00000000000E+00 -0.22377957415E+02  0.22413966139E+02  0.12700000000E+01 0.  1.
         25    2    1    2    0    0  0.00000000000E+00  0.00000000000E+00  0.15201187484E+03  0.19680842274E+03  0.12500378062E+03 0.  0.
    9000005    1    3    3    0    0 -0.19209291947E+02  0.18641474063E+02  0.16491514922E+03  0.16707635348E+03  0.10000000000E+01 0.  0.
    9000005    1    3    3    0    0  0.19209291947E+02 -0.18641474063E+02 -0.12903274381E+02  0.29732069253E+02  0.10000000000E+01 0.  0.
<mgrwt>
<rscale>  0 0.12500378E+03</rscale>
<asrwt>0</asrwt>
<pdfrwt beam="1">  1        4 0.26832330E-01 0.12500378E+03</pdfrwt>
<pdfrwt beam="2">  1       -4 0.34458884E-02 0.12500378E+03</pdfrwt>
<totfact> 0.90668307E+03</totfact>
</mgrwt>
</event>
<event>
 5    1  0.3276024E-002  0.1250001E+03  0.7818608E-02  0.1235069E+00
          4   -1    0    0  501    0  0.00000000000E+00  0.00000000000E+00  0.46386232987E+02  0.46403615277E+02  0.12700000000E+01 0.  1.
         -4   -1    0    0    0  501 -0.00000000000E+00 -0.00000000000E+00 -0.84173656180E+02  0.84183236423E+02  0.12700000000E+01 0.  1.
         25    2    1    2    0    0  0.00000000000E+00  0.00000000000E+00 -0.37787423192E+02  0.13058685170E+03  0.12500014594E+03 0.  0.
    9000005    1    3    3    0    0  0.30747318807E+01  0.16546524501E+01  0.46289369606E+02  0.46431644267E+02  0.10000000000E+01 0.  0.
    9000005    1    3    3    0    0 -0.30747318807E+01 -0.16546524501E+01 -0.84076792798E+02  0.84155207433E+02  0.10000000000E+01 0.  0.
<mgrwt>
<rscale>  0 0.12500015E+03</rscale>
<asrwt>0</asrwt>
<pdfrwt beam="1">  1        4 0.71384176E-02 0.12500015E+03</pdfrwt>
<pdfrwt beam="2">  1       -4 0.12951867E-01 0.12500015E+03</pdfrwt>
<totfact> 0.10331921E+04</totfact>
</mgrwt>
</event>
<event>
 5    1  0.3276024E-002  0.1250106E+03  0.7818608E-02  0.1235053E+00
         -4   -1    0    0    0  501 -0.00000000000E+00  0.00000000000E+00  0.11980917822E+03  0.11981590915E+03  0.12700000000E+01 0.  1.
          4   -1    0    0  501    0  0.00000000000E+00 -0.00000000000E+00 -0.32589460673E+02  0.32614197015E+02  0.12700000000E+01 0.  1.
         25    2    1    2    0    0  0.00000000000E+00  0.00000000000E+00  0.87219717548E+02  0.15243010617E+03  0.12501063210E+03 0.  0.
    9000005    1    3    3    0    0 -0.21538795487E+02  0.12013603663E+02 -0.26410974684E+02  0.36149494709E+02  0.10000000000E+01 0.  0.
    9000005    1    3    3    0    0  0.21538795487E+02 -0.12013603663E+02  0.11363069223E+03  0.11628061146E+03  0.10000000000E+01 0.  0.
<mgrwt>
<rscale>  0 0.12501063E+03</rscale>
<asrwt>0</asrwt>
<pdfrwt beam="2">  1        4 0.50161836E-02 0.12501063E+03</pdfrwt>
<pdfrwt beam="1">  1       -4 0.18434602E-01 0.12501063E+03</pdfrwt>
<totfact> 0.98797844E+03</totfact>
</mgrwt>
</event>
<event>
 5    1  0.3276024E-002  0.1249990E+03  0.7818608E-02  0.1235071E+00
         -4   -1    0    0    0  501 -0.00000000000E+00  0.00000000000E+00  0.34228300480E+03  0.34228536088E+03  0.12700000000E+01 0. -1.
          4   -1    0    0  501    0  0.00000000000E+00 -0.00000000000E+00 -0.11374415050E+02  0.11445095794E+02  0.12700000000E+01 0. -1.
         25    2    1    2    0    0  0.00000000000E+00  0.00000000000E+00  0.33090858975E+03  0.35373045668E+03  0.12499896484E+03 0.  0.
    9000005    1    3    3    0    0  0.18579240726E+02 -0.59388729155E+02  0.14920386693E+03  0.16166324023E+03  0.10000000000E+01 0.  0.
    9000005    1    3    3    0    0 -0.18579240726E+02  0.59388729155E+02  0.18170472282E+03  0.19206721645E+03  0.10000000000E+01 0.  0.
<mgrwt>
<rscale>  0 0.12499896E+03</rscale>
<asrwt>0</asrwt>
<pdfrwt beam="2">  1        4 0.17555281E-02 0.12499896E+03</pdfrwt>
<pdfrwt beam="1">  1       -4 0.52664547E-01 0.12499896E+03</pdfrwt>
<totfact> 0.69317683E+03</totfact>
</mgrwt>
</event>
<event>
 5    1  0.3276024E-002  0.1249980E+03  0.7818608E-02  0.1235072E+00
          4   -1    0    0  501    0  0.00000000000E+00  0.00000000000E+00  0.55440106425E+02  0.55454650846E+02  0.12700000000E+01 0.  1.
         -4   -1    0    0    0  501 -0.00000000000E+00 -0.00000000000E+00 -0.70427149703E+02  0.70438599612E+02  0.12700000000E+01 0.  1.
         25    2    1    2    0    0  0.00000000000E+00  0.00000000000E+00 -0.14987043278E+02  0.12589325046E+03  0.12499799616E+03 0.  0.
    9000005    1    3    3    0    0 -0.24180934888E+01  0.47980472848E+02  0.32757090997E+02  0.58154965062E+02  0.10000000000E+01 0.  0.
    9000005    1    3    3    0    0  0.24180934888E+01 -0.47980472848E+02 -0.47744134275E+02  0.67738285396E+02  0.10000000000E+01 0.  0.
<mgrwt>
<rscale>  0 0.12499800E+03</rscale>
<asrwt>0</asrwt>
<pdfrwt beam="1">  1        4 0.85312467E-02 0.12499800E+03</pdfrwt>
<pdfrwt beam="2">  1       -4 0.10836946E-01 0.12499800E+03</pdfrwt>
<totfact> 0.10433770E+04</totfact>
</mgrwt>
</event>
<event>
 5    1  0.3276024E-002  0.1250006E+03  0.7818608E-02  0.1235068E+00
         -4   -1    0    0    0  501 -0.00000000000E+00  0.00000000000E+00  0.16056952309E+02  0.16107098356E+02  0.12700000000E+01 0. -1.
          4   -1    0    0  501    0  0.00000000000E+00 -0.00000000000E+00 -0.24284603913E+03  0.24284935993E+03  0.12700000000E+01 0. -1.
         25    2    1    2    0    0  0.00000000000E+00  0.00000000000E+00 -0.22678908682E+03  0.25895645829E+03  0.12500062956E+03 0.  0.
    9000005    1    3    3    0    0  0.40320274867E+02 -0.40761588026E+02 -0.16489713290E+03  0.17458320670E+03  0.10000000000E+01 0.  0.
    9000005    1    3    3    0    0 -0.40320274867E+02  0.40761588026E+02 -0.61891953923E+02  0.84373251592E+02  0.10000000000E+01 0.  0.
<mgrwt>
<rscale>  0 0.12500063E+03</rscale>
<asrwt>0</asrwt>
<pdfrwt beam="2">  1        4 0.37365039E-01 0.12500063E+03</pdfrwt>
<pdfrwt beam="1">  1       -4 0.24744134E-02 0.12500063E+03</pdfrwt>
<totfact> 0.81051596E+03</totfact>
</mgrwt>
</event>
<event>
 5    1  0.3276024E-002  0.1250499E+03  0.7818608E-02  0.1234991E+00
          4   -1    0    0  501    0  0.00000000000E+00  0.00000000000E+00  0.74880357430E+02  0.74891126503E+02  0.12700000000E+01 0. -1.
         -4   -1    0    0    0  501 -0.00000000000E+00 -0.00000000000E+00 -0.52185994098E+02  0.52201445191E+02  0.12700000000E+01 0. -1.
         25    2    1    2    0    0  0.00000000000E+00  0.00000000000E+00  0.22694363332E+02  0.12709257169E+03  0.12504994063E+03 0.  0.
    9000005    1    3    3    0    0 -0.30897349546E+02 -0.86528329939E+01 -0.43184201298E+02  0.53808855866E+02  0.10000000000E+01 0.  0.
    9000005    1    3    3    0    0  0.30897349546E+02  0.86528329939E+01  0.65878564630E+02  0.73283715828E+02  0.10000000000E+01 0.  0.
<mgrwt>
<rscale>  0 0.12504994E+03</rscale>
<asrwt>0</asrwt>
<pdfrwt beam="1">  1        4 0.11522072E-01 0.12504994E+03</pdfrwt>
<pdfrwt beam="2">  1       -4 0.80306314E-02 0.12504994E+03</pdfrwt>
<totfact> 0.10395411E+04</totfact>
</mgrwt>
</event>
<event>
 5    1  0.3276024E-002  0.1249925E+03  0.7818608E-02  0.1235081E+00
          4   -1    0    0  501    0  0.00000000000E+00  0.00000000000E+00  0.47896617714E+02  0.47913452062E+02  0.12700000000E+01 0.  1.
         -4   -1    0    0    0  501 -0.00000000000E+00 -0.00000000000E+00 -0.81509995092E+02  0.81519888370E+02  0.12700000000E+01 0.  1.
         25    2    1    2    0    0  0.00000000000E+00  0.00000000000E+00 -0.33613377378E+02  0.12943334043E+03  0.12499252168E+03 0.  0.
    9000005    1    3    3    0    0 -0.56523810456E+02  0.47085484759E+00  0.10778437937E+02  0.57552911109E+02  0.10000000000E+01 0.  0.
    9000005    1    3    3    0    0  0.56523810456E+02 -0.47085484759E+00 -0.44391815315E+02  0.71880429323E+02  0.10000000000E+01 0.  0.
<mgrwt>
<rscale>  0 0.12499252E+03</rscale>
<asrwt>0</asrwt>
<pdfrwt beam="1">  1        4 0.73707664E-02 0.12499252E+03</pdfrwt>
<pdfrwt beam="2">  1       -4 0.12542055E-01 0.12499252E+03</pdfrwt>
<totfact> 0.10358393E+04</totfact>
</mgrwt>
</event>
<event>
 5    1  0.3276024E-002  0.1249991E+03  0.7818608E-02  0.1235071E+00
         -4   -1    0    0    0  501 -0.00000000000E+00  0.00000000000E+00  0.10906310875E+03  0.10907050284E+03  0.12700000000E+01 0. -1.
          4   -1    0    0  501    0  0.00000000000E+00 -0.00000000000E+00 -0.35796026991E+02  0.35818548942E+02  0.12700000000E+01 0. -1.
         25    2    1    2    0    0  0.00000000000E+00  0.00000000000E+00  0.73267081762E+02  0.14488905179E+03  0.12499908823E+03 0.  0.
    9000005    1    3    3    0    0 -0.35546840050E+02  0.38869542859E+02 -0.23441939358E+01  0.52734376310E+02  0.10000000000E+01 0.  0.
    9000005    1    3    3    0    0  0.35546840050E+02 -0.38869542859E+02  0.75611275697E+02  0.92154675477E+02  0.10000000000E+01 0.  0.
<mgrwt>
<rscale>  0 0.12499909E+03</rscale>
<asrwt>0</asrwt>
<pdfrwt beam="2">  1        4 0.55093825E-02 0.12499909E+03</pdfrwt>
<pdfrwt beam="1">  1       -4 0.16781241E-01 0.12499909E+03</pdfrwt>
<totfact> 0.10033449E+04</totfact>
</mgrwt>
</event>
<event>
 5    1  0.3276024E-002  0.1249972E+03  0.7818608E-02  0.1235074E+00
          4   -1    0    0  501    0  0.00000000000E+00  0.00000000000E+00  0.40768655942E+02  0.40788432274E+02  0.12700000000E+01 0. -1.
         -4   -1    0    0    0  501 -0.00000000000E+00 -0.00000000000E+00 -0.95763451364E+02  0.95771872265E+02  0.12700000000E+01 0. -1.
         25    2    1    2    0    0  0.00000000000E+00  0.00000000000E+00 -0.54994795422E+02  0.13656030454E+03  0.12499715698E+03 0.  0.
    9000005    1    3    3    0    0  0.20275592727E+01 -0.40443969079E+02  0.24500057898E+02  0.47340030297E+02  0.10000000000E+01 0.  0.
    9000005    1    3    3    0    0 -0.20275592727E+01  0.40443969079E+02 -0.79494853320E+02  0.89220274242E+02  0.10000000000E+01 0.  0.
<mgrwt>
<rscale>  0 0.12499716E+03</rscale>
<asrwt>0</asrwt>
<pdfrwt beam="1">  1        4 0.62742699E-02 0.12499716E+03</pdfrwt>
<pdfrwt beam="2">  1       -4 0.14735008E-01 0.12499716E+03</pdfrwt>
<totfact> 0.10205942E+04</totfact>
</mgrwt>
</event>
<event>
 5    1  0.3276024E-002  0.1250033E+03  0.7818608E-02  0.1235064E+00
          4   -1    0    0  501    0  0.00000000000E+00  0.00000000000E+00  0.25313362054E+03  0.25313680639E+03  0.12700000000E+01 0.  1.
         -4   -1    0    0    0  501 -0.00000000000E+00 -0.00000000000E+00 -0.15402961361E+02  0.15455229493E+02  0.12700000000E+01 0.  1.
         25    2    1    2    0    0  0.00000000000E+00  0.00000000000E+00  0.23773065918E+03  0.26859203588E+03  0.12500326165E+03 0.  0.
    9000005    1    3    3    0    0  0.53153906419E+02 -0.11134165628E+02  0.52424661129E+02  0.75489419830E+02  0.10000000000E+01 0.  0.
    9000005    1    3    3    0    0 -0.53153906419E+02  0.11134165628E+02  0.18530599805E+03  0.19310261605E+03  0.10000000000E+01 0.  0.
<mgrwt>
<rscale>  0 0.12500326E+03</rscale>
<asrwt>0</asrwt>
<pdfrwt beam="1">  1        4 0.38947896E-01 0.12500326E+03</pdfrwt>
<pdfrwt beam="2">  1       -4 0.23739523E-02 0.12500326E+03</pdfrwt>
<totfact> 0.79709427E+03</totfact>
</mgrwt>
</event>
<event>
 5    1  0.3276024E-002  0.1249999E+03  0.7818608E-02  0.1235069E+00
         -4   -1    0    0    0  501 -0.00000000000E+00  0.00000000000E+00  0.31735112952E+02  0.31760514701E+02  0.12700000000E+01 0.  1.
          4   -1    0    0  501    0  0.00000000000E+00 -0.00000000000E+00 -0.12301106173E+03  0.12301761747E+03  0.12700000000E+01 0.  1.
         25    2    1    2    0    0  0.00000000000E+00  0.00000000000E+00 -0.91275948782E+02  0.15477813217E+03  0.12499988549E+03 0.  0.
    9000005    1    3    3    0    0 -0.27005448203E+02 -0.56353011249E+02 -0.44974934723E+02  0.76998057526E+02  0.10000000000E+01 0.  0.
    9000005    1    3    3    0    0  0.27005448203E+02  0.56353011249E+02 -0.46301014059E+02  0.77780074649E+02  0.10000000000E+01 0.  0.
<mgrwt>
<rscale>  0 0.12499989E+03</rscale>
<asrwt>0</asrwt>
<pdfrwt beam="2">  1        4 0.18927237E-01 0.12499989E+03</pdfrwt>
<pdfrwt beam="1">  1       -4 0.48847834E-02 0.12499989E+03</pdfrwt>
<totfact> 0.98359325E+03</totfact>
</mgrwt>
</event>
<event>
 5    1  0.3276024E-002  0.1250006E+03  0.7818608E-02  0.1235068E+00
         -4   -1    0    0    0  501 -0.00000000000E+00  0.00000000000E+00  0.94213184345E+02  0.94221743799E+02  0.12700000000E+01 0.  1.
          4   -1    0    0  501    0  0.00000000000E+00 -0.00000000000E+00 -0.41442018717E+02  0.41461473869E+02  0.12700000000E+01 0.  1.
         25    2    1    2    0    0  0.00000000000E+00  0.00000000000E+00  0.52771165628E+02  0.13568321767E+03  0.12500055854E+03 0.  0.
    9000005    1    3    3    0    0  0.38795531741E+02  0.43169164903E+02  0.12409374468E+01  0.58062121966E+02  0.10000000000E+01 0.  0.
    9000005    1    3    3    0    0 -0.38795531741E+02 -0.43169164903E+02  0.51530228181E+02  0.77621095701E+02  0.10000000000E+01 0.  0.
<mgrwt>
<rscale>  0 0.12500056E+03</rscale>
<asrwt>0</asrwt>
<pdfrwt beam="2">  1        4 0.63778502E-02 0.12500056E+03</pdfrwt>
<pdfrwt beam="1">  1       -4 0.14496491E-01 0.12500056E+03</pdfrwt>
<totfact> 0.10223562E+04</totfact>
</mgrwt>
</event>
<event>
 5    1  0.3276024E-002  0.1249998E+03  0.7818608E-02  0.1235070E+00
          4   -1    0    0  501    0  0.00000000000E+00  0.00000000000E+00  0.11041813804E+02  0.11114609848E+02  0.12700000000E+01 0. -1.
         -4   -1    0    0    0  501 -0.00000000000E+00 -0.00000000000E+00 -0.35253158299E+03  0.35253387058E+03  0.12700000000E+01 0. -1.
         25    2    1    2    0    0  0.00000000000E+00  0.00000000000E+00 -0.34148976919E+03  0.36364848043E+03  0.12499981943E+03 0.  0.
    9000005    1    3    3    0    0 -0.57647173075E+02  0.16536175680E+02 -0.22185045889E+03  0.22981572570E+03  0.10000000000E+01 0.  0.
    9000005    1    3    3    0    0  0.57647173075E+02 -0.16536175680E+02 -0.11963931030E+03  0.13383275473E+03  0.10000000000E+01 0.  0.
<mgrwt>
<rscale>  0 0.12499982E+03</rscale>
<asrwt>0</asrwt>
<pdfrwt beam="1">  1        4 0.17045165E-02 0.12499982E+03</pdfrwt>
<pdfrwt beam="2">  1       -4 0.54241395E-01 0.12499982E+03</pdfrwt>
<totfact> 0.68248978E+03</totfact>
</mgrwt>
</event>
<event>
 5    1  0.3276024E-002  0.1250030E+03  0.7818608E-02  0.1235065E+00
         -4   -1    0    0    0  501 -0.00000000000E+00  0.00000000000E+00  0.13763339085E+03  0.13763925013E+03  0.12700000000E+01 0.  1.
          4   -1    0    0  501    0  0.00000000000E+00 -0.00000000000E+00 -0.28362230841E+02  0.28390650544E+02  0.12700000000E+01 0.  1.
         25    2    1    2    0    0  0.00000000000E+00  0.00000000000E+00  0.10927116001E+03  0.16602990068E+03  0.12500296600E+03 0.  0.
    9000005    1    3    3    0    0 -0.52135433386E+01 -0.57918895979E+02  0.24241502789E+02  0.63011348209E+02  0.10000000000E+01 0.  0.
    9000005    1    3    3    0    0  0.52135433386E+01  0.57918895979E+02  0.85029657222E+02  0.10301855247E+03  0.10000000000E+01 0.  0.
<mgrwt>
<rscale>  0 0.12500297E+03</rscale>
<asrwt>0</asrwt>
<pdfrwt beam="2">  1        4 0.43660570E-02 0.12500297E+03</pdfrwt>
<pdfrwt beam="1">  1       -4 0.21177005E-01 0.12500297E+03</pdfrwt>
<totfact> 0.96186292E+03</totfact>
</mgrwt>
</event>
<event>
 5    1  0.3276024E-002  0.1249997E+03  0.7818608E-02  0.1235070E+00
          4   -1    0    0  501    0  0.00000000000E+00  0.00000000000E+00  0.45792894064E+02  0.45810501490E+02  0.12700000000E+01 0.  1.
         -4   -1    0    0    0  501 -0.00000000000E+00 -0.00000000000E+00 -0.85263344131E+02  0.85272801950E+02  0.12700000000E+01 0.  1.
         25    2    1    2    0    0  0.00000000000E+00  0.00000000000E+00 -0.39470450067E+02  0.13108330344E+03  0.12499966405E+03 0.  0.
    9000005    1    3    3    0    0 -0.53630440902E+02  0.30875222171E+02 -0.28860784796E+02  0.68289445997E+02  0.10000000000E+01 0.  0.
    9000005    1    3    3    0    0  0.53630440902E+02 -0.30875222171E+02 -0.10609665272E+02  0.62793857444E+02  0.10000000000E+01 0.  0.
<mgrwt>
<rscale>  0 0.12499966E+03</rscale>
<asrwt>0</asrwt>
<pdfrwt beam="1">  1        4 0.70471426E-02 0.12499966E+03</pdfrwt>
<pdfrwt beam="2">  1       -4 0.13119519E-01 0.12499966E+03</pdfrwt>
<totfact> 0.10321382E+04</totfact>
</mgrwt>
</event>
<event>
 5    1  0.3276024E-002  0.1250027E+03  0.7818608E-02  0.1235065E+00
         -4   -1    0    0    0  501 -0.00000000000E+00  0.00000000000E+00  0.61285204435E+01  0.62587269334E+01  0.12700000000E+01 0.  1.
          4   -1    0    0  501    0  0.00000000000E+00 -0.00000000000E+00 -0.63058559294E+03  0.63058687183E+03  0.12700000000E+01 0.  1.
         25    2    1    2    0    0  0.00000000000E+00  0.00000000000E+00 -0.62445707250E+03  0.63684559876E+03  0.12500272506E+03 0.  0.
    9000005    1    3    3    0    0 -0.52843257362E+02  0.32445757732E+02 -0.35178460191E+03  0.35720938283E+03  0.10000000000E+01 0.  0.
    9000005    1    3    3    0    0  0.52843257362E+02 -0.32445757732E+02 -0.27267247059E+03  0.27963621593E+03  0.10000000000E+01 0.  0.
<mgrwt>
<rscale>  0 0.12500273E+03</rscale>
<asrwt>0</asrwt>
<pdfrwt beam="2">  1        4 0.97023231E-01 0.12500273E+03</pdfrwt>
<pdfrwt beam="1">  1       -4 0.95296406E-03 0.12500273E+03</pdfrwt>
<totfact> 0.46618676E+03</totfact>
</mgrwt>
</event>
<event>
 5    1  0.3276024E-002  0.1249980E+03  0.7818608E-02  0.1235072E+00
          4   -1    0    0  501    0  0.00000000000E+00  0.00000000000E+00  0.20341244738E+04  0.20341248702E+04  0.12700000000E+01 0. -1.
         -4   -1    0    0    0  501 -0.00000000000E+00 -0.00000000000E+00 -0.17098787216E+01  0.21299261120E+01  0.12700000000E+01 0. -1.
         25    2    1    2    0    0  0.00000000000E+00  0.00000000000E+00  0.20324145950E+04  0.20362547963E+04  0.12499803783E+03 0.  0.
    9000005    1    3    3    0    0  0.37539139500E+01  0.76224986085E+00  0.12451294532E+00  0.39608582742E+01  0.10000000000E+01 0.  0.
    9000005    1    3    3    0    0 -0.37539139500E+01 -0.76224986085E+00  0.20322900821E+04  0.20322939381E+04  0.10000000000E+01 0.  0.
<mgrwt>
<rscale>  0 0.12499804E+03</rscale>
<asrwt>0</asrwt>
<pdfrwt beam="1">  1        4 0.31297247E+00 0.12499804E+03</pdfrwt>
<pdfrwt beam="2">  1       -4 0.29540208E-03 0.12499804E+03</pdfrwt>
<totfact> 0.93959603E+02</totfact>
</mgrwt>
</event>
<event>
 5    1  0.3276024E-002  0.1250031E+03  0.7818608E-02  0.1235064E+00
          4   -1    0    0  501    0  0.00000000000E+00  0.00000000000E+00  0.42472697476E+02  0.42491680725E+02  0.12700000000E+01 0.  1.
         -4   -1    0    0    0  501 -0.00000000000E+00 -0.00000000000E+00 -0.91931488723E+02  0.91940260598E+02  0.12700000000E+01 0.  1.
         25    2    1    2    0    0  0.00000000000E+00  0.00000000000E+00 -0.49458791247E+02  0.13443194132E+03  0.12500309923E+03 0.  0.
    9000005    1    3    3    0    0 -0.12039068047E+02  0.28916427612E+02  0.33426798203E+02  0.45819753201E+02  0.10000000000E+01 0.  0.
    9000005    1    3    3    0    0  0.12039068047E+02 -0.28916427612E+02 -0.82885589450E+02  0.88612188122E+02  0.10000000000E+01 0.  0.
<mgrwt>
<rscale>  0 0.12500310E+03</rscale>
<asrwt>0</asrwt>
<pdfrwt beam="1">  1        4 0.65363962E-02 0.12500310E+03</pdfrwt>
<pdfrwt beam="2">  1       -4 0.14145441E-01 0.12500310E+03</pdfrwt>
<totfact> 0.10249342E+04</totfact>
</mgrwt>
</event>
<event>
 5    1  0.3276024E-002  0.1249982E+03  0.7818608E-02  0.1235072E+00
         -4   -1    0    0    0  501 -0.00000000000E+00  0.00000000000E+00  0.19143423399E+02  0.19185503888E+02  0.12700000000E+01 0. -1.
          4   -1    0    0  501    0  0.00000000000E+00 -0.00000000000E+00 -0.20377776750E+03  0.20378172496E+03  0.12700000000E+01 0. -1.
         25    2    1    2    0    0  0.00000000000E+00  0.00000000000E+00 -0.18463434410E+03  0.22296722885E+03  0.12499817646E+03 0.  0.
    9000005    1    3    3    0    0 -0.15874079934E+02 -0.60269556356E+02 -0.84195620138E+02  0.10475833278E+03  0.10000000000E+01 0.  0.
    9000005    1    3    3    0    0  0.15874079934E+02  0.60269556356E+02 -0.10043872396E+03  0.11820889606E+03  0.10000000000E+01 0.  0.
<mgrwt>
<rscale>  0 0.12499818E+03</rscale>
<asrwt>0</asrwt>
<pdfrwt beam="2">  1        4 0.31353966E-01 0.12499818E+03</pdfrwt>
<pdfrwt beam="1">  1       -4 0.29486836E-02 0.12499818E+03</pdfrwt>
<totfact> 0.86404510E+03</totfact>
</mgrwt>
</event>
<event>
 5    1  0.3276024E-002  0.1249983E+03  0.7818608E-02  0.1235072E+00
          4   -1    0    0  501    0  0.00000000000E+00  0.00000000000E+00  0.27888431343E+03  0.27888720511E+03  0.12700000000E+01 0.  1.
         -4   -1    0    0    0  501 -0.00000000000E+00 -0.00000000000E+00 -0.13974552406E+02  0.14032142209E+02  0.12700000000E+01 0.  1.
         25    2    1    2    0    0  0.00000000000E+00  0.00000000000E+00  0.26490976102E+03  0.29291934732E+03  0.12499825019E+03 0.  0.
    9000005    1    3    3    0    0  0.45917196636E+00 -0.54385365548E+02  0.60334798092E+02  0.81235870682E+02  0.10000000000E+01 0.  0.
    9000005    1    3    3    0    0 -0.45917196636E+00  0.54385365548E+02  0.20457496293E+03  0.21168347664E+03  0.10000000000E+01 0.  0.
<mgrwt>
<rscale>  0 0.12499825E+03</rscale>
<asrwt>0</asrwt>
<pdfrwt beam="1">  1        4 0.42909932E-01 0.12499825E+03</pdfrwt>
<pdfrwt beam="2">  1       -4 0.21545835E-02 0.12499825E+03</pdfrwt>
<totfact> 0.76498665E+03</totfact>
</mgrwt>
</event>
<event>
 5    1  0.3276024E-002  0.1249962E+03  0.7818608E-02  0.1235075E+00
         -4   -1    0    0    0  501 -0.00000000000E+00  0.00000000000E+00  0.11567392833E+02  0.11636901519E+02  0.12700000000E+01 0.  1.
          4   -1    0    0  501    0  0.00000000000E+00 -0.00000000000E+00 -0.33659240907E+03  0.33659480498E+03  0.12700000000E+01 0.  1.
         25    2    1    2    0    0  0.00000000000E+00  0.00000000000E+00 -0.32502501623E+03  0.34823170650E+03  0.12499624088E+03 0.  0.
    9000005    1    3    3    0    0  0.84450234978E+01 -0.61709304639E+02 -0.17662441777E+03  0.18728732379E+03  0.10000000000E+01 0.  0.
    9000005    1    3    3    0    0 -0.84450234978E+01  0.61709304639E+02 -0.14840059847E+03  0.16094438271E+03  0.10000000000E+01 0.  0.
<mgrwt>
<rscale>  0 0.12499624E+03</rscale>
<asrwt>0</asrwt>
<pdfrwt beam="2">  1        4 0.51788971E-01 0.12499624E+03</pdfrwt>
<pdfrwt beam="1">  1       -4 0.17851303E-02 0.12499624E+03</pdfrwt>
<totfact> 0.69925349E+03</totfact>
</mgrwt>
</event>
<event>
 5    1  0.3276024E-002  0.1250050E+03  0.7818608E-02  0.1235061E+00
         -4   -1    0    0    0  501 -0.00000000000E+00  0.00000000000E+00  0.39005976708E+02  0.39026646268E+02  0.12700000000E+01 0.  1.
          4   -1    0    0  501    0  0.00000000000E+00 -0.00000000000E+00 -0.10010169811E+03  0.10010975410E+03  0.12700000000E+01 0.  1.
         25    2    1    2    0    0  0.00000000000E+00  0.00000000000E+00 -0.61095721406E+02  0.13913640036E+03  0.12500500283E+03 0.  0.
    9000005    1    3    3    0    0 -0.26692328384E+02  0.23735017220E+02 -0.87625900831E+02  0.94631548299E+02  0.10000000000E+01 0.  0.
    9000005    1    3    3    0    0  0.26692328384E+02 -0.23735017220E+02  0.26530179425E+02  0.44504852065E+02  0.10000000000E+01 0.  0.
<mgrwt>
<rscale>  0 0.12500500E+03</rscale>
<asrwt>0</asrwt>
<pdfrwt beam="2">  1        4 0.15402471E-01 0.12500500E+03</pdfrwt>
<pdfrwt beam="1">  1       -4 0.60031292E-02 0.12500500E+03</pdfrwt>
<totfact> 0.10150371E+04</totfact>
</mgrwt>
</event>
<event>
 5    1  0.3276024E-002  0.1249949E+03  0.7818608E-02  0.1235077E+00
         -4   -1    0    0    0  501 -0.00000000000E+00  0.00000000000E+00  0.29483822723E+02  0.29511162335E+02  0.12700000000E+01 0. -1.
          4   -1    0    0  501    0  0.00000000000E+00 -0.00000000000E+00 -0.13238522805E+03  0.13239131961E+03  0.12700000000E+01 0. -1.
         25    2    1    2    0    0  0.00000000000E+00  0.00000000000E+00 -0.10290140533E+03  0.16190248194E+03  0.12499485765E+03 0.  0.
    9000005    1    3    3    0    0  0.18204196943E+02  0.52124593008E+02 -0.13541825507E+02  0.56857251259E+02  0.10000000000E+01 0.  0.
    9000005    1    3    3    0    0 -0.18204196943E+02 -0.52124593008E+02 -0.89359579824E+02  0.10504523068E+03  0.10000000000E+01 0.  0.
<mgrwt>
<rscale>  0 0.12499486E+03</rscale>
<asrwt>0</asrwt>
<pdfrwt beam="2">  1        4 0.20369529E-01 0.12499486E+03</pdfrwt>
<pdfrwt beam="1">  1       -4 0.45385444E-02 0.12499486E+03</pdfrwt>
<totfact> 0.96988458E+03</totfact>
</mgrwt>
</event>
<event>
 5    1  0.3276024E-002  0.1249673E+03  0.7818608E-02  0.1235120E+00
          4   -1    0    0  501    0  0.00000000000E+00  0.00000000000E+00  0.23173840983E+03  0.23174188980E+03  0.12700000000E+01 0.  1.
         -4   -1    0    0    0  501 -0.00000000000E+00 -0.00000000000E+00 -0.16819924348E+02  0.16867802319E+02  0.12700000000E+01 0.  1.
         25    2    1    2    0    0  0.00000000000E+00  0.00000000000E+00  0.21491848548E+03  0.24860969212E+03  0.12496729018E+03 0.  0.
    9000005    1    3    3    0    0  0.37221259656E+02 -0.42232050207E+02  0.16136560605E+03  0.17090590116E+03  0.10000000000E+01 0.  0.
    9000005    1    3    3    0    0 -0.37221259656E+02  0.42232050207E+02  0.53552879435E+02  0.77703790968E+02  0.10000000000E+01 0.  0.
<mgrwt>
<rscale>  0 0.12496729E+03</rscale>
<asrwt>0</asrwt>
<pdfrwt beam="1">  1        4 0.35656011E-01 0.12496729E+03</pdfrwt>
<pdfrwt beam="2">  1       -4 0.25916315E-02 0.12496729E+03</pdfrwt>
<totfact> 0.82591761E+03</totfact>
</mgrwt>
</event>
<event>
 4    1  0.3276024E-002  0.1248454E+03  0.7818608E-02  0.1235311E+00
          4   -1    0    0  501    0  0.00000000000E+00  0.00000000000E+00  0.96937694355E+02  0.96946013259E+02  0.12700000000E+01 0. -1.
         -4   -1    0    0    0  501 -0.00000000000E+00 -0.00000000000E+00 -0.40176811458E+02  0.40196878970E+02  0.12700000000E+01 0. -1.
    9000005    1    1    2    0    0 -0.63390792539E+01  0.56626261106E+02  0.56362633300E+02  0.80152752948E+02  0.10000000000E+01 0.  0.
    9000005    1    1    2    0    0  0.63390792539E+01 -0.56626261106E+02  0.39824959674E+00  0.56990139282E+02  0.10000000000E+01 0.  0.
<mgrwt>
<rscale>  0 0.12484540E+03</rscale>
<asrwt>0</asrwt>
<pdfrwt beam="1">  1        4 0.14915675E-01 0.12484540E+03</pdfrwt>
<pdfrwt beam="2">  1       -4 0.61832315E-02 0.12484540E+03</pdfrwt>
<totfact> 0.10228710E+04</totfact>
</mgrwt>
</event>
<event>
 5    1  0.3276024E-002  0.1250019E+03  0.7818608E-02  0.1235066E+00
         -4   -1    0    0    0  501 -0.00000000000E+00  0.00000000000E+00  0.86811691513E+02  0.86820980663E+02  0.12700000000E+01 0.  1.
          4   -1    0    0  501    0  0.00000000000E+00 -0.00000000000E+00 -0.44977516274E+02  0.44995442771E+02  0.12700000000E+01 0.  1.
         25    2    1    2    0    0  0.00000000000E+00  0.00000000000E+00  0.41834175239E+02  0.13181642343E+03  0.12500188506E+03 0.  0.
    9000005    1    3    3    0    0 -0.10791994310E+02 -0.55492397197E+02  0.49005519042E+02  0.74822551309E+02  0.10000000000E+01 0.  0.
    9000005    1    3    3    0    0  0.10791994310E+02  0.55492397197E+02 -0.71713438032E+01  0.56993872125E+02  0.10000000000E+01 0.  0.
<mgrwt>
<rscale>  0 0.12500189E+03</rscale>
<asrwt>0</asrwt>
<pdfrwt beam="2">  1        4 0.69217114E-02 0.12500189E+03</pdfrwt>
<pdfrwt beam="1">  1       -4 0.13357738E-01 0.12500189E+03</pdfrwt>
<totfact> 0.10305180E+04</totfact>
</mgrwt>
</event>
<event>
 5    1  0.3276024E-002  0.1249989E+03  0.7818608E-02  0.1235071E+00
         -4   -1    0    0    0  501 -0.00000000000E+00  0.00000000000E+00  0.56539401929E+03  0.56539544564E+03  0.12700000000E+01 0.  1.
          4   -1    0    0  501    0  0.00000000000E+00 -0.00000000000E+00 -0.68489657708E+01  0.69657183499E+01  0.12700000000E+01 0.  1.
         25    2    1    2    0    0  0.00000000000E+00  0.00000000000E+00  0.55854505352E+03  0.57236116399E+03  0.12499890092E+03 0.  0.
    9000005    1    3    3    0    0 -0.30862493258E+02  0.36488229516E+02  0.94900409387E+02  0.10625898590E+03  0.10000000000E+01 0.  0.
    9000005    1    3    3    0    0  0.30862493258E+02 -0.36488229516E+02  0.46364464413E+03  0.46610217809E+03  0.10000000000E+01 0.  0.
<mgrwt>
<rscale>  0 0.12499890E+03</rscale>
<asrwt>0</asrwt>
<pdfrwt beam="2">  1        4 0.10627777E-02 0.12499890E+03</pdfrwt>
<pdfrwt beam="1">  1       -4 0.86992786E-01 0.12499890E+03</pdfrwt>
<totfact> 0.50661281E+03</totfact>
</mgrwt>
</event>
<event>
 5    1  0.3276024E-002  0.1249991E+03  0.7818608E-02  0.1235071E+00
         -4   -1    0    0    0  501 -0.00000000000E+00  0.00000000000E+00  0.23696082718E+03  0.23696423046E+03  0.12700000000E+01 0.  1.
          4   -1    0    0  501    0  0.00000000000E+00 -0.00000000000E+00 -0.16456555326E+02  0.16505487366E+02  0.12700000000E+01 0.  1.
         25    2    1    2    0    0  0.00000000000E+00  0.00000000000E+00  0.22050427185E+03  0.25346971782E+03  0.12499905579E+03 0.  0.
    9000005    1    3    3    0    0  0.42784299114E+02 -0.11844666935E+02  0.19943724210E+03  0.20432084064E+03  0.10000000000E+01 0.  0.
    9000005    1    3    3    0    0 -0.42784299114E+02  0.11844666935E+02  0.21067029754E+02  0.49148877181E+02  0.10000000000E+01 0.  0.
<mgrwt>
<rscale>  0 0.12499906E+03</rscale>
<asrwt>0</asrwt>
<pdfrwt beam="2">  1        4 0.25358037E-02 0.12499906E+03</pdfrwt>
<pdfrwt beam="1">  1       -4 0.36459535E-01 0.12499906E+03</pdfrwt>
<totfact> 0.81833040E+03</totfact>
</mgrwt>
</event>
<event>
 5    1  0.3276024E-002  0.1249982E+03  0.7818608E-02  0.1235072E+00
         -4   -1    0    0    0  501 -0.00000000000E+00  0.00000000000E+00  0.10742431691E+03  0.10743182379E+03  0.12700000000E+01 0. -1.
          4   -1    0    0  501    0  0.00000000000E+00 -0.00000000000E+00 -0.36341892615E+02  0.36364076488E+02  0.12700000000E+01 0. -1.
         25    2    1    2    0    0  0.00000000000E+00  0.00000000000E+00  0.71082424291E+02  0.14379590028E+03  0.12499819956E+03 0.  0.
    9000005    1    3    3    0    0 -0.19714484190E+02  0.30545680336E+02  0.94012380007E+02  0.10080191997E+03  0.10000000000E+01 0.  0.
    9000005    1    3    3    0    0  0.19714484190E+02 -0.30545680336E+02 -0.22929955716E+02  0.42993980313E+02  0.10000000000E+01 0.  0.
<mgrwt>
<rscale>  0 0.12499820E+03</rscale>
<asrwt>0</asrwt>
<pdfrwt beam="2">  1        4 0.55933444E-02 0.12499820E+03</pdfrwt>
<pdfrwt beam="1">  1       -4 0.16529102E-01 0.12499820E+03</pdfrwt>
<totfact> 0.10055918E+04</totfact>
</mgrwt>
</event>
<event>
 5    1  0.3276024E-002  0.1249990E+03  0.7818608E-02  0.1235071E+00
         -4   -1    0    0    0  501 -0.00000000000E+00  0.00000000000E+00  0.35686158263E+02  0.35708749510E+02  0.12700000000E+01 0.  1.
          4   -1    0    0  501    0  0.00000000000E+00 -0.00000000000E+00 -0.10939850918E+03  0.10940588060E+03  0.12700000000E+01 0.  1.
         25    2    1    2    0    0  0.00000000000E+00  0.00000000000E+00 -0.73712350913E+02  0.14511463011E+03  0.12499898078E+03 0.  0.
    9000005    1    3    3    0    0 -0.23605980880E+01 -0.55973564085E+02 -0.68998832140E+02  0.88884481978E+02  0.10000000000E+01 0.  0.
    9000005    1    3    3    0    0  0.23605980880E+01  0.55973564085E+02 -0.47135187722E+01  0.56230148132E+02  0.10000000000E+01 0.  0.
<mgrwt>
<rscale>  0 0.12499898E+03</rscale>
<asrwt>0</asrwt>
<pdfrwt beam="2">  1        4 0.16832845E-01 0.12499898E+03</pdfrwt>
<pdfrwt beam="1">  1       -4 0.54924831E-02 0.12499898E+03</pdfrwt>
<totfact> 0.10028890E+04</totfact>
</mgrwt>
</event>
<event>
 5    1  0.3276024E-002  0.1250122E+03  0.7818608E-02  0.1235050E+00
          4   -1    0    0  501    0  0.00000000000E+00  0.00000000000E+00  0.13444097814E+04  0.13444103813E+04  0.12700000000E+01 0.  1.
         -4   -1    0    0    0  501 -0.00000000000E+00 -0.00000000000E+00 -0.27667362018E+01  0.30442945341E+01  0.12700000000E+01 0.  1.
         25    2    1    2    0    0  0.00000000000E+00  0.00000000000E+00  0.13416430452E+04  0.13474546758E+04  0.12501216971E+03 0.  0.
    9000005    1    3    3    0    0  0.43497158762E+02 -0.27498231740E+02  0.10530976485E+04  0.10543546902E+04  0.10000000000E+01 0.  0.
    9000005    1    3    3    0    0 -0.43497158762E+02  0.27498231740E+02  0.28854539676E+03  0.29309998560E+03  0.10000000000E+01 0.  0.
<mgrwt>
<rscale>  0 0.12501217E+03</rscale>
<asrwt>0</asrwt>
<pdfrwt beam="1">  1        4 0.20685352E+00 0.12501217E+03</pdfrwt>
<pdfrwt beam="2">  1       -4 0.44704884E-03 0.12501217E+03</pdfrwt>
<totfact> 0.21129820E+03</totfact>
</mgrwt>
</event>
<event>
 5    1  0.3276024E-002  0.1249894E+03  0.7818608E-02  0.1235086E+00
         -4   -1    0    0    0  501 -0.00000000000E+00  0.00000000000E+00  0.38077836379E+03  0.38078048168E+03  0.12700000000E+01 0. -1.
          4   -1    0    0  501    0  0.00000000000E+00 -0.00000000000E+00 -0.10215390863E+02  0.10294032761E+02  0.12700000000E+01 0. -1.
         25    2    1    2    0    0  0.00000000000E+00  0.00000000000E+00  0.37056297293E+03  0.39107451444E+03  0.12498943533E+03 0.  0.
    9000005    1    3    3    0    0  0.17695326959E+02 -0.12766019137E+02  0.36848672978E+03  0.36913353392E+03  0.10000000000E+01 0.  0.
    9000005    1    3    3    0    0 -0.17695326959E+02  0.12766019137E+02  0.20762431483E+01  0.21940980525E+02  0.10000000000E+01 0.  0.
<mgrwt>
<rscale>  0 0.12498944E+03</rscale>
<asrwt>0</asrwt>
<pdfrwt beam="2">  1        4 0.15778111E-02 0.12498944E+03</pdfrwt>
<pdfrwt beam="1">  1       -4 0.58587492E-01 0.12498944E+03</pdfrwt>
<totfact> 0.65445499E+03</totfact>
</mgrwt>
</event>
<event>
 5    1  0.3276024E-002  0.1250015E+03  0.7818608E-02  0.1235067E+00
          4   -1    0    0  501    0  0.00000000000E+00  0.00000000000E+00  0.46455401612E+03  0.46455575208E+03  0.12700000000E+01 0. -1.
         -4   -1    0    0    0  501 -0.00000000000E+00 -0.00000000000E+00 -0.83590889322E+01  0.84550143569E+01  0.12700000000E+01 0. -1.
         25    2    1    2    0    0  0.00000000000E+00  0.00000000000E+00  0.45619492719E+03  0.47301076644E+03  0.12500149430E+03 0.  0.
    9000005    1    3    3    0    0  0.36151561422E+02 -0.49670844815E+02  0.18475158051E+03  0.19470047437E+03  0.10000000000E+01 0.  0.
    9000005    1    3    3    0    0 -0.36151561422E+02  0.49670844815E+02  0.27144334668E+03  0.27831029207E+03  0.10000000000E+01 0.  0.
<mgrwt>
<rscale>  0 0.12500149E+03</rscale>
<asrwt>0</asrwt>
<pdfrwt beam="1">  1        4 0.71477365E-01 0.12500149E+03</pdfrwt>
<pdfrwt beam="2">  1       -4 0.12935260E-02 0.12500149E+03</pdfrwt>
<totfact> 0.58019030E+03</totfact>
</mgrwt>
</event>
<event>
 5    1  0.3276024E-002  0.1249904E+03  0.7818608E-02  0.1235084E+00
          4   -1    0    0  501    0  0.00000000000E+00  0.00000000000E+00  0.23410144991E+03  0.23410489476E+03  0.12700000000E+01 0. -1.
         -4   -1    0    0    0  501 -0.00000000000E+00 -0.00000000000E+00 -0.16655829999E+02  0.16704178309E+02  0.12700000000E+01 0. -1.
         25    2    1    2    0    0  0.00000000000E+00  0.00000000000E+00  0.21744561991E+03  0.25080907307E+03  0.12499037369E+03 0.  0.
    9000005    1    3    3    0    0  0.59072930390E+02  0.18594293662E+02  0.92019580634E+02  0.11092322607E+03  0.10000000000E+01 0.  0.
    9000005    1    3    3    0    0 -0.59072930390E+02 -0.18594293662E+02  0.12542603928E+03  0.13988584700E+03  0.10000000000E+01 0.  0.
<mgrwt>
<rscale>  0 0.12499037E+03</rscale>
<asrwt>0</asrwt>
<pdfrwt beam="1">  1        4 0.36019589E-01 0.12499037E+03</pdfrwt>
<pdfrwt beam="2">  1       -4 0.25664197E-02 0.12499037E+03</pdfrwt>
<totfact> 0.82231065E+03</totfact>
</mgrwt>
</event>
<event>
 5    1  0.3276024E-002  0.1249914E+03  0.7818608E-02  0.1235083E+00
         -4   -1    0    0    0  501 -0.00000000000E+00  0.00000000000E+00  0.84477037216E+01  0.85426341469E+01  0.12700000000E+01 0. -1.
          4   -1    0    0  501    0  0.00000000000E+00 -0.00000000000E+00 -0.45966113296E+03  0.45966288741E+03  0.12700000000E+01 0. -1.
         25    2    1    2    0    0  0.00000000000E+00  0.00000000000E+00 -0.45121342924E+03  0.46820552155E+03  0.12499140644E+03 0.  0.
    9000005    1    3    3    0    0 -0.34147973668E+02 -0.20395707496E+02 -0.40613601296E+03  0.40808029849E+03  0.10000000000E+01 0.  0.
    9000005    1    3    3    0    0  0.34147973668E+02  0.20395707496E+02 -0.45077416280E+02  0.60125223063E+02  0.10000000000E+01 0.  0.
<mgrwt>
<rscale>  0 0.12499141E+03</rscale>
<asrwt>0</asrwt>
<pdfrwt beam="2">  1        4 0.70724515E-01 0.12499141E+03</pdfrwt>
<pdfrwt beam="1">  1       -4 0.13070844E-02 0.12499141E+03</pdfrwt>
<totfact> 0.58429529E+03</totfact>
</mgrwt>
</event>
<event>
 5    1  0.3276024E-002  0.1249971E+03  0.7818608E-02  0.1235074E+00
          4   -1    0    0  501    0  0.00000000000E+00  0.00000000000E+00  0.52726416950E+02  0.52741709722E+02  0.12700000000E+01 0.  1.
         -4   -1    0    0    0  501 -0.00000000000E+00 -0.00000000000E+00 -0.74050314658E+02  0.74061204425E+02  0.12700000000E+01 0.  1.
         25    2    1    2    0    0  0.00000000000E+00  0.00000000000E+00 -0.21323897708E+02  0.12680291415E+03  0.12499708166E+03 0.  0.
    9000005    1    3    3    0    0 -0.35416986760E+02  0.61425181943E+01  0.41193800619E+02  0.54681099937E+02  0.10000000000E+01 0.  0.
    9000005    1    3    3    0    0  0.35416986760E+02 -0.61425181943E+01 -0.62517698326E+02  0.72121814210E+02  0.10000000000E+01 0.  0.
<mgrwt>
<rscale>  0 0.12499708E+03</rscale>
<asrwt>0</asrwt>
<pdfrwt beam="1">  1        4 0.81137705E-02 0.12499708E+03</pdfrwt>
<pdfrwt beam="2">  1       -4 0.11394370E-01 0.12499708E+03</pdfrwt>
<totfact> 0.10414116E+04</totfact>
</mgrwt>
</event>
<event>
 5    1  0.3276024E-002  0.1249988E+03  0.7818608E-02  0.1235071E+00
          4   -1    0    0  501    0  0.00000000000E+00  0.00000000000E+00  0.72759232176E+01  0.73859297768E+01  0.12700000000E+01 0. -1.
         -4   -1    0    0    0  501 -0.00000000000E+00 -0.00000000000E+00 -0.53272439605E+03  0.53272590987E+03  0.12700000000E+01 0. -1.
         25    2    1    2    0    0  0.00000000000E+00  0.00000000000E+00 -0.52544847283E+03  0.54011183964E+03  0.12499880689E+03 0.  0.
    9000005    1    3    3    0    0 -0.70838371838E+01 -0.12961021337E+02 -0.52509460639E+03  0.52530325954E+03  0.10000000000E+01 0.  0.
    9000005    1    3    3    0    0  0.70838371838E+01  0.12961021337E+02 -0.35386644276E+00  0.14808580107E+02  0.10000000000E+01 0.  0.
<mgrwt>
<rscale>  0 0.12499881E+03</rscale>
<asrwt>0</asrwt>
<pdfrwt beam="1">  1        4 0.11279517E-02 0.12499881E+03</pdfrwt>
<pdfrwt beam="2">  1       -4 0.81966147E-01 0.12499881E+03</pdfrwt>
<totfact> 0.52882575E+03</totfact>
</mgrwt>
</event>
<event>
 4    1  0.3276024E-002  0.1186421E+03  0.7818608E-02  0.1245354E+00
         -4   -1    0    0    0  501 -0.00000000000E+00  0.00000000000E+00  0.42253608341E+02  0.42272689977E+02  0.12700000000E+01 0.  1.
          4   -1    0    0  501    0  0.00000000000E+00 -0.00000000000E+00 -0.83239798860E+02  0.83249486570E+02  0.12700000000E+01 0.  1.
    9000005    1    1    2    0    0  0.17585220780E+02  0.14526536350E+02 -0.78419644642E+02  0.81675583340E+02  0.10000000000E+01 0.  0.
    9000005    1    1    2    0    0 -0.17585220780E+02 -0.14526536350E+02  0.37433454124E+02  0.43846593207E+02  0.10000000000E+01 0.  0.
<mgrwt>
<rscale>  0 0.11864210E+03</rscale>
<asrwt>0</asrwt>
<pdfrwt beam="2">  1        4 0.12808336E-01 0.11864210E+03</pdfrwt>
<pdfrwt beam="1">  1       -4 0.65027682E-02 0.11864210E+03</pdfrwt>
<totfact> 0.12093639E+04</totfact>
</mgrwt>
</event>
<event>
 5    1  0.3276024E-002  0.1250132E+03  0.7818608E-02  0.1235049E+00
         -4   -1    0    0    0  501 -0.00000000000E+00  0.00000000000E+00  0.89364123409E+01  0.90262043810E+01  0.12700000000E+01 0.  1.
          4   -1    0    0  501    0  0.00000000000E+00 -0.00000000000E+00 -0.43493251048E+03  0.43493436467E+03  0.12700000000E+01 0.  1.
         25    2    1    2    0    0  0.00000000000E+00  0.00000000000E+00 -0.42599609814E+03  0.44396056905E+03  0.12501324427E+03 0.  0.
    9000005    1    3    3    0    0 -0.54287776761E+02  0.18518704669E+02 -0.12485885000E+03  0.13740756003E+03  0.10000000000E+01 0.  0.
    9000005    1    3    3    0    0  0.54287776761E+02 -0.18518704669E+02 -0.30113724814E+03  0.30655300903E+03  0.10000000000E+01 0.  0.
<mgrwt>
<rscale>  0 0.12501324E+03</rscale>
<asrwt>0</asrwt>
<pdfrwt beam="2">  1        4 0.66919727E-01 0.12501324E+03</pdfrwt>
<pdfrwt beam="1">  1       -4 0.13818827E-02 0.12501324E+03</pdfrwt>
<totfact> 0.60472944E+03</totfact>
</mgrwt>
</event>
<event>
 5    1  0.3276024E-002  0.1250010E+03  0.7818608E-02  0.1235068E+00
          4   -1    0    0  501    0  0.00000000000E+00  0.00000000000E+00  0.89452413988E+02  0.89461428942E+02  0.12700000000E+01 0. -1.
         -4   -1    0    0    0  501 -0.00000000000E+00 -0.00000000000E+00 -0.43648681497E+02  0.43667153518E+02  0.12700000000E+01 0. -1.
         25    2    1    2    0    0  0.00000000000E+00  0.00000000000E+00  0.45803732491E+02  0.13312858246E+03  0.12500095023E+03 0.  0.
    9000005    1    3    3    0    0 -0.39291942140E+01 -0.58574787000E+02  0.87913855302E-01  0.58715006328E+02  0.10000000000E+01 0.  0.
    9000005    1    3    3    0    0  0.39291942140E+01  0.58574787000E+02  0.45715818636E+02  0.74413576132E+02  0.10000000000E+01 0.  0.
<mgrwt>
<rscale>  0 0.12500095E+03</rscale>
<asrwt>0</asrwt>
<pdfrwt beam="1">  1        4 0.13764024E-01 0.12500095E+03</pdfrwt>
<pdfrwt beam="2">  1       -4 0.67172962E-02 0.12500095E+03</pdfrwt>
<totfact> 0.10277448E+04</totfact>
</mgrwt>
</event>
<event>
 5    1  0.3276024E-002  0.1249963E+03  0.7818608E-02  0.1235075E+00
          4   -1    0    0  501    0  0.00000000000E+00  0.00000000000E+00  0.14930379215E+03  0.14930919346E+03  0.12700000000E+01 0.  1.
         -4   -1    0    0    0  501 -0.00000000000E+00 -0.00000000000E+00 -0.26140274789E+02  0.26171107467E+02  0.12700000000E+01 0.  1.
         25    2    1    2    0    0  0.00000000000E+00  0.00000000000E+00  0.12316351736E+03  0.17548030092E+03  0.12499633596E+03 0.  0.
    9000005    1    3    3    0    0 -0.58485391779E+02 -0.12441492535E+02  0.36090959204E+02  0.69849045264E+02  0.10000000000E+01 0.  0.
    9000005    1    3    3    0    0  0.58485391779E+02  0.12441492535E+02  0.87072558158E+02  0.10563125566E+03  0.10000000000E+01 0.  0.
<mgrwt>
<rscale>  0 0.12499634E+03</rscale>
<asrwt>0</asrwt>
<pdfrwt beam="1">  1        4 0.22972601E-01 0.12499634E+03</pdfrwt>
<pdfrwt beam="2">  1       -4 0.40243680E-02 0.12499634E+03</pdfrwt>
<totfact> 0.94444710E+03</totfact>
</mgrwt>
</event>
<event>
 5    1  0.3276024E-002  0.1250048E+03  0.7818608E-02  0.1235062E+00
          4   -1    0    0  501    0  0.00000000000E+00  0.00000000000E+00  0.76504460686E+03  0.76504566098E+03  0.12700000000E+01 0. -1.
         -4   -1    0    0    0  501 -0.00000000000E+00 -0.00000000000E+00 -0.50262616055E+01  0.51842266277E+01  0.12700000000E+01 0. -1.
         25    2    1    2    0    0  0.00000000000E+00  0.00000000000E+00  0.76001834525E+03  0.77022988761E+03  0.12500477848E+03 0.  0.
    9000005    1    3    3    0    0  0.23069111070E+02 -0.83072028307E+01  0.25818506843E+02  0.35620061764E+02  0.10000000000E+01 0.  0.
    9000005    1    3    3    0    0 -0.23069111070E+02  0.83072028307E+01  0.73419983841E+03  0.73460982584E+03  0.10000000000E+01 0.  0.
<mgrwt>
<rscale>  0 0.12500478E+03</rscale>
<asrwt>0</asrwt>
<pdfrwt beam="1">  1        4 0.11771143E+00 0.12500478E+03</pdfrwt>
<pdfrwt beam="2">  1       -4 0.78550307E-03 0.12500478E+03</pdfrwt>
<totfact> 0.39620569E+03</totfact>
</mgrwt>
</event>
<event>
 5    1  0.3276024E-002  0.1250008E+03  0.7818608E-02  0.1235068E+00
          4   -1    0    0  501    0  0.00000000000E+00  0.00000000000E+00  0.14530279019E+02  0.14585674766E+02  0.12700000000E+01 0. -1.
         -4   -1    0    0    0  501 -0.00000000000E+00 -0.00000000000E+00 -0.26827034243E+03  0.26827334853E+03  0.12700000000E+01 0. -1.
         25    2    1    2    0    0  0.00000000000E+00  0.00000000000E+00 -0.25374006341E+03  0.28285902329E+03  0.12500082910E+03 0.  0.
    9000005    1    3    3    0    0 -0.51047491265E+02  0.90891595406E+01 -0.47934170335E+02  0.70619713050E+02  0.10000000000E+01 0.  0.
    9000005    1    3    3    0    0  0.51047491265E+02 -0.90891595406E+01 -0.20580589308E+03  0.21223931024E+03  0.10000000000E+01 0.  0.
<mgrwt>
<rscale>  0 0.12500083E+03</rscale>
<asrwt>0</asrwt>
<pdfrwt beam="1">  1        4 0.22399202E-02 0.12500083E+03</pdfrwt>
<pdfrwt beam="2">  1       -4 0.41276849E-01 0.12500083E+03</pdfrwt>
<totfact> 0.77799109E+03</totfact>
</mgrwt>
</event>
<event>
 5    1  0.3276024E-002  0.1250056E+03  0.7818608E-02  0.1235060E+00
         -4   -1    0    0    0  501 -0.00000000000E+00  0.00000000000E+00  0.44779844004E+02  0.44797849602E+02  0.12700000000E+01 0.  1.
          4   -1    0    0  501    0  0.00000000000E+00 -0.00000000000E+00 -0.87200040424E+02  0.87209288209E+02  0.12700000000E+01 0.  1.
         25    2    1    2    0    0  0.00000000000E+00  0.00000000000E+00 -0.42420196420E+02  0.13200713781E+03  0.12500564535E+03 0.  0.
    9000005    1    3    3    0    0  0.20361004362E+02 -0.44983659833E+02  0.19243507898E+02  0.53003893695E+02  0.10000000000E+01 0.  0.
    9000005    1    3    3    0    0 -0.20361004362E+02  0.44983659833E+02 -0.61663704318E+02  0.79003244116E+02  0.10000000000E+01 0.  0.
<mgrwt>
<rscale>  0 0.12500565E+03</rscale>
<asrwt>0</asrwt>
<pdfrwt beam="2">  1        4 0.13417487E-01 0.12500565E+03</pdfrwt>
<pdfrwt beam="1">  1       -4 0.68913032E-02 0.12500565E+03</pdfrwt>
<totfact> 0.10300234E+04</totfact>
</mgrwt>
</event>
<event>
 5    1  0.3276024E-002  0.1250154E+03  0.7818608E-02  0.1235045E+00
          4   -1    0    0  501    0  0.00000000000E+00  0.00000000000E+00  0.45524924782E+01  0.47263186270E+01  0.12700000000E+01 0. -1.
         -4   -1    0    0    0  501 -0.00000000000E+00 -0.00000000000E+00 -0.84200554395E+03  0.84200650172E+03  0.12700000000E+01 0. -1.
         25    2    1    2    0    0  0.00000000000E+00  0.00000000000E+00 -0.83745305147E+03  0.84673282035E+03  0.12501542160E+03 0.  0.
    9000005    1    3    3    0    0 -0.11742115184E+02  0.20900669432E+02 -0.27793261928E+02  0.36717579717E+02  0.10000000000E+01 0.  0.
    9000005    1    3    3    0    0  0.11742115184E+02 -0.20900669432E+02 -0.80965978954E+03  0.81001524063E+03  0.10000000000E+01 0.  0.
<mgrwt>
<rscale>  0 0.12501542E+03</rscale>
<asrwt>0</asrwt>
<pdfrwt beam="1">  1        4 0.71382905E-03 0.12501542E+03</pdfrwt>
<pdfrwt beam="2">  1       -4 0.12955264E+00 0.12501542E+03</pdfrwt>
<totfact> 0.36249216E+03</totfact>
</mgrwt>
</event>
<event>
 5    1  0.3276024E-002  0.1250000E+03  0.7818608E-02  0.1235069E+00
         -4   -1    0    0    0  501 -0.00000000000E+00  0.00000000000E+00  0.42419338987E+02  0.42438346105E+02  0.12700000000E+01 0.  1.
          4   -1    0    0  501    0  0.00000000000E+00 -0.00000000000E+00 -0.92042450478E+02  0.92051211779E+02  0.12700000000E+01 0.  1.
         25    2    1    2    0    0  0.00000000000E+00  0.00000000000E+00 -0.49623111491E+02  0.13448955788E+03  0.12499995194E+03 0.  0.
    9000005    1    3    3    0    0 -0.52257706745E+02  0.80921274554E+01  0.11016582151E+02  0.54025137883E+02  0.10000000000E+01 0.  0.
    9000005    1    3    3    0    0  0.52257706745E+02 -0.80921274554E+01 -0.60639693642E+02  0.80464420000E+02  0.10000000000E+01 0.  0.
<mgrwt>
<rscale>  0 0.12499995E+03</rscale>
<asrwt>0</asrwt>
<pdfrwt beam="2">  1        4 0.14162513E-01 0.12499995E+03</pdfrwt>
<pdfrwt beam="1">  1       -4 0.65281882E-02 0.12499995E+03</pdfrwt>
<totfact> 0.10248852E+04</totfact>
</mgrwt>
</event>
<event>
 5    1  0.3276024E-002  0.1250007E+03  0.7818608E-02  0.1235068E+00
         -4   -1    0    0    0  501 -0.00000000000E+00  0.00000000000E+00  0.82812045649E+03  0.82812143032E+03  0.12700000000E+01 0.  1.
          4   -1    0    0  501    0  0.00000000000E+00 -0.00000000000E+00 -0.46305796977E+01  0.48015797752E+01  0.12700000000E+01 0.  1.
         25    2    1    2    0    0  0.00000000000E+00  0.00000000000E+00  0.82348987679E+03  0.83292301009E+03  0.12500065427E+03 0.  0.
    9000005    1    3    3    0    0 -0.27989071282E+02  0.55019978137E+02  0.34689963314E+03  0.35235059469E+03  0.10000000000E+01 0.  0.
    9000005    1    3    3    0    0  0.27989071282E+02 -0.55019978137E+02  0.47659024366E+03  0.48057241541E+03  0.10000000000E+01 0.  0.
<mgrwt>
<rscale>  0 0.12500065E+03</rscale>
<asrwt>0</asrwt>
<pdfrwt beam="2">  1        4 0.72562508E-03 0.12500065E+03</pdfrwt>
<pdfrwt beam="1">  1       -4 0.12741647E+00 0.12500065E+03</pdfrwt>
<totfact> 0.36835944E+03</totfact>
</mgrwt>
</event>
<event>
 5    1  0.3276024E-002  0.1249979E+03  0.7818608E-02  0.1235073E+00
         -4   -1    0    0    0  501 -0.00000000000E+00  0.00000000000E+00  0.40785041406E+02  0.40804809796E+02  0.12700000000E+01 0.  1.
          4   -1    0    0  501    0  0.00000000000E+00 -0.00000000000E+00 -0.95726161785E+02  0.95734585966E+02  0.12700000000E+01 0.  1.
         25    2    1    2    0    0  0.00000000000E+00  0.00000000000E+00 -0.54941120379E+02  0.13653939576E+03  0.12499791953E+03 0.  0.
    9000005    1    3    3    0    0  0.41858222630E+02 -0.21271149347E+02 -0.72515868073E+02  0.86395160273E+02  0.10000000000E+01 0.  0.
    9000005    1    3    3    0    0 -0.41858222630E+02  0.21271149347E+02  0.17574747694E+02  0.50144235489E+02  0.10000000000E+01 0.  0.
<mgrwt>
<rscale>  0 0.12499792E+03</rscale>
<asrwt>0</asrwt>
<pdfrwt beam="2">  1        4 0.14729270E-01 0.12499792E+03</pdfrwt>
<pdfrwt beam="1">  1       -4 0.62767905E-02 0.12499792E+03</pdfrwt>
<totfact> 0.10206204E+04</totfact>
</mgrwt>
</event>
<event>
 5    1  0.3276024E-002  0.1250004E+03  0.7818608E-02  0.1235069E+00
         -4   -1    0    0    0  501 -0.00000000000E+00  0.00000000000E+00  0.16806555044E+03  0.16807034880E+03  0.12700000000E+01 0. -1.
          4   -1    0    0  501    0  0.00000000000E+00 -0.00000000000E+00 -0.23220102287E+02  0.23254807034E+02  0.12700000000E+01 0. -1.
         25    2    1    2    0    0  0.00000000000E+00  0.00000000000E+00  0.14484544815E+03  0.19132515583E+03  0.12500044561E+03 0.  0.
    9000005    1    3    3    0    0  0.45921258163E+01  0.61928398520E+02  0.61701592911E+02  0.87545992087E+02  0.10000000000E+01 0.  0.
    9000005    1    3    3    0    0 -0.45921258163E+01 -0.61928398520E+02  0.83143855241E+02  0.10377916374E+03  0.10000000000E+01 0.  0.
<mgrwt>
<rscale>  0 0.12500045E+03</rscale>
<asrwt>0</asrwt>
<pdfrwt beam="2">  1        4 0.35753621E-02 0.12500045E+03</pdfrwt>
<pdfrwt beam="1">  1       -4 0.25859277E-01 0.12500045E+03</pdfrwt>
<totfact> 0.91616337E+03</totfact>
</mgrwt>
</event>
<event>
 5    1  0.3276024E-002  0.1249811E+03  0.7818608E-02  0.1235099E+00
          4   -1    0    0  501    0  0.00000000000E+00  0.00000000000E+00  0.54239910244E+02  0.54254776409E+02  0.12700000000E+01 0. -1.
         -4   -1    0    0    0  501 -0.00000000000E+00 -0.00000000000E+00 -0.71965836704E+02  0.71977041843E+02  0.12700000000E+01 0. -1.
         25    2    1    2    0    0  0.00000000000E+00  0.00000000000E+00 -0.17725926460E+02  0.12623181825E+03  0.12498105245E+03 0.  0.
    9000005    1    3    3    0    0  0.16223813425E+02  0.25907007217E+02 -0.63903104548E+02  0.70844843961E+02  0.10000000000E+01 0.  0.
    9000005    1    3    3    0    0 -0.16223813425E+02 -0.25907007217E+02  0.46177178088E+02  0.55386974291E+02  0.10000000000E+01 0.  0.
<mgrwt>
<rscale>  0 0.12498105E+03</rscale>
<asrwt>0</asrwt>
<pdfrwt beam="1">  1        4 0.83466071E-02 0.12498105E+03</pdfrwt>
<pdfrwt beam="2">  1       -4 0.11073673E-01 0.12498105E+03</pdfrwt>
<totfact> 0.10430343E+04</totfact>
</mgrwt>
</event>
<event>
 5    1  0.3276024E-002  0.1250005E+03  0.7818608E-02  0.1235068E+00
          4   -1    0    0  501    0  0.00000000000E+00  0.00000000000E+00  0.34103716444E+02  0.34127355234E+02  0.12700000000E+01 0. -1.
         -4   -1    0    0    0  501 -0.00000000000E+00 -0.00000000000E+00 -0.11447442105E+03  0.11448146564E+03  0.12700000000E+01 0. -1.
         25    2    1    2    0    0  0.00000000000E+00  0.00000000000E+00 -0.80370704605E+02  0.14860882087E+03  0.12500052593E+03 0.  0.
    9000005    1    3    3    0    0 -0.43525351744E+02  0.10059370917E+02 -0.92138038631E+02  0.10240149096E+03  0.10000000000E+01 0.  0.
    9000005    1    3    3    0    0  0.43525351744E+02 -0.10059370917E+02  0.11767334026E+02  0.46207329913E+02  0.10000000000E+01 0.  0.
<mgrwt>
<rscale>  0 0.12500053E+03</rscale>
<asrwt>0</asrwt>
<pdfrwt beam="1">  1        4 0.52490859E-02 0.12500053E+03</pdfrwt>
<pdfrwt beam="2">  1       -4 0.17613809E-01 0.12500053E+03</pdfrwt>
<totfact> 0.99580556E+03</totfact>
</mgrwt>
</event>
<event>
 5    1  0.3276024E-002  0.1250022E+03  0.7818608E-02  0.1235066E+00
         -4   -1    0    0    0  501 -0.00000000000E+00  0.00000000000E+00  0.23303806683E+02  0.23338386960E+02  0.12700000000E+01 0.  1.
          4   -1    0    0  501    0  0.00000000000E+00 -0.00000000000E+00 -0.16746751189E+03  0.16747232739E+03  0.12700000000E+01 0.  1.
         25    2    1    2    0    0  0.00000000000E+00  0.00000000000E+00 -0.14416370521E+03  0.19081071435E+03  0.12500221922E+03 0.  0.
    9000005    1    3    3    0    0  0.35446556307E+02  0.17062842484E+02 -0.14620222152E+03  0.15140570836E+03  0.10000000000E+01 0.  0.
    9000005    1    3    3    0    0 -0.35446556307E+02 -0.17062842484E+02  0.20385163102E+01  0.39405005981E+02  0.10000000000E+01 0.  0.
<mgrwt>
<rscale>  0 0.12500222E+03</rscale>
<asrwt>0</asrwt>
<pdfrwt beam="2">  1        4 0.25767262E-01 0.12500222E+03</pdfrwt>
<pdfrwt beam="1">  1       -4 0.35882316E-02 0.12500222E+03</pdfrwt>
<totfact> 0.91701886E+03</totfact>
</mgrwt>
</event>
<event>
 5    1  0.3276024E-002  0.1249995E+03  0.7818608E-02  0.1235070E+00
          4   -1    0    0  501    0  0.00000000000E+00  0.00000000000E+00  0.30653684320E+03  0.30653947404E+03  0.12700000000E+01 0.  1.
         -4   -1    0    0    0  501 -0.00000000000E+00 -0.00000000000E+00 -0.12708733547E+02  0.12772032273E+02  0.12700000000E+01 0.  1.
         25    2    1    2    0    0  0.00000000000E+00  0.00000000000E+00  0.29382810966E+03  0.31931150631E+03  0.12499952014E+03 0.  0.
    9000005    1    3    3    0    0 -0.39455541481E+02 -0.27144017162E+02  0.24946649053E+03  0.25402375345E+03  0.10000000000E+01 0.  0.
    9000005    1    3    3    0    0  0.39455541481E+02  0.27144017162E+02  0.44361619128E+02  0.65287752855E+02  0.10000000000E+01 0.  0.
<mgrwt>
<rscale>  0 0.12499952E+03</rscale>
<asrwt>0</asrwt>
<pdfrwt beam="1">  1        4 0.47164581E-01 0.12499952E+03</pdfrwt>
<pdfrwt beam="2">  1       -4 0.19602615E-02 0.12499952E+03</pdfrwt>
<totfact> 0.73238868E+03</totfact>
</mgrwt>
</event>
<event>
 5    1  0.3276024E-002  0.1249976E+03  0.7818608E-02  0.1235073E+00
         -4   -1    0    0    0  501 -0.00000000000E+00  0.00000000000E+00  0.14820854975E+04  0.14820860417E+04  0.12700000000E+01 0.  1.
          4   -1    0    0  501    0  0.00000000000E+00 -0.00000000000E+00 -0.24819705701E+01  0.27880240154E+01  0.12700000000E+01 0.  1.
         25    2    1    2    0    0  0.00000000000E+00  0.00000000000E+00  0.14796035270E+04  0.14848740657E+04  0.12499757569E+03 0.  0.
    9000005    1    3    3    0    0 -0.24458046552E+02  0.56443909024E+02  0.87046650643E+03  0.87263798320E+03  0.10000000000E+01 0.  0.
    9000005    1    3    3    0    0  0.24458046552E+02 -0.56443909024E+02  0.60913702054E+03  0.61223608249E+03  0.10000000000E+01 0.  0.
<mgrwt>
<rscale>  0 0.12499758E+03</rscale>
<asrwt>0</asrwt>
<pdfrwt beam="2">  1        4 0.40542702E-03 0.12499758E+03</pdfrwt>
<pdfrwt beam="1">  1       -4 0.22803619E+00 0.12499758E+03</pdfrwt>
<totfact> 0.18230594E+03</totfact>
</mgrwt>
</event>
<event>
 5    1  0.3276024E-002  0.1249959E+03  0.7818608E-02  0.1235076E+00
         -4   -1    0    0    0  501 -0.00000000000E+00  0.00000000000E+00  0.29289780050E+02  0.29317300615E+02  0.12700000000E+01 0. -1.
          4   -1    0    0  501    0  0.00000000000E+00 -0.00000000000E+00 -0.13326366385E+03  0.13326971525E+03  0.12700000000E+01 0. -1.
         25    2    1    2    0    0  0.00000000000E+00  0.00000000000E+00 -0.10397388380E+03  0.16258701587E+03  0.12499587679E+03 0.  0.
    9000005    1    3    3    0    0 -0.26521633734E+02  0.28193073259E+02  0.11825489157E+02  0.40485659554E+02  0.10000000000E+01 0.  0.
    9000005    1    3    3    0    0  0.26521633734E+02 -0.28193073259E+02 -0.11579937296E+03  0.12210135631E+03  0.10000000000E+01 0.  0.
<mgrwt>
<rscale>  0 0.12499588E+03</rscale>
<asrwt>0</asrwt>
<pdfrwt beam="2">  1        4 0.20504684E-01 0.12499588E+03</pdfrwt>
<pdfrwt beam="1">  1       -4 0.45087025E-02 0.12499588E+03</pdfrwt>
<totfact> 0.96855308E+03</totfact>
</mgrwt>
</event>
<event>
 5    1  0.3276024E-002  0.1249988E+03  0.7818608E-02  0.1235071E+00
          4   -1    0    0  501    0  0.00000000000E+00  0.00000000000E+00  0.39871019117E+01  0.41844810496E+01  0.12700000000E+01 0.  1.
         -4   -1    0    0    0  501 -0.00000000000E+00 -0.00000000000E+00 -0.95584166032E+03  0.95584250403E+03  0.12700000000E+01 0.  1.
         25    2    1    2    0    0  0.00000000000E+00  0.00000000000E+00 -0.95185455841E+03  0.96002698508E+03  0.12499884684E+03 0.  0.
    9000005    1    3    3    0    0  0.35713027341E+02 -0.43428958082E+02 -0.26648159239E+03  0.27235075510E+03  0.10000000000E+01 0.  0.
    9000005    1    3    3    0    0 -0.35713027341E+02  0.43428958082E+02 -0.68537296602E+03  0.68767622998E+03  0.10000000000E+01 0.  0.
<mgrwt>
<rscale>  0 0.12499885E+03</rscale>
<asrwt>0</asrwt>
<pdfrwt beam="1">  1        4 0.62864897E-03 0.12499885E+03</pdfrwt>
<pdfrwt beam="2">  1       -4 0.14706763E+00 0.12499885E+03</pdfrwt>
<totfact> 0.31963469E+03</totfact>
</mgrwt>
</event>
<event>
 5    1  0.3276024E-002  0.1249989E+03  0.7818608E-02  0.1235071E+00
          4   -1    0    0  501    0  0.00000000000E+00  0.00000000000E+00  0.10357951538E+04  0.10357959323E+04  0.12700000000E+01 0.  1.
         -4   -1    0    0    0  501 -0.00000000000E+00 -0.00000000000E+00 -0.36634637088E+01  0.38773530077E+01  0.12700000000E+01 0.  1.
         25    2    1    2    0    0  0.00000000000E+00  0.00000000000E+00  0.10321316901E+04  0.10396732854E+04  0.12499885863E+03 0.  0.
    9000005    1    3    3    0    0 -0.43739561605E+02 -0.44632137059E+02  0.51641446621E+03  0.52018273503E+03  0.10000000000E+01 0.  0.
    9000005    1    3    3    0    0  0.43739561605E+02  0.44632137059E+02  0.51571722384E+03  0.51949055032E+03  0.10000000000E+01 0.  0.
<mgrwt>
<rscale>  0 0.12499886E+03</rscale>
<asrwt>0</asrwt>
<pdfrwt beam="1">  1        4 0.15936959E+00 0.12499886E+03</pdfrwt>
<pdfrwt beam="2">  1       -4 0.58012280E-03 0.12499886E+03</pdfrwt>
<totfact> 0.29320145E+03</totfact>
</mgrwt>
</event>
<event>
 5    1  0.3276024E-002  0.1250061E+03  0.7818608E-02  0.1235060E+00
         -4   -1    0    0    0  501 -0.00000000000E+00  0.00000000000E+00  0.28318588626E+03  0.28318873402E+03  0.12700000000E+01 0. -1.
          4   -1    0    0  501    0  0.00000000000E+00 -0.00000000000E+00 -0.13763139195E+02  0.13821609910E+02  0.12700000000E+01 0. -1.
         25    2    1    2    0    0  0.00000000000E+00  0.00000000000E+00  0.26942274707E+03  0.29701034393E+03  0.12500611092E+03 0.  0.
    9000005    1    3    3    0    0 -0.73952849649E+01 -0.10794489842E+02 -0.10483723404E+02  0.16796419472E+02  0.10000000000E+01 0.  0.
    9000005    1    3    3    0    0  0.73952849649E+01  0.10794489842E+02  0.27990647047E+03  0.28021392446E+03  0.10000000000E+01 0.  0.
<mgrwt>
<rscale>  0 0.12500611E+03</rscale>
<asrwt>0</asrwt>
<pdfrwt beam="2">  1        4 0.21221228E-02 0.12500611E+03</pdfrwt>
<pdfrwt beam="1">  1       -4 0.43571778E-01 0.12500611E+03</pdfrwt>
<totfact> 0.75965082E+03</totfact>
</mgrwt>
</event>
<event>
 5    1  0.3276024E-002  0.1250077E+03  0.7818608E-02  0.1235057E+00
         -4   -1    0    0    0  501 -0.00000000000E+00  0.00000000000E+00  0.38160674198E+03  0.38160885528E+03  0.12700000000E+01 0. -1.
          4   -1    0    0  501    0  0.00000000000E+00 -0.00000000000E+00 -0.10196044132E+02  0.10274834108E+02  0.12700000000E+01 0. -1.
         25    2    1    2    0    0  0.00000000000E+00  0.00000000000E+00  0.37141069785E+03  0.39188368939E+03  0.12500767788E+03 0.  0.
    9000005    1    3    3    0    0  0.16022888229E+02 -0.60362184099E+02  0.19299261698E+03  0.20284840750E+03  0.10000000000E+01 0.  0.
    9000005    1    3    3    0    0 -0.16022888229E+02  0.60362184099E+02  0.17841808087E+03  0.18903528188E+03  0.10000000000E+01 0.  0.
<mgrwt>
<rscale>  0 0.12500768E+03</rscale>
<asrwt>0</asrwt>
<pdfrwt beam="2">  1        4 0.15748453E-02 0.12500768E+03</pdfrwt>
<pdfrwt beam="1">  1       -4 0.58714961E-01 0.12500768E+03</pdfrwt>
<totfact> 0.65338814E+03</totfact>
</mgrwt>
</event>
<event>
 5    1  0.3276024E-002  0.1250009E+03  0.7818608E-02  0.1235068E+00
          4   -1    0    0  501    0  0.00000000000E+00  0.00000000000E+00  0.26814119032E+03  0.26814419786E+03  0.12700000000E+01 0.  1.
         -4   -1    0    0    0  501 -0.00000000000E+00 -0.00000000000E+00 -0.14537320377E+02  0.14592689393E+02  0.12700000000E+01 0.  1.
         25    2    1    2    0    0  0.00000000000E+00  0.00000000000E+00  0.25360386994E+03  0.28273688725E+03  0.12500089825E+03 0.  0.
    9000005    1    3    3    0    0 -0.10464576006E+02 -0.46286737206E+02  0.21877274213E+03  0.22386264113E+03  0.10000000000E+01 0.  0.
    9000005    1    3    3    0    0  0.10464576006E+02  0.46286737206E+02  0.34831127805E+02  0.58874246121E+02  0.10000000000E+01 0.  0.
<mgrwt>
<rscale>  0 0.12500090E+03</rscale>
<asrwt>0</asrwt>
<pdfrwt beam="1">  1        4 0.41256980E-01 0.12500090E+03</pdfrwt>
<pdfrwt beam="2">  1       -4 0.22410014E-02 0.12500090E+03</pdfrwt>
<totfact> 0.77815054E+03</totfact>
</mgrwt>
</event>
<event>
 5    1  0.3276024E-002  0.1250029E+03  0.7818608E-02  0.1235065E+00
          4   -1    0    0  501    0  0.00000000000E+00  0.00000000000E+00  0.50067443265E+02  0.50083547948E+02  0.12700000000E+01 0. -1.
         -4   -1    0    0    0  501 -0.00000000000E+00 -0.00000000000E+00 -0.77989500318E+02  0.77999840127E+02  0.12700000000E+01 0. -1.
         25    2    1    2    0    0  0.00000000000E+00  0.00000000000E+00 -0.27922057053E+02  0.12808338807E+03  0.12500285209E+03 0.  0.
    9000005    1    3    3    0    0  0.55488505191E+02 -0.12795344188E+02 -0.40339052223E+02  0.69792078171E+02  0.10000000000E+01 0.  0.
    9000005    1    3    3    0    0 -0.55488505191E+02  0.12795344188E+02  0.12416995170E+02  0.58291309904E+02  0.10000000000E+01 0.  0.
<mgrwt>
<rscale>  0 0.12500285E+03</rscale>
<asrwt>0</asrwt>
<pdfrwt beam="1">  1        4 0.77047177E-02 0.12500285E+03</pdfrwt>
<pdfrwt beam="2">  1       -4 0.12000419E-01 0.12500285E+03</pdfrwt>
<totfact> 0.10385018E+04</totfact>
</mgrwt>
</event>
<event>
 5    1  0.3276024E-002  0.1249999E+03  0.7818608E-02  0.1235069E+00
          4   -1    0    0  501    0  0.00000000000E+00  0.00000000000E+00  0.38557700377E+03  0.38557909531E+03  0.12700000000E+01 0. -1.
         -4   -1    0    0    0  501 -0.00000000000E+00 -0.00000000000E+00 -0.10088970015E+02  0.10168589674E+02  0.12700000000E+01 0. -1.
         25    2    1    2    0    0  0.00000000000E+00  0.00000000000E+00  0.37548803376E+03  0.39574768498E+03  0.12499986669E+03 0.  0.
    9000005    1    3    3    0    0 -0.61127154916E+02  0.11293109796E+02  0.20806023599E+03  0.21715000621E+03  0.10000000000E+01 0.  0.
    9000005    1    3    3    0    0  0.61127154916E+02 -0.11293109796E+02  0.16742779777E+03  0.17859767878E+03  0.10000000000E+01 0.  0.
<mgrwt>
<rscale>  0 0.12499987E+03</rscale>
<asrwt>0</asrwt>
<pdfrwt beam="1">  1        4 0.59325819E-01 0.12499987E+03</pdfrwt>
<pdfrwt beam="2">  1       -4 0.15584349E-02 0.12499987E+03</pdfrwt>
<totfact> 0.64968669E+03</totfact>
</mgrwt>
</event>
<event>
 5    1  0.3276024E-002  0.1249918E+03  0.7818608E-02  0.1235082E+00
          4   -1    0    0  501    0  0.00000000000E+00  0.00000000000E+00  0.14365607533E+03  0.14366168898E+03  0.12700000000E+01 0.  1.
         -4   -1    0    0    0  501 -0.00000000000E+00 -0.00000000000E+00 -0.27167154445E+02  0.27196822988E+02  0.12700000000E+01 0.  1.
         25    2    1    2    0    0  0.00000000000E+00  0.00000000000E+00  0.11648892089E+03  0.17085851197E+03  0.12499184942E+03 0.  0.
    9000005    1    3    3    0    0 -0.53987988743E+02 -0.37998738974E+01  0.10094078761E+03  0.11453900896E+03  0.10000000000E+01 0.  0.
    9000005    1    3    3    0    0  0.53987988743E+02  0.37998738974E+01  0.15548133273E+02  0.56319503003E+02  0.10000000000E+01 0.  0.
<mgrwt>
<rscale>  0 0.12499185E+03</rscale>
<asrwt>0</asrwt>
<pdfrwt beam="1">  1        4 0.22103649E-01 0.12499185E+03</pdfrwt>
<pdfrwt beam="2">  1       -4 0.41822761E-02 0.12499185E+03</pdfrwt>
<totfact> 0.95306295E+03</totfact>
</mgrwt>
</event>
<event>
 5    1  0.3276024E-002  0.1249998E+03  0.7818608E-02  0.1235070E+00
         -4   -1    0    0    0  501 -0.00000000000E+00  0.00000000000E+00  0.17241937255E+04  0.17241941932E+04  0.12700000000E+01 0. -1.
          4   -1    0    0  501    0  0.00000000000E+00 -0.00000000000E+00 -0.20870597715E+01  0.24430960869E+01  0.12700000000E+01 0. -1.
         25    2    1    2    0    0  0.00000000000E+00  0.00000000000E+00  0.17221066657E+04  0.17266372893E+04  0.12499984279E+03 0.  0.
    9000005    1    3    3    0    0 -0.21206883722E+02 -0.36097061436E+02  0.15019149770E+04  0.15024986948E+04  0.10000000000E+01 0.  0.
    9000005    1    3    3    0    0  0.21206883722E+02  0.36097061436E+02  0.22019168872E+03  0.22413859449E+03  0.10000000000E+01 0.  0.
<mgrwt>
<rscale>  0 0.12499984E+03</rscale>
<asrwt>0</asrwt>
<pdfrwt beam="2">  1        4 0.34850756E-03 0.12499984E+03</pdfrwt>
<pdfrwt beam="1">  1       -4 0.26528948E+00 0.12499984E+03</pdfrwt>
<totfact> 0.13868166E+03</totfact>
</mgrwt>
</event>
<event>
 5    1  0.3276024E-002  0.1250024E+03  0.7818608E-02  0.1235066E+00
         -4   -1    0    0    0  501 -0.00000000000E+00  0.00000000000E+00  0.76483391324E+02  0.76493934717E+02  0.12700000000E+01 0. -1.
          4   -1    0    0  501    0  0.00000000000E+00 -0.00000000000E+00 -0.51053172326E+02  0.51068966159E+02  0.12700000000E+01 0. -1.
         25    2    1    2    0    0  0.00000000000E+00  0.00000000000E+00  0.25430218998E+02  0.12756290088E+03  0.12500239054E+03 0.  0.
    9000005    1    3    3    0    0 -0.20447379370E+02 -0.52291895418E+02 -0.15285255195E+02  0.58199455976E+02  0.10000000000E+01 0.  0.
    9000005    1    3    3    0    0  0.20447379370E+02  0.52291895418E+02  0.40715474193E+02  0.69363444899E+02  0.10000000000E+01 0.  0.
<mgrwt>
<rscale>  0 0.12500239E+03</rscale>
<asrwt>0</asrwt>
<pdfrwt beam="2">  1        4 0.78563602E-02 0.12500239E+03</pdfrwt>
<pdfrwt beam="1">  1       -4 0.11768702E-01 0.12500239E+03</pdfrwt>
<totfact> 0.10396377E+04</totfact>
</mgrwt>
</event>
<event>
 5    1  0.3276024E-002  0.1250067E+03  0.7818608E-02  0.1235059E+00
         -4   -1    0    0    0  501 -0.00000000000E+00  0.00000000000E+00  0.72743944632E+02  0.72755029934E+02  0.12700000000E+01 0. -1.
          4   -1    0    0  501    0  0.00000000000E+00 -0.00000000000E+00 -0.53681731442E+02  0.53696752142E+02  0.12700000000E+01 0. -1.
         25    2    1    2    0    0  0.00000000000E+00  0.00000000000E+00  0.19062213190E+02  0.12645178208E+03  0.12500674069E+03 0.  0.
    9000005    1    3    3    0    0 -0.59363256917E+02  0.14883869580E+02 -0.32700389903E+01  0.61296158121E+02  0.10000000000E+01 0.  0.
    9000005    1    3    3    0    0  0.59363256917E+02 -0.14883869580E+02  0.22332252181E+02  0.65155623954E+02  0.10000000000E+01 0.  0.
<mgrwt>
<rscale>  0 0.12500674E+03</rscale>
<asrwt>0</asrwt>
<pdfrwt beam="2">  1        4 0.82607361E-02 0.12500674E+03</pdfrwt>
<pdfrwt beam="1">  1       -4 0.11193384E-01 0.12500674E+03</pdfrwt>
<totfact> 0.10419494E+04</totfact>
</mgrwt>
</event>
<event>
 5    1  0.3276024E-002  0.1250010E+03  0.7818608E-02  0.1235068E+00
         -4   -1    0    0    0  501 -0.00000000000E+00  0.00000000000E+00  0.43472261950E+02  0.43490808903E+02  0.12700000000E+01 0. -1.
          4   -1    0    0  501    0  0.00000000000E+00 -0.00000000000E+00 -0.89815367248E+02  0.89824345775E+02  0.12700000000E+01 0. -1.
         25    2    1    2    0    0  0.00000000000E+00  0.00000000000E+00 -0.46343105298E+02  0.13331515468E+03  0.12500098823E+03 0.  0.
    9000005    1    3    3    0    0  0.45853641477E+02 -0.57316689000E+01 -0.68039979608E+02  0.82254770623E+02  0.10000000000E+01 0.  0.
    9000005    1    3    3    0    0 -0.45853641477E+02  0.57316689000E+01  0.21696874310E+02  0.51060384056E+02  0.10000000000E+01 0.  0.
<mgrwt>
<rscale>  0 0.12500099E+03</rscale>
<asrwt>0</asrwt>
<pdfrwt beam="2">  1        4 0.13819866E-01 0.12500099E+03</pdfrwt>
<pdfrwt beam="1">  1       -4 0.66901577E-02 0.12500099E+03</pdfrwt>
<totfact> 0.10273477E+04</totfact>
</mgrwt>
</event>
<event>
 4    1  0.3276024E-002  0.1250710E+03  0.7818608E-02  0.1234958E+00
          4   -1    0    0  501    0  0.00000000000E+00  0.00000000000E+00  0.35881701093E+03  0.35881925845E+03  0.12700000000E+01 0.  1.
         -4   -1    0    0    0  501 -0.00000000000E+00 -0.00000000000E+00 -0.10859545469E+02  0.10933555130E+02  0.12700000000E+01 0.  1.
    9000005    1    1    2    0    0 -0.59514068495E+02 -0.19128432860E+02  0.17801612065E+03  0.18867580794E+03  0.10000000000E+01 0.  0.
    9000005    1    1    2    0    0  0.59514068495E+02  0.19128432860E+02  0.16994134482E+03  0.18107700564E+03  0.10000000000E+01 0.  0.
<mgrwt>
<rscale>  0 0.12507096E+03</rscale>
<asrwt>0</asrwt>
<pdfrwt beam="1">  1        4 0.55208487E-01 0.12507096E+03</pdfrwt>
<pdfrwt beam="2">  1       -4 0.16765651E-02 0.12507096E+03</pdfrwt>
<totfact> 0.67498851E+03</totfact>
</mgrwt>
</event>
<event>
 5    1  0.3276024E-002  0.1250020E+03  0.7818608E-02  0.1235066E+00
          4   -1    0    0  501    0  0.00000000000E+00  0.00000000000E+00  0.76720325907E+01  0.77764377496E+01  0.12700000000E+01 0. -1.
         -4   -1    0    0    0  501 -0.00000000000E+00 -0.00000000000E+00 -0.50562481746E+03  0.50562641241E+03  0.12700000000E+01 0. -1.
         25    2    1    2    0    0  0.00000000000E+00  0.00000000000E+00 -0.49795278487E+03  0.51340285016E+03  0.12500204237E+03 0.  0.
    9000005    1    3    3    0    0 -0.32703693141E+02  0.23931312097E+01 -0.30480379210E+02  0.44780711683E+02  0.10000000000E+01 0.  0.
    9000005    1    3    3    0    0  0.32703693141E+02 -0.23931312097E+01 -0.46747240566E+03  0.46862213848E+03  0.10000000000E+01 0.  0.
<mgrwt>
<rscale>  0 0.12500204E+03</rscale>
<asrwt>0</asrwt>
<pdfrwt beam="1">  1        4 0.11884670E-02 0.12500204E+03</pdfrwt>
<pdfrwt beam="2">  1       -4 0.77796561E-01 0.12500204E+03</pdfrwt>
<totfact> 0.54836811E+03</totfact>
</mgrwt>
</event>
<event>
 5    1  0.3276024E-002  0.1250165E+03  0.7818608E-02  0.1235044E+00
         -4   -1    0    0    0  501 -0.00000000000E+00  0.00000000000E+00  0.17698587017E+04  0.17698591573E+04  0.12700000000E+01 0. -1.
          4   -1    0    0  501    0  0.00000000000E+00 -0.00000000000E+00 -0.20245385217E+01  0.23899071584E+01  0.12700000000E+01 0. -1.
         25    2    1    2    0    0  0.00000000000E+00  0.00000000000E+00  0.17678341632E+04  0.17722490645E+04  0.12501647163E+03 0.  0.
    9000005    1    3    3    0    0  0.36824502713E+02 -0.50400460148E+02  0.92881123930E+03  0.93090685283E+03  0.10000000000E+01 0.  0.
    9000005    1    3    3    0    0 -0.36824502713E+02  0.50400460148E+02  0.83902292387E+03  0.84134221168E+03  0.10000000000E+01 0.  0.
<mgrwt>
<rscale>  0 0.12501647E+03</rscale>
<asrwt>0</asrwt>
<pdfrwt beam="2">  1        4 0.33960906E-03 0.12501647E+03</pdfrwt>
<pdfrwt beam="1">  1       -4 0.27231308E+00 0.12501647E+03</pdfrwt>
<totfact> 0.13131280E+03</totfact>
</mgrwt>
</event>
<event>
 5    1  0.3276024E-002  0.1250004E+03  0.7818608E-02  0.1235069E+00
          4   -1    0    0  501    0  0.00000000000E+00  0.00000000000E+00  0.25257065891E+03  0.25257385186E+03  0.12700000000E+01 0.  1.
         -4   -1    0    0    0  501 -0.00000000000E+00 -0.00000000000E+00 -0.15436712143E+02  0.15488866381E+02  0.12700000000E+01 0.  1.
         25    2    1    2    0    0  0.00000000000E+00  0.00000000000E+00  0.23713394677E+03  0.26806271824E+03  0.12500044880E+03 0.  0.
    9000005    1    3    3    0    0  0.16947148584E+02 -0.50806493216E+02  0.49516514451E+02  0.72947863584E+02  0.10000000000E+01 0.  0.
    9000005    1    3    3    0    0 -0.16947148584E+02  0.50806493216E+02  0.18761743232E+03  0.19511485465E+03  0.10000000000E+01 0.  0.
<mgrwt>
<rscale>  0 0.12500045E+03</rscale>
<asrwt>0</asrwt>
<pdfrwt beam="1">  1        4 0.38861276E-01 0.12500045E+03</pdfrwt>
<pdfrwt beam="2">  1       -4 0.23791366E-02 0.12500045E+03</pdfrwt>
<totfact> 0.79786928E+03</totfact>
</mgrwt>
</event>
<event>
 5    1  0.3276024E-002  0.1249993E+03  0.7818608E-02  0.1235070E+00
         -4   -1    0    0    0  501 -0.00000000000E+00  0.00000000000E+00  0.10912694142E+03  0.10913433119E+03  0.12700000000E+01 0. -1.
          4   -1    0    0  501    0  0.00000000000E+00 -0.00000000000E+00 -0.35775206087E+02  0.35797741138E+02  0.12700000000E+01 0. -1.
         25    2    1    2    0    0  0.00000000000E+00  0.00000000000E+00  0.73351735331E+02  0.14493207232E+03  0.12499931405E+03 0.  0.
    9000005    1    3    3    0    0 -0.15893892997E+02  0.35733217580E+02  0.93189766778E+02  0.10106834967E+03  0.10000000000E+01 0.  0.
    9000005    1    3    3    0    0  0.15893892997E+02 -0.35733217580E+02 -0.19838031447E+02  0.43863722652E+02  0.10000000000E+01 0.  0.
<mgrwt>
<rscale>  0 0.12499931E+03</rscale>
<asrwt>0</asrwt>
<pdfrwt beam="2">  1        4 0.55061798E-02 0.12499931E+03</pdfrwt>
<pdfrwt beam="1">  1       -4 0.16791062E-01 0.12499931E+03</pdfrwt>
<totfact> 0.10032524E+04</totfact>
</mgrwt>
</event>
<event>
 5    1  0.3276024E-002  0.1250004E+03  0.7818608E-02  0.1235069E+00
          4   -1    0    0  501    0  0.00000000000E+00  0.00000000000E+00  0.62520603335E+02  0.62533500953E+02  0.12700000000E+01 0.  1.
         -4   -1    0    0    0  501 -0.00000000000E+00 -0.00000000000E+00 -0.62453971073E+02  0.62466882449E+02  0.12700000000E+01 0.  1.
         25    2    1    2    0    0  0.00000000000E+00  0.00000000000E+00  0.66632262044E-01  0.12500038340E+03  0.12500036564E+03 0.  0.
    9000005    1    3    3    0    0  0.34699219853E+02 -0.36760866506E+02 -0.36707343520E+02  0.62480606855E+02  0.10000000000E+01 0.  0.
    9000005    1    3    3    0    0 -0.34699219853E+02  0.36760866506E+02  0.36773975782E+02  0.62519776547E+02  0.10000000000E+01 0.  0.
<mgrwt>
<rscale>  0 0.12500037E+03</rscale>
<asrwt>0</asrwt>
<pdfrwt beam="1">  1        4 0.96205396E-02 0.12500037E+03</pdfrwt>
<pdfrwt beam="2">  1       -4 0.96102886E-02 0.12500037E+03</pdfrwt>
<totfact> 0.10452768E+04</totfact>
</mgrwt>
</event>
<event>
 5    1  0.3276024E-002  0.1250007E+03  0.7818608E-02  0.1235068E+00
         -4   -1    0    0    0  501 -0.00000000000E+00  0.00000000000E+00  0.14396777524E+04  0.14396783126E+04  0.12700000000E+01 0.  1.
          4   -1    0    0  501    0  0.00000000000E+00 -0.00000000000E+00 -0.25641109254E+01  0.28613921154E+01  0.12700000000E+01 0.  1.
         25    2    1    2    0    0  0.00000000000E+00  0.00000000000E+00  0.14371136415E+04  0.14425397047E+04  0.12500072421E+03 0.  0.
    9000005    1    3    3    0    0  0.77883466566E+00 -0.73149902990E+01  0.23934040595E+01  0.78002595792E+01  0.10000000000E+01 0.  0.
    9000005    1    3    3    0    0 -0.77883466566E+00  0.73149902990E+01  0.14347202374E+04  0.14347394451E+04  0.10000000000E+01 0.  0.
<mgrwt>
<rscale>  0 0.12500072E+03</rscale>
<asrwt>0</asrwt>
<pdfrwt beam="2">  1        4 0.41738928E-03 0.12500072E+03</pdfrwt>
<pdfrwt beam="1">  1       -4 0.22151190E+00 0.12500072E+03</pdfrwt>
<totfact> 0.19085738E+03</totfact>
</mgrwt>
</event>
<event>
 5    1  0.3276024E-002  0.1249998E+03  0.7818608E-02  0.1235070E+00
         -4   -1    0    0    0  501 -0.00000000000E+00  0.00000000000E+00  0.21870672732E+02  0.21907515280E+02  0.12700000000E+01 0.  1.
          4   -1    0    0  501    0  0.00000000000E+00 -0.00000000000E+00 -0.17841675402E+03  0.17842127400E+03  0.12700000000E+01 0.  1.
         25    2    1    2    0    0  0.00000000000E+00  0.00000000000E+00 -0.15654608129E+03  0.20032878928E+03  0.12499979299E+03 0.  0.
    9000005    1    3    3    0    0 -0.34690623773E+02 -0.48255880882E+02 -0.10923197926E+03  0.12435712569E+03  0.10000000000E+01 0.  0.
    9000005    1    3    3    0    0  0.34690623773E+02  0.48255880882E+02 -0.47314102035E+02  0.75971663592E+02  0.10000000000E+01 0.  0.
<mgrwt>
<rscale>  0 0.12499979E+03</rscale>
<asrwt>0</asrwt>
<pdfrwt beam="2">  1        4 0.27451912E-01 0.12499979E+03</pdfrwt>
<pdfrwt beam="1">  1       -4 0.33679007E-02 0.12499979E+03</pdfrwt>
<totfact> 0.90080501E+03</totfact>
</mgrwt>
</event>
<event>
 5    1  0.3276024E-002  0.1249992E+03  0.7818608E-02  0.1235071E+00
         -4   -1    0    0    0  501 -0.00000000000E+00  0.00000000000E+00  0.52724642985E+02  0.52739936271E+02  0.12700000000E+01 0.  1.
          4   -1    0    0  501    0  0.00000000000E+00 -0.00000000000E+00 -0.74055283343E+02  0.74066172380E+02  0.12700000000E+01 0.  1.
         25    2    1    2    0    0  0.00000000000E+00  0.00000000000E+00 -0.21330640359E+02  0.12680610865E+03  0.12499917189E+03 0.  0.
    9000005    1    3    3    0    0 -0.28601320414E+00  0.33457122820E+02  0.42877732079E+02  0.54396330568E+02  0.10000000000E+01 0.  0.
    9000005    1    3    3    0    0  0.28601320414E+00 -0.33457122820E+02 -0.64208372438E+02  0.72409778084E+02  0.10000000000E+01 0.  0.
<mgrwt>
<rscale>  0 0.12499917E+03</rscale>
<asrwt>0</asrwt>
<pdfrwt beam="2">  1        4 0.11395135E-01 0.12499917E+03</pdfrwt>
<pdfrwt beam="1">  1       -4 0.81134976E-02 0.12499917E+03</pdfrwt>
<totfact> 0.10413556E+04</totfact>
</mgrwt>
</event>
<event>
 5    1  0.3276024E-002  0.1249988E+03  0.7818608E-02  0.1235071E+00
         -4   -1    0    0    0  501 -0.00000000000E+00  0.00000000000E+00  0.92298302774E+03  0.92298390148E+03  0.12700000000E+01 0.  1.
          4   -1    0    0  501    0  0.00000000000E+00 -0.00000000000E+00 -0.41359479474E+01  0.43265419706E+01  0.12700000000E+01 0.  1.
         25    2    1    2    0    0  0.00000000000E+00  0.00000000000E+00  0.91884707979E+03  0.92731044345E+03  0.12499880997E+03 0.  0.
    9000005    1    3    3    0    0  0.82490349276E+01 -0.61937242076E+02  0.45235801338E+03  0.45665418075E+03  0.10000000000E+01 0.  0.
    9000005    1    3    3    0    0 -0.82490349276E+01  0.61937242076E+02  0.46648906641E+03  0.47065626270E+03  0.10000000000E+01 0.  0.
<mgrwt>
<rscale>  0 0.12499881E+03</rscale>
<asrwt>0</asrwt>
<pdfrwt beam="2">  1        4 0.65102781E-03 0.12499881E+03</pdfrwt>
<pdfrwt beam="1">  1       -4 0.14201215E+00 0.12499881E+03</pdfrwt>
<totfact> 0.33136331E+03</totfact>
</mgrwt>
</event>
<event>
 5    1  0.3276024E-002  0.1250022E+03  0.7818608E-02  0.1235066E+00
         -4   -1    0    0    0  501 -0.00000000000E+00  0.00000000000E+00  0.13266515017E+02  0.13327164766E+02  0.12700000000E+01 0. -1.
          4   -1    0    0  501    0  0.00000000000E+00 -0.00000000000E+00 -0.29372109415E+03  0.29372383977E+03  0.12700000000E+01 0. -1.
         25    2    1    2    0    0  0.00000000000E+00  0.00000000000E+00 -0.28045457914E+03  0.30705100454E+03  0.12500219370E+03 0.  0.
    9000005    1    3    3    0    0 -0.93589647305E+01 -0.96535866320E+00 -0.29198343460E+03  0.29213669441E+03  0.10000000000E+01 0.  0.
    9000005    1    3    3    0    0  0.93589647305E+01  0.96535866320E+00  0.11528855467E+02  0.14914310127E+02  0.10000000000E+01 0.  0.
<mgrwt>
<rscale>  0 0.12500219E+03</rscale>
<asrwt>0</asrwt>
<pdfrwt beam="2">  1        4 0.45192732E-01 0.12500219E+03</pdfrwt>
<pdfrwt beam="1">  1       -4 0.20458791E-02 0.12500219E+03</pdfrwt>
<totfact> 0.74719166E+03</totfact>
</mgrwt>
</event>
<event>
 5    1  0.3276024E-002  0.1250044E+03  0.7818608E-02  0.1235062E+00
         -4   -1    0    0    0  501 -0.00000000000E+00  0.00000000000E+00  0.53796515529E+02  0.53811504189E+02  0.12700000000E+01 0. -1.
          4   -1    0    0  501    0  0.00000000000E+00 -0.00000000000E+00 -0.72586047918E+02  0.72597157330E+02  0.12700000000E+01 0. -1.
         25    2    1    2    0    0  0.00000000000E+00  0.00000000000E+00 -0.18789532389E+02  0.12640866152E+03  0.12500441264E+03 0.  0.
    9000005    1    3    3    0    0 -0.33116647885E+02  0.22891399913E+02 -0.57731279679E+02  0.70389127076E+02  0.10000000000E+01 0.  0.
    9000005    1    3    3    0    0  0.33116647885E+02 -0.22891399913E+02  0.38941747290E+02  0.56019534442E+02  0.10000000000E+01 0.  0.
<mgrwt>
<rscale>  0 0.12500441E+03</rscale>
<asrwt>0</asrwt>
<pdfrwt beam="2">  1        4 0.11169092E-01 0.12500441E+03</pdfrwt>
<pdfrwt beam="1">  1       -4 0.82783945E-02 0.12500441E+03</pdfrwt>
<totfact> 0.10420983E+04</totfact>
</mgrwt>
</event>
<event>
 5    1  0.3276024E-002  0.1250017E+03  0.7818608E-02  0.1235067E+00
          4   -1    0    0  501    0  0.00000000000E+00  0.00000000000E+00  0.23164805297E+03  0.23165153430E+03  0.12700000000E+01 0. -1.
         -4   -1    0    0    0  501 -0.00000000000E+00 -0.00000000000E+00 -0.16835810996E+02  0.16883643916E+02  0.12700000000E+01 0. -1.
         25    2    1    2    0    0  0.00000000000E+00  0.00000000000E+00  0.21481224197E+03  0.24853517822E+03  0.12500174203E+03 0.  0.
    9000005    1    3    3    0    0 -0.55671167446E+02 -0.28163009442E+02  0.10025810916E+03  0.11808946794E+03  0.10000000000E+01 0.  0.
    9000005    1    3    3    0    0  0.55671167446E+02  0.28163009442E+02  0.11455413281E+03  0.13044571028E+03  0.10000000000E+01 0.  0.
<mgrwt>
<rscale>  0 0.12500174E+03</rscale>
<asrwt>0</asrwt>
<pdfrwt beam="1">  1        4 0.35642105E-01 0.12500174E+03</pdfrwt>
<pdfrwt beam="2">  1       -4 0.25940723E-02 0.12500174E+03</pdfrwt>
<totfact> 0.82539201E+03</totfact>
</mgrwt>
</event>
<event>
 4    1  0.3276024E-002  0.1251175E+03  0.7818608E-02  0.1234886E+00
         -4   -1    0    0    0  501 -0.00000000000E+00  0.00000000000E+00  0.10357790605E+03  0.10358569168E+03  0.12700000000E+01 0. -1.
          4   -1    0    0  501    0  0.00000000000E+00 -0.00000000000E+00 -0.37764191861E+02  0.37785540712E+02  0.12700000000E+01 0. -1.
    9000005    1    1    2    0    0  0.14001025195E+02  0.55592482311E+02  0.46356116459E+01  0.57524270455E+02  0.10000000000E+01 0.  0.
    9000005    1    1    2    0    0 -0.14001025195E+02 -0.55592482311E+02  0.61178102539E+02  0.83846961938E+02  0.10000000000E+01 0.  0.
<mgrwt>
<rscale>  0 0.12511747E+03</rscale>
<asrwt>0</asrwt>
<pdfrwt beam="2">  1        4 0.58121168E-02 0.12511747E+03</pdfrwt>
<pdfrwt beam="1">  1       -4 0.15937304E-01 0.12511747E+03</pdfrwt>
<totfact> 0.10078552E+04</totfact>
</mgrwt>
</event>
<event>
 5    1  0.3276024E-002  0.1249991E+03  0.7818608E-02  0.1235071E+00
         -4   -1    0    0    0  501 -0.00000000000E+00  0.00000000000E+00  0.93138327649E+02  0.93146985873E+02  0.12700000000E+01 0.  1.
          4   -1    0    0  501    0  0.00000000000E+00 -0.00000000000E+00 -0.41919473114E+02  0.41938706778E+02  0.12700000000E+01 0.  1.
         25    2    1    2    0    0  0.00000000000E+00  0.00000000000E+00  0.51218854534E+02  0.13508569265E+03  0.12499909319E+03 0.  0.
    9000005    1    3    3    0    0 -0.11976683379E+02 -0.35617709350E+02  0.79569814169E+02  0.88002372076E+02  0.10000000000E+01 0.  0.
    9000005    1    3    3    0    0  0.11976683379E+02  0.35617709350E+02 -0.28350959635E+02  0.47083320575E+02  0.10000000000E+01 0.  0.
<mgrwt>
<rscale>  0 0.12499909E+03</rscale>
<asrwt>0</asrwt>
<pdfrwt beam="2">  1        4 0.64512953E-02 0.12499909E+03</pdfrwt>
<pdfrwt beam="1">  1       -4 0.14331119E-01 0.12499909E+03</pdfrwt>
<totfact> 0.10236474E+04</totfact>
</mgrwt>
</event>
<event>
 5    1  0.3276024E-002  0.1250027E+03  0.7818608E-02  0.1235065E+00
         -4   -1    0    0    0  501 -0.00000000000E+00  0.00000000000E+00  0.15561309641E+03  0.15561827873E+03  0.12700000000E+01 0.  1.
          4   -1    0    0  501    0  0.00000000000E+00 -0.00000000000E+00 -0.25081758092E+02  0.25113890360E+02  0.12700000000E+01 0.  1.
         25    2    1    2    0    0  0.00000000000E+00  0.00000000000E+00  0.13053133832E+03  0.18073216909E+03  0.12500274661E+03 0.  0.
    9000005    1    3    3    0    0  0.60452578896E+02  0.15253904214E+02  0.71438138218E+02  0.94824065938E+02  0.10000000000E+01 0.  0.
    9000005    1    3    3    0    0 -0.60452578896E+02 -0.15253904214E+02  0.59093200104E+02  0.85908103154E+02  0.10000000000E+01 0.  0.
<mgrwt>
<rscale>  0 0.12500275E+03</rscale>
<asrwt>0</asrwt>
<pdfrwt beam="2">  1        4 0.38616024E-02 0.12500275E+03</pdfrwt>
<pdfrwt beam="1">  1       -4 0.23943346E-01 0.12500275E+03</pdfrwt>
<totfact> 0.93479620E+03</totfact>
</mgrwt>
</event>
<event>
 5    1  0.3276024E-002  0.1250022E+03  0.7818608E-02  0.1235066E+00
          4   -1    0    0  501    0  0.00000000000E+00  0.00000000000E+00  0.44435765660E+03  0.44435947147E+03  0.12700000000E+01 0.  1.
         -4   -1    0    0    0  501 -0.00000000000E+00 -0.00000000000E+00 -0.87433785544E+01  0.88351326275E+01  0.12700000000E+01 0.  1.
         25    2    1    2    0    0  0.00000000000E+00  0.00000000000E+00  0.43561427805E+03  0.45319460410E+03  0.12500219974E+03 0.  0.
    9000005    1    3    3    0    0  0.38596712976E+02 -0.49052586614E+02  0.20661793776E+03  0.21584215231E+03  0.10000000000E+01 0.  0.
    9000005    1    3    3    0    0 -0.38596712976E+02  0.49052586614E+02  0.22899634029E+03  0.23735245179E+03  0.10000000000E+01 0.  0.
<mgrwt>
<rscale>  0 0.12500220E+03</rscale>
<asrwt>0</asrwt>
<pdfrwt beam="1">  1        4 0.68369919E-01 0.12500220E+03</pdfrwt>
<pdfrwt beam="2">  1       -4 0.13523327E-02 0.12500220E+03</pdfrwt>
<totfact> 0.59685146E+03</totfact>
</mgrwt>
</event>
<event>
 5    1  0.3276024E-002  0.1250001E+03  0.7818608E-02  0.1235069E+00
          4   -1    0    0  501    0  0.00000000000E+00  0.00000000000E+00  0.69144090488E+03  0.69144207121E+03  0.12700000000E+01 0. -1.
         -4   -1    0    0    0  501 -0.00000000000E+00 -0.00000000000E+00 -0.55768835467E+01  0.57196617114E+01  0.12700000000E+01 0. -1.
         25    2    1    2    0    0  0.00000000000E+00  0.00000000000E+00  0.68586402133E+03  0.69716173292E+03  0.12500010437E+03 0.  0.
    9000005    1    3    3    0    0  0.12628001243E+02 -0.60049140099E+02  0.40889766398E+03  0.41347752689E+03  0.10000000000E+01 0.  0.
    9000005    1    3    3    0    0 -0.12628001243E+02  0.60049140099E+02  0.27696635736E+03  0.28368420603E+03  0.10000000000E+01 0.  0.
<mgrwt>
<rscale>  0 0.12500010E+03</rscale>
<asrwt>0</asrwt>
<pdfrwt beam="1">  1        4 0.10638658E+00 0.12500010E+03</pdfrwt>
<pdfrwt beam="2">  1       -4 0.86905483E-03 0.12500010E+03</pdfrwt>
<totfact> 0.43236845E+03</totfact>
</mgrwt>
</event>
<event>
 5    1  0.3276024E-002  0.1249973E+03  0.7818608E-02  0.1235074E+00
         -4   -1    0    0    0  501 -0.00000000000E+00  0.00000000000E+00  0.66064693048E+01  0.67274316552E+01  0.12700000000E+01 0. -1.
          4   -1    0    0  501    0  0.00000000000E+00 -0.00000000000E+00 -0.58576527968E+03  0.58576665642E+03  0.12700000000E+01 0. -1.
         25    2    1    2    0    0  0.00000000000E+00  0.00000000000E+00 -0.57915881037E+03  0.59249408808E+03  0.12499726707E+03 0.  0.
    9000005    1    3    3    0    0 -0.32279157012E+02  0.50327417210E+02 -0.20343466232E+03  0.21204116283E+03  0.10000000000E+01 0.  0.
    9000005    1    3    3    0    0  0.32279157012E+02 -0.50327417210E+02 -0.37572414805E+03  0.38045292525E+03  0.10000000000E+01 0.  0.
<mgrwt>
<rscale>  0 0.12499727E+03</rscale>
<asrwt>0</asrwt>
<pdfrwt beam="2">  1        4 0.90127106E-01 0.12499727E+03</pdfrwt>
<pdfrwt beam="1">  1       -4 0.10257911E-02 0.12499727E+03</pdfrwt>
<totfact> 0.49347833E+03</totfact>
</mgrwt>
</event>
<event>
 5    1  0.3276024E-002  0.1249989E+03  0.7818608E-02  0.1235071E+00
          4   -1    0    0  501    0  0.00000000000E+00  0.00000000000E+00  0.45638479523E+01  0.47372574484E+01  0.12700000000E+01 0.  1.
         -4   -1    0    0    0  501 -0.00000000000E+00 -0.00000000000E+00 -0.83976504666E+03  0.83976600699E+03  0.12700000000E+01 0.  1.
         25    2    1    2    0    0  0.00000000000E+00  0.00000000000E+00 -0.83520119871E+03  0.84450326444E+03  0.12499888528E+03 0.  0.
    9000005    1    3    3    0    0  0.23770701482E+02 -0.40914981932E+02 -0.14183155903E+03  0.14952014289E+03  0.10000000000E+01 0.  0.
    9000005    1    3    3    0    0 -0.23770701482E+02  0.40914981932E+02 -0.69336963968E+03  0.69498312154E+03  0.10000000000E+01 0.  0.
<mgrwt>
<rscale>  0 0.12499889E+03</rscale>
<asrwt>0</asrwt>
<pdfrwt beam="1">  1        4 0.71554418E-03 0.12499889E+03</pdfrwt>
<pdfrwt beam="2">  1       -4 0.12920792E+00 0.12499889E+03</pdfrwt>
<totfact> 0.36354233E+03</totfact>
</mgrwt>
</event>
<event>
 5    1  0.3276024E-002  0.1250016E+03  0.7818608E-02  0.1235067E+00
         -4   -1    0    0    0  501 -0.00000000000E+00  0.00000000000E+00  0.20190230480E+02  0.20230133634E+02  0.12700000000E+01 0. -1.
          4   -1    0    0  501    0  0.00000000000E+00 -0.00000000000E+00 -0.19324409754E+03  0.19324827071E+03  0.12700000000E+01 0. -1.
         25    2    1    2    0    0  0.00000000000E+00  0.00000000000E+00 -0.17305386706E+03  0.21347840434E+03  0.12500155286E+03 0.  0.
    9000005    1    3    3    0    0  0.39528732576E+02  0.27699176720E+02 -0.18737962742E+02  0.51786835565E+02  0.10000000000E+01 0.  0.
    9000005    1    3    3    0    0 -0.39528732576E+02 -0.27699176720E+02 -0.15431590431E+03  0.16169156878E+03  0.10000000000E+01 0.  0.
<mgrwt>
<rscale>  0 0.12500155E+03</rscale>
<asrwt>0</asrwt>
<pdfrwt beam="2">  1        4 0.29733250E-01 0.12500155E+03</pdfrwt>
<pdfrwt beam="1">  1       -4 0.31095799E-02 0.12500155E+03</pdfrwt>
<totfact> 0.87907894E+03</totfact>
</mgrwt>
</event>
<event>
 5    1  0.3276024E-002  0.1249989E+03  0.7818608E-02  0.1235071E+00
         -4   -1    0    0    0  501 -0.00000000000E+00  0.00000000000E+00  0.10575211686E+02  0.10651197220E+02  0.12700000000E+01 0.  1.
          4   -1    0    0  501    0  0.00000000000E+00 -0.00000000000E+00 -0.36797183486E+03  0.36797402646E+03  0.12700000000E+01 0.  1.
         25    2    1    2    0    0  0.00000000000E+00  0.00000000000E+00 -0.35739662317E+03  0.37862522368E+03  0.12499885500E+03 0.  0.
    9000005    1    3    3    0    0  0.54184049763E+02  0.30806450322E+02 -0.19232214692E+03  0.20217259168E+03  0.10000000000E+01 0.  0.
    9000005    1    3    3    0    0 -0.54184049763E+02 -0.30806450322E+02 -0.16507447625E+03  0.17645263200E+03  0.10000000000E+01 0.  0.
<mgrwt>
<rscale>  0 0.12499886E+03</rscale>
<asrwt>0</asrwt>
<pdfrwt beam="2">  1        4 0.56617055E-01 0.12499886E+03</pdfrwt>
<pdfrwt beam="1">  1       -4 0.16329696E-02 0.12499886E+03</pdfrwt>
<totfact> 0.66687820E+03</totfact>
</mgrwt>
</event>
<event>
 5    1  0.3276024E-002  0.1249951E+03  0.7818608E-02  0.1235077E+00
          4   -1    0    0  501    0  0.00000000000E+00  0.00000000000E+00  0.10575585505E+02  0.10651568372E+02  0.12700000000E+01 0. -1.
         -4   -1    0    0    0  501 -0.00000000000E+00 -0.00000000000E+00 -0.36793691867E+03  0.36793911047E+03  0.12700000000E+01 0. -1.
         25    2    1    2    0    0  0.00000000000E+00  0.00000000000E+00 -0.35736133316E+03  0.37859067885E+03  0.12499511859E+03 0.  0.
    9000005    1    3    3    0    0  0.48493462963E+02  0.17476367176E+01 -0.59424402901E+02  0.76726330841E+02  0.10000000000E+01 0.  0.
    9000005    1    3    3    0    0 -0.48493462963E+02 -0.17476367176E+01 -0.29793693026E+03  0.30186434801E+03  0.10000000000E+01 0.  0.
<mgrwt>
<rscale>  0 0.12499512E+03</rscale>
<asrwt>0</asrwt>
<pdfrwt beam="1">  1        4 0.16330269E-02 0.12499512E+03</pdfrwt>
<pdfrwt beam="2">  1       -4 0.56611683E-01 0.12499512E+03</pdfrwt>
<totfact> 0.66696865E+03</totfact>
</mgrwt>
</event>
<event>
 5    1  0.3276024E-002  0.1249985E+03  0.7818608E-02  0.1235072E+00
          4   -1    0    0  501    0  0.00000000000E+00  0.00000000000E+00  0.17744275408E+04  0.17744279953E+04  0.12700000000E+01 0. -1.
         -4   -1    0    0    0  501 -0.00000000000E+00 -0.00000000000E+00 -0.20176989569E+01  0.23841159957E+01  0.12700000000E+01 0. -1.
         25    2    1    2    0    0  0.00000000000E+00  0.00000000000E+00  0.17724098418E+04  0.17768121113E+04  0.12499852531E+03 0.  0.
    9000005    1    3    3    0    0 -0.49469794306E+02 -0.17570602351E+02  0.13680739193E+04  0.13690811646E+04  0.10000000000E+01 0.  0.
    9000005    1    3    3    0    0  0.49469794306E+02  0.17570602351E+02  0.40433592258E+03  0.40773094671E+03  0.10000000000E+01 0.  0.
<mgrwt>
<rscale>  0 0.12499853E+03</rscale>
<asrwt>0</asrwt>
<pdfrwt beam="1">  1        4 0.27301652E+00 0.12499853E+03</pdfrwt>
<pdfrwt beam="2">  1       -4 0.33863679E-03 0.12499853E+03</pdfrwt>
<totfact> 0.13064619E+03</totfact>
</mgrwt>
</event>
<event>
 5    1  0.3276024E-002  0.1250057E+03  0.7818608E-02  0.1235060E+00
         -4   -1    0    0    0  501 -0.00000000000E+00  0.00000000000E+00  0.92301715347E+02  0.92310452041E+02  0.12700000000E+01 0. -1.
          4   -1    0    0  501    0  0.00000000000E+00 -0.00000000000E+00 -0.42304052876E+02  0.42323111768E+02  0.12700000000E+01 0. -1.
         25    2    1    2    0    0  0.00000000000E+00  0.00000000000E+00  0.49997662472E+02  0.13463356381E+03  0.12500572087E+03 0.  0.
    9000005    1    3    3    0    0 -0.26063988754E+02 -0.56478068315E+02  0.18491651487E+02  0.64900268759E+02  0.10000000000E+01 0.  0.
    9000005    1    3    3    0    0  0.26063988754E+02  0.56478068315E+02  0.31506010985E+02  0.69733295050E+02  0.10000000000E+01 0.  0.
<mgrwt>
<rscale>  0 0.12500572E+03</rscale>
<asrwt>0</asrwt>
<pdfrwt beam="2">  1        4 0.65104540E-02 0.12500572E+03</pdfrwt>
<pdfrwt beam="1">  1       -4 0.14202402E-01 0.12500572E+03</pdfrwt>
<totfact> 0.10244478E+04</totfact>
</mgrwt>
</event>
<event>
 5    1  0.3276024E-002  0.1250110E+03  0.7818608E-02  0.1235052E+00
         -4   -1    0    0    0  501 -0.00000000000E+00  0.00000000000E+00  0.96626858070E+02  0.96635203733E+02  0.12700000000E+01 0. -1.
          4   -1    0    0  501    0  0.00000000000E+00 -0.00000000000E+00 -0.40413159421E+02  0.40433109630E+02  0.12700000000E+01 0. -1.
         25    2    1    2    0    0  0.00000000000E+00  0.00000000000E+00  0.56213698649E+02  0.13706831336E+03  0.12501096997E+03 0.  0.
    9000005    1    3    3    0    0 -0.41363634119E+02 -0.28427187285E+02 -0.12725884414E+02  0.51788061738E+02  0.10000000000E+01 0.  0.
    9000005    1    3    3    0    0  0.41363634119E+02  0.28427187285E+02  0.68939583063E+02  0.85280251625E+02  0.10000000000E+01 0.  0.
<mgrwt>
<rscale>  0 0.12501097E+03</rscale>
<asrwt>0</asrwt>
<pdfrwt beam="2">  1        4 0.62195859E-02 0.12501097E+03</pdfrwt>
<pdfrwt beam="1">  1       -4 0.14867847E-01 0.12501097E+03</pdfrwt>
<totfact> 0.10192137E+04</totfact>
</mgrwt>
</event>
<event>
 5    1  0.3276024E-002  0.1250022E+03  0.7818608E-02  0.1235066E+00
          4   -1    0    0  501    0  0.00000000000E+00  0.00000000000E+00  0.15776308577E+04  0.15776313689E+04  0.12700000000E+01 0.  1.
         -4   -1    0    0    0  501 -0.00000000000E+00 -0.00000000000E+00 -0.23127188724E+01  0.26384784598E+01  0.12700000000E+01 0.  1.
         25    2    1    2    0    0  0.00000000000E+00  0.00000000000E+00  0.15753181388E+04  0.15802698473E+04  0.12500220752E+03 0.  0.
    9000005    1    3    3    0    0 -0.59786657566E+02  0.16672475340E+02  0.69564860457E+03  0.69841276971E+03  0.10000000000E+01 0.  0.
    9000005    1    3    3    0    0  0.59786657566E+02 -0.16672475340E+02  0.87966953426E+03  0.88185707763E+03  0.10000000000E+01 0.  0.
<mgrwt>
<rscale>  0 0.12500221E+03</rscale>
<asrwt>0</asrwt>
<pdfrwt beam="1">  1        4 0.24273745E+00 0.12500221E+03</pdfrwt>
<pdfrwt beam="2">  1       -4 0.38090080E-03 0.12500221E+03</pdfrwt>
<totfact> 0.16404595E+03</totfact>
</mgrwt>
</event>
<event>
 5    1  0.3276024E-002  0.1250007E+03  0.7818608E-02  0.1235068E+00
          4   -1    0    0  501    0  0.00000000000E+00  0.00000000000E+00  0.44414490554E+01  0.46194555645E+01  0.12700000000E+01 0.  1.
         -4   -1    0    0    0  501 -0.00000000000E+00 -0.00000000000E+00 -0.86205222247E+03  0.86205315797E+03  0.12700000000E+01 0.  1.
         25    2    1    2    0    0  0.00000000000E+00  0.00000000000E+00 -0.85761077342E+03  0.86667261354E+03  0.12500072149E+03 0.  0.
    9000005    1    3    3    0    0  0.22023833014E+02  0.27713343906E+02 -0.78587018361E+03  0.78666767071E+03  0.10000000000E+01 0.  0.
    9000005    1    3    3    0    0 -0.22023833014E+02 -0.27713343906E+02 -0.71740589812E+02  0.80004942832E+02  0.10000000000E+01 0.  0.
<mgrwt>
<rscale>  0 0.12500072E+03</rscale>
<asrwt>0</asrwt>
<pdfrwt beam="1">  1        4 0.69706531E-03 0.12500072E+03</pdfrwt>
<pdfrwt beam="2">  1       -4 0.13263705E+00 0.12500072E+03</pdfrwt>
<totfact> 0.35454087E+03</totfact>
</mgrwt>
</event>
<event>
 4    1  0.3276024E-002  0.1248494E+03  0.7818608E-02  0.1235305E+00
          4   -1    0    0  501    0  0.00000000000E+00  0.00000000000E+00  0.20168842719E+01  0.23834265599E+01  0.12700000000E+01 0.  1.
         -4   -1    0    0    0  501 -0.00000000000E+00 -0.00000000000E+00 -0.17708012752E+04  0.17708017306E+04  0.12700000000E+01 0.  1.
    9000005    1    1    2    0    0  0.23477076189E+02 -0.56311560985E+02 -0.10715648643E+04  0.10733007143E+04  0.10000000000E+01 0.  0.
    9000005    1    1    2    0    0 -0.23477076189E+02  0.56311560985E+02 -0.69721952661E+03  0.69988444281E+03  0.10000000000E+01 0.  0.
<mgrwt>
<rscale>  0 0.12484943E+03</rscale>
<asrwt>0</asrwt>
<pdfrwt beam="1">  1        4 0.33852190E-03 0.12484943E+03</pdfrwt>
<pdfrwt beam="2">  1       -4 0.27245806E+00 0.12484943E+03</pdfrwt>
<totfact> 0.13164719E+03</totfact>
</mgrwt>
</event>
<event>
 5    1  0.3276024E-002  0.1249892E+03  0.7818608E-02  0.1235086E+00
          4   -1    0    0  501    0  0.00000000000E+00  0.00000000000E+00  0.28113900373E+03  0.28114187223E+03  0.12700000000E+01 0.  1.
         -4   -1    0    0    0  501 -0.00000000000E+00 -0.00000000000E+00 -0.13859990829E+02  0.13918054669E+02  0.12700000000E+01 0.  1.
         25    2    1    2    0    0  0.00000000000E+00  0.00000000000E+00  0.26727901290E+03  0.29505992690E+03  0.12498915842E+03 0.  0.
    9000005    1    3    3    0    0  0.12455830718E+02  0.60065308770E+02  0.16172900886E+03  0.17297474192E+03  0.10000000000E+01 0.  0.
    9000005    1    3    3    0    0 -0.12455830718E+02 -0.60065308770E+02  0.10555000404E+03  0.12208518497E+03  0.10000000000E+01 0.  0.
<mgrwt>
<rscale>  0 0.12498916E+03</rscale>
<asrwt>0</asrwt>
<pdfrwt beam="1">  1        4 0.43256840E-01 0.12498916E+03</pdfrwt>
<pdfrwt beam="2">  1       -4 0.21369935E-02 0.12498916E+03</pdfrwt>
<totfact> 0.76241074E+03</totfact>
</mgrwt>
</event>
<event>
 5    1  0.3276024E-002  0.1250027E+03  0.7818608E-02  0.1235065E+00
         -4   -1    0    0    0  501 -0.00000000000E+00  0.00000000000E+00  0.55951594250E+02  0.55966005746E+02  0.12700000000E+01 0.  1.
          4   -1    0    0  501    0  0.00000000000E+00 -0.00000000000E+00 -0.69788701660E+02  0.69800256299E+02  0.12700000000E+01 0.  1.
         25    2    1    2    0    0  0.00000000000E+00  0.00000000000E+00 -0.13837107410E+02  0.12576626204E+03  0.12500274848E+03 0.  0.
    9000005    1    3    3    0    0  0.19894492352E+02  0.59200714477E+02 -0.46899936053E+01  0.62637939466E+02  0.10000000000E+01 0.  0.
    9000005    1    3    3    0    0 -0.19894492352E+02 -0.59200714477E+02 -0.91471138046E+01  0.63128322578E+02  0.10000000000E+01 0.  0.
<mgrwt>
<rscale>  0 0.12500275E+03</rscale>
<asrwt>0</asrwt>
<pdfrwt beam="2">  1        4 0.10738721E-01 0.12500275E+03</pdfrwt>
<pdfrwt beam="1">  1       -4 0.86099349E-02 0.12500275E+03</pdfrwt>
<totfact> 0.10435440E+04</totfact>
</mgrwt>
</event>
<event>
 5    1  0.3276024E-002  0.1249848E+03  0.7818608E-02  0.1235093E+00
          4   -1    0    0  501    0  0.00000000000E+00  0.00000000000E+00  0.15563732658E+02  0.15615462665E+02  0.12700000000E+01 0. -1.
         -4   -1    0    0    0  501 -0.00000000000E+00 -0.00000000000E+00 -0.25045346250E+03  0.25045668244E+03  0.12700000000E+01 0. -1.
         25    2    1    2    0    0  0.00000000000E+00  0.00000000000E+00 -0.23488972985E+03  0.26607214511E+03  0.12498480394E+03 0.  0.
    9000005    1    3    3    0    0  0.87600935706E+00 -0.49000674721E+02 -0.19996209441E+03  0.20588266735E+03  0.10000000000E+01 0.  0.
    9000005    1    3    3    0    0 -0.87600935706E+00  0.49000674721E+02 -0.34927635440E+02  0.60189477759E+02  0.10000000000E+01 0.  0.
<mgrwt>
<rscale>  0 0.12498480E+03</rscale>
<asrwt>0</asrwt>
<pdfrwt beam="1">  1        4 0.23986475E-02 0.12498480E+03</pdfrwt>
<pdfrwt beam="2">  1       -4 0.38535526E-01 0.12498480E+03</pdfrwt>
<totfact> 0.80088479E+03</totfact>
</mgrwt>
</event>
<event>
 5    1  0.3276024E-002  0.1250075E+03  0.7818608E-02  0.1235058E+00
          4   -1    0    0  501    0  0.00000000000E+00  0.00000000000E+00  0.17339367346E+03  0.17339832438E+03  0.12700000000E+01 0. -1.
         -4   -1    0    0    0  501 -0.00000000000E+00 -0.00000000000E+00 -0.22508055295E+02  0.22543856218E+02  0.12700000000E+01 0. -1.
         25    2    1    2    0    0  0.00000000000E+00  0.00000000000E+00  0.15088561817E+03  0.19594218059E+03  0.12500747324E+03 0.  0.
    9000005    1    3    3    0    0  0.65060462620E+01  0.46649166694E+02  0.13982724092E+03  0.14755043441E+03  0.10000000000E+01 0.  0.
    9000005    1    3    3    0    0 -0.65060462620E+01 -0.46649166694E+02  0.11058377242E+02  0.48391746180E+02  0.10000000000E+01 0.  0.
<mgrwt>
<rscale>  0 0.12500747E+03</rscale>
<asrwt>0</asrwt>
<pdfrwt beam="1">  1        4 0.26679061E-01 0.12500747E+03</pdfrwt>
<pdfrwt beam="2">  1       -4 0.34658894E-02 0.12500747E+03</pdfrwt>
<totfact> 0.90808357E+03</totfact>
</mgrwt>
</event>
<event>
 5    1  0.3276024E-002  0.1249992E+03  0.7818608E-02  0.1235071E+00
          4   -1    0    0  501    0  0.00000000000E+00  0.00000000000E+00  0.66995289427E+02  0.67007325759E+02  0.12700000000E+01 0.  1.
         -4   -1    0    0    0  501 -0.00000000000E+00 -0.00000000000E+00 -0.58281378820E+02  0.58295214359E+02  0.12700000000E+01 0.  1.
         25    2    1    2    0    0  0.00000000000E+00  0.00000000000E+00  0.87139106070E+01  0.12530254012E+03  0.12499917728E+03 0.  0.
    9000005    1    3    3    0    0 -0.15309702801E+02 -0.58651899193E+02 -0.10870906102E+02  0.61592279372E+02  0.10000000000E+01 0.  0.
    9000005    1    3    3    0    0  0.15309702801E+02  0.58651899193E+02  0.19584816709E+02  0.63710260745E+02  0.10000000000E+01 0.  0.
<mgrwt>
<rscale>  0 0.12499918E+03</rscale>
<asrwt>0</asrwt>
<pdfrwt beam="1">  1        4 0.10308958E-01 0.12499918E+03</pdfrwt>
<pdfrwt beam="2">  1       -4 0.89683562E-02 0.12499918E+03</pdfrwt>
<totfact> 0.10446489E+04</totfact>
</mgrwt>
</event>
<event>
 5    1  0.3276024E-002  0.1250017E+03  0.7818608E-02  0.1235067E+00
         -4   -1    0    0    0  501 -0.00000000000E+00  0.00000000000E+00  0.43396756614E+02  0.43415335822E+02  0.12700000000E+01 0. -1.
          4   -1    0    0  501    0  0.00000000000E+00 -0.00000000000E+00 -0.89972607686E+02  0.89981570523E+02  0.12700000000E+01 0. -1.
         25    2    1    2    0    0  0.00000000000E+00  0.00000000000E+00 -0.46575851072E+02  0.13339690635E+03  0.12500169887E+03 0.  0.
    9000005    1    3    3    0    0 -0.33131838311E+02 -0.35669207738E+02 -0.65102997113E+02  0.81298286105E+02  0.10000000000E+01 0.  0.
    9000005    1    3    3    0    0  0.33131838311E+02  0.35669207738E+02  0.18527146041E+02  0.52098620240E+02  0.10000000000E+01 0.  0.
<mgrwt>
<rscale>  0 0.12500170E+03</rscale>
<asrwt>0</asrwt>
<pdfrwt beam="2">  1        4 0.13844058E-01 0.12500170E+03</pdfrwt>
<pdfrwt beam="1">  1       -4 0.66785427E-02 0.12500170E+03</pdfrwt>
<totfact> 0.10271578E+04</totfact>
</mgrwt>
</event>
<event>
 5    1  0.3276024E-002  0.1249949E+03  0.7818608E-02  0.1235077E+00
          4   -1    0    0  501    0  0.00000000000E+00  0.00000000000E+00  0.27132608238E+02  0.27162314514E+02  0.12700000000E+01 0. -1.
         -4   -1    0    0    0  501 -0.00000000000E+00 -0.00000000000E+00 -0.14384571985E+03  0.14385132610E+03  0.12700000000E+01 0. -1.
         25    2    1    2    0    0  0.00000000000E+00  0.00000000000E+00 -0.11671311161E+03  0.17101364061E+03  0.12499485930E+03 0.  0.
    9000005    1    3    3    0    0 -0.37913698529E+02  0.57405446329E+01  0.91499824574E+01  0.39435067742E+02  0.10000000000E+01 0.  0.
    9000005    1    3    3    0    0  0.37913698529E+02 -0.57405446329E+01 -0.12586309407E+03  0.13157857287E+03  0.10000000000E+01 0.  0.
<mgrwt>
<rscale>  0 0.12499486E+03</rscale>
<asrwt>0</asrwt>
<pdfrwt beam="1">  1        4 0.41769639E-02 0.12499486E+03</pdfrwt>
<pdfrwt beam="2">  1       -4 0.22132827E-01 0.12499486E+03</pdfrwt>
<totfact> 0.95271036E+03</totfact>
</mgrwt>
</event>
<event>
 5    1  0.3276024E-002  0.1250023E+03  0.7818608E-02  0.1235066E+00
          4   -1    0    0  501    0  0.00000000000E+00  0.00000000000E+00  0.42684182795E+02  0.42703072031E+02  0.12700000000E+01 0. -1.
         -4   -1    0    0    0  501 -0.00000000000E+00 -0.00000000000E+00 -0.91475025989E+02  0.91483841632E+02  0.12700000000E+01 0. -1.
         25    2    1    2    0    0  0.00000000000E+00  0.00000000000E+00 -0.48790843194E+02  0.13418691366E+03  0.12500232565E+03 0.  0.
    9000005    1    3    3    0    0 -0.48883173198E+02  0.37230096322E+02 -0.36623180299E+02  0.71539513761E+02  0.10000000000E+01 0.  0.
    9000005    1    3    3    0    0  0.48883173198E+02 -0.37230096322E+02 -0.12167662895E+02  0.62647399901E+02  0.10000000000E+01 0.  0.
<mgrwt>
<rscale>  0 0.12500233E+03</rscale>
<asrwt>0</asrwt>
<pdfrwt beam="1">  1        4 0.65689285E-02 0.12500233E+03</pdfrwt>
<pdfrwt beam="2">  1       -4 0.14075212E-01 0.12500233E+03</pdfrwt>
<totfact> 0.10254699E+04</totfact>
</mgrwt>
</event>
<event>
 5    1  0.3276024E-002  0.1249989E+03  0.7818608E-02  0.1235071E+00
         -4   -1    0    0    0  501 -0.00000000000E+00  0.00000000000E+00  0.19031405340E+02  0.19073732964E+02  0.12700000000E+01 0.  1.
          4   -1    0    0  501    0  0.00000000000E+00 -0.00000000000E+00 -0.20497683923E+03  0.20498077354E+03  0.12700000000E+01 0.  1.
         25    2    1    2    0    0  0.00000000000E+00  0.00000000000E+00 -0.18594543389E+03  0.22405450651E+03  0.12499887000E+03 0.  0.
    9000005    1    3    3    0    0 -0.22548288825E+02  0.18488537230E+02  0.60986348185E+01  0.29806789235E+02  0.10000000000E+01 0.  0.
    9000005    1    3    3    0    0  0.22548288825E+02 -0.18488537230E+02 -0.19204406871E+03  0.19424771727E+03  0.10000000000E+01 0.  0.
<mgrwt>
<rscale>  0 0.12499887E+03</rscale>
<asrwt>0</asrwt>
<pdfrwt beam="2">  1        4 0.31538455E-01 0.12499887E+03</pdfrwt>
<pdfrwt beam="1">  1       -4 0.29314673E-02 0.12499887E+03</pdfrwt>
<totfact> 0.86232992E+03</totfact>
</mgrwt>
</event>
<event>
 5    1  0.3276024E-002  0.1249979E+03  0.7818608E-02  0.1235073E+00
         -4   -1    0    0    0  501 -0.00000000000E+00  0.00000000000E+00  0.41054491854E+01  0.42973960737E+01  0.12700000000E+01 0. -1.
          4   -1    0    0  501    0  0.00000000000E+00 -0.00000000000E+00 -0.92952023940E+03  0.92952110700E+03  0.12700000000E+01 0. -1.
         25    2    1    2    0    0  0.00000000000E+00  0.00000000000E+00 -0.92541479021E+03  0.93381850307E+03  0.12499785090E+03 0.  0.
    9000005    1    3    3    0    0  0.20947110373E+02 -0.57470108017E+02 -0.36717589256E+03  0.37223746564E+03  0.10000000000E+01 0.  0.
    9000005    1    3    3    0    0 -0.20947110373E+02  0.57470108017E+02 -0.55823889765E+03  0.56158103743E+03  0.10000000000E+01 0.  0.
<mgrwt>
<rscale>  0 0.12499785E+03</rscale>
<asrwt>0</asrwt>
<pdfrwt beam="2">  1        4 0.14301778E+00 0.12499785E+03</pdfrwt>
<pdfrwt beam="1">  1       -4 0.64644019E-03 0.12499785E+03</pdfrwt>
<totfact> 0.32899117E+03</totfact>
</mgrwt>
</event>
<event>
 5    1  0.3276024E-002  0.1250010E+03  0.7818608E-02  0.1235068E+00
         -4   -1    0    0    0  501 -0.00000000000E+00  0.00000000000E+00  0.56531924976E+02  0.56546188567E+02  0.12700000000E+01 0.  1.
          4   -1    0    0  501    0  0.00000000000E+00 -0.00000000000E+00 -0.69070441999E+02  0.69082116774E+02  0.12700000000E+01 0.  1.
         25    2    1    2    0    0  0.00000000000E+00  0.00000000000E+00 -0.12538517023E+02  0.12562830534E+03  0.12500102677E+03 0.  0.
    9000005    1    3    3    0    0  0.32128128023E+02 -0.93189405962E+01 -0.59319131005E+02  0.68108872897E+02  0.10000000000E+01 0.  0.
    9000005    1    3    3    0    0 -0.32128128023E+02  0.93189405962E+01  0.46780613982E+02  0.57519432444E+02  0.10000000000E+01 0.  0.
<mgrwt>
<rscale>  0 0.12500103E+03</rscale>
<asrwt>0</asrwt>
<pdfrwt beam="2">  1        4 0.10628217E-01 0.12500103E+03</pdfrwt>
<pdfrwt beam="1">  1       -4 0.86992145E-02 0.12500103E+03</pdfrwt>
<totfact> 0.10438881E+04</totfact>
</mgrwt>
</event>
<event>
 5    1  0.3276024E-002  0.1249970E+03  0.7818608E-02  0.1235074E+00
          4   -1    0    0  501    0  0.00000000000E+00  0.00000000000E+00  0.22463411329E+02  0.22499283289E+02  0.12700000000E+01 0.  1.
         -4   -1    0    0    0  501 -0.00000000000E+00 -0.00000000000E+00 -0.17370859151E+03  0.17371323399E+03  0.12700000000E+01 0.  1.
         25    2    1    2    0    0  0.00000000000E+00  0.00000000000E+00 -0.15124518018E+03  0.19621251728E+03  0.12499698960E+03 0.  0.
    9000005    1    3    3    0    0  0.75469855723E+01 -0.30785973705E+02 -0.16016035566E+03  0.16326993812E+03  0.10000000000E+01 0.  0.
    9000005    1    3    3    0    0 -0.75469855723E+01  0.30785973705E+02  0.89151754783E+01  0.32942579164E+02  0.10000000000E+01 0.  0.
<mgrwt>
<rscale>  0 0.12499699E+03</rscale>
<asrwt>0</asrwt>
<pdfrwt beam="1">  1        4 0.34590260E-02 0.12499699E+03</pdfrwt>
<pdfrwt beam="2">  1       -4 0.26727514E-01 0.12499699E+03</pdfrwt>
<totfact> 0.90783570E+03</totfact>
</mgrwt>
</event>
<event>
 5    1  0.3276024E-002  0.1249984E+03  0.7818608E-02  0.1235072E+00
         -4   -1    0    0    0  501 -0.00000000000E+00  0.00000000000E+00  0.75037680008E+02  0.75048426506E+02  0.12700000000E+01 0.  1.
          4   -1    0    0  501    0  0.00000000000E+00 -0.00000000000E+00 -0.52033599780E+02  0.52049096112E+02  0.12700000000E+01 0.  1.
         25    2    1    2    0    0  0.00000000000E+00  0.00000000000E+00  0.23004080228E+02  0.12709752262E+03  0.12499837018E+03 0.  0.
    9000005    1    3    3    0    0  0.52157223290E+01  0.23202339481E+02  0.70261756292E+02  0.74184005783E+02  0.10000000000E+01 0.  0.
    9000005    1    3    3    0    0 -0.52157223290E+01 -0.23202339481E+02 -0.47257676064E+02  0.52913516834E+02  0.10000000000E+01 0.  0.
<mgrwt>
<rscale>  0 0.12499837E+03</rscale>
<asrwt>0</asrwt>
<pdfrwt beam="2">  1        4 0.80071879E-02 0.12499837E+03</pdfrwt>
<pdfrwt beam="1">  1       -4 0.11546277E-01 0.12499837E+03</pdfrwt>
<totfact> 0.10407411E+04</totfact>
</mgrwt>
</event>
<event>
 5    1  0.3276024E-002  0.1249977E+03  0.7818608E-02  0.1235073E+00
          4   -1    0    0  501    0  0.00000000000E+00  0.00000000000E+00  0.73496949956E+03  0.73497059681E+03  0.12700000000E+01 0.  1.
         -4   -1    0    0    0  501 -0.00000000000E+00 -0.00000000000E+00 -0.52376626462E+01  0.53894350349E+01  0.12700000000E+01 0.  1.
         25    2    1    2    0    0  0.00000000000E+00  0.00000000000E+00  0.72973183691E+03  0.74036003185E+03  0.12499769180E+03 0.  0.
    9000005    1    3    3    0    0  0.25569665406E+02  0.12056625163E+02  0.69495959519E+03  0.69553505228E+03  0.10000000000E+01 0.  0.
    9000005    1    3    3    0    0 -0.25569665406E+02 -0.12056625163E+02  0.34772241724E+02  0.44824979574E+02  0.10000000000E+01 0.  0.
<mgrwt>
<rscale>  0 0.12499769E+03</rscale>
<asrwt>0</asrwt>
<pdfrwt beam="1">  1        4 0.11308401E+00 0.12499769E+03</pdfrwt>
<pdfrwt beam="2">  1       -4 0.81755331E-03 0.12499769E+03</pdfrwt>
<totfact> 0.41041579E+03</totfact>
</mgrwt>
</event>
<event>
 5    1  0.3276024E-002  0.1249991E+03  0.7818608E-02  0.1235071E+00
         -4   -1    0    0    0  501 -0.00000000000E+00  0.00000000000E+00  0.10642716170E+02  0.10718223150E+02  0.12700000000E+01 0. -1.
          4   -1    0    0  501    0  0.00000000000E+00 -0.00000000000E+00 -0.36565596744E+03  0.36565817292E+03  0.12700000000E+01 0. -1.
         25    2    1    2    0    0  0.00000000000E+00  0.00000000000E+00 -0.35501325127E+03  0.37637639607E+03  0.12499913177E+03 0.  0.
    9000005    1    3    3    0    0  0.38651271157E+02 -0.39194189943E+02 -0.26657875910E+03  0.27220459234E+03  0.10000000000E+01 0.  0.
    9000005    1    3    3    0    0 -0.38651271157E+02  0.39194189943E+02 -0.88434492166E+02  0.10417180373E+03  0.10000000000E+01 0.  0.
<mgrwt>
<rscale>  0 0.12499913E+03</rscale>
<asrwt>0</asrwt>
<pdfrwt beam="2">  1        4 0.56260732E-01 0.12499913E+03</pdfrwt>
<pdfrwt beam="1">  1       -4 0.16433191E-02 0.12499913E+03</pdfrwt>
<totfact> 0.66918370E+03</totfact>
</mgrwt>
</event>
<event>
 5    1  0.3276024E-002  0.1250102E+03  0.7818608E-02  0.1235053E+00
         -4   -1    0    0    0  501 -0.00000000000E+00  0.00000000000E+00  0.53026248022E+02  0.53041454348E+02  0.12700000000E+01 0. -1.
          4   -1    0    0  501    0  0.00000000000E+00 -0.00000000000E+00 -0.73647094406E+02  0.73658043786E+02  0.12700000000E+01 0. -1.
         25    2    1    2    0    0  0.00000000000E+00  0.00000000000E+00 -0.20620846384E+02  0.12669949813E+03  0.12501017367E+03 0.  0.
    9000005    1    3    3    0    0  0.29597694321E+01  0.44667953911E+00  0.52958526128E+02  0.53052476355E+02  0.10000000000E+01 0.  0.
    9000005    1    3    3    0    0 -0.29597694321E+01 -0.44667953911E+00 -0.73579372512E+02  0.73647021779E+02  0.10000000000E+01 0.  0.
<mgrwt>
<rscale>  0 0.12501017E+03</rscale>
<asrwt>0</asrwt>
<pdfrwt beam="2">  1        4 0.11332334E-01 0.12501017E+03</pdfrwt>
<pdfrwt beam="1">  1       -4 0.81598963E-02 0.12501017E+03</pdfrwt>
<totfact> 0.10413290E+04</totfact>
</mgrwt>
</event>
<event>
 5    1  0.3276024E-002  0.1250003E+03  0.7818608E-02  0.1235069E+00
          4   -1    0    0  501    0  0.00000000000E+00  0.00000000000E+00  0.30362403869E+01  0.32911480804E+01  0.12700000000E+01 0. -1.
         -4   -1    0    0    0  501 -0.00000000000E+00 -0.00000000000E+00 -0.12344629286E+04  0.12344635819E+04  0.12700000000E+01 0. -1.
         25    2    1    2    0    0  0.00000000000E+00  0.00000000000E+00 -0.12314266882E+04  0.12377547300E+04  0.12500033238E+03 0.  0.
    9000005    1    3    3    0    0 -0.31903414345E+02 -0.10769445542E+02 -0.11370015373E+04  0.11375004636E+04  0.10000000000E+01 0.  0.
    9000005    1    3    3    0    0  0.31903414345E+02  0.10769445542E+02 -0.94425150918E+02  0.10025426639E+03  0.10000000000E+01 0.  0.
<mgrwt>
<rscale>  0 0.12500033E+03</rscale>
<asrwt>0</asrwt>
<pdfrwt beam="1">  1        4 0.48677343E-03 0.12500033E+03</pdfrwt>
<pdfrwt beam="2">  1       -4 0.18993665E+00 0.12500033E+03</pdfrwt>
<totfact> 0.23745248E+03</totfact>
</mgrwt>
</event>
<event>
 5    1  0.3276024E-002  0.1249988E+03  0.7818608E-02  0.1235071E+00
          4   -1    0    0  501    0  0.00000000000E+00  0.00000000000E+00  0.25742093389E+02  0.25773402415E+02  0.12700000000E+01 0.  1.
         -4   -1    0    0    0  501 -0.00000000000E+00 -0.00000000000E+00 -0.15161661195E+03  0.15162193086E+03  0.12700000000E+01 0.  1.
         25    2    1    2    0    0  0.00000000000E+00  0.00000000000E+00 -0.12587451856E+03  0.17739533328E+03  0.12499883938E+03 0.  0.
    9000005    1    3    3    0    0  0.26893100740E+02  0.28767947388E+02 -0.13179791453E+03  0.13755916523E+03  0.10000000000E+01 0.  0.
    9000005    1    3    3    0    0 -0.26893100740E+02 -0.28767947388E+02  0.59233959766E+01  0.39836168042E+02  0.10000000000E+01 0.  0.
<mgrwt>
<rscale>  0 0.12499884E+03</rscale>
<asrwt>0</asrwt>
<pdfrwt beam="1">  1        4 0.39631397E-02 0.12499884E+03</pdfrwt>
<pdfrwt beam="2">  1       -4 0.23328450E-01 0.12499884E+03</pdfrwt>
<totfact> 0.94090413E+03</totfact>
</mgrwt>
</event>
<event>
 5    1  0.3276024E-002  0.1250022E+03  0.7818608E-02  0.1235066E+00
         -4   -1    0    0    0  501 -0.00000000000E+00  0.00000000000E+00  0.49297967531E+03  0.49298131117E+03  0.12700000000E+01 0.  1.
          4   -1    0    0  501    0  0.00000000000E+00 -0.00000000000E+00 -0.78714851520E+01  0.79732790305E+01  0.12700000000E+01 0.  1.
         25    2    1    2    0    0  0.00000000000E+00  0.00000000000E+00  0.48510819015E+03  0.50095459020E+03  0.12500218114E+03 0.  0.
    9000005    1    3    3    0    0 -0.14658004550E+02 -0.52941027591E+02  0.12314630226E+03  0.13484665832E+03  0.10000000000E+01 0.  0.
    9000005    1    3    3    0    0  0.14658004550E+02  0.52941027591E+02  0.36196188789E+03  0.36610793188E+03  0.10000000000E+01 0.  0.
<mgrwt>
<rscale>  0 0.12500218E+03</rscale>
<asrwt>0</asrwt>
<pdfrwt beam="2">  1        4 0.12189540E-02 0.12500218E+03</pdfrwt>
<pdfrwt beam="1">  1       -4 0.75850973E-01 0.12500218E+03</pdfrwt>
<totfact> 0.55787706E+03</totfact>
</mgrwt>
</event>
<event>
 5    1  0.3276024E-002  0.1249956E+03  0.7818608E-02  0.1235076E+00
          4   -1    0    0  501    0  0.00000000000E+00  0.00000000000E+00  0.27032630660E+03  0.27032928983E+03  0.12700000000E+01 0.  1.
         -4   -1    0    0    0  501 -0.00000000000E+00 -0.00000000000E+00 -0.14418127337E+02  0.14473952325E+02  0.12700000000E+01 0.  1.
         25    2    1    2    0    0  0.00000000000E+00  0.00000000000E+00  0.25590817926E+03  0.28480324216E+03  0.12499556203E+03 0.  0.
    9000005    1    3    3    0    0  0.39934740864E+02  0.36877667071E+02  0.19819076840E+03  0.20551235129E+03  0.10000000000E+01 0.  0.
    9000005    1    3    3    0    0 -0.39934740864E+02 -0.36877667071E+02  0.57717410869E+02  0.79290890864E+02  0.10000000000E+01 0.  0.
<mgrwt>
<rscale>  0 0.12499556E+03</rscale>
<asrwt>0</asrwt>
<pdfrwt beam="1">  1        4 0.41593182E-01 0.12499556E+03</pdfrwt>
<pdfrwt beam="2">  1       -4 0.22226974E-02 0.12499556E+03</pdfrwt>
<totfact> 0.77553160E+03</totfact>
</mgrwt>
</event>
<event>
 5    1  0.3276024E-002  0.1250002E+03  0.7818608E-02  0.1235069E+00
         -4   -1    0    0    0  501 -0.00000000000E+00  0.00000000000E+00  0.70846259178E+02  0.70857641363E+02  0.12700000000E+01 0. -1.
          4   -1    0    0  501    0  0.00000000000E+00 -0.00000000000E+00 -0.55114014689E+02  0.55128645142E+02  0.12700000000E+01 0. -1.
         25    2    1    2    0    0  0.00000000000E+00  0.00000000000E+00  0.15732244489E+02  0.12598628650E+03  0.12500016348E+03 0.  0.
    9000005    1    3    3    0    0  0.32306954977E+02 -0.38924169674E+02 -0.29117084615E+02  0.58374951317E+02  0.10000000000E+01 0.  0.
    9000005    1    3    3    0    0 -0.32306954977E+02  0.38924169674E+02  0.44849329104E+02  0.67611335188E+02  0.10000000000E+01 0.  0.
<mgrwt>
<rscale>  0 0.12500016E+03</rscale>
<asrwt>0</asrwt>
<pdfrwt beam="2">  1        4 0.84810802E-02 0.12500016E+03</pdfrwt>
<pdfrwt beam="1">  1       -4 0.10901425E-01 0.12500016E+03</pdfrwt>
<totfact> 0.10431219E+04</totfact>
</mgrwt>
</event>
<event>
 4    1  0.3276024E-002  0.1247147E+03  0.7818608E-02  0.1235516E+00
          4   -1    0    0  501    0  0.00000000000E+00  0.00000000000E+00  0.92198105032E+02  0.92206851543E+02  0.12700000000E+01 0.  1.
         -4   -1    0    0    0  501 -0.00000000000E+00 -0.00000000000E+00 -0.42154547208E+02  0.42173673664E+02  0.12700000000E+01 0.  1.
    9000005    1    1    2    0    0 -0.40108918693E+02 -0.47106694810E+02  0.33345510509E+02  0.70290035751E+02  0.10000000000E+01 0.  0.
    9000005    1    1    2    0    0  0.40108918693E+02  0.47106694810E+02  0.16698047314E+02  0.64090489457E+02  0.10000000000E+01 0.  0.
<mgrwt>
<rscale>  0 0.12471475E+03</rscale>
<asrwt>0</asrwt>
<pdfrwt beam="1">  1        4 0.14186468E-01 0.12471475E+03</pdfrwt>
<pdfrwt beam="2">  1       -4 0.64874590E-02 0.12471475E+03</pdfrwt>
<totfact> 0.10317376E+04</totfact>
</mgrwt>
</event>
<event>
 5    1  0.3276024E-002  0.1249981E+03  0.7818608E-02  0.1235072E+00
          4   -1    0    0  501    0  0.00000000000E+00  0.00000000000E+00  0.73382917686E+02  0.73393906478E+02  0.12700000000E+01 0.  1.
         -4   -1    0    0    0  501 -0.00000000000E+00 -0.00000000000E+00 -0.53206888459E+02  0.53222043173E+02  0.12700000000E+01 0.  1.
         25    2    1    2    0    0  0.00000000000E+00  0.00000000000E+00  0.20176029227E+02  0.12661594965E+03  0.12499810619E+03 0.  0.
    9000005    1    3    3    0    0 -0.18083901354E+02  0.10879675909E+02 -0.49492810607E+02  0.53813874957E+02  0.10000000000E+01 0.  0.
    9000005    1    3    3    0    0  0.18083901354E+02 -0.10879675909E+02  0.69668839833E+02  0.72802074695E+02  0.10000000000E+01 0.  0.
<mgrwt>
<rscale>  0 0.12499811E+03</rscale>
<asrwt>0</asrwt>
<pdfrwt beam="1">  1        4 0.11291691E-01 0.12499811E+03</pdfrwt>
<pdfrwt beam="2">  1       -4 0.81876862E-02 0.12499811E+03</pdfrwt>
<totfact> 0.10417946E+04</totfact>
</mgrwt>
</event>
<event>
 5    1  0.3276024E-002  0.1249997E+03  0.7818608E-02  0.1235070E+00
          4   -1    0    0  501    0  0.00000000000E+00  0.00000000000E+00  0.14717972617E+03  0.14718520542E+03  0.12700000000E+01 0.  1.
         -4   -1    0    0    0  501 -0.00000000000E+00 -0.00000000000E+00 -0.26519396330E+02  0.26549788732E+02  0.12700000000E+01 0.  1.
         25    2    1    2    0    0  0.00000000000E+00  0.00000000000E+00  0.12066032984E+03  0.17373499415E+03  0.12499973199E+03 0.  0.
    9000005    1    3    3    0    0 -0.58221773996E+02  0.27498725076E+01  0.29006986451E+02  0.65113301475E+02  0.10000000000E+01 0.  0.
    9000005    1    3    3    0    0  0.58221773996E+02 -0.27498725076E+01  0.91653343387E+02  0.10862169268E+03  0.10000000000E+01 0.  0.
<mgrwt>
<rscale>  0 0.12499973E+03</rscale>
<asrwt>0</asrwt>
<pdfrwt beam="1">  1        4 0.22645795E-01 0.12499973E+03</pdfrwt>
<pdfrwt beam="2">  1       -4 0.40826663E-02 0.12499973E+03</pdfrwt>
<totfact> 0.94757604E+03</totfact>
</mgrwt>
</event>
<event>
 5    1  0.3276024E-002  0.1249970E+03  0.7818608E-02  0.1235074E+00
          4   -1    0    0  501    0  0.00000000000E+00  0.00000000000E+00  0.46641462818E+02  0.46658750024E+02  0.12700000000E+01 0.  1.
         -4   -1    0    0    0  501 -0.00000000000E+00 -0.00000000000E+00 -0.83708909805E+02  0.83718543232E+02  0.12700000000E+01 0.  1.
         25    2    1    2    0    0  0.00000000000E+00  0.00000000000E+00 -0.37067446987E+02  0.13037729326E+03  0.12499697185E+03 0.  0.
    9000005    1    3    3    0    0  0.48437449194E+02  0.38141774852E+02 -0.29174775996E+02  0.68213994368E+02  0.10000000000E+01 0.  0.
    9000005    1    3    3    0    0 -0.48437449194E+02 -0.38141774852E+02 -0.78926709913E+01  0.62163298888E+02  0.10000000000E+01 0.  0.
<mgrwt>
<rscale>  0 0.12499697E+03</rscale>
<asrwt>0</asrwt>
<pdfrwt beam="1">  1        4 0.71776805E-02 0.12499697E+03</pdfrwt>
<pdfrwt beam="2">  1       -4 0.12880365E-01 0.12499697E+03</pdfrwt>
<totfact> 0.10337150E+04</totfact>
</mgrwt>
</event>
<event>
 5    1  0.3276024E-002  0.1250068E+03  0.7818608E-02  0.1235059E+00
          4   -1    0    0  501    0  0.00000000000E+00  0.00000000000E+00  0.24573813003E+03  0.24574141176E+03  0.12700000000E+01 0.  1.
         -4   -1    0    0    0  501 -0.00000000000E+00 -0.00000000000E+00 -0.15868959046E+02  0.15919697271E+02  0.12700000000E+01 0.  1.
         25    2    1    2    0    0  0.00000000000E+00  0.00000000000E+00  0.22986917099E+03  0.26166110903E+03  0.12500680065E+03 0.  0.
    9000005    1    3    3    0    0 -0.46502656623E+02  0.19407481917E+02  0.19231209464E+03  0.19880666280E+03  0.10000000000E+01 0.  0.
    9000005    1    3    3    0    0  0.46502656623E+02 -0.19407481917E+02  0.37557076345E+02  0.62854446230E+02  0.10000000000E+01 0.  0.
<mgrwt>
<rscale>  0 0.12500680E+03</rscale>
<asrwt>0</asrwt>
<pdfrwt beam="1">  1        4 0.37810023E-01 0.12500680E+03</pdfrwt>
<pdfrwt beam="2">  1       -4 0.24455336E-02 0.12500680E+03</pdfrwt>
<totfact> 0.80661299E+03</totfact>
</mgrwt>
</event>
<event>
 5    1  0.3276024E-002  0.1249924E+03  0.7818608E-02  0.1235081E+00
          4   -1    0    0  501    0  0.00000000000E+00  0.00000000000E+00  0.19236332078E+03  0.19236751306E+03  0.12700000000E+01 0.  1.
         -4   -1    0    0    0  501 -0.00000000000E+00 -0.00000000000E+00 -0.20279883792E+02  0.20319610887E+02  0.12700000000E+01 0.  1.
         25    2    1    2    0    0  0.00000000000E+00  0.00000000000E+00  0.17208343699E+03  0.21268712395E+03  0.12499241340E+03 0.  0.
    9000005    1    3    3    0    0  0.59533228316E+02 -0.41429679905E+00  0.11834519735E+03  0.13248004624E+03  0.10000000000E+01 0.  0.
    9000005    1    3    3    0    0 -0.59533228316E+02  0.41429679905E+00  0.53738239639E+02  0.80207077712E+02  0.10000000000E+01 0.  0.
<mgrwt>
<rscale>  0 0.12499241E+03</rscale>
<asrwt>0</asrwt>
<pdfrwt beam="1">  1        4 0.29597736E-01 0.12499241E+03</pdfrwt>
<pdfrwt beam="2">  1       -4 0.31233605E-02 0.12499241E+03</pdfrwt>
<totfact> 0.88053839E+03</totfact>
</mgrwt>
</event>
<event>
 5    1  0.3276024E-002  0.1250008E+03  0.7818608E-02  0.1235068E+00
          4   -1    0    0  501    0  0.00000000000E+00  0.00000000000E+00  0.25419221173E+02  0.25450927391E+02  0.12700000000E+01 0. -1.
         -4   -1    0    0    0  501 -0.00000000000E+00 -0.00000000000E+00 -0.15354490094E+03  0.15355015306E+03  0.12700000000E+01 0. -1.
         25    2    1    2    0    0  0.00000000000E+00  0.00000000000E+00 -0.12812567977E+03  0.17900108046E+03  0.12500078795E+03 0.  0.
    9000005    1    3    3    0    0 -0.60982141086E+02 -0.15016679840E+00 -0.83616592270E+02  0.10349675640E+03  0.10000000000E+01 0.  0.
    9000005    1    3    3    0    0  0.60982141086E+02  0.15016679840E+00 -0.44509087501E+02  0.75504324060E+02  0.10000000000E+01 0.  0.
<mgrwt>
<rscale>  0 0.12500079E+03</rscale>
<asrwt>0</asrwt>
<pdfrwt beam="1">  1        4 0.39134924E-02 0.12500079E+03</pdfrwt>
<pdfrwt beam="2">  1       -4 0.23625135E-01 0.12500079E+03</pdfrwt>
<totfact> 0.93795464E+03</totfact>
</mgrwt>
</event>
<event>
 5    1  0.3276024E-002  0.1250155E+03  0.7818608E-02  0.1235045E+00
          4   -1    0    0  501    0  0.00000000000E+00  0.00000000000E+00  0.52022870454E+02  0.52038369981E+02  0.12700000000E+01 0. -1.
         -4   -1    0    0    0  501 -0.00000000000E+00 -0.00000000000E+00 -0.75073732967E+02  0.75084474304E+02  0.12700000000E+01 0. -1.
         25    2    1    2    0    0  0.00000000000E+00  0.00000000000E+00 -0.23050862513E+02  0.12712284429E+03  0.12501550015E+03 0.  0.
    9000005    1    3    3    0    0  0.86022271913E+00  0.54662053343E+02 -0.42326937054E+02  0.69146580965E+02  0.10000000000E+01 0.  0.
    9000005    1    3    3    0    0 -0.86022271913E+00 -0.54662053343E+02  0.19276074541E+02  0.57976263320E+02  0.10000000000E+01 0.  0.
<mgrwt>
<rscale>  0 0.12501550E+03</rscale>
<asrwt>0</asrwt>
<pdfrwt beam="1">  1        4 0.80055370E-02 0.12501550E+03</pdfrwt>
<pdfrwt beam="2">  1       -4 0.11551824E-01 0.12501550E+03</pdfrwt>
<totfact> 0.10402838E+04</totfact>
</mgrwt>
</event>
<event>
 5    1  0.3276024E-002  0.1249944E+03  0.7818608E-02  0.1235078E+00
         -4   -1    0    0    0  501 -0.00000000000E+00  0.00000000000E+00  0.14838930368E+02  0.14893178118E+02  0.12700000000E+01 0. -1.
          4   -1    0    0  501    0  0.00000000000E+00 -0.00000000000E+00 -0.26268368946E+03  0.26268675948E+03  0.12700000000E+01 0. -1.
         25    2    1    2    0    0  0.00000000000E+00  0.00000000000E+00 -0.24784475909E+03  0.27757993760E+03  0.12499438847E+03 0.  0.
    9000005    1    3    3    0    0  0.65216278691E+01 -0.23220072495E+02  0.40969442069E+01  0.24484451159E+02  0.10000000000E+01 0.  0.
    9000005    1    3    3    0    0 -0.65216278691E+01  0.23220072495E+02 -0.25194170329E+03  0.25309548644E+03  0.10000000000E+01 0.  0.
<mgrwt>
<rscale>  0 0.12499439E+03</rscale>
<asrwt>0</asrwt>
<pdfrwt beam="2">  1        4 0.40417281E-01 0.12499439E+03</pdfrwt>
<pdfrwt beam="1">  1       -4 0.22873216E-02 0.12499439E+03</pdfrwt>
<totfact> 0.78509881E+03</totfact>
</mgrwt>
</event>
<event>
 5    1  0.3276024E-002  0.1249971E+03  0.7818608E-02  0.1235074E+00
          4   -1    0    0  501    0  0.00000000000E+00  0.00000000000E+00  0.11246919775E+02  0.11318396725E+02  0.12700000000E+01 0.  1.
         -4   -1    0    0    0  501 -0.00000000000E+00 -0.00000000000E+00 -0.34612827185E+03  0.34613060176E+03  0.12700000000E+01 0.  1.
         25    2    1    2    0    0  0.00000000000E+00  0.00000000000E+00 -0.33488135208E+03  0.35744899848E+03  0.12499706616E+03 0.  0.
    9000005    1    3    3    0    0 -0.25165518521E+02  0.64082956597E+01 -0.48998796770E+01  0.26445763300E+02  0.10000000000E+01 0.  0.
    9000005    1    3    3    0    0  0.25165518521E+02 -0.64082956597E+01 -0.32998147240E+03  0.33100323518E+03  0.10000000000E+01 0.  0.
<mgrwt>
<rscale>  0 0.12499707E+03</rscale>
<asrwt>0</asrwt>
<pdfrwt beam="1">  1        4 0.17359731E-02 0.12499707E+03</pdfrwt>
<pdfrwt beam="2">  1       -4 0.53256173E-01 0.12499707E+03</pdfrwt>
<totfact> 0.68917251E+03</totfact>
</mgrwt>
</event>
<event>
 5    1  0.3276024E-002  0.1250091E+03  0.7818608E-02  0.1235055E+00
          4   -1    0    0  501    0  0.00000000000E+00  0.00000000000E+00  0.31547436108E+02  0.31572988852E+02  0.12700000000E+01 0. -1.
         -4   -1    0    0    0  501 -0.00000000000E+00 -0.00000000000E+00 -0.12376053996E+03  0.12376705601E+03  0.12700000000E+01 0. -1.
         25    2    1    2    0    0  0.00000000000E+00  0.00000000000E+00 -0.92213103856E+02  0.15534004486E+03  0.12500909172E+03 0.  0.
    9000005    1    3    3    0    0  0.87592185849E+00 -0.53010651494E+02 -0.49884189961E+01  0.53261437598E+02  0.10000000000E+01 0.  0.
    9000005    1    3    3    0    0 -0.87592185849E+00  0.53010651494E+02 -0.87224684860E+02  0.10207860726E+03  0.10000000000E+01 0.  0.
<mgrwt>
<rscale>  0 0.12500909E+03</rscale>
<asrwt>0</asrwt>
<pdfrwt beam="1">  1        4 0.48559186E-02 0.12500909E+03</pdfrwt>
<pdfrwt beam="2">  1       -4 0.19042550E-01 0.12500909E+03</pdfrwt>
<totfact> 0.98228700E+03</totfact>
</mgrwt>
</event>
<event>
 5    1  0.3276024E-002  0.1250042E+03  0.7818608E-02  0.1235063E+00
         -4   -1    0    0    0  501 -0.00000000000E+00  0.00000000000E+00  0.13508337290E+03  0.13508934278E+03  0.12700000000E+01 0.  1.
          4   -1    0    0  501    0  0.00000000000E+00 -0.00000000000E+00 -0.28898710060E+02  0.28926602689E+02  0.12700000000E+01 0.  1.
         25    2    1    2    0    0  0.00000000000E+00  0.00000000000E+00  0.10618466284E+03  0.16401594547E+03  0.12500419092E+03 0.  0.
    9000005    1    3    3    0    0  0.52185738476E+02 -0.11600437930E+02  0.95559887511E+02  0.10950166009E+03  0.10000000000E+01 0.  0.
    9000005    1    3    3    0    0 -0.52185738476E+02  0.11600437930E+02  0.10624775327E+02  0.54514285387E+02  0.10000000000E+01 0.  0.
<mgrwt>
<rscale>  0 0.12500419E+03</rscale>
<asrwt>0</asrwt>
<pdfrwt beam="2">  1        4 0.44485602E-02 0.12500419E+03</pdfrwt>
<pdfrwt beam="1">  1       -4 0.20784662E-01 0.12500419E+03</pdfrwt>
<totfact> 0.96564989E+03</totfact>
</mgrwt>
</event>
<event>
 5    1  0.3276024E-002  0.1249974E+03  0.7818608E-02  0.1235073E+00
         -4   -1    0    0    0  501 -0.00000000000E+00  0.00000000000E+00  0.12557818971E+02  0.12621874556E+02  0.12700000000E+01 0. -1.
          4   -1    0    0  501    0  0.00000000000E+00 -0.00000000000E+00 -0.31019169212E+03  0.31019429195E+03  0.12700000000E+01 0. -1.
         25    2    1    2    0    0  0.00000000000E+00  0.00000000000E+00 -0.29763387315E+03  0.32281616651E+03  0.12499741963E+03 0.  0.
    9000005    1    3    3    0    0  0.17819265287E+02 -0.85351972068E+01 -0.30192538560E+03  0.30257282475E+03  0.10000000000E+01 0.  0.
    9000005    1    3    3    0    0 -0.17819265287E+02  0.85351972068E+01  0.42915124469E+01  0.20243341765E+02  0.10000000000E+01 0.  0.
<mgrwt>
<rscale>  0 0.12499742E+03</rscale>
<asrwt>0</asrwt>
<pdfrwt beam="2">  1        4 0.47726920E-01 0.12499742E+03</pdfrwt>
<pdfrwt beam="1">  1       -4 0.19370997E-02 0.12499742E+03</pdfrwt>
<totfact> 0.72826594E+03</totfact>
</mgrwt>
</event>
<event>
 5    1  0.3276024E-002  0.1249970E+03  0.7818608E-02  0.1235074E+00
         -4   -1    0    0    0  501 -0.00000000000E+00  0.00000000000E+00  0.17112336550E+02  0.17159398655E+02  0.12700000000E+01 0.  1.
          4   -1    0    0  501    0  0.00000000000E+00 -0.00000000000E+00 -0.22789757760E+03  0.22790111622E+03  0.12700000000E+01 0.  1.
         25    2    1    2    0    0  0.00000000000E+00  0.00000000000E+00 -0.21078524105E+03  0.24506051488E+03  0.12499695240E+03 0.  0.
    9000005    1    3    3    0    0 -0.10095448509E+02  0.17290166477E+02 -0.22144868484E+03  0.22235419482E+03  0.10000000000E+01 0.  0.
    9000005    1    3    3    0    0  0.10095448509E+02 -0.17290166477E+02  0.10663443786E+02  0.22706320062E+02  0.10000000000E+01 0.  0.
<mgrwt>
<rscale>  0 0.12499695E+03</rscale>
<asrwt>0</asrwt>
<pdfrwt beam="2">  1        4 0.35065056E-01 0.12499695E+03</pdfrwt>
<pdfrwt beam="1">  1       -4 0.26365597E-02 0.12499695E+03</pdfrwt>
<totfact> 0.83055061E+03</totfact>
</mgrwt>
</event>
<event>
 5    1  0.3276024E-002  0.1249590E+03  0.7818608E-02  0.1235133E+00
         -4   -1    0    0    0  501 -0.00000000000E+00  0.00000000000E+00  0.13191961716E+02  0.13252952649E+02  0.12700000000E+01 0. -1.
          4   -1    0    0  501    0  0.00000000000E+00 -0.00000000000E+00 -0.29516935514E+03  0.29517208729E+03  0.12700000000E+01 0. -1.
         25    2    1    2    0    0  0.00000000000E+00  0.00000000000E+00 -0.28197739343E+03  0.30842503994E+03  0.12495901271E+03 0.  0.
    9000005    1    3    3    0    0 -0.32716918875E+02  0.49389376384E+02 -0.92059502787E+02  0.10947903605E+03  0.10000000000E+01 0.  0.
    9000005    1    3    3    0    0  0.32716918875E+02 -0.49389376384E+02 -0.18991789064E+03  0.19894600390E+03  0.10000000000E+01 0.  0.
<mgrwt>
<rscale>  0 0.12495901E+03</rscale>
<asrwt>0</asrwt>
<pdfrwt beam="2">  1        4 0.45415567E-01 0.12495901E+03</pdfrwt>
<pdfrwt beam="1">  1       -4 0.20344346E-02 0.12495901E+03</pdfrwt>
<totfact> 0.74621868E+03</totfact>
</mgrwt>
</event>
<event>
 5    1  0.3276024E-002  0.1249972E+03  0.7818608E-02  0.1235074E+00
         -4   -1    0    0    0  501 -0.00000000000E+00  0.00000000000E+00  0.46675596431E+02  0.46692871000E+02  0.12700000000E+01 0.  1.
          4   -1    0    0  501    0  0.00000000000E+00 -0.00000000000E+00 -0.83647957108E+02  0.83657597553E+02  0.12700000000E+01 0.  1.
         25    2    1    2    0    0  0.00000000000E+00  0.00000000000E+00 -0.36972360677E+02  0.13035046855E+03  0.12499715676E+03 0.  0.
    9000005    1    3    3    0    0 -0.48440888429E+02  0.39445173123E+02 -0.16794694573E+02  0.64695464449E+02  0.10000000000E+01 0.  0.
    9000005    1    3    3    0    0  0.48440888429E+02 -0.39445173123E+02 -0.20177666104E+02  0.65655004104E+02  0.10000000000E+01 0.  0.
<mgrwt>
<rscale>  0 0.12499716E+03</rscale>
<asrwt>0</asrwt>
<pdfrwt beam="2">  1        4 0.12870987E-01 0.12499716E+03</pdfrwt>
<pdfrwt beam="1">  1       -4 0.71829314E-02 0.12499716E+03</pdfrwt>
<totfact> 0.10337679E+04</totfact>
</mgrwt>
</event>
<event>
 5    1  0.3276024E-002  0.1249986E+03  0.7818608E-02  0.1235071E+00
         -4   -1    0    0    0  501 -0.00000000000E+00  0.00000000000E+00  0.48350823335E+02  0.48367499596E+02  0.12700000000E+01 0. -1.
          4   -1    0    0  501    0  0.00000000000E+00 -0.00000000000E+00 -0.80752302252E+02  0.80762288346E+02  0.12700000000E+01 0. -1.
         25    2    1    2    0    0  0.00000000000E+00  0.00000000000E+00 -0.32401478917E+02  0.12912978794E+03  0.12499858518E+03 0.  0.
    9000005    1    3    3    0    0  0.54033605151E+01 -0.10550744978E+02  0.47183819572E+02  0.48660326282E+02  0.10000000000E+01 0.  0.
    9000005    1    3    3    0    0 -0.54033605151E+01  0.10550744978E+02 -0.79585298489E+02  0.80469461661E+02  0.10000000000E+01 0.  0.
<mgrwt>
<rscale>  0 0.12499859E+03</rscale>
<asrwt>0</asrwt>
<pdfrwt beam="2">  1        4 0.12425482E-01 0.12499859E+03</pdfrwt>
<pdfrwt beam="1">  1       -4 0.74406391E-02 0.12499859E+03</pdfrwt>
<totfact> 0.10363490E+04</totfact>
</mgrwt>
</event>
<event>
 5    1  0.3276024E-002  0.1249982E+03  0.7818608E-02  0.1235072E+00
         -4   -1    0    0    0  501 -0.00000000000E+00  0.00000000000E+00  0.13447175879E+04  0.13447181876E+04  0.12700000000E+01 0. -1.
          4   -1    0    0  501    0  0.00000000000E+00 -0.00000000000E+00 -0.27653609980E+01  0.30430447662E+01  0.12700000000E+01 0. -1.
         25    2    1    2    0    0  0.00000000000E+00  0.00000000000E+00  0.13419522269E+04  0.13477612324E+04  0.12499824090E+03 0.  0.
    9000005    1    3    3    0    0  0.12302293355E+02  0.37534108861E+02  0.11931065726E+04  0.11937606332E+04  0.10000000000E+01 0.  0.
    9000005    1    3    3    0    0 -0.12302293355E+02 -0.37534108861E+02  0.14884565426E+03  0.15400059916E+03  0.10000000000E+01 0.  0.
<mgrwt>
<rscale>  0 0.12499824E+03</rscale>
<asrwt>0</asrwt>
<pdfrwt beam="2">  1        4 0.44684721E-03 0.12499824E+03</pdfrwt>
<pdfrwt beam="1">  1       -4 0.20690074E+00 0.12499824E+03</pdfrwt>
<totfact> 0.21129374E+03</totfact>
</mgrwt>
</event>
<event>
 5    1  0.3276024E-002  0.1249965E+03  0.7818608E-02  0.1235075E+00
         -4   -1    0    0    0  501 -0.00000000000E+00  0.00000000000E+00  0.50969381343E+02  0.50985201132E+02  0.12700000000E+01 0.  1.
          4   -1    0    0  501    0  0.00000000000E+00 -0.00000000000E+00 -0.76601841553E+02  0.76612368644E+02  0.12700000000E+01 0.  1.
         25    2    1    2    0    0  0.00000000000E+00  0.00000000000E+00 -0.25632460210E+02  0.12759756978E+03  0.12499646714E+03 0.  0.
    9000005    1    3    3    0    0  0.28670882394E+02  0.31786118467E+02 -0.59289999497E+02  0.73134676213E+02  0.10000000000E+01 0.  0.
    9000005    1    3    3    0    0 -0.28670882394E+02 -0.31786118467E+02  0.33657539287E+02  0.54462893563E+02  0.10000000000E+01 0.  0.
<mgrwt>
<rscale>  0 0.12499647E+03</rscale>
<asrwt>0</asrwt>
<pdfrwt beam="2">  1        4 0.11786925E-01 0.12499647E+03</pdfrwt>
<pdfrwt beam="1">  1       -4 0.78434699E-02 0.12499647E+03</pdfrwt>
<totfact> 0.10397017E+04</totfact>
</mgrwt>
</event>
<event>
 5    1  0.3276024E-002  0.1249964E+03  0.7818608E-02  0.1235075E+00
         -4   -1    0    0    0  501 -0.00000000000E+00  0.00000000000E+00  0.64700301519E+02  0.64712764712E+02  0.12700000000E+01 0. -1.
          4   -1    0    0  501    0  0.00000000000E+00 -0.00000000000E+00 -0.60346104555E+02  0.60359466822E+02  0.12700000000E+01 0. -1.
         25    2    1    2    0    0  0.00000000000E+00  0.00000000000E+00  0.43541969640E+01  0.12507223153E+03  0.12499641623E+03 0.  0.
    9000005    1    3    3    0    0  0.18027156487E+02 -0.19191236371E+02  0.58883723986E+02  0.64510269531E+02  0.10000000000E+01 0.  0.
    9000005    1    3    3    0    0 -0.18027156487E+02  0.19191236371E+02 -0.54529527022E+02  0.60561962003E+02  0.10000000000E+01 0.  0.
<mgrwt>
<rscale>  0 0.12499642E+03</rscale>
<asrwt>0</asrwt>
<pdfrwt beam="2">  1        4 0.92860027E-02 0.12499642E+03</pdfrwt>
<pdfrwt beam="1">  1       -4 0.99558791E-02 0.12499642E+03</pdfrwt>
<totfact> 0.10452140E+04</totfact>
</mgrwt>
</event>
<event>
 5    1  0.3276024E-002  0.1250033E+03  0.7818608E-02  0.1235064E+00
          4   -1    0    0  501    0  0.00000000000E+00  0.00000000000E+00  0.13126038288E+04  0.13126044432E+04  0.12700000000E+01 0. -1.
         -4   -1    0    0    0  501 -0.00000000000E+00 -0.00000000000E+00 -0.28399833143E+01  0.31110135367E+01  0.12700000000E+01 0. -1.
         25    2    1    2    0    0  0.00000000000E+00  0.00000000000E+00  0.13097638455E+04  0.13157154567E+04  0.12500332846E+03 0.  0.
    9000005    1    3    3    0    0 -0.19581002118E+01 -0.40981106935E+02  0.15871328633E+03  0.16393350036E+03  0.10000000000E+01 0.  0.
    9000005    1    3    3    0    0  0.19581002118E+01  0.40981106935E+02  0.11510505591E+04  0.11517819563E+04  0.10000000000E+01 0.  0.
<mgrwt>
<rscale>  0 0.12500333E+03</rscale>
<asrwt>0</asrwt>
<pdfrwt beam="1">  1        4 0.20196081E+00 0.12500333E+03</pdfrwt>
<pdfrwt beam="2">  1       -4 0.45781430E-03 0.12500333E+03</pdfrwt>
<totfact> 0.21858901E+03</totfact>
</mgrwt>
</event>
<event>
 5    1  0.3276024E-002  0.1249989E+03  0.7818608E-02  0.1235071E+00
         -4   -1    0    0    0  501 -0.00000000000E+00  0.00000000000E+00  0.11801020538E+03  0.11801703892E+03  0.12700000000E+01 0.  1.
          4   -1    0    0  501    0  0.00000000000E+00 -0.00000000000E+00 -0.33080380493E+02  0.33104750015E+02  0.12700000000E+01 0.  1.
         25    2    1    2    0    0  0.00000000000E+00  0.00000000000E+00  0.84929824892E+02  0.15112178893E+03  0.12499887973E+03 0.  0.
    9000005    1    3    3    0    0  0.46218859736E+00 -0.58898049762E+02  0.67708861012E+02  0.89747889912E+02  0.10000000000E+01 0.  0.
    9000005    1    3    3    0    0 -0.46218859736E+00  0.58898049762E+02  0.17220963880E+02  0.61373899020E+02  0.10000000000E+01 0.  0.
<mgrwt>
<rscale>  0 0.12499888E+03</rscale>
<asrwt>0</asrwt>
<pdfrwt beam="2">  1        4 0.50916895E-02 0.12499888E+03</pdfrwt>
<pdfrwt beam="1">  1       -4 0.18157816E-01 0.12499888E+03</pdfrwt>
<totfact> 0.99083053E+03</totfact>
</mgrwt>
</event>
<event>
 5    1  0.3276024E-002  0.1250003E+03  0.7818608E-02  0.1235069E+00
         -4   -1    0    0    0  501 -0.00000000000E+00  0.00000000000E+00  0.48890360267E+03  0.48890525218E+03  0.12700000000E+01 0.  1.
          4   -1    0    0  501    0  0.00000000000E+00 -0.00000000000E+00 -0.79377115949E+01  0.80386668897E+01  0.12700000000E+01 0.  1.
         25    2    1    2    0    0  0.00000000000E+00  0.00000000000E+00  0.48096589108E+03  0.49694391907E+03  0.12500028127E+03 0.  0.
    9000005    1    3    3    0    0 -0.44055388770E+02  0.31161212344E+02  0.11518275728E+03  0.12720049531E+03  0.10000000000E+01 0.  0.
    9000005    1    3    3    0    0  0.44055388770E+02 -0.31161212344E+02  0.36578313380E+03  0.36974342375E+03  0.10000000000E+01 0.  0.
<mgrwt>
<rscale>  0 0.12500028E+03</rscale>
<asrwt>0</asrwt>
<pdfrwt beam="2">  1        4 0.12290789E-02 0.12500028E+03</pdfrwt>
<pdfrwt beam="1">  1       -4 0.75223844E-01 0.12500028E+03</pdfrwt>
<totfact> 0.56101908E+03</totfact>
</mgrwt>
</event>
<event>
 5    1  0.3276024E-002  0.1249998E+03  0.7818608E-02  0.1235070E+00
          4   -1    0    0  501    0  0.00000000000E+00  0.00000000000E+00  0.75381743512E+01  0.76444079266E+01  0.12700000000E+01 0.  1.
         -4   -1    0    0    0  501 -0.00000000000E+00 -0.00000000000E+00 -0.51446108241E+03  0.51446264997E+03  0.12700000000E+01 0.  1.
         25    2    1    2    0    0  0.00000000000E+00  0.00000000000E+00 -0.50692290806E+03  0.52210705790E+03  0.12499978076E+03 0.  0.
    9000005    1    3    3    0    0 -0.80286899011E+01 -0.47722821943E+02 -0.88313694792E+02  0.10070867035E+03  0.10000000000E+01 0.  0.
    9000005    1    3    3    0    0  0.80286899011E+01  0.47722821943E+02 -0.41860921327E+03  0.42139838755E+03  0.10000000000E+01 0.  0.
<mgrwt>
<rscale>  0 0.12499978E+03</rscale>
<asrwt>0</asrwt>
<pdfrwt beam="1">  1        4 0.11680119E-02 0.12499978E+03</pdfrwt>
<pdfrwt beam="2">  1       -4 0.79156124E-01 0.12499978E+03</pdfrwt>
<totfact> 0.54189293E+03</totfact>
</mgrwt>
</event>
<event>
 5    1  0.3276024E-002  0.1250009E+03  0.7818608E-02  0.1235068E+00
         -4   -1    0    0    0  501 -0.00000000000E+00  0.00000000000E+00  0.40848460932E+03  0.40848658356E+03  0.12700000000E+01 0.  1.
          4   -1    0    0  501    0  0.00000000000E+00 -0.00000000000E+00 -0.95187565196E+01  0.96031050020E+01  0.12700000000E+01 0.  1.
         25    2    1    2    0    0  0.00000000000E+00  0.00000000000E+00  0.39896585280E+03  0.41808968856E+03  0.12500094393E+03 0.  0.
    9000005    1    3    3    0    0  0.36037795141E+02  0.21541560121E+02  0.35430090545E+03  0.35678129589E+03  0.10000000000E+01 0.  0.
    9000005    1    3    3    0    0 -0.36037795141E+02 -0.21541560121E+02  0.44664947347E+02  0.61308392676E+02  0.10000000000E+01 0.  0.
<mgrwt>
<rscale>  0 0.12500094E+03</rscale>
<asrwt>0</asrwt>
<pdfrwt beam="2">  1        4 0.14710639E-02 0.12500094E+03</pdfrwt>
<pdfrwt beam="1">  1       -4 0.62850443E-01 0.12500094E+03</pdfrwt>
<totfact> 0.62829309E+03</totfact>
</mgrwt>
</event>
<event>
 5    1  0.3276024E-002  0.1250009E+03  0.7818608E-02  0.1235068E+00
         -4   -1    0    0    0  501 -0.00000000000E+00  0.00000000000E+00  0.13481046272E+03  0.13481644469E+03  0.12700000000E+01 0. -1.
          4   -1    0    0  501    0  0.00000000000E+00 -0.00000000000E+00 -0.28955723194E+02  0.28983560956E+02  0.12700000000E+01 0. -1.
         25    2    1    2    0    0  0.00000000000E+00  0.00000000000E+00  0.10585473953E+03  0.16380000565E+03  0.12500086388E+03 0.  0.
    9000005    1    3    3    0    0 -0.22098972262E+02 -0.37155098558E+02  0.11206126690E+03  0.12011491774E+03  0.10000000000E+01 0.  0.
    9000005    1    3    3    0    0  0.22098972262E+02  0.37155098558E+02 -0.62065273706E+01  0.43685087912E+02  0.10000000000E+01 0.  0.
<mgrwt>
<rscale>  0 0.12500086E+03</rscale>
<asrwt>0</asrwt>
<pdfrwt beam="2">  1        4 0.44573281E-02 0.12500086E+03</pdfrwt>
<pdfrwt beam="1">  1       -4 0.20742673E-01 0.12500086E+03</pdfrwt>
<totfact> 0.96613260E+03</totfact>
</mgrwt>
</event>
<event>
 5    1  0.3276024E-002  0.1249895E+03  0.7818608E-02  0.1235086E+00
         -4   -1    0    0    0  501 -0.00000000000E+00  0.00000000000E+00  0.27576678503E+02  0.27605906927E+02  0.12700000000E+01 0. -1.
          4   -1    0    0  501    0  0.00000000000E+00 -0.00000000000E+00 -0.14151952094E+03  0.14152521934E+03  0.12700000000E+01 0. -1.
         25    2    1    2    0    0  0.00000000000E+00  0.00000000000E+00 -0.11394284244E+03  0.16913112626E+03  0.12498946567E+03 0.  0.
    9000005    1    3    3    0    0 -0.18647287532E+01 -0.89351164490E+01 -0.14061920767E+03  0.14091868253E+03  0.10000000000E+01 0.  0.
    9000005    1    3    3    0    0  0.18647287532E+01  0.89351164490E+01  0.26676365233E+02  0.28212443732E+02  0.10000000000E+01 0.  0.
<mgrwt>
<rscale>  0 0.12498947E+03</rscale>
<asrwt>0</asrwt>
<pdfrwt beam="2">  1        4 0.21774920E-01 0.12498947E+03</pdfrwt>
<pdfrwt beam="1">  1       -4 0.42452527E-02 0.12498947E+03</pdfrwt>
<totfact> 0.95633312E+03</totfact>
</mgrwt>
</event>
<event>
 5    1  0.3276024E-002  0.1249993E+03  0.7818608E-02  0.1235070E+00
          4   -1    0    0  501    0  0.00000000000E+00  0.00000000000E+00  0.76419515492E+02  0.76430067696E+02  0.12700000000E+01 0.  1.
         -4   -1    0    0    0  501 -0.00000000000E+00 -0.00000000000E+00 -0.51093315673E+02  0.51109097101E+02  0.12700000000E+01 0.  1.
         25    2    1    2    0    0  0.00000000000E+00  0.00000000000E+00  0.25326199819E+02  0.12753916480E+03  0.12499928864E+03 0.  0.
    9000005    1    3    3    0    0 -0.15750878819E+02  0.17571839226E+02 -0.46377556909E+02  0.52045532971E+02  0.10000000000E+01 0.  0.
    9000005    1    3    3    0    0  0.15750878819E+02 -0.17571839226E+02  0.71703756728E+02  0.75493631826E+02  0.10000000000E+01 0.  0.
<mgrwt>
<rscale>  0 0.12499929E+03</rscale>
<asrwt>0</asrwt>
<pdfrwt beam="1">  1        4 0.11758874E-01 0.12499929E+03</pdfrwt>
<pdfrwt beam="2">  1       -4 0.78625358E-02 0.12499929E+03</pdfrwt>
<totfact> 0.10397619E+04</totfact>
</mgrwt>
</event>
<event>
 5    1  0.3276024E-002  0.1249995E+03  0.7818608E-02  0.1235070E+00
          4   -1    0    0  501    0  0.00000000000E+00  0.00000000000E+00  0.37358857332E+02  0.37380437680E+02  0.12700000000E+01 0.  1.
         -4   -1    0    0    0  501 -0.00000000000E+00 -0.00000000000E+00 -0.10450368689E+03  0.10451140355E+03  0.12700000000E+01 0.  1.
         25    2    1    2    0    0  0.00000000000E+00  0.00000000000E+00 -0.67144829554E+02  0.14189184123E+03  0.12499946589E+03 0.  0.
    9000005    1    3    3    0    0 -0.21136012510E+02  0.54683434200E+02 -0.58134684974E+02  0.82569065623E+02  0.10000000000E+01 0.  0.
    9000005    1    3    3    0    0  0.21136012510E+02 -0.54683434200E+02 -0.90101445803E+01  0.59322775611E+02  0.10000000000E+01 0.  0.
<mgrwt>
<rscale>  0 0.12499947E+03</rscale>
<asrwt>0</asrwt>
<pdfrwt beam="1">  1        4 0.57497702E-02 0.12499947E+03</pdfrwt>
<pdfrwt beam="2">  1       -4 0.16079744E-01 0.12499947E+03</pdfrwt>
<totfact> 0.10094647E+04</totfact>
</mgrwt>
</event>
<event>
 5    1  0.3276024E-002  0.1249984E+03  0.7818608E-02  0.1235072E+00
         -4   -1    0    0    0  501 -0.00000000000E+00  0.00000000000E+00  0.22394983144E+03  0.22395343244E+03  0.12700000000E+01 0. -1.
          4   -1    0    0  501    0  0.00000000000E+00 -0.00000000000E+00 -0.17415214083E+02  0.17461459892E+02  0.12700000000E+01 0. -1.
         25    2    1    2    0    0  0.00000000000E+00  0.00000000000E+00  0.20653461736E+03  0.24141489234E+03  0.12499840828E+03 0.  0.
    9000005    1    3    3    0    0  0.26763816543E+02  0.28864026885E+02  0.19700647679E+03  0.20090292637E+03  0.10000000000E+01 0.  0.
    9000005    1    3    3    0    0 -0.26763816543E+02 -0.28864026885E+02  0.95281405652E+01  0.40511965968E+02  0.10000000000E+01 0.  0.
<mgrwt>
<rscale>  0 0.12499841E+03</rscale>
<asrwt>0</asrwt>
<pdfrwt beam="2">  1        4 0.26830983E-02 0.12499841E+03</pdfrwt>
<pdfrwt beam="1">  1       -4 0.34457652E-01 0.12499841E+03</pdfrwt>
<totfact> 0.83590062E+03</totfact>
</mgrwt>
</event>
<event>
 5    1  0.3276024E-002  0.1249985E+03  0.7818608E-02  0.1235072E+00
         -4   -1    0    0    0  501 -0.00000000000E+00  0.00000000000E+00  0.52939117703E+02  0.52954349049E+02  0.12700000000E+01 0. -1.
          4   -1    0    0  501    0  0.00000000000E+00 -0.00000000000E+00 -0.73754469937E+02  0.73765403379E+02  0.12700000000E+01 0. -1.
         25    2    1    2    0    0  0.00000000000E+00  0.00000000000E+00 -0.20815352233E+02  0.12671975243E+03  0.12499846706E+03 0.  0.
    9000005    1    3    3    0    0 -0.16673422124E+02 -0.30223295706E+02 -0.63218243421E+02  0.72034692405E+02  0.10000000000E+01 0.  0.
    9000005    1    3    3    0    0  0.16673422124E+02  0.30223295706E+02  0.42402891188E+02  0.54685060023E+02  0.10000000000E+01 0.  0.
<mgrwt>
<rscale>  0 0.12499847E+03</rscale>
<asrwt>0</asrwt>
<pdfrwt beam="2">  1        4 0.11348854E-01 0.12499847E+03</pdfrwt>
<pdfrwt beam="1">  1       -4 0.81464923E-02 0.12499847E+03</pdfrwt>
<totfact> 0.10415601E+04</totfact>
</mgrwt>
</event>
<event>
 5    1  0.3276024E-002  0.1250029E+03  0.7818608E-02  0.1235065E+00
         -4   -1    0    0    0  501 -0.00000000000E+00  0.00000000000E+00  0.92738649854E+03  0.92738736814E+03  0.12700000000E+01 0.  1.
          4   -1    0    0  501    0  0.00000000000E+00 -0.00000000000E+00 -0.41156840846E+01  0.43071748843E+01  0.12700000000E+01 0.  1.
         25    2    1    2    0    0  0.00000000000E+00  0.00000000000E+00  0.92327081446E+03  0.93169454302E+03  0.12500289862E+03 0.  0.
    9000005    1    3    3    0    0 -0.56219307458E+02  0.22675554302E+02  0.57482869188E+03  0.57801714187E+03  0.10000000000E+01 0.  0.
    9000005    1    3    3    0    0  0.56219307458E+02 -0.22675554302E+02  0.34844212258E+03  0.35367740115E+03  0.10000000000E+01 0.  0.
<mgrwt>
<rscale>  0 0.12500290E+03</rscale>
<asrwt>0</asrwt>
<pdfrwt beam="2">  1        4 0.64797953E-03 0.12500290E+03</pdfrwt>
<pdfrwt beam="1">  1       -4 0.14268955E+00 0.12500290E+03</pdfrwt>
<totfact> 0.32972868E+03</totfact>
</mgrwt>
</event>
<event>
 5    1  0.3276024E-002  0.1249935E+03  0.7818608E-02  0.1235079E+00
          4   -1    0    0  501    0  0.00000000000E+00  0.00000000000E+00  0.10988543241E+03  0.10989277117E+03  0.12700000000E+01 0.  1.
         -4   -1    0    0    0  501 -0.00000000000E+00 -0.00000000000E+00 -0.35524815842E+02  0.35547509626E+02  0.12700000000E+01 0.  1.
         25    2    1    2    0    0  0.00000000000E+00  0.00000000000E+00  0.74360616567E+02  0.14544028080E+03  0.12499349576E+03 0.  0.
    9000005    1    3    3    0    0 -0.31015191582E+02 -0.16952850141E+02  0.97141551331E+02  0.10337708756E+03  0.10000000000E+01 0.  0.
    9000005    1    3    3    0    0  0.31015191582E+02  0.16952850141E+02 -0.22780934765E+02  0.42063193240E+02  0.10000000000E+01 0.  0.
<mgrwt>
<rscale>  0 0.12499350E+03</rscale>
<asrwt>0</asrwt>
<pdfrwt beam="1">  1        4 0.16907761E-01 0.12499350E+03</pdfrwt>
<pdfrwt beam="2">  1       -4 0.54676665E-02 0.12499350E+03</pdfrwt>
<totfact> 0.10023518E+04</totfact>
</mgrwt>
</event>
<event>
 5    1  0.3276024E-002  0.1250093E+03  0.7818608E-02  0.1235055E+00
         -4   -1    0    0    0  501 -0.00000000000E+00  0.00000000000E+00  0.28736941771E+02  0.28764991262E+02  0.12700000000E+01 0. -1.
          4   -1    0    0  501    0  0.00000000000E+00 -0.00000000000E+00 -0.13585419287E+03  0.13586012889E+03  0.12700000000E+01 0. -1.
         25    2    1    2    0    0  0.00000000000E+00  0.00000000000E+00 -0.10711725110E+03  0.16462512015E+03  0.12500929846E+03 0.  0.
    9000005    1    3    3    0    0  0.38471596779E+02 -0.47804934352E+02 -0.69165768984E+02  0.92467719266E+02  0.10000000000E+01 0.  0.
    9000005    1    3    3    0    0 -0.38471596779E+02  0.47804934352E+02 -0.37951482117E+02  0.72157400882E+02  0.10000000000E+01 0.  0.
<mgrwt>
<rscale>  0 0.12500930E+03</rscale>
<asrwt>0</asrwt>
<pdfrwt beam="2">  1        4 0.20903259E-01 0.12500930E+03</pdfrwt>
<pdfrwt beam="1">  1       -4 0.44236823E-02 0.12500930E+03</pdfrwt>
<totfact> 0.96438289E+03</totfact>
</mgrwt>
</event>
<event>
 5    1  0.3276024E-002  0.1249997E+03  0.7818608E-02  0.1235070E+00
          4   -1    0    0  501    0  0.00000000000E+00  0.00000000000E+00  0.34194542989E+01  0.36476797697E+01  0.12700000000E+01 0.  1.
         -4   -1    0    0    0  501 -0.00000000000E+00 -0.00000000000E+00 -0.11052355134E+04  0.11052362431E+04  0.12700000000E+01 0.  1.
         25    2    1    2    0    0  0.00000000000E+00  0.00000000000E+00 -0.11018160591E+04  0.11088839229E+04  0.12499970490E+03 0.  0.
    9000005    1    3    3    0    0  0.64559748602E+01 -0.32243553029E+02 -0.79494374452E+02  0.86033027918E+02  0.10000000000E+01 0.  0.
    9000005    1    3    3    0    0 -0.64559748602E+01  0.32243553029E+02 -0.10223216847E+04  0.10228508949E+04  0.10000000000E+01 0.  0.
<mgrwt>
<rscale>  0 0.12499970E+03</rscale>
<asrwt>0</asrwt>
<pdfrwt beam="1">  1        4 0.54368270E-03 0.12499970E+03</pdfrwt>
<pdfrwt beam="2">  1       -4 0.17005357E+00 0.12499970E+03</pdfrwt>
<totfact> 0.27225058E+03</totfact>
</mgrwt>
</event>
<event>
 5    1  0.3276024E-002  0.1250028E+03  0.7818608E-02  0.1235065E+00
         -4   -1    0    0    0  501 -0.00000000000E+00  0.00000000000E+00  0.73788780551E+01  0.74873721259E+01  0.12700000000E+01 0.  1.
          4   -1    0    0  501    0  0.00000000000E+00 -0.00000000000E+00 -0.52543317467E+03  0.52543470950E+03  0.12700000000E+01 0.  1.
         25    2    1    2    0    0  0.00000000000E+00  0.00000000000E+00 -0.51805429661E+03  0.53292208162E+03  0.12500276333E+03 0.  0.
    9000005    1    3    3    0    0  0.71914473850E+01  0.61174740461E+02 -0.21403852383E+03  0.22272753640E+03  0.10000000000E+01 0.  0.
    9000005    1    3    3    0    0 -0.71914473850E+01 -0.61174740461E+02 -0.30401577278E+03  0.31019454522E+03  0.10000000000E+01 0.  0.
<mgrwt>
<rscale>  0 0.12500276E+03</rscale>
<asrwt>0</asrwt>
<pdfrwt beam="2">  1        4 0.80844308E-01 0.12500276E+03</pdfrwt>
<pdfrwt beam="1">  1       -4 0.11436762E-02 0.12500276E+03</pdfrwt>
<totfact> 0.53394305E+03</totfact>
</mgrwt>
</event>
<event>
 5    1  0.3276024E-002  0.1249961E+03  0.7818608E-02  0.1235075E+00
          4   -1    0    0  501    0  0.00000000000E+00  0.00000000000E+00  0.14865018435E+03  0.14865560940E+03  0.12700000000E+01 0. -1.
         -4   -1    0    0    0  501 -0.00000000000E+00 -0.00000000000E+00 -0.26255256233E+02  0.26285954041E+02  0.12700000000E+01 0. -1.
         25    2    1    2    0    0  0.00000000000E+00  0.00000000000E+00  0.12239492812E+03  0.17494156344E+03  0.12499612871E+03 0.  0.
    9000005    1    3    3    0    0 -0.37685241514E+02  0.54961403986E+00 -0.85644577777E+01  0.38663024204E+02  0.10000000000E+01 0.  0.
    9000005    1    3    3    0    0  0.37685241514E+02 -0.54961403986E+00  0.13095938589E+03  0.13627853924E+03  0.10000000000E+01 0.  0.
<mgrwt>
<rscale>  0 0.12499613E+03</rscale>
<asrwt>0</asrwt>
<pdfrwt beam="1">  1        4 0.22872038E-01 0.12499613E+03</pdfrwt>
<pdfrwt beam="2">  1       -4 0.40420489E-02 0.12499613E+03</pdfrwt>
<totfact> 0.94543754E+03</totfact>
</mgrwt>
</event>
<event>
 5    1  0.3276024E-002  0.1249946E+03  0.7818608E-02  0.1235078E+00
         -4   -1    0    0    0  501 -0.00000000000E+00  0.00000000000E+00  0.69429514232E+01  0.70581495072E+01  0.12700000000E+01 0. -1.
          4   -1    0    0  501    0  0.00000000000E+00 -0.00000000000E+00 -0.55782797300E+03  0.55782941870E+03  0.12700000000E+01 0. -1.
         25    2    1    2    0    0  0.00000000000E+00  0.00000000000E+00 -0.55088502158E+03  0.56488756820E+03  0.12499463073E+03 0.  0.
    9000005    1    3    3    0    0 -0.52473421763E+02 -0.31364832353E+02 -0.33396724200E+03  0.33951779251E+03  0.10000000000E+01 0.  0.
    9000005    1    3    3    0    0  0.52473421763E+02  0.31364832353E+02 -0.21691777958E+03  0.22536977570E+03  0.10000000000E+01 0.  0.
<mgrwt>
<rscale>  0 0.12499463E+03</rscale>
<asrwt>0</asrwt>
<pdfrwt beam="2">  1        4 0.85828626E-01 0.12499463E+03</pdfrwt>
<pdfrwt beam="1">  1       -4 0.10771194E-02 0.12499463E+03</pdfrwt>
<totfact> 0.51167811E+03</totfact>
</mgrwt>
</event>
<event>
 5    1  0.3276024E-002  0.1249994E+03  0.7818608E-02  0.1235070E+00
          4   -1    0    0  501    0  0.00000000000E+00  0.00000000000E+00  0.32144077344E+02  0.32169156164E+02  0.12700000000E+01 0. -1.
         -4   -1    0    0    0  501 -0.00000000000E+00 -0.00000000000E+00 -0.12144611620E+03  0.12145275642E+03  0.12700000000E+01 0. -1.
         25    2    1    2    0    0  0.00000000000E+00  0.00000000000E+00 -0.89302038861E+02  0.15362191258E+03  0.12499935152E+03 0.  0.
    9000005    1    3    3    0    0 -0.18519831708E+02 -0.13068672613E+02 -0.11622203225E+03  0.11841594129E+03  0.10000000000E+01 0.  0.
    9000005    1    3    3    0    0  0.18519831708E+02  0.13068672613E+02  0.26919993392E+02  0.35205971292E+02  0.10000000000E+01 0.  0.
<mgrwt>
<rscale>  0 0.12499935E+03</rscale>
<asrwt>0</asrwt>
<pdfrwt beam="1">  1        4 0.49476827E-02 0.12499935E+03</pdfrwt>
<pdfrwt beam="2">  1       -4 0.18686458E-01 0.12499935E+03</pdfrwt>
<totfact> 0.98588000E+03</totfact>
</mgrwt>
</event>
<event>
 5    1  0.3276024E-002  0.1250042E+03  0.7818608E-02  0.1235063E+00
         -4   -1    0    0    0  501 -0.00000000000E+00  0.00000000000E+00  0.16269007636E+04  0.16269012593E+04  0.12700000000E+01 0.  1.
          4   -1    0    0  501    0  0.00000000000E+00 -0.00000000000E+00 -0.22327413000E+01  0.25686637991E+01  0.12700000000E+01 0.  1.
         25    2    1    2    0    0  0.00000000000E+00  0.00000000000E+00  0.16246680223E+04  0.16294699231E+04  0.12500419029E+03 0.  0.
    9000005    1    3    3    0    0 -0.31603459705E+02 -0.41594111673E+02  0.12594784622E+04  0.12605617182E+04  0.10000000000E+01 0.  0.
    9000005    1    3    3    0    0  0.31603459705E+02  0.41594111673E+02  0.36518956012E+03  0.36890820486E+03  0.10000000000E+01 0.  0.
<mgrwt>
<rscale>  0 0.12500419E+03</rscale>
<asrwt>0</asrwt>
<pdfrwt beam="2">  1        4 0.36937740E-03 0.12500419E+03</pdfrwt>
<pdfrwt beam="1">  1       -4 0.25031802E+00 0.12500419E+03</pdfrwt>
<totfact> 0.15517866E+03</totfact>
</mgrwt>
</event>
<event>
 5    1  0.3276024E-002  0.1249968E+03  0.7818608E-02  0.1235074E+00
          4   -1    0    0  501    0  0.00000000000E+00  0.00000000000E+00  0.68609290069E+02  0.68621043302E+02  0.12700000000E+01 0.  1.
         -4   -1    0    0    0  501 -0.00000000000E+00 -0.00000000000E+00 -0.56908047615E+02  0.56922216958E+02  0.12700000000E+01 0.  1.
         25    2    1    2    0    0  0.00000000000E+00  0.00000000000E+00  0.11701242454E+02  0.12554326026E+03  0.12499676444E+03 0.  0.
    9000005    1    3    3    0    0 -0.59917780314E+02 -0.17607452439E+02  0.80704883108E+01  0.62978532539E+02  0.10000000000E+01 0.  0.
    9000005    1    3    3    0    0  0.59917780314E+02  0.17607452439E+02  0.36307541431E+01  0.62564727721E+02  0.10000000000E+01 0.  0.
<mgrwt>
<rscale>  0 0.12499676E+03</rscale>
<asrwt>0</asrwt>
<pdfrwt beam="1">  1        4 0.10557269E-01 0.12499676E+03</pdfrwt>
<pdfrwt beam="2">  1       -4 0.87570783E-02 0.12499676E+03</pdfrwt>
<totfact> 0.10441761E+04</totfact>
</mgrwt>
</event>
<event>
 5    1  0.3276024E-002  0.1250006E+03  0.7818608E-02  0.1235068E+00
         -4   -1    0    0    0  501 -0.00000000000E+00  0.00000000000E+00  0.16512994564E+03  0.16513482930E+03  0.12700000000E+01 0.  1.
          4   -1    0    0  501    0  0.00000000000E+00 -0.00000000000E+00 -0.23633539502E+02  0.23667638018E+02  0.12700000000E+01 0.  1.
         25    2    1    2    0    0  0.00000000000E+00  0.00000000000E+00  0.14149640614E+03  0.18880246732E+03  0.12500055486E+03 0.  0.
    9000005    1    3    3    0    0 -0.28268502983E+02 -0.26722921094E+02  0.14462055601E+03  0.14976424137E+03  0.10000000000E+01 0.  0.
    9000005    1    3    3    0    0  0.28268502983E+02  0.26722921094E+02 -0.31241498695E+01  0.39038225947E+02  0.10000000000E+01 0.  0.
<mgrwt>
<rscale>  0 0.12500055E+03</rscale>
<asrwt>0</asrwt>
<pdfrwt beam="2">  1        4 0.36389278E-02 0.12500055E+03</pdfrwt>
<pdfrwt beam="1">  1       -4 0.25407605E-01 0.12500055E+03</pdfrwt>
<totfact> 0.92054955E+03</totfact>
</mgrwt>
</event>
<event>
 5    1  0.3276024E-002  0.1249988E+03  0.7818608E-02  0.1235071E+00
         -4   -1    0    0    0  501 -0.00000000000E+00  0.00000000000E+00  0.47254387691E+02  0.47271450750E+02  0.12700000000E+01 0. -1.
          4   -1    0    0  501    0  0.00000000000E+00 -0.00000000000E+00 -0.82625838675E+02  0.82635598362E+02  0.12700000000E+01 0. -1.
         25    2    1    2    0    0  0.00000000000E+00  0.00000000000E+00 -0.35371450984E+02  0.12990704911E+03  0.12499880745E+03 0.  0.
    9000005    1    3    3    0    0 -0.70059744835E+01 -0.42598289457E+02 -0.64642596455E+02  0.77739071384E+02  0.10000000000E+01 0.  0.
    9000005    1    3    3    0    0  0.70059744835E+01  0.42598289457E+02  0.29271145472E+02  0.52167977729E+02  0.10000000000E+01 0.  0.
<mgrwt>
<rscale>  0 0.12499881E+03</rscale>
<asrwt>0</asrwt>
<pdfrwt beam="2">  1        4 0.12713731E-01 0.12499881E+03</pdfrwt>
<pdfrwt beam="1">  1       -4 0.72719691E-02 0.12499881E+03</pdfrwt>
<totfact> 0.10346775E+04</totfact>
</mgrwt>
</event>
<event>
 5    1  0.3276024E-002  0.1250049E+03  0.7818608E-02  0.1235062E+00
          4   -1    0    0  501    0  0.00000000000E+00  0.00000000000E+00  0.26346334690E+02  0.26376926501E+02  0.12700000000E+01 0. -1.
         -4   -1    0    0    0  501 -0.00000000000E+00 -0.00000000000E+00 -0.14815766744E+03  0.14816311053E+03  0.12700000000E+01 0. -1.
         25    2    1    2    0    0  0.00000000000E+00  0.00000000000E+00 -0.12181133275E+03  0.17454003703E+03  0.12500489486E+03 0.  0.
    9000005    1    3    3    0    0  0.41522402315E+02 -0.16353737334E+02 -0.12199131092E+03  0.12990163416E+03  0.10000000000E+01 0.  0.
    9000005    1    3    3    0    0 -0.41522402315E+02  0.16353737334E+02  0.17997816180E+00  0.44638402872E+02  0.10000000000E+01 0.  0.
<mgrwt>
<rscale>  0 0.12500489E+03</rscale>
<asrwt>0</asrwt>
<pdfrwt beam="1">  1        4 0.40560543E-02 0.12500489E+03</pdfrwt>
<pdfrwt beam="2">  1       -4 0.22796259E-01 0.12500489E+03</pdfrwt>
<totfact> 0.94598761E+03</totfact>
</mgrwt>
</event>
<event>
 5    1  0.3276024E-002  0.1249986E+03  0.7818608E-02  0.1235071E+00
          4   -1    0    0  501    0  0.00000000000E+00  0.00000000000E+00  0.10707844486E+04  0.10707852018E+04  0.12700000000E+01 0. -1.
         -4   -1    0    0    0  501 -0.00000000000E+00 -0.00000000000E+00 -0.35366333207E+01  0.37577486937E+01  0.12700000000E+01 0. -1.
         25    2    1    2    0    0  0.00000000000E+00  0.00000000000E+00  0.10672478153E+04  0.10745429505E+04  0.12499861242E+03 0.  0.
    9000005    1    3    3    0    0  0.43810914072E+02  0.41862746607E+02  0.40232683520E+03  0.40686578630E+03  0.10000000000E+01 0.  0.
    9000005    1    3    3    0    0 -0.43810914072E+02 -0.41862746607E+02  0.66492098012E+03  0.66767716417E+03  0.10000000000E+01 0.  0.
<mgrwt>
<rscale>  0 0.12499861E+03</rscale>
<asrwt>0</asrwt>
<pdfrwt beam="1">  1        4 0.16475296E+00 0.12499861E+03</pdfrwt>
<pdfrwt beam="2">  1       -4 0.56116484E-03 0.12499861E+03</pdfrwt>
<totfact> 0.28241538E+03</totfact>
</mgrwt>
</event>
<event>
 5    1  0.3276024E-002  0.1249991E+03  0.7818608E-02  0.1235071E+00
         -4   -1    0    0    0  501 -0.00000000000E+00  0.00000000000E+00  0.13166610984E+04  0.13166617109E+04  0.12700000000E+01 0.  1.
          4   -1    0    0  501    0  0.00000000000E+00 -0.00000000000E+00 -0.28301831133E+01  0.31020697050E+01  0.12700000000E+01 0.  1.
         25    2    1    2    0    0  0.00000000000E+00  0.00000000000E+00  0.13138309153E+04  0.13197637807E+04  0.12499905049E+03 0.  0.
    9000005    1    3    3    0    0 -0.27395702312E+02 -0.47295387277E+02  0.33705064016E+03  0.34145499293E+03  0.10000000000E+01 0.  0.
    9000005    1    3    3    0    0  0.27395702312E+02  0.47295387277E+02  0.97678027517E+03  0.97830878772E+03  0.10000000000E+01 0.  0.
<mgrwt>
<rscale>  0 0.12499905E+03</rscale>
<asrwt>0</asrwt>
<pdfrwt beam="2">  1        4 0.45637512E-03 0.12499905E+03</pdfrwt>
<pdfrwt beam="1">  1       -4 0.20258382E+00 0.12499905E+03</pdfrwt>
<totfact> 0.21767321E+03</totfact>
</mgrwt>
</event>
<event>
 5    1  0.3276024E-002  0.1250031E+03  0.7818608E-02  0.1235064E+00
          4   -1    0    0  501    0  0.00000000000E+00  0.00000000000E+00  0.97039046216E+03  0.97039129322E+03  0.12700000000E+01 0.  1.
         -4   -1    0    0    0  501 -0.00000000000E+00 -0.00000000000E+00 -0.39246228411E+01  0.41249926600E+01  0.12700000000E+01 0.  1.
         25    2    1    2    0    0  0.00000000000E+00  0.00000000000E+00  0.96646583932E+03  0.97451628588E+03  0.12500309144E+03 0.  0.
    9000005    1    3    3    0    0  0.43275698422E+02  0.24978607477E+02  0.77583786430E+03  0.77744588789E+03  0.10000000000E+01 0.  0.
    9000005    1    3    3    0    0 -0.43275698422E+02 -0.24978607477E+02  0.19062797502E+03  0.19707039799E+03  0.10000000000E+01 0.  0.
<mgrwt>
<rscale>  0 0.12500309E+03</rscale>
<asrwt>0</asrwt>
<pdfrwt beam="1">  1        4 0.14930646E+00 0.12500309E+03</pdfrwt>
<pdfrwt beam="2">  1       -4 0.61926451E-03 0.12500309E+03</pdfrwt>
<totfact> 0.31459071E+03</totfact>
</mgrwt>
</event>
<event>
 5    1  0.3276024E-002  0.1250137E+03  0.7818608E-02  0.1235048E+00
         -4   -1    0    0    0  501 -0.00000000000E+00  0.00000000000E+00  0.42989700116E+01  0.44826379689E+01  0.12700000000E+01 0. -1.
          4   -1    0    0  501    0  0.00000000000E+00 -0.00000000000E+00 -0.88965394866E+03  0.88965485513E+03  0.12700000000E+01 0. -1.
         25    2    1    2    0    0  0.00000000000E+00  0.00000000000E+00 -0.88535497864E+03  0.89413749310E+03  0.12501367268E+03 0.  0.
    9000005    1    3    3    0    0 -0.43097315629E+02 -0.34564916770E+02 -0.65169074074E+03  0.65402900062E+03  0.10000000000E+01 0.  0.
    9000005    1    3    3    0    0  0.43097315629E+02  0.34564916770E+02 -0.23366423790E+03  0.24010849248E+03  0.10000000000E+01 0.  0.
<mgrwt>
<rscale>  0 0.12501367E+03</rscale>
<asrwt>0</asrwt>
<pdfrwt beam="2">  1        4 0.13688389E+00 0.12501367E+03</pdfrwt>
<pdfrwt beam="1">  1       -4 0.67557874E-03 0.12501367E+03</pdfrwt>
<totfact> 0.34375170E+03</totfact>
</mgrwt>
</event>
<event>
 5    1  0.3276024E-002  0.1250010E+03  0.7818608E-02  0.1235068E+00
          4   -1    0    0  501    0  0.00000000000E+00  0.00000000000E+00  0.10839933131E+03  0.10840677068E+03  0.12700000000E+01 0. -1.
         -4   -1    0    0    0  501 -0.00000000000E+00 -0.00000000000E+00 -0.36016432623E+02  0.36038816835E+02  0.12700000000E+01 0. -1.
         25    2    1    2    0    0  0.00000000000E+00  0.00000000000E+00  0.72382898689E+02  0.14444558751E+03  0.12500097491E+03 0.  0.
    9000005    1    3    3    0    0 -0.69408915638E+01 -0.68706104496E+01  0.10751769398E+03  0.10796497480E+03  0.10000000000E+01 0.  0.
    9000005    1    3    3    0    0  0.69408915638E+01  0.68706104496E+01 -0.35134795294E+02  0.36480612715E+02  0.10000000000E+01 0.  0.
<mgrwt>
<rscale>  0 0.12500097E+03</rscale>
<asrwt>0</asrwt>
<pdfrwt beam="1">  1        4 0.16679114E-01 0.12500097E+03</pdfrwt>
<pdfrwt beam="2">  1       -4 0.55432839E-02 0.12500097E+03</pdfrwt>
<totfact> 0.10042045E+04</totfact>
</mgrwt>
</event>
<event>
 5    1  0.3276024E-002  0.1250053E+03  0.7818608E-02  0.1235061E+00
         -4   -1    0    0    0  501 -0.00000000000E+00  0.00000000000E+00  0.33432792986E+02  0.33456905817E+02  0.12700000000E+01 0. -1.
          4   -1    0    0  501    0  0.00000000000E+00 -0.00000000000E+00 -0.11677905932E+03  0.11678596490E+03  0.12700000000E+01 0. -1.
         25    2    1    2    0    0  0.00000000000E+00  0.00000000000E+00 -0.83346266338E+02  0.15024287071E+03  0.12500528024E+03 0.  0.
    9000005    1    3    3    0    0  0.15474661666E+02 -0.42142028154E+01 -0.11426936550E+03  0.11539372839E+03  0.10000000000E+01 0.  0.
    9000005    1    3    3    0    0 -0.15474661666E+02  0.42142028154E+01  0.30923099163E+02  0.34849142326E+02  0.10000000000E+01 0.  0.
<mgrwt>
<rscale>  0 0.12500528E+03</rscale>
<asrwt>0</asrwt>
<pdfrwt beam="2">  1        4 0.17968395E-01 0.12500528E+03</pdfrwt>
<pdfrwt beam="1">  1       -4 0.51458927E-02 0.12500528E+03</pdfrwt>
<totfact> 0.99243514E+03</totfact>
</mgrwt>
</event>
<event>
 5    1  0.3276024E-002  0.1249822E+03  0.7818608E-02  0.1235097E+00
         -4   -1    0    0    0  501 -0.00000000000E+00  0.00000000000E+00  0.78530654299E+02  0.78540922866E+02  0.12700000000E+01 0. -1.
          4   -1    0    0  501    0  0.00000000000E+00 -0.00000000000E+00 -0.49705936437E+02  0.49722158211E+02  0.12700000000E+01 0. -1.
         25    2    1    2    0    0  0.00000000000E+00  0.00000000000E+00  0.28824717861E+02  0.12826308108E+03  0.12498221316E+03 0.  0.
    9000005    1    3    3    0    0 -0.34673153725E+01 -0.47514396740E+02 -0.27077855982E+02  0.54807394191E+02  0.10000000000E+01 0.  0.
    9000005    1    3    3    0    0  0.34673153725E+01  0.47514396740E+02  0.55902573843E+02  0.73455686885E+02  0.10000000000E+01 0.  0.
<mgrwt>
<rscale>  0 0.12498221E+03</rscale>
<asrwt>0</asrwt>
<pdfrwt beam="2">  1        4 0.76491049E-02 0.12498221E+03</pdfrwt>
<pdfrwt beam="1">  1       -4 0.12083677E-01 0.12498221E+03</pdfrwt>
<totfact> 0.10385980E+04</totfact>
</mgrwt>
</event>
<event>
 5    1  0.3276024E-002  0.1249988E+03  0.7818608E-02  0.1235071E+00
         -4   -1    0    0    0  501 -0.00000000000E+00  0.00000000000E+00  0.60734266758E+03  0.60734399541E+03  0.12700000000E+01 0. -1.
          4   -1    0    0  501    0  0.00000000000E+00 -0.00000000000E+00 -0.63675454097E+01  0.64929603837E+01  0.12700000000E+01 0. -1.
         25    2    1    2    0    0  0.00000000000E+00  0.00000000000E+00  0.60097512217E+03  0.61383695579E+03  0.12499884333E+03 0.  0.
    9000005    1    3    3    0    0  0.38602971772E+02  0.51222263823E+01  0.54049930079E+03  0.54190120944E+03  0.10000000000E+01 0.  0.
    9000005    1    3    3    0    0 -0.38602971772E+02 -0.51222263823E+01  0.60475821376E+02  0.71935746356E+02  0.10000000000E+01 0.  0.
<mgrwt>
<rscale>  0 0.12499884E+03</rscale>
<asrwt>0</asrwt>
<pdfrwt beam="2">  1        4 0.98937151E-03 0.12499884E+03</pdfrwt>
<pdfrwt beam="1">  1       -4 0.93447112E-01 0.12499884E+03</pdfrwt>
<totfact> 0.48006875E+03</totfact>
</mgrwt>
</event>
<event>
 5    1  0.3276024E-002  0.1249929E+03  0.7818608E-02  0.1235080E+00
          4   -1    0    0  501    0  0.00000000000E+00  0.00000000000E+00  0.10219452541E+03  0.10220241643E+03  0.12700000000E+01 0.  1.
         -4   -1    0    0    0  501 -0.00000000000E+00 -0.00000000000E+00 -0.38199429111E+02  0.38220534853E+02  0.12700000000E+01 0.  1.
         25    2    1    2    0    0  0.00000000000E+00  0.00000000000E+00  0.63995096296E+02  0.14042295128E+03  0.12499293138E+03 0.  0.
    9000005    1    3    3    0    0 -0.58679450239E+02  0.92936852022E+01  0.53757584142E+02  0.80128199267E+02  0.10000000000E+01 0.  0.
    9000005    1    3    3    0    0  0.58679450239E+02 -0.92936852022E+01  0.10237512154E+02  0.60294752011E+02  0.10000000000E+01 0.  0.
<mgrwt>
<rscale>  0 0.12499293E+03</rscale>
<asrwt>0</asrwt>
<pdfrwt beam="1">  1        4 0.15724465E-01 0.12499293E+03</pdfrwt>
<pdfrwt beam="2">  1       -4 0.58790658E-02 0.12499293E+03</pdfrwt>
<totfact> 0.10126440E+04</totfact>
</mgrwt>
</event>
<event>
 5    1  0.3276024E-002  0.1250087E+03  0.7818608E-02  0.1235056E+00
          4   -1    0    0  501    0  0.00000000000E+00  0.00000000000E+00  0.28776840053E+03  0.28777120294E+03  0.12700000000E+01 0.  1.
         -4   -1    0    0    0  501 -0.00000000000E+00 -0.00000000000E+00 -0.13543590229E+02  0.13603004678E+02  0.12700000000E+01 0.  1.
         25    2    1    2    0    0  0.00000000000E+00  0.00000000000E+00  0.27422481030E+03  0.30137420762E+03  0.12500866544E+03 0.  0.
    9000005    1    3    3    0    0  0.71684885372E+01  0.59140838393E+02  0.18264867563E+03  0.19212122398E+03  0.10000000000E+01 0.  0.
    9000005    1    3    3    0    0 -0.71684885372E+01 -0.59140838393E+02  0.91576134673E+02  0.10925298364E+03  0.10000000000E+01 0.  0.
<mgrwt>
<rscale>  0 0.12500867E+03</rscale>
<asrwt>0</asrwt>
<pdfrwt beam="1">  1        4 0.44276846E-01 0.12500867E+03</pdfrwt>
<pdfrwt beam="2">  1       -4 0.20884153E-02 0.12500867E+03</pdfrwt>
<totfact> 0.75412277E+03</totfact>
</mgrwt>
</event>
<event>
 5    1  0.3276024E-002  0.1250005E+03  0.7818608E-02  0.1235068E+00
          4   -1    0    0  501    0  0.00000000000E+00  0.00000000000E+00  0.77053389503E+03  0.77053494164E+03  0.12700000000E+01 0. -1.
         -4   -1    0    0    0  501 -0.00000000000E+00 -0.00000000000E+00 -0.49889754514E+01  0.51480846977E+01  0.12700000000E+01 0. -1.
         25    2    1    2    0    0  0.00000000000E+00  0.00000000000E+00  0.76554491957E+03  0.77568302633E+03  0.12500053383E+03 0.  0.
    9000005    1    3    3    0    0  0.51887096641E+02 -0.10636171861E+02  0.17697218771E+03  0.18473103197E+03  0.10000000000E+01 0.  0.
    9000005    1    3    3    0    0 -0.51887096641E+02  0.10636171861E+02  0.58857273187E+03  0.59095199437E+03  0.10000000000E+01 0.  0.
<mgrwt>
<rscale>  0 0.12500053E+03</rscale>
<asrwt>0</asrwt>
<pdfrwt beam="1">  1        4 0.11855593E+00 0.12500053E+03</pdfrwt>
<pdfrwt beam="2">  1       -4 0.77985478E-03 0.12500053E+03</pdfrwt>
<totfact> 0.39373163E+03</totfact>
</mgrwt>
</event>
<event>
 5    1  0.3276024E-002  0.1249979E+03  0.7818608E-02  0.1235073E+00
         -4   -1    0    0    0  501 -0.00000000000E+00  0.00000000000E+00  0.12234845735E+04  0.12234852326E+04  0.12700000000E+01 0.  1.
          4   -1    0    0  501    0  0.00000000000E+00 -0.00000000000E+00 -0.30656334964E+01  0.33182840045E+01  0.12700000000E+01 0.  1.
         25    2    1    2    0    0  0.00000000000E+00  0.00000000000E+00  0.12204189400E+04  0.12268035166E+04  0.12499791733E+03 0.  0.
    9000005    1    3    3    0    0 -0.22837165414E+02 -0.16432974212E+02  0.62563956037E+02  0.68606321578E+02  0.10000000000E+01 0.  0.
    9000005    1    3    3    0    0  0.22837165414E+02  0.16432974212E+02  0.11578549839E+04  0.11581971950E+04  0.10000000000E+01 0.  0.
<mgrwt>
<rscale>  0 0.12499792E+03</rscale>
<asrwt>0</asrwt>
<pdfrwt beam="2">  1        4 0.49112092E-03 0.12499792E+03</pdfrwt>
<pdfrwt beam="1">  1       -4 0.18824802E+00 0.12499792E+03</pdfrwt>
<totfact> 0.24022829E+03</totfact>
</mgrwt>
</event>
<event>
 5    1  0.3276024E-002  0.1250017E+03  0.7818608E-02  0.1235067E+00
         -4   -1    0    0    0  501 -0.00000000000E+00  0.00000000000E+00  0.12239175831E+02  0.12304890289E+02  0.12700000000E+01 0. -1.
          4   -1    0    0  501    0  0.00000000000E+00 -0.00000000000E+00 -0.31824679511E+03  0.31824932914E+03  0.12700000000E+01 0. -1.
         25    2    1    2    0    0  0.00000000000E+00  0.00000000000E+00 -0.30600761928E+03  0.33055421943E+03  0.12500171569E+03 0.  0.
    9000005    1    3    3    0    0 -0.57691511095E+02  0.14615799428E+02 -0.20341584612E+03  0.21194560269E+03  0.10000000000E+01 0.  0.
    9000005    1    3    3    0    0  0.57691511095E+02 -0.14615799428E+02 -0.10259177315E+03  0.11860861674E+03  0.10000000000E+01 0.  0.
<mgrwt>
<rscale>  0 0.12500172E+03</rscale>
<asrwt>0</asrwt>
<pdfrwt beam="2">  1        4 0.48966289E-01 0.12500172E+03</pdfrwt>
<pdfrwt beam="1">  1       -4 0.18882003E-02 0.12500172E+03</pdfrwt>
<totfact> 0.71915447E+03</totfact>
</mgrwt>
</event>
<event>
 5    1  0.3276024E-002  0.1250018E+03  0.7818608E-02  0.1235067E+00
         -4   -1    0    0    0  501 -0.00000000000E+00  0.00000000000E+00  0.18961177188E+02  0.19003661235E+02  0.12700000000E+01 0. -1.
          4   -1    0    0  501    0  0.00000000000E+00 -0.00000000000E+00 -0.20574383562E+03  0.20574775526E+03  0.12700000000E+01 0. -1.
         25    2    1    2    0    0  0.00000000000E+00  0.00000000000E+00 -0.18678265843E+03  0.22475141649E+03  0.12500175089E+03 0.  0.
    9000005    1    3    3    0    0 -0.39820060895E+01 -0.30108892432E+01  0.18610906972E+02  0.19294757963E+02  0.10000000000E+01 0.  0.
    9000005    1    3    3    0    0  0.39820060895E+01  0.30108892432E+01 -0.20539356540E+03  0.20545665853E+03  0.10000000000E+01 0.  0.
<mgrwt>
<rscale>  0 0.12500175E+03</rscale>
<asrwt>0</asrwt>
<pdfrwt beam="2">  1        4 0.31656466E-01 0.12500175E+03</pdfrwt>
<pdfrwt beam="1">  1       -4 0.29206738E-02 0.12500175E+03</pdfrwt>
<totfact> 0.86118673E+03</totfact>
</mgrwt>
</event>
<event>
 5    1  0.3276024E-002  0.1250095E+03  0.7818608E-02  0.1235054E+00
         -4   -1    0    0    0  501 -0.00000000000E+00  0.00000000000E+00  0.12427021459E+02  0.12491747770E+02  0.12700000000E+01 0.  1.
          4   -1    0    0  501    0  0.00000000000E+00 -0.00000000000E+00 -0.31350051172E+03  0.31350308411E+03  0.12700000000E+01 0.  1.
         25    2    1    2    0    0  0.00000000000E+00  0.00000000000E+00 -0.30107349026E+03  0.32599483188E+03  0.12500953515E+03 0.  0.
    9000005    1    3    3    0    0  0.54920202450E+02  0.19972007804E+02 -0.20830531801E+03  0.21634975212E+03  0.10000000000E+01 0.  0.
    9000005    1    3    3    0    0 -0.54920202450E+02 -0.19972007804E+02 -0.92768172250E+02  0.10964507976E+03  0.10000000000E+01 0.  0.
<mgrwt>
<rscale>  0 0.12500954E+03</rscale>
<asrwt>0</asrwt>
<pdfrwt beam="2">  1        4 0.48236019E-01 0.12500954E+03</pdfrwt>
<pdfrwt beam="1">  1       -4 0.19170265E-02 0.12500954E+03</pdfrwt>
<totfact> 0.72433444E+03</totfact>
</mgrwt>
</event>
<event>
 5    1  0.3276024E-002  0.1249984E+03  0.7818608E-02  0.1235072E+00
          4   -1    0    0  501    0  0.00000000000E+00  0.00000000000E+00  0.11608520007E+03  0.11609214692E+03  0.12700000000E+01 0. -1.
         -4   -1    0    0    0  501 -0.00000000000E+00 -0.00000000000E+00 -0.33629076395E+02  0.33653048587E+02  0.12700000000E+01 0. -1.
         25    2    1    2    0    0  0.00000000000E+00  0.00000000000E+00  0.82456123678E+02  0.14974519551E+03  0.12499844497E+03 0.  0.
    9000005    1    3    3    0    0  0.34255154490E+02 -0.45123908014E+02  0.96330335854E+01  0.57475020832E+02  0.10000000000E+01 0.  0.
    9000005    1    3    3    0    0 -0.34255154490E+02  0.45123908014E+02  0.72823090093E+02  0.92270174673E+02  0.10000000000E+01 0.  0.
<mgrwt>
<rscale>  0 0.12499844E+03</rscale>
<asrwt>0</asrwt>
<pdfrwt beam="1">  1        4 0.17861640E-01 0.12499844E+03</pdfrwt>
<pdfrwt beam="2">  1       -4 0.51760824E-02 0.12499844E+03</pdfrwt>
<totfact> 0.99357991E+03</totfact>
</mgrwt>
</event>
<event>
 5    1  0.3276024E-002  0.1249970E+03  0.7818608E-02  0.1235074E+00
         -4   -1    0    0    0  501 -0.00000000000E+00  0.00000000000E+00  0.42582619042E+02  0.42601553311E+02  0.12700000000E+01 0. -1.
          4   -1    0    0  501    0  0.00000000000E+00 -0.00000000000E+00 -0.91685240012E+02  0.91694035444E+02  0.12700000000E+01 0. -1.
         25    2    1    2    0    0  0.00000000000E+00  0.00000000000E+00 -0.49102620970E+02  0.13429558876E+03  0.12499695105E+03 0.  0.
    9000005    1    3    3    0    0  0.37571845388E+02 -0.17494573923E+02  0.25697066639E+02  0.48775433534E+02  0.10000000000E+01 0.  0.
    9000005    1    3    3    0    0 -0.37571845388E+02  0.17494573923E+02 -0.74799687609E+02  0.85520155221E+02  0.10000000000E+01 0.  0.
<mgrwt>
<rscale>  0 0.12499695E+03</rscale>
<asrwt>0</asrwt>
<pdfrwt beam="2">  1        4 0.14107555E-01 0.12499695E+03</pdfrwt>
<pdfrwt beam="1">  1       -4 0.65533052E-02 0.12499695E+03</pdfrwt>
<totfact> 0.10253645E+04</totfact>
</mgrwt>
</event>
<event>
 5    1  0.3276024E-002  0.1249556E+03  0.7818608E-02  0.1235139E+00
          4   -1    0    0  501    0  0.00000000000E+00  0.00000000000E+00  0.15392257939E+03  0.15392781862E+03  0.12700000000E+01 0. -1.
         -4   -1    0    0    0  501 -0.00000000000E+00 -0.00000000000E+00 -0.25338409059E+02  0.25370216271E+02  0.12700000000E+01 0. -1.
         25    2    1    2    0    0  0.00000000000E+00  0.00000000000E+00  0.12858417033E+03  0.17929803489E+03  0.12495557793E+03 0.  0.
    9000005    1    3    3    0    0 -0.58790581089E+02 -0.18937577928E+02  0.50869124844E+02  0.80022697686E+02  0.10000000000E+01 0.  0.
    9000005    1    3    3    0    0  0.58790581089E+02  0.18937577928E+02  0.77715045484E+02  0.99275337205E+02  0.10000000000E+01 0.  0.
<mgrwt>
<rscale>  0 0.12495558E+03</rscale>
<asrwt>0</asrwt>
<pdfrwt beam="1">  1        4 0.23683247E-01 0.12495558E+03</pdfrwt>
<pdfrwt beam="2">  1       -4 0.39010665E-02 0.12495558E+03</pdfrwt>
<totfact> 0.93836950E+03</totfact>
</mgrwt>
</event>
<event>
 5    1  0.3276024E-002  0.1250135E+03  0.7818608E-02  0.1235048E+00
         -4   -1    0    0    0  501 -0.00000000000E+00  0.00000000000E+00  0.14210847734E+02  0.14267483776E+02  0.12700000000E+01 0. -1.
          4   -1    0    0  501    0  0.00000000000E+00 -0.00000000000E+00 -0.27433243373E+03  0.27433537339E+03  0.12700000000E+01 0. -1.
         25    2    1    2    0    0  0.00000000000E+00  0.00000000000E+00 -0.26012158599E+03  0.28860285717E+03  0.12501347794E+03 0.  0.
    9000005    1    3    3    0    0  0.10778864308E+02  0.10912165246E+02 -0.26993128779E+03  0.27036856214E+03  0.10000000000E+01 0.  0.
    9000005    1    3    3    0    0 -0.10778864308E+02 -0.10912165246E+02  0.98097017916E+01  0.18234295033E+02  0.10000000000E+01 0.  0.
<mgrwt>
<rscale>  0 0.12501348E+03</rscale>
<asrwt>0</asrwt>
<pdfrwt beam="2">  1        4 0.42209569E-01 0.12501348E+03</pdfrwt>
<pdfrwt beam="1">  1       -4 0.21908672E-02 0.12501348E+03</pdfrwt>
<totfact> 0.77028019E+03</totfact>
</mgrwt>
</event>
<event>
 5    1  0.3276024E-002  0.1249996E+03  0.7818608E-02  0.1235070E+00
         -4   -1    0    0    0  501 -0.00000000000E+00  0.00000000000E+00  0.41834279438E+01  0.43719525800E+01  0.12700000000E+01 0. -1.
          4   -1    0    0  501    0  0.00000000000E+00 -0.00000000000E+00 -0.91297316656E+03  0.91297404988E+03  0.12700000000E+01 0. -1.
         25    2    1    2    0    0  0.00000000000E+00  0.00000000000E+00 -0.90878973862E+03  0.91734600246E+03  0.12499959688E+03 0.  0.
    9000005    1    3    3    0    0 -0.35686418362E+02 -0.20907940829E+02 -0.79818905171E+03  0.79926054870E+03  0.10000000000E+01 0.  0.
    9000005    1    3    3    0    0  0.35686418362E+02  0.20907940829E+02 -0.11060068691E+03  0.11808545376E+03  0.10000000000E+01 0.  0.
<mgrwt>
<rscale>  0 0.12499960E+03</rscale>
<asrwt>0</asrwt>
<pdfrwt beam="2">  1        4 0.14047183E+00 0.12499960E+03</pdfrwt>
<pdfrwt beam="1">  1       -4 0.65817487E-03 0.12499960E+03</pdfrwt>
<totfact> 0.33504707E+03</totfact>
</mgrwt>
</event>
<event>
 5    1  0.3276024E-002  0.1250012E+03  0.7818608E-02  0.1235067E+00
         -4   -1    0    0    0  501 -0.00000000000E+00  0.00000000000E+00  0.82597827878E+02  0.82607590875E+02  0.12700000000E+01 0. -1.
          4   -1    0    0  501    0  0.00000000000E+00 -0.00000000000E+00 -0.47272246118E+02  0.47289302733E+02  0.12700000000E+01 0. -1.
         25    2    1    2    0    0  0.00000000000E+00  0.00000000000E+00  0.35325581760E+02  0.12989689361E+03  0.12500122496E+03 0.  0.
    9000005    1    3    3    0    0  0.28777743244E+01 -0.19814696253E+01  0.82501345069E+02  0.82581352285E+02  0.10000000000E+01 0.  0.
    9000005    1    3    3    0    0 -0.28777743244E+01  0.19814696253E+01 -0.47175763309E+02  0.47315541323E+02  0.10000000000E+01 0.  0.
<mgrwt>
<rscale>  0 0.12500122E+03</rscale>
<asrwt>0</asrwt>
<pdfrwt beam="2">  1        4 0.72747163E-02 0.12500122E+03</pdfrwt>
<pdfrwt beam="1">  1       -4 0.12709421E-01 0.12500122E+03</pdfrwt>
<totfact> 0.10346428E+04</totfact>
</mgrwt>
</event>
<event>
 5    1  0.3276024E-002  0.1249995E+03  0.7818608E-02  0.1235070E+00
         -4   -1    0    0    0  501 -0.00000000000E+00  0.00000000000E+00  0.28725722158E+02  0.28753782595E+02  0.12700000000E+01 0. -1.
          4   -1    0    0  501    0  0.00000000000E+00 -0.00000000000E+00 -0.13588585334E+03  0.13589178797E+03  0.12700000000E+01 0. -1.
         25    2    1    2    0    0  0.00000000000E+00  0.00000000000E+00 -0.10716013118E+03  0.16464557057E+03  0.12499948077E+03 0.  0.
    9000005    1    3    3    0    0  0.34038819442E+02 -0.26085086306E+02  0.62917182428E+01  0.43355030562E+02  0.10000000000E+01 0.  0.
    9000005    1    3    3    0    0 -0.34038819442E+02  0.26085086306E+02 -0.11345184943E+03  0.12129054001E+03  0.10000000000E+01 0.  0.
<mgrwt>
<rscale>  0 0.12499948E+03</rscale>
<asrwt>0</asrwt>
<pdfrwt beam="2">  1        4 0.20908130E-01 0.12499948E+03</pdfrwt>
<pdfrwt beam="1">  1       -4 0.44219570E-02 0.12499948E+03</pdfrwt>
<totfact> 0.96455683E+03</totfact>
</mgrwt>
</event>
<event>
 5    1  0.3276024E-002  0.1249732E+03  0.7818608E-02  0.1235111E+00
         -4   -1    0    0    0  501 -0.00000000000E+00  0.00000000000E+00  0.21294487823E+02  0.21332325510E+02  0.12700000000E+01 0. -1.
          4   -1    0    0  501    0  0.00000000000E+00 -0.00000000000E+00 -0.18315807492E+03  0.18316247790E+03  0.12700000000E+01 0. -1.
         25    2    1    2    0    0  0.00000000000E+00  0.00000000000E+00 -0.16186358710E+03  0.20449480341E+03  0.12497321230E+03 0.  0.
    9000005    1    3    3    0    0 -0.49073701471E+02  0.21015121408E+02 -0.27815666906E+02  0.60204441940E+02  0.10000000000E+01 0.  0.
    9000005    1    3    3    0    0  0.49073701471E+02 -0.21015121408E+02 -0.13404792019E+03  0.14429036147E+03  0.10000000000E+01 0.  0.
<mgrwt>
<rscale>  0 0.12497321E+03</rscale>
<asrwt>0</asrwt>
<pdfrwt beam="2">  1        4 0.28181414E-01 0.12497321E+03</pdfrwt>
<pdfrwt beam="1">  1       -4 0.32793245E-02 0.12497321E+03</pdfrwt>
<totfact> 0.89436497E+03</totfact>
</mgrwt>
</event>
<event>
 5    1  0.3276024E-002  0.1249996E+03  0.7818608E-02  0.1235070E+00
          4   -1    0    0  501    0  0.00000000000E+00  0.00000000000E+00  0.11803898863E+02  0.11872022926E+02  0.12700000000E+01 0. -1.
         -4   -1    0    0    0  501 -0.00000000000E+00 -0.00000000000E+00 -0.32990524204E+03  0.32990768652E+03  0.12700000000E+01 0. -1.
         25    2    1    2    0    0  0.00000000000E+00  0.00000000000E+00 -0.31810134318E+03  0.34177970945E+03  0.12499962103E+03 0.  0.
    9000005    1    3    3    0    0 -0.52774250034E+02  0.18830377052E+02 -0.23470196308E+03  0.24130005396E+03  0.10000000000E+01 0.  0.
    9000005    1    3    3    0    0  0.52774250034E+02 -0.18830377052E+02 -0.83399380092E+02  0.10047965548E+03  0.10000000000E+01 0.  0.
<mgrwt>
<rscale>  0 0.12499962E+03</rscale>
<asrwt>0</asrwt>
<pdfrwt beam="1">  1        4 0.18214130E-02 0.12499962E+03</pdfrwt>
<pdfrwt beam="2">  1       -4 0.50760074E-01 0.12499962E+03</pdfrwt>
<totfact> 0.70639053E+03</totfact>
</mgrwt>
</event>
<event>
 5    1  0.3276024E-002  0.1250017E+03  0.7818608E-02  0.1235067E+00
         -4   -1    0    0    0  501 -0.00000000000E+00  0.00000000000E+00  0.46093603856E+02  0.46111096456E+02  0.12700000000E+01 0. -1.
          4   -1    0    0  501    0  0.00000000000E+00 -0.00000000000E+00 -0.84710061148E+02  0.84719580733E+02  0.12700000000E+01 0. -1.
         25    2    1    2    0    0  0.00000000000E+00  0.00000000000E+00 -0.38616457292E+02  0.13083067719E+03  0.12500174127E+03 0.  0.
    9000005    1    3    3    0    0 -0.14897985590E+02  0.40274732278E+02  0.28211056698E+02  0.51389373948E+02  0.10000000000E+01 0.  0.
    9000005    1    3    3    0    0  0.14897985590E+02 -0.40274732278E+02 -0.66827513989E+02  0.79441303242E+02  0.10000000000E+01 0.  0.
<mgrwt>
<rscale>  0 0.12500174E+03</rscale>
<asrwt>0</asrwt>
<pdfrwt beam="2">  1        4 0.13034395E-01 0.12500174E+03</pdfrwt>
<pdfrwt beam="1">  1       -4 0.70934016E-02 0.12500174E+03</pdfrwt>
<totfact> 0.10326315E+04</totfact>
</mgrwt>
</event>
<event>
 5    1  0.3276024E-002  0.1250027E+03  0.7818608E-02  0.1235065E+00
          4   -1    0    0  501    0  0.00000000000E+00  0.00000000000E+00  0.39201528278E+03  0.39201733996E+03  0.12700000000E+01 0. -1.
         -4   -1    0    0    0  501 -0.00000000000E+00 -0.00000000000E+00 -0.99224028098E+01  0.10003348315E+02  0.12700000000E+01 0. -1.
         25    2    1    2    0    0  0.00000000000E+00  0.00000000000E+00  0.38209287997E+03  0.40202068828E+03  0.12500265950E+03 0.  0.
    9000005    1    3    3    0    0 -0.47842754166E+02 -0.12259869976E+02  0.67899622535E+02  0.83967805011E+02  0.10000000000E+01 0.  0.
    9000005    1    3    3    0    0  0.47842754166E+02  0.12259869976E+02  0.31419325744E+03  0.31805288327E+03  0.10000000000E+01 0.  0.
<mgrwt>
<rscale>  0 0.12500266E+03</rscale>
<asrwt>0</asrwt>
<pdfrwt beam="1">  1        4 0.60316427E-01 0.12500266E+03</pdfrwt>
<pdfrwt beam="2">  1       -4 0.15329084E-02 0.12500266E+03</pdfrwt>
<totfact> 0.64352954E+03</totfact>
</mgrwt>
</event>
<event>
 5    1  0.3276024E-002  0.1250048E+03  0.7818608E-02  0.1235062E+00
          4   -1    0    0  501    0  0.00000000000E+00  0.00000000000E+00  0.14619678620E+03  0.14620230229E+03  0.12700000000E+01 0. -1.
         -4   -1    0    0    0  501 -0.00000000000E+00 -0.00000000000E+00 -0.26700073538E+02  0.26730260510E+02  0.12700000000E+01 0. -1.
         25    2    1    2    0    0  0.00000000000E+00  0.00000000000E+00  0.11949671266E+03  0.17293256280E+03  0.12500482767E+03 0.  0.
    9000005    1    3    3    0    0 -0.11368823645E+02 -0.47072393824E+02  0.11439716150E+03  0.12422870429E+03  0.10000000000E+01 0.  0.
    9000005    1    3    3    0    0  0.11368823645E+02  0.47072393824E+02  0.50995511628E+01  0.48703858507E+02  0.10000000000E+01 0.  0.
<mgrwt>
<rscale>  0 0.12500483E+03</rscale>
<asrwt>0</asrwt>
<pdfrwt beam="1">  1        4 0.22494559E-01 0.12500483E+03</pdfrwt>
<pdfrwt beam="2">  1       -4 0.41104500E-02 0.12500483E+03</pdfrwt>
<totfact> 0.94894577E+03</totfact>
</mgrwt>
</event>
<event>
 5    1  0.3276024E-002  0.1250027E+03  0.7818608E-02  0.1235065E+00
         -4   -1    0    0    0  501 -0.00000000000E+00  0.00000000000E+00  0.24926668526E+03  0.24926992053E+03  0.12700000000E+01 0. -1.
          4   -1    0    0  501    0  0.00000000000E+00 -0.00000000000E+00 -0.15642568336E+02  0.15694038491E+02  0.12700000000E+01 0. -1.
         25    2    1    2    0    0  0.00000000000E+00  0.00000000000E+00  0.23362411693E+03  0.26496395902E+03  0.12500268625E+03 0.  0.
    9000005    1    3    3    0    0  0.23168026842E+02 -0.56813478362E+02  0.14197179899E+03  0.15466583495E+03  0.10000000000E+01 0.  0.
    9000005    1    3    3    0    0 -0.23168026842E+02  0.56813478362E+02  0.91652317937E+02  0.11029812408E+03  0.10000000000E+01 0.  0.
<mgrwt>
<rscale>  0 0.12500269E+03</rscale>
<asrwt>0</asrwt>
<pdfrwt beam="2">  1        4 0.24107572E-02 0.12500269E+03</pdfrwt>
<pdfrwt beam="1">  1       -4 0.38352927E-01 0.12500269E+03</pdfrwt>
<totfact> 0.80209654E+03</totfact>
</mgrwt>
</event>
<event>
 5    1  0.3276024E-002  0.1250040E+03  0.7818608E-02  0.1235063E+00
          4   -1    0    0  501    0  0.00000000000E+00  0.00000000000E+00  0.95558381522E+03  0.95558465915E+03  0.12700000000E+01 0.  1.
         -4   -1    0    0    0  501 -0.00000000000E+00 -0.00000000000E+00 -0.39885737281E+01  0.41858834652E+01  0.12700000000E+01 0.  1.
         25    2    1    2    0    0  0.00000000000E+00  0.00000000000E+00  0.95159524149E+03  0.95977054262E+03  0.12500396333E+03 0.  0.
    9000005    1    3    3    0    0  0.41701335416E+01 -0.37192993068E+02  0.91534058721E+02  0.98894856555E+02  0.10000000000E+01 0.  0.
    9000005    1    3    3    0    0 -0.41701335416E+01  0.37192993068E+02  0.86006118277E+03  0.86087568606E+03  0.10000000000E+01 0.  0.
<mgrwt>
<rscale>  0 0.12500396E+03</rscale>
<asrwt>0</asrwt>
<pdfrwt beam="1">  1        4 0.14702812E+00 0.12500396E+03</pdfrwt>
<pdfrwt beam="2">  1       -4 0.62886940E-03 0.12500396E+03</pdfrwt>
<totfact> 0.31968836E+03</totfact>
</mgrwt>
</event>
<event>
 5    1  0.3276024E-002  0.1250077E+03  0.7818608E-02  0.1235057E+00
          4   -1    0    0  501    0  0.00000000000E+00  0.00000000000E+00  0.48795616815E+01  0.50421247708E+01  0.12700000000E+01 0.  1.
         -4   -1    0    0    0  501 -0.00000000000E+00 -0.00000000000E+00 -0.78735057854E+03  0.78735160279E+03  0.12700000000E+01 0.  1.
         25    2    1    2    0    0  0.00000000000E+00  0.00000000000E+00 -0.78247101686E+03  0.79239372757E+03  0.12500770882E+03 0.  0.
    9000005    1    3    3    0    0  0.11131476408E+01  0.21517060109E+02 -0.76309483513E+03  0.76339960072E+03  0.10000000000E+01 0.  0.
    9000005    1    3    3    0    0 -0.11131476408E+01 -0.21517060109E+02 -0.19376181727E+02  0.28994126849E+02  0.10000000000E+01 0.  0.
<mgrwt>
<rscale>  0 0.12500771E+03</rscale>
<asrwt>0</asrwt>
<pdfrwt beam="1">  1        4 0.76328606E-03 0.12500771E+03</pdfrwt>
<pdfrwt beam="2">  1       -4 0.12114334E+00 0.12500771E+03</pdfrwt>
<totfact> 0.38600081E+03</totfact>
</mgrwt>
</event>
<event>
 5    1  0.3276024E-002  0.1249995E+03  0.7818608E-02  0.1235070E+00
          4   -1    0    0  501    0  0.00000000000E+00  0.00000000000E+00  0.48692399567E+01  0.50321365001E+01  0.12700000000E+01 0. -1.
         -4   -1    0    0    0  501 -0.00000000000E+00 -0.00000000000E+00 -0.78886256581E+03  0.78886358811E+03  0.12700000000E+01 0. -1.
         25    2    1    2    0    0  0.00000000000E+00  0.00000000000E+00 -0.78399332585E+03  0.79389572461E+03  0.12499954625E+03 0.  0.
    9000005    1    3    3    0    0  0.41386170254E+02 -0.56240055894E+00 -0.94635502695E+02  0.10329573928E+03  0.10000000000E+01 0.  0.
    9000005    1    3    3    0    0 -0.41386170254E+02  0.56240055894E+00 -0.68935782316E+03  0.69059998533E+03  0.10000000000E+01 0.  0.
<mgrwt>
<rscale>  0 0.12499955E+03</rscale>
<asrwt>0</asrwt>
<pdfrwt beam="1">  1        4 0.76172361E-03 0.12499955E+03</pdfrwt>
<pdfrwt beam="2">  1       -4 0.12137598E+00 0.12499955E+03</pdfrwt>
<totfact> 0.38539104E+03</totfact>
</mgrwt>
</event>
<event>
 5    1  0.3276024E-002  0.1249998E+03  0.7818608E-02  0.1235070E+00
         -4   -1    0    0    0  501 -0.00000000000E+00  0.00000000000E+00  0.78026514149E+02  0.78036849054E+02  0.12700000000E+01 0. -1.
          4   -1    0    0  501    0  0.00000000000E+00 -0.00000000000E+00 -0.50041215830E+02  0.50057328951E+02  0.12700000000E+01 0. -1.
         25    2    1    2    0    0  0.00000000000E+00  0.00000000000E+00  0.27985298319E+02  0.12809417800E+03  0.12499976607E+03 0.  0.
    9000005    1    3    3    0    0  0.54660610026E+02  0.11473558444E+02 -0.14733612879E+02  0.57771136221E+02  0.10000000000E+01 0.  0.
    9000005    1    3    3    0    0 -0.54660610026E+02 -0.11473558444E+02  0.42718911199E+02  0.70323041784E+02  0.10000000000E+01 0.  0.
<mgrwt>
<rscale>  0 0.12499977E+03</rscale>
<asrwt>0</asrwt>
<pdfrwt beam="2">  1        4 0.77006831E-02 0.12499977E+03</pdfrwt>
<pdfrwt beam="1">  1       -4 0.12006114E-01 0.12499977E+03</pdfrwt>
<totfact> 0.10385509E+04</totfact>
</mgrwt>
</event>
<event>
 5    1  0.3276024E-002  0.1249967E+03  0.7818608E-02  0.1235074E+00
          4   -1    0    0  501    0  0.00000000000E+00  0.00000000000E+00  0.59495626058E+02  0.59509179293E+02  0.12700000000E+01 0. -1.
         -4   -1    0    0    0  501 -0.00000000000E+00 -0.00000000000E+00 -0.65625458339E+02  0.65637745865E+02  0.12700000000E+01 0. -1.
         25    2    1    2    0    0  0.00000000000E+00  0.00000000000E+00 -0.61298322804E+01  0.12514692516E+03  0.12499671209E+03 0.  0.
    9000005    1    3    3    0    0  0.12364425631E+02 -0.17283198503E+02 -0.61901654757E+02  0.65455349922E+02  0.10000000000E+01 0.  0.
    9000005    1    3    3    0    0 -0.12364425631E+02  0.17283198503E+02  0.55771822477E+02  0.59691575235E+02  0.10000000000E+01 0.  0.
<mgrwt>
<rscale>  0 0.12499671E+03</rscale>
<asrwt>0</asrwt>
<pdfrwt beam="1">  1        4 0.91551610E-02 0.12499671E+03</pdfrwt>
<pdfrwt beam="2">  1       -4 0.10098212E-01 0.12499671E+03</pdfrwt>
<totfact> 0.10450449E+04</totfact>
</mgrwt>
</event>
<event>
 5    1  0.3276024E-002  0.1249968E+03  0.7818608E-02  0.1235074E+00
          4   -1    0    0  501    0  0.00000000000E+00  0.00000000000E+00  0.81370386270E+03  0.81370485379E+03  0.12700000000E+01 0.  1.
         -4   -1    0    0    0  501 -0.00000000000E+00 -0.00000000000E+00 -0.47153238905E+01  0.48833573894E+01  0.12700000000E+01 0.  1.
         25    2    1    2    0    0  0.00000000000E+00  0.00000000000E+00  0.80898853881E+03  0.81858821118E+03  0.12499681415E+03 0.  0.
    9000005    1    3    3    0    0 -0.33710674339E+02  0.39402418596E+02  0.17611875896E+03  0.18359677942E+03  0.10000000000E+01 0.  0.
    9000005    1    3    3    0    0  0.33710674339E+02 -0.39402418596E+02  0.63286977985E+03  0.63499143175E+03  0.10000000000E+01 0.  0.
<mgrwt>
<rscale>  0 0.12499681E+03</rscale>
<asrwt>0</asrwt>
<pdfrwt beam="1">  1        4 0.12519815E+00 0.12499681E+03</pdfrwt>
<pdfrwt beam="2">  1       -4 0.73843670E-03 0.12499681E+03</pdfrwt>
<totfact> 0.37450875E+03</totfact>
</mgrwt>
</event>
<event>
 5    1  0.3276024E-002  0.1250028E+03  0.7818608E-02  0.1235065E+00
          4   -1    0    0  501    0  0.00000000000E+00  0.00000000000E+00  0.48503763719E+02  0.48520387415E+02  0.12700000000E+01 0. -1.
         -4   -1    0    0    0  501 -0.00000000000E+00 -0.00000000000E+00 -0.80503137270E+02  0.80513154269E+02  0.12700000000E+01 0. -1.
         25    2    1    2    0    0  0.00000000000E+00  0.00000000000E+00 -0.31999373551E+02  0.12903354168E+03  0.12500277986E+03 0.  0.
    9000005    1    3    3    0    0  0.59836173919E+02  0.37017435168E+01 -0.34213864245E+02  0.69033753490E+02  0.10000000000E+01 0.  0.
    9000005    1    3    3    0    0 -0.59836173919E+02 -0.37017435168E+01  0.22144906942E+01  0.59999788194E+02  0.10000000000E+01 0.  0.
<mgrwt>
<rscale>  0 0.12500278E+03</rscale>
<asrwt>0</asrwt>
<pdfrwt beam="1">  1        4 0.74641668E-02 0.12500278E+03</pdfrwt>
<pdfrwt beam="2">  1       -4 0.12387147E-01 0.12500278E+03</pdfrwt>
<totfact> 0.10364576E+04</totfact>
</mgrwt>
</event>
<event>
 5    1  0.3276024E-002  0.1249992E+03  0.7818608E-02  0.1235071E+00
          4   -1    0    0  501    0  0.00000000000E+00  0.00000000000E+00  0.28113331847E+03  0.28113618703E+03  0.12700000000E+01 0. -1.
         -4   -1    0    0    0  501 -0.00000000000E+00 -0.00000000000E+00 -0.13862499507E+02  0.13920552883E+02  0.12700000000E+01 0. -1.
         25    2    1    2    0    0  0.00000000000E+00  0.00000000000E+00  0.26727081897E+03  0.29505673991E+03  0.12499915638E+03 0.  0.
    9000005    1    3    3    0    0  0.55585740138E+02 -0.14670303245E+02  0.19146475154E+03  0.19991183903E+03  0.10000000000E+01 0.  0.
    9000005    1    3    3    0    0 -0.55585740138E+02  0.14670303245E+02  0.75806067430E+02  0.95144900878E+02  0.10000000000E+01 0.  0.
<mgrwt>
<rscale>  0 0.12499916E+03</rscale>
<asrwt>0</asrwt>
<pdfrwt beam="1">  1        4 0.43255966E-01 0.12499916E+03</pdfrwt>
<pdfrwt beam="2">  1       -4 0.21373785E-02 0.12499916E+03</pdfrwt>
<totfact> 0.76224552E+03</totfact>
</mgrwt>
</event>
<event>
 5    1  0.3276024E-002  0.1249983E+03  0.7818608E-02  0.1235072E+00
          4   -1    0    0  501    0  0.00000000000E+00  0.00000000000E+00  0.20071829675E+02  0.20111967743E+02  0.12700000000E+01 0. -1.
         -4   -1    0    0    0  501 -0.00000000000E+00 -0.00000000000E+00 -0.19437161441E+03  0.19437576338E+03  0.12700000000E+01 0. -1.
         25    2    1    2    0    0  0.00000000000E+00  0.00000000000E+00 -0.17429978473E+03  0.21448773112E+03  0.12499828736E+03 0.  0.
    9000005    1    3    3    0    0 -0.49350991554E+01 -0.58030661641E+02 -0.48276321338E+02  0.75653923203E+02  0.10000000000E+01 0.  0.
    9000005    1    3    3    0    0  0.49350991554E+01  0.58030661641E+02 -0.12602346340E+03  0.13883380792E+03  0.10000000000E+01 0.  0.
<mgrwt>
<rscale>  0 0.12499829E+03</rscale>
<asrwt>0</asrwt>
<pdfrwt beam="1">  1        4 0.30913806E-02 0.12499829E+03</pdfrwt>
<pdfrwt beam="2">  1       -4 0.29906731E-01 0.12499829E+03</pdfrwt>
<totfact> 0.87751539E+03</totfact>
</mgrwt>
</event>
<event>
 5    1  0.3276024E-002  0.1250032E+03  0.7818608E-02  0.1235064E+00
          4   -1    0    0  501    0  0.00000000000E+00  0.00000000000E+00  0.25855928112E+02  0.25887099461E+02  0.12700000000E+01 0.  1.
         -4   -1    0    0    0  501 -0.00000000000E+00 -0.00000000000E+00 -0.15096047516E+03  0.15096581720E+03  0.12700000000E+01 0.  1.
         25    2    1    2    0    0  0.00000000000E+00  0.00000000000E+00 -0.12510454705E+03  0.17685291666E+03  0.12500322571E+03 0.  0.
    9000005    1    3    3    0    0 -0.27346793191E+02 -0.42137678158E+02 -0.11514773419E+03  0.12563212849E+03  0.10000000000E+01 0.  0.
    9000005    1    3    3    0    0  0.27346793191E+02  0.42137678158E+02 -0.99568128590E+01  0.51220788170E+02  0.10000000000E+01 0.  0.
<mgrwt>
<rscale>  0 0.12500323E+03</rscale>
<asrwt>0</asrwt>
<pdfrwt beam="1">  1        4 0.39806439E-02 0.12500323E+03</pdfrwt>
<pdfrwt beam="2">  1       -4 0.23227497E-01 0.12500323E+03</pdfrwt>
<totfact> 0.94179761E+03</totfact>
</mgrwt>
</event>
<event>
 5    1  0.3276024E-002  0.1249951E+03  0.7818608E-02  0.1235077E+00
         -4   -1    0    0    0  501 -0.00000000000E+00  0.00000000000E+00  0.23581150603E+03  0.23581492590E+03  0.12700000000E+01 0.  1.
          4   -1    0    0  501    0  0.00000000000E+00 -0.00000000000E+00 -0.16535946581E+02  0.16584644383E+02  0.12700000000E+01 0.  1.
         25    2    1    2    0    0  0.00000000000E+00  0.00000000000E+00  0.21927555945E+03  0.25239957028E+03  0.12499508833E+03 0.  0.
    9000005    1    3    3    0    0 -0.18828386895E+02  0.34875704664E+02  0.12081043515E+02  0.41446043735E+02  0.10000000000E+01 0.  0.
    9000005    1    3    3    0    0  0.18828386895E+02 -0.34875704664E+02  0.20719451593E+03  0.21095352655E+03  0.10000000000E+01 0.  0.
<mgrwt>
<rscale>  0 0.12499509E+03</rscale>
<asrwt>0</asrwt>
<pdfrwt beam="2">  1        4 0.25480009E-02 0.12499509E+03</pdfrwt>
<pdfrwt beam="1">  1       -4 0.36282701E-01 0.12499509E+03</pdfrwt>
<totfact> 0.81993617E+03</totfact>
</mgrwt>
</event>
<event>
 5    1  0.3276024E-002  0.1249987E+03  0.7818608E-02  0.1235071E+00
         -4   -1    0    0    0  501 -0.00000000000E+00  0.00000000000E+00  0.89813544106E+02  0.89822522816E+02  0.12700000000E+01 0.  1.
          4   -1    0    0  501    0  0.00000000000E+00 -0.00000000000E+00 -0.43471533890E+02  0.43490081154E+02  0.12700000000E+01 0.  1.
         25    2    1    2    0    0  0.00000000000E+00  0.00000000000E+00  0.46342010216E+02  0.13331260397E+03  0.12499867386E+03 0.  0.
    9000005    1    3    3    0    0  0.16943292489E+02  0.79014958730E+01  0.86766421673E+02  0.88763284794E+02  0.10000000000E+01 0.  0.
    9000005    1    3    3    0    0 -0.16943292489E+02 -0.79014958730E+01 -0.40424411457E+02  0.44549319176E+02  0.10000000000E+01 0.  0.
<mgrwt>
<rscale>  0 0.12499867E+03</rscale>
<asrwt>0</asrwt>
<pdfrwt beam="2">  1        4 0.66900457E-02 0.12499867E+03</pdfrwt>
<pdfrwt beam="1">  1       -4 0.13819586E-01 0.12499867E+03</pdfrwt>
<totfact> 0.10274068E+04</totfact>
</mgrwt>
</event>
<event>
 5    1  0.3276024E-002  0.1250014E+03  0.7818608E-02  0.1235067E+00
          4   -1    0    0  501    0  0.00000000000E+00  0.00000000000E+00  0.50781318053E+02  0.50797196411E+02  0.12700000000E+01 0.  1.
         -4   -1    0    0    0  501 -0.00000000000E+00 -0.00000000000E+00 -0.76891517739E+02  0.76902005177E+02  0.12700000000E+01 0.  1.
         25    2    1    2    0    0  0.00000000000E+00  0.00000000000E+00 -0.26110199685E+02  0.12769920159E+03  0.12500137423E+03 0.  0.
    9000005    1    3    3    0    0  0.51097694123E+02  0.20291093949E+02  0.17295235045E+02  0.57643976212E+02  0.10000000000E+01 0.  0.
    9000005    1    3    3    0    0 -0.51097694123E+02 -0.20291093949E+02 -0.43405434730E+02  0.70055225376E+02  0.10000000000E+01 0.  0.
<mgrwt>
<rscale>  0 0.12500137E+03</rscale>
<asrwt>0</asrwt>
<pdfrwt beam="1">  1        4 0.78145386E-02 0.12500137E+03</pdfrwt>
<pdfrwt beam="2">  1       -4 0.11831492E-01 0.12500137E+03</pdfrwt>
<totfact> 0.10393666E+04</totfact>
</mgrwt>
</event>
<event>
 5    1  0.3276024E-002  0.1250023E+03  0.7818608E-02  0.1235066E+00
         -4   -1    0    0    0  501 -0.00000000000E+00  0.00000000000E+00  0.23100885009E+03  0.23101234105E+03  0.12700000000E+01 0.  1.
          4   -1    0    0  501    0  0.00000000000E+00 -0.00000000000E+00 -0.16882680887E+02  0.16930381388E+02  0.12700000000E+01 0.  1.
         25    2    1    2    0    0  0.00000000000E+00  0.00000000000E+00  0.21412616920E+03  0.24794272244E+03  0.12500230908E+03 0.  0.
    9000005    1    3    3    0    0  0.32839285997E+02 -0.29643105391E+02  0.19512913199E+02  0.48362032459E+02  0.10000000000E+01 0.  0.
    9000005    1    3    3    0    0 -0.32839285997E+02  0.29643105391E+02  0.19461325600E+03  0.19958068998E+03  0.10000000000E+01 0.  0.
<mgrwt>
<rscale>  0 0.12500231E+03</rscale>
<asrwt>0</asrwt>
<pdfrwt beam="2">  1        4 0.26012736E-02 0.12500231E+03</pdfrwt>
<pdfrwt beam="1">  1       -4 0.35543757E-01 0.12500231E+03</pdfrwt>
<totfact> 0.82624232E+03</totfact>
</mgrwt>
</event>
<event>
 5    1  0.3276024E-002  0.1250004E+03  0.7818608E-02  0.1235069E+00
         -4   -1    0    0    0  501 -0.00000000000E+00  0.00000000000E+00  0.13431904071E+02  0.13491810367E+02  0.12700000000E+01 0. -1.
          4   -1    0    0  501    0  0.00000000000E+00 -0.00000000000E+00 -0.29011248309E+03  0.29011526286E+03  0.12700000000E+01 0. -1.
         25    2    1    2    0    0  0.00000000000E+00  0.00000000000E+00 -0.27668057902E+03  0.30360707323E+03  0.12500044843E+03 0.  0.
    9000005    1    3    3    0    0  0.34776347085E+02  0.32387090177E+02 -0.23690963055E+03  0.24163089822E+03  0.10000000000E+01 0.  0.
    9000005    1    3    3    0    0 -0.34776347085E+02 -0.32387090177E+02 -0.39770948472E+02  0.61976175011E+02  0.10000000000E+01 0.  0.
<mgrwt>
<rscale>  0 0.12500045E+03</rscale>
<asrwt>0</asrwt>
<pdfrwt beam="2">  1        4 0.44637507E-01 0.12500045E+03</pdfrwt>
<pdfrwt beam="1">  1       -4 0.20712690E-02 0.12500045E+03</pdfrwt>
<totfact> 0.75147844E+03</totfact>
</mgrwt>
</event>
<event>
 5    1  0.3276024E-002  0.1250069E+03  0.7818608E-02  0.1235059E+00
          4   -1    0    0  501    0  0.00000000000E+00  0.00000000000E+00  0.50483583081E+01  0.52056528512E+01  0.12700000000E+01 0. -1.
         -4   -1    0    0    0  501 -0.00000000000E+00 -0.00000000000E+00 -0.76182302448E+03  0.76182408306E+03  0.12700000000E+01 0. -1.
         25    2    1    2    0    0  0.00000000000E+00  0.00000000000E+00 -0.75677466617E+03  0.76702973591E+03  0.12500688145E+03 0.  0.
    9000005    1    3    3    0    0 -0.20055700877E+02  0.18030216083E+02 -0.32464012051E+02  0.42216488581E+02  0.10000000000E+01 0.  0.
    9000005    1    3    3    0    0  0.20055700877E+02 -0.18030216083E+02 -0.72431065412E+03  0.72481324733E+03  0.10000000000E+01 0.  0.
<mgrwt>
<rscale>  0 0.12500688E+03</rscale>
<asrwt>0</asrwt>
<pdfrwt beam="1">  1        4 0.78885212E-03 0.12500688E+03</pdfrwt>
<pdfrwt beam="2">  1       -4 0.11721563E+00 0.12500688E+03</pdfrwt>
<totfact> 0.39766591E+03</totfact>
</mgrwt>
</event>
<event>
 5    1  0.3276024E-002  0.1249997E+03  0.7818608E-02  0.1235070E+00
         -4   -1    0    0    0  501 -0.00000000000E+00  0.00000000000E+00  0.15188020327E+03  0.15188551295E+03  0.12700000000E+01 0. -1.
          4   -1    0    0  501    0  0.00000000000E+00 -0.00000000000E+00 -0.25697724394E+02  0.25729087411E+02  0.12700000000E+01 0. -1.
         25    2    1    2    0    0  0.00000000000E+00  0.00000000000E+00  0.12618247888E+03  0.17761460037E+03  0.12499971315E+03 0.  0.
    9000005    1    3    3    0    0 -0.62024423984E+02  0.20879238440E+01  0.52664796074E+02  0.81400057383E+02  0.10000000000E+01 0.  0.
    9000005    1    3    3    0    0  0.62024423984E+02 -0.20879238440E+01  0.73517682803E+02  0.96214542982E+02  0.10000000000E+01 0.  0.
<mgrwt>
<rscale>  0 0.12499971E+03</rscale>
<asrwt>0</asrwt>
<pdfrwt beam="2">  1        4 0.39563171E-02 0.12499971E+03</pdfrwt>
<pdfrwt beam="1">  1       -4 0.23369006E-01 0.12499971E+03</pdfrwt>
<totfact> 0.94048758E+03</totfact>
</mgrwt>
</event>
<event>
 5    1  0.3276024E-002  0.1249998E+03  0.7818608E-02  0.1235070E+00
          4   -1    0    0  501    0  0.00000000000E+00  0.00000000000E+00  0.29605549609E+02  0.29632776914E+02  0.12700000000E+01 0.  1.
         -4   -1    0    0    0  501 -0.00000000000E+00 -0.00000000000E+00 -0.13185186306E+03  0.13185797925E+03  0.12700000000E+01 0.  1.
         25    2    1    2    0    0  0.00000000000E+00  0.00000000000E+00 -0.10224631345E+03  0.16149075617E+03  0.12499982285E+03 0.  0.
    9000005    1    3    3    0    0 -0.61599468371E+02  0.43353484631E+01 -0.63511470508E+02  0.88588919375E+02  0.10000000000E+01 0.  0.
    9000005    1    3    3    0    0  0.61599468371E+02 -0.43353484631E+01 -0.38734842946E+02  0.72901836794E+02  0.10000000000E+01 0.  0.
<mgrwt>
<rscale>  0 0.12499982E+03</rscale>
<asrwt>0</asrwt>
<pdfrwt beam="1">  1        4 0.45572649E-02 0.12499982E+03</pdfrwt>
<pdfrwt beam="2">  1       -4 0.20287467E-01 0.12499982E+03</pdfrwt>
<totfact> 0.97056533E+03</totfact>
</mgrwt>
</event>
<event>
 4    1  0.3276024E-002  0.1249348E+03  0.7818608E-02  0.1235171E+00
         -4   -1    0    0    0  501 -0.00000000000E+00  0.00000000000E+00  0.42314545126E+02  0.42333599294E+02  0.12700000000E+01 0.  1.
          4   -1    0    0  501    0  0.00000000000E+00 -0.00000000000E+00 -0.92174059338E+02  0.92182808131E+02  0.12700000000E+01 0.  1.
    9000005    1    1    2    0    0  0.19316005620E+02  0.50165221486E+02 -0.59173269115E+02  0.79950817992E+02  0.10000000000E+01 0.  0.
    9000005    1    1    2    0    0 -0.19316005620E+02 -0.50165221486E+02  0.93137549027E+01  0.54565589433E+02  0.10000000000E+01 0.  0.
<mgrwt>
<rscale>  0 0.12493475E+03</rscale>
<asrwt>0</asrwt>
<pdfrwt beam="2">  1        4 0.14182763E-01 0.12493475E+03</pdfrwt>
<pdfrwt beam="1">  1       -4 0.65120687E-02 0.12493475E+03</pdfrwt>
<totfact> 0.10263369E+04</totfact>
</mgrwt>
</event>
<event>
 5    1  0.3276024E-002  0.1249983E+03  0.7818608E-02  0.1235072E+00
          4   -1    0    0  501    0  0.00000000000E+00  0.00000000000E+00  0.15011189344E+03  0.15011726567E+03  0.12700000000E+01 0. -1.
         -4   -1    0    0    0  501 -0.00000000000E+00 -0.00000000000E+00 -0.26000205944E+02  0.26031204528E+02  0.12700000000E+01 0. -1.
         25    2    1    2    0    0  0.00000000000E+00  0.00000000000E+00  0.12411168749E+03  0.17614847019E+03  0.12499829031E+03 0.  0.
    9000005    1    3    3    0    0  0.58854290257E+02 -0.19859356130E+02  0.71708823207E+02  0.94875586076E+02  0.10000000000E+01 0.  0.
    9000005    1    3    3    0    0 -0.58854290257E+02  0.19859356130E+02  0.52402864285E+02  0.81272884117E+02  0.10000000000E+01 0.  0.
<mgrwt>
<rscale>  0 0.12499829E+03</rscale>
<asrwt>0</asrwt>
<pdfrwt beam="1">  1        4 0.23096935E-01 0.12499829E+03</pdfrwt>
<pdfrwt beam="2">  1       -4 0.40028294E-02 0.12499829E+03</pdfrwt>
<totfact> 0.94318538E+03</totfact>
</mgrwt>
</event>
<event>
 5    1  0.3276024E-002  0.1250280E+03  0.7818608E-02  0.1235026E+00
         -4   -1    0    0    0  501 -0.00000000000E+00  0.00000000000E+00  0.28132560682E+02  0.28161212164E+02  0.12700000000E+01 0.  1.
          4   -1    0    0  501    0  0.00000000000E+00 -0.00000000000E+00 -0.13881154252E+03  0.13881735207E+03  0.12700000000E+01 0.  1.
         25    2    1    2    0    0  0.00000000000E+00  0.00000000000E+00 -0.11067898184E+03  0.16697856423E+03  0.12502801244E+03 0.  0.
    9000005    1    3    3    0    0 -0.26735815971E+02  0.32095266949E+02 -0.11743931578E+03  0.12465112477E+03  0.10000000000E+01 0.  0.
    9000005    1    3    3    0    0  0.26735815971E+02 -0.32095266949E+02  0.67603339468E+01  0.42327439460E+02  0.10000000000E+01 0.  0.
<mgrwt>
<rscale>  0 0.12502801E+03</rscale>
<asrwt>0</asrwt>
<pdfrwt beam="2">  1        4 0.21358272E-01 0.12502801E+03</pdfrwt>
<pdfrwt beam="1">  1       -4 0.43307372E-02 0.12502801E+03</pdfrwt>
<totfact> 0.95953608E+03</totfact>
</mgrwt>
</event>
<event>
 5    1  0.3276024E-002  0.1250003E+03  0.7818608E-02  0.1235069E+00
         -4   -1    0    0    0  501 -0.00000000000E+00  0.00000000000E+00  0.78846944329E+02  0.78857171710E+02  0.12700000000E+01 0. -1.
          4   -1    0    0  501    0  0.00000000000E+00 -0.00000000000E+00 -0.49520815266E+02  0.49537097660E+02  0.12700000000E+01 0. -1.
         25    2    1    2    0    0  0.00000000000E+00  0.00000000000E+00  0.29326129063E+02  0.12839426937E+03  0.12500026624E+03 0.  0.
    9000005    1    3    3    0    0  0.42408766749E+02  0.28137304084E+00  0.61807929678E+02  0.74965344253E+02  0.10000000000E+01 0.  0.
    9000005    1    3    3    0    0 -0.42408766749E+02 -0.28137304084E+00 -0.32481800615E+02  0.53428925117E+02  0.10000000000E+01 0.  0.
<mgrwt>
<rscale>  0 0.12500027E+03</rscale>
<asrwt>0</asrwt>
<pdfrwt beam="2">  1        4 0.76206262E-02 0.12500027E+03</pdfrwt>
<pdfrwt beam="1">  1       -4 0.12132338E-01 0.12500027E+03</pdfrwt>
<totfact> 0.10378919E+04</totfact>
</mgrwt>
</event>
<event>
 5    1  0.3276024E-002  0.1249995E+03  0.7818608E-02  0.1235070E+00
         -4   -1    0    0    0  501 -0.00000000000E+00  0.00000000000E+00  0.13921675321E+02  0.13979482957E+02  0.12700000000E+01 0.  1.
          4   -1    0    0  501    0  0.00000000000E+00 -0.00000000000E+00 -0.27994482649E+03  0.27994770722E+03  0.12700000000E+01 0.  1.
         25    2    1    2    0    0  0.00000000000E+00  0.00000000000E+00 -0.26602315117E+03  0.29392719018E+03  0.12499950467E+03 0.  0.
    9000005    1    3    3    0    0 -0.32455514735E+01 -0.12577075956E+02  0.10723947968E+02  0.16873633397E+02  0.10000000000E+01 0.  0.
    9000005    1    3    3    0    0  0.32455514735E+01  0.12577075956E+02 -0.27674709914E+03  0.27705355678E+03  0.10000000000E+01 0.  0.
<mgrwt>
<rscale>  0 0.12499950E+03</rscale>
<asrwt>0</asrwt>
<pdfrwt beam="2">  1        4 0.43073099E-01 0.12499950E+03</pdfrwt>
<pdfrwt beam="1">  1       -4 0.21464647E-02 0.12499950E+03</pdfrwt>
<totfact> 0.76367812E+03</totfact>
</mgrwt>
</event>
<event>
 5    1  0.3276024E-002  0.1250080E+03  0.7818608E-02  0.1235057E+00
         -4   -1    0    0    0  501 -0.00000000000E+00  0.00000000000E+00  0.20648472383E+02  0.20687491673E+02  0.12700000000E+01 0. -1.
          4   -1    0    0  501    0  0.00000000000E+00 -0.00000000000E+00 -0.18898297615E+03  0.18898724341E+03  0.12700000000E+01 0. -1.
         25    2    1    2    0    0  0.00000000000E+00  0.00000000000E+00 -0.16833450376E+03  0.20967473509E+03  0.12500795725E+03 0.  0.
    9000005    1    3    3    0    0  0.96301400234E+01 -0.60634658710E+02 -0.64574803731E+02  0.89107837538E+02  0.10000000000E+01 0.  0.
    9000005    1    3    3    0    0 -0.96301400234E+01  0.60634658710E+02 -0.10375970003E+03  0.12056689755E+03  0.10000000000E+01 0.  0.
<mgrwt>
<rscale>  0 0.12500796E+03</rscale>
<asrwt>0</asrwt>
<pdfrwt beam="2">  1        4 0.29077633E-01 0.12500796E+03</pdfrwt>
<pdfrwt beam="1">  1       -4 0.31800179E-02 0.12500796E+03</pdfrwt>
<totfact> 0.88513281E+03</totfact>
</mgrwt>
</event>
<event>
 5    1  0.3276024E-002  0.1250022E+03  0.7818608E-02  0.1235066E+00
         -4   -1    0    0    0  501 -0.00000000000E+00  0.00000000000E+00  0.13936222150E+04  0.13936227936E+04  0.12700000000E+01 0.  1.
          4   -1    0    0  501    0  0.00000000000E+00 -0.00000000000E+00 -0.26585856335E+01  0.29463498724E+01  0.12700000000E+01 0.  1.
         25    2    1    2    0    0  0.00000000000E+00  0.00000000000E+00  0.13909636293E+04  0.13965691435E+04  0.12500221790E+03 0.  0.
    9000005    1    3    3    0    0 -0.45978757844E+01  0.77422832362E+01  0.13863910471E+04  0.13864206500E+04  0.10000000000E+01 0.  0.
    9000005    1    3    3    0    0  0.45978757844E+01 -0.77422832362E+01  0.45725822541E+01  0.10148493480E+02  0.10000000000E+01 0.  0.
<mgrwt>
<rscale>  0 0.12500222E+03</rscale>
<asrwt>0</asrwt>
<pdfrwt beam="2">  1        4 0.43119284E-03 0.12500222E+03</pdfrwt>
<pdfrwt beam="1">  1       -4 0.21442587E+00 0.12500222E+03</pdfrwt>
<totfact> 0.20053659E+03</totfact>
</mgrwt>
</event>
<event>
 5    1  0.3276024E-002  0.1249978E+03  0.7818608E-02  0.1235073E+00
          4   -1    0    0  501    0  0.00000000000E+00  0.00000000000E+00  0.12113239815E+03  0.12113905556E+03  0.12700000000E+01 0. -1.
         -4   -1    0    0    0  501 -0.00000000000E+00 -0.00000000000E+00 -0.32226574365E+02  0.32251589036E+02  0.12700000000E+01 0. -1.
         25    2    1    2    0    0  0.00000000000E+00  0.00000000000E+00  0.88905823782E+02  0.15339064459E+03  0.12499777736E+03 0.  0.
    9000005    1    3    3    0    0  0.33742158668E+02 -0.45744955054E+02  0.76310954463E+02  0.95160369668E+02  0.10000000000E+01 0.  0.
    9000005    1    3    3    0    0 -0.33742158668E+02  0.45744955054E+02  0.12594869320E+02  0.58230274923E+02  0.10000000000E+01 0.  0.
<mgrwt>
<rscale>  0 0.12499778E+03</rscale>
<asrwt>0</asrwt>
<pdfrwt beam="1">  1        4 0.18638190E-01 0.12499778E+03</pdfrwt>
<pdfrwt beam="2">  1       -4 0.49603708E-02 0.12499778E+03</pdfrwt>
<totfact> 0.98636999E+03</totfact>
</mgrwt>
</event>
<event>
 5    1  0.3276024E-002  0.1249987E+03  0.7818608E-02  0.1235071E+00
         -4   -1    0    0    0  501 -0.00000000000E+00  0.00000000000E+00  0.83336533332E+02  0.83346209798E+02  0.12700000000E+01 0. -1.
          4   -1    0    0  501    0  0.00000000000E+00 -0.00000000000E+00 -0.46851186341E+02  0.46868396192E+02  0.12700000000E+01 0. -1.
         25    2    1    2    0    0  0.00000000000E+00  0.00000000000E+00  0.36485346990E+02  0.13021460599E+03  0.12499865227E+03 0.  0.
    9000005    1    3    3    0    0  0.43633862676E+02 -0.14102581091E+02 -0.25983180256E+02  0.52715485597E+02  0.10000000000E+01 0.  0.
    9000005    1    3    3    0    0 -0.43633862676E+02  0.14102581091E+02  0.62468527246E+02  0.77499120393E+02  0.10000000000E+01 0.  0.
<mgrwt>
<rscale>  0 0.12499865E+03</rscale>
<asrwt>0</asrwt>
<pdfrwt beam="2">  1        4 0.72099431E-02 0.12499865E+03</pdfrwt>
<pdfrwt beam="1">  1       -4 0.12823073E-01 0.12499865E+03</pdfrwt>
<totfact> 0.10340233E+04</totfact>
</mgrwt>
</event>
<event>
 5    1  0.3276024E-002  0.1250013E+03  0.7818608E-02  0.1235067E+00
          4   -1    0    0  501    0  0.00000000000E+00  0.00000000000E+00  0.62140210214E+02  0.62153186769E+02  0.12700000000E+01 0. -1.
         -4   -1    0    0    0  501 -0.00000000000E+00 -0.00000000000E+00 -0.62837220048E+02  0.62850052692E+02  0.12700000000E+01 0. -1.
         25    2    1    2    0    0  0.00000000000E+00  0.00000000000E+00 -0.69700983385E+00  0.12500323946E+03  0.12500129621E+03 0.  0.
    9000005    1    3    3    0    0 -0.27648349983E+02 -0.54105660485E+02 -0.14959593084E+02  0.62583090196E+02  0.10000000000E+01 0.  0.
    9000005    1    3    3    0    0  0.27648349983E+02  0.54105660485E+02  0.14262583250E+02  0.62420149265E+02  0.10000000000E+01 0.  0.
<mgrwt>
<rscale>  0 0.12500130E+03</rscale>
<asrwt>0</asrwt>
<pdfrwt beam="1">  1        4 0.95620177E-02 0.12500130E+03</pdfrwt>
<pdfrwt beam="2">  1       -4 0.96692499E-02 0.12500130E+03</pdfrwt>
<totfact> 0.10452486E+04</totfact>
</mgrwt>
</event>
<event>
 5    1  0.3276024E-002  0.1250003E+03  0.7818608E-02  0.1235069E+00
         -4   -1    0    0    0  501 -0.00000000000E+00  0.00000000000E+00  0.19467245274E+03  0.19467659529E+03  0.12700000000E+01 0. -1.
          4   -1    0    0  501    0  0.00000000000E+00 -0.00000000000E+00 -0.20041407266E+02  0.20081606141E+02  0.12700000000E+01 0. -1.
         25    2    1    2    0    0  0.00000000000E+00  0.00000000000E+00  0.17463104547E+03  0.21475820144E+03  0.12500033216E+03 0.  0.
    9000005    1    3    3    0    0 -0.60339526748E+02  0.70376250298E+01  0.11250045215E+03  0.12785827462E+03  0.10000000000E+01 0.  0.
    9000005    1    3    3    0    0  0.60339526748E+02 -0.70376250298E+01  0.62130593319E+02  0.86899926815E+02  0.10000000000E+01 0.  0.
<mgrwt>
<rscale>  0 0.12500033E+03</rscale>
<asrwt>0</asrwt>
<pdfrwt beam="2">  1        4 0.30867042E-02 0.12500033E+03</pdfrwt>
<pdfrwt beam="1">  1       -4 0.29953020E-01 0.12500033E+03</pdfrwt>
<totfact> 0.87704000E+03</totfact>
</mgrwt>
</event>
<event>
 5    1  0.3276024E-002  0.1250013E+03  0.7818608E-02  0.1235067E+00
          4   -1    0    0  501    0  0.00000000000E+00  0.00000000000E+00  0.82613490862E+02  0.82623252008E+02  0.12700000000E+01 0. -1.
         -4   -1    0    0    0  501 -0.00000000000E+00 -0.00000000000E+00 -0.47263370171E+02  0.47280429989E+02  0.12700000000E+01 0. -1.
         25    2    1    2    0    0  0.00000000000E+00  0.00000000000E+00  0.35350120691E+02  0.12990368200E+03  0.12500134225E+03 0.  0.
    9000005    1    3    3    0    0  0.92532558360E+01  0.15169540218E+02  0.79937994448E+02  0.81895180874E+02  0.10000000000E+01 0.  0.
    9000005    1    3    3    0    0 -0.92532558360E+01 -0.15169540218E+02 -0.44587873757E+02  0.48008501124E+02  0.10000000000E+01 0.  0.
<mgrwt>
<rscale>  0 0.12500134E+03</rscale>
<asrwt>0</asrwt>
<pdfrwt beam="1">  1        4 0.12711831E-01 0.12500134E+03</pdfrwt>
<pdfrwt beam="2">  1       -4 0.72733509E-02 0.12500134E+03</pdfrwt>
<totfact> 0.10346255E+04</totfact>
</mgrwt>
</event>
<event>
 5    1  0.3276024E-002  0.1250059E+03  0.7818608E-02  0.1235060E+00
          4   -1    0    0  501    0  0.00000000000E+00  0.00000000000E+00  0.12372600320E+03  0.12373252106E+03  0.12700000000E+01 0.  1.
         -4   -1    0    0    0  501 -0.00000000000E+00 -0.00000000000E+00 -0.31554629138E+02  0.31580176061E+02  0.12700000000E+01 0.  1.
         25    2    1    2    0    0  0.00000000000E+00  0.00000000000E+00  0.92171374064E+02  0.15531269712E+03  0.12500588662E+03 0.  0.
    9000005    1    3    3    0    0 -0.33294274295E+02 -0.46090745163E+02  0.13859855297E+02  0.58531710033E+02  0.10000000000E+01 0.  0.
    9000005    1    3    3    0    0  0.33294274295E+02  0.46090745163E+02  0.78311518766E+02  0.96780987089E+02  0.10000000000E+01 0.  0.
<mgrwt>
<rscale>  0 0.12500589E+03</rscale>
<asrwt>0</asrwt>
<pdfrwt beam="1">  1        4 0.19037236E-01 0.12500589E+03</pdfrwt>
<pdfrwt beam="2">  1       -4 0.48570249E-02 0.12500589E+03</pdfrwt>
<totfact> 0.98241141E+03</totfact>
</mgrwt>
</event>
<event>
 5    1  0.3276024E-002  0.1250011E+03  0.7818608E-02  0.1235068E+00
          4   -1    0    0  501    0  0.00000000000E+00  0.00000000000E+00  0.85240376241E+03  0.85240470850E+03  0.12700000000E+01 0.  1.
         -4   -1    0    0    0  501 -0.00000000000E+00 -0.00000000000E+00 -0.44937537667E+01  0.46697669016E+01  0.12700000000E+01 0.  1.
         25    2    1    2    0    0  0.00000000000E+00  0.00000000000E+00  0.84791000865E+03  0.85707447540E+03  0.12500109450E+03 0.  0.
    9000005    1    3    3    0    0 -0.23258419899E+02  0.52655658518E+02  0.25716409058E+03  0.26352977433E+03  0.10000000000E+01 0.  0.
    9000005    1    3    3    0    0  0.23258419899E+02 -0.52655658518E+02  0.59074591806E+03  0.59354470108E+03  0.10000000000E+01 0.  0.
<mgrwt>
<rscale>  0 0.12500109E+03</rscale>
<asrwt>0</asrwt>
<pdfrwt beam="1">  1        4 0.13115259E+00 0.12500109E+03</pdfrwt>
<pdfrwt beam="2">  1       -4 0.70495930E-03 0.12500109E+03</pdfrwt>
<totfact> 0.35838723E+03</totfact>
</mgrwt>
</event>
<event>
 5    1  0.3276024E-002  0.1250041E+03  0.7818608E-02  0.1235063E+00
         -4   -1    0    0    0  501 -0.00000000000E+00  0.00000000000E+00  0.81936901148E+02  0.81946742887E+02  0.12700000000E+01 0.  1.
          4   -1    0    0  501    0  0.00000000000E+00 -0.00000000000E+00 -0.47655848879E+02  0.47672768248E+02  0.12700000000E+01 0.  1.
         25    2    1    2    0    0  0.00000000000E+00  0.00000000000E+00  0.34281052269E+02  0.12961951113E+03  0.12500410842E+03 0.  0.
    9000005    1    3    3    0    0  0.81260208798E+01 -0.38684037478E+02 -0.33051424302E+02  0.51535265783E+02  0.10000000000E+01 0.  0.
    9000005    1    3    3    0    0 -0.81260208798E+01  0.38684037478E+02  0.67332476570E+02  0.78084245351E+02  0.10000000000E+01 0.  0.
<mgrwt>
<rscale>  0 0.12500411E+03</rscale>
<asrwt>0</asrwt>
<pdfrwt beam="2">  1        4 0.73337277E-02 0.12500411E+03</pdfrwt>
<pdfrwt beam="1">  1       -4 0.12607736E-01 0.12500411E+03</pdfrwt>
<totfact> 0.10351694E+04</totfact>
</mgrwt>
</event>
<event>
 5    1  0.3276024E-002  0.1249971E+03  0.7818608E-02  0.1235074E+00
         -4   -1    0    0    0  501 -0.00000000000E+00  0.00000000000E+00  0.60278899402E+01  0.61602237890E+01  0.12700000000E+01 0.  1.
          4   -1    0    0  501    0  0.00000000000E+00 -0.00000000000E+00 -0.64083055958E+03  0.64083181802E+03  0.12700000000E+01 0.  1.
         25    2    1    2    0    0  0.00000000000E+00  0.00000000000E+00 -0.63480266964E+03  0.64699204181E+03  0.12499709111E+03 0.  0.
    9000005    1    3    3    0    0  0.18171685743E+01 -0.43172256180E+02 -0.83736772045E+02  0.94233713700E+02  0.10000000000E+01 0.  0.
    9000005    1    3    3    0    0 -0.18171685743E+01  0.43172256180E+02 -0.55106589759E+03  0.55275832811E+03  0.10000000000E+01 0.  0.
<mgrwt>
<rscale>  0 0.12499709E+03</rscale>
<asrwt>0</asrwt>
<pdfrwt beam="2">  1        4 0.98599540E-01 0.12499709E+03</pdfrwt>
<pdfrwt beam="1">  1       -4 0.93764452E-03 0.12499709E+03</pdfrwt>
<totfact> 0.46032429E+03</totfact>
</mgrwt>
</event>
<event>
 5    1  0.3276024E-002  0.1250120E+03  0.7818608E-02  0.1235050E+00
         -4   -1    0    0    0  501 -0.00000000000E+00  0.00000000000E+00  0.11501971029E+03  0.11502672148E+03  0.12700000000E+01 0.  1.
          4   -1    0    0  501    0  0.00000000000E+00 -0.00000000000E+00 -0.33948189005E+02  0.33971936017E+02  0.12700000000E+01 0.  1.
         25    2    1    2    0    0  0.00000000000E+00  0.00000000000E+00  0.81071521284E+02  0.14899865750E+03  0.12501203291E+03 0.  0.
    9000005    1    3    3    0    0  0.82802523537E+01 -0.51335012151E+02 -0.78905830083E+00  0.52014119858E+02  0.10000000000E+01 0.  0.
    9000005    1    3    3    0    0 -0.82802523537E+01  0.51335012151E+02  0.81860579585E+02  0.96984537642E+02  0.10000000000E+01 0.  0.
<mgrwt>
<rscale>  0 0.12501203E+03</rscale>
<asrwt>0</asrwt>
<pdfrwt beam="2">  1        4 0.52251643E-02 0.12501203E+03</pdfrwt>
<pdfrwt beam="1">  1       -4 0.17697706E-01 0.12501203E+03</pdfrwt>
<totfact> 0.99476731E+03</totfact>
</mgrwt>
</event>
<event>
 5    1  0.3276024E-002  0.1249986E+03  0.7818608E-02  0.1235072E+00
         -4   -1    0    0    0  501 -0.00000000000E+00  0.00000000000E+00  0.39754722859E+03  0.39754925715E+03  0.12700000000E+01 0. -1.
          4   -1    0    0  501    0  0.00000000000E+00 -0.00000000000E+00 -0.97825486535E+01  0.98646418160E+01  0.12700000000E+01 0. -1.
         25    2    1    2    0    0  0.00000000000E+00  0.00000000000E+00  0.38776467994E+03  0.40741389897E+03  0.12499855225E+03 0.  0.
    9000005    1    3    3    0    0  0.40179086713E+02 -0.86194736762E-01  0.37882630707E+02  0.55230970912E+02  0.10000000000E+01 0.  0.
    9000005    1    3    3    0    0 -0.40179086713E+02  0.86194736762E-01  0.34988204923E+03  0.35218292805E+03  0.10000000000E+01 0.  0.
<mgrwt>
<rscale>  0 0.12499855E+03</rscale>
<asrwt>0</asrwt>
<pdfrwt beam="2">  1        4 0.15114785E-02 0.12499855E+03</pdfrwt>
<pdfrwt beam="1">  1       -4 0.61167577E-01 0.12499855E+03</pdfrwt>
<totfact> 0.63840095E+03</totfact>
</mgrwt>
</event>
<event>
 5    1  0.3276024E-002  0.1250241E+03  0.7818608E-02  0.1235032E+00
          4   -1    0    0  501    0  0.00000000000E+00  0.00000000000E+00  0.27654009707E+02  0.27683156483E+02  0.12700000000E+01 0.  1.
         -4   -1    0    0    0  501 -0.00000000000E+00 -0.00000000000E+00 -0.14120250311E+03  0.14120821429E+03  0.12700000000E+01 0.  1.
         25    2    1    2    0    0  0.00000000000E+00  0.00000000000E+00 -0.11354849340E+03  0.16889137078E+03  0.12502413675E+03 0.  0.
    9000005    1    3    3    0    0  0.55562732733E+01 -0.53093973461E+02 -0.10069137511E+03  0.11397190536E+03  0.10000000000E+01 0.  0.
    9000005    1    3    3    0    0 -0.55562732733E+01  0.53093973461E+02 -0.12857118293E+02  0.54919465414E+02  0.10000000000E+01 0.  0.
<mgrwt>
<rscale>  0 0.12502414E+03</rscale>
<asrwt>0</asrwt>
<pdfrwt beam="1">  1        4 0.42571445E-02 0.12502414E+03</pdfrwt>
<pdfrwt beam="2">  1       -4 0.21726143E-01 0.12502414E+03</pdfrwt>
<totfact> 0.95603636E+03</totfact>
</mgrwt>
</event>
<event>
 5    1  0.3276024E-002  0.1250028E+03  0.7818608E-02  0.1235065E+00
          4   -1    0    0  501    0  0.00000000000E+00  0.00000000000E+00  0.28439917360E+02  0.28468259509E+02  0.12700000000E+01 0. -1.
         -4   -1    0    0    0  501 -0.00000000000E+00 -0.00000000000E+00 -0.13725749676E+03  0.13726337208E+03  0.12700000000E+01 0. -1.
         25    2    1    2    0    0  0.00000000000E+00  0.00000000000E+00 -0.10881757940E+03  0.16573163159E+03  0.12500283247E+03 0.  0.
    9000005    1    3    3    0    0 -0.69204339663E+00  0.60111234681E+02 -0.77048457865E+02  0.97730774673E+02  0.10000000000E+01 0.  0.
    9000005    1    3    3    0    0  0.69204339663E+00 -0.60111234681E+02 -0.31769121531E+02  0.68000856919E+02  0.10000000000E+01 0.  0.
<mgrwt>
<rscale>  0 0.12500283E+03</rscale>
<asrwt>0</asrwt>
<pdfrwt beam="1">  1        4 0.43780041E-02 0.12500283E+03</pdfrwt>
<pdfrwt beam="2">  1       -4 0.21119170E-01 0.12500283E+03</pdfrwt>
<totfact> 0.96242889E+03</totfact>
</mgrwt>
</event>
<event>
 5    1  0.3276024E-002  0.1250007E+03  0.7818608E-02  0.1235068E+00
          4   -1    0    0  501    0  0.00000000000E+00  0.00000000000E+00  0.18960312046E+01  0.22820679939E+01  0.12700000000E+01 0. -1.
         -4   -1    0    0    0  501 -0.00000000000E+00 -0.00000000000E+00 -0.18695047107E+04  0.18695051421E+04  0.12700000000E+01 0. -1.
         25    2    1    2    0    0  0.00000000000E+00  0.00000000000E+00 -0.18676086795E+04  0.18717872101E+04  0.12500072014E+03 0.  0.
    9000005    1    3    3    0    0  0.57317283911E+02  0.24255075031E+02 -0.10181336280E+04  0.10200346387E+04  0.10000000000E+01 0.  0.
    9000005    1    3    3    0    0 -0.57317283911E+02 -0.24255075031E+02 -0.84947505147E+03  0.85175257133E+03  0.10000000000E+01 0.  0.
<mgrwt>
<rscale>  0 0.12500072E+03</rscale>
<asrwt>0</asrwt>
<pdfrwt beam="1">  1        4 0.32142692E-03 0.12500072E+03</pdfrwt>
<pdfrwt beam="2">  1       -4 0.28764450E+00 0.12500072E+03</pdfrwt>
<totfact> 0.11628925E+03</totfact>
</mgrwt>
</event>
<event>
 5    1  0.3276024E-002  0.1250008E+03  0.7818608E-02  0.1235068E+00
          4   -1    0    0  501    0  0.00000000000E+00  0.00000000000E+00  0.85814418886E+01  0.86749089268E+01  0.12700000000E+01 0. -1.
         -4   -1    0    0    0  501 -0.00000000000E+00 -0.00000000000E+00 -0.45264350495E+03  0.45264528659E+03  0.12700000000E+01 0. -1.
         25    2    1    2    0    0  0.00000000000E+00  0.00000000000E+00 -0.44406206306E+03  0.46132019552E+03  0.12500082777E+03 0.  0.
    9000005    1    3    3    0    0 -0.22350346172E+02  0.14706789495E+02 -0.43045569967E+03  0.43128753403E+03  0.10000000000E+01 0.  0.
    9000005    1    3    3    0    0  0.22350346172E+02 -0.14706789495E+02 -0.13606363389E+02  0.30032661486E+02  0.10000000000E+01 0.  0.
<mgrwt>
<rscale>  0 0.12500083E+03</rscale>
<asrwt>0</asrwt>
<pdfrwt beam="1">  1        4 0.13275490E-02 0.12500083E+03</pdfrwt>
<pdfrwt beam="2">  1       -4 0.69644771E-01 0.12500083E+03</pdfrwt>
<totfact> 0.58994453E+03</totfact>
</mgrwt>
</event>
<event>
 5    1  0.3276024E-002  0.1249992E+03  0.7818608E-02  0.1235070E+00
          4   -1    0    0  501    0  0.00000000000E+00  0.00000000000E+00  0.29117527764E+01  0.31766655837E+01  0.12700000000E+01 0.  1.
         -4   -1    0    0    0  501 -0.00000000000E+00 -0.00000000000E+00 -0.12828929721E+04  0.12828936008E+04  0.12700000000E+01 0.  1.
         25    2    1    2    0    0  0.00000000000E+00  0.00000000000E+00 -0.12799812194E+04  0.12860702663E+04  0.12499923218E+03 0.  0.
    9000005    1    3    3    0    0 -0.24136482780E+02  0.57458181313E+02 -0.68735138886E+03  0.69017167732E+03  0.10000000000E+01 0.  0.
    9000005    1    3    3    0    0  0.24136482780E+02 -0.57458181313E+02 -0.59262983050E+03  0.59589858902E+03  0.10000000000E+01 0.  0.
<mgrwt>
<rscale>  0 0.12499923E+03</rscale>
<asrwt>0</asrwt>
<pdfrwt beam="1">  1        4 0.46838925E-03 0.12499923E+03</pdfrwt>
<pdfrwt beam="2">  1       -4 0.19738814E+00 0.12499923E+03</pdfrwt>
<totfact> 0.22560132E+03</totfact>
</mgrwt>
</event>
<event>
 5    1  0.3276024E-002  0.1249997E+03  0.7818608E-02  0.1235070E+00
         -4   -1    0    0    0  501 -0.00000000000E+00  0.00000000000E+00  0.11748263987E+03  0.11748950409E+03  0.12700000000E+01 0. -1.
          4   -1    0    0  501    0  0.00000000000E+00 -0.00000000000E+00 -0.33229458587E+02  0.33253718860E+02  0.12700000000E+01 0. -1.
         25    2    1    2    0    0  0.00000000000E+00  0.00000000000E+00  0.84253181283E+02  0.15074322295E+03  0.12499968283E+03 0.  0.
    9000005    1    3    3    0    0  0.13993213902E+01 -0.60495764881E+02  0.23307044765E+02  0.64853018470E+02  0.10000000000E+01 0.  0.
    9000005    1    3    3    0    0 -0.13993213902E+01  0.60495764881E+02  0.60946136518E+02  0.85890204479E+02  0.10000000000E+01 0.  0.
<mgrwt>
<rscale>  0 0.12499968E+03</rscale>
<asrwt>0</asrwt>
<pdfrwt beam="2">  1        4 0.51146186E-02 0.12499968E+03</pdfrwt>
<pdfrwt beam="1">  1       -4 0.18076646E-01 0.12499968E+03</pdfrwt>
<totfact> 0.99156461E+03</totfact>
</mgrwt>
</event>
<event>
 5    1  0.3276024E-002  0.1250299E+03  0.7818608E-02  0.1235022E+00
         -4   -1    0    0    0  501 -0.00000000000E+00  0.00000000000E+00  0.89938478584E+03  0.89938568251E+03  0.12700000000E+01 0. -1.
          4   -1    0    0  501    0  0.00000000000E+00 -0.00000000000E+00 -0.42516150440E+01  0.44372435681E+01  0.12700000000E+01 0. -1.
         25    2    1    2    0    0  0.00000000000E+00  0.00000000000E+00  0.89513317080E+03  0.90382292608E+03  0.12502994938E+03 0.  0.
    9000005    1    3    3    0    0  0.22842451810E+02 -0.58134583157E+02  0.43028570365E+03  0.43479672736E+03  0.10000000000E+01 0.  0.
    9000005    1    3    3    0    0 -0.22842451810E+02  0.58134583157E+02  0.46484746715E+03  0.46902619871E+03  0.10000000000E+01 0.  0.
<mgrwt>
<rscale>  0 0.12502995E+03</rscale>
<asrwt>0</asrwt>
<pdfrwt beam="2">  1        4 0.66844217E-03 0.12502995E+03</pdfrwt>
<pdfrwt beam="1">  1       -4 0.13838135E+00 0.12502995E+03</pdfrwt>
<totfact> 0.33991702E+03</totfact>
</mgrwt>
</event>
<event>
 5    1  0.3276024E-002  0.1250030E+03  0.7818608E-02  0.1235065E+00
         -4   -1    0    0    0  501 -0.00000000000E+00  0.00000000000E+00  0.19761697249E+02  0.19802463942E+02  0.12700000000E+01 0.  1.
          4   -1    0    0  501    0  0.00000000000E+00 -0.00000000000E+00 -0.19743074557E+03  0.19743483025E+03  0.12700000000E+01 0.  1.
         25    2    1    2    0    0  0.00000000000E+00  0.00000000000E+00 -0.17766904832E+03  0.21723729419E+03  0.12500300499E+03 0.  0.
    9000005    1    3    3    0    0  0.40250618029E+02  0.38731098517E+02 -0.40136459571E+02  0.68790592605E+02  0.10000000000E+01 0.  0.
    9000005    1    3    3    0    0 -0.40250618029E+02 -0.38731098517E+02 -0.13753258875E+03  0.14844670158E+03  0.10000000000E+01 0.  0.
<mgrwt>
<rscale>  0 0.12500300E+03</rscale>
<asrwt>0</asrwt>
<pdfrwt beam="2">  1        4 0.30377410E-01 0.12500300E+03</pdfrwt>
<pdfrwt beam="1">  1       -4 0.30437114E-02 0.12500300E+03</pdfrwt>
<totfact> 0.87301547E+03</totfact>
</mgrwt>
</event>
<event>
 4    1  0.3276024E-002  0.1250643E+03  0.7818608E-02  0.1234969E+00
          4   -1    0    0  501    0  0.00000000000E+00  0.00000000000E+00  0.36201801828E+02  0.36224071494E+02  0.12700000000E+01 0.  1.
         -4   -1    0    0    0  501 -0.00000000000E+00 -0.00000000000E+00 -0.10795394615E+03  0.10796141621E+03  0.12700000000E+01 0.  1.
    9000005    1    1    2    0    0  0.14572161155E+02 -0.60801255573E+02 -0.36292714520E+02  0.72300080824E+02  0.10000000000E+01 0.  0.
    9000005    1    1    2    0    0 -0.14572161155E+02  0.60801255573E+02 -0.35459429803E+02  0.71885406877E+02  0.10000000000E+01 0.  0.
<mgrwt>
<rscale>  0 0.12506432E+03</rscale>
<asrwt>0</asrwt>
<pdfrwt beam="1">  1        4 0.55717957E-02 0.12506432E+03</pdfrwt>
<pdfrwt beam="2">  1       -4 0.16610587E-01 0.12506432E+03</pdfrwt>
<totfact> 0.10033024E+04</totfact>
</mgrwt>
</event>
<event>
 5    1  0.3276024E-002  0.1250006E+03  0.7818608E-02  0.1235068E+00
         -4   -1    0    0    0  501 -0.00000000000E+00  0.00000000000E+00  0.82961328765E+01  0.83927778896E+01  0.12700000000E+01 0. -1.
          4   -1    0    0  501    0  0.00000000000E+00 -0.00000000000E+00 -0.46803239008E+03  0.46803411314E+03  0.12700000000E+01 0. -1.
         25    2    1    2    0    0  0.00000000000E+00  0.00000000000E+00 -0.45973625720E+03  0.47642689103E+03  0.12500062524E+03 0.  0.
    9000005    1    3    3    0    0  0.25598041704E+02  0.56527742172E+02 -0.25804249405E+03  0.26540078016E+03  0.10000000000E+01 0.  0.
    9000005    1    3    3    0    0 -0.25598041704E+02 -0.56527742172E+02 -0.20169376316E+03  0.21102611087E+03  0.10000000000E+01 0.  0.
<mgrwt>
<rscale>  0 0.12500063E+03</rscale>
<asrwt>0</asrwt>
<pdfrwt beam="2">  1        4 0.72012529E-01 0.12500063E+03</pdfrwt>
<pdfrwt beam="1">  1       -4 0.12838953E-02 0.12500063E+03</pdfrwt>
<totfact> 0.57740104E+03</totfact>
</mgrwt>
</event>
<event>
 5    1  0.3276024E-002  0.1249971E+03  0.7818608E-02  0.1235074E+00
         -4   -1    0    0    0  501 -0.00000000000E+00  0.00000000000E+00  0.37209745061E+01  0.39317364198E+01  0.12700000000E+01 0. -1.
          4   -1    0    0  501    0  0.00000000000E+00 -0.00000000000E+00 -0.10206215930E+04  0.10206223831E+04  0.12700000000E+01 0. -1.
         25    2    1    2    0    0  0.00000000000E+00  0.00000000000E+00 -0.10169006184E+04  0.10245541195E+04  0.12499710414E+03 0.  0.
    9000005    1    3    3    0    0  0.11603879521E+02 -0.18974159085E+02 -0.29778743870E+02  0.37181209225E+02  0.10000000000E+01 0.  0.
    9000005    1    3    3    0    0 -0.11603879521E+02  0.18974159085E+02 -0.98712187458E+03  0.98737291030E+03  0.10000000000E+01 0.  0.
<mgrwt>
<rscale>  0 0.12499710E+03</rscale>
<asrwt>0</asrwt>
<pdfrwt beam="2">  1        4 0.15703476E+00 0.12499710E+03</pdfrwt>
<pdfrwt beam="1">  1       -4 0.58873166E-03 0.12499710E+03</pdfrwt>
<totfact> 0.29804697E+03</totfact>
</mgrwt>
</event>
<event>
 5    1  0.3276024E-002  0.1250024E+03  0.7818608E-02  0.1235065E+00
          4   -1    0    0  501    0  0.00000000000E+00  0.00000000000E+00  0.18843335088E+02  0.18886084222E+02  0.12700000000E+01 0. -1.
         -4   -1    0    0    0  501 -0.00000000000E+00 -0.00000000000E+00 -0.20702986508E+03  0.20703376038E+03  0.12700000000E+01 0. -1.
         25    2    1    2    0    0  0.00000000000E+00  0.00000000000E+00 -0.18818653000E+03  0.22591984460E+03  0.12500242443E+03 0.  0.
    9000005    1    3    3    0    0 -0.13883698961E+01 -0.15773429753E+02  0.15166484159E+02  0.21948824544E+02  0.10000000000E+01 0.  0.
    9000005    1    3    3    0    0  0.13883698961E+01  0.15773429753E+02 -0.20335301415E+03  0.20397102006E+03  0.10000000000E+01 0.  0.
<mgrwt>
<rscale>  0 0.12500242E+03</rscale>
<asrwt>0</asrwt>
<pdfrwt beam="1">  1        4 0.29025628E-02 0.12500242E+03</pdfrwt>
<pdfrwt beam="2">  1       -4 0.31854335E-01 0.12500242E+03</pdfrwt>
<totfact> 0.85935422E+03</totfact>
</mgrwt>
</event>
<event>
 5    1  0.3276024E-002  0.1249965E+03  0.7818608E-02  0.1235075E+00
         -4   -1    0    0    0  501 -0.00000000000E+00  0.00000000000E+00  0.21770950907E+01  0.25204450071E+01  0.12700000000E+01 0. -1.
          4   -1    0    0  501    0  0.00000000000E+00 -0.00000000000E+00 -0.16626678433E+04  0.16626683284E+04  0.12700000000E+01 0. -1.
         25    2    1    2    0    0  0.00000000000E+00  0.00000000000E+00 -0.16604907482E+04  0.16651887734E+04  0.12499650384E+03 0.  0.
    9000005    1    3    3    0    0  0.34651393440E+02  0.10115616449E+02 -0.15097902577E+04  0.15102220588E+04  0.10000000000E+01 0.  0.
    9000005    1    3    3    0    0 -0.34651393440E+02 -0.10115616449E+02 -0.15070049055E+03  0.15496671454E+03  0.10000000000E+01 0.  0.
<mgrwt>
<rscale>  0 0.12499650E+03</rscale>
<asrwt>0</asrwt>
<pdfrwt beam="2">  1        4 0.25582056E+00 0.12499650E+03</pdfrwt>
<pdfrwt beam="1">  1       -4 0.36138788E-03 0.12499650E+03</pdfrwt>
<totfact> 0.14898294E+03</totfact>
</mgrwt>
</event>
<event>
 5    1  0.3276024E-002  0.1249902E+03  0.7818608E-02  0.1235085E+00
         -4   -1    0    0    0  501 -0.00000000000E+00  0.00000000000E+00  0.37427584742E+03  0.37427800211E+03  0.12700000000E+01 0.  1.
          4   -1    0    0  501    0  0.00000000000E+00 -0.00000000000E+00 -0.10394346301E+02  0.10471644332E+02  0.12700000000E+01 0.  1.
         25    2    1    2    0    0  0.00000000000E+00  0.00000000000E+00  0.36388150112E+03  0.38474964644E+03  0.12499017393E+03 0.  0.
    9000005    1    3    3    0    0  0.32122406651E+02  0.37515574077E+02  0.29977615473E+03  0.30381904195E+03  0.10000000000E+01 0.  0.
    9000005    1    3    3    0    0 -0.32122406651E+02 -0.37515574077E+02  0.64105346391E+02  0.80930604491E+02  0.10000000000E+01 0.  0.
<mgrwt>
<rscale>  0 0.12499017E+03</rscale>
<asrwt>0</asrwt>
<pdfrwt beam="2">  1        4 0.16052419E-02 0.12499017E+03</pdfrwt>
<pdfrwt beam="1">  1       -4 0.57587015E-01 0.12499017E+03</pdfrwt>
<totfact> 0.66077886E+03</totfact>
</mgrwt>
</event>
<event>
 5    1  0.3276024E-002  0.1250089E+03  0.7818608E-02  0.1235055E+00
          4   -1    0    0  501    0  0.00000000000E+00  0.00000000000E+00  0.10406413299E+03  0.10407188225E+03  0.12700000000E+01 0.  1.
         -4   -1    0    0    0  501 -0.00000000000E+00 -0.00000000000E+00 -0.37522425384E+02  0.37543911713E+02  0.12700000000E+01 0.  1.
         25    2    1    2    0    0  0.00000000000E+00  0.00000000000E+00  0.66541707603E+02  0.14161579396E+03  0.12500893667E+03 0.  0.
    9000005    1    3    3    0    0 -0.31459331098E+02  0.19842691602E+02 -0.23624455024E+02  0.44074219203E+02  0.10000000000E+01 0.  0.
    9000005    1    3    3    0    0  0.31459331098E+02 -0.19842691602E+02  0.90166162627E+02  0.97541574756E+02  0.10000000000E+01 0.  0.
<mgrwt>
<rscale>  0 0.12500894E+03</rscale>
<asrwt>0</asrwt>
<pdfrwt beam="1">  1        4 0.16012116E-01 0.12500894E+03</pdfrwt>
<pdfrwt beam="2">  1       -4 0.57749297E-02 0.12500894E+03</pdfrwt>
<totfact> 0.10098174E+04</totfact>
</mgrwt>
</event>
<event>
 5    1  0.3276024E-002  0.1249962E+03  0.7818608E-02  0.1235075E+00
          4   -1    0    0  501    0  0.00000000000E+00  0.00000000000E+00  0.47371723277E+02  0.47388744088E+02  0.12700000000E+01 0.  1.
         -4   -1    0    0    0  501 -0.00000000000E+00 -0.00000000000E+00 -0.82417844009E+02  0.82427628324E+02  0.12700000000E+01 0.  1.
         25    2    1    2    0    0  0.00000000000E+00  0.00000000000E+00 -0.35046120732E+02  0.12981637241E+03  0.12499623982E+03 0.  0.
    9000005    1    3    3    0    0 -0.35377189581E+02  0.50834738198E+02 -0.88774530012E+01  0.62574158580E+02  0.10000000000E+01 0.  0.
    9000005    1    3    3    0    0  0.35377189581E+02 -0.50834738198E+02 -0.26168667731E+02  0.67242213832E+02  0.10000000000E+01 0.  0.
<mgrwt>
<rscale>  0 0.12499624E+03</rscale>
<asrwt>0</asrwt>
<pdfrwt beam="1">  1        4 0.72900194E-02 0.12499624E+03</pdfrwt>
<pdfrwt beam="2">  1       -4 0.12681730E-01 0.12499624E+03</pdfrwt>
<totfact> 0.10349316E+04</totfact>
</mgrwt>
</event>
<event>
 5    1  0.3276024E-002  0.1250005E+03  0.7818608E-02  0.1235068E+00
          4   -1    0    0  501    0  0.00000000000E+00  0.00000000000E+00  0.55809963127E+01  0.57236718846E+01  0.12700000000E+01 0.  1.
         -4   -1    0    0    0  501 -0.00000000000E+00 -0.00000000000E+00 -0.69094847245E+03  0.69094963962E+03  0.12700000000E+01 0.  1.
         25    2    1    2    0    0  0.00000000000E+00  0.00000000000E+00 -0.68536747614E+03  0.69667331150E+03  0.12500050242E+03 0.  0.
    9000005    1    3    3    0    0  0.23459212279E+02 -0.34219839578E+02 -0.82225142108E+02  0.92104864455E+02  0.10000000000E+01 0.  0.
    9000005    1    3    3    0    0 -0.23459212279E+02  0.34219839578E+02 -0.60314233403E+03  0.60456844704E+03  0.10000000000E+01 0.  0.
<mgrwt>
<rscale>  0 0.12500050E+03</rscale>
<asrwt>0</asrwt>
<pdfrwt beam="1">  1        4 0.86968019E-03 0.12500050E+03</pdfrwt>
<pdfrwt beam="2">  1       -4 0.10631076E+00 0.12500050E+03</pdfrwt>
<totfact> 0.43262429E+03</totfact>
</mgrwt>
</event>
<event>
 5    1  0.3276024E-002  0.1250271E+03  0.7818608E-02  0.1235027E+00
         -4   -1    0    0    0  501 -0.00000000000E+00  0.00000000000E+00  0.21988846313E+03  0.21989213064E+03  0.12700000000E+01 0.  1.
          4   -1    0    0  501    0  0.00000000000E+00 -0.00000000000E+00 -0.17745894133E+02  0.17791280409E+02  0.12700000000E+01 0.  1.
         25    2    1    2    0    0  0.00000000000E+00  0.00000000000E+00  0.20214256900E+03  0.23768341105E+03  0.12502713980E+03 0.  0.
    9000005    1    3    3    0    0 -0.11497635835E+02 -0.61165517725E+02  0.11207939713E+03  0.12820377315E+03  0.10000000000E+01 0.  0.
    9000005    1    3    3    0    0  0.11497635835E+02  0.61165517725E+02  0.90063171864E+02  0.10947963790E+03  0.10000000000E+01 0.  0.
<mgrwt>
<rscale>  0 0.12502714E+03</rscale>
<asrwt>0</asrwt>
<pdfrwt beam="2">  1        4 0.27339110E-02 0.12502714E+03</pdfrwt>
<pdfrwt beam="1">  1       -4 0.33832767E-01 0.12502714E+03</pdfrwt>
<totfact> 0.84092696E+03</totfact>
</mgrwt>
</event>
<event>
 5    1  0.3276024E-002  0.1249990E+03  0.7818608E-02  0.1235071E+00
         -4   -1    0    0    0  501 -0.00000000000E+00  0.00000000000E+00  0.80907270710E+02  0.80917237680E+02  0.12700000000E+01 0.  1.
          4   -1    0    0  501    0  0.00000000000E+00 -0.00000000000E+00 -0.48258491649E+02  0.48275199805E+02  0.12700000000E+01 0.  1.
         25    2    1    2    0    0  0.00000000000E+00  0.00000000000E+00  0.32648779062E+02  0.12919243749E+03  0.12499897251E+03 0.  0.
    9000005    1    3    3    0    0  0.57922029624E+02  0.90316208535E+01 -0.60502916333E+01  0.58941816394E+02  0.10000000000E+01 0.  0.
    9000005    1    3    3    0    0 -0.57922029624E+02 -0.90316208535E+01  0.38699070695E+02  0.70250621091E+02  0.10000000000E+01 0.  0.
<mgrwt>
<rscale>  0 0.12499897E+03</rscale>
<asrwt>0</asrwt>
<pdfrwt beam="2">  1        4 0.74264354E-02 0.12499897E+03</pdfrwt>
<pdfrwt beam="1">  1       -4 0.12449324E-01 0.12499897E+03</pdfrwt>
<totfact> 0.10362054E+04</totfact>
</mgrwt>
</event>
<event>
 5    1  0.3276024E-002  0.1250008E+03  0.7818608E-02  0.1235068E+00
         -4   -1    0    0    0  501 -0.00000000000E+00  0.00000000000E+00  0.49225046288E+02  0.49241426482E+02  0.12700000000E+01 0.  1.
          4   -1    0    0  501    0  0.00000000000E+00 -0.00000000000E+00 -0.79321268552E+02  0.79331434783E+02  0.12700000000E+01 0.  1.
         25    2    1    2    0    0  0.00000000000E+00  0.00000000000E+00 -0.30096222265E+02  0.12857286127E+03  0.12500079224E+03 0.  0.
    9000005    1    3    3    0    0 -0.54107291830E+02 -0.28988956433E+02 -0.29939644214E+01  0.61464806574E+02  0.10000000000E+01 0.  0.
    9000005    1    3    3    0    0  0.54107291830E+02  0.28988956433E+02 -0.27102257843E+02  0.67108054691E+02  0.10000000000E+01 0.  0.
<mgrwt>
<rscale>  0 0.12500079E+03</rscale>
<asrwt>0</asrwt>
<pdfrwt beam="2">  1        4 0.12205314E-01 0.12500079E+03</pdfrwt>
<pdfrwt beam="1">  1       -4 0.75751261E-02 0.12500079E+03</pdfrwt>
<totfact> 0.10374949E+04</totfact>
</mgrwt>
</event>
<event>
 5    1  0.3276024E-002  0.1250060E+03  0.7818608E-02  0.1235060E+00
          4   -1    0    0  501    0  0.00000000000E+00  0.00000000000E+00  0.70438779444E+03  0.70438893933E+03  0.12700000000E+01 0. -1.
         -4   -1    0    0    0  501 -0.00000000000E+00 -0.00000000000E+00 -0.54722586473E+01  0.56176965656E+01  0.12700000000E+01 0. -1.
         25    2    1    2    0    0  0.00000000000E+00  0.00000000000E+00  0.69891553579E+03  0.71000663590E+03  0.12500598725E+03 0.  0.
    9000005    1    3    3    0    0  0.12729775816E+02  0.26289517762E+02  0.35656250889E+02  0.46103732646E+02  0.10000000000E+01 0.  0.
    9000005    1    3    3    0    0 -0.12729775816E+02 -0.26289517762E+02  0.66325928490E+03  0.66390290325E+03  0.10000000000E+01 0.  0.
<mgrwt>
<rscale>  0 0.12500599E+03</rscale>
<asrwt>0</asrwt>
<pdfrwt beam="1">  1        4 0.10837858E+00 0.12500599E+03</pdfrwt>
<pdfrwt beam="2">  1       -4 0.85316196E-03 0.12500599E+03</pdfrwt>
<totfact> 0.42558142E+03</totfact>
</mgrwt>
</event>
<event>
 5    1  0.3276024E-002  0.1250037E+03  0.7818608E-02  0.1235064E+00
          4   -1    0    0  501    0  0.00000000000E+00  0.00000000000E+00  0.30184327499E+01  0.32747268994E+01  0.12700000000E+01 0. -1.
         -4   -1    0    0    0  501 -0.00000000000E+00 -0.00000000000E+00 -0.12412436789E+04  0.12412443286E+04  0.12700000000E+01 0. -1.
         25    2    1    2    0    0  0.00000000000E+00  0.00000000000E+00 -0.12382252462E+04  0.12445190555E+04  0.12500367725E+03 0.  0.
    9000005    1    3    3    0    0  0.61927818933E+02 -0.30162069348E+01 -0.54114637462E+03  0.54468757194E+03  0.10000000000E+01 0.  0.
    9000005    1    3    3    0    0 -0.61927818933E+02  0.30162069348E+01 -0.69707887156E+03  0.69983148360E+03  0.10000000000E+01 0.  0.
<mgrwt>
<rscale>  0 0.12500368E+03</rscale>
<asrwt>0</asrwt>
<pdfrwt beam="1">  1        4 0.48414017E-03 0.12500368E+03</pdfrwt>
<pdfrwt beam="2">  1       -4 0.19097994E+00 0.12500368E+03</pdfrwt>
<totfact> 0.23574452E+03</totfact>
</mgrwt>
</event>
<event>
 5    1  0.3276024E-002  0.1250001E+03  0.7818608E-02  0.1235069E+00
          4   -1    0    0  501    0  0.00000000000E+00  0.00000000000E+00  0.28821555249E+02  0.28849522474E+02  0.12700000000E+01 0. -1.
         -4   -1    0    0    0  501 -0.00000000000E+00 -0.00000000000E+00 -0.13543576571E+03  0.13544172006E+03  0.12700000000E+01 0. -1.
         25    2    1    2    0    0  0.00000000000E+00  0.00000000000E+00 -0.10661421046E+03  0.16429124254E+03  0.12500009001E+03 0.  0.
    9000005    1    3    3    0    0  0.54530082897E+01 -0.60946902211E+02 -0.69983834248E+02  0.92967721520E+02  0.10000000000E+01 0.  0.
    9000005    1    3    3    0    0 -0.54530082897E+01  0.60946902211E+02 -0.36630376213E+02  0.71323521016E+02  0.10000000000E+01 0.  0.
<mgrwt>
<rscale>  0 0.12500009E+03</rscale>
<asrwt>0</asrwt>
<pdfrwt beam="1">  1        4 0.44366949E-02 0.12500009E+03</pdfrwt>
<pdfrwt beam="2">  1       -4 0.20838881E-01 0.12500009E+03</pdfrwt>
<totfact> 0.96521593E+03</totfact>
</mgrwt>
</event>
<event>
 5    1  0.3276024E-002  0.1250059E+03  0.7818608E-02  0.1235060E+00
          4   -1    0    0  501    0  0.00000000000E+00  0.00000000000E+00  0.43290097112E+03  0.43290283401E+03  0.12700000000E+01 0.  1.
         -4   -1    0    0    0  501 -0.00000000000E+00 -0.00000000000E+00 -0.89776978243E+01  0.90670810200E+01  0.12700000000E+01 0.  1.
         25    2    1    2    0    0  0.00000000000E+00  0.00000000000E+00  0.42392327329E+03  0.44196991503E+03  0.12500585647E+03 0.  0.
    9000005    1    3    3    0    0  0.96310164681E+00  0.61675185951E+02  0.17645401048E+03  0.18692718888E+03  0.10000000000E+01 0.  0.
    9000005    1    3    3    0    0 -0.96310164681E+00 -0.61675185951E+02  0.24746926282E+03  0.25504272616E+03  0.10000000000E+01 0.  0.
<mgrwt>
<rscale>  0 0.12500586E+03</rscale>
<asrwt>0</asrwt>
<pdfrwt beam="1">  1        4 0.66607166E-01 0.12500586E+03</pdfrwt>
<pdfrwt beam="2">  1       -4 0.13882033E-02 0.12500586E+03</pdfrwt>
<totfact> 0.60657948E+03</totfact>
</mgrwt>
</event>
<event>
 5    1  0.3276024E-002  0.1250011E+03  0.7818608E-02  0.1235068E+00
          4   -1    0    0  501    0  0.00000000000E+00  0.00000000000E+00  0.15513434597E+02  0.15565331766E+02  0.12700000000E+01 0.  1.
         -4   -1    0    0    0  501 -0.00000000000E+00 -0.00000000000E+00 -0.25132816340E+03  0.25133137213E+03  0.12700000000E+01 0.  1.
         25    2    1    2    0    0  0.00000000000E+00  0.00000000000E+00 -0.23581472880E+03  0.26689670390E+03  0.12500105692E+03 0.  0.
    9000005    1    3    3    0    0  0.31727688904E+02  0.24060987893E+02 -0.15070445327E+02  0.42587506429E+02  0.10000000000E+01 0.  0.
    9000005    1    3    3    0    0 -0.31727688904E+02 -0.24060987893E+02 -0.22074428348E+03  0.22430919747E+03  0.10000000000E+01 0.  0.
<mgrwt>
<rscale>  0 0.12500106E+03</rscale>
<asrwt>0</asrwt>
<pdfrwt beam="1">  1        4 0.23909214E-02 0.12500106E+03</pdfrwt>
<pdfrwt beam="2">  1       -4 0.38670107E-01 0.12500106E+03</pdfrwt>
<totfact> 0.79945965E+03</totfact>
</mgrwt>
</event>
<event>
 5    1  0.3276024E-002  0.1250108E+03  0.7818608E-02  0.1235052E+00
         -4   -1    0    0    0  501 -0.00000000000E+00  0.00000000000E+00  0.19652301524E+03  0.19652711879E+03  0.12700000000E+01 0. -1.
          4   -1    0    0  501    0  0.00000000000E+00 -0.00000000000E+00 -0.19855644070E+02  0.19896218270E+02  0.12700000000E+01 0. -1.
         25    2    1    2    0    0  0.00000000000E+00  0.00000000000E+00  0.17666737117E+03  0.21642333706E+03  0.12501080268E+03 0.  0.
    9000005    1    3    3    0    0  0.20029011675E+02 -0.99470177630E+01  0.18936766002E+03  0.19068616923E+03  0.10000000000E+01 0.  0.
    9000005    1    3    3    0    0 -0.20029011675E+02  0.99470177630E+01 -0.12700288854E+02  0.25737167832E+02  0.10000000000E+01 0.  0.
<mgrwt>
<rscale>  0 0.12501080E+03</rscale>
<asrwt>0</asrwt>
<pdfrwt beam="2">  1        4 0.30581512E-02 0.12501080E+03</pdfrwt>
<pdfrwt beam="1">  1       -4 0.30237747E-01 0.12501080E+03</pdfrwt>
<totfact> 0.87416390E+03</totfact>
</mgrwt>
</event>
<event>
 5    1  0.3276024E-002  0.1249745E+03  0.7818608E-02  0.1235109E+00
         -4   -1    0    0    0  501 -0.00000000000E+00  0.00000000000E+00  0.45880427833E+01  0.47605710353E+01  0.12700000000E+01 0.  1.
          4   -1    0    0  501    0  0.00000000000E+00 -0.00000000000E+00 -0.83517109610E+03  0.83517206171E+03  0.12700000000E+01 0.  1.
         25    2    1    2    0    0  0.00000000000E+00  0.00000000000E+00 -0.83058305332E+03  0.83993263275E+03  0.12497447377E+03 0.  0.
    9000005    1    3    3    0    0 -0.19604972928E+02 -0.30030524126E+02 -0.75913737195E+03  0.75998469513E+03  0.10000000000E+01 0.  0.
    9000005    1    3    3    0    0  0.19604972928E+02  0.30030524126E+02 -0.71445681369E+02  0.79947937616E+02  0.10000000000E+01 0.  0.
<mgrwt>
<rscale>  0 0.12497447E+03</rscale>
<asrwt>0</asrwt>
<pdfrwt beam="2">  1        4 0.12850109E+00 0.12497447E+03</pdfrwt>
<pdfrwt beam="1">  1       -4 0.71919908E-03 0.12497447E+03</pdfrwt>
<totfact> 0.36563278E+03</totfact>
</mgrwt>
</event>
<event>
 5    1  0.3276024E-002  0.1249986E+03  0.7818608E-02  0.1235072E+00
         -4   -1    0    0    0  501 -0.00000000000E+00  0.00000000000E+00  0.48354696582E+02  0.48371371508E+02  0.12700000000E+01 0.  1.
          4   -1    0    0  501    0  0.00000000000E+00 -0.00000000000E+00 -0.80745813108E+02  0.80755800006E+02  0.12700000000E+01 0.  1.
         25    2    1    2    0    0  0.00000000000E+00  0.00000000000E+00 -0.32391116526E+02  0.12912717151E+03  0.12499856796E+03 0.  0.
    9000005    1    3    3    0    0 -0.37743581201E+02  0.14762218249E+02  0.32942976358E+02  0.52237349673E+02  0.10000000000E+01 0.  0.
    9000005    1    3    3    0    0  0.37743581201E+02 -0.14762218249E+02 -0.65334092885E+02  0.76889821840E+02  0.10000000000E+01 0.  0.
<mgrwt>
<rscale>  0 0.12499857E+03</rscale>
<asrwt>0</asrwt>
<pdfrwt beam="2">  1        4 0.12424484E-01 0.12499857E+03</pdfrwt>
<pdfrwt beam="1">  1       -4 0.74412350E-02 0.12499857E+03</pdfrwt>
<totfact> 0.10363550E+04</totfact>
</mgrwt>
</event>
<event>
 5    1  0.3276024E-002  0.1249398E+03  0.7818608E-02  0.1235163E+00
          4   -1    0    0  501    0  0.00000000000E+00  0.00000000000E+00  0.88489035614E+02  0.88498148703E+02  0.12700000000E+01 0. -1.
         -4   -1    0    0    0  501 -0.00000000000E+00 -0.00000000000E+00 -0.44080850701E+02  0.44099141698E+02  0.12700000000E+01 0. -1.
         25    2    1    2    0    0  0.00000000000E+00  0.00000000000E+00  0.44408184913E+02  0.13259729040E+03  0.12493980364E+03 0.  0.
    9000005    1    3    3    0    0 -0.37225218525E+02 -0.32664851707E+02  0.62599773258E+02  0.79827570696E+02  0.10000000000E+01 0.  0.
    9000005    1    3    3    0    0  0.37225218525E+02  0.32664851707E+02 -0.18191588345E+02  0.52769719705E+02  0.10000000000E+01 0.  0.
<mgrwt>
<rscale>  0 0.12493980E+03</rscale>
<asrwt>0</asrwt>
<pdfrwt beam="1">  1        4 0.13615806E-01 0.12493980E+03</pdfrwt>
<pdfrwt beam="2">  1       -4 0.67837774E-02 0.12493980E+03</pdfrwt>
<totfact> 0.10302950E+04</totfact>
</mgrwt>
</event>
<event>
 5    1  0.3276024E-002  0.1249920E+03  0.7818608E-02  0.1235082E+00
         -4   -1    0    0    0  501 -0.00000000000E+00  0.00000000000E+00  0.62347251913E+01  0.63627586950E+01  0.12700000000E+01 0. -1.
          4   -1    0    0  501    0  0.00000000000E+00 -0.00000000000E+00 -0.61995581653E+03  0.61995711734E+03  0.12700000000E+01 0. -1.
         25    2    1    2    0    0  0.00000000000E+00  0.00000000000E+00 -0.61372109134E+03  0.62631987604E+03  0.12499203643E+03 0.  0.
    9000005    1    3    3    0    0 -0.26932843772E+02 -0.16350748762E+02 -0.36457507813E+02  0.48196212866E+02  0.10000000000E+01 0.  0.
    9000005    1    3    3    0    0  0.26932843772E+02  0.16350748762E+02 -0.57726358352E+03  0.57812366317E+03  0.10000000000E+01 0.  0.
<mgrwt>
<rscale>  0 0.12499204E+03</rscale>
<asrwt>0</asrwt>
<pdfrwt beam="2">  1        4 0.95387718E-01 0.12499204E+03</pdfrwt>
<pdfrwt beam="1">  1       -4 0.96913778E-03 0.12499204E+03</pdfrwt>
<totfact> 0.47255547E+03</totfact>
</mgrwt>
</event>
<event>
 5    1  0.3276024E-002  0.1249993E+03  0.7818608E-02  0.1235070E+00
         -4   -1    0    0    0  501 -0.00000000000E+00  0.00000000000E+00  0.14084617265E+02  0.14141758855E+02  0.12700000000E+01 0.  1.
          4   -1    0    0  501    0  0.00000000000E+00 -0.00000000000E+00 -0.27671830912E+03  0.27672122344E+03  0.12700000000E+01 0.  1.
         25    2    1    2    0    0  0.00000000000E+00  0.00000000000E+00 -0.26263369185E+03  0.29086298229E+03  0.12499927349E+03 0.  0.
    9000005    1    3    3    0    0 -0.14471335668E+01 -0.58121936582E+02 -0.18463072716E+03  0.19357106995E+03  0.10000000000E+01 0.  0.
    9000005    1    3    3    0    0  0.14471335668E+01  0.58121936582E+02 -0.78002964690E+02  0.97291912346E+02  0.10000000000E+01 0.  0.
<mgrwt>
<rscale>  0 0.12499927E+03</rscale>
<asrwt>0</asrwt>
<pdfrwt beam="2">  1        4 0.42576663E-01 0.12499927E+03</pdfrwt>
<pdfrwt beam="1">  1       -4 0.21714841E-02 0.12499927E+03</pdfrwt>
<totfact> 0.76760693E+03</totfact>
</mgrwt>
</event>
<event>
 5    1  0.3276024E-002  0.1250000E+03  0.7818608E-02  0.1235069E+00
         -4   -1    0    0    0  501 -0.00000000000E+00  0.00000000000E+00  0.37603381398E+01  0.39690103207E+01  0.12700000000E+01 0. -1.
          4   -1    0    0  501    0  0.00000000000E+00 -0.00000000000E+00 -0.10105485011E+04  0.10105492991E+04  0.12700000000E+01 0. -1.
         25    2    1    2    0    0  0.00000000000E+00  0.00000000000E+00 -0.10067881629E+04  0.10145183094E+04  0.12499998055E+03 0.  0.
    9000005    1    3    3    0    0 -0.39141644055E+02 -0.41763780865E+02 -0.70694070654E+03  0.70925485142E+03  0.10000000000E+01 0.  0.
    9000005    1    3    3    0    0  0.39141644055E+02  0.41763780865E+02 -0.29984745640E+03  0.30526345802E+03  0.10000000000E+01 0.  0.
<mgrwt>
<rscale>  0 0.12499998E+03</rscale>
<asrwt>0</asrwt>
<pdfrwt beam="2">  1        4 0.15548490E+00 0.12499998E+03</pdfrwt>
<pdfrwt beam="1">  1       -4 0.59462746E-03 0.12499998E+03</pdfrwt>
<totfact> 0.30129040E+03</totfact>
</mgrwt>
</event>
<event>
 5    1  0.3276024E-002  0.1249991E+03  0.7818608E-02  0.1235071E+00
          4   -1    0    0  501    0  0.00000000000E+00  0.00000000000E+00  0.42381257846E+03  0.42381448131E+03  0.12700000000E+01 0. -1.
         -4   -1    0    0    0  501 -0.00000000000E+00 -0.00000000000E+00 -0.91711070865E+01  0.92586232882E+01  0.12700000000E+01 0. -1.
         25    2    1    2    0    0  0.00000000000E+00  0.00000000000E+00  0.41464147138E+03  0.43307310459E+03  0.12499905654E+03 0.  0.
    9000005    1    3    3    0    0 -0.77669980088E+01 -0.10919043807E+02  0.41879371257E+03  0.41900921883E+03  0.10000000000E+01 0.  0.
    9000005    1    3    3    0    0  0.77669980088E+01  0.10919043807E+02 -0.41522411965E+01  0.14063885761E+02  0.10000000000E+01 0.  0.
<mgrwt>
<rscale>  0 0.12499906E+03</rscale>
<asrwt>0</asrwt>
<pdfrwt beam="1">  1        4 0.65208807E-01 0.12499906E+03</pdfrwt>
<pdfrwt beam="2">  1       -4 0.14178181E-02 0.12499906E+03</pdfrwt>
<totfact> 0.61459698E+03</totfact>
</mgrwt>
</event>
<event>
 5    1  0.3276024E-002  0.1249973E+03  0.7818608E-02  0.1235074E+00
         -4   -1    0    0    0  501 -0.00000000000E+00  0.00000000000E+00  0.44194359750E+02  0.44212603788E+02  0.12700000000E+01 0.  1.
          4   -1    0    0  501    0  0.00000000000E+00 -0.00000000000E+00 -0.88343072972E+02  0.88352201116E+02  0.12700000000E+01 0.  1.
         25    2    1    2    0    0  0.00000000000E+00  0.00000000000E+00 -0.44148713221E+02  0.13256480490E+03  0.12499727445E+03 0.  0.
    9000005    1    3    3    0    0 -0.60320284764E+02 -0.15589804004E+02 -0.27215622357E+02  0.67994623635E+02  0.10000000000E+01 0.  0.
    9000005    1    3    3    0    0  0.60320284764E+02  0.15589804004E+02 -0.16933090865E+02  0.64570181270E+02  0.10000000000E+01 0.  0.
<mgrwt>
<rscale>  0 0.12499727E+03</rscale>
<asrwt>0</asrwt>
<pdfrwt beam="2">  1        4 0.13593348E-01 0.12499727E+03</pdfrwt>
<pdfrwt beam="1">  1       -4 0.68012378E-02 0.12499727E+03</pdfrwt>
<totfact> 0.10290290E+04</totfact>
</mgrwt>
</event>
<event>
 5    1  0.3276024E-002  0.1250003E+03  0.7818608E-02  0.1235069E+00
          4   -1    0    0  501    0  0.00000000000E+00  0.00000000000E+00  0.19603180922E+02  0.19644276577E+02  0.12700000000E+01 0. -1.
         -4   -1    0    0    0  501 -0.00000000000E+00 -0.00000000000E+00 -0.19901517770E+03  0.19901922986E+03  0.12700000000E+01 0. -1.
         25    2    1    2    0    0  0.00000000000E+00  0.00000000000E+00 -0.17941199678E+03  0.21866350644E+03  0.12500025784E+03 0.  0.
    9000005    1    3    3    0    0  0.54219212584E+02  0.26787785424E+02 -0.11725172029E+03  0.13193284038E+03  0.10000000000E+01 0.  0.
    9000005    1    3    3    0    0 -0.54219212584E+02 -0.26787785424E+02 -0.62160276490E+02  0.86730666056E+02  0.10000000000E+01 0.  0.
<mgrwt>
<rscale>  0 0.12500026E+03</rscale>
<asrwt>0</asrwt>
<pdfrwt beam="1">  1        4 0.30193470E-02 0.12500026E+03</pdfrwt>
<pdfrwt beam="2">  1       -4 0.30621191E-01 0.12500026E+03</pdfrwt>
<totfact> 0.87079774E+03</totfact>
</mgrwt>
</event>
<event>
 5    1  0.3276024E-002  0.1249691E+03  0.7818608E-02  0.1235118E+00
          4   -1    0    0  501    0  0.00000000000E+00  0.00000000000E+00  0.11139671375E+03  0.11140395295E+03  0.12700000000E+01 0.  1.
         -4   -1    0    0    0  501 -0.00000000000E+00 -0.00000000000E+00 -0.35028899408E+02  0.35051914267E+02  0.12700000000E+01 0.  1.
         25    2    1    2    0    0  0.00000000000E+00  0.00000000000E+00  0.76367814339E+02  0.14645586722E+03  0.12496910809E+03 0.  0.
    9000005    1    3    3    0    0 -0.23374621943E+02  0.55385587618E+02  0.18247780590E+02  0.62832457880E+02  0.10000000000E+01 0.  0.
    9000005    1    3    3    0    0  0.23374621943E+02 -0.55385587618E+02  0.58120033750E+02  0.83623409341E+02  0.10000000000E+01 0.  0.
<mgrwt>
<rscale>  0 0.12496911E+03</rscale>
<asrwt>0</asrwt>
<pdfrwt beam="1">  1        4 0.17140283E-01 0.12496911E+03</pdfrwt>
<pdfrwt beam="2">  1       -4 0.53913888E-02 0.12496911E+03</pdfrwt>
<totfact> 0.10008451E+04</totfact>
</mgrwt>
</event>
<event>
 5    1  0.3276024E-002  0.1249993E+03  0.7818608E-02  0.1235070E+00
          4   -1    0    0  501    0  0.00000000000E+00  0.00000000000E+00  0.57371417200E+03  0.57371557767E+03  0.12700000000E+01 0.  1.
         -4   -1    0    0    0  501 -0.00000000000E+00 -0.00000000000E+00 -0.67479803332E+01  0.68664502166E+01  0.12700000000E+01 0.  1.
         25    2    1    2    0    0  0.00000000000E+00  0.00000000000E+00  0.56696619167E+03  0.58058202788E+03  0.12499931442E+03 0.  0.
    9000005    1    3    3    0    0  0.53068268488E+02 -0.12252592781E+02  0.42579844725E+03  0.42926877924E+03  0.10000000000E+01 0.  0.
    9000005    1    3    3    0    0 -0.53068268488E+02  0.12252592781E+02  0.14116774442E+03  0.15131324864E+03  0.10000000000E+01 0.  0.
<mgrwt>
<rscale>  0 0.12499931E+03</rscale>
<asrwt>0</asrwt>
<pdfrwt beam="1">  1        4 0.88272943E-01 0.12499931E+03</pdfrwt>
<pdfrwt beam="2">  1       -4 0.10473720E-02 0.12499931E+03</pdfrwt>
<totfact> 0.50117478E+03</totfact>
</mgrwt>
</event>
<event>
 5    1  0.3276024E-002  0.1249983E+03  0.7818608E-02  0.1235072E+00
         -4   -1    0    0    0  501 -0.00000000000E+00  0.00000000000E+00  0.63380701775E+02  0.63393424403E+02  0.12700000000E+01 0.  1.
          4   -1    0    0  501    0  0.00000000000E+00 -0.00000000000E+00 -0.61604436696E+02  0.61617526083E+02  0.12700000000E+01 0.  1.
         25    2    1    2    0    0  0.00000000000E+00  0.00000000000E+00  0.17762650793E+01  0.12501095049E+03  0.12499833048E+03 0.  0.
    9000005    1    3    3    0    0 -0.46816841557E+02  0.29706502065E+01  0.42177942850E+02  0.63092157033E+02  0.10000000000E+01 0.  0.
    9000005    1    3    3    0    0  0.46816841557E+02 -0.29706502065E+01 -0.40401677771E+02  0.61918793453E+02  0.10000000000E+01 0.  0.
<mgrwt>
<rscale>  0 0.12499833E+03</rscale>
<asrwt>0</asrwt>
<pdfrwt beam="2">  1        4 0.94795911E-02 0.12499833E+03</pdfrwt>
<pdfrwt beam="1">  1       -4 0.97528628E-02 0.12499833E+03</pdfrwt>
<totfact> 0.10453019E+04</totfact>
</mgrwt>
</event>
<event>
 5    1  0.3276024E-002  0.1249974E+03  0.7818608E-02  0.1235073E+00
         -4   -1    0    0    0  501 -0.00000000000E+00  0.00000000000E+00  0.25136401371E+03  0.25136722198E+03  0.12700000000E+01 0.  1.
          4   -1    0    0  501    0  0.00000000000E+00 -0.00000000000E+00 -0.15510294519E+02  0.15562202160E+02  0.12700000000E+01 0.  1.
         25    2    1    2    0    0  0.00000000000E+00  0.00000000000E+00  0.23585371919E+03  0.26692942414E+03  0.12499736244E+03 0.  0.
    9000005    1    3    3    0    0  0.28989919299E+02  0.54116833113E+02  0.93019603227E+02  0.11145713809E+03  0.10000000000E+01 0.  0.
    9000005    1    3    3    0    0 -0.28989919299E+02 -0.54116833113E+02  0.14283411596E+03  0.15547228605E+03  0.10000000000E+01 0.  0.
<mgrwt>
<rscale>  0 0.12499736E+03</rscale>
<asrwt>0</asrwt>
<pdfrwt beam="2">  1        4 0.23904389E-02 0.12499736E+03</pdfrwt>
<pdfrwt beam="1">  1       -4 0.38675626E-01 0.12499736E+03</pdfrwt>
<totfact> 0.79948034E+03</totfact>
</mgrwt>
</event>
<event>
 5    1  0.3276024E-002  0.1250017E+03  0.7818608E-02  0.1235067E+00
          4   -1    0    0  501    0  0.00000000000E+00  0.00000000000E+00  0.29088794063E+03  0.29089071299E+03  0.12700000000E+01 0. -1.
         -4   -1    0    0    0  501 -0.00000000000E+00 -0.00000000000E+00 -0.13396217260E+02  0.13456282432E+02  0.12700000000E+01 0. -1.
         25    2    1    2    0    0  0.00000000000E+00  0.00000000000E+00  0.27749172337E+03  0.30434699543E+03  0.12500174832E+03 0.  0.
    9000005    1    3    3    0    0  0.18214372655E+02  0.41163486435E+02  0.33201462834E+02  0.55942230211E+02  0.10000000000E+01 0.  0.
    9000005    1    3    3    0    0 -0.18214372655E+02 -0.41163486435E+02  0.24429026054E+03  0.24840476521E+03  0.10000000000E+01 0.  0.
<mgrwt>
<rscale>  0 0.12500175E+03</rscale>
<asrwt>0</asrwt>
<pdfrwt beam="1">  1        4 0.44756824E-01 0.12500175E+03</pdfrwt>
<pdfrwt beam="2">  1       -4 0.20657902E-02 0.12500175E+03</pdfrwt>
<totfact> 0.75053862E+03</totfact>
</mgrwt>
</event>
<event>
 5    1  0.3276024E-002  0.1249996E+03  0.7818608E-02  0.1235070E+00
         -4   -1    0    0    0  501 -0.00000000000E+00  0.00000000000E+00  0.17510308304E+03  0.17510768855E+03  0.12700000000E+01 0. -1.
          4   -1    0    0  501    0  0.00000000000E+00 -0.00000000000E+00 -0.22285169991E+02  0.22321328400E+02  0.12700000000E+01 0. -1.
         25    2    1    2    0    0  0.00000000000E+00  0.00000000000E+00  0.15281791305E+03  0.19742901695E+03  0.12499960874E+03 0.  0.
    9000005    1    3    3    0    0  0.52895150885E+02 -0.10333413108E+02  0.26449058943E+02  0.60043560292E+02  0.10000000000E+01 0.  0.
    9000005    1    3    3    0    0 -0.52895150885E+02  0.10333413108E+02  0.12636885411E+03  0.13738545666E+03  0.10000000000E+01 0.  0.
<mgrwt>
<rscale>  0 0.12499961E+03</rscale>
<asrwt>0</asrwt>
<pdfrwt beam="2">  1        4 0.34316233E-02 0.12499961E+03</pdfrwt>
<pdfrwt beam="1">  1       -4 0.26942072E-01 0.12499961E+03</pdfrwt>
<totfact> 0.90571308E+03</totfact>
</mgrwt>
</event>
<event>
 5    1  0.3276024E-002  0.1250012E+03  0.7818608E-02  0.1235067E+00
         -4   -1    0    0    0  501 -0.00000000000E+00  0.00000000000E+00  0.83999411187E+03  0.83999507194E+03  0.12700000000E+01 0. -1.
          4   -1    0    0  501    0  0.00000000000E+00 -0.00000000000E+00 -0.45627311890E+01  0.47361815741E+01  0.12700000000E+01 0. -1.
         25    2    1    2    0    0  0.00000000000E+00  0.00000000000E+00  0.83543138068E+03  0.84473125351E+03  0.12500119531E+03 0.  0.
    9000005    1    3    3    0    0  0.44340215298E+02 -0.28241228066E+02  0.64605515455E+03  0.64819124059E+03  0.10000000000E+01 0.  0.
    9000005    1    3    3    0    0 -0.44340215298E+02  0.28241228066E+02  0.18937622613E+03  0.19654001292E+03  0.10000000000E+01 0.  0.
<mgrwt>
<rscale>  0 0.12500120E+03</rscale>
<asrwt>0</asrwt>
<pdfrwt beam="2">  1        4 0.71537460E-03 0.12500120E+03</pdfrwt>
<pdfrwt beam="1">  1       -4 0.12924332E+00 0.12500120E+03</pdfrwt>
<totfact> 0.36342940E+03</totfact>
</mgrwt>
</event>
<event>
 5    1  0.3276024E-002  0.1249966E+03  0.7818608E-02  0.1235075E+00
         -4   -1    0    0    0  501 -0.00000000000E+00  0.00000000000E+00  0.24982908319E+02  0.25015167561E+02  0.12700000000E+01 0. -1.
          4   -1    0    0  501    0  0.00000000000E+00 -0.00000000000E+00 -0.15621262723E+03  0.15621778966E+03  0.12700000000E+01 0. -1.
         25    2    1    2    0    0  0.00000000000E+00  0.00000000000E+00 -0.13122971891E+03  0.18123295722E+03  0.12499658258E+03 0.  0.
    9000005    1    3    3    0    0  0.21897176787E+02 -0.54298255398E+02 -0.97289506878E+02  0.11355190460E+03  0.10000000000E+01 0.  0.
    9000005    1    3    3    0    0 -0.21897176787E+02  0.54298255398E+02 -0.33940212031E+02  0.67681052616E+02  0.10000000000E+01 0.  0.
<mgrwt>
<rscale>  0 0.12499658E+03</rscale>
<asrwt>0</asrwt>
<pdfrwt beam="2">  1        4 0.24035590E-01 0.12499658E+03</pdfrwt>
<pdfrwt beam="1">  1       -4 0.38464030E-02 0.12499658E+03</pdfrwt>
<totfact> 0.93402693E+03</totfact>
</mgrwt>
</event>
<event>
 5    1  0.3276024E-002  0.1250071E+03  0.7818608E-02  0.1235058E+00
          4   -1    0    0  501    0  0.00000000000E+00  0.00000000000E+00  0.60732415982E+02  0.60745693271E+02  0.12700000000E+01 0.  1.
         -4   -1    0    0    0  501 -0.00000000000E+00 -0.00000000000E+00 -0.64299777809E+02  0.64312318620E+02  0.12700000000E+01 0.  1.
         25    2    1    2    0    0  0.00000000000E+00  0.00000000000E+00 -0.35673618268E+01  0.12505801189E+03  0.12500712087E+03 0.  0.
    9000005    1    3    3    0    0 -0.94666280093E+01  0.39179330018E+02 -0.49563548627E+02  0.63891958015E+02  0.10000000000E+01 0.  0.
    9000005    1    3    3    0    0  0.94666280093E+01 -0.39179330018E+02  0.45996186800E+02  0.61166053875E+02  0.10000000000E+01 0.  0.
<mgrwt>
<rscale>  0 0.12500712E+03</rscale>
<asrwt>0</asrwt>
<pdfrwt beam="1">  1        4 0.93454346E-02 0.12500712E+03</pdfrwt>
<pdfrwt beam="2">  1       -4 0.98942595E-02 0.12500712E+03</pdfrwt>
<totfact> 0.10449921E+04</totfact>
</mgrwt>
</event>
<event>
 5    1  0.3276024E-002  0.1249993E+03  0.7818608E-02  0.1235070E+00
         -4   -1    0    0    0  501 -0.00000000000E+00  0.00000000000E+00  0.32169679783E+03  0.32169930468E+03  0.12700000000E+01 0. -1.
          4   -1    0    0  501    0  0.00000000000E+00 -0.00000000000E+00 -0.12106741586E+02  0.12173170985E+02  0.12700000000E+01 0. -1.
         25    2    1    2    0    0  0.00000000000E+00  0.00000000000E+00  0.30959005624E+03  0.33387247566E+03  0.12499930834E+03 0.  0.
    9000005    1    3    3    0    0  0.31541873962E+02 -0.17830504781E+02  0.29079010318E+03  0.29304044230E+03  0.10000000000E+01 0.  0.
    9000005    1    3    3    0    0 -0.31541873962E+02  0.17830504781E+02  0.18799953054E+02  0.40832033364E+02  0.10000000000E+01 0.  0.
<mgrwt>
<rscale>  0 0.12499931E+03</rscale>
<asrwt>0</asrwt>
<pdfrwt beam="2">  1        4 0.18678787E-02 0.12499931E+03</pdfrwt>
<pdfrwt beam="1">  1       -4 0.49497111E-01 0.12499931E+03</pdfrwt>
<totfact> 0.71537098E+03</totfact>
</mgrwt>
</event>
<event>
 5    1  0.3276024E-002  0.1249998E+03  0.7818608E-02  0.1235070E+00
         -4   -1    0    0    0  501 -0.00000000000E+00  0.00000000000E+00  0.71127247578E+02  0.71138584805E+02  0.12700000000E+01 0. -1.
          4   -1    0    0  501    0  0.00000000000E+00 -0.00000000000E+00 -0.54895964998E+02  0.54910653548E+02  0.12700000000E+01 0. -1.
         25    2    1    2    0    0  0.00000000000E+00  0.00000000000E+00  0.16231282580E+02  0.12604923835E+03  0.12499982382E+03 0.  0.
    9000005    1    3    3    0    0  0.53418712624E+02  0.22875634329E+02  0.31295258733E+02  0.66009444200E+02  0.10000000000E+01 0.  0.
    9000005    1    3    3    0    0 -0.53418712624E+02 -0.22875634329E+02 -0.15063976153E+02  0.60039794153E+02  0.10000000000E+01 0.  0.
<mgrwt>
<rscale>  0 0.12499982E+03</rscale>
<asrwt>0</asrwt>
<pdfrwt beam="2">  1        4 0.84475351E-02 0.12499982E+03</pdfrwt>
<pdfrwt beam="1">  1       -4 0.10944655E-01 0.12499982E+03</pdfrwt>
<totfact> 0.10429920E+04</totfact>
</mgrwt>
</event>
<event>
 5    1  0.3276024E-002  0.1250015E+03  0.7818608E-02  0.1235067E+00
          4   -1    0    0  501    0  0.00000000000E+00  0.00000000000E+00  0.72988576630E+02  0.72999624783E+02  0.12700000000E+01 0. -1.
         -4   -1    0    0    0  501 -0.00000000000E+00 -0.00000000000E+00 -0.53497271345E+02  0.53512343823E+02  0.12700000000E+01 0. -1.
         25    2    1    2    0    0  0.00000000000E+00  0.00000000000E+00  0.19491305284E+02  0.12651196861E+03  0.12500146887E+03 0.  0.
    9000005    1    3    3    0    0 -0.54950157711E+02  0.29278658276E+02  0.43348227345E+01  0.62422354578E+02  0.10000000000E+01 0.  0.
    9000005    1    3    3    0    0  0.54950157711E+02 -0.29278658276E+02  0.15156482550E+02  0.64089614028E+02  0.10000000000E+01 0.  0.
<mgrwt>
<rscale>  0 0.12500147E+03</rscale>
<asrwt>0</asrwt>
<pdfrwt beam="1">  1        4 0.11231021E-01 0.12500147E+03</pdfrwt>
<pdfrwt beam="2">  1       -4 0.82323587E-02 0.12500147E+03</pdfrwt>
<totfact> 0.10419422E+04</totfact>
</mgrwt>
</event>
<event>
 5    1  0.3276024E-002  0.1249952E+03  0.7818608E-02  0.1235077E+00
          4   -1    0    0  501    0  0.00000000000E+00  0.00000000000E+00  0.35659493318E+03  0.35659719470E+03  0.12700000000E+01 0.  1.
         -4   -1    0    0    0  501 -0.00000000000E+00 -0.00000000000E+00 -0.10914342209E+02  0.10987982792E+02  0.12700000000E+01 0.  1.
         25    2    1    2    0    0  0.00000000000E+00  0.00000000000E+00  0.34568059097E+03  0.36758517749E+03  0.12499516686E+03 0.  0.
    9000005    1    3    3    0    0 -0.30031150861E+02 -0.12061367603E+02  0.15635572671E+02  0.35955774825E+02  0.10000000000E+01 0.  0.
    9000005    1    3    3    0    0  0.30031150861E+02  0.12061367603E+02  0.33004501830E+03  0.33162940267E+03  0.10000000000E+01 0.  0.
<mgrwt>
<rscale>  0 0.12499517E+03</rscale>
<asrwt>0</asrwt>
<pdfrwt beam="1">  1        4 0.54866593E-01 0.12499517E+03</pdfrwt>
<pdfrwt beam="2">  1       -4 0.16849683E-02 0.12499517E+03</pdfrwt>
<totfact> 0.67839582E+03</totfact>
</mgrwt>
</event>
<event>
 5    1  0.3276024E-002  0.1250008E+03  0.7818608E-02  0.1235068E+00
         -4   -1    0    0    0  501 -0.00000000000E+00  0.00000000000E+00  0.19763898085E+03  0.19764306123E+03  0.12700000000E+01 0.  1.
          4   -1    0    0  501    0  0.00000000000E+00 -0.00000000000E+00 -0.19740145278E+02  0.19780956388E+02  0.12700000000E+01 0.  1.
         25    2    1    2    0    0  0.00000000000E+00  0.00000000000E+00  0.17789883558E+03  0.21742401762E+03  0.12500083095E+03 0.  0.
    9000005    1    3    3    0    0 -0.36576346952E+01 -0.33923936093E+02  0.18001542182E+03  0.18322326223E+03  0.10000000000E+01 0.  0.
    9000005    1    3    3    0    0  0.36576346952E+01  0.33923936093E+02 -0.21165862409E+01  0.34200755386E+02  0.10000000000E+01 0.  0.
<mgrwt>
<rscale>  0 0.12500083E+03</rscale>
<asrwt>0</asrwt>
<pdfrwt beam="2">  1        4 0.30403988E-02 0.12500083E+03</pdfrwt>
<pdfrwt beam="1">  1       -4 0.30409449E-01 0.12500083E+03</pdfrwt>
<totfact> 0.87275994E+03</totfact>
</mgrwt>
</event>
<event>
 5    1  0.3276024E-002  0.1250026E+03  0.7818608E-02  0.1235065E+00
         -4   -1    0    0    0  501 -0.00000000000E+00  0.00000000000E+00  0.49407922106E+02  0.49424241692E+02  0.12700000000E+01 0.  1.
          4   -1    0    0  501    0  0.00000000000E+00 -0.00000000000E+00 -0.79030004192E+02  0.79040207886E+02  0.12700000000E+01 0.  1.
         25    2    1    2    0    0  0.00000000000E+00  0.00000000000E+00 -0.29622082086E+02  0.12846444958E+03  0.12500258821E+03 0.  0.
    9000005    1    3    3    0    0  0.58255884289E+01  0.50998748669E+02 -0.51443722413E+02  0.72679202129E+02  0.10000000000E+01 0.  0.
    9000005    1    3    3    0    0 -0.58255884289E+01 -0.50998748669E+02  0.21821640327E+02  0.55785247449E+02  0.10000000000E+01 0.  0.
<mgrwt>
<rscale>  0 0.12500259E+03</rscale>
<asrwt>0</asrwt>
<pdfrwt beam="2">  1        4 0.12160502E-01 0.12500259E+03</pdfrwt>
<pdfrwt beam="1">  1       -4 0.76032591E-02 0.12500259E+03</pdfrwt>
<totfact> 0.10376863E+04</totfact>
</mgrwt>
</event>
<event>
 5    1  0.3276024E-002  0.1249940E+03  0.7818608E-02  0.1235079E+00
          4   -1    0    0  501    0  0.00000000000E+00  0.00000000000E+00  0.27153911690E+03  0.27154208680E+03  0.12700000000E+01 0.  1.
         -4   -1    0    0    0  501 -0.00000000000E+00 -0.00000000000E+00 -0.14353113367E+02  0.14409190239E+02  0.12700000000E+01 0.  1.
         25    2    1    2    0    0  0.00000000000E+00  0.00000000000E+00  0.25718600353E+03  0.28595127704E+03  0.12499396958E+03 0.  0.
    9000005    1    3    3    0    0 -0.56973934933E+02 -0.14976374729E+02  0.80903379869E+02  0.10008335494E+03  0.10000000000E+01 0.  0.
    9000005    1    3    3    0    0  0.56973934933E+02  0.14976374729E+02  0.17628262366E+03  0.18586792210E+03  0.10000000000E+01 0.  0.
<mgrwt>
<rscale>  0 0.12499397E+03</rscale>
<asrwt>0</asrwt>
<pdfrwt beam="1">  1        4 0.41779789E-01 0.12499397E+03</pdfrwt>
<pdfrwt beam="2">  1       -4 0.22127134E-02 0.12499397E+03</pdfrwt>
<totfact> 0.77405941E+03</totfact>
</mgrwt>
</event>
<event>
 5    1  0.3276024E-002  0.1249985E+03  0.7818608E-02  0.1235072E+00
         -4   -1    0    0    0  501 -0.00000000000E+00  0.00000000000E+00  0.25107005039E+03  0.25107326243E+03  0.12700000000E+01 0. -1.
          4   -1    0    0  501    0  0.00000000000E+00 -0.00000000000E+00 -0.15528791503E+02  0.15580637521E+02  0.12700000000E+01 0. -1.
         25    2    1    2    0    0  0.00000000000E+00  0.00000000000E+00  0.23554125889E+03  0.26665389995E+03  0.12499847086E+03 0.  0.
    9000005    1    3    3    0    0 -0.61372828038E+00 -0.26602591692E+02  0.23839081257E+03  0.23987341259E+03  0.10000000000E+01 0.  0.
    9000005    1    3    3    0    0  0.61372828038E+00  0.26602591692E+02 -0.28495536797E+01  0.26780487361E+02  0.10000000000E+01 0.  0.
<mgrwt>
<rscale>  0 0.12499847E+03</rscale>
<asrwt>0</asrwt>
<pdfrwt beam="2">  1        4 0.23932803E-02 0.12499847E+03</pdfrwt>
<pdfrwt beam="1">  1       -4 0.38630393E-01 0.12499847E+03</pdfrwt>
<totfact> 0.79983978E+03</totfact>
</mgrwt>
</event>
<event>
 5    1  0.3276024E-002  0.1249929E+03  0.7818608E-02  0.1235080E+00
          4   -1    0    0  501    0  0.00000000000E+00  0.00000000000E+00  0.10647849224E+04  0.10647856798E+04  0.12700000000E+01 0. -1.
         -4   -1    0    0    0  501 -0.00000000000E+00 -0.00000000000E+00 -0.35574563303E+01  0.37773529809E+01  0.12700000000E+01 0. -1.
         25    2    1    2    0    0  0.00000000000E+00  0.00000000000E+00  0.10612274661E+04  0.10685630328E+04  0.12499288079E+03 0.  0.
    9000005    1    3    3    0    0  0.43398369358E+02 -0.34774348636E+02  0.77424217397E+03  0.77623747509E+03  0.10000000000E+01 0.  0.
    9000005    1    3    3    0    0 -0.43398369358E+02  0.34774348636E+02  0.28698529214E+03  0.29232555771E+03  0.10000000000E+01 0.  0.
<mgrwt>
<rscale>  0 0.12499288E+03</rscale>
<asrwt>0</asrwt>
<pdfrwt beam="1">  1        4 0.16383017E+00 0.12499288E+03</pdfrwt>
<pdfrwt beam="2">  1       -4 0.56427389E-03 0.12499288E+03</pdfrwt>
<totfact> 0.28426554E+03</totfact>
</mgrwt>
</event>
<event>
 5    1  0.3276024E-002  0.1250031E+03  0.7818608E-02  0.1235064E+00
          4   -1    0    0  501    0  0.00000000000E+00  0.00000000000E+00  0.63906471593E+02  0.63919089571E+02  0.12700000000E+01 0.  1.
         -4   -1    0    0    0  501 -0.00000000000E+00 -0.00000000000E+00 -0.61102260006E+02  0.61115456947E+02  0.12700000000E+01 0.  1.
         25    2    1    2    0    0  0.00000000000E+00  0.00000000000E+00  0.28042115876E+01  0.12503454652E+03  0.12500309684E+03 0.  0.
    9000005    1    3    3    0    0 -0.11652275470E+02 -0.19581586774E+02  0.59608064218E+02  0.63822687063E+02  0.10000000000E+01 0.  0.
    9000005    1    3    3    0    0  0.11652275470E+02  0.19581586774E+02 -0.56803852630E+02  0.61211859454E+02  0.10000000000E+01 0.  0.
<mgrwt>
<rscale>  0 0.12500310E+03</rscale>
<asrwt>0</asrwt>
<pdfrwt beam="1">  1        4 0.98337506E-02 0.12500310E+03</pdfrwt>
<pdfrwt beam="2">  1       -4 0.94023335E-02 0.12500310E+03</pdfrwt>
<totfact> 0.10451381E+04</totfact>
</mgrwt>
</event>
<event>
 5    1  0.3276024E-002  0.1249982E+03  0.7818608E-02  0.1235072E+00
          4   -1    0    0  501    0  0.00000000000E+00  0.00000000000E+00  0.38808739368E+02  0.38829513921E+02  0.12700000000E+01 0.  1.
         -4   -1    0    0    0  501 -0.00000000000E+00 -0.00000000000E+00 -0.10059926523E+03  0.10060728137E+03  0.12700000000E+01 0.  1.
         25    2    1    2    0    0  0.00000000000E+00  0.00000000000E+00 -0.61790525860E+02  0.13943679529E+03  0.12499820317E+03 0.  0.
    9000005    1    3    3    0    0  0.58157269608E+02 -0.10136234980E+02 -0.80306620469E+01  0.59586095700E+02  0.10000000000E+01 0.  0.
    9000005    1    3    3    0    0 -0.58157269608E+02  0.10136234980E+02 -0.53759863813E+02  0.79850699590E+02  0.10000000000E+01 0.  0.
<mgrwt>
<rscale>  0 0.12499820E+03</rscale>
<asrwt>0</asrwt>
<pdfrwt beam="1">  1        4 0.59727900E-02 0.12499820E+03</pdfrwt>
<pdfrwt beam="2">  1       -4 0.15479025E-01 0.12499820E+03</pdfrwt>
<totfact> 0.10145683E+04</totfact>
</mgrwt>
</event>
<event>
 5    1  0.3276024E-002  0.1250028E+03  0.7818608E-02  0.1235065E+00
         -4   -1    0    0    0  501 -0.00000000000E+00  0.00000000000E+00  0.27575919303E+02  0.27605148531E+02  0.12700000000E+01 0.  1.
          4   -1    0    0  501    0  0.00000000000E+00 -0.00000000000E+00 -0.14155354737E+03  0.14155924439E+03  0.12700000000E+01 0.  1.
         25    2    1    2    0    0  0.00000000000E+00  0.00000000000E+00 -0.11397762806E+03  0.16916439292E+03  0.12500276850E+03 0.  0.
    9000005    1    3    3    0    0 -0.35748520388E+02  0.50590048055E+02 -0.45820040664E+02  0.77057029521E+02  0.10000000000E+01 0.  0.
    9000005    1    3    3    0    0  0.35748520388E+02 -0.50590048055E+02 -0.68157587400E+02  0.92107363400E+02  0.10000000000E+01 0.  0.
<mgrwt>
<rscale>  0 0.12500277E+03</rscale>
<asrwt>0</asrwt>
<pdfrwt beam="2">  1        4 0.21780155E-01 0.12500277E+03</pdfrwt>
<pdfrwt beam="1">  1       -4 0.42451358E-02 0.12500277E+03</pdfrwt>
<totfact> 0.95598540E+03</totfact>
</mgrwt>
</event>
<event>
 5    1  0.3276024E-002  0.1250058E+03  0.7818608E-02  0.1235060E+00
         -4   -1    0    0    0  501 -0.00000000000E+00  0.00000000000E+00  0.43078622301E+01  0.44911665515E+01  0.12700000000E+01 0.  1.
          4   -1    0    0  501    0  0.00000000000E+00 -0.00000000000E+00 -0.88778102257E+03  0.88778193096E+03  0.12700000000E+01 0.  1.
         25    2    1    2    0    0  0.00000000000E+00  0.00000000000E+00 -0.88347316034E+03  0.89227309751E+03  0.12500582186E+03 0.  0.
    9000005    1    3    3    0    0 -0.23950490111E+02 -0.43562323015E+02 -0.71206354097E+03  0.71379744210E+03  0.10000000000E+01 0.  0.
    9000005    1    3    3    0    0  0.23950490111E+02  0.43562323015E+02 -0.17140961937E+03  0.17847565541E+03  0.10000000000E+01 0.  0.
<mgrwt>
<rscale>  0 0.12500582E+03</rscale>
<asrwt>0</asrwt>
<pdfrwt beam="2">  1        4 0.13659572E+00 0.12500582E+03</pdfrwt>
<pdfrwt beam="1">  1       -4 0.67691895E-03 0.12500582E+03</pdfrwt>
<totfact> 0.34452672E+03</totfact>
</mgrwt>
</event>
<event>
 5    1  0.3276024E-002  0.1250273E+03  0.7818608E-02  0.1235027E+00
          4   -1    0    0  501    0  0.00000000000E+00  0.00000000000E+00  0.21940147870E+02  0.21976873949E+02  0.12700000000E+01 0. -1.
         -4   -1    0    0    0  501 -0.00000000000E+00 -0.00000000000E+00 -0.17793113963E+03  0.17793567194E+03  0.12700000000E+01 0. -1.
         25    2    1    2    0    0  0.00000000000E+00  0.00000000000E+00 -0.15599099176E+03  0.19991254589E+03  0.12502734299E+03 0.  0.
    9000005    1    3    3    0    0 -0.56218999294E+02 -0.24522369241E+02 -0.97251843899E+02  0.11498192735E+03  0.10000000000E+01 0.  0.
    9000005    1    3    3    0    0  0.56218999294E+02  0.24522369241E+02 -0.58739147861E+02  0.84930618544E+02  0.10000000000E+01 0.  0.
<mgrwt>
<rscale>  0 0.12502734E+03</rscale>
<asrwt>0</asrwt>
<pdfrwt beam="1">  1        4 0.33785812E-02 0.12502734E+03</pdfrwt>
<pdfrwt beam="2">  1       -4 0.27377194E-01 0.12502734E+03</pdfrwt>
<totfact> 0.90095121E+03</totfact>
</mgrwt>
</event>
<event>
 5    1  0.3276024E-002  0.1249960E+03  0.7818608E-02  0.1235076E+00
          4   -1    0    0  501    0  0.00000000000E+00  0.00000000000E+00  0.23923637201E+03  0.23923974292E+03  0.12700000000E+01 0.  1.
         -4   -1    0    0    0  501 -0.00000000000E+00 -0.00000000000E+00 -0.16298762937E+02  0.16348167276E+02  0.12700000000E+01 0.  1.
         25    2    1    2    0    0  0.00000000000E+00  0.00000000000E+00  0.22293760907E+03  0.25558791019E+03  0.12499600913E+03 0.  0.
    9000005    1    3    3    0    0  0.48437800489E+02  0.38241435661E+02  0.91395398169E+02  0.11028484358E+03  0.10000000000E+01 0.  0.
    9000005    1    3    3    0    0 -0.48437800489E+02 -0.38241435661E+02  0.13154221090E+03  0.14530306661E+03  0.10000000000E+01 0.  0.
<mgrwt>
<rscale>  0 0.12499601E+03</rscale>
<asrwt>0</asrwt>
<pdfrwt beam="1">  1        4 0.36809652E-01 0.12499601E+03</pdfrwt>
<pdfrwt beam="2">  1       -4 0.25115619E-02 0.12499601E+03</pdfrwt>
<totfact> 0.81536497E+03</totfact>
</mgrwt>
</event>
<event>
 5    1  0.3276024E-002  0.1249978E+03  0.7818608E-02  0.1235073E+00
          4   -1    0    0  501    0  0.00000000000E+00  0.00000000000E+00  0.15036597020E+03  0.15037133335E+03  0.12700000000E+01 0.  1.
         -4   -1    0    0    0  501 -0.00000000000E+00 -0.00000000000E+00 -0.25956005051E+02  0.25987056359E+02  0.12700000000E+01 0.  1.
         25    2    1    2    0    0  0.00000000000E+00  0.00000000000E+00  0.12440996515E+03  0.17635838971E+03  0.12499776875E+03 0.  0.
    9000005    1    3    3    0    0  0.11800611227E+02 -0.42084783388E+02  0.12521877401E+03  0.13263153766E+03  0.10000000000E+01 0.  0.
    9000005    1    3    3    0    0 -0.11800611227E+02  0.42084783388E+02 -0.80880886444E+00  0.43726852047E+02  0.10000000000E+01 0.  0.
<mgrwt>
<rscale>  0 0.12499777E+03</rscale>
<asrwt>0</asrwt>
<pdfrwt beam="1">  1        4 0.23136027E-01 0.12499777E+03</pdfrwt>
<pdfrwt beam="2">  1       -4 0.39960326E-02 0.12499777E+03</pdfrwt>
<totfact> 0.94281360E+03</totfact>
</mgrwt>
</event>
<event>
 5    1  0.3276024E-002  0.1250022E+03  0.7818608E-02  0.1235066E+00
          4   -1    0    0  501    0  0.00000000000E+00  0.00000000000E+00  0.14267037538E+02  0.14323451404E+02  0.12700000000E+01 0. -1.
         -4   -1    0    0    0  501 -0.00000000000E+00 -0.00000000000E+00 -0.27320712291E+03  0.27321007468E+03  0.12700000000E+01 0. -1.
         25    2    1    2    0    0  0.00000000000E+00  0.00000000000E+00 -0.25894008537E+03  0.28753352609E+03  0.12500224323E+03 0.  0.
    9000005    1    3    3    0    0 -0.66383442816E+00  0.39965789115E+02 -0.23996920062E+03  0.24327745934E+03  0.10000000000E+01 0.  0.
    9000005    1    3    3    0    0  0.66383442816E+00 -0.39965789115E+02 -0.18970884748E+02  0.44256066746E+02  0.10000000000E+01 0.  0.
<mgrwt>
<rscale>  0 0.12500224E+03</rscale>
<asrwt>0</asrwt>
<pdfrwt beam="1">  1        4 0.21994956E-02 0.12500224E+03</pdfrwt>
<pdfrwt beam="2">  1       -4 0.42036428E-01 0.12500224E+03</pdfrwt>
<totfact> 0.77185857E+03</totfact>
</mgrwt>
</event>
<event>
 5    1  0.3276024E-002  0.1249960E+03  0.7818608E-02  0.1235076E+00
          4   -1    0    0  501    0  0.00000000000E+00  0.00000000000E+00  0.45513897945E+03  0.45514075133E+03  0.12700000000E+01 0.  1.
         -4   -1    0    0    0  501 -0.00000000000E+00 -0.00000000000E+00 -0.85332083598E+01  0.86271979756E+01  0.12700000000E+01 0.  1.
         25    2    1    2    0    0  0.00000000000E+00  0.00000000000E+00  0.44660577109E+03  0.46376794930E+03  0.12499598404E+03 0.  0.
    9000005    1    3    3    0    0 -0.40653416307E+02 -0.40592842584E+02  0.31452706494E+03  0.31973231570E+03  0.10000000000E+01 0.  0.
    9000005    1    3    3    0    0  0.40653416307E+02  0.40592842584E+02  0.13207870616E+03  0.14403563360E+03  0.10000000000E+01 0.  0.
<mgrwt>
<rscale>  0 0.12499598E+03</rscale>
<asrwt>0</asrwt>
<pdfrwt beam="1">  1        4 0.70028743E-01 0.12499598E+03</pdfrwt>
<pdfrwt beam="2">  1       -4 0.13201677E-02 0.12499598E+03</pdfrwt>
<totfact> 0.58794561E+03</totfact>
</mgrwt>
</event>
<event>
 5    1  0.3276024E-002  0.1250114E+03  0.7818608E-02  0.1235051E+00
         -4   -1    0    0    0  501 -0.00000000000E+00  0.00000000000E+00  0.79249693275E+02  0.79259868686E+02  0.12700000000E+01 0.  1.
          4   -1    0    0  501    0  0.00000000000E+00 -0.00000000000E+00 -0.49277897524E+02  0.49294260156E+02  0.12700000000E+01 0.  1.
         25    2    1    2    0    0  0.00000000000E+00  0.00000000000E+00  0.29971795751E+02  0.12855412884E+03  0.12501142149E+03 0.  0.
    9000005    1    3    3    0    0  0.54841066575E+02 -0.17262704114E+02  0.40183779646E+02  0.70151833070E+02  0.10000000000E+01 0.  0.
    9000005    1    3    3    0    0 -0.54841066575E+02  0.17262704114E+02 -0.10211983895E+02  0.58402295772E+02  0.10000000000E+01 0.  0.
<mgrwt>
<rscale>  0 0.12501142E+03</rscale>
<asrwt>0</asrwt>
<pdfrwt beam="2">  1        4 0.75832564E-02 0.12501142E+03</pdfrwt>
<pdfrwt beam="1">  1       -4 0.12194302E-01 0.12501142E+03</pdfrwt>
<totfact> 0.10372863E+04</totfact>
</mgrwt>
</event>
<event>
 5    1  0.3276024E-002  0.1250011E+03  0.7818608E-02  0.1235068E+00
          4   -1    0    0  501    0  0.00000000000E+00  0.00000000000E+00  0.11081441340E+02  0.11153978760E+02  0.12700000000E+01 0. -1.
         -4   -1    0    0    0  501 -0.00000000000E+00 -0.00000000000E+00 -0.35128643876E+03  0.35128873446E+03  0.12700000000E+01 0. -1.
         25    2    1    2    0    0  0.00000000000E+00  0.00000000000E+00 -0.34020499742E+03  0.36244271322E+03  0.12500112038E+03 0.  0.
    9000005    1    3    3    0    0  0.42566942876E+02 -0.17131758210E+02 -0.29311437216E+03  0.29668582192E+03  0.10000000000E+01 0.  0.
    9000005    1    3    3    0    0 -0.42566942876E+02  0.17131758210E+02 -0.47090625265E+02  0.65756891297E+02  0.10000000000E+01 0.  0.
<mgrwt>
<rscale>  0 0.12500112E+03</rscale>
<asrwt>0</asrwt>
<pdfrwt beam="1">  1        4 0.17105938E-02 0.12500112E+03</pdfrwt>
<pdfrwt beam="2">  1       -4 0.54049815E-01 0.12500112E+03</pdfrwt>
<totfact> 0.68375362E+03</totfact>
</mgrwt>
</event>
<event>
 5    1  0.3276024E-002  0.1249996E+03  0.7818608E-02  0.1235070E+00
          4   -1    0    0  501    0  0.00000000000E+00  0.00000000000E+00  0.14853769222E+02  0.14907962977E+02  0.12700000000E+01 0. -1.
         -4   -1    0    0    0  501 -0.00000000000E+00 -0.00000000000E+00 -0.26244401839E+03  0.26244709122E+03  0.12700000000E+01 0. -1.
         25    2    1    2    0    0  0.00000000000E+00  0.00000000000E+00 -0.24759024917E+03  0.27735505419E+03  0.12499957842E+03 0.  0.
    9000005    1    3    3    0    0 -0.57049214999E+02  0.24972311457E+02 -0.11226685270E+03  0.12838643030E+03  0.10000000000E+01 0.  0.
    9000005    1    3    3    0    0  0.57049214999E+02 -0.24972311457E+02 -0.13532339647E+03  0.14896862389E+03  0.10000000000E+01 0.  0.
<mgrwt>
<rscale>  0 0.12499958E+03</rscale>
<asrwt>0</asrwt>
<pdfrwt beam="1">  1        4 0.22896006E-02 0.12499958E+03</pdfrwt>
<pdfrwt beam="2">  1       -4 0.40380404E-01 0.12499958E+03</pdfrwt>
<totfact> 0.78530855E+03</totfact>
</mgrwt>
</event>
<event>
 5    1  0.3276024E-002  0.1249960E+03  0.7818608E-02  0.1235076E+00
         -4   -1    0    0    0  501 -0.00000000000E+00  0.00000000000E+00  0.74011478207E+03  0.74011587170E+03  0.12700000000E+01 0.  1.
          4   -1    0    0  501    0  0.00000000000E+00 -0.00000000000E+00 -0.52000443413E+01  0.53528834428E+01  0.12700000000E+01 0.  1.
         25    2    1    2    0    0  0.00000000000E+00  0.00000000000E+00  0.73491473773E+03  0.74546875514E+03  0.12499597257E+03 0.  0.
    9000005    1    3    3    0    0 -0.51379124577E+02 -0.58570928674E+01  0.57669557356E+03  0.57901028017E+03  0.10000000000E+01 0.  0.
    9000005    1    3    3    0    0  0.51379124577E+02  0.58570928674E+01  0.15821916417E+03  0.16645847497E+03  0.10000000000E+01 0.  0.
<mgrwt>
<rscale>  0 0.12499597E+03</rscale>
<asrwt>0</asrwt>
<pdfrwt beam="2">  1        4 0.81184754E-03 0.12499597E+03</pdfrwt>
<pdfrwt beam="1">  1       -4 0.11387565E+00 0.12499597E+03</pdfrwt>
<totfact> 0.40795401E+03</totfact>
</mgrwt>
</event>
<event>
 5    1  0.3276024E-002  0.1250011E+03  0.7818608E-02  0.1235068E+00
         -4   -1    0    0    0  501 -0.00000000000E+00  0.00000000000E+00  0.60230890901E+01  0.61555261504E+01  0.12700000000E+01 0.  1.
          4   -1    0    0  501    0  0.00000000000E+00 -0.00000000000E+00 -0.64137145135E+03  0.64137270873E+03  0.12700000000E+01 0.  1.
         25    2    1    2    0    0  0.00000000000E+00  0.00000000000E+00 -0.63534836226E+03  0.64752823488E+03  0.12500109417E+03 0.  0.
    9000005    1    3    3    0    0 -0.31962489687E+02 -0.29789161069E+02 -0.54912587186E+03  0.55086224957E+03  0.10000000000E+01 0.  0.
    9000005    1    3    3    0    0  0.31962489687E+02  0.29789161069E+02 -0.86222490400E+02  0.96665985305E+02  0.10000000000E+01 0.  0.
<mgrwt>
<rscale>  0 0.12500109E+03</rscale>
<asrwt>0</asrwt>
<pdfrwt beam="2">  1        4 0.98682762E-01 0.12500109E+03</pdfrwt>
<pdfrwt beam="1">  1       -4 0.93691379E-03 0.12500109E+03</pdfrwt>
<totfact> 0.45997418E+03</totfact>
</mgrwt>
</event>
<event>
 5    1  0.3276024E-002  0.1249997E+03  0.7818608E-02  0.1235070E+00
          4   -1    0    0  501    0  0.00000000000E+00  0.00000000000E+00  0.17906224302E+02  0.17951205217E+02  0.12700000000E+01 0.  1.
         -4   -1    0    0    0  501 -0.00000000000E+00 -0.00000000000E+00 -0.21782880450E+03  0.21783250669E+03  0.12700000000E+01 0.  1.
         25    2    1    2    0    0  0.00000000000E+00  0.00000000000E+00 -0.19992258020E+03  0.23578371191E+03  0.12499968291E+03 0.  0.
    9000005    1    3    3    0    0  0.53302360601E+02  0.31829898015E+02 -0.86497712380E+02  0.10647599871E+03  0.10000000000E+01 0.  0.
    9000005    1    3    3    0    0 -0.53302360601E+02 -0.31829898015E+02 -0.11342486782E+03  0.12930771320E+03  0.10000000000E+01 0.  0.
<mgrwt>
<rscale>  0 0.12499968E+03</rscale>
<asrwt>0</asrwt>
<pdfrwt beam="1">  1        4 0.27585487E-02 0.12499968E+03</pdfrwt>
<pdfrwt beam="2">  1       -4 0.33515867E-01 0.12499968E+03</pdfrwt>
<totfact> 0.84429941E+03</totfact>
</mgrwt>
</event>
<event>
 5    1  0.3276024E-002  0.1250063E+03  0.7818608E-02  0.1235059E+00
          4   -1    0    0  501    0  0.00000000000E+00  0.00000000000E+00  0.25561280044E+02  0.25592810269E+02  0.12700000000E+01 0. -1.
         -4   -1    0    0    0  501 -0.00000000000E+00 -0.00000000000E+00 -0.15270597757E+03  0.15271125855E+03  0.12700000000E+01 0. -1.
         25    2    1    2    0    0  0.00000000000E+00  0.00000000000E+00 -0.12714469753E+03  0.17830406882E+03  0.12500626723E+03 0.  0.
    9000005    1    3    3    0    0 -0.48869844983E+02 -0.35931473730E+02 -0.85029918444E+02  0.10445295393E+03  0.10000000000E+01 0.  0.
    9000005    1    3    3    0    0  0.48869844983E+02  0.35931473730E+02 -0.42114779087E+02  0.73851114891E+02  0.10000000000E+01 0.  0.
<mgrwt>
<rscale>  0 0.12500627E+03</rscale>
<asrwt>0</asrwt>
<pdfrwt beam="1">  1        4 0.39353363E-02 0.12500627E+03</pdfrwt>
<pdfrwt beam="2">  1       -4 0.23496058E-01 0.12500627E+03</pdfrwt>
<totfact> 0.93909971E+03</totfact>
</mgrwt>
</event>
<event>
 5    1  0.3276024E-002  0.1249999E+03  0.7818608E-02  0.1235069E+00
         -4   -1    0    0    0  501 -0.00000000000E+00  0.00000000000E+00  0.11708359311E+03  0.11709048072E+03  0.12700000000E+01 0.  1.
          4   -1    0    0  501    0  0.00000000000E+00 -0.00000000000E+00 -0.33342926234E+02  0.33367104007E+02  0.12700000000E+01 0.  1.
         25    2    1    2    0    0  0.00000000000E+00  0.00000000000E+00  0.83740666877E+02  0.15045758473E+03  0.12499994205E+03 0.  0.
    9000005    1    3    3    0    0 -0.12426227955E+02 -0.50490194774E+02  0.83593743948E+02  0.98450926541E+02  0.10000000000E+01 0.  0.
    9000005    1    3    3    0    0  0.12426227955E+02  0.50490194774E+02  0.14692292888E+00  0.52006658188E+02  0.10000000000E+01 0.  0.
<mgrwt>
<rscale>  0 0.12499994E+03</rscale>
<asrwt>0</asrwt>
<pdfrwt beam="2">  1        4 0.51320706E-02 0.12499994E+03</pdfrwt>
<pdfrwt beam="1">  1       -4 0.18015250E-01 0.12499994E+03</pdfrwt>
<totfact> 0.99212693E+03</totfact>
</mgrwt>
</event>
<event>
 5    1  0.3276024E-002  0.1249976E+03  0.7818608E-02  0.1235073E+00
         -4   -1    0    0    0  501 -0.00000000000E+00  0.00000000000E+00  0.92411598419E+01  0.93280188263E+01  0.12700000000E+01 0. -1.
          4   -1    0    0  501    0  0.00000000000E+00 -0.00000000000E+00 -0.42062028719E+03  0.42062220448E+03  0.12700000000E+01 0. -1.
         25    2    1    2    0    0  0.00000000000E+00  0.00000000000E+00 -0.41137912735E+03  0.42995022330E+03  0.12499763237E+03 0.  0.
    9000005    1    3    3    0    0 -0.44796583344E+02 -0.43080692434E+02 -0.18328624306E+03  0.19353947100E+03  0.10000000000E+01 0.  0.
    9000005    1    3    3    0    0  0.44796583344E+02  0.43080692434E+02 -0.22809288429E+03  0.23641075230E+03  0.10000000000E+01 0.  0.
<mgrwt>
<rscale>  0 0.12499763E+03</rscale>
<asrwt>0</asrwt>
<pdfrwt beam="2">  1        4 0.64717628E-01 0.12499763E+03</pdfrwt>
<pdfrwt beam="1">  1       -4 0.14285462E-02 0.12499763E+03</pdfrwt>
<totfact> 0.61743733E+03</totfact>
</mgrwt>
</event>
<event>
 5    1  0.3276024E-002  0.1250230E+03  0.7818608E-02  0.1235033E+00
          4   -1    0    0  501    0  0.00000000000E+00  0.00000000000E+00  0.19711006806E+02  0.19751878121E+02  0.12700000000E+01 0. -1.
         -4   -1    0    0    0  501 -0.00000000000E+00 -0.00000000000E+00 -0.19800065419E+03  0.19800472712E+03  0.12700000000E+01 0. -1.
         25    2    1    2    0    0  0.00000000000E+00  0.00000000000E+00 -0.17828964739E+03  0.21775660524E+03  0.12502296093E+03 0.  0.
    9000005    1    3    3    0    0 -0.24710227354E+02 -0.30681640801E+02 -0.46263164445E+01  0.39678221003E+02  0.10000000000E+01 0.  0.
    9000005    1    3    3    0    0  0.24710227354E+02  0.30681640801E+02 -0.17366333094E+03  0.17807838424E+03  0.10000000000E+01 0.  0.
<mgrwt>
<rscale>  0 0.12502296E+03</rscale>
<asrwt>0</asrwt>
<pdfrwt beam="1">  1        4 0.30359200E-02 0.12502296E+03</pdfrwt>
<pdfrwt beam="2">  1       -4 0.30465095E-01 0.12502296E+03</pdfrwt>
<totfact> 0.87179859E+03</totfact>
</mgrwt>
</event>
<event>
 5    1  0.3276024E-002  0.1250009E+03  0.7818608E-02  0.1235068E+00
          4   -1    0    0  501    0  0.00000000000E+00  0.00000000000E+00  0.26639380562E+03  0.26639683289E+03  0.12700000000E+01 0. -1.
         -4   -1    0    0    0  501 -0.00000000000E+00 -0.00000000000E+00 -0.14633032054E+02  0.14688040274E+02  0.12700000000E+01 0. -1.
         25    2    1    2    0    0  0.00000000000E+00  0.00000000000E+00  0.25176077357E+03  0.28108487316E+03  0.12500087525E+03 0.  0.
    9000005    1    3    3    0    0  0.28764092853E+02  0.42685195835E+02  0.20557022405E+03  0.21191865420E+03  0.10000000000E+01 0.  0.
    9000005    1    3    3    0    0 -0.28764092853E+02 -0.42685195835E+02  0.46190549518E+02  0.69166218965E+02  0.10000000000E+01 0.  0.
<mgrwt>
<rscale>  0 0.12500088E+03</rscale>
<asrwt>0</asrwt>
<pdfrwt beam="1">  1        4 0.40988125E-01 0.12500088E+03</pdfrwt>
<pdfrwt beam="2">  1       -4 0.22557001E-02 0.12500088E+03</pdfrwt>
<totfact> 0.78032961E+03</totfact>
</mgrwt>
</event>
<event>
 4    1  0.3276024E-002  0.1251244E+03  0.7818608E-02  0.1234875E+00
         -4   -1    0    0    0  501 -0.00000000000E+00  0.00000000000E+00  0.68960445836E+01  0.70120133270E+01  0.12700000000E+01 0. -1.
          4   -1    0    0  501    0  0.00000000000E+00 -0.00000000000E+00 -0.56272624926E+03  0.56272768237E+03  0.12700000000E+01 0. -1.
    9000005    1    1    2    0    0 -0.57937292649E+02  0.32605058744E+01 -0.17155033263E+03  0.18110184263E+03  0.10000000000E+01 0.  0.
    9000005    1    1    2    0    0  0.57937292649E+02 -0.32605058744E+01 -0.38427987205E+03  0.38863785307E+03  0.10000000000E+01 0.  0.
<mgrwt>
<rscale>  0 0.12512436E+03</rscale>
<asrwt>0</asrwt>
<pdfrwt beam="2">  1        4 0.86582264E-01 0.12512436E+03</pdfrwt>
<pdfrwt beam="1">  1       -4 0.10699613E-02 0.12512436E+03</pdfrwt>
<totfact> 0.50696733E+03</totfact>
</mgrwt>
</event>
<event>
 5    1  0.3276024E-002  0.1249999E+03  0.7818608E-02  0.1235069E+00
          4   -1    0    0  501    0  0.00000000000E+00  0.00000000000E+00  0.95269263264E+01  0.96112031103E+01  0.12700000000E+01 0.  1.
         -4   -1    0    0    0  501 -0.00000000000E+00 -0.00000000000E+00 -0.40813061774E+03  0.40813259370E+03  0.12700000000E+01 0.  1.
         25    2    1    2    0    0  0.00000000000E+00  0.00000000000E+00 -0.39860369142E+03  0.41774379681E+03  0.12499990785E+03 0.  0.
    9000005    1    3    3    0    0  0.59057712204E+02  0.14454899561E+02 -0.24755653736E+03  0.25491566582E+03  0.10000000000E+01 0.  0.
    9000005    1    3    3    0    0 -0.59057712204E+02 -0.14454899561E+02 -0.15104715406E+03  0.16282813099E+03  0.10000000000E+01 0.  0.
<mgrwt>
<rscale>  0 0.12499991E+03</rscale>
<asrwt>0</asrwt>
<pdfrwt beam="1">  1        4 0.14723161E-02 0.12499991E+03</pdfrwt>
<pdfrwt beam="2">  1       -4 0.62795947E-01 0.12499991E+03</pdfrwt>
<totfact> 0.62863009E+03</totfact>
</mgrwt>
</event>
<event>
 5    1  0.3276024E-002  0.1249909E+03  0.7818608E-02  0.1235084E+00
          4   -1    0    0  501    0  0.00000000000E+00  0.00000000000E+00  0.15308288946E+03  0.15308815743E+03  0.12700000000E+01 0.  1.
         -4   -1    0    0    0  501 -0.00000000000E+00 -0.00000000000E+00 -0.25491987053E+02  0.25523602879E+02  0.12700000000E+01 0.  1.
         25    2    1    2    0    0  0.00000000000E+00  0.00000000000E+00  0.12759090241E+03  0.17861176031E+03  0.12499088984E+03 0.  0.
    9000005    1    3    3    0    0  0.49566568922E+02 -0.35447559945E+02  0.83560432708E+02  0.10342494948E+03  0.10000000000E+01 0.  0.
    9000005    1    3    3    0    0 -0.49566568922E+02  0.35447559945E+02  0.44030469699E+02  0.75186810829E+02  0.10000000000E+01 0.  0.
<mgrwt>
<rscale>  0 0.12499089E+03</rscale>
<asrwt>0</asrwt>
<pdfrwt beam="1">  1        4 0.23554050E-01 0.12499089E+03</pdfrwt>
<pdfrwt beam="2">  1       -4 0.39246815E-02 0.12499089E+03</pdfrwt>
<totfact> 0.93886669E+03</totfact>
</mgrwt>
</event>
<event>
 5    1  0.3276024E-002  0.1249974E+03  0.7818608E-02  0.1235073E+00
         -4   -1    0    0    0  501 -0.00000000000E+00  0.00000000000E+00  0.49698206828E+02  0.49714431124E+02  0.12700000000E+01 0.  1.
          4   -1    0    0  501    0  0.00000000000E+00 -0.00000000000E+00 -0.78561949326E+02  0.78572213803E+02  0.12700000000E+01 0.  1.
         25    2    1    2    0    0  0.00000000000E+00  0.00000000000E+00 -0.28863742498E+02  0.12828664493E+03  0.12499739052E+03 0.  0.
    9000005    1    3    3    0    0 -0.45597675830E+02  0.24947012345E+02  0.21173782465E+02  0.56132259263E+02  0.10000000000E+01 0.  0.
    9000005    1    3    3    0    0  0.45597675830E+02 -0.24947012345E+02 -0.50037524963E+02  0.72154385664E+02  0.10000000000E+01 0.  0.
<mgrwt>
<rscale>  0 0.12499739E+03</rscale>
<asrwt>0</asrwt>
<pdfrwt beam="2">  1        4 0.12088491E-01 0.12499739E+03</pdfrwt>
<pdfrwt beam="1">  1       -4 0.76479156E-02 0.12499739E+03</pdfrwt>
<totfact> 0.10381913E+04</totfact>
</mgrwt>
</event>
<event>
 5    1  0.3276024E-002  0.1249994E+03  0.7818608E-02  0.1235070E+00
          4   -1    0    0  501    0  0.00000000000E+00  0.00000000000E+00  0.37446677519E+03  0.37446892878E+03  0.12700000000E+01 0.  1.
         -4   -1    0    0    0  501 -0.00000000000E+00 -0.00000000000E+00 -0.10390552083E+02  0.10467878132E+02  0.12700000000E+01 0.  1.
         25    2    1    2    0    0  0.00000000000E+00  0.00000000000E+00  0.36407622310E+03  0.38493680691E+03  0.12499939633E+03 0.  0.
    9000005    1    3    3    0    0 -0.42531676583E+02  0.36373444408E+02  0.96405528407E+02  0.11147644091E+03  0.10000000000E+01 0.  0.
    9000005    1    3    3    0    0  0.42531676583E+02 -0.36373444408E+02  0.26767069470E+03  0.27346036600E+03  0.10000000000E+01 0.  0.
<mgrwt>
<rscale>  0 0.12499940E+03</rscale>
<asrwt>0</asrwt>
<pdfrwt beam="1">  1        4 0.57616385E-01 0.12499940E+03</pdfrwt>
<pdfrwt beam="2">  1       -4 0.16046603E-02 0.12499940E+03</pdfrwt>
<totfact> 0.66045547E+03</totfact>
</mgrwt>
</event>
<event>
 5    1  0.3276024E-002  0.1249860E+03  0.7818608E-02  0.1235091E+00
          4   -1    0    0  501    0  0.00000000000E+00  0.00000000000E+00  0.26802297951E+03  0.26802598838E+03  0.12700000000E+01 0. -1.
         -4   -1    0    0    0  501 -0.00000000000E+00 -0.00000000000E+00 -0.14540264874E+02  0.14595622721E+02  0.12700000000E+01 0. -1.
         25    2    1    2    0    0  0.00000000000E+00  0.00000000000E+00  0.25348271463E+03  0.28262161110E+03  0.12498595297E+03 0.  0.
    9000005    1    3    3    0    0 -0.25433373703E+02  0.13991377971E+02  0.16205556300E+01  0.29090227843E+02  0.10000000000E+01 0.  0.
    9000005    1    3    3    0    0  0.25433373703E+02 -0.13991377971E+02  0.25186215901E+03  0.25353138325E+03  0.10000000000E+01 0.  0.
<mgrwt>
<rscale>  0 0.12498595E+03</rscale>
<asrwt>0</asrwt>
<pdfrwt beam="1">  1        4 0.41238796E-01 0.12498595E+03</pdfrwt>
<pdfrwt beam="2">  1       -4 0.22414535E-02 0.12498595E+03</pdfrwt>
<totfact> 0.77856078E+03</totfact>
</mgrwt>
</event>
<event>
 5    1  0.3276024E-002  0.1250491E+03  0.7818608E-02  0.1234993E+00
         -4   -1    0    0    0  501 -0.00000000000E+00  0.00000000000E+00  0.62981430470E+02  0.62994233736E+02  0.12700000000E+01 0.  1.
          4   -1    0    0  501    0  0.00000000000E+00 -0.00000000000E+00 -0.62045352988E+02  0.62058349377E+02  0.12700000000E+01 0.  1.
         25    2    1    2    0    0  0.00000000000E+00  0.00000000000E+00  0.93607748153E+00  0.12505258311E+03  0.12504907957E+03 0.  0.
    9000005    1    3    3    0    0  0.29681201576E+02 -0.33438258244E+02  0.44163967825E+02  0.62853376166E+02  0.10000000000E+01 0.  0.
    9000005    1    3    3    0    0 -0.29681201576E+02  0.33438258244E+02 -0.43227890344E+02  0.62199206948E+02  0.10000000000E+01 0.  0.
<mgrwt>
<rscale>  0 0.12504908E+03</rscale>
<asrwt>0</asrwt>
<pdfrwt beam="2">  1        4 0.95474235E-02 0.12504908E+03</pdfrwt>
<pdfrwt beam="1">  1       -4 0.96914354E-02 0.12504908E+03</pdfrwt>
<totfact> 0.10440136E+04</totfact>
</mgrwt>
</event>
<event>
 5    1  0.3276024E-002  0.1249897E+03  0.7818608E-02  0.1235085E+00
          4   -1    0    0  501    0  0.00000000000E+00  0.00000000000E+00  0.57760402722E+01  0.59140122782E+01  0.12700000000E+01 0.  1.
         -4   -1    0    0    0  501 -0.00000000000E+00 -0.00000000000E+00 -0.66805474282E+03  0.66805594998E+03  0.12700000000E+01 0.  1.
         25    2    1    2    0    0  0.00000000000E+00  0.00000000000E+00 -0.66227870255E+03  0.67396996226E+03  0.12498972029E+03 0.  0.
    9000005    1    3    3    0    0  0.61660766891E+02 -0.10126641770E+02 -0.33163641669E+03  0.33747342403E+03  0.10000000000E+01 0.  0.
    9000005    1    3    3    0    0 -0.61660766891E+02  0.10126641770E+02 -0.33064228586E+03  0.33649653823E+03  0.10000000000E+01 0.  0.
<mgrwt>
<rscale>  0 0.12498972E+03</rscale>
<asrwt>0</asrwt>
<pdfrwt beam="1">  1        4 0.89932820E-03 0.12498972E+03</pdfrwt>
<pdfrwt beam="2">  1       -4 0.10278830E+00 0.12498972E+03</pdfrwt>
<totfact> 0.44506897E+03</totfact>
</mgrwt>
</event>
<event>
 5    1  0.3276024E-002  0.1250017E+03  0.7818608E-02  0.1235067E+00
          4   -1    0    0  501    0  0.00000000000E+00  0.00000000000E+00  0.20756239499E+02  0.20795056579E+02  0.12700000000E+01 0.  1.
         -4   -1    0    0    0  501 -0.00000000000E+00 -0.00000000000E+00 -0.18798471574E+03  0.18798900567E+03  0.12700000000E+01 0.  1.
         25    2    1    2    0    0  0.00000000000E+00  0.00000000000E+00 -0.16722847624E+03  0.20878406224E+03  0.12500168552E+03 0.  0.
    9000005    1    3    3    0    0  0.23541385184E+02 -0.45315986397E+02 -0.23447672274E+02  0.56200789804E+02  0.10000000000E+01 0.  0.
    9000005    1    3    3    0    0 -0.23541385184E+02  0.45315986397E+02 -0.14378080397E+03  0.15258327244E+03  0.10000000000E+01 0.  0.
<mgrwt>
<rscale>  0 0.12500169E+03</rscale>
<asrwt>0</asrwt>
<pdfrwt beam="1">  1        4 0.31965837E-02 0.12500169E+03</pdfrwt>
<pdfrwt beam="2">  1       -4 0.28924040E-01 0.12500169E+03</pdfrwt>
<totfact> 0.88671504E+03</totfact>
</mgrwt>
</event>
<event>
 5    1  0.3276024E-002  0.1249970E+03  0.7818608E-02  0.1235074E+00
         -4   -1    0    0    0  501 -0.00000000000E+00  0.00000000000E+00  0.14235460395E+02  0.14291998904E+02  0.12700000000E+01 0.  1.
          4   -1    0    0  501    0  0.00000000000E+00 -0.00000000000E+00 -0.27378759187E+03  0.27379053739E+03  0.12700000000E+01 0.  1.
         25    2    1    2    0    0  0.00000000000E+00  0.00000000000E+00 -0.25955213148E+03  0.28808253629E+03  0.12499695501E+03 0.  0.
    9000005    1    3    3    0    0  0.40337777302E+01  0.18883894601E+02  0.71983110859E+01  0.20632220447E+02  0.10000000000E+01 0.  0.
    9000005    1    3    3    0    0 -0.40337777302E+01 -0.18883894601E+02 -0.26675044256E+03  0.26745031584E+03  0.10000000000E+01 0.  0.
<mgrwt>
<rscale>  0 0.12499696E+03</rscale>
<asrwt>0</asrwt>
<pdfrwt beam="2">  1        4 0.42125740E-01 0.12499696E+03</pdfrwt>
<pdfrwt beam="1">  1       -4 0.21946467E-02 0.12499696E+03</pdfrwt>
<totfact> 0.77123700E+03</totfact>
</mgrwt>
</event>
<event>
 5    1  0.3276024E-002  0.1250004E+03  0.7818608E-02  0.1235069E+00
         -4   -1    0    0    0  501 -0.00000000000E+00  0.00000000000E+00  0.11080729506E+02  0.11153271555E+02  0.12700000000E+01 0.  1.
          4   -1    0    0  501    0  0.00000000000E+00 -0.00000000000E+00 -0.35130472798E+03  0.35130702356E+03  0.12700000000E+01 0.  1.
         25    2    1    2    0    0  0.00000000000E+00  0.00000000000E+00 -0.34022399848E+03  0.36246029512E+03  0.12500038558E+03 0.  0.
    9000005    1    3    3    0    0 -0.34507302567E+02 -0.42608754875E+01 -0.32068199438E+03  0.32256294039E+03  0.10000000000E+01 0.  0.
    9000005    1    3    3    0    0  0.34507302567E+02  0.42608754875E+01 -0.19542004096E+02  0.39897354731E+02  0.10000000000E+01 0.  0.
<mgrwt>
<rscale>  0 0.12500039E+03</rscale>
<asrwt>0</asrwt>
<pdfrwt beam="2">  1        4 0.54052629E-01 0.12500039E+03</pdfrwt>
<pdfrwt beam="1">  1       -4 0.17104846E-02 0.12500039E+03</pdfrwt>
<totfact> 0.68374599E+03</totfact>
</mgrwt>
</event>
<event>
 5    1  0.3276024E-002  0.1250008E+03  0.7818608E-02  0.1235068E+00
          4   -1    0    0  501    0  0.00000000000E+00  0.00000000000E+00  0.85946765091E+02  0.85956147712E+02  0.12700000000E+01 0. -1.
         -4   -1    0    0    0  501 -0.00000000000E+00 -0.00000000000E+00 -0.45429480215E+02  0.45447228437E+02  0.12700000000E+01 0. -1.
         25    2    1    2    0    0  0.00000000000E+00  0.00000000000E+00  0.40517284876E+02  0.13140337615E+03  0.12500078756E+03 0.  0.
    9000005    1    3    3    0    0 -0.62025073123E+02  0.31916612271E+01  0.12975359639E+02  0.63455940266E+02  0.10000000000E+01 0.  0.
    9000005    1    3    3    0    0  0.62025073123E+02 -0.31916612271E+01  0.27541925237E+02  0.67947435883E+02  0.10000000000E+01 0.  0.
<mgrwt>
<rscale>  0 0.12500079E+03</rscale>
<asrwt>0</asrwt>
<pdfrwt beam="1">  1        4 0.13224666E-01 0.12500079E+03</pdfrwt>
<pdfrwt beam="2">  1       -4 0.69912378E-02 0.12500079E+03</pdfrwt>
<totfact> 0.10314266E+04</totfact>
</mgrwt>
</event>
<event>
 5    1  0.3276024E-002  0.1250008E+03  0.7818608E-02  0.1235068E+00
         -4   -1    0    0    0  501 -0.00000000000E+00  0.00000000000E+00  0.28921478004E+03  0.28921756844E+03  0.12700000000E+01 0. -1.
          4   -1    0    0  501    0  0.00000000000E+00 -0.00000000000E+00 -0.13473864889E+02  0.13533585447E+02  0.12700000000E+01 0. -1.
         25    2    1    2    0    0  0.00000000000E+00  0.00000000000E+00  0.27574091516E+03  0.30275115389E+03  0.12500083556E+03 0.  0.
    9000005    1    3    3    0    0 -0.24829365053E+01 -0.55196436093E+02  0.67154453232E+02  0.86968569725E+02  0.10000000000E+01 0.  0.
    9000005    1    3    3    0    0  0.24829365053E+01  0.55196436093E+02  0.20858646192E+03  0.21578258417E+03  0.10000000000E+01 0.  0.
<mgrwt>
<rscale>  0 0.12500084E+03</rscale>
<asrwt>0</asrwt>
<pdfrwt beam="2">  1        4 0.20777108E-02 0.12500084E+03</pdfrwt>
<pdfrwt beam="1">  1       -4 0.44499387E-01 0.12500084E+03</pdfrwt>
<totfact> 0.75253635E+03</totfact>
</mgrwt>
</event>
<event>
 5    1  0.3276024E-002  0.1249962E+03  0.7818608E-02  0.1235075E+00
         -4   -1    0    0    0  501 -0.00000000000E+00  0.00000000000E+00  0.10984553140E+02  0.11057726154E+02  0.12700000000E+01 0.  1.
          4   -1    0    0  501    0  0.00000000000E+00 -0.00000000000E+00 -0.35433637709E+03  0.35433865303E+03  0.12700000000E+01 0.  1.
         25    2    1    2    0    0  0.00000000000E+00  0.00000000000E+00 -0.34335182395E+03  0.36539637918E+03  0.12499615558E+03 0.  0.
    9000005    1    3    3    0    0 -0.58005550902E+02  0.21990816446E+02 -0.19370143370E+03  0.20339490003E+03  0.10000000000E+01 0.  0.
    9000005    1    3    3    0    0  0.58005550902E+02 -0.21990816446E+02 -0.14965039025E+03  0.16200147915E+03  0.10000000000E+01 0.  0.
<mgrwt>
<rscale>  0 0.12499616E+03</rscale>
<asrwt>0</asrwt>
<pdfrwt beam="2">  1        4 0.54519084E-01 0.12499616E+03</pdfrwt>
<pdfrwt beam="1">  1       -4 0.16957353E-02 0.12499616E+03</pdfrwt>
<totfact> 0.68069118E+03</totfact>
</mgrwt>
</event>
<event>
 5    1  0.3276024E-002  0.1250026E+03  0.7818608E-02  0.1235065E+00
          4   -1    0    0  501    0  0.00000000000E+00  0.00000000000E+00  0.64494932211E+02  0.64507435082E+02  0.12700000000E+01 0. -1.
         -4   -1    0    0    0  501 -0.00000000000E+00 -0.00000000000E+00 -0.60544306544E+02  0.60557625076E+02  0.12700000000E+01 0. -1.
         25    2    1    2    0    0  0.00000000000E+00  0.00000000000E+00  0.39506256666E+01  0.12506506016E+03  0.12500264729E+03 0.  0.
    9000005    1    3    3    0    0  0.21834080383E+02  0.14167988333E+02  0.58818788190E+02  0.64328133843E+02  0.10000000000E+01 0.  0.
    9000005    1    3    3    0    0 -0.21834080383E+02 -0.14167988333E+02 -0.54868162523E+02  0.60736926315E+02  0.10000000000E+01 0.  0.
<mgrwt>
<rscale>  0 0.12500265E+03</rscale>
<asrwt>0</asrwt>
<pdfrwt beam="1">  1        4 0.99242834E-02 0.12500265E+03</pdfrwt>
<pdfrwt beam="2">  1       -4 0.93164950E-02 0.12500265E+03</pdfrwt>
<totfact> 0.10450824E+04</totfact>
</mgrwt>
</event>
<event>
 5    1  0.3276024E-002  0.1250021E+03  0.7818608E-02  0.1235066E+00
          4   -1    0    0  501    0  0.00000000000E+00  0.00000000000E+00  0.22891694686E+02  0.22926896554E+02  0.12700000000E+01 0.  1.
         -4   -1    0    0    0  501 -0.00000000000E+00 -0.00000000000E+00 -0.17047756186E+03  0.17048229233E+03  0.12700000000E+01 0.  1.
         25    2    1    2    0    0  0.00000000000E+00  0.00000000000E+00 -0.14758586717E+03  0.19340918888E+03  0.12500210460E+03 0.  0.
    9000005    1    3    3    0    0  0.60239824714E+02 -0.86705631679E+01 -0.95748936122E+02  0.11345868815E+03  0.10000000000E+01 0.  0.
    9000005    1    3    3    0    0 -0.60239824714E+02  0.86705631679E+01 -0.51836931051E+02  0.79950500737E+02  0.10000000000E+01 0.  0.
<mgrwt>
<rscale>  0 0.12500210E+03</rscale>
<asrwt>0</asrwt>
<pdfrwt beam="1">  1        4 0.35248710E-02 0.12500210E+03</pdfrwt>
<pdfrwt beam="2">  1       -4 0.26230388E-01 0.12500210E+03</pdfrwt>
<totfact> 0.91253187E+03</totfact>
</mgrwt>
</event>
<event>
 5    1  0.3276024E-002  0.1249970E+03  0.7818608E-02  0.1235074E+00
         -4   -1    0    0    0  501 -0.00000000000E+00  0.00000000000E+00  0.20033289397E+03  0.20033691948E+03  0.12700000000E+01 0.  1.
          4   -1    0    0  501    0  0.00000000000E+00 -0.00000000000E+00 -0.19472953891E+02  0.19514323797E+02  0.12700000000E+01 0.  1.
         25    2    1    2    0    0  0.00000000000E+00  0.00000000000E+00  0.18085994008E+03  0.21985124327E+03  0.12499700494E+03 0.  0.
    9000005    1    3    3    0    0 -0.58195773021E+02  0.22130173392E+02  0.81028705834E+02  0.10219170094E+03  0.10000000000E+01 0.  0.
    9000005    1    3    3    0    0  0.58195773021E+02 -0.22130173392E+02  0.99831234244E+02  0.11765954234E+03  0.10000000000E+01 0.  0.
<mgrwt>
<rscale>  0 0.12499700E+03</rscale>
<asrwt>0</asrwt>
<pdfrwt beam="2">  1        4 0.29993309E-02 0.12499700E+03</pdfrwt>
<pdfrwt beam="1">  1       -4 0.30823939E-01 0.12499700E+03</pdfrwt>
<totfact> 0.86897705E+03</totfact>
</mgrwt>
</event>
<event>
 5    1  0.3276024E-002  0.1250008E+03  0.7818608E-02  0.1235068E+00
          4   -1    0    0  501    0  0.00000000000E+00  0.00000000000E+00  0.12040712437E+02  0.12107504119E+02  0.12700000000E+01 0. -1.
         -4   -1    0    0    0  501 -0.00000000000E+00 -0.00000000000E+00 -0.32345901916E+03  0.32346151236E+03  0.12700000000E+01 0. -1.
         25    2    1    2    0    0  0.00000000000E+00  0.00000000000E+00 -0.31141830673E+03  0.33556901648E+03  0.12500081222E+03 0.  0.
    9000005    1    3    3    0    0  0.46655995308E+02 -0.34785713887E+02 -0.94582294074E+02  0.11105691397E+03  0.10000000000E+01 0.  0.
    9000005    1    3    3    0    0 -0.46655995308E+02  0.34785713887E+02 -0.21683601265E+03  0.22451210251E+03  0.10000000000E+01 0.  0.
<mgrwt>
<rscale>  0 0.12500081E+03</rscale>
<asrwt>0</asrwt>
<pdfrwt beam="1">  1        4 0.18577471E-02 0.12500081E+03</pdfrwt>
<pdfrwt beam="2">  1       -4 0.49768249E-01 0.12500081E+03</pdfrwt>
<totfact> 0.71340593E+03</totfact>
</mgrwt>
</event>
<event>
 5    1  0.3276024E-002  0.1249717E+03  0.7818608E-02  0.1235114E+00
          4   -1    0    0  501    0  0.00000000000E+00  0.00000000000E+00  0.21814642740E+03  0.21815012419E+03  0.12700000000E+01 0.  1.
         -4   -1    0    0    0  501 -0.00000000000E+00 -0.00000000000E+00 -0.17872061587E+02  0.17917128268E+02  0.12700000000E+01 0.  1.
         25    2    1    2    0    0  0.00000000000E+00  0.00000000000E+00  0.20027436581E+03  0.23606725246E+03  0.12497170113E+03 0.  0.
    9000005    1    3    3    0    0  0.28125875091E+02  0.49375285229E+02  0.14919569343E+03  0.15965380853E+03  0.10000000000E+01 0.  0.
    9000005    1    3    3    0    0 -0.28125875091E+02 -0.49375285229E+02  0.51078672385E+02  0.76413443933E+02  0.10000000000E+01 0.  0.
<mgrwt>
<rscale>  0 0.12497170E+03</rscale>
<asrwt>0</asrwt>
<pdfrwt beam="1">  1        4 0.33564741E-01 0.12497170E+03</pdfrwt>
<pdfrwt beam="2">  1       -4 0.27532989E-02 0.12497170E+03</pdfrwt>
<totfact> 0.84439864E+03</totfact>
</mgrwt>
</event>
<event>
 5    1  0.3276024E-002  0.1250003E+03  0.7818608E-02  0.1235069E+00
          4   -1    0    0  501    0  0.00000000000E+00  0.00000000000E+00  0.60682648254E+02  0.60695936430E+02  0.12700000000E+01 0. -1.
         -4   -1    0    0    0  501 -0.00000000000E+00 -0.00000000000E+00 -0.64345448757E+02  0.64357980668E+02  0.12700000000E+01 0. -1.
         25    2    1    2    0    0  0.00000000000E+00  0.00000000000E+00 -0.36628005022E+01  0.12505391710E+03  0.12500026430E+03 0.  0.
    9000005    1    3    3    0    0  0.43307952208E+02  0.86800917258E+01  0.42395535597E+02  0.61231561759E+02  0.10000000000E+01 0.  0.
    9000005    1    3    3    0    0 -0.43307952208E+02 -0.86800917258E+01 -0.46058336100E+02  0.63822355340E+02  0.10000000000E+01 0.  0.
<mgrwt>
<rscale>  0 0.12500026E+03</rscale>
<asrwt>0</asrwt>
<pdfrwt beam="1">  1        4 0.93377782E-02 0.12500026E+03</pdfrwt>
<pdfrwt beam="2">  1       -4 0.99012860E-02 0.12500026E+03</pdfrwt>
<totfact> 0.10451629E+04</totfact>
</mgrwt>
</event>
<event>
 5    1  0.3276024E-002  0.1250019E+03  0.7818608E-02  0.1235066E+00
          4   -1    0    0  501    0  0.00000000000E+00  0.00000000000E+00  0.10488794563E+03  0.10489563403E+03  0.12700000000E+01 0. -1.
         -4   -1    0    0    0  501 -0.00000000000E+00 -0.00000000000E+00 -0.37223397715E+02  0.37245056551E+02  0.12700000000E+01 0. -1.
         25    2    1    2    0    0  0.00000000000E+00  0.00000000000E+00  0.67664547915E+02  0.14214069058E+03  0.12500193948E+03 0.  0.
    9000005    1    3    3    0    0 -0.19029571609E+02 -0.55032776445E+01 -0.33564375489E+02  0.38986894752E+02  0.10000000000E+01 0.  0.
    9000005    1    3    3    0    0  0.19029571609E+02  0.55032776445E+01  0.10122892340E+03  0.10315379583E+03  0.10000000000E+01 0.  0.
<mgrwt>
<rscale>  0 0.12500194E+03</rscale>
<asrwt>0</asrwt>
<pdfrwt beam="1">  1        4 0.16138864E-01 0.12500194E+03</pdfrwt>
<pdfrwt beam="2">  1       -4 0.57289341E-02 0.12500194E+03</pdfrwt>
<totfact> 0.10088969E+04</totfact>
</mgrwt>
</event>
<event>
 5    1  0.3276024E-002  0.1250020E+03  0.7818608E-02  0.1235066E+00
          4   -1    0    0  501    0  0.00000000000E+00  0.00000000000E+00  0.39655231086E+01  0.41639252544E+01  0.12700000000E+01 0.  1.
         -4   -1    0    0    0  501 -0.00000000000E+00 -0.00000000000E+00 -0.96084483718E+03  0.96084567649E+03  0.12700000000E+01 0.  1.
         25    2    1    2    0    0  0.00000000000E+00  0.00000000000E+00 -0.95687931407E+03  0.96500960174E+03  0.12500203905E+03 0.  0.
    9000005    1    3    3    0    0 -0.19317722838E+02 -0.55427165434E+02 -0.64401998079E+03  0.64669009637E+03  0.10000000000E+01 0.  0.
    9000005    1    3    3    0    0  0.19317722838E+02  0.55427165434E+02 -0.31285933328E+03  0.31831950538E+03  0.10000000000E+01 0.  0.
<mgrwt>
<rscale>  0 0.12500204E+03</rscale>
<asrwt>0</asrwt>
<pdfrwt beam="1">  1        4 0.62540751E-03 0.12500204E+03</pdfrwt>
<pdfrwt beam="2">  1       -4 0.14783743E+00 0.12500204E+03</pdfrwt>
<totfact> 0.31787619E+03</totfact>
</mgrwt>
</event>
<event>
 5    1  0.3276024E-002  0.1249903E+03  0.7818608E-02  0.1235085E+00
         -4   -1    0    0    0  501 -0.00000000000E+00  0.00000000000E+00  0.10390396884E+04  0.10390404646E+04  0.12700000000E+01 0. -1.
          4   -1    0    0  501    0  0.00000000000E+00 -0.00000000000E+00 -0.36508231830E+01  0.38654119979E+01  0.12700000000E+01 0. -1.
         25    2    1    2    0    0  0.00000000000E+00  0.00000000000E+00  0.10353888652E+04  0.10429058766E+04  0.12499026010E+03 0.  0.
    9000005    1    3    3    0    0  0.61233958045E+02 -0.41552937068E+01  0.61563387219E+03  0.61868645424E+03  0.10000000000E+01 0.  0.
    9000005    1    3    3    0    0 -0.61233958045E+02  0.41552937068E+01  0.41975499304E+03  0.42421942231E+03  0.10000000000E+01 0.  0.
<mgrwt>
<rscale>  0 0.12499026E+03</rscale>
<asrwt>0</asrwt>
<pdfrwt beam="2">  1        4 0.57823166E-03 0.12499026E+03</pdfrwt>
<pdfrwt beam="1">  1       -4 0.15986882E+00 0.12499026E+03</pdfrwt>
<totfact> 0.29223519E+03</totfact>
</mgrwt>
</event>
<event>
 5    1  0.3276024E-002  0.1249999E+03  0.7818608E-02  0.1235069E+00
         -4   -1    0    0    0  501 -0.00000000000E+00  0.00000000000E+00  0.38882637293E+02  0.38903372384E+02  0.12700000000E+01 0.  1.
          4   -1    0    0  501    0  0.00000000000E+00 -0.00000000000E+00 -0.10041092491E+03  0.10041895608E+03  0.12700000000E+01 0.  1.
         25    2    1    2    0    0  0.00000000000E+00  0.00000000000E+00 -0.61528287613E+02  0.13932232846E+03  0.12499992413E+03 0.  0.
    9000005    1    3    3    0    0 -0.20029186307E+02  0.46240592854E+02 -0.71956626439E+02  0.87852813387E+02  0.10000000000E+01 0.  0.
    9000005    1    3    3    0    0  0.20029186307E+02 -0.46240592854E+02  0.10428338826E+02  0.51469515077E+02  0.10000000000E+01 0.  0.
<mgrwt>
<rscale>  0 0.12499992E+03</rscale>
<asrwt>0</asrwt>
<pdfrwt beam="2">  1        4 0.15450047E-01 0.12499992E+03</pdfrwt>
<pdfrwt beam="1">  1       -4 0.59841570E-02 0.12499992E+03</pdfrwt>
<totfact> 0.10147667E+04</totfact>
</mgrwt>
</event>
<event>
 5    1  0.3276024E-002  0.1250000E+03  0.7818608E-02  0.1235069E+00
         -4   -1    0    0    0  501 -0.00000000000E+00  0.00000000000E+00  0.19118181994E+03  0.19118603813E+03  0.12700000000E+01 0. -1.
          4   -1    0    0  501    0  0.00000000000E+00 -0.00000000000E+00 -0.20407930067E+02  0.20447408384E+02  0.12700000000E+01 0. -1.
         25    2    1    2    0    0  0.00000000000E+00  0.00000000000E+00  0.17077388987E+03  0.21163344651E+03  0.12499997688E+03 0.  0.
    9000005    1    3    3    0    0  0.10632947744E+02 -0.15320870448E+02  0.18636904053E+03  0.18730245038E+03  0.10000000000E+01 0.  0.
    9000005    1    3    3    0    0 -0.10632947744E+02  0.15320870448E+02 -0.15595150656E+02  0.24330996137E+02  0.10000000000E+01 0.  0.
<mgrwt>
<rscale>  0 0.12499998E+03</rscale>
<asrwt>0</asrwt>
<pdfrwt beam="2">  1        4 0.31430428E-02 0.12499998E+03</pdfrwt>
<pdfrwt beam="1">  1       -4 0.29415949E-01 0.12499998E+03</pdfrwt>
<totfact> 0.88209856E+03</totfact>
</mgrwt>
</event>
<event>
 5    1  0.3276024E-002  0.1250002E+03  0.7818608E-02  0.1235069E+00
          4   -1    0    0  501    0  0.00000000000E+00  0.00000000000E+00  0.15446860592E+03  0.15447382663E+03  0.12700000000E+01 0.  1.
         -4   -1    0    0    0  501 -0.00000000000E+00 -0.00000000000E+00 -0.25266791377E+02  0.25298688632E+02  0.12700000000E+01 0.  1.
         25    2    1    2    0    0  0.00000000000E+00  0.00000000000E+00  0.12920181454E+03  0.17977251526E+03  0.12500019345E+03 0.  0.
    9000005    1    3    3    0    0  0.51933731976E+02  0.29307263387E+02  0.91477288849E+02  0.10920220959E+03  0.10000000000E+01 0.  0.
    9000005    1    3    3    0    0 -0.51933731976E+02 -0.29307263387E+02  0.37724525692E+02  0.70570305673E+02  0.10000000000E+01 0.  0.
<mgrwt>
<rscale>  0 0.12500019E+03</rscale>
<asrwt>0</asrwt>
<pdfrwt beam="1">  1        4 0.23767257E-01 0.12500019E+03</pdfrwt>
<pdfrwt beam="2">  1       -4 0.38900538E-02 0.12500019E+03</pdfrwt>
<totfact> 0.93657560E+03</totfact>
</mgrwt>
</event>
<event>
 5    1  0.3276024E-002  0.1250052E+03  0.7818608E-02  0.1235061E+00
          4   -1    0    0  501    0  0.00000000000E+00  0.00000000000E+00  0.97536478422E+02  0.97544746260E+02  0.12700000000E+01 0. -1.
         -4   -1    0    0    0  501 -0.00000000000E+00 -0.00000000000E+00 -0.40032400255E+02  0.40052540122E+02  0.12700000000E+01 0. -1.
         25    2    1    2    0    0  0.00000000000E+00  0.00000000000E+00  0.57504078166E+02  0.13759728638E+03  0.12500517675E+03 0.  0.
    9000005    1    3    3    0    0 -0.10750402013E+02 -0.23474153135E+02  0.91396849846E+02  0.94978898554E+02  0.10000000000E+01 0.  0.
    9000005    1    3    3    0    0  0.10750402013E+02  0.23474153135E+02 -0.33892771680E+02  0.42618387827E+02  0.10000000000E+01 0.  0.
<mgrwt>
<rscale>  0 0.12500518E+03</rscale>
<asrwt>0</asrwt>
<pdfrwt beam="1">  1        4 0.15007797E-01 0.12500518E+03</pdfrwt>
<pdfrwt beam="2">  1       -4 0.61610160E-02 0.12500518E+03</pdfrwt>
<totfact> 0.10182424E+04</totfact>
</mgrwt>
</event>
<event>
 5    1  0.3276024E-002  0.1250008E+03  0.7818608E-02  0.1235068E+00
          4   -1    0    0  501    0  0.00000000000E+00  0.00000000000E+00  0.65304315337E+02  0.65316663277E+02  0.12700000000E+01 0. -1.
         -4   -1    0    0    0  501 -0.00000000000E+00 -0.00000000000E+00 -0.59792111348E+02  0.59805597392E+02  0.12700000000E+01 0. -1.
         25    2    1    2    0    0  0.00000000000E+00  0.00000000000E+00  0.55122039891E+01  0.12512226067E+03  0.12500078289E+03 0.  0.
    9000005    1    3    3    0    0 -0.31580838817E+02 -0.53650132347E+02 -0.26909553525E+01  0.62321162714E+02  0.10000000000E+01 0.  0.
    9000005    1    3    3    0    0  0.31580838817E+02  0.53650132347E+02  0.82031593416E+01  0.62801097956E+02  0.10000000000E+01 0.  0.
<mgrwt>
<rscale>  0 0.12500078E+03</rscale>
<asrwt>0</asrwt>
<pdfrwt beam="1">  1        4 0.10048805E-01 0.12500078E+03</pdfrwt>
<pdfrwt beam="2">  1       -4 0.92007736E-02 0.12500078E+03</pdfrwt>
<totfact> 0.10450023E+04</totfact>
</mgrwt>
</event>
<event>
 5    1  0.3276024E-002  0.1250039E+03  0.7818608E-02  0.1235063E+00
          4   -1    0    0  501    0  0.00000000000E+00  0.00000000000E+00  0.11270775386E+03  0.11271490886E+03  0.12700000000E+01 0.  1.
         -4   -1    0    0    0  501 -0.00000000000E+00 -0.00000000000E+00 -0.34640490251E+02  0.34663762993E+02  0.12700000000E+01 0.  1.
         25    2    1    2    0    0  0.00000000000E+00  0.00000000000E+00  0.78067263605E+02  0.14737867185E+03  0.12500390102E+03 0.  0.
    9000005    1    3    3    0    0  0.42838387252E+00  0.99426355365E+01  0.11177331116E+03  0.11221992961E+03  0.10000000000E+01 0.  0.
    9000005    1    3    3    0    0 -0.42838387252E+00 -0.99426355365E+01 -0.33706047556E+02  0.35158742241E+02  0.10000000000E+01 0.  0.
<mgrwt>
<rscale>  0 0.12500390E+03</rscale>
<asrwt>0</asrwt>
<pdfrwt beam="1">  1        4 0.17341995E-01 0.12500390E+03</pdfrwt>
<pdfrwt beam="2">  1       -4 0.53316468E-02 0.12500390E+03</pdfrwt>
<totfact> 0.99820044E+03</totfact>
</mgrwt>
</event>
<event>
 5    1  0.3276024E-002  0.1250009E+03  0.7818608E-02  0.1235068E+00
          4   -1    0    0  501    0  0.00000000000E+00  0.00000000000E+00  0.69393278400E+02  0.69404898870E+02  0.12700000000E+01 0.  1.
         -4   -1    0    0    0  501 -0.00000000000E+00 -0.00000000000E+00 -0.56268786828E+02  0.56283117105E+02  0.12700000000E+01 0.  1.
         25    2    1    2    0    0  0.00000000000E+00  0.00000000000E+00  0.13124491573E+02  0.12568801598E+03  0.12500090032E+03 0.  0.
    9000005    1    3    3    0    0  0.43223350328E+02  0.34880867367E+02  0.35361848796E+02  0.65851296662E+02  0.10000000000E+01 0.  0.
    9000005    1    3    3    0    0 -0.43223350328E+02 -0.34880867367E+02 -0.22237357224E+02  0.59836719313E+02  0.10000000000E+01 0.  0.
<mgrwt>
<rscale>  0 0.12500090E+03</rscale>
<asrwt>0</asrwt>
<pdfrwt beam="1">  1        4 0.10677885E-01 0.12500090E+03</pdfrwt>
<pdfrwt beam="2">  1       -4 0.86587326E-02 0.12500090E+03</pdfrwt>
<totfact> 0.10437596E+04</totfact>
</mgrwt>
</event>
<event>
 5    1  0.3276024E-002  0.1249996E+03  0.7818608E-02  0.1235070E+00
          4   -1    0    0  501    0  0.00000000000E+00  0.00000000000E+00  0.43329626810E+01  0.45152481211E+01  0.12700000000E+01 0.  1.
         -4   -1    0    0    0  501 -0.00000000000E+00 -0.00000000000E+00 -0.88275875715E+03  0.88275967071E+03  0.12700000000E+01 0.  1.
         25    2    1    2    0    0  0.00000000000E+00  0.00000000000E+00 -0.87842579447E+03  0.88727491883E+03  0.12499962076E+03 0.  0.
    9000005    1    3    3    0    0 -0.42308905850E+02  0.45805382848E+02 -0.46852234928E+03  0.47265459734E+03  0.10000000000E+01 0.  0.
    9000005    1    3    3    0    0  0.42308905850E+02 -0.45805382848E+02 -0.40990344519E+03  0.41462032149E+03  0.10000000000E+01 0.  0.
<mgrwt>
<rscale>  0 0.12499962E+03</rscale>
<asrwt>0</asrwt>
<pdfrwt beam="1">  1        4 0.68070258E-03 0.12499962E+03</pdfrwt>
<pdfrwt beam="2">  1       -4 0.13582299E+00 0.12499962E+03</pdfrwt>
<totfact> 0.34648909E+03</totfact>
</mgrwt>
</event>
<event>
 5    1  0.3276024E-002  0.1250029E+03  0.7818608E-02  0.1235065E+00
          4   -1    0    0  501    0  0.00000000000E+00  0.00000000000E+00  0.25512145486E+03  0.25512461588E+03  0.12700000000E+01 0. -1.
         -4   -1    0    0    0  501 -0.00000000000E+00 -0.00000000000E+00 -0.15282453436E+02  0.15335132312E+02  0.12700000000E+01 0. -1.
         25    2    1    2    0    0  0.00000000000E+00  0.00000000000E+00  0.23983900142E+03  0.27045974819E+03  0.12500291513E+03 0.  0.
    9000005    1    3    3    0    0  0.47129733282E+02 -0.43703013246E+01  0.20820825412E+03  0.21352280528E+03  0.10000000000E+01 0.  0.
    9000005    1    3    3    0    0 -0.47129733282E+02  0.43703013246E+01  0.31630747299E+02  0.56936942907E+02  0.10000000000E+01 0.  0.
<mgrwt>
<rscale>  0 0.12500292E+03</rscale>
<asrwt>0</asrwt>
<pdfrwt beam="1">  1        4 0.39253750E-01 0.12500292E+03</pdfrwt>
<pdfrwt beam="2">  1       -4 0.23554421E-02 0.12500292E+03</pdfrwt>
<totfact> 0.79455075E+03</totfact>
</mgrwt>
</event>
<event>
 5    1  0.3276024E-002  0.1250005E+03  0.7818608E-02  0.1235069E+00
         -4   -1    0    0    0  501 -0.00000000000E+00  0.00000000000E+00  0.10634728442E+02  0.10710291734E+02  0.12700000000E+01 0. -1.
          4   -1    0    0  501    0  0.00000000000E+00 -0.00000000000E+00 -0.36593653817E+03  0.36593874196E+03  0.12700000000E+01 0. -1.
         25    2    1    2    0    0  0.00000000000E+00  0.00000000000E+00 -0.35530180973E+03  0.37664903370E+03  0.12500047435E+03 0.  0.
    9000005    1    3    3    0    0  0.26454457602E+02  0.32223183599E+02 -0.31792111578E+03  0.32064467522E+03  0.10000000000E+01 0.  0.
    9000005    1    3    3    0    0 -0.26454457602E+02 -0.32223183599E+02 -0.37380693951E+02  0.56004358479E+02  0.10000000000E+01 0.  0.
<mgrwt>
<rscale>  0 0.12500047E+03</rscale>
<asrwt>0</asrwt>
<pdfrwt beam="2">  1        4 0.56303901E-01 0.12500047E+03</pdfrwt>
<pdfrwt beam="1">  1       -4 0.16420944E-02 0.12500047E+03</pdfrwt>
<totfact> 0.66888316E+03</totfact>
</mgrwt>
</event>
<event>
 5    1  0.3276024E-002  0.1250022E+03  0.7818608E-02  0.1235066E+00
         -4   -1    0    0    0  501 -0.00000000000E+00  0.00000000000E+00  0.72259630827E+02  0.72270790415E+02  0.12700000000E+01 0.  1.
          4   -1    0    0  501    0  0.00000000000E+00 -0.00000000000E+00 -0.54037622564E+02  0.54052544366E+02  0.12700000000E+01 0.  1.
         25    2    1    2    0    0  0.00000000000E+00  0.00000000000E+00  0.18222008263E+02  0.12632333478E+03  0.12500217328E+03 0.  0.
    9000005    1    3    3    0    0  0.46298156151E+02  0.21963332523E+02  0.45258859030E+02  0.68375957464E+02  0.10000000000E+01 0.  0.
    9000005    1    3    3    0    0 -0.46298156151E+02 -0.21963332523E+02 -0.27036850767E+02  0.57947377317E+02  0.10000000000E+01 0.  0.
<mgrwt>
<rscale>  0 0.12500217E+03</rscale>
<asrwt>0</asrwt>
<pdfrwt beam="2">  1        4 0.83154867E-02 0.12500217E+03</pdfrwt>
<pdfrwt beam="1">  1       -4 0.11118872E-01 0.12500217E+03</pdfrwt>
<totfact> 0.10423372E+04</totfact>
</mgrwt>
</event>
<event>
 5    1  0.3276024E-002  0.1249719E+03  0.7818608E-02  0.1235113E+00
          4   -1    0    0  501    0  0.00000000000E+00  0.00000000000E+00  0.26195410131E+03  0.26195717988E+03  0.12700000000E+01 0.  1.
         -4   -1    0    0    0  501 -0.00000000000E+00 -0.00000000000E+00 -0.14875026901E+02  0.14929143488E+02  0.12700000000E+01 0.  1.
         25    2    1    2    0    0  0.00000000000E+00  0.00000000000E+00  0.24707907441E+03  0.27688632337E+03  0.12497186507E+03 0.  0.
    9000005    1    3    3    0    0  0.43105672364E+02  0.22022620681E+02  0.36019639745E+02  0.60344919082E+02  0.10000000000E+01 0.  0.
    9000005    1    3    3    0    0 -0.43105672364E+02 -0.22022620681E+02  0.21105943466E+03  0.21654140429E+03  0.10000000000E+01 0.  0.
<mgrwt>
<rscale>  0 0.12497187E+03</rscale>
<asrwt>0</asrwt>
<pdfrwt beam="1">  1        4 0.40305028E-01 0.12497187E+03</pdfrwt>
<pdfrwt beam="2">  1       -4 0.22928655E-02 0.12497187E+03</pdfrwt>
<totfact> 0.78641959E+03</totfact>
</mgrwt>
</event>
<event>
 5    1  0.3276024E-002  0.1249991E+03  0.7818608E-02  0.1235071E+00
          4   -1    0    0  501    0  0.00000000000E+00  0.00000000000E+00  0.10488148670E+03  0.10488917557E+03  0.12700000000E+01 0. -1.
         -4   -1    0    0    0  501 -0.00000000000E+00 -0.00000000000E+00 -0.37223982806E+02  0.37245641301E+02  0.12700000000E+01 0. -1.
         25    2    1    2    0    0  0.00000000000E+00  0.00000000000E+00  0.67657503891E+02  0.14213481687E+03  0.12499907333E+03 0.  0.
    9000005    1    3    3    0    0  0.62338294786E+02 -0.28447108578E+01  0.37606329891E+02  0.72865570914E+02  0.10000000000E+01 0.  0.
    9000005    1    3    3    0    0 -0.62338294786E+02  0.28447108578E+01  0.30051174000E+02  0.69269245957E+02  0.10000000000E+01 0.  0.
<mgrwt>
<rscale>  0 0.12499907E+03</rscale>
<asrwt>0</asrwt>
<pdfrwt beam="1">  1        4 0.16137871E-01 0.12499907E+03</pdfrwt>
<pdfrwt beam="2">  1       -4 0.57290241E-02 0.12499907E+03</pdfrwt>
<totfact> 0.10089741E+04</totfact>
</mgrwt>
</event>
<event>
 5    1  0.3276024E-002  0.1250004E+03  0.7818608E-02  0.1235069E+00
          4   -1    0    0  501    0  0.00000000000E+00  0.00000000000E+00  0.17771260552E+03  0.17771714340E+03  0.12700000000E+01 0.  1.
         -4   -1    0    0    0  501 -0.00000000000E+00 -0.00000000000E+00 -0.21957689283E+02  0.21994386072E+02  0.12700000000E+01 0.  1.
         25    2    1    2    0    0  0.00000000000E+00  0.00000000000E+00  0.15575491623E+03  0.19971152947E+03  0.12500040430E+03 0.  0.
    9000005    1    3    3    0    0  0.47586591088E+02 -0.20284656544E+02  0.21859798820E+02  0.56167621873E+02  0.10000000000E+01 0.  0.
    9000005    1    3    3    0    0 -0.47586591088E+02  0.20284656544E+02  0.13389511741E+03  0.14354390760E+03  0.10000000000E+01 0.  0.
<mgrwt>
<rscale>  0 0.12500040E+03</rscale>
<asrwt>0</asrwt>
<pdfrwt beam="1">  1        4 0.27343574E-01 0.12500040E+03</pdfrwt>
<pdfrwt beam="2">  1       -4 0.33812778E-02 0.12500040E+03</pdfrwt>
<totfact> 0.90183365E+03</totfact>
</mgrwt>
</event>
<event>
 5    1  0.3276024E-002  0.1250002E+03  0.7818608E-02  0.1235069E+00
         -4   -1    0    0    0  501 -0.00000000000E+00  0.00000000000E+00  0.26010695376E+02  0.26041681474E+02  0.12700000000E+01 0. -1.
          4   -1    0    0  501    0  0.00000000000E+00 -0.00000000000E+00 -0.15005596833E+03  0.15006134256E+03  0.12700000000E+01 0. -1.
         25    2    1    2    0    0  0.00000000000E+00  0.00000000000E+00 -0.12404527295E+03  0.17610302403E+03  0.12500018133E+03 0.  0.
    9000005    1    3    3    0    0 -0.16230586676E+00 -0.61764331903E+02 -0.75417734531E+02  0.97486889993E+02  0.10000000000E+01 0.  0.
    9000005    1    3    3    0    0  0.16230586676E+00  0.61764331903E+02 -0.48627538418E+02  0.78616134039E+02  0.10000000000E+01 0.  0.
<mgrwt>
<rscale>  0 0.12500018E+03</rscale>
<asrwt>0</asrwt>
<pdfrwt beam="2">  1        4 0.23088330E-01 0.12500018E+03</pdfrwt>
<pdfrwt beam="1">  1       -4 0.40044425E-02 0.12500018E+03</pdfrwt>
<totfact> 0.94322828E+03</totfact>
</mgrwt>
</event>
<event>
 5    1  0.3276024E-002  0.1249889E+03  0.7818608E-02  0.1235087E+00
         -4   -1    0    0    0  501 -0.00000000000E+00  0.00000000000E+00  0.17729585930E+02  0.17775013847E+02  0.12700000000E+01 0.  1.
          4   -1    0    0  501    0  0.00000000000E+00 -0.00000000000E+00 -0.21995552056E+03  0.21995918695E+03  0.12700000000E+01 0.  1.
         25    2    1    2    0    0  0.00000000000E+00  0.00000000000E+00 -0.20222593463E+03  0.23773420080E+03  0.12498888588E+03 0.  0.
    9000005    1    3    3    0    0  0.20780316803E+02 -0.53102999649E+02 -0.14971026162E+03  0.16020584437E+03  0.10000000000E+01 0.  0.
    9000005    1    3    3    0    0 -0.20780316803E+02  0.53102999649E+02 -0.52515673017E+02  0.77528356429E+02  0.10000000000E+01 0.  0.
<mgrwt>
<rscale>  0 0.12498889E+03</rscale>
<asrwt>0</asrwt>
<pdfrwt beam="2">  1        4 0.33843085E-01 0.12498889E+03</pdfrwt>
<pdfrwt beam="1">  1       -4 0.27314052E-02 0.12498889E+03</pdfrwt>
<totfact> 0.84156834E+03</totfact>
</mgrwt>
</event>
<event>
 5    1  0.3276024E-002  0.1249903E+03  0.7818608E-02  0.1235084E+00
         -4   -1    0    0    0  501 -0.00000000000E+00  0.00000000000E+00  0.26729690751E+03  0.26729992455E+03  0.12700000000E+01 0.  1.
          4   -1    0    0  501    0  0.00000000000E+00 -0.00000000000E+00 -0.14580926394E+02  0.14636130448E+02  0.12700000000E+01 0.  1.
         25    2    1    2    0    0  0.00000000000E+00  0.00000000000E+00  0.25271598111E+03  0.28193605499E+03  0.12499028761E+03 0.  0.
    9000005    1    3    3    0    0  0.28188104386E+02  0.28986617673E+02  0.23382444183E+03  0.23729657147E+03  0.10000000000E+01 0.  0.
    9000005    1    3    3    0    0 -0.28188104386E+02 -0.28986617673E+02  0.18891539280E+02  0.44639483525E+02  0.10000000000E+01 0.  0.
<mgrwt>
<rscale>  0 0.12499029E+03</rscale>
<asrwt>0</asrwt>
<pdfrwt beam="2">  1        4 0.22476980E-02 0.12499029E+03</pdfrwt>
<pdfrwt beam="1">  1       -4 0.41127079E-01 0.12499029E+03</pdfrwt>
<totfact> 0.77938919E+03</totfact>
</mgrwt>
</event>
<event>
 5    1  0.3276024E-002  0.1249962E+03  0.7818608E-02  0.1235075E+00
         -4   -1    0    0    0  501 -0.00000000000E+00  0.00000000000E+00  0.34321720680E+03  0.34321955647E+03  0.12700000000E+01 0.  1.
          4   -1    0    0  501    0  0.00000000000E+00 -0.00000000000E+00 -0.11342762969E+02  0.11413639725E+02  0.12700000000E+01 0.  1.
         25    2    1    2    0    0  0.00000000000E+00  0.00000000000E+00  0.33187444384E+03  0.35463319620E+03  0.12499622944E+03 0.  0.
    9000005    1    3    3    0    0  0.44886105292E+02  0.42029447679E+02  0.13437241097E+03  0.14777747376E+03  0.10000000000E+01 0.  0.
    9000005    1    3    3    0    0 -0.44886105292E+02 -0.42029447679E+02  0.19750203287E+03  0.20685572244E+03  0.10000000000E+01 0.  0.
<mgrwt>
<rscale>  0 0.12499623E+03</rscale>
<asrwt>0</asrwt>
<pdfrwt beam="2">  1        4 0.17506734E-02 0.12499623E+03</pdfrwt>
<pdfrwt beam="1">  1       -4 0.52808275E-01 0.12499623E+03</pdfrwt>
<totfact> 0.69223614E+03</totfact>
</mgrwt>
</event>
<event>
 5    1  0.3276024E-002  0.1249995E+03  0.7818608E-02  0.1235070E+00
          4   -1    0    0  501    0  0.00000000000E+00  0.00000000000E+00  0.40733996272E+02  0.40753789423E+02  0.12700000000E+01 0. -1.
         -4   -1    0    0    0  501 -0.00000000000E+00 -0.00000000000E+00 -0.95848498504E+02  0.95856911934E+02  0.12700000000E+01 0. -1.
         25    2    1    2    0    0  0.00000000000E+00  0.00000000000E+00 -0.55114502232E+02  0.13661070136E+03  0.12499950147E+03 0.  0.
    9000005    1    3    3    0    0 -0.51468099548E+02  0.28117939609E+02 -0.39742392890E+01  0.58790971899E+02  0.10000000000E+01 0.  0.
    9000005    1    3    3    0    0  0.51468099548E+02 -0.28117939609E+02 -0.51140262943E+02  0.77819729457E+02  0.10000000000E+01 0.  0.
<mgrwt>
<rscale>  0 0.12499950E+03</rscale>
<asrwt>0</asrwt>
<pdfrwt beam="1">  1        4 0.62689384E-02 0.12499950E+03</pdfrwt>
<pdfrwt beam="2">  1       -4 0.14748093E-01 0.12499950E+03</pdfrwt>
<totfact> 0.10204347E+04</totfact>
</mgrwt>
</event>
<event>
 5    1  0.3276024E-002  0.1249985E+03  0.7818608E-02  0.1235072E+00
          4   -1    0    0  501    0  0.00000000000E+00  0.00000000000E+00  0.20668016923E+03  0.20668407112E+03  0.12700000000E+01 0. -1.
         -4   -1    0    0    0  501 -0.00000000000E+00 -0.00000000000E+00 -0.18874111626E+02  0.18916791210E+02  0.12700000000E+01 0. -1.
         25    2    1    2    0    0  0.00000000000E+00  0.00000000000E+00  0.18780605761E+03  0.22560086233E+03  0.12499853523E+03 0.  0.
    9000005    1    3    3    0    0  0.57843640969E+01  0.12581293608E+00 -0.18398526152E+02  0.19312702076E+02  0.10000000000E+01 0.  0.
    9000005    1    3    3    0    0 -0.57843640969E+01 -0.12581293608E+00  0.20620458376E+03  0.20628816025E+03  0.10000000000E+01 0.  0.
<mgrwt>
<rscale>  0 0.12499854E+03</rscale>
<asrwt>0</asrwt>
<pdfrwt beam="1">  1        4 0.31800533E-01 0.12499854E+03</pdfrwt>
<pdfrwt beam="2">  1       -4 0.29072926E-02 0.12499854E+03</pdfrwt>
<totfact> 0.85992508E+03</totfact>
</mgrwt>
</event>
<event>
 5    1  0.3276024E-002  0.1250042E+03  0.7818608E-02  0.1235063E+00
         -4   -1    0    0    0  501 -0.00000000000E+00  0.00000000000E+00  0.28468928821E+03  0.28469212093E+03  0.12700000000E+01 0.  1.
          4   -1    0    0  501    0  0.00000000000E+00 -0.00000000000E+00 -0.13689739122E+02  0.13748522001E+02  0.12700000000E+01 0.  1.
         25    2    1    2    0    0  0.00000000000E+00  0.00000000000E+00  0.27099954909E+03  0.29844064293E+03  0.12500424692E+03 0.  0.
    9000005    1    3    3    0    0 -0.25362741126E+02 -0.46341270234E+01  0.27141165316E+03  0.27263534115E+03  0.10000000000E+01 0.  0.
    9000005    1    3    3    0    0  0.25362741126E+02  0.46341270234E+01 -0.41210407070E+00  0.25805301790E+02  0.10000000000E+01 0.  0.
<mgrwt>
<rscale>  0 0.12500425E+03</rscale>
<asrwt>0</asrwt>
<pdfrwt beam="2">  1        4 0.21108536E-02 0.12500425E+03</pdfrwt>
<pdfrwt beam="1">  1       -4 0.43803086E-01 0.12500425E+03</pdfrwt>
<totfact> 0.75787715E+03</totfact>
</mgrwt>
</event>
<event>
 5    1  0.3276024E-002  0.1249917E+03  0.7818608E-02  0.1235082E+00
          4   -1    0    0  501    0  0.00000000000E+00  0.00000000000E+00  0.64423938516E+01  0.65663794087E+01  0.12700000000E+01 0. -1.
         -4   -1    0    0    0  501 -0.00000000000E+00 -0.00000000000E+00 -0.60035217282E+03  0.60035351612E+03  0.12700000000E+01 0. -1.
         25    2    1    2    0    0  0.00000000000E+00  0.00000000000E+00 -0.59390977897E+03  0.60691989553E+03  0.12499173583E+03 0.  0.
    9000005    1    3    3    0    0 -0.13294605689E+02 -0.60918511331E+02 -0.27698042273E+03  0.28391365966E+03  0.10000000000E+01 0.  0.
    9000005    1    3    3    0    0  0.13294605689E+02  0.60918511331E+02 -0.31692935624E+03  0.32300623587E+03  0.10000000000E+01 0.  0.
<mgrwt>
<rscale>  0 0.12499174E+03</rscale>
<asrwt>0</asrwt>
<pdfrwt beam="1">  1        4 0.10007787E-02 0.12499174E+03</pdfrwt>
<pdfrwt beam="2">  1       -4 0.92371470E-01 0.12499174E+03</pdfrwt>
<totfact> 0.48442493E+03</totfact>
</mgrwt>
</event>
<event>
 5    1  0.3276024E-002  0.1250041E+03  0.7818608E-02  0.1235063E+00
          4   -1    0    0  501    0  0.00000000000E+00  0.00000000000E+00  0.41090601275E+02  0.41110222733E+02  0.12700000000E+01 0. -1.
         -4   -1    0    0    0  501 -0.00000000000E+00 -0.00000000000E+00 -0.95024011544E+02  0.95032497967E+02  0.12700000000E+01 0. -1.
         25    2    1    2    0    0  0.00000000000E+00  0.00000000000E+00 -0.53933410269E+02  0.13614272070E+03  0.12500411056E+03 0.  0.
    9000005    1    3    3    0    0 -0.23987484751E+02 -0.48204442385E+02  0.75845563341E+01  0.54383758468E+02  0.10000000000E+01 0.  0.
    9000005    1    3    3    0    0  0.23987484751E+02  0.48204442385E+02 -0.61517966603E+02  0.81758962232E+02  0.10000000000E+01 0.  0.
<mgrwt>
<rscale>  0 0.12500411E+03</rscale>
<asrwt>0</asrwt>
<pdfrwt beam="1">  1        4 0.63237931E-02 0.12500411E+03</pdfrwt>
<pdfrwt beam="2">  1       -4 0.14621241E-01 0.12500411E+03</pdfrwt>
<totfact> 0.10213094E+04</totfact>
</mgrwt>
</event>
<event>
 5    1  0.3276024E-002  0.1250150E+03  0.7818608E-02  0.1235046E+00
          4   -1    0    0  501    0  0.00000000000E+00  0.00000000000E+00  0.89289592829E+02  0.89298624220E+02  0.12700000000E+01 0. -1.
         -4   -1    0    0    0  501 -0.00000000000E+00 -0.00000000000E+00 -0.43738103172E+02  0.43756537444E+02  0.12700000000E+01 0. -1.
         25    2    1    2    0    0  0.00000000000E+00  0.00000000000E+00  0.45551489657E+02  0.13305516166E+03  0.12501495045E+03 0.  0.
    9000005    1    3    3    0    0  0.39551240873E+02 -0.27046480594E+02  0.65486066048E+02  0.81149476976E+02  0.10000000000E+01 0.  0.
    9000005    1    3    3    0    0 -0.39551240873E+02  0.27046480594E+02 -0.19934576391E+02  0.51905684688E+02  0.10000000000E+01 0.  0.
<mgrwt>
<rscale>  0 0.12501495E+03</rscale>
<asrwt>0</asrwt>
<pdfrwt beam="1">  1        4 0.13738973E-01 0.12501495E+03</pdfrwt>
<pdfrwt beam="2">  1       -4 0.67310518E-02 0.12501495E+03</pdfrwt>
<totfact> 0.10275762E+04</totfact>
</mgrwt>
</event>
<event>
 5    1  0.3276024E-002  0.1249990E+03  0.7818608E-02  0.1235071E+00
          4   -1    0    0  501    0  0.00000000000E+00  0.00000000000E+00  0.37131483756E+03  0.37131700943E+03  0.12700000000E+01 0.  1.
         -4   -1    0    0    0  501 -0.00000000000E+00 -0.00000000000E+00 -0.10479339011E+02  0.10556014689E+02  0.12700000000E+01 0.  1.
         25    2    1    2    0    0  0.00000000000E+00  0.00000000000E+00  0.36083549855E+03  0.38187302412E+03  0.12499899814E+03 0.  0.
    9000005    1    3    3    0    0 -0.37510668508E+02 -0.44178182862E+02  0.10900465609E+03  0.12345759248E+03  0.10000000000E+01 0.  0.
    9000005    1    3    3    0    0  0.37510668508E+02  0.44178182862E+02  0.25183084246E+03  0.25841543164E+03  0.10000000000E+01 0.  0.
<mgrwt>
<rscale>  0 0.12499900E+03</rscale>
<asrwt>0</asrwt>
<pdfrwt beam="1">  1        4 0.57131430E-01 0.12499900E+03</pdfrwt>
<pdfrwt beam="2">  1       -4 0.16182711E-02 0.12499900E+03</pdfrwt>
<totfact> 0.66356285E+03</totfact>
</mgrwt>
</event>
<event>
 5    1  0.3276024E-002  0.1250002E+03  0.7818608E-02  0.1235069E+00
          4   -1    0    0  501    0  0.00000000000E+00  0.00000000000E+00  0.57372960102E+02  0.57387014654E+02  0.12700000000E+01 0. -1.
         -4   -1    0    0    0  501 -0.00000000000E+00 -0.00000000000E+00 -0.68057077174E+02  0.68068925755E+02  0.12700000000E+01 0. -1.
         25    2    1    2    0    0  0.00000000000E+00  0.00000000000E+00 -0.10684117072E+02  0.12545594041E+03  0.12500017050E+03 0.  0.
    9000005    1    3    3    0    0  0.45988557058E+02  0.87722712473E+01  0.36201625283E+02  0.59190014329E+02  0.10000000000E+01 0.  0.
    9000005    1    3    3    0    0 -0.45988557058E+02 -0.87722712473E+01 -0.46885742355E+02  0.66265926080E+02  0.10000000000E+01 0.  0.
<mgrwt>
<rscale>  0 0.12500017E+03</rscale>
<asrwt>0</asrwt>
<pdfrwt beam="1">  1        4 0.88286018E-02 0.12500017E+03</pdfrwt>
<pdfrwt beam="2">  1       -4 0.10472312E-01 0.12500017E+03</pdfrwt>
<totfact> 0.10442888E+04</totfact>
</mgrwt>
</event>
<event>
 5    1  0.3276024E-002  0.1249958E+03  0.7818608E-02  0.1235076E+00
          4   -1    0    0  501    0  0.00000000000E+00  0.00000000000E+00  0.19808188973E+03  0.19808596098E+03  0.12700000000E+01 0. -1.
         -4   -1    0    0    0  501 -0.00000000000E+00 -0.00000000000E+00 -0.19694339577E+02  0.19735245410E+02  0.12700000000E+01 0. -1.
         25    2    1    2    0    0  0.00000000000E+00  0.00000000000E+00  0.17838755015E+03  0.21782120639E+03  0.12499583955E+03 0.  0.
    9000005    1    3    3    0    0  0.56634635227E+01  0.11942596440E+02 -0.17239119333E+02  0.21745980414E+02  0.10000000000E+01 0.  0.
    9000005    1    3    3    0    0 -0.56634635227E+01 -0.11942596440E+02  0.19562666948E+03  0.19607522598E+03  0.10000000000E+01 0.  0.
<mgrwt>
<rscale>  0 0.12499584E+03</rscale>
<asrwt>0</asrwt>
<pdfrwt beam="1">  1        4 0.30477596E-01 0.12499584E+03</pdfrwt>
<pdfrwt beam="2">  1       -4 0.30333583E-02 0.12499584E+03</pdfrwt>
<totfact> 0.87222401E+03</totfact>
</mgrwt>
</event>
<event>
 5    1  0.3276024E-002  0.1249949E+03  0.7818608E-02  0.1235077E+00
         -4   -1    0    0    0  501 -0.00000000000E+00  0.00000000000E+00  0.50906049893E+02  0.50921889357E+02  0.12700000000E+01 0. -1.
          4   -1    0    0  501    0  0.00000000000E+00 -0.00000000000E+00 -0.76695177584E+02  0.76705691866E+02  0.12700000000E+01 0. -1.
         25    2    1    2    0    0  0.00000000000E+00  0.00000000000E+00 -0.25789127691E+02  0.12762758122E+03  0.12499488142E+03 0.  0.
    9000005    1    3    3    0    0 -0.16350850695E+02 -0.18570087441E+02 -0.71485505443E+02  0.75652996995E+02  0.10000000000E+01 0.  0.
    9000005    1    3    3    0    0  0.16350850695E+02  0.18570087441E+02  0.45696377752E+02  0.51974584228E+02  0.10000000000E+01 0.  0.
<mgrwt>
<rscale>  0 0.12499488E+03</rscale>
<asrwt>0</asrwt>
<pdfrwt beam="2">  1        4 0.11801285E-01 0.12499488E+03</pdfrwt>
<pdfrwt beam="1">  1       -4 0.78337272E-02 0.12499488E+03</pdfrwt>
<totfact> 0.10396740E+04</totfact>
</mgrwt>
</event>
<event>
 5    1  0.3276024E-002  0.1250267E+03  0.7818608E-02  0.1235028E+00
         -4   -1    0    0    0  501 -0.00000000000E+00  0.00000000000E+00  0.23552881221E+02  0.23587096341E+02  0.12700000000E+01 0. -1.
          4   -1    0    0  501    0  0.00000000000E+00 -0.00000000000E+00 -0.16576398716E+03  0.16576885214E+03  0.12700000000E+01 0. -1.
         25    2    1    2    0    0  0.00000000000E+00  0.00000000000E+00 -0.14221110594E+03  0.18935594848E+03  0.12502670344E+03 0.  0.
    9000005    1    3    3    0    0 -0.61950665343E+02  0.51121838762E+00 -0.58545695164E+02  0.85245203401E+02  0.10000000000E+01 0.  0.
    9000005    1    3    3    0    0  0.61950665343E+02 -0.51121838762E+00 -0.83665410780E+02  0.10411074508E+03  0.10000000000E+01 0.  0.
<mgrwt>
<rscale>  0 0.12502670E+03</rscale>
<asrwt>0</asrwt>
<pdfrwt beam="2">  1        4 0.25505157E-01 0.12502670E+03</pdfrwt>
<pdfrwt beam="1">  1       -4 0.36265264E-02 0.12502670E+03</pdfrwt>
<totfact> 0.91904511E+03</totfact>
</mgrwt>
</event>
<event>
 5    1  0.3276024E-002  0.1250007E+03  0.7818608E-02  0.1235068E+00
          4   -1    0    0  501    0  0.00000000000E+00  0.00000000000E+00  0.75569897115E+03  0.75570003830E+03  0.12700000000E+01 0.  1.
         -4   -1    0    0    0  501 -0.00000000000E+00 -0.00000000000E+00 -0.50900186949E+01  0.52460642690E+01  0.12700000000E+01 0.  1.
         25    2    1    2    0    0  0.00000000000E+00  0.00000000000E+00  0.75060895245E+03  0.76094610257E+03  0.12500068608E+03 0.  0.
    9000005    1    3    3    0    0  0.45036625178E+02  0.33644525042E+02  0.54146645183E+03  0.54437778255E+03  0.10000000000E+01 0.  0.
    9000005    1    3    3    0    0 -0.45036625178E+02 -0.33644525042E+02  0.20914250062E+03  0.21656832002E+03  0.10000000000E+01 0.  0.
<mgrwt>
<rscale>  0 0.12500069E+03</rscale>
<asrwt>0</asrwt>
<pdfrwt beam="1">  1        4 0.11627344E+00 0.12500069E+03</pdfrwt>
<pdfrwt beam="2">  1       -4 0.79516554E-03 0.12500069E+03</pdfrwt>
<totfact> 0.40055384E+03</totfact>
</mgrwt>
</event>
<event>
 5    1  0.3276024E-002  0.1250016E+03  0.7818608E-02  0.1235067E+00
         -4   -1    0    0    0  501 -0.00000000000E+00  0.00000000000E+00  0.13858736661E+03  0.13859318556E+03  0.12700000000E+01 0. -1.
          4   -1    0    0  501    0  0.00000000000E+00 -0.00000000000E+00 -0.28166212257E+02  0.28194829542E+02  0.12700000000E+01 0. -1.
         25    2    1    2    0    0  0.00000000000E+00  0.00000000000E+00  0.11042115435E+03  0.16678801510E+03  0.12500164260E+03 0.  0.
    9000005    1    3    3    0    0 -0.23229670575E+02  0.34019867138E+02 -0.74921438352E+01  0.41881991050E+02  0.10000000000E+01 0.  0.
    9000005    1    3    3    0    0  0.23229670575E+02 -0.34019867138E+02  0.11791329819E+03  0.12490602405E+03  0.10000000000E+01 0.  0.
<mgrwt>
<rscale>  0 0.12500164E+03</rscale>
<asrwt>0</asrwt>
<pdfrwt beam="2">  1        4 0.43359124E-02 0.12500164E+03</pdfrwt>
<pdfrwt beam="1">  1       -4 0.21323782E-01 0.12500164E+03</pdfrwt>
<totfact> 0.96046295E+03</totfact>
</mgrwt>
</event>
<event>
 5    1  0.3276024E-002  0.1249971E+03  0.7818608E-02  0.1235074E+00
          4   -1    0    0  501    0  0.00000000000E+00  0.00000000000E+00  0.17386208512E+02  0.17432531269E+02  0.12700000000E+01 0. -1.
         -4   -1    0    0    0  501 -0.00000000000E+00 -0.00000000000E+00 -0.22431777126E+03  0.22432136635E+03  0.12700000000E+01 0. -1.
         25    2    1    2    0    0  0.00000000000E+00  0.00000000000E+00 -0.20693156275E+03  0.24175389762E+03  0.12499710139E+03 0.  0.
    9000005    1    3    3    0    0  0.51991597681E+01 -0.62266197580E+02 -0.10157254394E+03  0.11925641410E+03  0.10000000000E+01 0.  0.
    9000005    1    3    3    0    0 -0.51991597681E+01  0.62266197580E+02 -0.10535901881E+03  0.12249748352E+03  0.10000000000E+01 0.  0.
<mgrwt>
<rscale>  0 0.12499710E+03</rscale>
<asrwt>0</asrwt>
<pdfrwt beam="1">  1        4 0.26786413E-02 0.12499710E+03</pdfrwt>
<pdfrwt beam="2">  1       -4 0.34514264E-01 0.12499710E+03</pdfrwt>
<totfact> 0.83542246E+03</totfact>
</mgrwt>
</event>
<event>
 5    1  0.3276024E-002  0.1250055E+03  0.7818608E-02  0.1235061E+00
          4   -1    0    0  501    0  0.00000000000E+00  0.00000000000E+00  0.30446118179E+02  0.30472594444E+02  0.12700000000E+01 0.  1.
         -4   -1    0    0    0  501 -0.00000000000E+00 -0.00000000000E+00 -0.12822641552E+03  0.12823270463E+03  0.12700000000E+01 0.  1.
         25    2    1    2    0    0  0.00000000000E+00  0.00000000000E+00 -0.97780297342E+02  0.15870529908E+03  0.12500554150E+03 0.  0.
    9000005    1    3    3    0    0  0.13068255046E+02 -0.61039335629E+02 -0.52702411086E+02  0.81701431555E+02  0.10000000000E+01 0.  0.
    9000005    1    3    3    0    0 -0.13068255046E+02  0.61039335629E+02 -0.45077886256E+02  0.77003867521E+02  0.10000000000E+01 0.  0.
<mgrwt>
<rscale>  0 0.12500554E+03</rscale>
<asrwt>0</asrwt>
<pdfrwt beam="1">  1        4 0.46865386E-02 0.12500554E+03</pdfrwt>
<pdfrwt beam="2">  1       -4 0.19729661E-01 0.12500554E+03</pdfrwt>
<totfact> 0.97580818E+03</totfact>
</mgrwt>
</event>
<event>
 5    1  0.3276024E-002  0.1249998E+03  0.7818608E-02  0.1235070E+00
          4   -1    0    0  501    0  0.00000000000E+00  0.00000000000E+00  0.22735098694E+04  0.22735102241E+04  0.12700000000E+01 0.  1.
         -4   -1    0    0    0  501 -0.00000000000E+00 -0.00000000000E+00 -0.14830644480E+01  0.19525317301E+01  0.12700000000E+01 0.  1.
         25    2    1    2    0    0  0.00000000000E+00  0.00000000000E+00  0.22720268050E+04  0.22754627558E+04  0.12499980329E+03 0.  0.
    9000005    1    3    3    0    0 -0.14806672698E+02 -0.28233463839E+02  0.21144316119E+04  0.21146721750E+04  0.10000000000E+01 0.  0.
    9000005    1    3    3    0    0  0.14806672698E+02  0.28233463839E+02  0.15759519301E+03  0.16079058087E+03  0.10000000000E+01 0.  0.
<mgrwt>
<rscale>  0 0.12499980E+03</rscale>
<asrwt>0</asrwt>
<pdfrwt beam="1">  1        4 0.34980830E+00 0.12499980E+03</pdfrwt>
<pdfrwt beam="2">  1       -4 0.26430285E-03 0.12499980E+03</pdfrwt>
<totfact> 0.66806000E+02</totfact>
</mgrwt>
</event>
<event>
 5    1  0.3276024E-002  0.1249990E+03  0.7818608E-02  0.1235071E+00
         -4   -1    0    0    0  501 -0.00000000000E+00  0.00000000000E+00  0.51293539704E+02  0.51309259548E+02  0.12700000000E+01 0.  1.
          4   -1    0    0  501    0  0.00000000000E+00 -0.00000000000E+00 -0.76120904188E+02  0.76131497781E+02  0.12700000000E+01 0.  1.
         25    2    1    2    0    0  0.00000000000E+00  0.00000000000E+00 -0.24827364484E+02  0.12744075733E+03  0.12499899440E+03 0.  0.
    9000005    1    3    3    0    0 -0.20007577374E+02 -0.24016738943E+02 -0.67582453589E+02  0.74468079974E+02  0.10000000000E+01 0.  0.
    9000005    1    3    3    0    0  0.20007577374E+02  0.24016738943E+02  0.42755089105E+02  0.52972677355E+02  0.10000000000E+01 0.  0.
<mgrwt>
<rscale>  0 0.12499899E+03</rscale>
<asrwt>0</asrwt>
<pdfrwt beam="2">  1        4 0.11712932E-01 0.12499899E+03</pdfrwt>
<pdfrwt beam="1">  1       -4 0.78933379E-02 0.12499899E+03</pdfrwt>
<totfact> 0.10399820E+04</totfact>
</mgrwt>
</event>
<event>
 5    1  0.3276024E-002  0.1250048E+03  0.7818608E-02  0.1235062E+00
          4   -1    0    0  501    0  0.00000000000E+00  0.00000000000E+00  0.29822391570E+02  0.29849421082E+02  0.12700000000E+01 0.  1.
         -4   -1    0    0    0  501 -0.00000000000E+00 -0.00000000000E+00 -0.13090442380E+03  0.13091058425E+03  0.12700000000E+01 0.  1.
         25    2    1    2    0    0  0.00000000000E+00  0.00000000000E+00 -0.10108203223E+03  0.16076000534E+03  0.12500480821E+03 0.  0.
    9000005    1    3    3    0    0 -0.27425963109E+02  0.53641657466E+01  0.21345594435E+02  0.35179427630E+02  0.10000000000E+01 0.  0.
    9000005    1    3    3    0    0  0.27425963109E+02 -0.53641657466E+01 -0.12242762666E+03  0.12558057771E+03  0.10000000000E+01 0.  0.
<mgrwt>
<rscale>  0 0.12500481E+03</rscale>
<asrwt>0</asrwt>
<pdfrwt beam="1">  1        4 0.45906134E-02 0.12500481E+03</pdfrwt>
<pdfrwt beam="2">  1       -4 0.20141695E-01 0.12500481E+03</pdfrwt>
<totfact> 0.97185959E+03</totfact>
</mgrwt>
</event>
<event>
 5    1  0.3276024E-002  0.1250108E+03  0.7818608E-02  0.1235052E+00
          4   -1    0    0  501    0  0.00000000000E+00  0.00000000000E+00  0.58300431423E+03  0.58300569749E+03  0.12700000000E+01 0. -1.
         -4   -1    0    0    0  501 -0.00000000000E+00 -0.00000000000E+00 -0.66397868600E+01  0.67601530712E+01  0.12700000000E+01 0. -1.
         25    2    1    2    0    0  0.00000000000E+00  0.00000000000E+00  0.57636452737E+03  0.58976585056E+03  0.12501075987E+03 0.  0.
    9000005    1    3    3    0    0  0.49618798292E+02  0.30613206624E+02  0.39438118075E+03  0.39866867107E+03  0.10000000000E+01 0.  0.
    9000005    1    3    3    0    0 -0.49618798292E+02 -0.30613206624E+02  0.18198334662E+03  0.19109717949E+03  0.10000000000E+01 0.  0.
<mgrwt>
<rscale>  0 0.12501076E+03</rscale>
<asrwt>0</asrwt>
<pdfrwt beam="1">  1        4 0.89702340E-01 0.12501076E+03</pdfrwt>
<pdfrwt beam="2">  1       -4 0.10308710E-02 0.12501076E+03</pdfrwt>
<totfact> 0.49508372E+03</totfact>
</mgrwt>
</event>
<event>
 5    1  0.3276024E-002  0.1249830E+03  0.7818608E-02  0.1235096E+00
         -4   -1    0    0    0  501 -0.00000000000E+00  0.00000000000E+00  0.15498096462E+03  0.15498616808E+03  0.12700000000E+01 0. -1.
          4   -1    0    0  501    0  0.00000000000E+00 -0.00000000000E+00 -0.25176210748E+02  0.25208222619E+02  0.12700000000E+01 0. -1.
         25    2    1    2    0    0  0.00000000000E+00  0.00000000000E+00  0.12980475388E+03  0.18019439070E+03  0.12498297608E+03 0.  0.
    9000005    1    3    3    0    0 -0.32055477421E+02 -0.53625411186E+02  0.63498818698E+02  0.89086128738E+02  0.10000000000E+01 0.  0.
    9000005    1    3    3    0    0  0.32055477421E+02  0.53625411186E+02  0.66305935179E+02  0.91108261960E+02  0.10000000000E+01 0.  0.
<mgrwt>
<rscale>  0 0.12498298E+03</rscale>
<asrwt>0</asrwt>
<pdfrwt beam="2">  1        4 0.38761260E-02 0.12498298E+03</pdfrwt>
<pdfrwt beam="1">  1       -4 0.23846087E-01 0.12498298E+03</pdfrwt>
<totfact> 0.93617754E+03</totfact>
</mgrwt>
</event>
<event>
 5    1  0.3276024E-002  0.1250176E+03  0.7818608E-02  0.1235042E+00
         -4   -1    0    0    0  501 -0.00000000000E+00  0.00000000000E+00  0.87468195059E+02  0.87477414496E+02  0.12700000000E+01 0.  1.
          4   -1    0    0  501    0  0.00000000000E+00 -0.00000000000E+00 -0.44651052647E+02  0.44669110160E+02  0.12700000000E+01 0.  1.
         25    2    1    2    0    0  0.00000000000E+00  0.00000000000E+00  0.42817142412E+02  0.13214652466E+03  0.12501758394E+03 0.  0.
    9000005    1    3    3    0    0  0.50891431828E+02 -0.34769955521E+02  0.10451084345E+02  0.62522898241E+02  0.10000000000E+01 0.  0.
    9000005    1    3    3    0    0 -0.50891431828E+02  0.34769955521E+02  0.32366058067E+02  0.69623626415E+02  0.10000000000E+01 0.  0.
<mgrwt>
<rscale>  0 0.12501758E+03</rscale>
<asrwt>0</asrwt>
<pdfrwt beam="2">  1        4 0.68714910E-02 0.12501758E+03</pdfrwt>
<pdfrwt beam="1">  1       -4 0.13458743E-01 0.12501758E+03</pdfrwt>
<totfact> 0.10294488E+04</totfact>
</mgrwt>
</event>
<event>
 5    1  0.3276024E-002  0.1250011E+03  0.7818608E-02  0.1235068E+00
          4   -1    0    0  501    0  0.00000000000E+00  0.00000000000E+00  0.74199304042E+02  0.74210171946E+02  0.12700000000E+01 0. -1.
         -4   -1    0    0    0  501 -0.00000000000E+00 -0.00000000000E+00 -0.52623916238E+02  0.52639238788E+02  0.12700000000E+01 0. -1.
         25    2    1    2    0    0  0.00000000000E+00  0.00000000000E+00  0.21575387804E+02  0.12684941073E+03  0.12500110257E+03 0.  0.
    9000005    1    3    3    0    0  0.49152610957E+02 -0.24767661332E+02  0.40820958530E+02  0.68532961902E+02  0.10000000000E+01 0.  0.
    9000005    1    3    3    0    0 -0.49152610957E+02  0.24767661332E+02 -0.19245570727E+02  0.58316448832E+02  0.10000000000E+01 0.  0.
<mgrwt>
<rscale>  0 0.12500110E+03</rscale>
<asrwt>0</asrwt>
<pdfrwt beam="1">  1        4 0.11417292E-01 0.12500110E+03</pdfrwt>
<pdfrwt beam="2">  1       -4 0.80980018E-02 0.12500110E+03</pdfrwt>
<totfact> 0.10412160E+04</totfact>
</mgrwt>
</event>
<event>
 5    1  0.3276024E-002  0.1249992E+03  0.7818608E-02  0.1235070E+00
         -4   -1    0    0    0  501 -0.00000000000E+00  0.00000000000E+00  0.70393505930E+01  0.71529963491E+01  0.12700000000E+01 0. -1.
          4   -1    0    0  501    0  0.00000000000E+00 -0.00000000000E+00 -0.55035148341E+03  0.55035294874E+03  0.12700000000E+01 0. -1.
         25    2    1    2    0    0  0.00000000000E+00  0.00000000000E+00 -0.54331213282E+03  0.55750594509E+03  0.12499922059E+03 0.  0.
    9000005    1    3    3    0    0 -0.12530980222E+02  0.38628149343E+02 -0.59812256439E+02  0.72302596131E+02  0.10000000000E+01 0.  0.
    9000005    1    3    3    0    0  0.12530980222E+02 -0.38628149343E+02 -0.48349987638E+03  0.48520334896E+03  0.10000000000E+01 0.  0.
<mgrwt>
<rscale>  0 0.12499922E+03</rscale>
<asrwt>0</asrwt>
<pdfrwt beam="2">  1        4 0.84678280E-01 0.12499922E+03</pdfrwt>
<pdfrwt beam="1">  1       -4 0.10918321E-02 0.12499922E+03</pdfrwt>
<totfact> 0.51665633E+03</totfact>
</mgrwt>
</event>
<event>
 5    1  0.3276024E-002  0.1249982E+03  0.7818608E-02  0.1235072E+00
         -4   -1    0    0    0  501 -0.00000000000E+00  0.00000000000E+00  0.29054684350E+02  0.29082427386E+02  0.12700000000E+01 0. -1.
          4   -1    0    0  501    0  0.00000000000E+00 -0.00000000000E+00 -0.13434600983E+03  0.13435201248E+03  0.12700000000E+01 0. -1.
         25    2    1    2    0    0  0.00000000000E+00  0.00000000000E+00 -0.10529132548E+03  0.16343443987E+03  0.12499821164E+03 0.  0.
    9000005    1    3    3    0    0 -0.17856463164E+02 -0.56191405260E+02 -0.25570398682E+02  0.64274198483E+02  0.10000000000E+01 0.  0.
    9000005    1    3    3    0    0  0.17856463164E+02  0.56191405260E+02 -0.79720926803E+02  0.99160241388E+02  0.10000000000E+01 0.  0.
<mgrwt>
<rscale>  0 0.12499821E+03</rscale>
<asrwt>0</asrwt>
<pdfrwt beam="2">  1        4 0.20671212E-01 0.12499821E+03</pdfrwt>
<pdfrwt beam="1">  1       -4 0.44725473E-02 0.12499821E+03</pdfrwt>
<totfact> 0.96688594E+03</totfact>
</mgrwt>
</event>
<event>
 5    1  0.3276024E-002  0.1249993E+03  0.7818608E-02  0.1235070E+00
         -4   -1    0    0    0  501 -0.00000000000E+00  0.00000000000E+00  0.89857180808E+01  0.90750222825E+01  0.12700000000E+01 0.  1.
          4   -1    0    0  501    0  0.00000000000E+00 -0.00000000000E+00 -0.43247302685E+03  0.43247489159E+03  0.12700000000E+01 0.  1.
         25    2    1    2    0    0  0.00000000000E+00  0.00000000000E+00 -0.42348730877E+03  0.44154991387E+03  0.12499930299E+03 0.  0.
    9000005    1    3    3    0    0 -0.25482281096E+02  0.39957824474E+02 -0.35563205232E+03  0.35877727217E+03  0.10000000000E+01 0.  0.
    9000005    1    3    3    0    0  0.25482281096E+02 -0.39957824474E+02 -0.67855256452E+02  0.82772641704E+02  0.10000000000E+01 0.  0.
<mgrwt>
<rscale>  0 0.12499930E+03</rscale>
<asrwt>0</asrwt>
<pdfrwt beam="2">  1        4 0.66541309E-01 0.12499930E+03</pdfrwt>
<pdfrwt beam="1">  1       -4 0.13894315E-02 0.12499930E+03</pdfrwt>
<totfact> 0.60703775E+03</totfact>
</mgrwt>
</event>
<event>
 4    1  0.3276024E-002  0.1275772E+03  0.7818608E-02  0.1231096E+00
          4   -1    0    0  501    0  0.00000000000E+00  0.00000000000E+00  0.11695228951E+02  0.11763982328E+02  0.12700000000E+01 0.  1.
         -4   -1    0    0    0  501 -0.00000000000E+00 -0.00000000000E+00 -0.34682870083E+03  0.34683102603E+03  0.12700000000E+01 0.  1.
    9000005    1    1    2    0    0 -0.45109720253E+02  0.25961959698E+02 -0.27118892735E+03  0.27614008136E+03  0.10000000000E+01 0.  0.
    9000005    1    1    2    0    0  0.45109720253E+02 -0.25961959698E+02 -0.63944544522E+02  0.82454927001E+02  0.10000000000E+01 0.  0.
<mgrwt>
<rscale>  0 0.12757718E+03</rscale>
<asrwt>0</asrwt>
<pdfrwt beam="1">  1        4 0.18047338E-02 0.12757718E+03</pdfrwt>
<pdfrwt beam="2">  1       -4 0.53363721E-01 0.12757718E+03</pdfrwt>
<totfact> 0.65010730E+03</totfact>
</mgrwt>
</event>
<event>
 5    1  0.3276024E-002  0.1249994E+03  0.7818608E-02  0.1235070E+00
          4   -1    0    0  501    0  0.00000000000E+00  0.00000000000E+00  0.66925901361E+01  0.68120233947E+01  0.12700000000E+01 0. -1.
         -4   -1    0    0    0  501 -0.00000000000E+00 -0.00000000000E+00 -0.57838061304E+03  0.57838200737E+03  0.12700000000E+01 0. -1.
         25    2    1    2    0    0  0.00000000000E+00  0.00000000000E+00 -0.57168802291E+03  0.58519403076E+03  0.12499943241E+03 0.  0.
    9000005    1    3    3    0    0 -0.19491203664E+02 -0.58733152717E+02 -0.24510510053E+03  0.25279833970E+03  0.10000000000E+01 0.  0.
    9000005    1    3    3    0    0  0.19491203664E+02  0.58733152717E+02 -0.32658292238E+03  0.33239569106E+03  0.10000000000E+01 0.  0.
<mgrwt>
<rscale>  0 0.12499943E+03</rscale>
<asrwt>0</asrwt>
<pdfrwt beam="1">  1        4 0.10389241E-02 0.12499943E+03</pdfrwt>
<pdfrwt beam="2">  1       -4 0.88990888E-01 0.12499943E+03</pdfrwt>
<totfact> 0.49816381E+03</totfact>
</mgrwt>
</event>
<event>
 5    1  0.3276024E-002  0.1250079E+03  0.7818608E-02  0.1235057E+00
         -4   -1    0    0    0  501 -0.00000000000E+00  0.00000000000E+00  0.55490382024E+02  0.55504913270E+02  0.12700000000E+01 0.  1.
          4   -1    0    0  501    0  0.00000000000E+00 -0.00000000000E+00 -0.70374473430E+02  0.70385931907E+02  0.12700000000E+01 0.  1.
         25    2    1    2    0    0  0.00000000000E+00  0.00000000000E+00 -0.14884091406E+02  0.12589084518E+03  0.12500787464E+03 0.  0.
    9000005    1    3    3    0    0  0.55602815522E+02 -0.18066323908E+01  0.21233720532E+02  0.59555082925E+02  0.10000000000E+01 0.  0.
    9000005    1    3    3    0    0 -0.55602815522E+02  0.18066323908E+01 -0.36117811937E+02  0.66335762253E+02  0.10000000000E+01 0.  0.
<mgrwt>
<rscale>  0 0.12500787E+03</rscale>
<asrwt>0</asrwt>
<pdfrwt beam="2">  1        4 0.10828841E-01 0.12500787E+03</pdfrwt>
<pdfrwt beam="1">  1       -4 0.85389810E-02 0.12500787E+03</pdfrwt>
<totfact> 0.10431497E+04</totfact>
</mgrwt>
</event>
<event>
 5    1  0.3276024E-002  0.1249996E+03  0.7818608E-02  0.1235070E+00
         -4   -1    0    0    0  501 -0.00000000000E+00  0.00000000000E+00  0.10831950826E+03  0.10832695311E+03  0.12700000000E+01 0. -1.
          4   -1    0    0  501    0  0.00000000000E+00 -0.00000000000E+00 -0.36042210097E+02  0.36064578310E+02  0.12700000000E+01 0. -1.
         25    2    1    2    0    0  0.00000000000E+00  0.00000000000E+00  0.72277298160E+02  0.14439153142E+03  0.12499962606E+03 0.  0.
    9000005    1    3    3    0    0 -0.45187882408E+01  0.60681187356E+02  0.19696693863E+02  0.63965503947E+02  0.10000000000E+01 0.  0.
    9000005    1    3    3    0    0  0.45187882408E+01 -0.60681187356E+02  0.52580604297E+02  0.80426027468E+02  0.10000000000E+01 0.  0.
<mgrwt>
<rscale>  0 0.12499963E+03</rscale>
<asrwt>0</asrwt>
<pdfrwt beam="2">  1        4 0.55472488E-02 0.12499963E+03</pdfrwt>
<pdfrwt beam="1">  1       -4 0.16666833E-01 0.12499963E+03</pdfrwt>
<totfact> 0.10043450E+04</totfact>
</mgrwt>
</event>
<event>
 5    1  0.3276024E-002  0.1250001E+03  0.7818608E-02  0.1235069E+00
          4   -1    0    0  501    0  0.00000000000E+00  0.00000000000E+00  0.10616937283E+02  0.10692626303E+02  0.12700000000E+01 0. -1.
         -4   -1    0    0    0  501 -0.00000000000E+00 -0.00000000000E+00 -0.36654316870E+03  0.36654536885E+03  0.12700000000E+01 0. -1.
         25    2    1    2    0    0  0.00000000000E+00  0.00000000000E+00 -0.35592623142E+03  0.37723799515E+03  0.12500009109E+03 0.  0.
    9000005    1    3    3    0    0  0.57550624592E+02 -0.13337035028E+02 -0.11646120998E+03  0.13059159362E+03  0.10000000000E+01 0.  0.
    9000005    1    3    3    0    0 -0.57550624592E+02  0.13337035028E+02 -0.23946502144E+03  0.24664640153E+03  0.10000000000E+01 0.  0.
<mgrwt>
<rscale>  0 0.12500009E+03</rscale>
<asrwt>0</asrwt>
<pdfrwt beam="1">  1        4 0.16393667E-02 0.12500009E+03</pdfrwt>
<pdfrwt beam="2">  1       -4 0.56397238E-01 0.12500009E+03</pdfrwt>
<totfact> 0.66828314E+03</totfact>
</mgrwt>
</event>
<event>
 5    1  0.3276024E-002  0.1249991E+03  0.7818608E-02  0.1235071E+00
         -4   -1    0    0    0  501 -0.00000000000E+00  0.00000000000E+00  0.10457045942E+02  0.10533883891E+02  0.12700000000E+01 0. -1.
          4   -1    0    0  501    0  0.00000000000E+00 -0.00000000000E+00 -0.37210139564E+03  0.37210356292E+03  0.12700000000E+01 0. -1.
         25    2    1    2    0    0  0.00000000000E+00  0.00000000000E+00 -0.36164434969E+03  0.38263744681E+03  0.12499912013E+03 0.  0.
    9000005    1    3    3    0    0 -0.18125329011E+02  0.57935607552E+02 -0.22623964362E+03  0.23424439912E+03  0.10000000000E+01 0.  0.
    9000005    1    3    3    0    0  0.18125329011E+02 -0.57935607552E+02 -0.13540470608E+03  0.14839304769E+03  0.10000000000E+01 0.  0.
<mgrwt>
<rscale>  0 0.12499912E+03</rscale>
<asrwt>0</asrwt>
<pdfrwt beam="2">  1        4 0.57252436E-01 0.12499912E+03</pdfrwt>
<pdfrwt beam="1">  1       -4 0.16148539E-02 0.12499912E+03</pdfrwt>
<totfact> 0.66278516E+03</totfact>
</mgrwt>
</event>
<event>
 5    1  0.3276024E-002  0.1249892E+03  0.7818608E-02  0.1235086E+00
         -4   -1    0    0    0  501 -0.00000000000E+00  0.00000000000E+00  0.35714010032E+02  0.35736583672E+02  0.12700000000E+01 0. -1.
          4   -1    0    0  501    0  0.00000000000E+00 -0.00000000000E+00 -0.10929620673E+03  0.10930358505E+03  0.12700000000E+01 0. -1.
         25    2    1    2    0    0  0.00000000000E+00  0.00000000000E+00 -0.73582196698E+02  0.14504016873E+03  0.12498924303E+03 0.  0.
    9000005    1    3    3    0    0  0.29982574759E+02  0.49740318193E+02 -0.10037822638E+02  0.58947535372E+02  0.10000000000E+01 0.  0.
    9000005    1    3    3    0    0 -0.29982574759E+02 -0.49740318193E+02 -0.63544374060E+02  0.86092633354E+02  0.10000000000E+01 0.  0.
<mgrwt>
<rscale>  0 0.12498924E+03</rscale>
<asrwt>0</asrwt>
<pdfrwt beam="2">  1        4 0.16817105E-01 0.12498924E+03</pdfrwt>
<pdfrwt beam="1">  1       -4 0.54967672E-02 0.12498924E+03</pdfrwt>
<totfact> 0.10032602E+04</totfact>
</mgrwt>
</event>
<event>
 5    1  0.3276024E-002  0.1249999E+03  0.7818608E-02  0.1235069E+00
          4   -1    0    0  501    0  0.00000000000E+00  0.00000000000E+00  0.81678913925E+02  0.81688786745E+02  0.12700000000E+01 0. -1.
         -4   -1    0    0    0  501 -0.00000000000E+00 -0.00000000000E+00 -0.47803201851E+02  0.47820069084E+02  0.12700000000E+01 0. -1.
         25    2    1    2    0    0  0.00000000000E+00  0.00000000000E+00  0.33875712073E+02  0.12950885583E+03  0.12499991948E+03 0.  0.
    9000005    1    3    3    0    0 -0.31922283799E+02 -0.62030416817E+01 -0.38351244240E+02  0.50292423523E+02  0.10000000000E+01 0.  0.
    9000005    1    3    3    0    0  0.31922283799E+02  0.62030416817E+01  0.72226956314E+02  0.79216432307E+02  0.10000000000E+01 0.  0.
<mgrwt>
<rscale>  0 0.12499992E+03</rscale>
<asrwt>0</asrwt>
<pdfrwt beam="1">  1        4 0.12568044E-01 0.12499992E+03</pdfrwt>
<pdfrwt beam="2">  1       -4 0.73563957E-02 0.12499992E+03</pdfrwt>
<totfact> 0.10355044E+04</totfact>
</mgrwt>
</event>
<event>
 5    1  0.3276024E-002  0.1249896E+03  0.7818608E-02  0.1235086E+00
         -4   -1    0    0    0  501 -0.00000000000E+00  0.00000000000E+00  0.38219290132E+01  0.40274112507E+01  0.12700000000E+01 0.  1.
          4   -1    0    0  501    0  0.00000000000E+00 -0.00000000000E+00 -0.99493538179E+03  0.99493619235E+03  0.12700000000E+01 0.  1.
         25    2    1    2    0    0  0.00000000000E+00  0.00000000000E+00 -0.99111345278E+03  0.99896360360E+03  0.12498961970E+03 0.  0.
    9000005    1    3    3    0    0  0.17821058243E+02 -0.55196695879E+02 -0.68134043689E+03  0.68380556907E+03  0.10000000000E+01 0.  0.
    9000005    1    3    3    0    0 -0.17821058243E+02  0.55196695879E+02 -0.30977301589E+03  0.31515803452E+03  0.10000000000E+01 0.  0.
<mgrwt>
<rscale>  0 0.12498962E+03</rscale>
<asrwt>0</asrwt>
<pdfrwt beam="2">  1        4 0.15308265E+00 0.12498962E+03</pdfrwt>
<pdfrwt beam="1">  1       -4 0.60385855E-03 0.12498962E+03</pdfrwt>
<totfact> 0.30645708E+03</totfact>
</mgrwt>
</event>
<event>
 5    1  0.3276024E-002  0.1250029E+03  0.7818608E-02  0.1235065E+00
         -4   -1    0    0    0  501 -0.00000000000E+00  0.00000000000E+00  0.70905423843E+02  0.70916796531E+02  0.12700000000E+01 0.  1.
          4   -1    0    0  501    0  0.00000000000E+00 -0.00000000000E+00 -0.55070450164E+02  0.55085092187E+02  0.12700000000E+01 0.  1.
         25    2    1    2    0    0  0.00000000000E+00  0.00000000000E+00  0.15834973679E+02  0.12600188872E+03  0.12500291824E+03 0.  0.
    9000005    1    3    3    0    0  0.26680776593E+02 -0.52960382188E+02  0.27792219906E+02  0.65498651959E+02  0.10000000000E+01 0.  0.
    9000005    1    3    3    0    0 -0.26680776593E+02  0.52960382188E+02 -0.11957246227E+02  0.60503236760E+02  0.10000000000E+01 0.  0.
<mgrwt>
<rscale>  0 0.12500292E+03</rscale>
<asrwt>0</asrwt>
<pdfrwt beam="2">  1        4 0.84743781E-02 0.12500292E+03</pdfrwt>
<pdfrwt beam="1">  1       -4 0.10910528E-01 0.12500292E+03</pdfrwt>
<totfact> 0.10430229E+04</totfact>
</mgrwt>
</event>
<event>
 5    1  0.3276024E-002  0.1249993E+03  0.7818608E-02  0.1235070E+00
         -4   -1    0    0    0  501 -0.00000000000E+00  0.00000000000E+00  0.22898905100E+03  0.22899257276E+03  0.12700000000E+01 0. -1.
          4   -1    0    0  501    0  0.00000000000E+00 -0.00000000000E+00 -0.17031201945E+02  0.17078487629E+02  0.12700000000E+01 0. -1.
         25    2    1    2    0    0  0.00000000000E+00  0.00000000000E+00  0.21195784905E+03  0.24607106038E+03  0.12499934793E+03 0.  0.
    9000005    1    3    3    0    0 -0.56296433762E+02 -0.90780938428E+01  0.15630332166E+03  0.16638337839E+03  0.10000000000E+01 0.  0.
    9000005    1    3    3    0    0  0.56296433762E+02  0.90780938428E+01  0.55654527390E+02  0.79687681992E+02  0.10000000000E+01 0.  0.
<mgrwt>
<rscale>  0 0.12499935E+03</rscale>
<asrwt>0</asrwt>
<pdfrwt beam="2">  1        4 0.26240930E-02 0.12499935E+03</pdfrwt>
<pdfrwt beam="1">  1       -4 0.35232995E-01 0.12499935E+03</pdfrwt>
<totfact> 0.82902620E+03</totfact>
</mgrwt>
</event>
<event>
 5    1  0.3276024E-002  0.1249954E+03  0.7818608E-02  0.1235077E+00
          4   -1    0    0  501    0  0.00000000000E+00  0.00000000000E+00  0.16961443560E+02  0.17008923177E+02  0.12700000000E+01 0.  1.
         -4   -1    0    0    0  501 -0.00000000000E+00 -0.00000000000E+00 -0.22991351918E+03  0.22991702677E+03  0.12700000000E+01 0.  1.
         25    2    1    2    0    0  0.00000000000E+00  0.00000000000E+00 -0.21295207562E+03  0.24692594995E+03  0.12499535291E+03 0.  0.
    9000005    1    3    3    0    0 -0.34448738272E+02  0.58225799781E+01 -0.20882695846E+03  0.21173170898E+03  0.10000000000E+01 0.  0.
    9000005    1    3    3    0    0  0.34448738272E+02 -0.58225799781E+01 -0.41251171554E+01  0.35194240973E+02  0.10000000000E+01 0.  0.
<mgrwt>
<rscale>  0 0.12499535E+03</rscale>
<asrwt>0</asrwt>
<pdfrwt beam="1">  1        4 0.26133751E-02 0.12499535E+03</pdfrwt>
<pdfrwt beam="2">  1       -4 0.35375231E-01 0.12499535E+03</pdfrwt>
<totfact> 0.82785136E+03</totfact>
</mgrwt>
</event>
<event>
 5    1  0.3276024E-002  0.1250029E+03  0.7818608E-02  0.1235065E+00
         -4   -1    0    0    0  501 -0.00000000000E+00  0.00000000000E+00  0.38983139172E+03  0.38983346043E+03  0.12700000000E+01 0. -1.
          4   -1    0    0  501    0  0.00000000000E+00 -0.00000000000E+00 -0.99784800356E+01  0.10058974293E+02  0.12700000000E+01 0. -1.
         25    2    1    2    0    0  0.00000000000E+00  0.00000000000E+00  0.37985291168E+03  0.39989243472E+03  0.12500289930E+03 0.  0.
    9000005    1    3    3    0    0  0.31564417162E+02  0.88005759951E+01  0.19693234448E+02  0.38243771410E+02  0.10000000000E+01 0.  0.
    9000005    1    3    3    0    0 -0.31564417162E+02 -0.88005759951E+01  0.36015967723E+03  0.36164866331E+03  0.10000000000E+01 0.  0.
<mgrwt>
<rscale>  0 0.12500290E+03</rscale>
<asrwt>0</asrwt>
<pdfrwt beam="2">  1        4 0.15415022E-02 0.12500290E+03</pdfrwt>
<pdfrwt beam="1">  1       -4 0.59980394E-01 0.12500290E+03</pdfrwt>
<totfact> 0.64559129E+03</totfact>
</mgrwt>
</event>
<event>
 5    1  0.3276024E-002  0.1250015E+03  0.7818608E-02  0.1235067E+00
         -4   -1    0    0    0  501 -0.00000000000E+00  0.00000000000E+00  0.58557392925E+02  0.58571163264E+02  0.12700000000E+01 0. -1.
          4   -1    0    0  501    0  0.00000000000E+00 -0.00000000000E+00 -0.66681985611E+02  0.66694078485E+02  0.12700000000E+01 0. -1.
         25    2    1    2    0    0  0.00000000000E+00  0.00000000000E+00 -0.81245926860E+01  0.12526524175E+03  0.12500148713E+03 0.  0.
    9000005    1    3    3    0    0 -0.20042533142E+02 -0.59191387119E+02 -0.39223510927E+01  0.62623544150E+02  0.10000000000E+01 0.  0.
    9000005    1    3    3    0    0  0.20042533142E+02  0.59191387119E+02 -0.42022415934E+01  0.62641697600E+02  0.10000000000E+01 0.  0.
<mgrwt>
<rscale>  0 0.12500149E+03</rscale>
<asrwt>0</asrwt>
<pdfrwt beam="2">  1        4 0.10260757E-01 0.12500149E+03</pdfrwt>
<pdfrwt beam="1">  1       -4 0.90108191E-02 0.12500149E+03</pdfrwt>
<totfact> 0.10446753E+04</totfact>
</mgrwt>
</event>
<event>
 5    1  0.3276024E-002  0.1249955E+03  0.7818608E-02  0.1235076E+00
          4   -1    0    0  501    0  0.00000000000E+00  0.00000000000E+00  0.22024199206E+03  0.22024565369E+03  0.12700000000E+01 0. -1.
         -4   -1    0    0    0  501 -0.00000000000E+00 -0.00000000000E+00 -0.17708349950E+02  0.17753832205E+02  0.12700000000E+01 0. -1.
         25    2    1    2    0    0  0.00000000000E+00  0.00000000000E+00  0.20253364211E+03  0.23799948589E+03  0.12499551631E+03 0.  0.
    9000005    1    3    3    0    0  0.41609681410E+02  0.19765447780E+02  0.20868147432E+02  0.50581796036E+02  0.10000000000E+01 0.  0.
    9000005    1    3    3    0    0 -0.41609681410E+02 -0.19765447780E+02  0.18166549468E+03  0.18741768985E+03  0.10000000000E+01 0.  0.
<mgrwt>
<rscale>  0 0.12499552E+03</rscale>
<asrwt>0</asrwt>
<pdfrwt beam="1">  1        4 0.33887166E-01 0.12499552E+03</pdfrwt>
<pdfrwt beam="2">  1       -4 0.27281417E-02 0.12499552E+03</pdfrwt>
<totfact> 0.84104619E+03</totfact>
</mgrwt>
</event>
<event>
 5    1  0.3276024E-002  0.1250013E+03  0.7818608E-02  0.1235067E+00
          4   -1    0    0  501    0  0.00000000000E+00  0.00000000000E+00  0.13044695497E+03  0.13045313703E+03  0.12700000000E+01 0. -1.
         -4   -1    0    0    0  501 -0.00000000000E+00 -0.00000000000E+00 -0.29925390420E+02  0.29952326984E+02  0.12700000000E+01 0. -1.
         25    2    1    2    0    0  0.00000000000E+00  0.00000000000E+00  0.10052156455E+03  0.16040546401E+03  0.12500131178E+03 0.  0.
    9000005    1    3    3    0    0 -0.20821050029E+02  0.51218175636E+02  0.87640342039E+02  0.10362744420E+03  0.10000000000E+01 0.  0.
    9000005    1    3    3    0    0  0.20821050029E+02 -0.51218175636E+02  0.12881222508E+02  0.56778019806E+02  0.10000000000E+01 0.  0.
<mgrwt>
<rscale>  0 0.12500131E+03</rscale>
<asrwt>0</asrwt>
<pdfrwt beam="1">  1        4 0.20071310E-01 0.12500131E+03</pdfrwt>
<pdfrwt beam="2">  1       -4 0.46064538E-02 0.12500131E+03</pdfrwt>
<totfact> 0.97261804E+03</totfact>
</mgrwt>
</event>
<event>
 5    1  0.3276024E-002  0.1250104E+03  0.7818608E-02  0.1235053E+00
          4   -1    0    0  501    0  0.00000000000E+00  0.00000000000E+00  0.12538967738E+01  0.17847008487E+01  0.12700000000E+01 0.  1.
         -4   -1    0    0    0  501 -0.00000000000E+00 -0.00000000000E+00 -0.25709841470E+04  0.25709844607E+04  0.12700000000E+01 0.  1.
         25    2    1    2    0    0  0.00000000000E+00  0.00000000000E+00 -0.25697302502E+04  0.25727691615E+04  0.12501039778E+03 0.  0.
    9000005    1    3    3    0    0  0.12389862521E+02  0.27414468318E+02 -0.15747047786E+03  0.16032159295E+03  0.10000000000E+01 0.  0.
    9000005    1    3    3    0    0 -0.12389862521E+02 -0.27414468318E+02 -0.24122597724E+04  0.24124475686E+04  0.10000000000E+01 0.  0.
<mgrwt>
<rscale>  0 0.12501040E+03</rscale>
<asrwt>0</asrwt>
<pdfrwt beam="1">  1        4 0.23376446E-03 0.12501040E+03</pdfrwt>
<pdfrwt beam="2">  1       -4 0.39557340E+00 0.12501040E+03</pdfrwt>
<totfact> 0.41217427E+02</totfact>
</mgrwt>
</event>
<event>
 5    1  0.3276024E-002  0.1250082E+03  0.7818608E-02  0.1235056E+00
         -4   -1    0    0    0  501 -0.00000000000E+00  0.00000000000E+00  0.20874425363E+02  0.20913023077E+02  0.12700000000E+01 0.  1.
          4   -1    0    0  501    0  0.00000000000E+00 -0.00000000000E+00 -0.18694189505E+03  0.18694620890E+03  0.12700000000E+01 0.  1.
         25    2    1    2    0    0  0.00000000000E+00  0.00000000000E+00 -0.16606746968E+03  0.20785923198E+03  0.12500822306E+03 0.  0.
    9000005    1    3    3    0    0 -0.53891095777E+02  0.24524693279E+02 -0.11629123459E+03  0.13050042922E+03  0.10000000000E+01 0.  0.
    9000005    1    3    3    0    0  0.53891095777E+02 -0.24524693279E+02 -0.49776235098E+02  0.77358802764E+02  0.10000000000E+01 0.  0.
<mgrwt>
<rscale>  0 0.12500822E+03</rscale>
<asrwt>0</asrwt>
<pdfrwt beam="2">  1        4 0.28763591E-01 0.12500822E+03</pdfrwt>
<pdfrwt beam="1">  1       -4 0.32147511E-02 0.12500822E+03</pdfrwt>
<totfact> 0.88810363E+03</totfact>
</mgrwt>
</event>
<event>
 5    1  0.3276024E-002  0.1250040E+03  0.7818608E-02  0.1235063E+00
          4   -1    0    0  501    0  0.00000000000E+00  0.00000000000E+00  0.84234936101E+02  0.84244509375E+02  0.12700000000E+01 0.  1.
         -4   -1    0    0    0  501 -0.00000000000E+00 -0.00000000000E+00 -0.46355311000E+02  0.46372704881E+02  0.12700000000E+01 0.  1.
         25    2    1    2    0    0  0.00000000000E+00  0.00000000000E+00  0.37879625100E+02  0.13061721426E+03  0.12500396259E+03 0.  0.
    9000005    1    3    3    0    0  0.54605515336E+02  0.33671531968E+00 -0.12816039316E+02  0.56099256199E+02  0.10000000000E+01 0.  0.
    9000005    1    3    3    0    0 -0.54605515336E+02 -0.33671531968E+00  0.50695664416E+02  0.74517958057E+02  0.10000000000E+01 0.  0.
<mgrwt>
<rscale>  0 0.12500396E+03</rscale>
<asrwt>0</asrwt>
<pdfrwt beam="1">  1        4 0.12961295E-01 0.12500396E+03</pdfrwt>
<pdfrwt beam="2">  1       -4 0.71336608E-02 0.12500396E+03</pdfrwt>
<totfact> 0.10330379E+04</totfact>
</mgrwt>
</event>
<event>
 5    1  0.3276024E-002  0.1249963E+03  0.7818608E-02  0.1235075E+00
         -4   -1    0    0    0  501 -0.00000000000E+00  0.00000000000E+00  0.15719683367E+02  0.15770901850E+02  0.12700000000E+01 0.  1.
          4   -1    0    0  501    0  0.00000000000E+00 -0.00000000000E+00 -0.24802253379E+03  0.24802578529E+03  0.12700000000E+01 0.  1.
         25    2    1    2    0    0  0.00000000000E+00  0.00000000000E+00 -0.23230285042E+03  0.26379668714E+03  0.12499631127E+03 0.  0.
    9000005    1    3    3    0    0 -0.52566749656E+02  0.33761788416E+02 -0.11905887591E+03  0.13445868309E+03  0.10000000000E+01 0.  0.
    9000005    1    3    3    0    0  0.52566749656E+02 -0.33761788416E+02 -0.11324397452E+03  0.12933800405E+03  0.10000000000E+01 0.  0.
<mgrwt>
<rscale>  0 0.12499631E+03</rscale>
<asrwt>0</asrwt>
<pdfrwt beam="2">  1        4 0.38161500E-01 0.12499631E+03</pdfrwt>
<pdfrwt beam="1">  1       -4 0.24226030E-02 0.12499631E+03</pdfrwt>
<totfact> 0.80382784E+03</totfact>
</mgrwt>
</event>
<event>
 5    1  0.3276024E-002  0.1249990E+03  0.7818608E-02  0.1235071E+00
         -4   -1    0    0    0  501 -0.00000000000E+00  0.00000000000E+00  0.38575481518E+02  0.38596381622E+02  0.12700000000E+01 0.  1.
          4   -1    0    0  501    0  0.00000000000E+00 -0.00000000000E+00 -0.10120858111E+03  0.10121654900E+03  0.12700000000E+01 0.  1.
         25    2    1    2    0    0  0.00000000000E+00  0.00000000000E+00 -0.62633099593E+02  0.13981293062E+03  0.12499900161E+03 0.  0.
    9000005    1    3    3    0    0  0.51711932630E+02  0.25263937394E+01 -0.70459384844E+02  0.87441589385E+02  0.10000000000E+01 0.  0.
    9000005    1    3    3    0    0 -0.51711932630E+02 -0.25263937394E+01  0.78262852507E+01  0.52371341232E+02  0.10000000000E+01 0.  0.
<mgrwt>
<rscale>  0 0.12499900E+03</rscale>
<asrwt>0</asrwt>
<pdfrwt beam="2">  1        4 0.15572771E-01 0.12499900E+03</pdfrwt>
<pdfrwt beam="1">  1       -4 0.59369101E-02 0.12499900E+03</pdfrwt>
<totfact> 0.10137692E+04</totfact>
</mgrwt>
</event>
<event>
 5    1  0.3276024E-002  0.1250001E+03  0.7818608E-02  0.1235069E+00
         -4   -1    0    0    0  501 -0.00000000000E+00  0.00000000000E+00  0.81575610323E+03  0.81575709182E+03  0.12700000000E+01 0. -1.
          4   -1    0    0  501    0  0.00000000000E+00 -0.00000000000E+00 -0.47032909131E+01  0.48717394648E+01  0.12700000000E+01 0. -1.
         25    2    1    2    0    0  0.00000000000E+00  0.00000000000E+00  0.81105281231E+03  0.82062883128E+03  0.12500005748E+03 0.  0.
    9000005    1    3    3    0    0  0.52936912745E+01 -0.28524203547E+02  0.42153447047E+02  0.51181700375E+02  0.10000000000E+01 0.  0.
    9000005    1    3    3    0    0 -0.52936912745E+01  0.28524203547E+02  0.76889936527E+03  0.76944713091E+03  0.10000000000E+01 0.  0.
<mgrwt>
<rscale>  0 0.12500006E+03</rscale>
<asrwt>0</asrwt>
<pdfrwt beam="2">  1        4 0.73661679E-03 0.12500006E+03</pdfrwt>
<pdfrwt beam="1">  1       -4 0.12551398E+00 0.12500006E+03</pdfrwt>
<totfact> 0.37360178E+03</totfact>
</mgrwt>
</event>
<event>
 5    1  0.3276024E-002  0.1250334E+03  0.7818608E-02  0.1235017E+00
         -4   -1    0    0    0  501 -0.00000000000E+00  0.00000000000E+00  0.14040060667E+03  0.14040635047E+03  0.12700000000E+01 0.  1.
          4   -1    0    0  501    0  0.00000000000E+00 -0.00000000000E+00 -0.27816229093E+02  0.27845206068E+02  0.12700000000E+01 0.  1.
         25    2    1    2    0    0  0.00000000000E+00  0.00000000000E+00  0.11258437758E+03  0.16825155654E+03  0.12503337236E+03 0.  0.
    9000005    1    3    3    0    0  0.17244367400E+02  0.58043784557E+02  0.77177442413E+02  0.98101002799E+02  0.10000000000E+01 0.  0.
    9000005    1    3    3    0    0 -0.17244367400E+02 -0.58043784557E+02  0.35406935165E+02  0.70150553743E+02  0.10000000000E+01 0.  0.
<mgrwt>
<rscale>  0 0.12503337E+03</rscale>
<asrwt>0</asrwt>
<pdfrwt beam="2">  1        4 0.42820907E-02 0.12503337E+03</pdfrwt>
<pdfrwt beam="1">  1       -4 0.21602764E-01 0.12503337E+03</pdfrwt>
<totfact> 0.95703377E+03</totfact>
</mgrwt>
</event>
<event>
 5    1  0.3276024E-002  0.1250021E+03  0.7818608E-02  0.1235066E+00
          4   -1    0    0  501    0  0.00000000000E+00  0.00000000000E+00  0.11203124656E+02  0.11274879248E+02  0.12700000000E+01 0. -1.
         -4   -1    0    0    0  501 -0.00000000000E+00 -0.00000000000E+00 -0.34750095313E+03  0.34750327384E+03  0.12700000000E+01 0. -1.
         25    2    1    2    0    0  0.00000000000E+00  0.00000000000E+00 -0.33629782848E+03  0.35877815309E+03  0.12500213476E+03 0.  0.
    9000005    1    3    3    0    0  0.52900503123E+02 -0.52923259141E+01 -0.73872844945E+02  0.91020158012E+02  0.10000000000E+01 0.  0.
    9000005    1    3    3    0    0 -0.52900503123E+02  0.52923259141E+01 -0.26242498353E+03  0.26775799507E+03  0.10000000000E+01 0.  0.
<mgrwt>
<rscale>  0 0.12500213E+03</rscale>
<asrwt>0</asrwt>
<pdfrwt beam="1">  1        4 0.17292560E-02 0.12500213E+03</pdfrwt>
<pdfrwt beam="2">  1       -4 0.53467375E-01 0.12500213E+03</pdfrwt>
<totfact> 0.68766283E+03</totfact>
</mgrwt>
</event>
<event>
 5    1  0.3276024E-002  0.1250012E+03  0.7818608E-02  0.1235067E+00
          4   -1    0    0  501    0  0.00000000000E+00  0.00000000000E+00  0.26120628965E+02  0.26151484806E+02  0.12700000000E+01 0.  1.
         -4   -1    0    0    0  501 -0.00000000000E+00 -0.00000000000E+00 -0.14942769402E+03  0.14943309085E+03  0.12700000000E+01 0.  1.
         25    2    1    2    0    0  0.00000000000E+00  0.00000000000E+00 -0.12330706505E+03  0.17558457565E+03  0.12500124365E+03 0.  0.
    9000005    1    3    3    0    0 -0.48633248603E+02  0.27514595934E+02 -0.10096104972E+03  0.11539661788E+03  0.10000000000E+01 0.  0.
    9000005    1    3    3    0    0  0.48633248603E+02 -0.27514595934E+02 -0.22346015340E+02  0.60187957771E+02  0.10000000000E+01 0.  0.
<mgrwt>
<rscale>  0 0.12500124E+03</rscale>
<asrwt>0</asrwt>
<pdfrwt beam="1">  1        4 0.40213471E-02 0.12500124E+03</pdfrwt>
<pdfrwt beam="2">  1       -4 0.22991664E-01 0.12500124E+03</pdfrwt>
<totfact> 0.94415252E+03</totfact>
</mgrwt>
</event>
<event>
 5    1  0.3276024E-002  0.1250027E+03  0.7818608E-02  0.1235065E+00
          4   -1    0    0  501    0  0.00000000000E+00  0.00000000000E+00  0.10231935696E+02  0.10310451401E+02  0.12700000000E+01 0. -1.
         -4   -1    0    0    0  501 -0.00000000000E+00 -0.00000000000E+00 -0.38024822737E+03  0.38025034821E+03  0.12700000000E+01 0. -1.
         25    2    1    2    0    0  0.00000000000E+00  0.00000000000E+00 -0.37001629167E+03  0.39056079961E+03  0.12500272834E+03 0.  0.
    9000005    1    3    3    0    0  0.59566036911E+02 -0.14714007903E+02 -0.14793330111E+03  0.16015578778E+03  0.10000000000E+01 0.  0.
    9000005    1    3    3    0    0 -0.59566036911E+02  0.14714007903E+02 -0.22208299056E+03  0.23040501183E+03  0.10000000000E+01 0.  0.
<mgrwt>
<rscale>  0 0.12500273E+03</rscale>
<asrwt>0</asrwt>
<pdfrwt beam="1">  1        4 0.15803471E-02 0.12500273E+03</pdfrwt>
<pdfrwt beam="2">  1       -4 0.58505919E-01 0.12500273E+03</pdfrwt>
<totfact> 0.65477365E+03</totfact>
</mgrwt>
</event>
<event>
 5    1  0.3276024E-002  0.1249935E+03  0.7818608E-02  0.1235079E+00
          4   -1    0    0  501    0  0.00000000000E+00  0.00000000000E+00  0.39336114573E+03  0.39336319588E+03  0.12700000000E+01 0.  1.
         -4   -1    0    0    0  501 -0.00000000000E+00 -0.00000000000E+00 -0.98867118765E+01  0.99679472174E+01  0.12700000000E+01 0.  1.
         25    2    1    2    0    0  0.00000000000E+00  0.00000000000E+00  0.38347443385E+03  0.40333114309E+03  0.12499347811E+03 0.  0.
    9000005    1    3    3    0    0  0.81345304172E+01 -0.53355084953E+00  0.39165378671E+03  0.39173989317E+03  0.10000000000E+01 0.  0.
    9000005    1    3    3    0    0 -0.81345304172E+01  0.53355084953E+00 -0.81793528534E+01  0.11591249920E+02  0.10000000000E+01 0.  0.
<mgrwt>
<rscale>  0 0.12499348E+03</rscale>
<asrwt>0</asrwt>
<pdfrwt beam="1">  1        4 0.60523497E-01 0.12499348E+03</pdfrwt>
<pdfrwt beam="2">  1       -4 0.15274394E-02 0.12499348E+03</pdfrwt>
<totfact> 0.64239342E+03</totfact>
</mgrwt>
</event>
<event>
 5    1  0.3276024E-002  0.1250000E+03  0.7818608E-02  0.1235069E+00
          4   -1    0    0  501    0  0.00000000000E+00  0.00000000000E+00  0.27701743005E+02  0.27730839611E+02  0.12700000000E+01 0. -1.
         -4   -1    0    0    0  501 -0.00000000000E+00 -0.00000000000E+00 -0.14090507768E+03  0.14091080092E+03  0.12700000000E+01 0. -1.
         25    2    1    2    0    0  0.00000000000E+00  0.00000000000E+00 -0.11320333468E+03  0.16864164054E+03  0.12500003176E+03 0.  0.
    9000005    1    3    3    0    0  0.56372751853E+02  0.61679987320E+01 -0.92023035474E+02  0.10809796676E+03  0.10000000000E+01 0.  0.
    9000005    1    3    3    0    0 -0.56372751853E+02 -0.61679987320E+01 -0.21180299205E+02  0.60543673776E+02  0.10000000000E+01 0.  0.
<mgrwt>
<rscale>  0 0.12500003E+03</rscale>
<asrwt>0</asrwt>
<pdfrwt beam="1">  1        4 0.42644851E-02 0.12500003E+03</pdfrwt>
<pdfrwt beam="2">  1       -4 0.21680382E-01 0.12500003E+03</pdfrwt>
<totfact> 0.95702066E+03</totfact>
</mgrwt>
</event>
<event>
 5    1  0.3276024E-002  0.1250003E+03  0.7818608E-02  0.1235069E+00
          4   -1    0    0  501    0  0.00000000000E+00  0.00000000000E+00  0.31071321182E+03  0.31071580729E+03  0.12700000000E+01 0. -1.
         -4   -1    0    0    0  501 -0.00000000000E+00 -0.00000000000E+00 -0.12537221337E+02  0.12601381625E+02  0.12700000000E+01 0. -1.
         25    2    1    2    0    0  0.00000000000E+00  0.00000000000E+00  0.29817599048E+03  0.32331718891E+03  0.12500033339E+03 0.  0.
    9000005    1    3    3    0    0  0.51672927324E+02 -0.24921354304E+02  0.21318520474E+03  0.22077159428E+03  0.10000000000E+01 0.  0.
    9000005    1    3    3    0    0 -0.51672927324E+02  0.24921354304E+02  0.84990785737E+02  0.10254559463E+03  0.10000000000E+01 0.  0.
<mgrwt>
<rscale>  0 0.12500033E+03</rscale>
<asrwt>0</asrwt>
<pdfrwt beam="1">  1        4 0.47807170E-01 0.12500033E+03</pdfrwt>
<pdfrwt beam="2">  1       -4 0.19339383E-02 0.12500033E+03</pdfrwt>
<totfact> 0.72762778E+03</totfact>
</mgrwt>
</event>
<event>
 5    1  0.3276024E-002  0.1249987E+03  0.7818608E-02  0.1235071E+00
         -4   -1    0    0    0  501 -0.00000000000E+00  0.00000000000E+00  0.75355081355E+03  0.75355188375E+03  0.12700000000E+01 0. -1.
          4   -1    0    0  501    0  0.00000000000E+00 -0.00000000000E+00 -0.51048063982E+01  0.52604133262E+01  0.12700000000E+01 0. -1.
         25    2    1    2    0    0  0.00000000000E+00  0.00000000000E+00  0.74844600715E+03  0.75881229708E+03  0.12499870628E+03 0.  0.
    9000005    1    3    3    0    0  0.27523942948E+02  0.54719044339E+02  0.29902938169E+03  0.30523976210E+03  0.10000000000E+01 0.  0.
    9000005    1    3    3    0    0 -0.27523942948E+02 -0.54719044339E+02  0.44941662546E+03  0.45357253498E+03  0.10000000000E+01 0.  0.
<mgrwt>
<rscale>  0 0.12499871E+03</rscale>
<asrwt>0</asrwt>
<pdfrwt beam="2">  1        4 0.79740739E-03 0.12499871E+03</pdfrwt>
<pdfrwt beam="1">  1       -4 0.11594288E+00 0.12499871E+03</pdfrwt>
<totfact> 0.40157307E+03</totfact>
</mgrwt>
</event>
<event>
 4    1  0.3276024E-002  0.1252619E+03  0.7818608E-02  0.1234661E+00
          4   -1    0    0  501    0  0.00000000000E+00  0.00000000000E+00  0.87810208728E+02  0.87819392259E+02  0.12700000000E+01 0.  1.
         -4   -1    0    0    0  501 -0.00000000000E+00 -0.00000000000E+00 -0.44651171817E+02  0.44669229282E+02  0.12700000000E+01 0.  1.
    9000005    1    1    2    0    0 -0.16223236791E+02 -0.42014550094E+02 -0.24441896765E+02  0.51252533099E+02  0.10000000000E+01 0.  0.
    9000005    1    1    2    0    0  0.16223236791E+02  0.42014550094E+02  0.67600933675E+02  0.81236088442E+02  0.10000000000E+01 0.  0.
<mgrwt>
<rscale>  0 0.12526186E+03</rscale>
<asrwt>0</asrwt>
<pdfrwt beam="1">  1        4 0.13511358E-01 0.12526186E+03</pdfrwt>
<pdfrwt beam="2">  1       -4 0.68715065E-02 0.12526186E+03</pdfrwt>
<totfact> 0.10230726E+04</totfact>
</mgrwt>
</event>
<event>
 5    1  0.3276024E-002  0.1249994E+03  0.7818608E-02  0.1235070E+00
          4   -1    0    0  501    0  0.00000000000E+00  0.00000000000E+00  0.73012887900E+01  0.74109188361E+01  0.12700000000E+01 0.  1.
         -4   -1    0    0    0  501 -0.00000000000E+00 -0.00000000000E+00 -0.53090597786E+03  0.53090749686E+03  0.12700000000E+01 0.  1.
         25    2    1    2    0    0  0.00000000000E+00  0.00000000000E+00 -0.52360468907E+03  0.53831841570E+03  0.12499938507E+03 0.  0.
    9000005    1    3    3    0    0 -0.21770809218E+02 -0.57252712447E+02 -0.31513608770E+03  0.32103519276E+03  0.10000000000E+01 0.  0.
    9000005    1    3    3    0    0  0.21770809218E+02  0.57252712447E+02 -0.20846860136E+03  0.21728322294E+03  0.10000000000E+01 0.  0.
<mgrwt>
<rscale>  0 0.12499939E+03</rscale>
<asrwt>0</asrwt>
<pdfrwt beam="1">  1        4 0.11318255E-02 0.12499939E+03</pdfrwt>
<pdfrwt beam="2">  1       -4 0.81686363E-01 0.12499939E+03</pdfrwt>
<totfact> 0.53009984E+03</totfact>
</mgrwt>
</event>
<event>
 5    1  0.3276024E-002  0.1250001E+03  0.7818608E-02  0.1235069E+00
         -4   -1    0    0    0  501 -0.00000000000E+00  0.00000000000E+00  0.24035096804E+02  0.24068626434E+02  0.12700000000E+01 0. -1.
          4   -1    0    0  501    0  0.00000000000E+00 -0.00000000000E+00 -0.16237382183E+03  0.16237878838E+03  0.12700000000E+01 0. -1.
         25    2    1    2    0    0  0.00000000000E+00  0.00000000000E+00 -0.13833872502E+03  0.18644741481E+03  0.12500014260E+03 0.  0.
    9000005    1    3    3    0    0 -0.61597984566E+02  0.10431677800E+02 -0.66993852787E+02  0.91609540527E+02  0.10000000000E+01 0.  0.
    9000005    1    3    3    0    0  0.61597984566E+02 -0.10431677800E+02 -0.71344872238E+02  0.94837874285E+02  0.10000000000E+01 0.  0.
<mgrwt>
<rscale>  0 0.12500014E+03</rscale>
<asrwt>0</asrwt>
<pdfrwt beam="2">  1        4 0.24983549E-01 0.12500014E+03</pdfrwt>
<pdfrwt beam="1">  1       -4 0.37006685E-02 0.12500014E+03</pdfrwt>
<totfact> 0.92468858E+03</totfact>
</mgrwt>
</event>
<event>
 5    1  0.3276024E-002  0.1249982E+03  0.7818608E-02  0.1235072E+00
          4   -1    0    0  501    0  0.00000000000E+00  0.00000000000E+00  0.99743471420E+01  0.10054874485E+02  0.12700000000E+01 0. -1.
         -4   -1    0    0    0  501 -0.00000000000E+00 -0.00000000000E+00 -0.38996257875E+03  0.38996464676E+03  0.12700000000E+01 0. -1.
         25    2    1    2    0    0  0.00000000000E+00  0.00000000000E+00 -0.37998823161E+03  0.40001952125E+03  0.12499824486E+03 0.  0.
    9000005    1    3    3    0    0  0.56908286856E+02 -0.19546751164E+02 -0.24397342774E+03  0.25128601640E+03  0.10000000000E+01 0.  0.
    9000005    1    3    3    0    0 -0.56908286856E+02  0.19546751164E+02 -0.13601480387E+03  0.14873350485E+03  0.10000000000E+01 0.  0.
<mgrwt>
<rscale>  0 0.12499824E+03</rscale>
<asrwt>0</asrwt>
<pdfrwt beam="1">  1        4 0.15408687E-02 0.12499824E+03</pdfrwt>
<pdfrwt beam="2">  1       -4 0.60000585E-01 0.12499824E+03</pdfrwt>
<totfact> 0.64553397E+03</totfact>
</mgrwt>
</event>
<event>
 5    1  0.3276024E-002  0.1250023E+03  0.7818608E-02  0.1235066E+00
          4   -1    0    0  501    0  0.00000000000E+00  0.00000000000E+00  0.13373290123E+02  0.13433457810E+02  0.12700000000E+01 0. -1.
         -4   -1    0    0    0  501 -0.00000000000E+00 -0.00000000000E+00 -0.29138697640E+03  0.29138974402E+03  0.12700000000E+01 0. -1.
         25    2    1    2    0    0  0.00000000000E+00  0.00000000000E+00 -0.27801368628E+03  0.30482320183E+03  0.12500229843E+03 0.  0.
    9000005    1    3    3    0    0 -0.47174451127E+02  0.37407368219E+02 -0.17985903320E+03  0.18967079865E+03  0.10000000000E+01 0.  0.
    9000005    1    3    3    0    0  0.47174451127E+02 -0.37407368219E+02 -0.98154653080E+02  0.11515240318E+03  0.10000000000E+01 0.  0.
<mgrwt>
<rscale>  0 0.12500230E+03</rscale>
<asrwt>0</asrwt>
<pdfrwt beam="1">  1        4 0.20622706E-02 0.12500230E+03</pdfrwt>
<pdfrwt beam="2">  1       -4 0.44833602E-01 0.12500230E+03</pdfrwt>
<totfact> 0.74993958E+03</totfact>
</mgrwt>
</event>
<event>
 5    1  0.3276024E-002  0.1249985E+03  0.7818608E-02  0.1235072E+00
         -4   -1    0    0    0  501 -0.00000000000E+00  0.00000000000E+00  0.19598203790E+02  0.19639309860E+02  0.12700000000E+01 0. -1.
          4   -1    0    0  501    0  0.00000000000E+00 -0.00000000000E+00 -0.19905992824E+03  0.19906397949E+03  0.12700000000E+01 0. -1.
         25    2    1    2    0    0  0.00000000000E+00  0.00000000000E+00 -0.17946172445E+03  0.21870328935E+03  0.12499847291E+03 0.  0.
    9000005    1    3    3    0    0 -0.49592397173E+02  0.36979210787E+02 -0.74250022399E+02  0.96648506010E+02  0.10000000000E+01 0.  0.
    9000005    1    3    3    0    0  0.49592397173E+02 -0.36979210787E+02 -0.10521170205E+03  0.12205478334E+03  0.10000000000E+01 0.  0.
<mgrwt>
<rscale>  0 0.12499847E+03</rscale>
<asrwt>0</asrwt>
<pdfrwt beam="2">  1        4 0.30628077E-01 0.12499847E+03</pdfrwt>
<pdfrwt beam="1">  1       -4 0.30185821E-02 0.12499847E+03</pdfrwt>
<totfact> 0.87076925E+03</totfact>
</mgrwt>
</event>
<event>
 5    1  0.3276024E-002  0.1249991E+03  0.7818608E-02  0.1235071E+00
         -4   -1    0    0    0  501 -0.00000000000E+00  0.00000000000E+00  0.16914753182E+04  0.16914757950E+04  0.12700000000E+01 0. -1.
          4   -1    0    0  501    0  0.00000000000E+00 -0.00000000000E+00 -0.21342202598E+01  0.24835048052E+01  0.12700000000E+01 0. -1.
         25    2    1    2    0    0  0.00000000000E+00  0.00000000000E+00  0.16893410979E+04  0.16939592998E+04  0.12499905646E+03 0.  0.
    9000005    1    3    3    0    0  0.22059144291E+02  0.52309969103E+02  0.11986424151E+04  0.11999864908E+04  0.10000000000E+01 0.  0.
    9000005    1    3    3    0    0 -0.22059144291E+02 -0.52309969103E+02  0.49069868282E+03  0.49397280900E+03  0.10000000000E+01 0.  0.
<mgrwt>
<rscale>  0 0.12499906E+03</rscale>
<asrwt>0</asrwt>
<pdfrwt beam="2">  1        4 0.35524541E-03 0.12499906E+03</pdfrwt>
<pdfrwt beam="1">  1       -4 0.26025453E+00 0.12499906E+03</pdfrwt>
<totfact> 0.14409175E+03</totfact>
</mgrwt>
</event>
<event>
 5    1  0.3276024E-002  0.1249991E+03  0.7818608E-02  0.1235071E+00
         -4   -1    0    0    0  501 -0.00000000000E+00  0.00000000000E+00  0.15325842520E+03  0.15326368714E+03  0.12700000000E+01 0.  1.
          4   -1    0    0  501    0  0.00000000000E+00 -0.00000000000E+00 -0.25466122970E+02  0.25497770866E+02  0.12700000000E+01 0.  1.
         25    2    1    2    0    0  0.00000000000E+00  0.00000000000E+00  0.12779230223E+03  0.17876145800E+03  0.12499914543E+03 0.  0.
    9000005    1    3    3    0    0  0.21627350794E+02  0.50830533858E+02  0.10568133446E+03  0.11925195985E+03  0.10000000000E+01 0.  0.
    9000005    1    3    3    0    0 -0.21627350794E+02 -0.50830533858E+02  0.22110967770E+02  0.59509498153E+02  0.10000000000E+01 0.  0.
<mgrwt>
<rscale>  0 0.12499915E+03</rscale>
<asrwt>0</asrwt>
<pdfrwt beam="2">  1        4 0.39207044E-02 0.12499915E+03</pdfrwt>
<pdfrwt beam="1">  1       -4 0.23581058E-01 0.12499915E+03</pdfrwt>
<totfact> 0.93842219E+03</totfact>
</mgrwt>
</event>
<event>
 5    1  0.3276024E-002  0.1250170E+03  0.7818608E-02  0.1235043E+00
          4   -1    0    0  501    0  0.00000000000E+00  0.00000000000E+00  0.46910813472E+03  0.46910985383E+03  0.12700000000E+01 0. -1.
         -4   -1    0    0    0  501 -0.00000000000E+00 -0.00000000000E+00 -0.82790752847E+01  0.83759171181E+01  0.12700000000E+01 0. -1.
         25    2    1    2    0    0  0.00000000000E+00  0.00000000000E+00  0.46082905944E+03  0.47748577095E+03  0.12501695660E+03 0.  0.
    9000005    1    3    3    0    0 -0.24343792139E+02 -0.50960065346E+02  0.33266817787E+03  0.33742949640E+03  0.10000000000E+01 0.  0.
    9000005    1    3    3    0    0  0.24343792139E+02  0.50960065346E+02  0.12816088157E+03  0.14005627455E+03  0.10000000000E+01 0.  0.
<mgrwt>
<rscale>  0 0.12501696E+03</rscale>
<asrwt>0</asrwt>
<pdfrwt beam="1">  1        4 0.72178089E-01 0.12501696E+03</pdfrwt>
<pdfrwt beam="2">  1       -4 0.12812851E-02 0.12501696E+03</pdfrwt>
<totfact> 0.57632988E+03</totfact>
</mgrwt>
</event>
<event>
 5    1  0.3276024E-002  0.1249982E+03  0.7818608E-02  0.1235072E+00
          4   -1    0    0  501    0  0.00000000000E+00  0.00000000000E+00  0.26410671291E+02  0.26441188665E+02  0.12700000000E+01 0. -1.
         -4   -1    0    0    0  501 -0.00000000000E+00 -0.00000000000E+00 -0.14778141206E+03  0.14778686901E+03  0.12700000000E+01 0. -1.
         25    2    1    2    0    0  0.00000000000E+00  0.00000000000E+00 -0.12137074077E+03  0.17422805767E+03  0.12499823745E+03 0.  0.
    9000005    1    3    3    0    0  0.61612919117E+02  0.86787519860E+01 -0.68772946295E+02  0.92747995559E+02  0.10000000000E+01 0.  0.
    9000005    1    3    3    0    0 -0.61612919117E+02 -0.86787519860E+01 -0.52597794474E+02  0.81480062111E+02  0.10000000000E+01 0.  0.
<mgrwt>
<rscale>  0 0.12499824E+03</rscale>
<asrwt>0</asrwt>
<pdfrwt beam="1">  1        4 0.40659475E-02 0.12499824E+03</pdfrwt>
<pdfrwt beam="2">  1       -4 0.22738369E-01 0.12499824E+03</pdfrwt>
<totfact> 0.94670154E+03</totfact>
</mgrwt>
</event>
<event>
 5    1  0.3276024E-002  0.1250000E+03  0.7818608E-02  0.1235069E+00
         -4   -1    0    0    0  501 -0.00000000000E+00  0.00000000000E+00  0.63842329544E+01  0.65093264180E+01  0.12700000000E+01 0. -1.
          4   -1    0    0  501    0  0.00000000000E+00 -0.00000000000E+00 -0.60579678361E+03  0.60579811483E+03  0.12700000000E+01 0. -1.
         25    2    1    2    0    0  0.00000000000E+00  0.00000000000E+00 -0.59941255066E+03  0.61230744125E+03  0.12499998690E+03 0.  0.
    9000005    1    3    3    0    0  0.31660102824E+02 -0.33653590426E+02 -0.93602562141E+02  0.10439044927E+03  0.10000000000E+01 0.  0.
    9000005    1    3    3    0    0 -0.31660102824E+02  0.33653590426E+02 -0.50580998852E+03  0.50791699198E+03  0.10000000000E+01 0.  0.
<mgrwt>
<rscale>  0 0.12499999E+03</rscale>
<asrwt>0</asrwt>
<pdfrwt beam="2">  1        4 0.93209186E-01 0.12499999E+03</pdfrwt>
<pdfrwt beam="1">  1       -4 0.99191514E-03 0.12499999E+03</pdfrwt>
<totfact> 0.48099863E+03</totfact>
</mgrwt>
</event>
<event>
 5    1  0.3276024E-002  0.1249984E+03  0.7818608E-02  0.1235072E+00
          4   -1    0    0  501    0  0.00000000000E+00  0.00000000000E+00  0.23703318834E+02  0.23737317114E+02  0.12700000000E+01 0. -1.
         -4   -1    0    0    0  501 -0.00000000000E+00 -0.00000000000E+00 -0.16463881040E+03  0.16464370862E+03  0.12700000000E+01 0. -1.
         25    2    1    2    0    0  0.00000000000E+00  0.00000000000E+00 -0.14093549156E+03  0.18838102574E+03  0.12499839229E+03 0.  0.
    9000005    1    3    3    0    0 -0.31048573777E+02  0.37098938511E+02 -0.13008373463E+03  0.13879165388E+03  0.10000000000E+01 0.  0.
    9000005    1    3    3    0    0  0.31048573777E+02 -0.37098938511E+02 -0.10851756933E+02  0.49589371853E+02  0.10000000000E+01 0.  0.
<mgrwt>
<rscale>  0 0.12499839E+03</rscale>
<asrwt>0</asrwt>
<pdfrwt beam="1">  1        4 0.36496566E-02 0.12499839E+03</pdfrwt>
<pdfrwt beam="2">  1       -4 0.25332039E-01 0.12499839E+03</pdfrwt>
<totfact> 0.92133095E+03</totfact>
</mgrwt>
</event>
<event>
 5    1  0.3276024E-002  0.1250112E+03  0.7818608E-02  0.1235052E+00
         -4   -1    0    0    0  501 -0.00000000000E+00  0.00000000000E+00  0.24033390976E+02  0.24066922982E+02  0.12700000000E+01 0.  1.
          4   -1    0    0  501    0  0.00000000000E+00 -0.00000000000E+00 -0.16241418781E+03  0.16241915312E+03  0.12700000000E+01 0.  1.
         25    2    1    2    0    0  0.00000000000E+00  0.00000000000E+00 -0.13838079683E+03  0.18648607610E+03  0.12501124609E+03 0.  0.
    9000005    1    3    3    0    0  0.57814477393E+02 -0.15743056731E+02 -0.42689379196E+02  0.73578126692E+02  0.10000000000E+01 0.  0.
    9000005    1    3    3    0    0 -0.57814477393E+02  0.15743056731E+02 -0.95691417636E+02  0.11290794941E+03  0.10000000000E+01 0.  0.
<mgrwt>
<rscale>  0 0.12501125E+03</rscale>
<asrwt>0</asrwt>
<pdfrwt beam="2">  1        4 0.24989759E-01 0.12501125E+03</pdfrwt>
<pdfrwt beam="1">  1       -4 0.37004062E-02 0.12501125E+03</pdfrwt>
<totfact> 0.92439050E+03</totfact>
</mgrwt>
</event>
<event>
 5    1  0.3276024E-002  0.1249990E+03  0.7818608E-02  0.1235071E+00
         -4   -1    0    0    0  501 -0.00000000000E+00  0.00000000000E+00  0.26271336293E+03  0.26271643261E+03  0.12700000000E+01 0.  1.
          4   -1    0    0  501    0  0.00000000000E+00 -0.00000000000E+00 -0.14838337370E+02  0.14892587281E+02  0.12700000000E+01 0.  1.
         25    2    1    2    0    0  0.00000000000E+00  0.00000000000E+00  0.24787502556E+03  0.27760901989E+03  0.12499895850E+03 0.  0.
    9000005    1    3    3    0    0  0.93707086214E+00 -0.28699918384E+02  0.24720437716E+03  0.24886857476E+03  0.10000000000E+01 0.  0.
    9000005    1    3    3    0    0 -0.93707086214E+00  0.28699918384E+02  0.67064840434E+00  0.28740445131E+02  0.10000000000E+01 0.  0.
<mgrwt>
<rscale>  0 0.12499896E+03</rscale>
<asrwt>0</asrwt>
<pdfrwt beam="2">  1        4 0.22872306E-02 0.12499896E+03</pdfrwt>
<pdfrwt beam="1">  1       -4 0.40421845E-01 0.12499896E+03</pdfrwt>
<totfact> 0.78498023E+03</totfact>
</mgrwt>
</event>
<event>
 5    1  0.3276024E-002  0.1250096E+03  0.7818608E-02  0.1235054E+00
         -4   -1    0    0    0  501 -0.00000000000E+00  0.00000000000E+00  0.45717678573E+02  0.45735314956E+02  0.12700000000E+01 0.  1.
          4   -1    0    0  501    0  0.00000000000E+00 -0.00000000000E+00 -0.85417116713E+02  0.85426557507E+02  0.12700000000E+01 0.  1.
         25    2    1    2    0    0  0.00000000000E+00  0.00000000000E+00 -0.39699438139E+02  0.13116187246E+03  0.12500956523E+03 0.  0.
    9000005    1    3    3    0    0  0.67212355759E+01  0.53308727722E+02  0.13640654947E+02  0.55444232580E+02  0.10000000000E+01 0.  0.
    9000005    1    3    3    0    0 -0.67212355759E+01 -0.53308727722E+02 -0.53340093086E+02  0.75717639883E+02  0.10000000000E+01 0.  0.
<mgrwt>
<rscale>  0 0.12500957E+03</rscale>
<asrwt>0</asrwt>
<pdfrwt beam="2">  1        4 0.13143178E-01 0.12500957E+03</pdfrwt>
<pdfrwt beam="1">  1       -4 0.70355719E-02 0.12500957E+03</pdfrwt>
<totfact> 0.10317394E+04</totfact>
</mgrwt>
</event>
<event>
 5    1  0.3276024E-002  0.1249980E+03  0.7818608E-02  0.1235072E+00
          4   -1    0    0  501    0  0.00000000000E+00  0.00000000000E+00  0.54102534262E+03  0.54102683321E+03  0.12700000000E+01 0. -1.
         -4   -1    0    0    0  501 -0.00000000000E+00 -0.00000000000E+00 -0.71624903949E+01  0.72742125799E+01  0.12700000000E+01 0. -1.
         25    2    1    2    0    0  0.00000000000E+00  0.00000000000E+00  0.53386285223E+03  0.54830104579E+03  0.12499796731E+03 0.  0.
    9000005    1    3    3    0    0 -0.44842749385E+01  0.30643262746E+02  0.50501686774E+03  0.50596655519E+03  0.10000000000E+01 0.  0.
    9000005    1    3    3    0    0  0.44842749385E+01 -0.30643262746E+02  0.28845984489E+02  0.42334490603E+02  0.10000000000E+01 0.  0.
<mgrwt>
<rscale>  0 0.12499797E+03</rscale>
<asrwt>0</asrwt>
<pdfrwt beam="1">  1        4 0.83243397E-01 0.12499797E+03</pdfrwt>
<pdfrwt beam="2">  1       -4 0.11106300E-02 0.12499797E+03</pdfrwt>
<totfact> 0.52304877E+03</totfact>
</mgrwt>
</event>
<event>
 5    1  0.3276024E-002  0.1249970E+03  0.7818608E-02  0.1235074E+00
         -4   -1    0    0    0  501 -0.00000000000E+00  0.00000000000E+00  0.37942497429E+03  0.37942709974E+03  0.12700000000E+01 0.  1.
          4   -1    0    0  501    0  0.00000000000E+00 -0.00000000000E+00 -0.10253363118E+02  0.10331715987E+02  0.12700000000E+01 0.  1.
         25    2    1    2    0    0  0.00000000000E+00  0.00000000000E+00  0.36917161117E+03  0.38975881572E+03  0.12499702372E+03 0.  0.
    9000005    1    3    3    0    0  0.32561919417E+02 -0.18668335182E+02  0.34037696378E+03  0.34244161956E+03  0.10000000000E+01 0.  0.
    9000005    1    3    3    0    0 -0.32561919417E+02  0.18668335182E+02  0.28794647396E+02  0.47317196168E+02  0.10000000000E+01 0.  0.
<mgrwt>
<rscale>  0 0.12499702E+03</rscale>
<asrwt>0</asrwt>
<pdfrwt beam="2">  1        4 0.15836315E-02 0.12499702E+03</pdfrwt>
<pdfrwt beam="1">  1       -4 0.58379250E-01 0.12499702E+03</pdfrwt>
<totfact> 0.65565489E+03</totfact>
</mgrwt>
</event>
<event>
 5    1  0.3276024E-002  0.1250001E+03  0.7818608E-02  0.1235069E+00
          4   -1    0    0  501    0  0.00000000000E+00  0.00000000000E+00  0.28227209573E+02  0.28255765081E+02  0.12700000000E+01 0. -1.
         -4   -1    0    0    0  501 -0.00000000000E+00 -0.00000000000E+00 -0.13828484119E+03  0.13829067287E+03  0.12700000000E+01 0. -1.
         25    2    1    2    0    0  0.00000000000E+00  0.00000000000E+00 -0.11005763162E+03  0.16654643795E+03  0.12500013487E+03 0.  0.
    9000005    1    3    3    0    0 -0.34955512976E+02  0.44588279886E+02 -0.90160355951E+02  0.10648893077E+03  0.10000000000E+01 0.  0.
    9000005    1    3    3    0    0  0.34955512976E+02 -0.44588279886E+02 -0.19897275668E+02  0.60057507188E+02  0.10000000000E+01 0.  0.
<mgrwt>
<rscale>  0 0.12500013E+03</rscale>
<asrwt>0</asrwt>
<pdfrwt beam="1">  1        4 0.43452929E-02 0.12500013E+03</pdfrwt>
<pdfrwt beam="2">  1       -4 0.21277236E-01 0.12500013E+03</pdfrwt>
<totfact> 0.96095030E+03</totfact>
</mgrwt>
</event>
<event>
 5    1  0.3276024E-002  0.1249972E+03  0.7818608E-02  0.1235074E+00
         -4   -1    0    0    0  501 -0.00000000000E+00  0.00000000000E+00  0.20237684521E+02  0.20277494292E+02  0.12700000000E+01 0. -1.
          4   -1    0    0  501    0  0.00000000000E+00 -0.00000000000E+00 -0.19277854246E+03  0.19278272571E+03  0.12700000000E+01 0. -1.
         25    2    1    2    0    0  0.00000000000E+00  0.00000000000E+00 -0.17254085794E+03  0.21306022000E+03  0.12499723873E+03 0.  0.
    9000005    1    3    3    0    0  0.21489597288E+02 -0.46750049407E+02 -0.14671979899E+03  0.15548334099E+03  0.10000000000E+01 0.  0.
    9000005    1    3    3    0    0 -0.21489597288E+02  0.46750049407E+02 -0.25821058948E+02  0.57576879009E+02  0.10000000000E+01 0.  0.
<mgrwt>
<rscale>  0 0.12499724E+03</rscale>
<asrwt>0</asrwt>
<pdfrwt beam="2">  1        4 0.29661620E-01 0.12499724E+03</pdfrwt>
<pdfrwt beam="1">  1       -4 0.31168741E-02 0.12499724E+03</pdfrwt>
<totfact> 0.87983963E+03</totfact>
</mgrwt>
</event>
<event>
 5    1  0.3276024E-002  0.1249981E+03  0.7818608E-02  0.1235072E+00
         -4   -1    0    0    0  501 -0.00000000000E+00  0.00000000000E+00  0.78773399348E+02  0.78783636276E+02  0.12700000000E+01 0.  1.
          4   -1    0    0  501    0  0.00000000000E+00 -0.00000000000E+00 -0.49565338518E+02  0.49581606291E+02  0.12700000000E+01 0.  1.
         25    2    1    2    0    0  0.00000000000E+00  0.00000000000E+00  0.29208060830E+02  0.12836524257E+03  0.12499809871E+03 0.  0.
    9000005    1    3    3    0    0  0.43851915245E+02  0.43746856976E+02  0.23094339066E+02  0.66114495104E+02  0.10000000000E+01 0.  0.
    9000005    1    3    3    0    0 -0.43851915245E+02 -0.43746856976E+02  0.61137217648E+01  0.62250747463E+02  0.10000000000E+01 0.  0.
<mgrwt>
<rscale>  0 0.12499810E+03</rscale>
<asrwt>0</asrwt>
<pdfrwt beam="2">  1        4 0.76274755E-02 0.12499810E+03</pdfrwt>
<pdfrwt beam="1">  1       -4 0.12121023E-01 0.12499810E+03</pdfrwt>
<totfact> 0.10380053E+04</totfact>
</mgrwt>
</event>
<event>
 5    1  0.3276024E-002  0.1249973E+03  0.7818608E-02  0.1235073E+00
         -4   -1    0    0    0  501 -0.00000000000E+00  0.00000000000E+00  0.38059073174E+01  0.40122101776E+01  0.12700000000E+01 0. -1.
          4   -1    0    0  501    0  0.00000000000E+00 -0.00000000000E+00 -0.99903230904E+03  0.99903311627E+03  0.12700000000E+01 0. -1.
         25    2    1    2    0    0  0.00000000000E+00  0.00000000000E+00 -0.99522640172E+03  0.10030453264E+04  0.12499734487E+03 0.  0.
    9000005    1    3    3    0    0  0.50794669850E+02  0.23729630928E+02 -0.71910923806E+03  0.72129209765E+03  0.10000000000E+01 0.  0.
    9000005    1    3    3    0    0 -0.50794669850E+02 -0.23729630928E+02 -0.27611716366E+03  0.28175322880E+03  0.10000000000E+01 0.  0.
<mgrwt>
<rscale>  0 0.12499734E+03</rscale>
<asrwt>0</asrwt>
<pdfrwt beam="2">  1        4 0.15371301E+00 0.12499734E+03</pdfrwt>
<pdfrwt beam="1">  1       -4 0.60145654E-03 0.12499734E+03</pdfrwt>
<totfact> 0.30505952E+03</totfact>
</mgrwt>
</event>
<event>
 5    1  0.3276024E-002  0.1250010E+03  0.7818608E-02  0.1235068E+00
          4   -1    0    0  501    0  0.00000000000E+00  0.00000000000E+00  0.64671106221E+02  0.64683575039E+02  0.12700000000E+01 0. -1.
         -4   -1    0    0    0  501 -0.00000000000E+00 -0.00000000000E+00 -0.60377770198E+02  0.60391125458E+02  0.12700000000E+01 0. -1.
         25    2    1    2    0    0  0.00000000000E+00  0.00000000000E+00  0.42933360225E+01  0.12507470050E+03  0.12500099188E+03 0.  0.
    9000005    1    3    3    0    0 -0.51787251492E+02 -0.22769821795E+02  0.28712800162E+02  0.63449263943E+02  0.10000000000E+01 0.  0.
    9000005    1    3    3    0    0  0.51787251492E+02  0.22769821795E+02 -0.24419464140E+02  0.61625436555E+02  0.10000000000E+01 0.  0.
<mgrwt>
<rscale>  0 0.12500099E+03</rscale>
<asrwt>0</asrwt>
<pdfrwt beam="1">  1        4 0.99513874E-02 0.12500099E+03</pdfrwt>
<pdfrwt beam="2">  1       -4 0.92908743E-02 0.12500099E+03</pdfrwt>
<totfact> 0.10451006E+04</totfact>
</mgrwt>
</event>
<event>
 5    1  0.3276024E-002  0.1249996E+03  0.7818608E-02  0.1235070E+00
          4   -1    0    0  501    0  0.00000000000E+00  0.00000000000E+00  0.41430210000E+02  0.41449670694E+02  0.12700000000E+01 0.  1.
         -4   -1    0    0    0  501 -0.00000000000E+00 -0.00000000000E+00 -0.94238540584E+02  0.94247097735E+02  0.12700000000E+01 0.  1.
         25    2    1    2    0    0  0.00000000000E+00  0.00000000000E+00 -0.52808330584E+02  0.13569676843E+03  0.12499957273E+03 0.  0.
    9000005    1    3    3    0    0  0.13634950207E+02 -0.52226284249E+02  0.77825182067E+01  0.54544149304E+02  0.10000000000E+01 0.  0.
    9000005    1    3    3    0    0 -0.13634950207E+02  0.52226284249E+02 -0.60590848791E+02  0.81152619125E+02  0.10000000000E+01 0.  0.
<mgrwt>
<rscale>  0 0.12499957E+03</rscale>
<asrwt>0</asrwt>
<pdfrwt beam="1">  1        4 0.63760337E-02 0.12499957E+03</pdfrwt>
<pdfrwt beam="2">  1       -4 0.14500392E-01 0.12499957E+03</pdfrwt>
<totfact> 0.10223504E+04</totfact>
</mgrwt>
</event>
<event>
 5    1  0.3276024E-002  0.1249951E+03  0.7818608E-02  0.1235077E+00
          4   -1    0    0  501    0  0.00000000000E+00  0.00000000000E+00  0.27269770734E+03  0.27270066463E+03  0.12700000000E+01 0.  1.
         -4   -1    0    0    0  501 -0.00000000000E+00 -0.00000000000E+00 -0.14292156612E+02  0.14348471717E+02  0.12700000000E+01 0.  1.
         25    2    1    2    0    0  0.00000000000E+00  0.00000000000E+00  0.25840555073E+03  0.28704913635E+03  0.12499511202E+03 0.  0.
    9000005    1    3    3    0    0 -0.24392681378E+01  0.32244222540E+02  0.25200137810E+03  0.25406954655E+03  0.10000000000E+01 0.  0.
    9000005    1    3    3    0    0  0.24392681378E+01 -0.32244222540E+02  0.64041726252E+01  0.32979589798E+02  0.10000000000E+01 0.  0.
<mgrwt>
<rscale>  0 0.12499511E+03</rscale>
<asrwt>0</asrwt>
<pdfrwt beam="1">  1        4 0.41958055E-01 0.12499511E+03</pdfrwt>
<pdfrwt beam="2">  1       -4 0.22033526E-02 0.12499511E+03</pdfrwt>
<totfact> 0.77261017E+03</totfact>
</mgrwt>
</event>
<event>
 5    1  0.3276024E-002  0.1250019E+03  0.7818608E-02  0.1235066E+00
         -4   -1    0    0    0  501 -0.00000000000E+00  0.00000000000E+00  0.62759066555E+02  0.62771915176E+02  0.12700000000E+01 0.  1.
          4   -1    0    0  501    0  0.00000000000E+00 -0.00000000000E+00 -0.62218210045E+02  0.62231170334E+02  0.12700000000E+01 0.  1.
         25    2    1    2    0    0  0.00000000000E+00  0.00000000000E+00  0.54085651043E+00  0.12500308551E+03  0.12500191543E+03 0.  0.
    9000005    1    3    3    0    0 -0.47841091536E+02  0.75370851673E+01  0.39765000340E+02  0.62672425709E+02  0.10000000000E+01 0.  0.
    9000005    1    3    3    0    0  0.47841091536E+02 -0.75370851673E+01 -0.39224143830E+02  0.62330659802E+02  0.10000000000E+01 0.  0.
<mgrwt>
<rscale>  0 0.12500192E+03</rscale>
<asrwt>0</asrwt>
<pdfrwt beam="2">  1        4 0.95740176E-02 0.12500192E+03</pdfrwt>
<pdfrwt beam="1">  1       -4 0.96572263E-02 0.12500192E+03</pdfrwt>
<totfact> 0.10452343E+04</totfact>
</mgrwt>
</event>
<event>
 5    1  0.3276024E-002  0.1250000E+03  0.7818608E-02  0.1235069E+00
          4   -1    0    0  501    0  0.00000000000E+00  0.00000000000E+00  0.16360664730E+03  0.16361157643E+03  0.12700000000E+01 0. -1.
         -4   -1    0    0    0  501 -0.00000000000E+00 -0.00000000000E+00 -0.23853673457E+02  0.23887457742E+02  0.12700000000E+01 0. -1.
         25    2    1    2    0    0  0.00000000000E+00  0.00000000000E+00  0.13975297384E+03  0.18749903417E+03  0.12499997646E+03 0.  0.
    9000005    1    3    3    0    0 -0.34886678013E+01  0.45743329659E+02  0.62261357658E+01  0.46307534785E+02  0.10000000000E+01 0.  0.
    9000005    1    3    3    0    0  0.34886678013E+01 -0.45743329659E+02  0.13352683808E+03  0.14119149938E+03  0.10000000000E+01 0.  0.
<mgrwt>
<rscale>  0 0.12499998E+03</rscale>
<asrwt>0</asrwt>
<pdfrwt beam="1">  1        4 0.25173231E-01 0.12499998E+03</pdfrwt>
<pdfrwt beam="2">  1       -4 0.36727739E-02 0.12499998E+03</pdfrwt>
<totfact> 0.92284352E+03</totfact>
</mgrwt>
</event>
<event>
 5    1  0.3276024E-002  0.1249875E+03  0.7818608E-02  0.1235089E+00
         -4   -1    0    0    0  501 -0.00000000000E+00  0.00000000000E+00  0.48715558143E+03  0.48715723685E+03  0.12700000000E+01 0.  1.
          4   -1    0    0  501    0  0.00000000000E+00 -0.00000000000E+00 -0.79649045611E+01  0.80655194915E+01  0.12700000000E+01 0.  1.
         25    2    1    2    0    0  0.00000000000E+00  0.00000000000E+00  0.47919067687E+03  0.49522275634E+03  0.12498749379E+03 0.  0.
    9000005    1    3    3    0    0 -0.47334265979E+02  0.40202185607E+02  0.26696591627E+03  0.27409587540E+03  0.10000000000E+01 0.  0.
    9000005    1    3    3    0    0  0.47334265979E+02 -0.40202185607E+02  0.21222476060E+03  0.22112688094E+03  0.10000000000E+01 0.  0.
<mgrwt>
<rscale>  0 0.12498749E+03</rscale>
<asrwt>0</asrwt>
<pdfrwt beam="2">  1        4 0.12332371E-02 0.12498749E+03</pdfrwt>
<pdfrwt beam="1">  1       -4 0.74954866E-01 0.12498749E+03</pdfrwt>
<totfact> 0.56252411E+03</totfact>
</mgrwt>
</event>
<event>
 5    1  0.3276024E-002  0.1250023E+03  0.7818608E-02  0.1235066E+00
         -4   -1    0    0    0  501 -0.00000000000E+00  0.00000000000E+00  0.16544998142E+03  0.16545485563E+03  0.12700000000E+01 0.  1.
          4   -1    0    0  501    0  0.00000000000E+00 -0.00000000000E+00 -0.23588408104E+02  0.23622571767E+02  0.12700000000E+01 0.  1.
         25    2    1    2    0    0  0.00000000000E+00  0.00000000000E+00  0.14186157331E+03  0.18907742739E+03  0.12500227025E+03 0.  0.
    9000005    1    3    3    0    0  0.38795674344E+02  0.48942177864E+02  0.74296353008E+02  0.97063840807E+02  0.10000000000E+01 0.  0.
    9000005    1    3    3    0    0 -0.38795674344E+02 -0.48942177864E+02  0.67565220304E+02  0.92013586587E+02  0.10000000000E+01 0.  0.
<mgrwt>
<rscale>  0 0.12500227E+03</rscale>
<asrwt>0</asrwt>
<pdfrwt beam="2">  1        4 0.36319888E-02 0.12500227E+03</pdfrwt>
<pdfrwt beam="1">  1       -4 0.25456846E-01 0.12500227E+03</pdfrwt>
<totfact> 0.92003408E+03</totfact>
</mgrwt>
</event>
<event>
 5    1  0.3276024E-002  0.1249998E+03  0.7818608E-02  0.1235070E+00
         -4   -1    0    0    0  501 -0.00000000000E+00  0.00000000000E+00  0.50491185509E+02  0.50507155078E+02  0.12700000000E+01 0.  1.
          4   -1    0    0  501    0  0.00000000000E+00 -0.00000000000E+00 -0.77331349877E+02  0.77341777674E+02  0.12700000000E+01 0.  1.
         25    2    1    2    0    0  0.00000000000E+00  0.00000000000E+00 -0.26840164368E+02  0.12784893275E+03  0.12499982073E+03 0.  0.
    9000005    1    3    3    0    0  0.47949529029E+02  0.36910164659E+02  0.25473241224E+01  0.60572324121E+02  0.10000000000E+01 0.  0.
    9000005    1    3    3    0    0 -0.47949529029E+02 -0.36910164659E+02 -0.29387488490E+02  0.67276608631E+02  0.10000000000E+01 0.  0.
<mgrwt>
<rscale>  0 0.12499982E+03</rscale>
<asrwt>0</asrwt>
<pdfrwt beam="2">  1        4 0.11899161E-01 0.12499982E+03</pdfrwt>
<pdfrwt beam="1">  1       -4 0.77699052E-02 0.12499982E+03</pdfrwt>
<totfact> 0.10390793E+04</totfact>
</mgrwt>
</event>
<event>
 5    1  0.3276024E-002  0.1249986E+03  0.7818608E-02  0.1235071E+00
         -4   -1    0    0    0  501 -0.00000000000E+00  0.00000000000E+00  0.70734362816E+01  0.71865430375E+01  0.12700000000E+01 0. -1.
          4   -1    0    0  501    0  0.00000000000E+00 -0.00000000000E+00 -0.54773596789E+03  0.54773744022E+03  0.12700000000E+01 0. -1.
         25    2    1    2    0    0  0.00000000000E+00  0.00000000000E+00 -0.54066253161E+03  0.55492398326E+03  0.12499861644E+03 0.  0.
    9000005    1    3    3    0    0 -0.16765507385E+01  0.47506425337E+02 -0.90246817168E+02  0.10200568258E+03  0.10000000000E+01 0.  0.
    9000005    1    3    3    0    0  0.16765507385E+01 -0.47506425337E+02 -0.45041571444E+03  0.45291830068E+03  0.10000000000E+01 0.  0.
<mgrwt>
<rscale>  0 0.12499862E+03</rscale>
<asrwt>0</asrwt>
<pdfrwt beam="2">  1        4 0.84275853E-01 0.12499862E+03</pdfrwt>
<pdfrwt beam="1">  1       -4 0.10970352E-02 0.12499862E+03</pdfrwt>
<totfact> 0.51844029E+03</totfact>
</mgrwt>
</event>
<event>
 5    1  0.3276024E-002  0.1249963E+03  0.7818608E-02  0.1235075E+00
          4   -1    0    0  501    0  0.00000000000E+00  0.00000000000E+00  0.16047263750E+02  0.16097439978E+02  0.12700000000E+01 0. -1.
         -4   -1    0    0    0  501 -0.00000000000E+00 -0.00000000000E+00 -0.24297541941E+03  0.24297873845E+03  0.12700000000E+01 0. -1.
         25    2    1    2    0    0  0.00000000000E+00  0.00000000000E+00 -0.22692815566E+03  0.25907617843E+03  0.12499631353E+03 0.  0.
    9000005    1    3    3    0    0 -0.33548821731E+02  0.51991798278E+02 -0.13157464942E+03  0.14540137171E+03  0.10000000000E+01 0.  0.
    9000005    1    3    3    0    0  0.33548821731E+02 -0.51991798278E+02 -0.95353506249E+02  0.11367480672E+03  0.10000000000E+01 0.  0.
<mgrwt>
<rscale>  0 0.12499631E+03</rscale>
<asrwt>0</asrwt>
<pdfrwt beam="1">  1        4 0.24729250E-02 0.12499631E+03</pdfrwt>
<pdfrwt beam="2">  1       -4 0.37384946E-01 0.12499631E+03</pdfrwt>
<totfact> 0.81042533E+03</totfact>
</mgrwt>
</event>
<event>
 5    1  0.3276024E-002  0.1249947E+03  0.7818608E-02  0.1235078E+00
         -4   -1    0    0    0  501 -0.00000000000E+00  0.00000000000E+00  0.20371994386E+03  0.20372390244E+03  0.12700000000E+01 0.  1.
          4   -1    0    0  501    0  0.00000000000E+00 -0.00000000000E+00 -0.19147792394E+02  0.19189863302E+02  0.12700000000E+01 0.  1.
         25    2    1    2    0    0  0.00000000000E+00  0.00000000000E+00  0.18457215147E+03  0.22291376575E+03  0.12499467133E+03 0.  0.
    9000005    1    3    3    0    0  0.39550016934E+02 -0.38080245230E+02  0.39064381250E+02  0.67389426461E+02  0.10000000000E+01 0.  0.
    9000005    1    3    3    0    0 -0.39550016934E+02  0.38080245230E+02  0.14550777022E+03  0.15552433928E+03  0.10000000000E+01 0.  0.
<mgrwt>
<rscale>  0 0.12499467E+03</rscale>
<asrwt>0</asrwt>
<pdfrwt beam="2">  1        4 0.29493548E-02 0.12499467E+03</pdfrwt>
<pdfrwt beam="1">  1       -4 0.31345072E-01 0.12499467E+03</pdfrwt>
<totfact> 0.86419655E+03</totfact>
</mgrwt>
</event>
<event>
 5    1  0.3276024E-002  0.1250020E+03  0.7818608E-02  0.1235066E+00
         -4   -1    0    0    0  501 -0.00000000000E+00  0.00000000000E+00  0.11349002738E+03  0.11349713306E+03  0.12700000000E+01 0. -1.
          4   -1    0    0  501    0  0.00000000000E+00 -0.00000000000E+00 -0.34400512086E+02  0.34423947068E+02  0.12700000000E+01 0. -1.
         25    2    1    2    0    0  0.00000000000E+00  0.00000000000E+00  0.79089515290E+02  0.14792108013E+03  0.12500197806E+03 0.  0.
    9000005    1    3    3    0    0  0.91993690467E+01 -0.51397201457E+02 -0.10886754047E+01  0.52234910956E+02  0.10000000000E+01 0.  0.
    9000005    1    3    3    0    0 -0.91993690467E+01  0.51397201457E+02  0.80178190694E+02  0.95686169176E+02  0.10000000000E+01 0.  0.
<mgrwt>
<rscale>  0 0.12500198E+03</rscale>
<asrwt>0</asrwt>
<pdfrwt beam="2">  1        4 0.52947357E-02 0.12500198E+03</pdfrwt>
<pdfrwt beam="1">  1       -4 0.17462354E-01 0.12500198E+03</pdfrwt>
<totfact> 0.99715284E+03</totfact>
</mgrwt>
</event>
<event>
 5    1  0.3276024E-002  0.1249986E+03  0.7818608E-02  0.1235071E+00
          4   -1    0    0  501    0  0.00000000000E+00  0.00000000000E+00  0.66438203188E+02  0.66450340427E+02  0.12700000000E+01 0. -1.
         -4   -1    0    0    0  501 -0.00000000000E+00 -0.00000000000E+00 -0.58769554067E+02  0.58783274707E+02  0.12700000000E+01 0. -1.
         25    2    1    2    0    0  0.00000000000E+00  0.00000000000E+00  0.76686491207E+01  0.12523361513E+03  0.12499860071E+03 0.  0.
    9000005    1    3    3    0    0 -0.33916481099E+02 -0.39661198076E+02  0.38276629669E+02  0.64725873511E+02  0.10000000000E+01 0.  0.
    9000005    1    3    3    0    0  0.33916481099E+02  0.39661198076E+02 -0.30607980548E+02  0.60507741622E+02  0.10000000000E+01 0.  0.
<mgrwt>
<rscale>  0 0.12499860E+03</rscale>
<asrwt>0</asrwt>
<pdfrwt beam="1">  1        4 0.10223251E-01 0.12499860E+03</pdfrwt>
<pdfrwt beam="2">  1       -4 0.90434589E-02 0.12499860E+03</pdfrwt>
<totfact> 0.10448121E+04</totfact>
</mgrwt>
</event>
<event>
 5    1  0.3276024E-002  0.1250029E+03  0.7818608E-02  0.1235065E+00
          4   -1    0    0  501    0  0.00000000000E+00  0.00000000000E+00  0.20960590128E+03  0.20960974871E+03  0.12700000000E+01 0. -1.
         -4   -1    0    0    0  501 -0.00000000000E+00 -0.00000000000E+00 -0.18611380216E+02  0.18654660907E+02  0.12700000000E+01 0. -1.
         25    2    1    2    0    0  0.00000000000E+00  0.00000000000E+00  0.19099452107E+03  0.22826440961E+03  0.12500293444E+03 0.  0.
    9000005    1    3    3    0    0  0.46559180440E+02  0.31039753502E+02  0.44687478317E+02  0.71618393580E+02  0.10000000000E+01 0.  0.
    9000005    1    3    3    0    0 -0.46559180440E+02 -0.31039753502E+02  0.14630704275E+03  0.15664601603E+03  0.10000000000E+01 0.  0.
<mgrwt>
<rscale>  0 0.12500293E+03</rscale>
<asrwt>0</asrwt>
<pdfrwt beam="1">  1        4 0.32250686E-01 0.12500293E+03</pdfrwt>
<pdfrwt beam="2">  1       -4 0.28669146E-02 0.12500293E+03</pdfrwt>
<totfact> 0.85571209E+03</totfact>
</mgrwt>
</event>
<event>
 5    1  0.3276024E-002  0.1249995E+03  0.7818608E-02  0.1235070E+00
          4   -1    0    0  501    0  0.00000000000E+00  0.00000000000E+00  0.69434201820E+02  0.69445815442E+02  0.12700000000E+01 0.  1.
         -4   -1    0    0    0  501 -0.00000000000E+00 -0.00000000000E+00 -0.56234370834E+02  0.56248709880E+02  0.12700000000E+01 0.  1.
         25    2    1    2    0    0  0.00000000000E+00  0.00000000000E+00  0.13199830986E+02  0.12569452532E+03  0.12499951263E+03 0.  0.
    9000005    1    3    3    0    0  0.17297791282E+02  0.36738224016E+02 -0.41164813299E+02  0.57831241911E+02  0.10000000000E+01 0.  0.
    9000005    1    3    3    0    0 -0.17297791282E+02 -0.36738224016E+02  0.54364644285E+02  0.67863283411E+02  0.10000000000E+01 0.  0.
<mgrwt>
<rscale>  0 0.12499951E+03</rscale>
<asrwt>0</asrwt>
<pdfrwt beam="1">  1        4 0.10684181E-01 0.12499951E+03</pdfrwt>
<pdfrwt beam="2">  1       -4 0.86534380E-02 0.12499951E+03</pdfrwt>
<totfact> 0.10437780E+04</totfact>
</mgrwt>
</event>
<event>
 5    1  0.3276024E-002  0.1250067E+03  0.7818608E-02  0.1235059E+00
          4   -1    0    0  501    0  0.00000000000E+00  0.00000000000E+00  0.46321080991E+03  0.46321255091E+03  0.12700000000E+01 0. -1.
         -4   -1    0    0    0  501 -0.00000000000E+00 -0.00000000000E+00 -0.83843151941E+01  0.84799552637E+01  0.12700000000E+01 0. -1.
         25    2    1    2    0    0  0.00000000000E+00  0.00000000000E+00  0.45482649472E+03  0.47169250617E+03  0.12500672015E+03 0.  0.
    9000005    1    3    3    0    0 -0.23242496847E+02  0.40594735524E+02  0.71034763183E+02  0.85059295743E+02  0.10000000000E+01 0.  0.
    9000005    1    3    3    0    0  0.23242496847E+02 -0.40594735524E+02  0.38379173154E+03  0.38663321043E+03  0.10000000000E+01 0.  0.
<mgrwt>
<rscale>  0 0.12500672E+03</rscale>
<asrwt>0</asrwt>
<pdfrwt beam="1">  1        4 0.71270712E-01 0.12500672E+03</pdfrwt>
<pdfrwt beam="2">  1       -4 0.12973851E-02 0.12500672E+03</pdfrwt>
<totfact> 0.58120969E+03</totfact>
</mgrwt>
</event>
<event>
 5    1  0.3276024E-002  0.1249935E+03  0.7818608E-02  0.1235079E+00
         -4   -1    0    0    0  501 -0.00000000000E+00  0.00000000000E+00  0.18996926009E+04  0.18996930254E+04  0.12700000000E+01 0. -1.
          4   -1    0    0  501    0  0.00000000000E+00 -0.00000000000E+00 -0.18594580059E+01  0.22517735401E+01  0.12700000000E+01 0. -1.
         25    2    1    2    0    0  0.00000000000E+00  0.00000000000E+00  0.18978331429E+04  0.19019447989E+04  0.12499351987E+03 0.  0.
    9000005    1    3    3    0    0 -0.32269293142E+01  0.61649372801E+02  0.80155603894E+03  0.80393043344E+03  0.10000000000E+01 0.  0.
    9000005    1    3    3    0    0  0.32269293142E+01 -0.61649372801E+02  0.10962771039E+04  0.10980143655E+04  0.10000000000E+01 0.  0.
<mgrwt>
<rscale>  0 0.12499352E+03</rscale>
<asrwt>0</asrwt>
<pdfrwt beam="2">  1        4 0.31628213E-03 0.12499352E+03</pdfrwt>
<pdfrwt beam="1">  1       -4 0.29228979E+00 0.12499352E+03</pdfrwt>
<totfact> 0.11197543E+03</totfact>
</mgrwt>
</event>
<event>
 5    1  0.3276024E-002  0.1249997E+03  0.7818608E-02  0.1235070E+00
          4   -1    0    0  501    0  0.00000000000E+00  0.00000000000E+00  0.38849350145E+03  0.38849557729E+03  0.12700000000E+01 0.  1.
         -4   -1    0    0    0  501 -0.00000000000E+00 -0.00000000000E+00 -0.10012599980E+02  0.10092822120E+02  0.12700000000E+01 0.  1.
         25    2    1    2    0    0  0.00000000000E+00  0.00000000000E+00  0.37848090147E+03  0.39858839941E+03  0.12499967745E+03 0.  0.
    9000005    1    3    3    0    0 -0.38370286961E+02  0.14642945362E+02  0.33943318081E+03  0.34191019143E+03  0.10000000000E+01 0.  0.
    9000005    1    3    3    0    0  0.38370286961E+02 -0.14642945362E+02  0.39047720665E+02  0.56678207977E+02  0.10000000000E+01 0.  0.
<mgrwt>
<rscale>  0 0.12499968E+03</rscale>
<asrwt>0</asrwt>
<pdfrwt beam="1">  1        4 0.59774564E-01 0.12499968E+03</pdfrwt>
<pdfrwt beam="2">  1       -4 0.15467305E-02 0.12499968E+03</pdfrwt>
<totfact> 0.64690769E+03</totfact>
</mgrwt>
</event>
<event>
 5    1  0.3276024E-002  0.1250030E+03  0.7818608E-02  0.1235065E+00
          4   -1    0    0  501    0  0.00000000000E+00  0.00000000000E+00  0.10451275271E+04  0.10451282988E+04  0.12700000000E+01 0. -1.
         -4   -1    0    0    0  501 -0.00000000000E+00 -0.00000000000E+00 -0.36290897790E+01  0.38448917571E+01  0.12700000000E+01 0. -1.
         25    2    1    2    0    0  0.00000000000E+00  0.00000000000E+00  0.10414984373E+04  0.10489731905E+04  0.12500303762E+03 0.  0.
    9000005    1    3    3    0    0  0.26639709853E+02  0.53703849386E+02  0.37260457986E+03  0.37739760268E+03  0.10000000000E+01 0.  0.
    9000005    1    3    3    0    0 -0.26639709853E+02 -0.53703849386E+02  0.66889385749E+03  0.67157558783E+03  0.10000000000E+01 0.  0.
<mgrwt>
<rscale>  0 0.12500304E+03</rscale>
<asrwt>0</asrwt>
<pdfrwt beam="1">  1        4 0.16080531E+00 0.12500304E+03</pdfrwt>
<pdfrwt beam="2">  1       -4 0.57498173E-03 0.12500304E+03</pdfrwt>
<totfact> 0.29024967E+03</totfact>
</mgrwt>
</event>
<event>
 5    1  0.3276024E-002  0.1250252E+03  0.7818608E-02  0.1235030E+00
          4   -1    0    0  501    0  0.00000000000E+00  0.00000000000E+00  0.12869682297E+03  0.12870308910E+03  0.12700000000E+01 0. -1.
         -4   -1    0    0    0  501 -0.00000000000E+00 -0.00000000000E+00 -0.30344295202E+02  0.30370860233E+02  0.12700000000E+01 0. -1.
         25    2    1    2    0    0  0.00000000000E+00  0.00000000000E+00  0.98352527771E+02  0.15907394933E+03  0.12502520401E+03 0.  0.
    9000005    1    3    3    0    0  0.53724704240E+01  0.16966884583E+02 -0.27058659108E+02  0.32402309233E+02  0.10000000000E+01 0.  0.
    9000005    1    3    3    0    0 -0.53724704240E+01 -0.16966884583E+02  0.12541118688E+03  0.12667164010E+03  0.10000000000E+01 0.  0.
<mgrwt>
<rscale>  0 0.12502520E+03</rscale>
<asrwt>0</asrwt>
<pdfrwt beam="1">  1        4 0.19802037E-01 0.12502520E+03</pdfrwt>
<pdfrwt beam="2">  1       -4 0.46708785E-02 0.12502520E+03</pdfrwt>
<totfact> 0.97466384E+03</totfact>
</mgrwt>
</event>
<event>
 5    1  0.3276024E-002  0.1250155E+03  0.7818608E-02  0.1235045E+00
         -4   -1    0    0    0  501 -0.00000000000E+00  0.00000000000E+00  0.17606101934E+03  0.17606559980E+03  0.12700000000E+01 0.  1.
          4   -1    0    0  501    0  0.00000000000E+00 -0.00000000000E+00 -0.22169387113E+02  0.22205734056E+02  0.12700000000E+01 0.  1.
         25    2    1    2    0    0  0.00000000000E+00  0.00000000000E+00  0.15389163223E+03  0.19827133385E+03  0.12501554846E+03 0.  0.
    9000005    1    3    3    0    0 -0.13071036644E+02  0.20202376560E+02  0.16842821804E+03  0.17014127263E+03  0.10000000000E+01 0.  0.
    9000005    1    3    3    0    0  0.13071036644E+02 -0.20202376560E+02 -0.14536585813E+02  0.28130061228E+02  0.10000000000E+01 0.  0.
<mgrwt>
<rscale>  0 0.12501555E+03</rscale>
<asrwt>0</asrwt>
<pdfrwt beam="2">  1        4 0.34138231E-02 0.12501555E+03</pdfrwt>
<pdfrwt beam="1">  1       -4 0.27089460E-01 0.12501555E+03</pdfrwt>
<totfact> 0.90396250E+03</totfact>
</mgrwt>
</event>
<event>
 5    1  0.3276024E-002  0.1250034E+03  0.7818608E-02  0.1235064E+00
          4   -1    0    0  501    0  0.00000000000E+00  0.00000000000E+00  0.62267052957E+02  0.62280003083E+02  0.12700000000E+01 0. -1.
         -4   -1    0    0    0  501 -0.00000000000E+00 -0.00000000000E+00 -0.62711283957E+02  0.62724142366E+02  0.12700000000E+01 0. -1.
         25    2    1    2    0    0  0.00000000000E+00  0.00000000000E+00 -0.44423099990E+00  0.12500414545E+03  0.12500335611E+03 0.  0.
    9000005    1    3    3    0    0 -0.40389035684E+02  0.80862947011E+01  0.46776025839E+02  0.62335054013E+02  0.10000000000E+01 0.  0.
    9000005    1    3    3    0    0  0.40389035684E+02 -0.80862947011E+01 -0.47220256839E+02  0.62669091436E+02  0.10000000000E+01 0.  0.
<mgrwt>
<rscale>  0 0.12500336E+03</rscale>
<asrwt>0</asrwt>
<pdfrwt beam="1">  1        4 0.95815319E-02 0.12500336E+03</pdfrwt>
<pdfrwt beam="2">  1       -4 0.96498751E-02 0.12500336E+03</pdfrwt>
<totfact> 0.10451980E+04</totfact>
</mgrwt>
</event>
<event>
 5    1  0.3276024E-002  0.1250004E+03  0.7818608E-02  0.1235069E+00
          4   -1    0    0  501    0  0.00000000000E+00  0.00000000000E+00  0.35955703406E+02  0.35978125402E+02  0.12700000000E+01 0. -1.
         -4   -1    0    0    0  501 -0.00000000000E+00 -0.00000000000E+00 -0.10858131578E+03  0.10858874268E+03  0.12700000000E+01 0. -1.
         25    2    1    2    0    0  0.00000000000E+00  0.00000000000E+00 -0.72625612374E+02  0.14456686808E+03  0.12500039909E+03 0.  0.
    9000005    1    3    3    0    0  0.27123045913E+02  0.51705252862E+02 -0.62074709228E+02  0.85225361946E+02  0.10000000000E+01 0.  0.
    9000005    1    3    3    0    0 -0.27123045913E+02 -0.51705252862E+02 -0.10550903146E+02  0.59341506134E+02  0.10000000000E+01 0.  0.
<mgrwt>
<rscale>  0 0.12500040E+03</rscale>
<asrwt>0</asrwt>
<pdfrwt beam="1">  1        4 0.55339428E-02 0.12500040E+03</pdfrwt>
<pdfrwt beam="2">  1       -4 0.16707114E-01 0.12500040E+03</pdfrwt>
<totfact> 0.10039706E+04</totfact>
</mgrwt>
</event>
<event>
 4    1  0.3276024E-002  0.1252301E+03  0.7818608E-02  0.1234710E+00
         -4   -1    0    0    0  501 -0.00000000000E+00  0.00000000000E+00  0.24649049702E+03  0.24649376872E+03  0.12700000000E+01 0.  1.
          4   -1    0    0  501    0  0.00000000000E+00 -0.00000000000E+00 -0.15877138329E+02  0.15927850499E+02  0.12700000000E+01 0.  1.
    9000005    1    1    2    0    0 -0.30432067577E+02  0.42099188927E+02  0.18853567587E+03  0.19556368150E+03  0.10000000000E+01 0.  0.
    9000005    1    1    2    0    0  0.30432067577E+02 -0.42099188927E+02  0.42077682815E+02  0.66857937722E+02  0.10000000000E+01 0.  0.
<mgrwt>
<rscale>  0 0.12523013E+03</rscale>
<asrwt>0</asrwt>
<pdfrwt beam="2">  1        4 0.24467892E-02 0.12523013E+03</pdfrwt>
<pdfrwt beam="1">  1       -4 0.37925768E-01 0.12523013E+03</pdfrwt>
<totfact> 0.80156160E+03</totfact>
</mgrwt>
</event>
<event>
 5    1  0.3276024E-002  0.1249640E+03  0.7818608E-02  0.1235126E+00
         -4   -1    0    0    0  501 -0.00000000000E+00  0.00000000000E+00  0.45297680328E+02  0.45315480171E+02  0.12700000000E+01 0.  1.
          4   -1    0    0  501    0  0.00000000000E+00 -0.00000000000E+00 -0.86145979950E+02  0.86155340877E+02  0.12700000000E+01 0.  1.
         25    2    1    2    0    0  0.00000000000E+00  0.00000000000E+00 -0.40848299622E+02  0.13147082105E+03  0.12496396763E+03 0.  0.
    9000005    1    3    3    0    0  0.21185662643E+02  0.91821205457E+01 -0.81497276523E+02  0.84710977565E+02  0.10000000000E+01 0.  0.
    9000005    1    3    3    0    0 -0.21185662643E+02 -0.91821205457E+01  0.40648976902E+02  0.46759843482E+02  0.10000000000E+01 0.  0.
<mgrwt>
<rscale>  0 0.12496397E+03</rscale>
<asrwt>0</asrwt>
<pdfrwt beam="2">  1        4 0.13255317E-01 0.12496397E+03</pdfrwt>
<pdfrwt beam="1">  1       -4 0.69709632E-02 0.12496397E+03</pdfrwt>
<totfact> 0.10321394E+04</totfact>
</mgrwt>
</event>
<event>
 5    1  0.3276024E-002  0.1250044E+03  0.7818608E-02  0.1235062E+00
          4   -1    0    0  501    0  0.00000000000E+00  0.00000000000E+00  0.27468229272E+02  0.27497572972E+02  0.12700000000E+01 0. -1.
         -4   -1    0    0    0  501 -0.00000000000E+00 -0.00000000000E+00 -0.14211176160E+03  0.14211743625E+03  0.12700000000E+01 0. -1.
         25    2    1    2    0    0  0.00000000000E+00  0.00000000000E+00 -0.11464353233E+03  0.16961500922E+03  0.12500444731E+03 0.  0.
    9000005    1    3    3    0    0  0.18485461995E+02 -0.33044889029E+02  0.10138796206E+02  0.39210613163E+02  0.10000000000E+01 0.  0.
    9000005    1    3    3    0    0 -0.18485461995E+02  0.33044889029E+02 -0.12478232853E+03  0.13040439606E+03  0.10000000000E+01 0.  0.
<mgrwt>
<rscale>  0 0.12500445E+03</rscale>
<asrwt>0</asrwt>
<pdfrwt beam="1">  1        4 0.42285752E-02 0.12500445E+03</pdfrwt>
<pdfrwt beam="2">  1       -4 0.21866041E-01 0.12500445E+03</pdfrwt>
<totfact> 0.95510908E+03</totfact>
</mgrwt>
</event>
<event>
 5    1  0.3276024E-002  0.1250012E+03  0.7818608E-02  0.1235067E+00
         -4   -1    0    0    0  501 -0.00000000000E+00  0.00000000000E+00  0.93423382033E+02  0.93432013842E+02  0.12700000000E+01 0.  1.
          4   -1    0    0  501    0  0.00000000000E+00 -0.00000000000E+00 -0.41792957172E+02  0.41812249033E+02  0.12700000000E+01 0.  1.
         25    2    1    2    0    0  0.00000000000E+00  0.00000000000E+00  0.51630424861E+02  0.13524426287E+03  0.12500123947E+03 0.  0.
    9000005    1    3    3    0    0 -0.50137325247E+02 -0.26941008288E+02  0.53731828887E+02  0.78279491223E+02  0.10000000000E+01 0.  0.
    9000005    1    3    3    0    0  0.50137325247E+02  0.26941008288E+02 -0.21014040260E+01  0.56964771652E+02  0.10000000000E+01 0.  0.
<mgrwt>
<rscale>  0 0.12500124E+03</rscale>
<asrwt>0</asrwt>
<pdfrwt beam="2">  1        4 0.64318338E-02 0.12500124E+03</pdfrwt>
<pdfrwt beam="1">  1       -4 0.14374976E-01 0.12500124E+03</pdfrwt>
<totfact> 0.10232639E+04</totfact>
</mgrwt>
</event>
<event>
 5    1  0.3276024E-002  0.1249977E+03  0.7818608E-02  0.1235073E+00
         -4   -1    0    0    0  501 -0.00000000000E+00  0.00000000000E+00  0.13320899062E+02  0.13381302321E+02  0.12700000000E+01 0.  1.
          4   -1    0    0  501    0  0.00000000000E+00 -0.00000000000E+00 -0.29250616954E+03  0.29250892657E+03  0.12700000000E+01 0.  1.
         25    2    1    2    0    0  0.00000000000E+00  0.00000000000E+00 -0.27918527048E+03  0.30589022889E+03  0.12499766748E+03 0.  0.
    9000005    1    3    3    0    0 -0.53190023860E+02 -0.32722939840E+02 -0.14513793445E+03  0.15800629559E+03  0.10000000000E+01 0.  0.
    9000005    1    3    3    0    0  0.53190023860E+02  0.32722939840E+02 -0.13404733603E+03  0.14788393330E+03  0.10000000000E+01 0.  0.
<mgrwt>
<rscale>  0 0.12499767E+03</rscale>
<asrwt>0</asrwt>
<pdfrwt beam="2">  1        4 0.45005803E-01 0.12499767E+03</pdfrwt>
<pdfrwt beam="1">  1       -4 0.20542278E-02 0.12499767E+03</pdfrwt>
<totfact> 0.74869747E+03</totfact>
</mgrwt>
</event>
<event>
 5    1  0.3276024E-002  0.1250007E+03  0.7818608E-02  0.1235068E+00
         -4   -1    0    0    0  501 -0.00000000000E+00  0.00000000000E+00  0.70323226764E+01  0.71460802000E+01  0.12700000000E+01 0.  1.
          4   -1    0    0  501    0  0.00000000000E+00 -0.00000000000E+00 -0.55090590883E+03  0.55090737269E+03  0.12700000000E+01 0.  1.
         25    2    1    2    0    0  0.00000000000E+00  0.00000000000E+00 -0.54387358615E+03  0.55805345289E+03  0.12500071426E+03 0.  0.
    9000005    1    3    3    0    0  0.43200805792E+02 -0.42991756150E+02 -0.33358660164E+03  0.33911004337E+03  0.10000000000E+01 0.  0.
    9000005    1    3    3    0    0 -0.43200805792E+02  0.42991756150E+02 -0.21028698451E+03  0.21894340952E+03  0.10000000000E+01 0.  0.
<mgrwt>
<rscale>  0 0.12500071E+03</rscale>
<asrwt>0</asrwt>
<pdfrwt beam="2">  1        4 0.84763585E-01 0.12500071E+03</pdfrwt>
<pdfrwt beam="1">  1       -4 0.10907594E-02 0.12500071E+03</pdfrwt>
<totfact> 0.51626376E+03</totfact>
</mgrwt>
</event>
<event>
 5    1  0.3276024E-002  0.1250504E+03  0.7818608E-02  0.1234991E+00
         -4   -1    0    0    0  501 -0.00000000000E+00  0.00000000000E+00  0.16713073644E+03  0.16713556163E+03  0.12700000000E+01 0.  1.
          4   -1    0    0  501    0  0.00000000000E+00 -0.00000000000E+00 -0.23368858324E+02  0.23403342483E+02  0.12700000000E+01 0.  1.
         25    2    1    2    0    0  0.00000000000E+00  0.00000000000E+00  0.14376187811E+03  0.19053890411E+03  0.12505037538E+03 0.  0.
    9000005    1    3    3    0    0  0.16323613369E+02  0.42717955231E+01 -0.19841208014E+02  0.26064959733E+02  0.10000000000E+01 0.  0.
    9000005    1    3    3    0    0 -0.16323613369E+02 -0.42717955231E+01  0.16360308612E+03  0.16447394438E+03  0.10000000000E+01 0.  0.
<mgrwt>
<rscale>  0 0.12505038E+03</rscale>
<asrwt>0</asrwt>
<pdfrwt beam="2">  1        4 0.35982328E-02 0.12505038E+03</pdfrwt>
<pdfrwt beam="1">  1       -4 0.25715445E-01 0.12505038E+03</pdfrwt>
<totfact> 0.91650179E+03</totfact>
</mgrwt>
</event>
<event>
 5    1  0.3276024E-002  0.1250052E+03  0.7818608E-02  0.1235061E+00
         -4   -1    0    0    0  501 -0.00000000000E+00  0.00000000000E+00  0.12659803743E+03  0.12660440743E+03  0.12700000000E+01 0. -1.
          4   -1    0    0  501    0  0.00000000000E+00 -0.00000000000E+00 -0.30837905074E+02  0.30864045252E+02  0.12700000000E+01 0. -1.
         25    2    1    2    0    0  0.00000000000E+00  0.00000000000E+00  0.95760132355E+02  0.15746845268E+03  0.12500524246E+03 0.  0.
    9000005    1    3    3    0    0  0.27766457757E+02  0.49079991218E+02  0.13944067472E+02  0.58096976961E+02  0.10000000000E+01 0.  0.
    9000005    1    3    3    0    0 -0.27766457757E+02 -0.49079991218E+02  0.81816064882E+02  0.99371475722E+02  0.10000000000E+01 0.  0.
<mgrwt>
<rscale>  0 0.12500524E+03</rscale>
<asrwt>0</asrwt>
<pdfrwt beam="2">  1        4 0.47467938E-02 0.12500524E+03</pdfrwt>
<pdfrwt beam="1">  1       -4 0.19479122E-01 0.12500524E+03</pdfrwt>
<totfact> 0.97821548E+03</totfact>
</mgrwt>
</event>
<event>
 5    1  0.3276024E-002  0.1249983E+03  0.7818608E-02  0.1235072E+00
         -4   -1    0    0    0  501 -0.00000000000E+00  0.00000000000E+00  0.36049681374E+02  0.36072044955E+02  0.12700000000E+01 0. -1.
          4   -1    0    0  501    0  0.00000000000E+00 -0.00000000000E+00 -0.10829470325E+03  0.10830214980E+03  0.12700000000E+01 0. -1.
         25    2    1    2    0    0  0.00000000000E+00  0.00000000000E+00 -0.72245021876E+02  0.14437419476E+03  0.12499825969E+03 0.  0.
    9000005    1    3    3    0    0 -0.26032799988E+02 -0.37081459372E+02 -0.85833566622E+02  0.97062569837E+02  0.10000000000E+01 0.  0.
    9000005    1    3    3    0    0  0.26032799988E+02  0.37081459372E+02  0.13588544746E+02  0.47311624921E+02  0.10000000000E+01 0.  0.
<mgrwt>
<rscale>  0 0.12499826E+03</rscale>
<asrwt>0</asrwt>
<pdfrwt beam="2">  1        4 0.16663017E-01 0.12499826E+03</pdfrwt>
<pdfrwt beam="1">  1       -4 0.55483980E-02 0.12499826E+03</pdfrwt>
<totfact> 0.10044112E+04</totfact>
</mgrwt>
</event>
<event>
 5    1  0.3276024E-002  0.1250022E+03  0.7818608E-02  0.1235066E+00
         -4   -1    0    0    0  501 -0.00000000000E+00  0.00000000000E+00  0.95896715674E+02  0.95905124874E+02  0.12700000000E+01 0.  1.
          4   -1    0    0  501    0  0.00000000000E+00 -0.00000000000E+00 -0.40715267116E+02  0.40735069367E+02  0.12700000000E+01 0.  1.
         25    2    1    2    0    0  0.00000000000E+00  0.00000000000E+00  0.55181448558E+02  0.13664019424E+03  0.12500220165E+03 0.  0.
    9000005    1    3    3    0    0  0.51582686556E+02  0.12838702587E+02 -0.83286533860E+01  0.53814238856E+02  0.10000000000E+01 0.  0.
    9000005    1    3    3    0    0 -0.51582686556E+02 -0.12838702587E+02  0.63510101944E+02  0.82825955384E+02  0.10000000000E+01 0.  0.
<mgrwt>
<rscale>  0 0.12500220E+03</rscale>
<asrwt>0</asrwt>
<pdfrwt beam="2">  1        4 0.62660574E-02 0.12500220E+03</pdfrwt>
<pdfrwt beam="1">  1       -4 0.14755511E-01 0.12500220E+03</pdfrwt>
<totfact> 0.10203108E+04</totfact>
</mgrwt>
</event>
<event>
 5    1  0.3276024E-002  0.1249962E+03  0.7818608E-02  0.1235075E+00
         -4   -1    0    0    0  501 -0.00000000000E+00  0.00000000000E+00  0.12623610799E+02  0.12687334220E+02  0.12700000000E+01 0.  1.
          4   -1    0    0  501    0  0.00000000000E+00 -0.00000000000E+00 -0.30857722892E+03  0.30857984236E+03  0.12700000000E+01 0.  1.
         25    2    1    2    0    0  0.00000000000E+00  0.00000000000E+00 -0.29595361813E+03  0.32126717658E+03  0.12499621861E+03 0.  0.
    9000005    1    3    3    0    0  0.34376590034E+01 -0.42469569302E+02 -0.26546493580E+03  0.26886448995E+03  0.10000000000E+01 0.  0.
    9000005    1    3    3    0    0 -0.34376590034E+01  0.42469569302E+02 -0.30488682325E+02  0.52402686630E+02  0.10000000000E+01 0.  0.
<mgrwt>
<rscale>  0 0.12499622E+03</rscale>
<asrwt>0</asrwt>
<pdfrwt beam="2">  1        4 0.47478517E-01 0.12499622E+03</pdfrwt>
<pdfrwt beam="1">  1       -4 0.19471970E-02 0.12499622E+03</pdfrwt>
<totfact> 0.73011786E+03</totfact>
</mgrwt>
</event>
<event>
 5    1  0.3276024E-002  0.1249962E+03  0.7818608E-02  0.1235075E+00
          4   -1    0    0  501    0  0.00000000000E+00  0.00000000000E+00  0.17070544981E+02  0.17117721985E+02  0.12700000000E+01 0.  1.
         -4   -1    0    0    0  501 -0.00000000000E+00 -0.00000000000E+00 -0.22845131033E+03  0.22845484037E+03  0.12700000000E+01 0.  1.
         25    2    1    2    0    0  0.00000000000E+00  0.00000000000E+00 -0.21138076535E+03  0.24557256236E+03  0.12499622164E+03 0.  0.
    9000005    1    3    3    0    0 -0.23626921427E+02  0.14475426708E+02  0.43512782874E+01  0.28066047411E+02  0.10000000000E+01 0.  0.
    9000005    1    3    3    0    0  0.23626921427E+02 -0.14475426708E+02 -0.21573204363E+03  0.21750651495E+03  0.10000000000E+01 0.  0.
<mgrwt>
<rscale>  0 0.12499622E+03</rscale>
<asrwt>0</asrwt>
<pdfrwt beam="1">  1        4 0.26301384E-02 0.12499622E+03</pdfrwt>
<pdfrwt beam="2">  1       -4 0.35150254E-01 0.12499622E+03</pdfrwt>
<totfact> 0.82981358E+03</totfact>
</mgrwt>
</event>
<event>
 5    1  0.3276024E-002  0.1250082E+03  0.7818608E-02  0.1235056E+00
          4   -1    0    0  501    0  0.00000000000E+00  0.00000000000E+00  0.29836288038E+02  0.29863304972E+02  0.12700000000E+01 0. -1.
         -4   -1    0    0    0  501 -0.00000000000E+00 -0.00000000000E+00 -0.13085057758E+03  0.13085674057E+03  0.12700000000E+01 0. -1.
         25    2    1    2    0    0  0.00000000000E+00  0.00000000000E+00 -0.10101428954E+03  0.16072004555E+03  0.12500818513E+03 0.  0.
    9000005    1    3    3    0    0 -0.37916334321E+02  0.44521274069E+02 -0.22164783526E+02  0.62546541726E+02  0.10000000000E+01 0.  0.
    9000005    1    3    3    0    0  0.37916334321E+02 -0.44521274069E+02 -0.78849506019E+02  0.98173503821E+02  0.10000000000E+01 0.  0.
<mgrwt>
<rscale>  0 0.12500819E+03</rscale>
<asrwt>0</asrwt>
<pdfrwt beam="1">  1        4 0.45927506E-02 0.12500819E+03</pdfrwt>
<pdfrwt beam="2">  1       -4 0.20133410E-01 0.12500819E+03</pdfrwt>
<totfact> 0.97186266E+03</totfact>
</mgrwt>
</event>
<event>
 5    1  0.3276024E-002  0.1249999E+03  0.7818608E-02  0.1235069E+00
         -4   -1    0    0    0  501 -0.00000000000E+00  0.00000000000E+00  0.11742113621E+02  0.11810594070E+02  0.12700000000E+01 0. -1.
          4   -1    0    0  501    0  0.00000000000E+00 -0.00000000000E+00 -0.33163254858E+03  0.33163498032E+03  0.12700000000E+01 0. -1.
         25    2    1    2    0    0  0.00000000000E+00  0.00000000000E+00 -0.31989043495E+03  0.34344557440E+03  0.12499988878E+03 0.  0.
    9000005    1    3    3    0    0  0.59312283492E+02 -0.19561442735E+02 -0.15402292991E+03  0.16620667842E+03  0.10000000000E+01 0.  0.
    9000005    1    3    3    0    0 -0.59312283492E+02  0.19561442735E+02 -0.16586750505E+03  0.17723889597E+03  0.10000000000E+01 0.  0.
<mgrwt>
<rscale>  0 0.12499989E+03</rscale>
<asrwt>0</asrwt>
<pdfrwt beam="2">  1        4 0.51025840E-01 0.12499989E+03</pdfrwt>
<pdfrwt beam="1">  1       -4 0.18119341E-02 0.12499989E+03</pdfrwt>
<totfact> 0.70451869E+03</totfact>
</mgrwt>
</event>
<event>
 5    1  0.3276024E-002  0.1250004E+03  0.7818608E-02  0.1235069E+00
         -4   -1    0    0    0  501 -0.00000000000E+00  0.00000000000E+00  0.20439103481E+02  0.20478521702E+02  0.12700000000E+01 0. -1.
          4   -1    0    0  501    0  0.00000000000E+00 -0.00000000000E+00 -0.19089221900E+03  0.19089644359E+03  0.12700000000E+01 0. -1.
         25    2    1    2    0    0  0.00000000000E+00  0.00000000000E+00 -0.17045311552E+03  0.21137496529E+03  0.12500044544E+03 0.  0.
    9000005    1    3    3    0    0  0.54560795220E+02  0.30329766454E+02 -0.80295714031E+02  0.10171124225E+03  0.10000000000E+01 0.  0.
    9000005    1    3    3    0    0 -0.54560795220E+02 -0.30329766454E+02 -0.90157401490E+02  0.10966372304E+03  0.10000000000E+01 0.  0.
<mgrwt>
<rscale>  0 0.12500045E+03</rscale>
<asrwt>0</asrwt>
<pdfrwt beam="2">  1        4 0.29371390E-01 0.12500045E+03</pdfrwt>
<pdfrwt beam="1">  1       -4 0.31478347E-02 0.12500045E+03</pdfrwt>
<totfact> 0.88250944E+03</totfact>
</mgrwt>
</event>
<event>
 5    1  0.3276024E-002  0.1250032E+03  0.7818608E-02  0.1235064E+00
         -4   -1    0    0    0  501 -0.00000000000E+00  0.00000000000E+00  0.31286306857E+03  0.31286564621E+03  0.12700000000E+01 0.  1.
          4   -1    0    0  501    0  0.00000000000E+00 -0.00000000000E+00 -0.12451200292E+02  0.12515801561E+02  0.12700000000E+01 0.  1.
         25    2    1    2    0    0  0.00000000000E+00  0.00000000000E+00  0.30041186828E+03  0.32538144777E+03  0.12500318375E+03 0.  0.
    9000005    1    3    3    0    0  0.31829187572E+02 -0.65024529270E+01  0.28916902635E+03  0.29098987074E+03  0.10000000000E+01 0.  0.
    9000005    1    3    3    0    0 -0.31829187572E+02  0.65024529270E+01  0.11242841930E+02  0.34391577024E+02  0.10000000000E+01 0.  0.
<mgrwt>
<rscale>  0 0.12500318E+03</rscale>
<asrwt>0</asrwt>
<pdfrwt beam="2">  1        4 0.19207369E-02 0.12500318E+03</pdfrwt>
<pdfrwt beam="1">  1       -4 0.48137946E-01 0.12500318E+03</pdfrwt>
<totfact> 0.72515495E+03</totfact>
</mgrwt>
</event>
<event>
 5    1  0.3276024E-002  0.1250001E+03  0.7818608E-02  0.1235069E+00
          4   -1    0    0  501    0  0.00000000000E+00  0.00000000000E+00  0.11044817571E+03  0.11045547708E+03  0.12700000000E+01 0. -1.
         -4   -1    0    0    0  501 -0.00000000000E+00 -0.00000000000E+00 -0.35347420570E+02  0.35370228172E+02  0.12700000000E+01 0. -1.
         25    2    1    2    0    0  0.00000000000E+00  0.00000000000E+00  0.75100755139E+02  0.14582570525E+03  0.12500005156E+03 0.  0.
    9000005    1    3    3    0    0  0.27508742213E+00 -0.34595078554E+02 -0.23161957356E+02  0.41645784923E+02  0.10000000000E+01 0.  0.
    9000005    1    3    3    0    0 -0.27508742213E+00  0.34595078554E+02  0.98262712495E+02  0.10417992033E+03  0.10000000000E+01 0.  0.
<mgrwt>
<rscale>  0 0.12500005E+03</rscale>
<asrwt>0</asrwt>
<pdfrwt beam="1">  1        4 0.16994343E-01 0.12500005E+03</pdfrwt>
<pdfrwt beam="2">  1       -4 0.54403808E-02 0.12500005E+03</pdfrwt>
<totfact> 0.10014227E+04</totfact>
</mgrwt>
</event>
<event>
 5    1  0.3276024E-002  0.1249983E+03  0.7818608E-02  0.1235072E+00
          4   -1    0    0  501    0  0.00000000000E+00  0.00000000000E+00  0.16211127609E+02  0.16260798207E+02  0.12700000000E+01 0. -1.
         -4   -1    0    0    0  501 -0.00000000000E+00 -0.00000000000E+00 -0.24053473736E+03  0.24053809007E+03  0.12700000000E+01 0. -1.
         25    2    1    2    0    0  0.00000000000E+00  0.00000000000E+00 -0.22432360975E+03  0.25679888828E+03  0.12499834851E+03 0.  0.
    9000005    1    3    3    0    0 -0.45259930905E+02  0.39699437588E+02 -0.14657806864E+03  0.15846336137E+03  0.10000000000E+01 0.  0.
    9000005    1    3    3    0    0  0.45259930905E+02 -0.39699437588E+02 -0.77745541107E+02  0.98335526908E+02  0.10000000000E+01 0.  0.
<mgrwt>
<rscale>  0 0.12499835E+03</rscale>
<asrwt>0</asrwt>
<pdfrwt beam="1">  1        4 0.24980985E-02 0.12499835E+03</pdfrwt>
<pdfrwt beam="2">  1       -4 0.37009420E-01 0.12499835E+03</pdfrwt>
<totfact> 0.81360393E+03</totfact>
</mgrwt>
</event>
<event>
 5    1  0.3276024E-002  0.1250026E+03  0.7818608E-02  0.1235065E+00
         -4   -1    0    0    0  501 -0.00000000000E+00  0.00000000000E+00  0.60589981769E+02  0.60603290264E+02  0.12700000000E+01 0.  1.
          4   -1    0    0  501    0  0.00000000000E+00 -0.00000000000E+00 -0.64446261077E+02  0.64458773389E+02  0.12700000000E+01 0.  1.
         25    2    1    2    0    0  0.00000000000E+00  0.00000000000E+00 -0.38562793077E+01  0.12506206365E+03  0.12500259547E+03 0.  0.
    9000005    1    3    3    0    0  0.46108149547E+02 -0.39187579713E+02  0.13692883657E+02  0.62049358750E+02  0.10000000000E+01 0.  0.
    9000005    1    3    3    0    0 -0.46108149547E+02  0.39187579713E+02 -0.17549162964E+02  0.63012704903E+02  0.10000000000E+01 0.  0.
<mgrwt>
<rscale>  0 0.12500260E+03</rscale>
<asrwt>0</asrwt>
<pdfrwt beam="2">  1        4 0.99167956E-02 0.12500260E+03</pdfrwt>
<pdfrwt beam="1">  1       -4 0.93235219E-02 0.12500260E+03</pdfrwt>
<totfact> 0.10450902E+04</totfact>
</mgrwt>
</event>
<event>
 5    1  0.3276024E-002  0.1249933E+03  0.7818608E-02  0.1235080E+00
         -4   -1    0    0    0  501 -0.00000000000E+00  0.00000000000E+00  0.35892199319E+03  0.35892424005E+03  0.12700000000E+01 0. -1.
          4   -1    0    0  501    0  0.00000000000E+00 -0.00000000000E+00 -0.10842774631E+02  0.10916897989E+02  0.12700000000E+01 0. -1.
         25    2    1    2    0    0  0.00000000000E+00  0.00000000000E+00  0.34807921856E+03  0.36984113804E+03  0.12499329979E+03 0.  0.
    9000005    1    3    3    0    0  0.46960462604E+02  0.18378276373E+02  0.64849630506E+02  0.82155466448E+02  0.10000000000E+01 0.  0.
    9000005    1    3    3    0    0 -0.46960462604E+02 -0.18378276373E+02  0.28322958806E+03  0.28768567159E+03  0.10000000000E+01 0.  0.
<mgrwt>
<rscale>  0 0.12499330E+03</rscale>
<asrwt>0</asrwt>
<pdfrwt beam="2">  1        4 0.16739940E-02 0.12499330E+03</pdfrwt>
<pdfrwt beam="1">  1       -4 0.55224637E-01 0.12499330E+03</pdfrwt>
<totfact> 0.67605576E+03</totfact>
</mgrwt>
</event>
<event>
 5    1  0.3276024E-002  0.1250017E+03  0.7818608E-02  0.1235067E+00
         -4   -1    0    0    0  501 -0.00000000000E+00  0.00000000000E+00  0.23172830899E+02  0.23207606336E+02  0.12700000000E+01 0.  1.
          4   -1    0    0  501    0  0.00000000000E+00 -0.00000000000E+00 -0.16841124229E+03  0.16841603080E+03  0.12700000000E+01 0.  1.
         25    2    1    2    0    0  0.00000000000E+00  0.00000000000E+00 -0.14523841139E+03  0.19162363713E+03  0.12500168865E+03 0.  0.
    9000005    1    3    3    0    0  0.11150602157E+02  0.11337888085E+02 -0.16526519884E+03  0.16603153190E+03  0.10000000000E+01 0.  0.
    9000005    1    3    3    0    0 -0.11150602157E+02 -0.11337888085E+02  0.20026787454E+02  0.25592105236E+02  0.10000000000E+01 0.  0.
<mgrwt>
<rscale>  0 0.12500169E+03</rscale>
<asrwt>0</asrwt>
<pdfrwt beam="2">  1        4 0.25912464E-01 0.12500169E+03</pdfrwt>
<pdfrwt beam="1">  1       -4 0.35680944E-02 0.12500169E+03</pdfrwt>
<totfact> 0.91562110E+03</totfact>
</mgrwt>
</event>
<event>
 5    1  0.3276024E-002  0.1249976E+03  0.7818608E-02  0.1235073E+00
         -4   -1    0    0    0  501 -0.00000000000E+00  0.00000000000E+00  0.22995058789E+03  0.22995409492E+03  0.12700000000E+01 0. -1.
          4   -1    0    0  501    0  0.00000000000E+00 -0.00000000000E+00 -0.16959313330E+02  0.17006798894E+02  0.12700000000E+01 0. -1.
         25    2    1    2    0    0  0.00000000000E+00  0.00000000000E+00  0.21299127456E+03  0.24696089381E+03  0.12499760012E+03 0.  0.
    9000005    1    3    3    0    0 -0.20102843566E+02  0.45343826134E+02  0.31394350054E+02  0.58709386840E+02  0.10000000000E+01 0.  0.
    9000005    1    3    3    0    0  0.20102843566E+02 -0.45343826134E+02  0.18159692450E+03  0.18825150697E+03  0.10000000000E+01 0.  0.
<mgrwt>
<rscale>  0 0.12499760E+03</rscale>
<asrwt>0</asrwt>
<pdfrwt beam="2">  1        4 0.26130476E-02 0.12499760E+03</pdfrwt>
<pdfrwt beam="1">  1       -4 0.35380937E-01 0.12499760E+03</pdfrwt>
<totfact> 0.82775891E+03</totfact>
</mgrwt>
</event>
<event>
 5    1  0.3276024E-002  0.1250063E+03  0.7818608E-02  0.1235059E+00
          4   -1    0    0  501    0  0.00000000000E+00  0.00000000000E+00  0.12225013494E+03  0.12225673148E+03  0.12700000000E+01 0.  1.
         -4   -1    0    0    0  501 -0.00000000000E+00 -0.00000000000E+00 -0.31936087283E+02  0.31961329305E+02  0.12700000000E+01 0.  1.
         25    2    1    2    0    0  0.00000000000E+00  0.00000000000E+00  0.90314047655E+02  0.15421806079E+03  0.12500633211E+03 0.  0.
    9000005    1    3    3    0    0  0.58573654584E+02  0.14964514481E+02  0.25618209208E+02  0.65666599943E+02  0.10000000000E+01 0.  0.
    9000005    1    3    3    0    0 -0.58573654584E+02 -0.14964514481E+02  0.64695838447E+02  0.88551460843E+02  0.10000000000E+01 0.  0.
<mgrwt>
<rscale>  0 0.12500633E+03</rscale>
<asrwt>0</asrwt>
<pdfrwt beam="1">  1        4 0.18810162E-01 0.12500633E+03</pdfrwt>
<pdfrwt beam="2">  1       -4 0.49156934E-02 0.12500633E+03</pdfrwt>
<totfact> 0.98455199E+03</totfact>
</mgrwt>
</event>
<event>
 5    1  0.3276024E-002  0.1249994E+03  0.7818608E-02  0.1235070E+00
          4   -1    0    0  501    0  0.00000000000E+00  0.00000000000E+00  0.68576808455E+03  0.68576926053E+03  0.12700000000E+01 0.  1.
         -4   -1    0    0    0  501 -0.00000000000E+00 -0.00000000000E+00 -0.56241268269E+01  0.57657352146E+01  0.12700000000E+01 0.  1.
         25    2    1    2    0    0  0.00000000000E+00  0.00000000000E+00  0.68014395772E+03  0.69153499574E+03  0.12499938845E+03 0.  0.
    9000005    1    3    3    0    0 -0.39991177382E+02  0.19429502355E+02  0.58301598091E+03  0.58470970047E+03  0.10000000000E+01 0.  0.
    9000005    1    3    3    0    0  0.39991177382E+02 -0.19429502355E+02  0.97127976815E+02  0.10682529527E+03  0.10000000000E+01 0.  0.
<mgrwt>
<rscale>  0 0.12499939E+03</rscale>
<asrwt>0</asrwt>
<pdfrwt beam="1">  1        4 0.10551378E+00 0.12499939E+03</pdfrwt>
<pdfrwt beam="2">  1       -4 0.87623357E-03 0.12499939E+03</pdfrwt>
<totfact> 0.43537905E+03</totfact>
</mgrwt>
</event>
<event>
 5    1  0.3276024E-002  0.1250025E+03  0.7818608E-02  0.1235065E+00
         -4   -1    0    0    0  501 -0.00000000000E+00  0.00000000000E+00  0.11574292783E+03  0.11574989521E+03  0.12700000000E+01 0.  1.
          4   -1    0    0  501    0  0.00000000000E+00 -0.00000000000E+00 -0.33730786082E+02  0.33754686041E+02  0.12700000000E+01 0.  1.
         25    2    1    2    0    0  0.00000000000E+00  0.00000000000E+00  0.82012141743E+02  0.14950458125E+03  0.12500251366E+03 0.  0.
    9000005    1    3    3    0    0  0.43533783768E+02 -0.32211148569E+02  0.78306685580E+02  0.95213893040E+02  0.10000000000E+01 0.  0.
    9000005    1    3    3    0    0 -0.43533783768E+02  0.32211148569E+02  0.37054561628E+01  0.54290688213E+02  0.10000000000E+01 0.  0.
<mgrwt>
<rscale>  0 0.12500251E+03</rscale>
<asrwt>0</asrwt>
<pdfrwt beam="2">  1        4 0.51917262E-02 0.12500251E+03</pdfrwt>
<pdfrwt beam="1">  1       -4 0.17808978E-01 0.12500251E+03</pdfrwt>
<totfact> 0.99396921E+03</totfact>
</mgrwt>
</event>
<event>
 5    1  0.3276024E-002  0.1250041E+03  0.7818608E-02  0.1235063E+00
         -4   -1    0    0    0  501 -0.00000000000E+00  0.00000000000E+00  0.39402331668E+02  0.39422793418E+02  0.12700000000E+01 0.  1.
          4   -1    0    0  501    0  0.00000000000E+00 -0.00000000000E+00 -0.99093787880E+02  0.99101925796E+02  0.12700000000E+01 0.  1.
         25    2    1    2    0    0  0.00000000000E+00  0.00000000000E+00 -0.59691456213E+02  0.13852471921E+03  0.12500411149E+03 0.  0.
    9000005    1    3    3    0    0  0.45993659129E-01  0.57536740787E+01 -0.98805067403E+02  0.98977513735E+02  0.10000000000E+01 0.  0.
    9000005    1    3    3    0    0 -0.45993659129E-01 -0.57536740787E+01  0.39113611190E+02  0.39547205478E+02  0.10000000000E+01 0.  0.
<mgrwt>
<rscale>  0 0.12500411E+03</rscale>
<asrwt>0</asrwt>
<pdfrwt beam="2">  1        4 0.15247398E-01 0.12500411E+03</pdfrwt>
<pdfrwt beam="1">  1       -4 0.60640972E-02 0.12500411E+03</pdfrwt>
<totfact> 0.10163312E+04</totfact>
</mgrwt>
</event>
<event>
 5    1  0.3276024E-002  0.1250038E+03  0.7818608E-02  0.1235063E+00
          4   -1    0    0  501    0  0.00000000000E+00  0.00000000000E+00  0.35036557456E+01  0.37267282680E+01  0.12700000000E+01 0.  1.
         -4   -1    0    0    0  501 -0.00000000000E+00 -0.00000000000E+00 -0.10803521148E+04  0.10803528613E+04  0.12700000000E+01 0.  1.
         25    2    1    2    0    0  0.00000000000E+00  0.00000000000E+00 -0.10768484590E+04  0.10840795895E+04  0.12500381068E+03 0.  0.
    9000005    1    3    3    0    0 -0.19964856410E+01  0.13078580491E+02 -0.10681104788E+04  0.10681928805E+04  0.10000000000E+01 0.  0.
    9000005    1    3    3    0    0  0.19964856410E+01 -0.13078580491E+02 -0.87379802780E+01  0.15886708970E+02  0.10000000000E+01 0.  0.
<mgrwt>
<rscale>  0 0.12500381E+03</rscale>
<asrwt>0</asrwt>
<pdfrwt beam="1">  1        4 0.55624167E-03 0.12500381E+03</pdfrwt>
<pdfrwt beam="2">  1       -4 0.16622498E+00 0.12500381E+03</pdfrwt>
<totfact> 0.27951792E+03</totfact>
</mgrwt>
</event>
<event>
 5    1  0.3276024E-002  0.1249983E+03  0.7818608E-02  0.1235072E+00
         -4   -1    0    0    0  501 -0.00000000000E+00  0.00000000000E+00  0.34124394323E+03  0.34124630649E+03  0.12700000000E+01 0. -1.
          4   -1    0    0  501    0  0.00000000000E+00 -0.00000000000E+00 -0.11409142892E+02  0.11479609816E+02  0.12700000000E+01 0. -1.
         25    2    1    2    0    0  0.00000000000E+00  0.00000000000E+00  0.32983480034E+03  0.35272591630E+03  0.12499830606E+03 0.  0.
    9000005    1    3    3    0    0  0.28229135670E+02 -0.38032437685E+02  0.27995022862E+03  0.28393041563E+03  0.10000000000E+01 0.  0.
    9000005    1    3    3    0    0 -0.28229135670E+02  0.38032437685E+02  0.49884571718E+02  0.68795500670E+02  0.10000000000E+01 0.  0.
<mgrwt>
<rscale>  0 0.12499831E+03</rscale>
<asrwt>0</asrwt>
<pdfrwt beam="2">  1        4 0.17608549E-02 0.12499831E+03</pdfrwt>
<pdfrwt beam="1">  1       -4 0.52504676E-01 0.12499831E+03</pdfrwt>
<totfact> 0.69428306E+03</totfact>
</mgrwt>
</event>
<event>
 5    1  0.3276024E-002  0.1249996E+03  0.7818608E-02  0.1235070E+00
          4   -1    0    0  501    0  0.00000000000E+00  0.00000000000E+00  0.17241422137E+03  0.17241889871E+03  0.12700000000E+01 0. -1.
         -4   -1    0    0    0  501 -0.00000000000E+00 -0.00000000000E+00 -0.22633268344E+02  0.22668871519E+02  0.12700000000E+01 0. -1.
         25    2    1    2    0    0  0.00000000000E+00  0.00000000000E+00  0.14978095303E+03  0.19508777023E+03  0.12499961681E+03 0.  0.
    9000005    1    3    3    0    0 -0.55310703618E+02 -0.26965705119E+02  0.57879281745E+02  0.84483338255E+02  0.10000000000E+01 0.  0.
    9000005    1    3    3    0    0  0.55310703618E+02  0.26965705119E+02  0.91901671282E+02  0.11060443197E+03  0.10000000000E+01 0.  0.
<mgrwt>
<rscale>  0 0.12499962E+03</rscale>
<asrwt>0</asrwt>
<pdfrwt beam="1">  1        4 0.26528362E-01 0.12499962E+03</pdfrwt>
<pdfrwt beam="2">  1       -4 0.34851400E-02 0.12499962E+03</pdfrwt>
<totfact> 0.90970299E+03</totfact>
</mgrwt>
</event>
<event>
 5    1  0.3276024E-002  0.1250043E+03  0.7818608E-02  0.1235063E+00
          4   -1    0    0  501    0  0.00000000000E+00  0.00000000000E+00  0.11110098770E+02  0.11182450298E+02  0.12700000000E+01 0.  1.
         -4   -1    0    0    0  501 -0.00000000000E+00 -0.00000000000E+00 -0.35040402125E+03  0.35040632273E+03  0.12700000000E+01 0.  1.
         25    2    1    2    0    0  0.00000000000E+00  0.00000000000E+00 -0.33929392248E+03  0.36158877303E+03  0.12500429971E+03 0.  0.
    9000005    1    3    3    0    0  0.49843564185E+02 -0.37603958566E+02 -0.16195014533E+03  0.17357214109E+03  0.10000000000E+01 0.  0.
    9000005    1    3    3    0    0 -0.49843564185E+02  0.37603958566E+02 -0.17734377715E+03  0.18801663194E+03  0.10000000000E+01 0.  0.
<mgrwt>
<rscale>  0 0.12500430E+03</rscale>
<asrwt>0</asrwt>
<pdfrwt beam="1">  1        4 0.17149888E-02 0.12500430E+03</pdfrwt>
<pdfrwt beam="2">  1       -4 0.53914045E-01 0.12500430E+03</pdfrwt>
<totfact> 0.68461680E+03</totfact>
</mgrwt>
</event>
<event>
 5    1  0.3276024E-002  0.1249812E+03  0.7818608E-02  0.1235099E+00
         -4   -1    0    0    0  501 -0.00000000000E+00  0.00000000000E+00  0.48426824595E+03  0.48426991125E+03  0.12700000000E+01 0.  1.
          4   -1    0    0  501    0  0.00000000000E+00 -0.00000000000E+00 -0.80121724032E+01  0.81122010958E+01  0.12700000000E+01 0.  1.
         25    2    1    2    0    0  0.00000000000E+00  0.00000000000E+00  0.47625607355E+03  0.49238211234E+03  0.12498118643E+03 0.  0.
    9000005    1    3    3    0    0 -0.19347286683E+01 -0.62100461608E+02  0.21203585350E+03  0.22095341970E+03  0.10000000000E+01 0.  0.
    9000005    1    3    3    0    0  0.19347286683E+01  0.62100461608E+02  0.26422022005E+03  0.27142869265E+03  0.10000000000E+01 0.  0.
<mgrwt>
<rscale>  0 0.12498119E+03</rscale>
<asrwt>0</asrwt>
<pdfrwt beam="2">  1        4 0.12404641E-02 0.12498119E+03</pdfrwt>
<pdfrwt beam="1">  1       -4 0.74510657E-01 0.12498119E+03</pdfrwt>
<totfact> 0.56483656E+03</totfact>
</mgrwt>
</event>
<event>
 5    1  0.3276024E-002  0.1250307E+03  0.7818608E-02  0.1235021E+00
          4   -1    0    0  501    0  0.00000000000E+00  0.00000000000E+00  0.56520358852E+03  0.56520501534E+03  0.12700000000E+01 0. -1.
         -4   -1    0    0    0  501 -0.00000000000E+00 -0.00000000000E+00 -0.68548618705E+01  0.69715157077E+01  0.12700000000E+01 0. -1.
         25    2    1    2    0    0  0.00000000000E+00  0.00000000000E+00  0.55834872664E+03  0.57217653105E+03  0.12503072479E+03 0.  0.
    9000005    1    3    3    0    0  0.57783068720E+02  0.90022607491E+01  0.17815891583E+03  0.18751406086E+03  0.10000000000E+01 0.  0.
    9000005    1    3    3    0    0 -0.57783068720E+02 -0.90022607491E+01  0.38018981081E+03  0.38466247019E+03  0.10000000000E+01 0.  0.
<mgrwt>
<rscale>  0 0.12503072E+03</rscale>
<asrwt>0</asrwt>
<pdfrwt beam="1">  1        4 0.86963517E-01 0.12503072E+03</pdfrwt>
<pdfrwt beam="2">  1       -4 0.10636768E-02 0.12503072E+03</pdfrwt>
<totfact> 0.50638202E+03</totfact>
</mgrwt>
</event>
<event>
 5    1  0.3276024E-002  0.1249974E+03  0.7818608E-02  0.1235073E+00
          4   -1    0    0  501    0  0.00000000000E+00  0.00000000000E+00  0.53071042761E+01  0.54569456473E+01  0.12700000000E+01 0. -1.
         -4   -1    0    0    0  501 -0.00000000000E+00 -0.00000000000E+00 -0.72561556439E+03  0.72561667580E+03  0.12700000000E+01 0. -1.
         25    2    1    2    0    0  0.00000000000E+00  0.00000000000E+00 -0.72030846012E+03  0.73107362144E+03  0.12499744898E+03 0.  0.
    9000005    1    3    3    0    0 -0.17058202961E+02 -0.13535238344E+02 -0.70273607861E+03  0.70307409364E+03  0.10000000000E+01 0.  0.
    9000005    1    3    3    0    0  0.17058202961E+02  0.13535238344E+02 -0.17572381505E+02  0.27999527801E+02  0.10000000000E+01 0.  0.
<mgrwt>
<rscale>  0 0.12499745E+03</rscale>
<asrwt>0</asrwt>
<pdfrwt beam="1">  1        4 0.82808991E-03 0.12499745E+03</pdfrwt>
<pdfrwt beam="2">  1       -4 0.11164470E+00 0.12499745E+03</pdfrwt>
<totfact> 0.41498495E+03</totfact>
</mgrwt>
</event>
<event>
 5    1  0.3276024E-002  0.1249979E+03  0.7818608E-02  0.1235073E+00
          4   -1    0    0  501    0  0.00000000000E+00  0.00000000000E+00  0.15959928753E+03  0.15960434042E+03  0.12700000000E+01 0. -1.
         -4   -1    0    0    0  501 -0.00000000000E+00 -0.00000000000E+00 -0.24452619307E+02  0.24485577204E+02  0.12700000000E+01 0. -1.
         25    2    1    2    0    0  0.00000000000E+00  0.00000000000E+00  0.13514666822E+03  0.18408991762E+03  0.12499790333E+03 0.  0.
    9000005    1    3    3    0    0 -0.11444392429E+02 -0.52174709453E+01  0.15772310966E+03  0.15822697445E+03  0.10000000000E+01 0.  0.
    9000005    1    3    3    0    0  0.11444392429E+02  0.52174709453E+01 -0.22576441444E+02  0.25862943170E+02  0.10000000000E+01 0.  0.
<mgrwt>
<rscale>  0 0.12499790E+03</rscale>
<asrwt>0</asrwt>
<pdfrwt beam="1">  1        4 0.24556659E-01 0.12499790E+03</pdfrwt>
<pdfrwt beam="2">  1       -4 0.37648655E-02 0.12499790E+03</pdfrwt>
<totfact> 0.92890308E+03</totfact>
</mgrwt>
</event>
<event>
 5    1  0.3276024E-002  0.1250000E+03  0.7818608E-02  0.1235069E+00
          4   -1    0    0  501    0  0.00000000000E+00  0.00000000000E+00  0.11049146204E+04  0.11049153502E+04  0.12700000000E+01 0.  1.
         -4   -1    0    0    0  501 -0.00000000000E+00 -0.00000000000E+00 -0.34205315651E+01  0.36486896535E+01  0.12700000000E+01 0.  1.
         25    2    1    2    0    0  0.00000000000E+00  0.00000000000E+00  0.11014940888E+04  0.11085640399E+04  0.12500001154E+03 0.  0.
    9000005    1    3    3    0    0 -0.53409400969E+02  0.16533088387E+02  0.30316723771E+03  0.30828117222E+03  0.10000000000E+01 0.  0.
    9000005    1    3    3    0    0  0.53409400969E+02 -0.16533088387E+02  0.79832685107E+03  0.80028286766E+03  0.10000000000E+01 0.  0.
<mgrwt>
<rscale>  0 0.12500001E+03</rscale>
<asrwt>0</asrwt>
<pdfrwt beam="1">  1        4 0.17000465E+00 0.12500001E+03</pdfrwt>
<pdfrwt beam="2">  1       -4 0.54384183E-03 0.12500001E+03</pdfrwt>
<totfact> 0.27234052E+03</totfact>
</mgrwt>
</event>
<event>
 5    1  0.3276024E-002  0.1249994E+03  0.7818608E-02  0.1235070E+00
         -4   -1    0    0    0  501 -0.00000000000E+00  0.00000000000E+00  0.29896161465E+02  0.29923124341E+02  0.12700000000E+01 0.  1.
          4   -1    0    0  501    0  0.00000000000E+00 -0.00000000000E+00 -0.13057047956E+03  0.13057665577E+03  0.12700000000E+01 0.  1.
         25    2    1    2    0    0  0.00000000000E+00  0.00000000000E+00 -0.10067431809E+03  0.16049978011E+03  0.12499944437E+03 0.  0.
    9000005    1    3    3    0    0 -0.16595903001E+02  0.12497268846E+02 -0.12601293088E+03  0.12771790977E+03  0.10000000000E+01 0.  0.
    9000005    1    3    3    0    0  0.16595903001E+02 -0.12497268846E+02  0.25338612792E+02  0.32781870344E+02  0.10000000000E+01 0.  0.
<mgrwt>
<rscale>  0 0.12499944E+03</rscale>
<asrwt>0</asrwt>
<pdfrwt beam="2">  1        4 0.20090315E-01 0.12499944E+03</pdfrwt>
<pdfrwt beam="1">  1       -4 0.46019587E-02 0.12499944E+03</pdfrwt>
<totfact> 0.97247732E+03</totfact>
</mgrwt>
</event>
<event>
 5    1  0.3276024E-002  0.1249995E+03  0.7818608E-02  0.1235070E+00
          4   -1    0    0  501    0  0.00000000000E+00  0.00000000000E+00  0.13133657653E+03  0.13134271672E+03  0.12700000000E+01 0.  1.
         -4   -1    0    0    0  501 -0.00000000000E+00 -0.00000000000E+00 -0.29721650294E+02  0.29748771339E+02  0.12700000000E+01 0.  1.
         25    2    1    2    0    0  0.00000000000E+00  0.00000000000E+00  0.10161492624E+03  0.16109148806E+03  0.12499949716E+03 0.  0.
    9000005    1    3    3    0    0  0.23614899464E+02 -0.13147295501E+02  0.12342072187E+03  0.12634947346E+03  0.10000000000E+01 0.  0.
    9000005    1    3    3    0    0 -0.23614899464E+02  0.13147295501E+02 -0.21805795630E+02  0.34742014604E+02  0.10000000000E+01 0.  0.
<mgrwt>
<rscale>  0 0.12499950E+03</rscale>
<asrwt>0</asrwt>
<pdfrwt beam="1">  1        4 0.20208186E-01 0.12499950E+03</pdfrwt>
<pdfrwt beam="2">  1       -4 0.45751201E-02 0.12499950E+03</pdfrwt>
<totfact> 0.97133864E+03</totfact>
</mgrwt>
</event>
<event>
 5    1  0.3276024E-002  0.1249959E+03  0.7818608E-02  0.1235076E+00
         -4   -1    0    0    0  501 -0.00000000000E+00  0.00000000000E+00  0.84616692745E+03  0.84616788051E+03  0.12700000000E+01 0. -1.
          4   -1    0    0  501    0  0.00000000000E+00 -0.00000000000E+00 -0.45277762226E+01  0.47025160842E+01  0.12700000000E+01 0. -1.
         25    2    1    2    0    0  0.00000000000E+00  0.00000000000E+00  0.84163915122E+03  0.85087039659E+03  0.12499588363E+03 0.  0.
    9000005    1    3    3    0    0  0.17583171169E+02  0.28170419475E+02  0.78116691455E+03  0.78187306440E+03  0.10000000000E+01 0.  0.
    9000005    1    3    3    0    0 -0.17583171169E+02 -0.28170419475E+02  0.60472236671E+02  0.68997332193E+02  0.10000000000E+01 0.  0.
<mgrwt>
<rscale>  0 0.12499588E+03</rscale>
<asrwt>0</asrwt>
<pdfrwt beam="2">  1        4 0.71009566E-03 0.12499588E+03</pdfrwt>
<pdfrwt beam="1">  1       -4 0.13019307E+00 0.12499588E+03</pdfrwt>
<totfact> 0.36094968E+03</totfact>
</mgrwt>
</event>
<event>
 5    1  0.3276024E-002  0.1250129E+03  0.7818608E-02  0.1235049E+00
          4   -1    0    0  501    0  0.00000000000E+00  0.00000000000E+00  0.42769327546E+02  0.42788179194E+02  0.12700000000E+01 0.  1.
         -4   -1    0    0    0  501 -0.00000000000E+00 -0.00000000000E+00 -0.91308467484E+02  0.91317299206E+02  0.12700000000E+01 0.  1.
         25    2    1    2    0    0  0.00000000000E+00  0.00000000000E+00 -0.48539139938E+02  0.13410547840E+03  0.12501292426E+03 0.  0.
    9000005    1    3    3    0    0  0.51310944414E+02  0.10096596534E+02  0.12443975903E+02  0.53764363797E+02  0.10000000000E+01 0.  0.
    9000005    1    3    3    0    0 -0.51310944414E+02 -0.10096596534E+02 -0.60983115841E+02  0.80341114604E+02  0.10000000000E+01 0.  0.
<mgrwt>
<rscale>  0 0.12501292E+03</rscale>
<asrwt>0</asrwt>
<pdfrwt beam="1">  1        4 0.65820260E-02 0.12501292E+03</pdfrwt>
<pdfrwt beam="2">  1       -4 0.14049586E-01 0.12501292E+03</pdfrwt>
<totfact> 0.10253970E+04</totfact>
</mgrwt>
</event>
<event>
 5    1  0.3276024E-002  0.1250006E+03  0.7818608E-02  0.1235068E+00
          4   -1    0    0  501    0  0.00000000000E+00  0.00000000000E+00  0.36090451741E+03  0.36090675193E+03  0.12700000000E+01 0. -1.
         -4   -1    0    0    0  501 -0.00000000000E+00 -0.00000000000E+00 -0.10784072015E+02  0.10858596098E+02  0.12700000000E+01 0. -1.
         25    2    1    2    0    0  0.00000000000E+00  0.00000000000E+00  0.35012044539E+03  0.37176534802E+03  0.12500059083E+03 0.  0.
    9000005    1    3    3    0    0  0.42277165424E+02  0.10710029908E+02  0.30817355062E+03  0.31124588472E+03  0.10000000000E+01 0.  0.
    9000005    1    3    3    0    0 -0.42277165424E+02 -0.10710029908E+02  0.41946894777E+02  0.60519463302E+02  0.10000000000E+01 0.  0.
<mgrwt>
<rscale>  0 0.12500059E+03</rscale>
<asrwt>0</asrwt>
<pdfrwt beam="1">  1        4 0.55529680E-01 0.12500059E+03</pdfrwt>
<pdfrwt beam="2">  1       -4 0.16649924E-02 0.12500059E+03</pdfrwt>
<totfact> 0.67393768E+03</totfact>
</mgrwt>
</event>
<event>
 5    1  0.3276024E-002  0.1250026E+03  0.7818608E-02  0.1235065E+00
          4   -1    0    0  501    0  0.00000000000E+00  0.00000000000E+00  0.36621487252E+02  0.36643501860E+02  0.12700000000E+01 0.  1.
         -4   -1    0    0    0  501 -0.00000000000E+00 -0.00000000000E+00 -0.10661214462E+03  0.10661970869E+03  0.12700000000E+01 0.  1.
         25    2    1    2    0    0  0.00000000000E+00  0.00000000000E+00 -0.69990657370E+02  0.14326321055E+03  0.12500262148E+03 0.  0.
    9000005    1    3    3    0    0  0.22999877848E+02 -0.57870190132E+02 -0.28989537424E+02  0.68697500442E+02  0.10000000000E+01 0.  0.
    9000005    1    3    3    0    0 -0.22999877848E+02  0.57870190132E+02 -0.41001119946E+02  0.74565710107E+02  0.10000000000E+01 0.  0.
<mgrwt>
<rscale>  0 0.12500262E+03</rscale>
<asrwt>0</asrwt>
<pdfrwt beam="1">  1        4 0.56363503E-02 0.12500262E+03</pdfrwt>
<pdfrwt beam="2">  1       -4 0.16404144E-01 0.12500262E+03</pdfrwt>
<totfact> 0.10065802E+04</totfact>
</mgrwt>
</event>
<event>
 5    1  0.3276024E-002  0.1250010E+03  0.7818608E-02  0.1235068E+00
         -4   -1    0    0    0  501 -0.00000000000E+00  0.00000000000E+00  0.26782618015E+03  0.26782919122E+03  0.12700000000E+01 0. -1.
          4   -1    0    0  501    0  0.00000000000E+00 -0.00000000000E+00 -0.14554509995E+02  0.14609813865E+02  0.12700000000E+01 0. -1.
         25    2    1    2    0    0  0.00000000000E+00  0.00000000000E+00  0.25327167015E+03  0.28243900509E+03  0.12500101077E+03 0.  0.
    9000005    1    3    3    0    0 -0.43542720877E+02  0.41950597885E+02  0.16232525044E+03  0.17322328982E+03  0.10000000000E+01 0.  0.
    9000005    1    3    3    0    0  0.43542720877E+02 -0.41950597885E+02  0.90946419708E+02  0.10921571527E+03  0.10000000000E+01 0.  0.
<mgrwt>
<rscale>  0 0.12500101E+03</rscale>
<asrwt>0</asrwt>
<pdfrwt beam="2">  1        4 0.22436412E-02 0.12500101E+03</pdfrwt>
<pdfrwt beam="1">  1       -4 0.41208512E-01 0.12500101E+03</pdfrwt>
<totfact> 0.77854069E+03</totfact>
</mgrwt>
</event>
<event>
 5    1  0.3276024E-002  0.1249964E+03  0.7818608E-02  0.1235075E+00
         -4   -1    0    0    0  501 -0.00000000000E+00  0.00000000000E+00  0.24868361085E+02  0.24900768724E+02  0.12700000000E+01 0.  1.
          4   -1    0    0  501    0  0.00000000000E+00 -0.00000000000E+00 -0.15693074815E+03  0.15693588696E+03  0.12700000000E+01 0.  1.
         25    2    1    2    0    0  0.00000000000E+00  0.00000000000E+00 -0.13206238706E+03  0.18183665568E+03  0.12499638104E+03 0.  0.
    9000005    1    3    3    0    0 -0.33177890425E+02  0.43178645633E+02 -0.11062911797E+03  0.12330843278E+03  0.10000000000E+01 0.  0.
    9000005    1    3    3    0    0  0.33177890425E+02 -0.43178645633E+02 -0.21433269094E+02  0.58528222900E+02  0.10000000000E+01 0.  0.
<mgrwt>
<rscale>  0 0.12499638E+03</rscale>
<asrwt>0</asrwt>
<pdfrwt beam="2">  1        4 0.24146080E-01 0.12499638E+03</pdfrwt>
<pdfrwt beam="1">  1       -4 0.38287900E-02 0.12499638E+03</pdfrwt>
<totfact> 0.93295009E+03</totfact>
</mgrwt>
</event>
<event>
 5    1  0.3276024E-002  0.1250001E+03  0.7818608E-02  0.1235069E+00
         -4   -1    0    0    0  501 -0.00000000000E+00  0.00000000000E+00  0.13912235789E+03  0.13912815446E+03  0.12700000000E+01 0. -1.
          4   -1    0    0  501    0  0.00000000000E+00 -0.00000000000E+00 -0.28057117823E+02  0.28085846267E+02  0.12700000000E+01 0. -1.
         25    2    1    2    0    0  0.00000000000E+00  0.00000000000E+00  0.11106524006E+03  0.16721400073E+03  0.12500013796E+03 0.  0.
    9000005    1    3    3    0    0  0.54737966995E+00  0.52641757938E+02  0.10489216484E+02  0.53688713579E+02  0.10000000000E+01 0.  0.
    9000005    1    3    3    0    0 -0.54737966995E+00 -0.52641757938E+02  0.10057602358E+03  0.11352528715E+03  0.10000000000E+01 0.  0.
<mgrwt>
<rscale>  0 0.12500014E+03</rscale>
<asrwt>0</asrwt>
<pdfrwt beam="2">  1        4 0.43191355E-02 0.12500014E+03</pdfrwt>
<pdfrwt beam="1">  1       -4 0.21406095E-01 0.12500014E+03</pdfrwt>
<totfact> 0.95969434E+03</totfact>
</mgrwt>
</event>
<event>
 5    1  0.3276024E-002  0.1249975E+03  0.7818608E-02  0.1235073E+00
         -4   -1    0    0    0  501 -0.00000000000E+00  0.00000000000E+00  0.78295562671E+02  0.78305862066E+02  0.12700000000E+01 0.  1.
          4   -1    0    0  501    0  0.00000000000E+00 -0.00000000000E+00 -0.49867408339E+02  0.49883577603E+02  0.12700000000E+01 0.  1.
         25    2    1    2    0    0  0.00000000000E+00  0.00000000000E+00  0.28428154332E+02  0.12818943967E+03  0.12499748991E+03 0.  0.
    9000005    1    3    3    0    0  0.50782795434E+02  0.12808227978E+02  0.49174934173E+02  0.71847875174E+02  0.10000000000E+01 0.  0.
    9000005    1    3    3    0    0 -0.50782795434E+02 -0.12808227978E+02 -0.20746779841E+02  0.56341564496E+02  0.10000000000E+01 0.  0.
<mgrwt>
<rscale>  0 0.12499749E+03</rscale>
<asrwt>0</asrwt>
<pdfrwt beam="2">  1        4 0.76739450E-02 0.12499749E+03</pdfrwt>
<pdfrwt beam="1">  1       -4 0.12047507E-01 0.12499749E+03</pdfrwt>
<totfact> 0.10383987E+04</totfact>
</mgrwt>
</event>
<event>
 5    1  0.3276024E-002  0.1250000E+03  0.7818608E-02  0.1235069E+00
          4   -1    0    0  501    0  0.00000000000E+00  0.00000000000E+00  0.14905232670E+02  0.14959239986E+02  0.12700000000E+01 0.  1.
         -4   -1    0    0    0  501 -0.00000000000E+00 -0.00000000000E+00 -0.26154275695E+03  0.26154584037E+03  0.12700000000E+01 0.  1.
         25    2    1    2    0    0  0.00000000000E+00  0.00000000000E+00 -0.24663752428E+03  0.27650508035E+03  0.12499996431E+03 0.  0.
    9000005    1    3    3    0    0  0.30585889499E+02  0.50855639003E+02 -0.16663497644E+03  0.17688981889E+03  0.10000000000E+01 0.  0.
    9000005    1    3    3    0    0 -0.30585889499E+02 -0.50855639003E+02 -0.80002547845E+02  0.99615261464E+02  0.10000000000E+01 0.  0.
<mgrwt>
<rscale>  0 0.12499996E+03</rscale>
<asrwt>0</asrwt>
<pdfrwt beam="1">  1        4 0.22975045E-02 0.12499996E+03</pdfrwt>
<pdfrwt beam="2">  1       -4 0.40241735E-01 0.12499996E+03</pdfrwt>
<totfact> 0.78643864E+03</totfact>
</mgrwt>
</event>
<event>
 5    1  0.3276024E-002  0.1249870E+03  0.7818608E-02  0.1235090E+00
         -4   -1    0    0    0  501 -0.00000000000E+00  0.00000000000E+00  0.19380733922E+04  0.19380738083E+04  0.12700000000E+01 0. -1.
          4   -1    0    0  501    0  0.00000000000E+00 -0.00000000000E+00 -0.18145548809E+01  0.22148384627E+01  0.12700000000E+01 0. -1.
         25    2    1    2    0    0  0.00000000000E+00  0.00000000000E+00  0.19362588373E+04  0.19402886467E+04  0.12498699010E+03 0.  0.
    9000005    1    3    3    0    0  0.15070484429E+02 -0.50015710947E+02  0.15004316697E+04  0.15013410294E+04  0.10000000000E+01 0.  0.
    9000005    1    3    3    0    0 -0.15070484429E+02  0.50015710947E+02  0.43582716754E+03  0.43894761739E+03  0.10000000000E+01 0.  0.
<mgrwt>
<rscale>  0 0.12498699E+03</rscale>
<asrwt>0</asrwt>
<pdfrwt beam="2">  1        4 0.30998561E-03 0.12498699E+03</pdfrwt>
<pdfrwt beam="1">  1       -4 0.29819571E+00 0.12498699E+03</pdfrwt>
<totfact> 0.10663886E+03</totfact>
</mgrwt>
</event>
<event>
 5    1  0.3276024E-002  0.1250027E+03  0.7818608E-02  0.1235065E+00
          4   -1    0    0  501    0  0.00000000000E+00  0.00000000000E+00  0.18137803577E+03  0.18138248196E+03  0.12700000000E+01 0.  1.
         -4   -1    0    0    0  501 -0.00000000000E+00 -0.00000000000E+00 -0.21513988397E+02  0.21551440711E+02  0.12700000000E+01 0.  1.
         25    2    1    2    0    0  0.00000000000E+00  0.00000000000E+00  0.15986404738E+03  0.20293392267E+03  0.12500265328E+03 0.  0.
    9000005    1    3    3    0    0  0.30635131426E+02 -0.34299196481E+02  0.14862603920E+03  0.15558163672E+03  0.10000000000E+01 0.  0.
    9000005    1    3    3    0    0 -0.30635131426E+02  0.34299196481E+02  0.11238008179E+02  0.47352285949E+02  0.10000000000E+01 0.  0.
<mgrwt>
<rscale>  0 0.12500265E+03</rscale>
<asrwt>0</asrwt>
<pdfrwt beam="1">  1        4 0.27907535E-01 0.12500265E+03</pdfrwt>
<pdfrwt beam="2">  1       -4 0.33130675E-02 0.12500265E+03</pdfrwt>
<totfact> 0.89637705E+03</totfact>
</mgrwt>
</event>
<event>
 5    1  0.3276024E-002  0.1250043E+03  0.7818608E-02  0.1235063E+00
         -4   -1    0    0    0  501 -0.00000000000E+00  0.00000000000E+00  0.10970305616E+02  0.11043573031E+02  0.12700000000E+01 0. -1.
          4   -1    0    0  501    0  0.00000000000E+00 -0.00000000000E+00 -0.35483949350E+03  0.35484176621E+03  0.12700000000E+01 0. -1.
         25    2    1    2    0    0  0.00000000000E+00  0.00000000000E+00 -0.34386918789E+03  0.36588533924E+03  0.12500425231E+03 0.  0.
    9000005    1    3    3    0    0 -0.92243426030E+01 -0.61590521830E+02 -0.15671571754E+03  0.16863954755E+03  0.10000000000E+01 0.  0.
    9000005    1    3    3    0    0  0.92243426030E+01  0.61590521830E+02 -0.18715347035E+03  0.19724579169E+03  0.10000000000E+01 0.  0.
<mgrwt>
<rscale>  0 0.12500425E+03</rscale>
<asrwt>0</asrwt>
<pdfrwt beam="2">  1        4 0.54596493E-01 0.12500425E+03</pdfrwt>
<pdfrwt beam="1">  1       -4 0.16935504E-02 0.12500425E+03</pdfrwt>
<totfact> 0.68005225E+03</totfact>
</mgrwt>
</event>
<event>
 5    1  0.3276024E-002  0.1249752E+03  0.7818608E-02  0.1235108E+00
         -4   -1    0    0    0  501 -0.00000000000E+00  0.00000000000E+00  0.84057412759E+02  0.84067006249E+02  0.12700000000E+01 0.  1.
          4   -1    0    0  501    0  0.00000000000E+00 -0.00000000000E+00 -0.46431874199E+02  0.46449239408E+02  0.12700000000E+01 0.  1.
         25    2    1    2    0    0  0.00000000000E+00  0.00000000000E+00  0.37625538560E+02  0.13051624566E+03  0.12497523446E+03 0.  0.
    9000005    1    3    3    0    0  0.15199092349E+01 -0.54733527053E+02 -0.12615233285E+02  0.56197982335E+02  0.10000000000E+01 0.  0.
    9000005    1    3    3    0    0 -0.15199092349E+01  0.54733527053E+02  0.50240771845E+02  0.74318263322E+02  0.10000000000E+01 0.  0.
<mgrwt>
<rscale>  0 0.12497523E+03</rscale>
<asrwt>0</asrwt>
<pdfrwt beam="2">  1        4 0.71454391E-02 0.12497523E+03</pdfrwt>
<pdfrwt beam="1">  1       -4 0.12933983E-01 0.12497523E+03</pdfrwt>
<totfact> 0.10339247E+04</totfact>
</mgrwt>
</event>
<event>
 5    1  0.3276024E-002  0.1249929E+03  0.7818608E-02  0.1235080E+00
         -4   -1    0    0    0  501 -0.00000000000E+00  0.00000000000E+00  0.19284740223E+03  0.19285158399E+03  0.12700000000E+01 0.  1.
          4   -1    0    0  501    0  0.00000000000E+00 -0.00000000000E+00 -0.20229048877E+02  0.20268875610E+02  0.12700000000E+01 0.  1.
         25    2    1    2    0    0  0.00000000000E+00  0.00000000000E+00  0.17261835336E+03  0.21312045960E+03  0.12499293734E+03 0.  0.
    9000005    1    3    3    0    0 -0.49880657965E+02 -0.31531835779E+02  0.51263166833E+02  0.78174477807E+02  0.10000000000E+01 0.  0.
    9000005    1    3    3    0    0  0.49880657965E+02  0.31531835779E+02  0.12135518652E+03  0.13494598179E+03  0.10000000000E+01 0.  0.
<mgrwt>
<rscale>  0 0.12499294E+03</rscale>
<asrwt>0</asrwt>
<pdfrwt beam="2">  1        4 0.31155467E-02 0.12499294E+03</pdfrwt>
<pdfrwt beam="1">  1       -4 0.29672216E-01 0.12499294E+03</pdfrwt>
<totfact> 0.87982679E+03</totfact>
</mgrwt>
</event>
<event>
 5    1  0.3276024E-002  0.1250590E+03  0.7818608E-02  0.1234977E+00
          4   -1    0    0  501    0  0.00000000000E+00  0.00000000000E+00  0.97089812222E+02  0.97098118093E+02  0.12700000000E+01 0.  1.
         -4   -1    0    0    0  501 -0.00000000000E+00 -0.00000000000E+00 -0.40251332823E+02  0.40271363200E+02  0.12700000000E+01 0.  1.
         25    2    1    2    0    0  0.00000000000E+00  0.00000000000E+00  0.56838479399E+02  0.13736948129E+03  0.12505903266E+03 0.  0.
    9000005    1    3    3    0    0 -0.26343693367E+02  0.35820082643E+02 -0.19860437462E+02  0.48708371734E+02  0.10000000000E+01 0.  0.
    9000005    1    3    3    0    0  0.26343693367E+02 -0.35820082643E+02  0.76698916861E+02  0.88661109560E+02  0.10000000000E+01 0.  0.
<mgrwt>
<rscale>  0 0.12505903E+03</rscale>
<asrwt>0</asrwt>
<pdfrwt beam="1">  1        4 0.14939074E-01 0.12505903E+03</pdfrwt>
<pdfrwt beam="2">  1       -4 0.61946925E-02 0.12505903E+03</pdfrwt>
<totfact> 0.10174817E+04</totfact>
</mgrwt>
</event>
<event>
 5    1  0.3276024E-002  0.1249985E+03  0.7818608E-02  0.1235072E+00
          4   -1    0    0  501    0  0.00000000000E+00  0.00000000000E+00  0.37351969326E+03  0.37352185231E+03  0.12700000000E+01 0. -1.
         -4   -1    0    0    0  501 -0.00000000000E+00 -0.00000000000E+00 -0.10416949355E+02  0.10494080897E+02  0.12700000000E+01 0. -1.
         25    2    1    2    0    0  0.00000000000E+00  0.00000000000E+00  0.36310274390E+03  0.38401593320E+03  0.12499853729E+03 0.  0.
    9000005    1    3    3    0    0  0.17874187251E+01 -0.60674781817E+02  0.13592849704E+03  0.14886967563E+03  0.10000000000E+01 0.  0.
    9000005    1    3    3    0    0 -0.17874187251E+01  0.60674781817E+02  0.22717424686E+03  0.23514625757E+03  0.10000000000E+01 0.  0.
<mgrwt>
<rscale>  0 0.12499854E+03</rscale>
<asrwt>0</asrwt>
<pdfrwt beam="1">  1        4 0.57470660E-01 0.12499854E+03</pdfrwt>
<pdfrwt beam="2">  1       -4 0.16087071E-02 0.12499854E+03</pdfrwt>
<totfact> 0.66139787E+03</totfact>
</mgrwt>
</event>
<event>
 5    1  0.3276024E-002  0.1250368E+03  0.7818608E-02  0.1235012E+00
          4   -1    0    0  501    0  0.00000000000E+00  0.00000000000E+00  0.56324492787E+02  0.56338808895E+02  0.12700000000E+01 0. -1.
         -4   -1    0    0    0  501 -0.00000000000E+00 -0.00000000000E+00 -0.69364547295E+02  0.69376172577E+02  0.12700000000E+01 0. -1.
         25    2    1    2    0    0  0.00000000000E+00  0.00000000000E+00 -0.13040054508E+02  0.12571498147E+03  0.12503684875E+03 0.  0.
    9000005    1    3    3    0    0 -0.31178571008E+02  0.25993663981E+02 -0.54314981583E+02  0.67815124284E+02  0.10000000000E+01 0.  0.
    9000005    1    3    3    0    0  0.31178571008E+02 -0.25993663981E+02  0.41274927076E+02  0.57899857188E+02  0.10000000000E+01 0.  0.
<mgrwt>
<rscale>  0 0.12503685E+03</rscale>
<asrwt>0</asrwt>
<pdfrwt beam="1">  1        4 0.86673021E-02 0.12503685E+03</pdfrwt>
<pdfrwt beam="2">  1       -4 0.10673464E-01 0.12503685E+03</pdfrwt>
<totfact> 0.10428542E+04</totfact>
</mgrwt>
</event>
<event>
 4    1  0.3276024E-002  0.1248701E+03  0.7818608E-02  0.1235272E+00
          4   -1    0    0  501    0  0.00000000000E+00  0.00000000000E+00  0.21267166427E+01  0.24770594822E+01  0.12700000000E+01 0.  1.
         -4   -1    0    0    0  501 -0.00000000000E+00 -0.00000000000E+00 -0.16931019871E+04  0.16931024634E+04  0.12700000000E+01 0.  1.
    9000005    1    1    2    0    0  0.31674142419E+02 -0.19613137891E+02 -0.16530082159E+03  0.16944995749E+03  0.10000000000E+01 0.  0.
    9000005    1    1    2    0    0 -0.31674142419E+02  0.19613137891E+02 -0.15256744489E+04  0.15261295654E+04  0.10000000000E+01 0.  0.
<mgrwt>
<rscale>  0 0.12487015E+03</rscale>
<asrwt>0</asrwt>
<pdfrwt beam="1">  1        4 0.35417462E-03 0.12487015E+03</pdfrwt>
<pdfrwt beam="2">  1       -4 0.26050322E+00 0.12487015E+03</pdfrwt>
<totfact> 0.14422905E+03</totfact>
</mgrwt>
</event>
<event>
 5    1  0.3276024E-002  0.1250005E+03  0.7818608E-02  0.1235068E+00
          4   -1    0    0  501    0  0.00000000000E+00  0.00000000000E+00  0.15503544026E+03  0.15504064189E+03  0.12700000000E+01 0.  1.
         -4   -1    0    0    0  501 -0.00000000000E+00 -0.00000000000E+00 -0.25174438940E+02  0.25206453062E+02  0.12700000000E+01 0.  1.
         25    2    1    2    0    0  0.00000000000E+00  0.00000000000E+00  0.12986100132E+03  0.18024709495E+03  0.12500054229E+03 0.  0.
    9000005    1    3    3    0    0  0.52732943825E+02 -0.27616615461E+02  0.92359913568E+02  0.10988536958E+03  0.10000000000E+01 0.  0.
    9000005    1    3    3    0    0 -0.52732943825E+02  0.27616615461E+02  0.37501087753E+02  0.70361725368E+02  0.10000000000E+01 0.  0.
<mgrwt>
<rscale>  0 0.12500054E+03</rscale>
<asrwt>0</asrwt>
<pdfrwt beam="1">  1        4 0.23854469E-01 0.12500054E+03</pdfrwt>
<pdfrwt beam="2">  1       -4 0.38758533E-02 0.12500054E+03</pdfrwt>
<totfact> 0.93571406E+03</totfact>
</mgrwt>
</event>
<event>
 5    1  0.3276024E-002  0.1250089E+03  0.7818608E-02  0.1235055E+00
          4   -1    0    0  501    0  0.00000000000E+00  0.00000000000E+00  0.22788689390E+03  0.22789043269E+03  0.12700000000E+01 0.  1.
         -4   -1    0    0    0  501 -0.00000000000E+00 -0.00000000000E+00 -0.17116410827E+02  0.17163461760E+02  0.12700000000E+01 0.  1.
         25    2    1    2    0    0  0.00000000000E+00  0.00000000000E+00  0.21077048307E+03  0.24505389445E+03  0.12500885829E+03 0.  0.
    9000005    1    3    3    0    0 -0.12447148834E+02  0.82162410644E+01  0.22435682170E+03  0.22485422295E+03  0.10000000000E+01 0.  0.
    9000005    1    3    3    0    0  0.12447148834E+02 -0.82162410644E+01 -0.13586338633E+02  0.20199671502E+02  0.10000000000E+01 0.  0.
<mgrwt>
<rscale>  0 0.12500886E+03</rscale>
<asrwt>0</asrwt>
<pdfrwt beam="1">  1        4 0.35063414E-01 0.12500886E+03</pdfrwt>
<pdfrwt beam="2">  1       -4 0.26371854E-02 0.12500886E+03</pdfrwt>
<totfact> 0.83033996E+03</totfact>
</mgrwt>
</event>
<event>
 5    1  0.3276024E-002  0.1250010E+03  0.7818608E-02  0.1235068E+00
          4   -1    0    0  501    0  0.00000000000E+00  0.00000000000E+00  0.15309600940E+01  0.19891553004E+01  0.12700000000E+01 0. -1.
         -4   -1    0    0    0  501 -0.00000000000E+00 -0.00000000000E+00 -0.22189657629E+04  0.22189661263E+04  0.12700000000E+01 0. -1.
         25    2    1    2    0    0  0.00000000000E+00  0.00000000000E+00 -0.22174348028E+04  0.22209552816E+04  0.12500103331E+03 0.  0.
    9000005    1    3    3    0    0  0.35069237720E+02  0.17295397191E+02 -0.19748408658E+04  0.19752281963E+04  0.10000000000E+01 0.  0.
    9000005    1    3    3    0    0 -0.35069237720E+02 -0.17295397191E+02 -0.24259393694E+03  0.24572708528E+03  0.10000000000E+01 0.  0.
<mgrwt>
<rscale>  0 0.12500103E+03</rscale>
<asrwt>0</asrwt>
<pdfrwt beam="1">  1        4 0.27080784E-03 0.12500103E+03</pdfrwt>
<pdfrwt beam="2">  1       -4 0.34141238E+00 0.12500103E+03</pdfrwt>
<totfact> 0.72459328E+02</totfact>
</mgrwt>
</event>
<event>
 5    1  0.3276024E-002  0.1249978E+03  0.7818608E-02  0.1235073E+00
          4   -1    0    0  501    0  0.00000000000E+00  0.00000000000E+00  0.38316206082E+02  0.38337247535E+02  0.12700000000E+01 0.  1.
         -4   -1    0    0    0  501 -0.00000000000E+00 -0.00000000000E+00 -0.10189119353E+03  0.10189910804E+03  0.12700000000E+01 0.  1.
         25    2    1    2    0    0  0.00000000000E+00  0.00000000000E+00 -0.63574987446E+02  0.14023635557E+03  0.12499782556E+03 0.  0.
    9000005    1    3    3    0    0  0.33515464928E+02 -0.52374867650E+02 -0.38766907734E+02  0.73282237178E+02  0.10000000000E+01 0.  0.
    9000005    1    3    3    0    0 -0.33515464928E+02  0.52374867650E+02 -0.24808079712E+02  0.66954118392E+02  0.10000000000E+01 0.  0.
<mgrwt>
<rscale>  0 0.12499783E+03</rscale>
<asrwt>0</asrwt>
<pdfrwt beam="1">  1        4 0.58970284E-02 0.12499783E+03</pdfrwt>
<pdfrwt beam="2">  1       -4 0.15677796E-01 0.12499783E+03</pdfrwt>
<totfact> 0.10129186E+04</totfact>
</mgrwt>
</event>
<event>
 5    1  0.3276024E-002  0.1249999E+03  0.7818608E-02  0.1235069E+00
         -4   -1    0    0    0  501 -0.00000000000E+00  0.00000000000E+00  0.58293408492E+02  0.58307241177E+02  0.12700000000E+01 0. -1.
          4   -1    0    0  501    0  0.00000000000E+00 -0.00000000000E+00 -0.66982208829E+02  0.66994247511E+02  0.12700000000E+01 0. -1.
         25    2    1    2    0    0  0.00000000000E+00  0.00000000000E+00 -0.86888003368E+01  0.12530148869E+03  0.12499987126E+03 0.  0.
    9000005    1    3    3    0    0 -0.55383836940E+02  0.15261950023E+02 -0.28999386679E+02  0.64360398853E+02  0.10000000000E+01 0.  0.
    9000005    1    3    3    0    0  0.55383836940E+02 -0.15261950023E+02  0.20310586343E+02  0.60941089835E+02  0.10000000000E+01 0.  0.
<mgrwt>
<rscale>  0 0.12499987E+03</rscale>
<asrwt>0</asrwt>
<pdfrwt beam="2">  1        4 0.10306945E-01 0.12499987E+03</pdfrwt>
<pdfrwt beam="1">  1       -4 0.89702068E-02 0.12499987E+03</pdfrwt>
<totfact> 0.10446348E+04</totfact>
</mgrwt>
</event>
<event>
 5    1  0.3276024E-002  0.1249971E+03  0.7818608E-02  0.1235074E+00
         -4   -1    0    0    0  501 -0.00000000000E+00  0.00000000000E+00  0.84184483909E+02  0.84194062920E+02  0.12700000000E+01 0. -1.
          4   -1    0    0  501    0  0.00000000000E+00 -0.00000000000E+00 -0.46377989654E+02  0.46395375032E+02  0.12700000000E+01 0. -1.
         25    2    1    2    0    0  0.00000000000E+00  0.00000000000E+00  0.37806494255E+02  0.13058943795E+03  0.12499708115E+03 0.  0.
    9000005    1    3    3    0    0 -0.25918457440E+02 -0.41200987803E+02  0.59845585975E+02  0.77147793181E+02  0.10000000000E+01 0.  0.
    9000005    1    3    3    0    0  0.25918457440E+02  0.41200987803E+02 -0.22039091720E+02  0.53441644771E+02  0.10000000000E+01 0.  0.
<mgrwt>
<rscale>  0 0.12499708E+03</rscale>
<asrwt>0</asrwt>
<pdfrwt beam="2">  1        4 0.71371495E-02 0.12499708E+03</pdfrwt>
<pdfrwt beam="1">  1       -4 0.12953533E-01 0.12499708E+03</pdfrwt>
<totfact> 0.10332579E+04</totfact>
</mgrwt>
</event>
<event>
 5    1  0.3276024E-002  0.1249987E+03  0.7818608E-02  0.1235071E+00
         -4   -1    0    0    0  501 -0.00000000000E+00  0.00000000000E+00  0.25078963164E+04  0.25078966380E+04  0.12700000000E+01 0. -1.
          4   -1    0    0  501    0  0.00000000000E+00 -0.00000000000E+00 -0.12982873583E+01  0.18161635567E+01  0.12700000000E+01 0. -1.
         25    2    1    2    0    0  0.00000000000E+00  0.00000000000E+00  0.25065980290E+04  0.25097128015E+04  0.12499866768E+03 0.  0.
    9000005    1    3    3    0    0 -0.24780227619E+02 -0.49440958741E+02  0.66907006230E+03  0.67135252763E+03  0.10000000000E+01 0.  0.
    9000005    1    3    3    0    0  0.24780227619E+02  0.49440958741E+02  0.18375279667E+04  0.18383602739E+04  0.10000000000E+01 0.  0.
<mgrwt>
<rscale>  0 0.12499867E+03</rscale>
<asrwt>0</asrwt>
<pdfrwt beam="2">  1        4 0.23959624E-03 0.12499867E+03</pdfrwt>
<pdfrwt beam="1">  1       -4 0.38587272E+00 0.12499867E+03</pdfrwt>
<totfact> 0.45934864E+02</totfact>
</mgrwt>
</event>
<event>
 5    1  0.3276024E-002  0.1250006E+03  0.7818608E-02  0.1235068E+00
         -4   -1    0    0    0  501 -0.00000000000E+00  0.00000000000E+00  0.39605716859E+02  0.39626073587E+02  0.12700000000E+01 0. -1.
          4   -1    0    0  501    0  0.00000000000E+00 -0.00000000000E+00 -0.98579652936E+02  0.98587833291E+02  0.12700000000E+01 0. -1.
         25    2    1    2    0    0  0.00000000000E+00  0.00000000000E+00 -0.58973936077E+02  0.13821390688E+03  0.12500063567E+03 0.  0.
    9000005    1    3    3    0    0  0.19248065830E+02  0.49537089900E+02  0.68650013460E+01  0.53596077818E+02  0.10000000000E+01 0.  0.
    9000005    1    3    3    0    0 -0.19248065830E+02 -0.49537089900E+02 -0.65838937423E+02  0.84617829061E+02  0.10000000000E+01 0.  0.
<mgrwt>
<rscale>  0 0.12500064E+03</rscale>
<asrwt>0</asrwt>
<pdfrwt beam="2">  1        4 0.15168296E-01 0.12500064E+03</pdfrwt>
<pdfrwt beam="1">  1       -4 0.60953824E-02 0.12500064E+03</pdfrwt>
<totfact> 0.10170593E+04</totfact>
</mgrwt>
</event>
<event>
 5    1  0.3276024E-002  0.1250010E+03  0.7818608E-02  0.1235068E+00
         -4   -1    0    0    0  501 -0.00000000000E+00  0.00000000000E+00  0.34006597231E+02  0.34030303484E+02  0.12700000000E+01 0. -1.
          4   -1    0    0  501    0  0.00000000000E+00 -0.00000000000E+00 -0.11480204400E+03  0.11480906849E+03  0.12700000000E+01 0. -1.
         25    2    1    2    0    0  0.00000000000E+00  0.00000000000E+00 -0.80795446769E+02  0.14883937197E+03  0.12500101772E+03 0.  0.
    9000005    1    3    3    0    0  0.45067889043E+02  0.21680872463E+02  0.42201937858E+01  0.50199451084E+02  0.10000000000E+01 0.  0.
    9000005    1    3    3    0    0 -0.45067889043E+02 -0.21680872463E+02 -0.85015640555E+02  0.98639920886E+02  0.10000000000E+01 0.  0.
<mgrwt>
<rscale>  0 0.12500102E+03</rscale>
<asrwt>0</asrwt>
<pdfrwt beam="2">  1        4 0.17664217E-01 0.12500102E+03</pdfrwt>
<pdfrwt beam="1">  1       -4 0.52341482E-02 0.12500102E+03</pdfrwt>
<totfact> 0.99533276E+03</totfact>
</mgrwt>
</event>
<event>
 5    1  0.3276024E-002  0.1249997E+03  0.7818608E-02  0.1235070E+00
         -4   -1    0    0    0  501 -0.00000000000E+00  0.00000000000E+00  0.51273637462E+02  0.51289363406E+02  0.12700000000E+01 0.  1.
          4   -1    0    0  501    0  0.00000000000E+00 -0.00000000000E+00 -0.76151350035E+02  0.76161939394E+02  0.12700000000E+01 0.  1.
         25    2    1    2    0    0  0.00000000000E+00  0.00000000000E+00 -0.24877712573E+02  0.12745130280E+03  0.12499973601E+03 0.  0.
    9000005    1    3    3    0    0 -0.15483427404E+02 -0.45068197772E+02 -0.53658887697E+02  0.71771548705E+02  0.10000000000E+01 0.  0.
    9000005    1    3    3    0    0  0.15483427404E+02  0.45068197772E+02  0.28781175124E+02  0.55679754095E+02  0.10000000000E+01 0.  0.
<mgrwt>
<rscale>  0 0.12499974E+03</rscale>
<asrwt>0</asrwt>
<pdfrwt beam="2">  1        4 0.11717617E-01 0.12499974E+03</pdfrwt>
<pdfrwt beam="1">  1       -4 0.78902762E-02 0.12499974E+03</pdfrwt>
<totfact> 0.10399417E+04</totfact>
</mgrwt>
</event>
<event>
 5    1  0.3276024E-002  0.1250016E+03  0.7818608E-02  0.1235067E+00
          4   -1    0    0  501    0  0.00000000000E+00  0.00000000000E+00  0.26533636985E+02  0.26564013094E+02  0.12700000000E+01 0. -1.
         -4   -1    0    0    0  501 -0.00000000000E+00 -0.00000000000E+00 -0.14710519840E+03  0.14711068043E+03  0.12700000000E+01 0. -1.
         25    2    1    2    0    0  0.00000000000E+00  0.00000000000E+00 -0.12057156141E+03  0.17367469352E+03  0.12500159098E+03 0.  0.
    9000005    1    3    3    0    0 -0.21850604769E+02  0.51726348775E+02 -0.22178118843E+02  0.60381562101E+02  0.10000000000E+01 0.  0.
    9000005    1    3    3    0    0  0.21850604769E+02 -0.51726348775E+02 -0.98393442569E+02  0.11329313142E+03  0.10000000000E+01 0.  0.
<mgrwt>
<rscale>  0 0.12500159E+03</rscale>
<asrwt>0</asrwt>
<pdfrwt beam="1">  1        4 0.40848564E-02 0.12500159E+03</pdfrwt>
<pdfrwt beam="2">  1       -4 0.22634327E-01 0.12500159E+03</pdfrwt>
<totfact> 0.94764747E+03</totfact>
</mgrwt>
</event>
<event>
 5    1  0.3276024E-002  0.1249940E+03  0.7818608E-02  0.1235079E+00
          4   -1    0    0  501    0  0.00000000000E+00  0.00000000000E+00  0.52124839719E+02  0.52140308934E+02  0.12700000000E+01 0. -1.
         -4   -1    0    0    0  501 -0.00000000000E+00 -0.00000000000E+00 -0.74901140905E+02  0.74911906990E+02  0.12700000000E+01 0. -1.
         25    2    1    2    0    0  0.00000000000E+00  0.00000000000E+00 -0.22776301186E+02  0.12705221592E+03  0.12499402256E+03 0.  0.
    9000005    1    3    3    0    0  0.25045737195E+02 -0.43950653487E+00  0.46803053855E+02  0.53094330844E+02  0.10000000000E+01 0.  0.
    9000005    1    3    3    0    0 -0.25045737195E+02  0.43950653487E+00 -0.69579355041E+02  0.73957885080E+02  0.10000000000E+01 0.  0.
<mgrwt>
<rscale>  0 0.12499402E+03</rscale>
<asrwt>0</asrwt>
<pdfrwt beam="1">  1        4 0.80212242E-02 0.12499402E+03</pdfrwt>
<pdfrwt beam="2">  1       -4 0.11525271E-01 0.12499402E+03</pdfrwt>
<totfact> 0.10409416E+04</totfact>
</mgrwt>
</event>
<event>
 5    1  0.3276024E-002  0.1249983E+03  0.7818608E-02  0.1235072E+00
         -4   -1    0    0    0  501 -0.00000000000E+00  0.00000000000E+00  0.22252914565E+03  0.22253276964E+03  0.12700000000E+01 0.  1.
          4   -1    0    0  501    0  0.00000000000E+00 -0.00000000000E+00 -0.17526651715E+02  0.17572604256E+02  0.12700000000E+01 0.  1.
         25    2    1    2    0    0  0.00000000000E+00  0.00000000000E+00  0.20500249394E+03  0.24010537390E+03  0.12499827221E+03 0.  0.
    9000005    1    3    3    0    0 -0.35758467792E+02  0.37660360713E+02  0.16926828565E+03  0.17705853076E+03  0.10000000000E+01 0.  0.
    9000005    1    3    3    0    0  0.35758467792E+02 -0.37660360713E+02  0.35734208285E+02  0.63046843137E+02  0.10000000000E+01 0.  0.
<mgrwt>
<rscale>  0 0.12499827E+03</rscale>
<asrwt>0</asrwt>
<pdfrwt beam="2">  1        4 0.27002213E-02 0.12499827E+03</pdfrwt>
<pdfrwt beam="1">  1       -4 0.34239069E-01 0.12499827E+03</pdfrwt>
<totfact> 0.83784900E+03</totfact>
</mgrwt>
</event>
<event>
 5    1  0.3276024E-002  0.1250020E+03  0.7818608E-02  0.1235066E+00
          4   -1    0    0  501    0  0.00000000000E+00  0.00000000000E+00  0.91008828301E+01  0.91890678682E+01  0.12700000000E+01 0. -1.
         -4   -1    0    0    0  501 -0.00000000000E+00 -0.00000000000E+00 -0.42707165712E+03  0.42707354544E+03  0.12700000000E+01 0. -1.
         25    2    1    2    0    0  0.00000000000E+00  0.00000000000E+00 -0.41797077429E+03  0.43626261331E+03  0.12500199843E+03 0.  0.
    9000005    1    3    3    0    0 -0.18710542797E+01  0.56467159663E+02 -0.11577217293E+03  0.12882638312E+03  0.10000000000E+01 0.  0.
    9000005    1    3    3    0    0  0.18710542797E+01 -0.56467159663E+02 -0.30219860136E+03  0.30743623019E+03  0.10000000000E+01 0.  0.
<mgrwt>
<rscale>  0 0.12500200E+03</rscale>
<asrwt>0</asrwt>
<pdfrwt beam="1">  1        4 0.14070649E-02 0.12500200E+03</pdfrwt>
<pdfrwt beam="2">  1       -4 0.65710245E-01 0.12500200E+03</pdfrwt>
<totfact> 0.61169710E+03</totfact>
</mgrwt>
</event>
<event>
 5    1  0.3276024E-002  0.1249993E+03  0.7818608E-02  0.1235070E+00
          4   -1    0    0  501    0  0.00000000000E+00  0.00000000000E+00  0.40706680810E+01  0.42641808856E+01  0.12700000000E+01 0.  1.
         -4   -1    0    0    0  501 -0.00000000000E+00 -0.00000000000E+00 -0.93712545820E+03  0.93712631876E+03  0.12700000000E+01 0.  1.
         25    2    1    2    0    0  0.00000000000E+00  0.00000000000E+00 -0.93305479012E+03  0.94139049965E+03  0.12499932581E+03 0.  0.
    9000005    1    3    3    0    0 -0.13153554808E+00 -0.13457907237E+02 -0.69365520916E+01  0.15173935670E+02  0.10000000000E+01 0.  0.
    9000005    1    3    3    0    0  0.13153554808E+00  0.13457907237E+02 -0.92611823803E+03  0.92621656398E+03  0.10000000000E+01 0.  0.
<mgrwt>
<rscale>  0 0.12499933E+03</rscale>
<asrwt>0</asrwt>
<pdfrwt beam="1">  1        4 0.64120917E-03 0.12499933E+03</pdfrwt>
<pdfrwt beam="2">  1       -4 0.14418793E+00 0.12499933E+03</pdfrwt>
<totfact> 0.32624147E+03</totfact>
</mgrwt>
</event>
<event>
 5    1  0.3276024E-002  0.1250003E+03  0.7818608E-02  0.1235069E+00
         -4   -1    0    0    0  501 -0.00000000000E+00  0.00000000000E+00  0.18773741864E+03  0.18774171422E+03  0.12700000000E+01 0.  1.
          4   -1    0    0  501    0  0.00000000000E+00 -0.00000000000E+00 -0.20783153618E+02  0.20821920524E+02  0.12700000000E+01 0.  1.
         25    2    1    2    0    0  0.00000000000E+00  0.00000000000E+00  0.16695426503E+03  0.20856363475E+03  0.12500025251E+03 0.  0.
    9000005    1    3    3    0    0 -0.98861568927E+00 -0.19165568573E+02  0.18270721400E+03  0.18371505770E+03  0.10000000000E+01 0.  0.
    9000005    1    3    3    0    0  0.98861568927E+00  0.19165568573E+02 -0.15752948973E+02  0.24848577043E+02  0.10000000000E+01 0.  0.
<mgrwt>
<rscale>  0 0.12500025E+03</rscale>
<asrwt>0</asrwt>
<pdfrwt beam="2">  1        4 0.32007205E-02 0.12500025E+03</pdfrwt>
<pdfrwt beam="1">  1       -4 0.28885994E-01 0.12500025E+03</pdfrwt>
<totfact> 0.88710493E+03</totfact>
</mgrwt>
</event>
<event>
 5    1  0.3276024E-002  0.1249813E+03  0.7818608E-02  0.1235098E+00
          4   -1    0    0  501    0  0.00000000000E+00  0.00000000000E+00  0.14231909999E+02  0.14288462557E+02  0.12700000000E+01 0.  1.
         -4   -1    0    0    0  501 -0.00000000000E+00 -0.00000000000E+00 -0.27378712449E+03  0.27379007001E+03  0.12700000000E+01 0.  1.
         25    2    1    2    0    0  0.00000000000E+00  0.00000000000E+00 -0.25955521449E+03  0.28807853257E+03  0.12498132483E+03 0.  0.
    9000005    1    3    3    0    0  0.64970101205E+01  0.57376771014E+02 -0.74757862525E+02  0.94467153031E+02  0.10000000000E+01 0.  0.
    9000005    1    3    3    0    0 -0.64970101205E+01 -0.57376771014E+02 -0.18479735197E+03  0.19361137954E+03  0.10000000000E+01 0.  0.
<mgrwt>
<rscale>  0 0.12498132E+03</rscale>
<asrwt>0</asrwt>
<pdfrwt beam="1">  1        4 0.21941016E-02 0.12498132E+03</pdfrwt>
<pdfrwt beam="2">  1       -4 0.42125669E-01 0.12498132E+03</pdfrwt>
<totfact> 0.77151007E+03</totfact>
</mgrwt>
</event>
<event>
 5    1  0.3276024E-002  0.1249993E+03  0.7818608E-02  0.1235070E+00
         -4   -1    0    0    0  501 -0.00000000000E+00  0.00000000000E+00  0.75930047089E+03  0.75930153298E+03  0.12700000000E+01 0. -1.
          4   -1    0    0  501    0  0.00000000000E+00 -0.00000000000E+00 -0.50650147767E+01  0.52218076074E+01  0.12700000000E+01 0. -1.
         25    2    1    2    0    0  0.00000000000E+00  0.00000000000E+00  0.75423545611E+03  0.76452334059E+03  0.12499926021E+03 0.  0.
    9000005    1    3    3    0    0  0.93674317068E+01 -0.31004649172E+02  0.50247713013E+02  0.59790214166E+02  0.10000000000E+01 0.  0.
    9000005    1    3    3    0    0 -0.93674317068E+01  0.31004649172E+02  0.70398774310E+03  0.70473312642E+03  0.10000000000E+01 0.  0.
<mgrwt>
<rscale>  0 0.12499926E+03</rscale>
<asrwt>0</asrwt>
<pdfrwt beam="2">  1        4 0.79137593E-03 0.12499926E+03</pdfrwt>
<pdfrwt beam="1">  1       -4 0.11682757E+00 0.12499926E+03</pdfrwt>
<totfact> 0.39889587E+03</totfact>
</mgrwt>
</event>
<event>
 5    1  0.3276024E-002  0.1249985E+03  0.7818608E-02  0.1235072E+00
         -4   -1    0    0    0  501 -0.00000000000E+00  0.00000000000E+00  0.64618735716E+01  0.65854923928E+01  0.12700000000E+01 0. -1.
          4   -1    0    0  501    0  0.00000000000E+00 -0.00000000000E+00 -0.59864083647E+03  0.59864218361E+03  0.12700000000E+01 0. -1.
         25    2    1    2    0    0  0.00000000000E+00  0.00000000000E+00 -0.59217896290E+03  0.60522767600E+03  0.12499846276E+03 0.  0.
    9000005    1    3    3    0    0 -0.55804816335E+02 -0.59955532387E+01 -0.16304522337E+03  0.17243801509E+03  0.10000000000E+01 0.  0.
    9000005    1    3    3    0    0  0.55804816335E+02  0.59955532387E+01 -0.42913373953E+03  0.43278966091E+03  0.10000000000E+01 0.  0.
<mgrwt>
<rscale>  0 0.12499846E+03</rscale>
<asrwt>0</asrwt>
<pdfrwt beam="2">  1        4 0.92108159E-01 0.12499846E+03</pdfrwt>
<pdfrwt beam="1">  1       -4 0.10037476E-02 0.12499846E+03</pdfrwt>
<totfact> 0.48540931E+03</totfact>
</mgrwt>
</event>
<event>
 5    1  0.3276024E-002  0.1250062E+03  0.7818608E-02  0.1235060E+00
         -4   -1    0    0    0  501 -0.00000000000E+00  0.00000000000E+00  0.48227353200E+03  0.48227520418E+03  0.12700000000E+01 0. -1.
          4   -1    0    0  501    0  0.00000000000E+00 -0.00000000000E+00 -0.80489834861E+01  0.81485603120E+01  0.12700000000E+01 0. -1.
         25    2    1    2    0    0  0.00000000000E+00  0.00000000000E+00  0.47422454852E+03  0.49042376450E+03  0.12500618531E+03 0.  0.
    9000005    1    3    3    0    0  0.32727448769E+02 -0.10034779162E+01  0.28276468046E+02  0.43274143735E+02  0.10000000000E+01 0.  0.
    9000005    1    3    3    0    0 -0.32727448769E+02  0.10034779162E+01  0.44594808047E+03  0.44714962076E+03  0.10000000000E+01 0.  0.
<mgrwt>
<rscale>  0 0.12500619E+03</rscale>
<asrwt>0</asrwt>
<pdfrwt beam="2">  1        4 0.12460932E-02 0.12500619E+03</pdfrwt>
<pdfrwt beam="1">  1       -4 0.74203736E-01 0.12500619E+03</pdfrwt>
<totfact> 0.56607382E+03</totfact>
</mgrwt>
</event>
<event>
 5    1  0.3276024E-002  0.1250020E+03  0.7818608E-02  0.1235066E+00
         -4   -1    0    0    0  501 -0.00000000000E+00  0.00000000000E+00  0.22231494694E+01  0.25603307527E+01  0.12700000000E+01 0.  1.
          4   -1    0    0  501    0  0.00000000000E+00 -0.00000000000E+00 -0.16329399817E+04  0.16329404756E+04  0.12700000000E+01 0.  1.
         25    2    1    2    0    0  0.00000000000E+00  0.00000000000E+00 -0.16307168323E+04  0.16355008064E+04  0.12500200215E+03 0.  0.
    9000005    1    3    3    0    0  0.52913291293E+02  0.23443264463E+02 -0.50685477858E+03  0.51014916408E+03  0.10000000000E+01 0.  0.
    9000005    1    3    3    0    0 -0.52913291293E+02 -0.23443264463E+02 -0.11238620537E+04  0.11253516423E+04  0.10000000000E+01 0.  0.
<mgrwt>
<rscale>  0 0.12500200E+03</rscale>
<asrwt>0</asrwt>
<pdfrwt beam="2">  1        4 0.25124662E+00 0.12500200E+03</pdfrwt>
<pdfrwt beam="1">  1       -4 0.36799931E-03 0.12500200E+03</pdfrwt>
<totfact> 0.15412346E+03</totfact>
</mgrwt>
</event>
<event>
 5    1  0.3276024E-002  0.1250007E+03  0.7818608E-02  0.1235068E+00
         -4   -1    0    0    0  501 -0.00000000000E+00  0.00000000000E+00  0.24390530861E+03  0.24390861499E+03  0.12700000000E+01 0.  1.
          4   -1    0    0  501    0  0.00000000000E+00 -0.00000000000E+00 -0.15987011768E+02  0.16037376508E+02  0.12700000000E+01 0.  1.
         25    2    1    2    0    0  0.00000000000E+00  0.00000000000E+00  0.22791829684E+03  0.25994599150E+03  0.12500067385E+03 0.  0.
    9000005    1    3    3    0    0  0.40450746337E+02 -0.46092063977E+02  0.13896151581E+03  0.15189484559E+03  0.10000000000E+01 0.  0.
    9000005    1    3    3    0    0 -0.40450746337E+02  0.46092063977E+02  0.88956781032E+02  0.10805114591E+03  0.10000000000E+01 0.  0.
<mgrwt>
<rscale>  0 0.12500067E+03</rscale>
<asrwt>0</asrwt>
<pdfrwt beam="2">  1        4 0.24636690E-02 0.12500067E+03</pdfrwt>
<pdfrwt beam="1">  1       -4 0.37528019E-01 0.12500067E+03</pdfrwt>
<totfact> 0.80912428E+03</totfact>
</mgrwt>
</event>
<event>
 5    1  0.3276024E-002  0.1249994E+03  0.7818608E-02  0.1235070E+00
         -4   -1    0    0    0  501 -0.00000000000E+00  0.00000000000E+00  0.31028374000E+01  0.33526854804E+01  0.12700000000E+01 0.  1.
          4   -1    0    0  501    0  0.00000000000E+00 -0.00000000000E+00 -0.12099416841E+04  0.12099423506E+04  0.12700000000E+01 0.  1.
         25    2    1    2    0    0  0.00000000000E+00  0.00000000000E+00 -0.12068388467E+04  0.12132950361E+04  0.12499937088E+03 0.  0.
    9000005    1    3    3    0    0 -0.30094268460E+02  0.45559198627E+02 -0.89845356597E+03  0.90011172405E+03  0.10000000000E+01 0.  0.
    9000005    1    3    3    0    0  0.30094268460E+02 -0.45559198627E+02 -0.30838528073E+03  0.31318331205E+03  0.10000000000E+01 0.  0.
<mgrwt>
<rscale>  0 0.12499937E+03</rscale>
<asrwt>0</asrwt>
<pdfrwt beam="2">  1        4 0.18616378E+00 0.12499937E+03</pdfrwt>
<pdfrwt beam="1">  1       -4 0.49663092E-03 0.12499937E+03</pdfrwt>
<totfact> 0.24367779E+03</totfact>
</mgrwt>
</event>
<event>
 5    1  0.3276024E-002  0.1250049E+03  0.7818608E-02  0.1235062E+00
          4   -1    0    0  501    0  0.00000000000E+00  0.00000000000E+00  0.24075620691E+02  0.24109093961E+02  0.12700000000E+01 0. -1.
         -4   -1    0    0    0  501 -0.00000000000E+00 -0.00000000000E+00 -0.16211315035E+03  0.16211812489E+03  0.12700000000E+01 0. -1.
         25    2    1    2    0    0  0.00000000000E+00  0.00000000000E+00 -0.13803752966E+03  0.18622721885E+03  0.12500486969E+03 0.  0.
    9000005    1    3    3    0    0 -0.18134966078E+02  0.35013750327E+02  0.32109970572E+01  0.39574615712E+02  0.10000000000E+01 0.  0.
    9000005    1    3    3    0    0  0.18134966078E+02 -0.35013750327E+02 -0.14124852672E+03  0.14665260314E+03  0.10000000000E+01 0.  0.
<mgrwt>
<rscale>  0 0.12500487E+03</rscale>
<asrwt>0</asrwt>
<pdfrwt beam="1">  1        4 0.37068993E-02 0.12500487E+03</pdfrwt>
<pdfrwt beam="2">  1       -4 0.24943442E-01 0.12500487E+03</pdfrwt>
<totfact> 0.92497848E+03</totfact>
</mgrwt>
</event>
<event>
 5    1  0.3276024E-002  0.1249839E+03  0.7818608E-02  0.1235094E+00
          4   -1    0    0  501    0  0.00000000000E+00  0.00000000000E+00  0.49186538831E+02  0.49202931845E+02  0.12700000000E+01 0.  1.
         -4   -1    0    0    0  501 -0.00000000000E+00 -0.00000000000E+00 -0.79361917740E+02  0.79372078764E+02  0.12700000000E+01 0.  1.
         25    2    1    2    0    0  0.00000000000E+00  0.00000000000E+00 -0.30175378909E+02  0.12857501061E+03  0.12498391841E+03 0.  0.
    9000005    1    3    3    0    0  0.57967479684E+02  0.22046680604E+02 -0.22919589577E+02  0.66125580625E+02  0.10000000000E+01 0.  0.
    9000005    1    3    3    0    0 -0.57967479684E+02 -0.22046680604E+02 -0.72557893317E+01  0.62449429985E+02  0.10000000000E+01 0.  0.
<mgrwt>
<rscale>  0 0.12498392E+03</rscale>
<asrwt>0</asrwt>
<pdfrwt beam="1">  1        4 0.75692024E-02 0.12498392E+03</pdfrwt>
<pdfrwt beam="2">  1       -4 0.12211568E-01 0.12498392E+03</pdfrwt>
<totfact> 0.10378856E+04</totfact>
</mgrwt>
</event>
<event>
 5    1  0.3276024E-002  0.1249955E+03  0.7818608E-02  0.1235076E+00
         -4   -1    0    0    0  501 -0.00000000000E+00  0.00000000000E+00  0.51858800465E+02  0.51874349014E+02  0.12700000000E+01 0.  1.
          4   -1    0    0  501    0  0.00000000000E+00 -0.00000000000E+00 -0.75287072973E+02  0.75297783878E+02  0.12700000000E+01 0.  1.
         25    2    1    2    0    0  0.00000000000E+00  0.00000000000E+00 -0.23428272508E+02  0.12717213289E+03  0.12499546964E+03 0.  0.
    9000005    1    3    3    0    0  0.12336921794E+02  0.60013679811E+02  0.79324798200E+00  0.61281894930E+02  0.10000000000E+01 0.  0.
    9000005    1    3    3    0    0 -0.12336921794E+02 -0.60013679811E+02 -0.24221520490E+02  0.65890237962E+02  0.10000000000E+01 0.  0.
<mgrwt>
<rscale>  0 0.12499547E+03</rscale>
<asrwt>0</asrwt>
<pdfrwt beam="2">  1        4 0.11584647E-01 0.12499547E+03</pdfrwt>
<pdfrwt beam="1">  1       -4 0.79802969E-02 0.12499547E+03</pdfrwt>
<totfact> 0.10406472E+04</totfact>
</mgrwt>
</event>
<event>
 5    1  0.3276024E-002  0.1250005E+03  0.7818608E-02  0.1235068E+00
         -4   -1    0    0    0  501 -0.00000000000E+00  0.00000000000E+00  0.28919574502E+03  0.28919853360E+03  0.12700000000E+01 0.  1.
          4   -1    0    0  501    0  0.00000000000E+00 -0.00000000000E+00 -0.13474684260E+02  0.13534401202E+02  0.12700000000E+01 0.  1.
         25    2    1    2    0    0  0.00000000000E+00  0.00000000000E+00  0.27572106076E+03  0.30273293480E+03  0.12500050587E+03 0.  0.
    9000005    1    3    3    0    0  0.56543399176E+01  0.56324511733E+02  0.73744981763E+02  0.92971740422E+02  0.10000000000E+01 0.  0.
    9000005    1    3    3    0    0 -0.56543399176E+01 -0.56324511733E+02  0.20197607899E+03  0.20976119438E+03  0.10000000000E+01 0.  0.
<mgrwt>
<rscale>  0 0.12500051E+03</rscale>
<asrwt>0</asrwt>
<pdfrwt beam="2">  1        4 0.20778366E-02 0.12500051E+03</pdfrwt>
<pdfrwt beam="1">  1       -4 0.44496458E-01 0.12500051E+03</pdfrwt>
<totfact> 0.75256454E+03</totfact>
</mgrwt>
</event>
<event>
 5    1  0.3276024E-002  0.1249971E+03  0.7818608E-02  0.1235074E+00
          4   -1    0    0  501    0  0.00000000000E+00  0.00000000000E+00  0.16279489258E+03  0.16279984628E+03  0.12700000000E+01 0.  1.
         -4   -1    0    0    0  501 -0.00000000000E+00 -0.00000000000E+00 -0.23971668010E+02  0.24005286234E+02  0.12700000000E+01 0.  1.
         25    2    1    2    0    0  0.00000000000E+00  0.00000000000E+00  0.13882322457E+03  0.18680513252E+03  0.12499707938E+03 0.  0.
    9000005    1    3    3    0    0 -0.51039651522E+02 -0.14189142924E+02  0.11894824220E+03  0.13021544504E+03  0.10000000000E+01 0.  0.
    9000005    1    3    3    0    0  0.51039651522E+02  0.14189142924E+02  0.19874982367E+02  0.56589687475E+02  0.10000000000E+01 0.  0.
<mgrwt>
<rscale>  0 0.12499708E+03</rscale>
<asrwt>0</asrwt>
<pdfrwt beam="1">  1        4 0.25048336E-01 0.12499708E+03</pdfrwt>
<pdfrwt beam="2">  1       -4 0.36909158E-02 0.12499708E+03</pdfrwt>
<totfact> 0.92412248E+03</totfact>
</mgrwt>
</event>
<event>
 5    1  0.3276024E-002  0.1249813E+03  0.7818608E-02  0.1235098E+00
          4   -1    0    0  501    0  0.00000000000E+00  0.00000000000E+00  0.27786272115E+03  0.27786562346E+03  0.12700000000E+01 0. -1.
         -4   -1    0    0    0  501 -0.00000000000E+00 -0.00000000000E+00 -0.14022329183E+02  0.14079723566E+02  0.12700000000E+01 0. -1.
         25    2    1    2    0    0  0.00000000000E+00  0.00000000000E+00  0.26384039196E+03  0.29194534703E+03  0.12498133149E+03 0.  0.
    9000005    1    3    3    0    0  0.57075106326E+02 -0.20764919340E+02  0.97642440228E+02  0.11499476410E+03  0.10000000000E+01 0.  0.
    9000005    1    3    3    0    0 -0.57075106326E+02  0.20764919340E+02  0.16619795174E+03  0.17695058293E+03  0.10000000000E+01 0.  0.
<mgrwt>
<rscale>  0 0.12498133E+03</rscale>
<asrwt>0</asrwt>
<pdfrwt beam="1">  1        4 0.42752749E-01 0.12498133E+03</pdfrwt>
<pdfrwt beam="2">  1       -4 0.21619196E-02 0.12498133E+03</pdfrwt>
<totfact> 0.76652214E+03</totfact>
</mgrwt>
</event>
<event>
 5    1  0.3276024E-002  0.1250019E+03  0.7818608E-02  0.1235066E+00
          4   -1    0    0  501    0  0.00000000000E+00  0.00000000000E+00  0.92283039748E+02  0.92291778210E+02  0.12700000000E+01 0.  1.
         -4   -1    0    0    0  501 -0.00000000000E+00 -0.00000000000E+00 -0.42310020531E+02  0.42329076736E+02  0.12700000000E+01 0.  1.
         25    2    1    2    0    0  0.00000000000E+00  0.00000000000E+00  0.49973019217E+02  0.13462085495E+03  0.12500188773E+03 0.  0.
    9000005    1    3    3    0    0  0.34601858514E+01  0.49663196915E+02  0.65668479325E+02  0.82412105852E+02  0.10000000000E+01 0.  0.
    9000005    1    3    3    0    0 -0.34601858514E+01 -0.49663196915E+02 -0.15695460109E+02  0.52208749094E+02  0.10000000000E+01 0.  0.
<mgrwt>
<rscale>  0 0.12500189E+03</rscale>
<asrwt>0</asrwt>
<pdfrwt beam="1">  1        4 0.14199529E-01 0.12500189E+03</pdfrwt>
<pdfrwt beam="2">  1       -4 0.65113720E-02 0.12500189E+03</pdfrwt>
<totfact> 0.10245632E+04</totfact>
</mgrwt>
</event>
<event>
 5    1  0.3276024E-002  0.1249997E+03  0.7818608E-02  0.1235070E+00
          4   -1    0    0  501    0  0.00000000000E+00  0.00000000000E+00  0.43631118980E+02  0.43649598434E+02  0.12700000000E+01 0. -1.
         -4   -1    0    0    0  501 -0.00000000000E+00 -0.00000000000E+00 -0.89486628266E+02  0.89495639773E+02  0.12700000000E+01 0. -1.
         25    2    1    2    0    0  0.00000000000E+00  0.00000000000E+00 -0.45855509286E+02  0.13314523821E+03  0.12499970690E+03 0.  0.
    9000005    1    3    3    0    0  0.38887283245E+02 -0.28744767775E+02  0.19233777660E+02  0.52052095786E+02  0.10000000000E+01 0.  0.
    9000005    1    3    3    0    0 -0.38887283245E+02  0.28744767775E+02 -0.65089286946E+02  0.81093142421E+02  0.10000000000E+01 0.  0.
<mgrwt>
<rscale>  0 0.12499971E+03</rscale>
<asrwt>0</asrwt>
<pdfrwt beam="1">  1        4 0.67145946E-02 0.12499971E+03</pdfrwt>
<pdfrwt beam="2">  1       -4 0.13769288E-01 0.12499971E+03</pdfrwt>
<totfact> 0.10277382E+04</totfact>
</mgrwt>
</event>
<event>
 5    1  0.3276024E-002  0.1249984E+03  0.7818608E-02  0.1235072E+00
         -4   -1    0    0    0  501 -0.00000000000E+00  0.00000000000E+00  0.10137964564E+02  0.10217202430E+02  0.12700000000E+01 0. -1.
          4   -1    0    0  501    0  0.00000000000E+00 -0.00000000000E+00 -0.38371906938E+03  0.38372117105E+03  0.12700000000E+01 0. -1.
         25    2    1    2    0    0  0.00000000000E+00  0.00000000000E+00 -0.37358110482E+03  0.39393837348E+03  0.12499840086E+03 0.  0.
    9000005    1    3    3    0    0  0.33655917362E+02  0.48884982158E+02 -0.12513869869E+03  0.13850327131E+03  0.10000000000E+01 0.  0.
    9000005    1    3    3    0    0 -0.33655917362E+02 -0.48884982158E+02 -0.24844240613E+03  0.25543510216E+03  0.10000000000E+01 0.  0.
<mgrwt>
<rscale>  0 0.12499840E+03</rscale>
<asrwt>0</asrwt>
<pdfrwt beam="2">  1        4 0.59039949E-01 0.12499840E+03</pdfrwt>
<pdfrwt beam="1">  1       -4 0.15659440E-02 0.12499840E+03</pdfrwt>
<totfact> 0.65148942E+03</totfact>
</mgrwt>
</event>
<event>
 5    1  0.3276024E-002  0.1250052E+03  0.7818608E-02  0.1235061E+00
         -4   -1    0    0    0  501 -0.00000000000E+00  0.00000000000E+00  0.21540240107E+03  0.21540614496E+03  0.12700000000E+01 0. -1.
          4   -1    0    0  501    0  0.00000000000E+00 -0.00000000000E+00 -0.18110027830E+02  0.18154503794E+02  0.12700000000E+01 0. -1.
         25    2    1    2    0    0  0.00000000000E+00  0.00000000000E+00  0.19729237324E+03  0.23356064876E+03  0.12500518433E+03 0.  0.
    9000005    1    3    3    0    0  0.60387521810E+02  0.73803536800E+01  0.12536190903E+03  0.13934751754E+03  0.10000000000E+01 0.  0.
    9000005    1    3    3    0    0 -0.60387521810E+02 -0.73803536800E+01  0.71930464215E+02  0.94213131213E+02  0.10000000000E+01 0.  0.
<mgrwt>
<rscale>  0 0.12500518E+03</rscale>
<asrwt>0</asrwt>
<pdfrwt beam="2">  1        4 0.27898674E-02 0.12500518E+03</pdfrwt>
<pdfrwt beam="1">  1       -4 0.33142539E-01 0.12500518E+03</pdfrwt>
<totfact> 0.84756037E+03</totfact>
</mgrwt>
</event>
<event>
 5    1  0.3276024E-002  0.1250002E+03  0.7818608E-02  0.1235069E+00
         -4   -1    0    0    0  501 -0.00000000000E+00  0.00000000000E+00  0.66780113010E+01  0.67977007096E+01  0.12700000000E+01 0.  1.
          4   -1    0    0  501    0  0.00000000000E+00 -0.00000000000E+00 -0.57962812966E+03  0.57962952098E+03  0.12700000000E+01 0.  1.
         25    2    1    2    0    0  0.00000000000E+00  0.00000000000E+00 -0.57295011836E+03  0.58642722169E+03  0.12500019285E+03 0.  0.
    9000005    1    3    3    0    0 -0.49032539378E+02 -0.21827791442E+02 -0.43664561228E+03  0.43993298708E+03  0.10000000000E+01 0.  0.
    9000005    1    3    3    0    0  0.49032539378E+02  0.21827791442E+02 -0.13630450608E+03  0.14649423461E+03  0.10000000000E+01 0.  0.
<mgrwt>
<rscale>  0 0.12500019E+03</rscale>
<asrwt>0</asrwt>
<pdfrwt beam="2">  1        4 0.89182833E-01 0.12500019E+03</pdfrwt>
<pdfrwt beam="1">  1       -4 0.10367007E-02 0.12500019E+03</pdfrwt>
<totfact> 0.49735532E+03</totfact>
</mgrwt>
</event>
<event>
 5    1  0.3276024E-002  0.1249984E+03  0.7818608E-02  0.1235072E+00
         -4   -1    0    0    0  501 -0.00000000000E+00  0.00000000000E+00  0.28311758494E+02  0.28340228810E+02  0.12700000000E+01 0. -1.
          4   -1    0    0  501    0  0.00000000000E+00 -0.00000000000E+00 -0.13786834402E+03  0.13787419331E+03  0.12700000000E+01 0. -1.
         25    2    1    2    0    0  0.00000000000E+00  0.00000000000E+00 -0.10955658552E+03  0.16621442212E+03  0.12499835475E+03 0.  0.
    9000005    1    3    3    0    0 -0.51877499182E+02  0.13237952978E+02 -0.97632611812E+02  0.11135369419E+03  0.10000000000E+01 0.  0.
    9000005    1    3    3    0    0  0.51877499182E+02 -0.13237952978E+02 -0.11923973710E+02  0.54860727934E+02  0.10000000000E+01 0.  0.
<mgrwt>
<rscale>  0 0.12499835E+03</rscale>
<asrwt>0</asrwt>
<pdfrwt beam="2">  1        4 0.21213154E-01 0.12499835E+03</pdfrwt>
<pdfrwt beam="1">  1       -4 0.43582952E-02 0.12499835E+03</pdfrwt>
<totfact> 0.96161447E+03</totfact>
</mgrwt>
</event>
<event>
 5    1  0.3276024E-002  0.1249928E+03  0.7818608E-02  0.1235080E+00
          4   -1    0    0  501    0  0.00000000000E+00  0.00000000000E+00  0.41887323286E+02  0.41906571705E+02  0.12700000000E+01 0. -1.
         -4   -1    0    0    0  501 -0.00000000000E+00 -0.00000000000E+00 -0.93200457828E+02  0.93209110281E+02  0.12700000000E+01 0. -1.
         25    2    1    2    0    0  0.00000000000E+00  0.00000000000E+00 -0.51313134542E+02  0.13511568199E+03  0.12499283876E+03 0.  0.
    9000005    1    3    3    0    0  0.52908384062E+02  0.20622406668E+01 -0.61529268355E+02  0.81181283587E+02  0.10000000000E+01 0.  0.
    9000005    1    3    3    0    0 -0.52908384062E+02 -0.20622406668E+01  0.10216133813E+02  0.53934398399E+02  0.10000000000E+01 0.  0.
<mgrwt>
<rscale>  0 0.12499284E+03</rscale>
<asrwt>0</asrwt>
<pdfrwt beam="1">  1        4 0.64463498E-02 0.12499284E+03</pdfrwt>
<pdfrwt beam="2">  1       -4 0.14340678E-01 0.12499284E+03</pdfrwt>
<totfact> 0.10237286E+04</totfact>
</mgrwt>
</event>
<event>
 5    1  0.3276024E-002  0.1249988E+03  0.7818608E-02  0.1235071E+00
         -4   -1    0    0    0  501 -0.00000000000E+00  0.00000000000E+00  0.25610479654E+03  0.25610794543E+03  0.12700000000E+01 0. -1.
          4   -1    0    0  501    0  0.00000000000E+00 -0.00000000000E+00 -0.15222563082E+02  0.15275448497E+02  0.12700000000E+01 0. -1.
         25    2    1    2    0    0  0.00000000000E+00  0.00000000000E+00  0.24088223346E+03  0.27138339392E+03  0.12499878440E+03 0.  0.
    9000005    1    3    3    0    0 -0.50666770476E+02 -0.30522051423E+02  0.76670298849E+02  0.96840342725E+02  0.10000000000E+01 0.  0.
    9000005    1    3    3    0    0  0.50666770476E+02  0.30522051423E+02  0.16421193461E+03  0.17454305120E+03  0.10000000000E+01 0.  0.
<mgrwt>
<rscale>  0 0.12499878E+03</rscale>
<asrwt>0</asrwt>
<pdfrwt beam="2">  1        4 0.23462433E-02 0.12499878E+03</pdfrwt>
<pdfrwt beam="1">  1       -4 0.39405044E-01 0.12499878E+03</pdfrwt>
<totfact> 0.79336783E+03</totfact>
</mgrwt>
</event>
<event>
 5    1  0.3276024E-002  0.1249995E+03  0.7818608E-02  0.1235070E+00
          4   -1    0    0  501    0  0.00000000000E+00  0.00000000000E+00  0.66718416055E+02  0.66730502328E+02  0.12700000000E+01 0. -1.
         -4   -1    0    0    0  501 -0.00000000000E+00 -0.00000000000E+00 -0.58523524930E+02  0.58537303237E+02  0.12700000000E+01 0. -1.
         25    2    1    2    0    0  0.00000000000E+00  0.00000000000E+00  0.81948911244E+01  0.12526780556E+03  0.12499946748E+03 0.  0.
    9000005    1    3    3    0    0  0.61212012181E+02 -0.72423228239E+01 -0.62132290631E+01  0.61959389043E+02  0.10000000000E+01 0.  0.
    9000005    1    3    3    0    0 -0.61212012181E+02  0.72423228239E+01  0.14408120188E+02  0.63308416522E+02  0.10000000000E+01 0.  0.
<mgrwt>
<rscale>  0 0.12499947E+03</rscale>
<asrwt>0</asrwt>
<pdfrwt beam="1">  1        4 0.10266361E-01 0.12499947E+03</pdfrwt>
<pdfrwt beam="2">  1       -4 0.90056088E-02 0.12499947E+03</pdfrwt>
<totfact> 0.10447174E+04</totfact>
</mgrwt>
</event>
<event>
 5    1  0.3276024E-002  0.1249488E+03  0.7818608E-02  0.1235149E+00
          4   -1    0    0  501    0  0.00000000000E+00  0.00000000000E+00  0.82769113461E+02  0.82778856257E+02  0.12700000000E+01 0. -1.
         -4   -1    0    0    0  501 -0.00000000000E+00 -0.00000000000E+00 -0.47134841003E+02  0.47151947324E+02  0.12700000000E+01 0. -1.
         25    2    1    2    0    0  0.00000000000E+00  0.00000000000E+00  0.35634272458E+02  0.12993080358E+03  0.12494883891E+03 0.  0.
    9000005    1    3    3    0    0 -0.22138015792E+02  0.45411103517E+02  0.56021545487E+02  0.75443181432E+02  0.10000000000E+01 0.  0.
    9000005    1    3    3    0    0  0.22138015792E+02 -0.45411103517E+02 -0.20387273029E+02  0.54487622148E+02  0.10000000000E+01 0.  0.
<mgrwt>
<rscale>  0 0.12494884E+03</rscale>
<asrwt>0</asrwt>
<pdfrwt beam="1">  1        4 0.12735775E-01 0.12494884E+03</pdfrwt>
<pdfrwt beam="2">  1       -4 0.72535794E-02 0.12494884E+03</pdfrwt>
<totfact> 0.10357945E+04</totfact>
</mgrwt>
</event>
<event>
 5    1  0.3276024E-002  0.1249997E+03  0.7818608E-02  0.1235070E+00
          4   -1    0    0  501    0  0.00000000000E+00  0.00000000000E+00  0.25103814810E+03  0.25104136054E+03  0.12700000000E+01 0.  1.
         -4   -1    0    0    0  501 -0.00000000000E+00 -0.00000000000E+00 -0.15531080892E+02  0.15582919292E+02  0.12700000000E+01 0.  1.
         25    2    1    2    0    0  0.00000000000E+00  0.00000000000E+00  0.23550706721E+03  0.26662427983E+03  0.12499971156E+03 0.  0.
    9000005    1    3    3    0    0  0.43120178308E+02  0.43158465169E+02  0.14662626592E+03  0.15881519056E+03  0.10000000000E+01 0.  0.
    9000005    1    3    3    0    0 -0.43120178308E+02 -0.43158465169E+02  0.88880801285E+02  0.10780908927E+03  0.10000000000E+01 0.  0.
<mgrwt>
<rscale>  0 0.12499971E+03</rscale>
<asrwt>0</asrwt>
<pdfrwt beam="1">  1        4 0.38625485E-01 0.12499971E+03</pdfrwt>
<pdfrwt beam="2">  1       -4 0.23936319E-02 0.12499971E+03</pdfrwt>
<totfact> 0.79985847E+03</totfact>
</mgrwt>
</event>
<event>
 5    1  0.3276024E-002  0.1250029E+03  0.7818608E-02  0.1235065E+00
          4   -1    0    0  501    0  0.00000000000E+00  0.00000000000E+00  0.12948575336E+03  0.12949198131E+03  0.12700000000E+01 0. -1.
         -4   -1    0    0    0  501 -0.00000000000E+00 -0.00000000000E+00 -0.30148481723E+02  0.30175219141E+02  0.12700000000E+01 0. -1.
         25    2    1    2    0    0  0.00000000000E+00  0.00000000000E+00  0.99337271637E+02  0.15966720045E+03  0.12500288542E+03 0.  0.
    9000005    1    3    3    0    0 -0.12714326799E+02 -0.58998901504E+02  0.28957886942E+02  0.66948365930E+02  0.10000000000E+01 0.  0.
    9000005    1    3    3    0    0  0.12714326799E+02  0.58998901504E+02  0.70379384695E+02  0.92718834519E+02  0.10000000000E+01 0.  0.
<mgrwt>
<rscale>  0 0.12500289E+03</rscale>
<asrwt>0</asrwt>
<pdfrwt beam="1">  1        4 0.19923421E-01 0.12500289E+03</pdfrwt>
<pdfrwt beam="2">  1       -4 0.46407637E-02 0.12500289E+03</pdfrwt>
<totfact> 0.97400666E+03</totfact>
</mgrwt>
</event>
<event>
 5    1  0.3276024E-002  0.1250082E+03  0.7818608E-02  0.1235056E+00
          4   -1    0    0  501    0  0.00000000000E+00  0.00000000000E+00  0.63074726445E+02  0.63087510778E+02  0.12700000000E+01 0.  1.
         -4   -1    0    0    0  501 -0.00000000000E+00 -0.00000000000E+00 -0.61913069148E+02  0.61926093299E+02  0.12700000000E+01 0.  1.
         25    2    1    2    0    0  0.00000000000E+00  0.00000000000E+00  0.11616572979E+01  0.12501360408E+03  0.12500820676E+03 0.  0.
    9000005    1    3    3    0    0 -0.47947465483E+02 -0.29287294460E+02  0.27950932041E+02  0.62761131802E+02  0.10000000000E+01 0.  0.
    9000005    1    3    3    0    0  0.47947465483E+02  0.29287294460E+02 -0.26789274744E+02  0.62252472275E+02  0.10000000000E+01 0.  0.
<mgrwt>
<rscale>  0 0.12500821E+03</rscale>
<asrwt>0</asrwt>
<pdfrwt beam="1">  1        4 0.97057892E-02 0.12500821E+03</pdfrwt>
<pdfrwt beam="2">  1       -4 0.95270729E-02 0.12500821E+03</pdfrwt>
<totfact> 0.10450629E+04</totfact>
</mgrwt>
</event>
<event>
 5    1  0.3276024E-002  0.1250011E+03  0.7818608E-02  0.1235068E+00
          4   -1    0    0  501    0  0.00000000000E+00  0.00000000000E+00  0.28296564118E+02  0.28325049707E+02  0.12700000000E+01 0. -1.
         -4   -1    0    0    0  501 -0.00000000000E+00 -0.00000000000E+00 -0.13794839407E+03  0.13795423997E+03  0.12700000000E+01 0. -1.
         25    2    1    2    0    0  0.00000000000E+00  0.00000000000E+00 -0.10965182995E+03  0.16627928968E+03  0.12500111345E+03 0.  0.
    9000005    1    3    3    0    0 -0.11694264744E+02 -0.42564525611E+02 -0.11366965453E+03  0.12194377815E+03  0.10000000000E+01 0.  0.
    9000005    1    3    3    0    0  0.11694264744E+02  0.42564525611E+02  0.40178245768E+01  0.44335511531E+02  0.10000000000E+01 0.  0.
<mgrwt>
<rscale>  0 0.12500111E+03</rscale>
<asrwt>0</asrwt>
<pdfrwt beam="1">  1        4 0.43559585E-02 0.12500111E+03</pdfrwt>
<pdfrwt beam="2">  1       -4 0.21225470E-01 0.12500111E+03</pdfrwt>
<totfact> 0.96143258E+03</totfact>
</mgrwt>
</event>
<event>
 5    1  0.3276024E-002  0.1250010E+03  0.7818608E-02  0.1235068E+00
          4   -1    0    0  501    0  0.00000000000E+00  0.00000000000E+00  0.19889046929E+02  0.19929553124E+02  0.12700000000E+01 0. -1.
         -4   -1    0    0    0  501 -0.00000000000E+00 -0.00000000000E+00 -0.19616289993E+03  0.19616701102E+03  0.12700000000E+01 0. -1.
         25    2    1    2    0    0  0.00000000000E+00  0.00000000000E+00 -0.17627385301E+03  0.21609656414E+03  0.12500101511E+03 0.  0.
    9000005    1    3    3    0    0  0.10889590417E+02 -0.95076077531E+01  0.16967261902E+02  0.22312905707E+02  0.10000000000E+01 0.  0.
    9000005    1    3    3    0    0 -0.10889590417E+02  0.95076077531E+01 -0.19324111491E+03  0.19378365843E+03  0.10000000000E+01 0.  0.
<mgrwt>
<rscale>  0 0.12500102E+03</rscale>
<asrwt>0</asrwt>
<pdfrwt beam="1">  1        4 0.30632856E-02 0.12500102E+03</pdfrwt>
<pdfrwt beam="2">  1       -4 0.30182338E-01 0.12500102E+03</pdfrwt>
<totfact> 0.87487827E+03</totfact>
</mgrwt>
</event>
<event>
 5    1  0.3276024E-002  0.1250055E+03  0.7818608E-02  0.1235061E+00
          4   -1    0    0  501    0  0.00000000000E+00  0.00000000000E+00  0.37840913547E+03  0.37841126663E+03  0.12700000000E+01 0. -1.
         -4   -1    0    0    0  501 -0.00000000000E+00 -0.00000000000E+00 -0.10282502378E+02  0.10360634881E+02  0.12700000000E+01 0. -1.
         25    2    1    2    0    0  0.00000000000E+00  0.00000000000E+00  0.36812663310E+03  0.38877190151E+03  0.12500549351E+03 0.  0.
    9000005    1    3    3    0    0 -0.39434308105E+02 -0.37892768388E+02  0.27812163875E+03  0.28344941787E+03  0.10000000000E+01 0.  0.
    9000005    1    3    3    0    0  0.39434308105E+02  0.37892768388E+02  0.90004994349E+02  0.10532248364E+03  0.10000000000E+01 0.  0.
<mgrwt>
<rscale>  0 0.12500549E+03</rscale>
<asrwt>0</asrwt>
<pdfrwt beam="1">  1        4 0.58222957E-01 0.12500549E+03</pdfrwt>
<pdfrwt beam="2">  1       -4 0.15880978E-02 0.12500549E+03</pdfrwt>
<totfact> 0.65651705E+03</totfact>
</mgrwt>
</event>
<event>
 5    1  0.3276024E-002  0.1249936E+03  0.7818608E-02  0.1235079E+00
         -4   -1    0    0    0  501 -0.00000000000E+00  0.00000000000E+00  0.13391414222E+03  0.13392016423E+03  0.12700000000E+01 0. -1.
          4   -1    0    0  501    0  0.00000000000E+00 -0.00000000000E+00 -0.29146307963E+02  0.29173963869E+02  0.12700000000E+01 0. -1.
         25    2    1    2    0    0  0.00000000000E+00  0.00000000000E+00  0.10476783426E+03  0.16309412810E+03  0.12499358194E+03 0.  0.
    9000005    1    3    3    0    0 -0.51212220366E+02 -0.29084018665E+02  0.79638019476E+02  0.99054458772E+02  0.10000000000E+01 0.  0.
    9000005    1    3    3    0    0  0.51212220366E+02  0.29084018665E+02  0.25129814785E+02  0.64039669328E+02  0.10000000000E+01 0.  0.
<mgrwt>
<rscale>  0 0.12499358E+03</rscale>
<asrwt>0</asrwt>
<pdfrwt beam="2">  1        4 0.44866380E-02 0.12499358E+03</pdfrwt>
<pdfrwt beam="1">  1       -4 0.20604767E-01 0.12499358E+03</pdfrwt>
<totfact> 0.96763510E+03</totfact>
</mgrwt>
</event>
<event>
 5    1  0.3276024E-002  0.1249939E+03  0.7818608E-02  0.1235079E+00
          4   -1    0    0  501    0  0.00000000000E+00  0.00000000000E+00  0.21316233395E+02  0.21354032551E+02  0.12700000000E+01 0. -1.
         -4   -1    0    0    0  501 -0.00000000000E+00 -0.00000000000E+00 -0.18303216486E+03  0.18303657086E+03  0.12700000000E+01 0. -1.
         25    2    1    2    0    0  0.00000000000E+00  0.00000000000E+00 -0.16171593146E+03  0.20439060341E+03  0.12499390495E+03 0.  0.
    9000005    1    3    3    0    0 -0.31311700453E+01 -0.62306497164E+02 -0.86745895254E+02  0.10685389164E+03  0.10000000000E+01 0.  0.
    9000005    1    3    3    0    0  0.31311700453E+01  0.62306497164E+02 -0.74970036211E+02  0.97536711776E+02  0.10000000000E+01 0.  0.
<mgrwt>
<rscale>  0 0.12499390E+03</rscale>
<asrwt>0</asrwt>
<pdfrwt beam="1">  1        4 0.32826672E-02 0.12499390E+03</pdfrwt>
<pdfrwt beam="2">  1       -4 0.28162040E-01 0.12499390E+03</pdfrwt>
<totfact> 0.89412432E+03</totfact>
</mgrwt>
</event>
<event>
 5    1  0.3276024E-002  0.1250066E+03  0.7818608E-02  0.1235059E+00
          4   -1    0    0  501    0  0.00000000000E+00  0.00000000000E+00  0.84138974361E+02  0.84148558552E+02  0.12700000000E+01 0.  1.
         -4   -1    0    0    0  501 -0.00000000000E+00 -0.00000000000E+00 -0.46410188109E+02  0.46427561430E+02  0.12700000000E+01 0.  1.
         25    2    1    2    0    0  0.00000000000E+00  0.00000000000E+00  0.37728786252E+02  0.13057611998E+03  0.12500664701E+03 0.  0.
    9000005    1    3    3    0    0 -0.57910862012E+01  0.50468209077E+02  0.56887983169E+02  0.76274631666E+02  0.10000000000E+01 0.  0.
    9000005    1    3    3    0    0  0.57910862012E+01 -0.50468209077E+02 -0.19159196917E+02  0.54301488316E+02  0.10000000000E+01 0.  0.
<mgrwt>
<rscale>  0 0.12500665E+03</rscale>
<asrwt>0</asrwt>
<pdfrwt beam="1">  1        4 0.12946531E-01 0.12500665E+03</pdfrwt>
<pdfrwt beam="2">  1       -4 0.71421025E-02 0.12500665E+03</pdfrwt>
<totfact> 0.10330636E+04</totfact>
</mgrwt>
</event>
<event>
 5    1  0.3276024E-002  0.1249980E+03  0.7818608E-02  0.1235072E+00
         -4   -1    0    0    0  501 -0.00000000000E+00  0.00000000000E+00  0.78408656158E+03  0.78408759010E+03  0.12700000000E+01 0.  1.
          4   -1    0    0  501    0  0.00000000000E+00 -0.00000000000E+00 -0.48997645014E+01  0.50616787896E+01  0.12700000000E+01 0.  1.
         25    2    1    2    0    0  0.00000000000E+00  0.00000000000E+00  0.77918679708E+03  0.78914926889E+03  0.12499801538E+03 0.  0.
    9000005    1    3    3    0    0 -0.31336521344E+02 -0.34597831180E+02  0.65189072060E+03  0.65356063153E+03  0.10000000000E+01 0.  0.
    9000005    1    3    3    0    0  0.31336521344E+02  0.34597831180E+02  0.12729607648E+03  0.13558863736E+03  0.10000000000E+01 0.  0.
<mgrwt>
<rscale>  0 0.12499802E+03</rscale>
<asrwt>0</asrwt>
<pdfrwt beam="2">  1        4 0.76634437E-03 0.12499802E+03</pdfrwt>
<pdfrwt beam="1">  1       -4 0.12064118E+00 0.12499802E+03</pdfrwt>
<totfact> 0.38755444E+03</totfact>
</mgrwt>
</event>
<event>
 5    1  0.3276024E-002  0.1249987E+03  0.7818608E-02  0.1235071E+00
         -4   -1    0    0    0  501 -0.00000000000E+00  0.00000000000E+00  0.72894315005E+03  0.72894425638E+03  0.12700000000E+01 0. -1.
          4   -1    0    0  501    0  0.00000000000E+00 -0.00000000000E+00 -0.52823024921E+01  0.54328279577E+01  0.12700000000E+01 0. -1.
         25    2    1    2    0    0  0.00000000000E+00  0.00000000000E+00  0.72366084756E+03  0.73437708434E+03  0.12499871882E+03 0.  0.
    9000005    1    3    3    0    0  0.46809196709E+02 -0.40941029617E+02  0.39799968195E+03  0.40283000836E+03  0.10000000000E+01 0.  0.
    9000005    1    3    3    0    0 -0.46809196709E+02  0.40941029617E+02  0.32566116562E+03  0.33154707598E+03  0.10000000000E+01 0.  0.
<mgrwt>
<rscale>  0 0.12499872E+03</rscale>
<asrwt>0</asrwt>
<pdfrwt beam="2">  1        4 0.82432622E-03 0.12499872E+03</pdfrwt>
<pdfrwt beam="1">  1       -4 0.11215672E+00 0.12499872E+03</pdfrwt>
<totfact> 0.41333932E+03</totfact>
</mgrwt>
</event>
<event>
 4    1  0.3276024E-002  0.1299638E+03  0.7818608E-02  0.1227509E+00
          4   -1    0    0  501    0  0.00000000000E+00  0.00000000000E+00  0.14812933110E+04  0.14812938554E+04  0.12700000000E+01 0. -1.
         -4   -1    0    0    0  501 -0.00000000000E+00 -0.00000000000E+00 -0.27086268568E+01  0.29915814295E+01  0.12700000000E+01 0. -1.
    9000005    1    1    2    0    0  0.37415178575E+02  0.18117274302E+02  0.13095893848E+04  0.13102493992E+04  0.10000000000E+01 0.  0.
    9000005    1    1    2    0    0 -0.37415178575E+02 -0.18117274302E+02  0.16899529935E+03  0.17403603770E+03  0.10000000000E+01 0.  0.
<mgrwt>
<rscale>  0 0.12996380E+03</rscale>
<asrwt>0</asrwt>
<pdfrwt beam="1">  1        4 0.22791258E+00 0.12996380E+03</pdfrwt>
<pdfrwt beam="2">  1       -4 0.43852041E-03 0.12996380E+03</pdfrwt>
<totfact> 0.16396679E+03</totfact>
</mgrwt>
</event>
<event>
 5    1  0.3276024E-002  0.1249938E+03  0.7818608E-02  0.1235079E+00
          4   -1    0    0  501    0  0.00000000000E+00  0.00000000000E+00  0.40519460713E+03  0.40519659740E+03  0.12700000000E+01 0. -1.
         -4   -1    0    0    0  501 -0.00000000000E+00 -0.00000000000E+00 -0.95956233292E+01  0.96793019932E+01  0.12700000000E+01 0. -1.
         25    2    1    2    0    0  0.00000000000E+00  0.00000000000E+00  0.39559898380E+03  0.41487589939E+03  0.12499382351E+03 0.  0.
    9000005    1    3    3    0    0  0.16332144108E+02 -0.32975151775E+02  0.30164441860E+02  0.47591943840E+02  0.10000000000E+01 0.  0.
    9000005    1    3    3    0    0 -0.16332144108E+02  0.32975151775E+02  0.36543454194E+03  0.36728395556E+03  0.10000000000E+01 0.  0.
<mgrwt>
<rscale>  0 0.12499382E+03</rscale>
<asrwt>0</asrwt>
<pdfrwt beam="1">  1        4 0.62344215E-01 0.12499382E+03</pdfrwt>
<pdfrwt beam="2">  1       -4 0.14828398E-02 0.12499382E+03</pdfrwt>
<totfact> 0.63139849E+03</totfact>
</mgrwt>
</event>
<event>
 5    1  0.3276024E-002  0.1250038E+03  0.7818608E-02  0.1235063E+00
          4   -1    0    0  501    0  0.00000000000E+00  0.00000000000E+00  0.72455381600E+01  0.73559991319E+01  0.12700000000E+01 0.  1.
         -4   -1    0    0    0  501 -0.00000000000E+00 -0.00000000000E+00 -0.53496776447E+03  0.53496927194E+03  0.12700000000E+01 0.  1.
         25    2    1    2    0    0  0.00000000000E+00  0.00000000000E+00 -0.52772222631E+03  0.54232527107E+03  0.12500380596E+03 0.  0.
    9000005    1    3    3    0    0 -0.29586362195E+02 -0.51790510246E+02 -0.34478004633E+03  0.34990268665E+03  0.10000000000E+01 0.  0.
    9000005    1    3    3    0    0  0.29586362195E+02  0.51790510246E+02 -0.18294217998E+03  0.19242258442E+03  0.10000000000E+01 0.  0.
<mgrwt>
<rscale>  0 0.12500381E+03</rscale>
<asrwt>0</asrwt>
<pdfrwt beam="1">  1        4 0.11233116E-02 0.12500381E+03</pdfrwt>
<pdfrwt beam="2">  1       -4 0.82311315E-01 0.12500381E+03</pdfrwt>
<totfact> 0.52719365E+03</totfact>
</mgrwt>
</event>
<event>
 4    1  0.3276024E-002  0.1250812E+03  0.7818608E-02  0.1234942E+00
          4   -1    0    0  501    0  0.00000000000E+00  0.00000000000E+00  0.50962831735E+03  0.50962989978E+03  0.12700000000E+01 0. -1.
         -4   -1    0    0    0  501 -0.00000000000E+00 -0.00000000000E+00 -0.76207149595E+01  0.77258136461E+01  0.12700000000E+01 0. -1.
    9000005    1    1    2    0    0  0.42968305383E+02 -0.17123140654E+02  0.76948225047E+02  0.89785892830E+02  0.10000000000E+01 0.  0.
    9000005    1    1    2    0    0 -0.42968305383E+02  0.17123140654E+02  0.42505937735E+03  0.42756982060E+03  0.10000000000E+01 0.  0.
<mgrwt>
<rscale>  0 0.12508118E+03</rscale>
<asrwt>0</asrwt>
<pdfrwt beam="1">  1        4 0.78412549E-01 0.12508118E+03</pdfrwt>
<pdfrwt beam="2">  1       -4 0.11806241E-02 0.12508118E+03</pdfrwt>
<totfact> 0.54445296E+03</totfact>
</mgrwt>
</event>
<event>
 5    1  0.3276024E-002  0.1250094E+03  0.7818608E-02  0.1235055E+00
          4   -1    0    0  501    0  0.00000000000E+00  0.00000000000E+00  0.23640479066E+03  0.23640820195E+03  0.12700000000E+01 0. -1.
         -4   -1    0    0    0  501 -0.00000000000E+00 -0.00000000000E+00 -0.16498117179E+02  0.16546926314E+02  0.12700000000E+01 0. -1.
         25    2    1    2    0    0  0.00000000000E+00  0.00000000000E+00  0.21990667348E+03  0.25295512826E+03  0.12500940713E+03 0.  0.
    9000005    1    3    3    0    0  0.42512374710E+02  0.11380919355E+02  0.20163987427E+02  0.48419146190E+02  0.10000000000E+01 0.  0.
    9000005    1    3    3    0    0 -0.42512374710E+02 -0.11380919355E+02  0.19974268606E+03  0.20453598207E+03  0.10000000000E+01 0.  0.
<mgrwt>
<rscale>  0 0.12500941E+03</rscale>
<asrwt>0</asrwt>
<pdfrwt beam="1">  1        4 0.36373983E-01 0.12500941E+03</pdfrwt>
<pdfrwt beam="2">  1       -4 0.25421890E-02 0.12500941E+03</pdfrwt>
<totfact> 0.81887831E+03</totfact>
</mgrwt>
</event>
<event>
 5    1  0.3276024E-002  0.1250013E+03  0.7818608E-02  0.1235067E+00
         -4   -1    0    0    0  501 -0.00000000000E+00  0.00000000000E+00  0.70565494702E+01  0.71699226234E+01  0.12700000000E+01 0.  1.
          4   -1    0    0  501    0  0.00000000000E+00 -0.00000000000E+00 -0.54904996872E+03  0.54905143753E+03  0.12700000000E+01 0.  1.
         25    2    1    2    0    0  0.00000000000E+00  0.00000000000E+00 -0.54199341925E+03  0.55622136015E+03  0.12500133991E+03 0.  0.
    9000005    1    3    3    0    0 -0.55041529280E+02 -0.13251727008E+02 -0.38873839721E+03  0.39284057794E+03  0.10000000000E+01 0.  0.
    9000005    1    3    3    0    0  0.55041529280E+02  0.13251727008E+02 -0.15325502204E+03  0.16338078221E+03  0.10000000000E+01 0.  0.
<mgrwt>
<rscale>  0 0.12500134E+03</rscale>
<asrwt>0</asrwt>
<pdfrwt beam="2">  1        4 0.84478026E-01 0.12500134E+03</pdfrwt>
<pdfrwt beam="1">  1       -4 0.10944574E-02 0.12500134E+03</pdfrwt>
<totfact> 0.51751523E+03</totfact>
</mgrwt>
</event>
<event>
 5    1  0.3276024E-002  0.1249962E+03  0.7818608E-02  0.1235075E+00
          4   -1    0    0  501    0  0.00000000000E+00  0.00000000000E+00  0.23638553522E+02  0.23672644816E+02  0.12700000000E+01 0.  1.
         -4   -1    0    0    0  501 -0.00000000000E+00 -0.00000000000E+00 -0.16508356164E+03  0.16508844667E+03  0.12700000000E+01 0.  1.
         25    2    1    2    0    0  0.00000000000E+00  0.00000000000E+00 -0.14144500811E+03  0.18876109148E+03  0.12499623729E+03 0.  0.
    9000005    1    3    3    0    0 -0.29185997071E+02 -0.12720639795E+02  0.10479725939E+02  0.33532995059E+02  0.10000000000E+01 0.  0.
    9000005    1    3    3    0    0  0.29185997071E+02  0.12720639795E+02 -0.15192473405E+03  0.15522809642E+03  0.10000000000E+01 0.  0.
<mgrwt>
<rscale>  0 0.12499624E+03</rscale>
<asrwt>0</asrwt>
<pdfrwt beam="1">  1        4 0.36396988E-02 0.12499624E+03</pdfrwt>
<pdfrwt beam="2">  1       -4 0.25400468E-01 0.12499624E+03</pdfrwt>
<totfact> 0.92071089E+03</totfact>
</mgrwt>
</event>
<event>
 5    1  0.3276024E-002  0.1250153E+03  0.7818608E-02  0.1235045E+00
          4   -1    0    0  501    0  0.00000000000E+00  0.00000000000E+00  0.17323933791E+02  0.17370422620E+02  0.12700000000E+01 0. -1.
         -4   -1    0    0    0  501 -0.00000000000E+00 -0.00000000000E+00 -0.22518765026E+03  0.22519123146E+03  0.12700000000E+01 0. -1.
         25    2    1    2    0    0  0.00000000000E+00  0.00000000000E+00 -0.20786371646E+03  0.24256165408E+03  0.12501532470E+03 0.  0.
    9000005    1    3    3    0    0 -0.50901565840E+02  0.25084303311E+02 -0.15475085299E+03  0.16483027082E+03  0.10000000000E+01 0.  0.
    9000005    1    3    3    0    0  0.50901565840E+02 -0.25084303311E+02 -0.53112863479E+02  0.77731383266E+02  0.10000000000E+01 0.  0.
<mgrwt>
<rscale>  0 0.12501532E+03</rscale>
<asrwt>0</asrwt>
<pdfrwt beam="1">  1        4 0.26690723E-02 0.12501532E+03</pdfrwt>
<pdfrwt beam="2">  1       -4 0.34648103E-01 0.12501532E+03</pdfrwt>
<totfact> 0.83388842E+03</totfact>
</mgrwt>
</event>
<event>
 5    1  0.3276024E-002  0.1249997E+03  0.7818608E-02  0.1235070E+00
         -4   -1    0    0    0  501 -0.00000000000E+00  0.00000000000E+00  0.32793375370E+01  0.35166681222E+01  0.12700000000E+01 0. -1.
          4   -1    0    0  501    0  0.00000000000E+00 -0.00000000000E+00 -0.11493291922E+04  0.11493298939E+04  0.12700000000E+01 0. -1.
         25    2    1    2    0    0  0.00000000000E+00  0.00000000000E+00 -0.11460498546E+04  0.11528465620E+04  0.12499970450E+03 0.  0.
    9000005    1    3    3    0    0  0.37923597388E+02 -0.40994272250E+02 -0.31437496463E+03  0.31929821168E+03  0.10000000000E+01 0.  0.
    9000005    1    3    3    0    0 -0.37923597388E+02  0.40994272250E+02 -0.83167489001E+03  0.83354835029E+03  0.10000000000E+01 0.  0.
<mgrwt>
<rscale>  0 0.12499970E+03</rscale>
<asrwt>0</asrwt>
<pdfrwt beam="2">  1        4 0.17683788E+00 0.12499970E+03</pdfrwt>
<pdfrwt beam="1">  1       -4 0.52282456E-03 0.12499970E+03</pdfrwt>
<totfact> 0.25981605E+03</totfact>
</mgrwt>
</event>
<event>
 5    1  0.3276024E-002  0.1249987E+03  0.7818608E-02  0.1235071E+00
          4   -1    0    0  501    0  0.00000000000E+00  0.00000000000E+00  0.88426934988E+03  0.88427026187E+03  0.12700000000E+01 0.  1.
         -4   -1    0    0    0  501 -0.00000000000E+00 -0.00000000000E+00 -0.43251807082E+01  0.45077808463E+01  0.12700000000E+01 0.  1.
         25    2    1    2    0    0  0.00000000000E+00  0.00000000000E+00  0.87994416917E+03  0.88877804272E+03  0.12499867345E+03 0.  0.
    9000005    1    3    3    0    0  0.44532397835E+02 -0.41478422057E+02  0.54092160057E+03  0.54433516505E+03  0.10000000000E+01 0.  0.
    9000005    1    3    3    0    0 -0.44532397835E+02  0.41478422057E+02  0.33902256860E+03  0.34444287767E+03  0.10000000000E+01 0.  0.
<mgrwt>
<rscale>  0 0.12499867E+03</rscale>
<asrwt>0</asrwt>
<pdfrwt beam="1">  1        4 0.13605542E+00 0.12499867E+03</pdfrwt>
<pdfrwt beam="2">  1       -4 0.67952943E-03 0.12499867E+03</pdfrwt>
<totfact> 0.34591854E+03</totfact>
</mgrwt>
</event>
<event>
 5    1  0.3276024E-002  0.1250043E+03  0.7818608E-02  0.1235063E+00
          4   -1    0    0  501    0  0.00000000000E+00  0.00000000000E+00  0.60694012486E+02  0.60707298174E+02  0.12700000000E+01 0.  1.
         -4   -1    0    0    0  501 -0.00000000000E+00 -0.00000000000E+00 -0.64337594792E+02  0.64350128233E+02  0.12700000000E+01 0.  1.
         25    2    1    2    0    0  0.00000000000E+00  0.00000000000E+00 -0.36435823059E+01  0.12505742641E+03  0.12500433676E+03 0.  0.
    9000005    1    3    3    0    0 -0.22924922477E+02 -0.29912101957E+02  0.48051513903E+02  0.61075640827E+02  0.10000000000E+01 0.  0.
    9000005    1    3    3    0    0  0.22924922477E+02  0.29912101957E+02 -0.51695096209E+02  0.63981785581E+02  0.10000000000E+01 0.  0.
<mgrwt>
<rscale>  0 0.12500434E+03</rscale>
<asrwt>0</asrwt>
<pdfrwt beam="1">  1        4 0.93395264E-02 0.12500434E+03</pdfrwt>
<pdfrwt beam="2">  1       -4 0.99000776E-02 0.12500434E+03</pdfrwt>
<totfact> 0.10450591E+04</totfact>
</mgrwt>
</event>
<event>
 5    1  0.3276024E-002  0.1249988E+03  0.7818608E-02  0.1235071E+00
         -4   -1    0    0    0  501 -0.00000000000E+00  0.00000000000E+00  0.88776115789E+01  0.89679923810E+01  0.12700000000E+01 0.  1.
          4   -1    0    0  501    0  0.00000000000E+00 -0.00000000000E+00 -0.43768317386E+03  0.43768501640E+03  0.12700000000E+01 0.  1.
         25    2    1    2    0    0  0.00000000000E+00  0.00000000000E+00 -0.42880556228E+03  0.44665300878E+03  0.12499880003E+03 0.  0.
    9000005    1    3    3    0    0  0.15417364192E+02 -0.23854902831E+02 -0.41330279279E+03  0.41427883127E+03  0.10000000000E+01 0.  0.
    9000005    1    3    3    0    0 -0.15417364192E+02  0.23854902831E+02 -0.15502769488E+02  0.32374177511E+02  0.10000000000E+01 0.  0.
<mgrwt>
<rscale>  0 0.12499880E+03</rscale>
<asrwt>0</asrwt>
<pdfrwt beam="2">  1        4 0.67342950E-01 0.12499880E+03</pdfrwt>
<pdfrwt beam="1">  1       -4 0.13728808E-02 0.12499880E+03</pdfrwt>
<totfact> 0.60256445E+03</totfact>
</mgrwt>
</event>
<event>
 5    1  0.3276024E-002  0.1250033E+03  0.7818608E-02  0.1235064E+00
         -4   -1    0    0    0  501 -0.00000000000E+00  0.00000000000E+00  0.18916621962E+02  0.18959205850E+02  0.12700000000E+01 0.  1.
          4   -1    0    0  501    0  0.00000000000E+00 -0.00000000000E+00 -0.20623241375E+03  0.20623632411E+03  0.12700000000E+01 0.  1.
         25    2    1    2    0    0  0.00000000000E+00  0.00000000000E+00 -0.18731579179E+03  0.22519552996E+03  0.12500328340E+03 0.  0.
    9000005    1    3    3    0    0 -0.10834468729E+02 -0.12086914535E+02 -0.20237725532E+03  0.20302963500E+03  0.10000000000E+01 0.  0.
    9000005    1    3    3    0    0  0.10834468729E+02  0.12086914535E+02  0.15061463534E+02  0.22165894960E+02  0.10000000000E+01 0.  0.
<mgrwt>
<rscale>  0 0.12500328E+03</rscale>
<asrwt>0</asrwt>
<pdfrwt beam="2">  1        4 0.31731638E-01 0.12500328E+03</pdfrwt>
<pdfrwt beam="1">  1       -4 0.29138262E-02 0.12500328E+03</pdfrwt>
<totfact> 0.86046524E+03</totfact>
</mgrwt>
</event>
<event>
 5    1  0.3276024E-002  0.1250032E+03  0.7818608E-02  0.1235064E+00
         -4   -1    0    0    0  501 -0.00000000000E+00  0.00000000000E+00  0.40187744561E+02  0.40207806617E+02  0.12700000000E+01 0.  1.
          4   -1    0    0  501    0  0.00000000000E+00 -0.00000000000E+00 -0.97156587903E+02  0.97164888067E+02  0.12700000000E+01 0.  1.
         25    2    1    2    0    0  0.00000000000E+00  0.00000000000E+00 -0.56968843342E+02  0.13737269468E+03  0.12500323249E+03 0.  0.
    9000005    1    3    3    0    0  0.47195476194E+02  0.27307924831E+02  0.50708541204E+01  0.54770879976E+02  0.10000000000E+01 0.  0.
    9000005    1    3    3    0    0 -0.47195476194E+02 -0.27307924831E+02 -0.62039697462E+02  0.82601814708E+02  0.10000000000E+01 0.  0.
<mgrwt>
<rscale>  0 0.12500323E+03</rscale>
<asrwt>0</asrwt>
<pdfrwt beam="2">  1        4 0.14949349E-01 0.12500323E+03</pdfrwt>
<pdfrwt beam="1">  1       -4 0.61849117E-02 0.12500323E+03</pdfrwt>
<totfact> 0.10187556E+04</totfact>
</mgrwt>
</event>
<event>
 5    1  0.3276024E-002  0.1250034E+03  0.7818608E-02  0.1235064E+00
         -4   -1    0    0    0  501 -0.00000000000E+00  0.00000000000E+00  0.20177382103E+03  0.20177781779E+03  0.12700000000E+01 0. -1.
          4   -1    0    0  501    0  0.00000000000E+00 -0.00000000000E+00 -0.19335569640E+02  0.19377232859E+02  0.12700000000E+01 0. -1.
         25    2    1    2    0    0  0.00000000000E+00  0.00000000000E+00  0.18243825139E+03  0.22115505065E+03  0.12500336339E+03 0.  0.
    9000005    1    3    3    0    0 -0.18656853493E+02 -0.58205903004E+02  0.68188686836E+02  0.91578940479E+02  0.10000000000E+01 0.  0.
    9000005    1    3    3    0    0  0.18656853493E+02  0.58205903004E+02  0.11424956455E+03  0.12957611017E+03  0.10000000000E+01 0.  0.
<mgrwt>
<rscale>  0 0.12500336E+03</rscale>
<asrwt>0</asrwt>
<pdfrwt beam="2">  1        4 0.29782154E-02 0.12500336E+03</pdfrwt>
<pdfrwt beam="1">  1       -4 0.31045638E-01 0.12500336E+03</pdfrwt>
<totfact> 0.86679395E+03</totfact>
</mgrwt>
</event>
<event>
 5    1  0.3276024E-002  0.1249994E+03  0.7818608E-02  0.1235070E+00
         -4   -1    0    0    0  501 -0.00000000000E+00  0.00000000000E+00  0.27352682602E+03  0.27352977434E+03  0.12700000000E+01 0.  1.
          4   -1    0    0  501    0  0.00000000000E+00 -0.00000000000E+00 -0.14249636573E+02  0.14306119056E+02  0.12700000000E+01 0.  1.
         25    2    1    2    0    0  0.00000000000E+00  0.00000000000E+00  0.25927718945E+03  0.28783589340E+03  0.12499936225E+03 0.  0.
    9000005    1    3    3    0    0 -0.31366070249E+01  0.36288632322E+02  0.24656734557E+03  0.24924517857E+03  0.10000000000E+01 0.  0.
    9000005    1    3    3    0    0  0.31366070249E+01 -0.36288632322E+02  0.12709843872E+02  0.38590714825E+02  0.10000000000E+01 0.  0.
<mgrwt>
<rscale>  0 0.12499936E+03</rscale>
<asrwt>0</asrwt>
<pdfrwt beam="2">  1        4 0.21968234E-02 0.12499936E+03</pdfrwt>
<pdfrwt beam="1">  1       -4 0.42085622E-01 0.12499936E+03</pdfrwt>
<totfact> 0.77151556E+03</totfact>
</mgrwt>
</event>
<event>
 5    1  0.3276024E-002  0.1250024E+03  0.7818608E-02  0.1235066E+00
          4   -1    0    0  501    0  0.00000000000E+00  0.00000000000E+00  0.15257142649E+02  0.15309908616E+02  0.12700000000E+01 0.  1.
         -4   -1    0    0    0  501 -0.00000000000E+00 -0.00000000000E+00 -0.25554098955E+03  0.25554414538E+03  0.12700000000E+01 0.  1.
         25    2    1    2    0    0  0.00000000000E+00  0.00000000000E+00 -0.24028384690E+03  0.27085405400E+03  0.12500236592E+03 0.  0.
    9000005    1    3    3    0    0  0.13895645599E+02 -0.57854282004E+02 -0.78734604102E+02  0.98693185154E+02  0.10000000000E+01 0.  0.
    9000005    1    3    3    0    0 -0.13895645599E+02  0.57854282004E+02 -0.16154924280E+03  0.17216086885E+03  0.10000000000E+01 0.  0.
<mgrwt>
<rscale>  0 0.12500237E+03</rscale>
<asrwt>0</asrwt>
<pdfrwt beam="1">  1        4 0.23515546E-02 0.12500237E+03</pdfrwt>
<pdfrwt beam="2">  1       -4 0.39318297E-01 0.12500237E+03</pdfrwt>
<totfact> 0.79402395E+03</totfact>
</mgrwt>
</event>
<event>
 5    1  0.3276024E-002  0.1249995E+03  0.7818608E-02  0.1235070E+00
          4   -1    0    0  501    0  0.00000000000E+00  0.00000000000E+00  0.39627207656E+02  0.39647553349E+02  0.12700000000E+01 0. -1.
         -4   -1    0    0    0  501 -0.00000000000E+00 -0.00000000000E+00 -0.98524404396E+02  0.98532589338E+02  0.12700000000E+01 0. -1.
         25    2    1    2    0    0  0.00000000000E+00  0.00000000000E+00 -0.58897196740E+02  0.13818014269E+03  0.12499948820E+03 0.  0.
    9000005    1    3    3    0    0  0.25831983285E+02 -0.45804704720E+02 -0.66770377238E+02  0.84997915336E+02  0.10000000000E+01 0.  0.
    9000005    1    3    3    0    0 -0.25831983285E+02  0.45804704720E+02  0.78731804975E+01  0.53182227352E+02  0.10000000000E+01 0.  0.
<mgrwt>
<rscale>  0 0.12499949E+03</rscale>
<asrwt>0</asrwt>
<pdfrwt beam="1">  1        4 0.60986882E-02 0.12499949E+03</pdfrwt>
<pdfrwt beam="2">  1       -4 0.15159795E-01 0.12499949E+03</pdfrwt>
<totfact> 0.10171561E+04</totfact>
</mgrwt>
</event>
<event>
 5    1  0.3276024E-002  0.1249946E+03  0.7818608E-02  0.1235078E+00
          4   -1    0    0  501    0  0.00000000000E+00  0.00000000000E+00  0.10809396188E+04  0.10809403649E+04  0.12700000000E+01 0. -1.
         -4   -1    0    0    0  501 -0.00000000000E+00 -0.00000000000E+00 -0.35010831175E+01  0.37243097341E+01  0.12700000000E+01 0. -1.
         25    2    1    2    0    0  0.00000000000E+00  0.00000000000E+00  0.10774385357E+04  0.10846646746E+04  0.12499463247E+03 0.  0.
    9000005    1    3    3    0    0 -0.28930281612E+02 -0.17908781660E+02  0.83886700187E+02  0.90529907340E+02  0.10000000000E+01 0.  0.
    9000005    1    3    3    0    0  0.28930281612E+02  0.17908781660E+02  0.99355183554E+03  0.99413476730E+03  0.10000000000E+01 0.  0.
<mgrwt>
<rscale>  0 0.12499463E+03</rscale>
<asrwt>0</asrwt>
<pdfrwt beam="1">  1        4 0.16631560E+00 0.12499463E+03</pdfrwt>
<pdfrwt beam="2">  1       -4 0.55585696E-03 0.12499463E+03</pdfrwt>
<totfact> 0.27939875E+03</totfact>
</mgrwt>
</event>
<event>
 5    1  0.3276024E-002  0.1250004E+03  0.7818608E-02  0.1235069E+00
          4   -1    0    0  501    0  0.00000000000E+00  0.00000000000E+00  0.72074108048E+03  0.72074219940E+03  0.12700000000E+01 0. -1.
         -4   -1    0    0    0  501 -0.00000000000E+00 -0.00000000000E+00 -0.53442649883E+01  0.54930927778E+01  0.12700000000E+01 0. -1.
         25    2    1    2    0    0  0.00000000000E+00  0.00000000000E+00  0.71539681549E+03  0.72623529218E+03  0.12500038394E+03 0.  0.
    9000005    1    3    3    0    0 -0.14159299593E+02 -0.52229472250E+02  0.53928529814E+03  0.54199449843E+03  0.10000000000E+01 0.  0.
    9000005    1    3    3    0    0  0.14159299593E+02  0.52229472250E+02  0.17611151735E+03  0.18424079374E+03  0.10000000000E+01 0.  0.
<mgrwt>
<rscale>  0 0.12500038E+03</rscale>
<asrwt>0</asrwt>
<pdfrwt beam="1">  1        4 0.11089478E+00 0.12500038E+03</pdfrwt>
<pdfrwt beam="2">  1       -4 0.83372896E-03 0.12500038E+03</pdfrwt>
<totfact> 0.41737046E+03</totfact>
</mgrwt>
</event>
<event>
 5    1  0.3276024E-002  0.1250000E+03  0.7818608E-02  0.1235069E+00
         -4   -1    0    0    0  501 -0.00000000000E+00  0.00000000000E+00  0.90500600624E+03  0.90500689734E+03  0.12700000000E+01 0. -1.
          4   -1    0    0  501    0  0.00000000000E+00 -0.00000000000E+00 -0.42219365498E+01  0.44088148328E+01  0.12700000000E+01 0. -1.
         25    2    1    2    0    0  0.00000000000E+00  0.00000000000E+00  0.90078406969E+03  0.90941571217E+03  0.12499998935E+03 0.  0.
    9000005    1    3    3    0    0  0.40792981087E+02 -0.24356105691E+02  0.15504943548E+03  0.16216847607E+03  0.10000000000E+01 0.  0.
    9000005    1    3    3    0    0 -0.40792981087E+02  0.24356105691E+02  0.74573463421E+03  0.74724723609E+03  0.10000000000E+01 0.  0.
<mgrwt>
<rscale>  0 0.12499999E+03</rscale>
<asrwt>0</asrwt>
<pdfrwt beam="2">  1        4 0.66397282E-03 0.12499999E+03</pdfrwt>
<pdfrwt beam="1">  1       -4 0.13924607E+00 0.12499999E+03</pdfrwt>
<totfact> 0.33801961E+03</totfact>
</mgrwt>
</event>
<event>
 5    1  0.3276024E-002  0.1249976E+03  0.7818608E-02  0.1235073E+00
         -4   -1    0    0    0  501 -0.00000000000E+00  0.00000000000E+00  0.33639522103E+03  0.33639761835E+03  0.12700000000E+01 0. -1.
          4   -1    0    0  501    0  0.00000000000E+00 -0.00000000000E+00 -0.11574471959E+02  0.11643938385E+02  0.12700000000E+01 0. -1.
         25    2    1    2    0    0  0.00000000000E+00  0.00000000000E+00  0.32482074908E+03  0.34804155674E+03  0.12499762473E+03 0.  0.
    9000005    1    3    3    0    0  0.28714880863E+02 -0.13927870804E+02  0.31200655591E+03  0.31363612818E+03  0.10000000000E+01 0.  0.
    9000005    1    3    3    0    0 -0.28714880863E+02  0.13927870804E+02  0.12814193168E+02  0.34405428564E+02  0.10000000000E+01 0.  0.
<mgrwt>
<rscale>  0 0.12499762E+03</rscale>
<asrwt>0</asrwt>
<pdfrwt beam="2">  1        4 0.17862164E-02 0.12499762E+03</pdfrwt>
<pdfrwt beam="1">  1       -4 0.51758626E-01 0.12499762E+03</pdfrwt>
<totfact> 0.69944231E+03</totfact>
</mgrwt>
</event>
<event>
 5    1  0.3276024E-002  0.1249943E+03  0.7818608E-02  0.1235078E+00
          4   -1    0    0  501    0  0.00000000000E+00  0.00000000000E+00  0.13473997655E+03  0.13474596164E+03  0.12700000000E+01 0.  1.
         -4   -1    0    0    0  501 -0.00000000000E+00 -0.00000000000E+00 -0.28967845116E+02  0.28995671240E+02  0.12700000000E+01 0.  1.
         25    2    1    2    0    0  0.00000000000E+00  0.00000000000E+00  0.10577213143E+03  0.16374163289E+03  0.12499431408E+03 0.  0.
    9000005    1    3    3    0    0  0.69511548759E+01  0.44891040132E+02 -0.33272835273E+01  0.45558696798E+02  0.10000000000E+01 0.  0.
    9000005    1    3    3    0    0 -0.69511548759E+01 -0.44891040132E+02  0.10909941496E+03  0.11818293609E+03  0.10000000000E+01 0.  0.
<mgrwt>
<rscale>  0 0.12499431E+03</rscale>
<asrwt>0</asrwt>
<pdfrwt beam="1">  1        4 0.20731828E-01 0.12499431E+03</pdfrwt>
<pdfrwt beam="2">  1       -4 0.44591923E-02 0.12499431E+03</pdfrwt>
<totfact> 0.96638583E+03</totfact>
</mgrwt>
</event>
<event>
 5    1  0.3276024E-002  0.1250002E+03  0.7818608E-02  0.1235069E+00
          4   -1    0    0  501    0  0.00000000000E+00  0.00000000000E+00  0.34789214576E+02  0.34812387893E+02  0.12700000000E+01 0. -1.
         -4   -1    0    0    0  501 -0.00000000000E+00 -0.00000000000E+00 -0.11221948909E+03  0.11222667522E+03  0.12700000000E+01 0. -1.
         25    2    1    2    0    0  0.00000000000E+00  0.00000000000E+00 -0.77430274512E+02  0.14703906311E+03  0.12500015468E+03 0.  0.
    9000005    1    3    3    0    0  0.54127875723E+01  0.55608729714E+02 -0.57861887073E+01  0.56179258357E+02  0.10000000000E+01 0.  0.
    9000005    1    3    3    0    0 -0.54127875723E+01 -0.55608729714E+02 -0.71644085805E+02  0.90859804757E+02  0.10000000000E+01 0.  0.
<mgrwt>
<rscale>  0 0.12500015E+03</rscale>
<asrwt>0</asrwt>
<pdfrwt beam="1">  1        4 0.53545223E-02 0.12500015E+03</pdfrwt>
<pdfrwt beam="2">  1       -4 0.17266872E-01 0.12500015E+03</pdfrwt>
<totfact> 0.99896877E+03</totfact>
</mgrwt>
</event>
<event>
 5    1  0.3276024E-002  0.1250009E+03  0.7818608E-02  0.1235068E+00
         -4   -1    0    0    0  501 -0.00000000000E+00  0.00000000000E+00  0.47242737819E+02  0.47259805085E+02  0.12700000000E+01 0. -1.
          4   -1    0    0  501    0  0.00000000000E+00 -0.00000000000E+00 -0.82648919406E+02  0.82658676369E+02  0.12700000000E+01 0. -1.
         25    2    1    2    0    0  0.00000000000E+00  0.00000000000E+00 -0.35406181587E+02  0.12991848145E+03  0.12500085651E+03 0.  0.
    9000005    1    3    3    0    0  0.23061770284E+02 -0.40705056376E+02  0.25358197581E+02  0.53223914247E+02  0.10000000000E+01 0.  0.
    9000005    1    3    3    0    0 -0.23061770284E+02  0.40705056376E+02 -0.60764379168E+02  0.76694567206E+02  0.10000000000E+01 0.  0.
<mgrwt>
<rscale>  0 0.12500086E+03</rscale>
<asrwt>0</asrwt>
<pdfrwt beam="2">  1        4 0.12717282E-01 0.12500086E+03</pdfrwt>
<pdfrwt beam="1">  1       -4 0.72701769E-02 0.12500086E+03</pdfrwt>
<totfact> 0.10346052E+04</totfact>
</mgrwt>
</event>
<event>
 5    1  0.3276024E-002  0.1250001E+03  0.7818608E-02  0.1235069E+00
         -4   -1    0    0    0  501 -0.00000000000E+00  0.00000000000E+00  0.71401597989E+02  0.71412891661E+02  0.12700000000E+01 0. -1.
          4   -1    0    0  501    0  0.00000000000E+00 -0.00000000000E+00 -0.54685252523E+02  0.54699997655E+02  0.12700000000E+01 0. -1.
         25    2    1    2    0    0  0.00000000000E+00  0.00000000000E+00  0.16716345466E+02  0.12611288932E+03  0.12500009858E+03 0.  0.
    9000005    1    3    3    0    0 -0.40561205428E+02 -0.24043704105E+02 -0.33018448534E+02  0.57571946610E+02  0.10000000000E+01 0.  0.
    9000005    1    3    3    0    0  0.40561205428E+02  0.24043704105E+02  0.49734794000E+02  0.68540942706E+02  0.10000000000E+01 0.  0.
<mgrwt>
<rscale>  0 0.12500010E+03</rscale>
<asrwt>0</asrwt>
<pdfrwt beam="2">  1        4 0.84151188E-02 0.12500010E+03</pdfrwt>
<pdfrwt beam="1">  1       -4 0.10986864E-01 0.12500010E+03</pdfrwt>
<totfact> 0.10428461E+04</totfact>
</mgrwt>
</event>
<event>
 5    1  0.3276024E-002  0.1250005E+03  0.7818608E-02  0.1235069E+00
         -4   -1    0    0    0  501 -0.00000000000E+00  0.00000000000E+00  0.41862270323E+02  0.41881530256E+02  0.12700000000E+01 0.  1.
          4   -1    0    0  501    0  0.00000000000E+00 -0.00000000000E+00 -0.93267627930E+02  0.93276274152E+02  0.12700000000E+01 0.  1.
         25    2    1    2    0    0  0.00000000000E+00  0.00000000000E+00 -0.51405357607E+02  0.13515780441E+03  0.12500048521E+03 0.  0.
    9000005    1    3    3    0    0 -0.42087805538E+02  0.94697708813E+01  0.23184309957E+02  0.48985428075E+02  0.10000000000E+01 0.  0.
    9000005    1    3    3    0    0  0.42087805538E+02 -0.94697708813E+01 -0.74589667564E+02  0.86172376333E+02  0.10000000000E+01 0.  0.
<mgrwt>
<rscale>  0 0.12500049E+03</rscale>
<asrwt>0</asrwt>
<pdfrwt beam="2">  1        4 0.14351012E-01 0.12500049E+03</pdfrwt>
<pdfrwt beam="1">  1       -4 0.64424959E-02 0.12500049E+03</pdfrwt>
<totfact> 0.10234634E+04</totfact>
</mgrwt>
</event>
<event>
 5    1  0.3276024E-002  0.1249975E+03  0.7818608E-02  0.1235073E+00
         -4   -1    0    0    0  501 -0.00000000000E+00  0.00000000000E+00  0.44308503628E+02  0.44326700686E+02  0.12700000000E+01 0. -1.
          4   -1    0    0  501    0  0.00000000000E+00 -0.00000000000E+00 -0.88115890653E+02  0.88125042330E+02  0.12700000000E+01 0. -1.
         25    2    1    2    0    0  0.00000000000E+00  0.00000000000E+00 -0.43807387025E+02  0.13245174302E+03  0.12499750826E+03 0.  0.
    9000005    1    3    3    0    0  0.45359447930E-01  0.17212167409E+02  0.41752365121E+02  0.45172123678E+02  0.10000000000E+01 0.  0.
    9000005    1    3    3    0    0 -0.45359447930E-01 -0.17212167409E+02 -0.85559752147E+02  0.87279619338E+02  0.10000000000E+01 0.  0.
<mgrwt>
<rscale>  0 0.12499751E+03</rscale>
<asrwt>0</asrwt>
<pdfrwt beam="2">  1        4 0.13558395E-01 0.12499751E+03</pdfrwt>
<pdfrwt beam="1">  1       -4 0.68187967E-02 0.12499751E+03</pdfrwt>
<totfact> 0.10292644E+04</totfact>
</mgrwt>
</event>
<event>
 5    1  0.3276024E-002  0.1249989E+03  0.7818608E-02  0.1235071E+00
          4   -1    0    0  501    0  0.00000000000E+00  0.00000000000E+00  0.22542318184E+02  0.22578064777E+02  0.12700000000E+01 0. -1.
         -4   -1    0    0    0  501 -0.00000000000E+00 -0.00000000000E+00 -0.17310670084E+03  0.17311135946E+03  0.12700000000E+01 0. -1.
         25    2    1    2    0    0  0.00000000000E+00  0.00000000000E+00 -0.15056438265E+03  0.19568942424E+03  0.12499886974E+03 0.  0.
    9000005    1    3    3    0    0  0.41880157374E+02 -0.11007717566E+02 -0.14581901724E+03  0.15211608468E+03  0.10000000000E+01 0.  0.
    9000005    1    3    3    0    0 -0.41880157374E+02  0.11007717566E+02 -0.47453654102E+01  0.43573339562E+02  0.10000000000E+01 0.  0.
<mgrwt>
<rscale>  0 0.12499887E+03</rscale>
<asrwt>0</asrwt>
<pdfrwt beam="1">  1        4 0.34711572E-02 0.12499887E+03</pdfrwt>
<pdfrwt beam="2">  1       -4 0.26634907E-01 0.12499887E+03</pdfrwt>
<totfact> 0.90868989E+03</totfact>
</mgrwt>
</event>
<event>
 4    1  0.3276024E-002  0.1248987E+03  0.7818608E-02  0.1235228E+00
         -4   -1    0    0    0  501 -0.00000000000E+00  0.00000000000E+00  0.29087139948E+02  0.29114852058E+02  0.12700000000E+01 0.  1.
          4   -1    0    0  501    0  0.00000000000E+00 -0.00000000000E+00 -0.13398263074E+03  0.13398864967E+03  0.12700000000E+01 0.  1.
    9000005    1    1    2    0    0  0.98930224211E+01  0.43835490281E+02 -0.10906209034E+03  0.11796169569E+03  0.10000000000E+01 0.  0.
    9000005    1    1    2    0    0 -0.98930224211E+01 -0.43835490281E+02  0.41665995439E+01  0.45141806040E+02  0.10000000000E+01 0.  0.
<mgrwt>
<rscale>  0 0.12489871E+03</rscale>
<asrwt>0</asrwt>
<pdfrwt beam="2">  1        4 0.20615307E-01 0.12489871E+03</pdfrwt>
<pdfrwt beam="1">  1       -4 0.44775394E-02 0.12489871E+03</pdfrwt>
<totfact> 0.96968286E+03</totfact>
</mgrwt>
</event>
<event>
 5    1  0.3276024E-002  0.1250103E+03  0.7818608E-02  0.1235053E+00
          4   -1    0    0  501    0  0.00000000000E+00  0.00000000000E+00  0.62845202360E+01  0.64115594512E+01  0.12700000000E+01 0.  1.
         -4   -1    0    0    0  501 -0.00000000000E+00 -0.00000000000E+00 -0.61532137567E+03  0.61532268629E+03  0.12700000000E+01 0.  1.
         25    2    1    2    0    0  0.00000000000E+00  0.00000000000E+00 -0.60903685544E+03  0.62173424574E+03  0.12501032375E+03 0.  0.
    9000005    1    3    3    0    0  0.83512306362E+01 -0.56431161824E+02 -0.43148074311E+03  0.43523654575E+03  0.10000000000E+01 0.  0.
    9000005    1    3    3    0    0 -0.83512306362E+01  0.56431161824E+02 -0.17755611232E+03  0.18649769999E+03  0.10000000000E+01 0.  0.
<mgrwt>
<rscale>  0 0.12501032E+03</rscale>
<asrwt>0</asrwt>
<pdfrwt beam="1">  1        4 0.97672282E-03 0.12501032E+03</pdfrwt>
<pdfrwt beam="2">  1       -4 0.94674653E-01 0.12501032E+03</pdfrwt>
<totfact> 0.47513073E+03</totfact>
</mgrwt>
</event>
<event>
 5    1  0.3276024E-002  0.1250023E+03  0.7818608E-02  0.1235066E+00
          4   -1    0    0  501    0  0.00000000000E+00  0.00000000000E+00  0.13892342983E+02  0.13950272168E+02  0.12700000000E+01 0.  1.
         -4   -1    0    0    0  501 -0.00000000000E+00 -0.00000000000E+00 -0.28054607063E+03  0.28054894519E+03  0.12700000000E+01 0.  1.
         25    2    1    2    0    0  0.00000000000E+00  0.00000000000E+00 -0.26665372765E+03  0.29449921735E+03  0.12500231420E+03 0.  0.
    9000005    1    3    3    0    0  0.22759517209E+02 -0.32274289866E+02 -0.19220797401E+02  0.43932498935E+02  0.10000000000E+01 0.  0.
    9000005    1    3    3    0    0 -0.22759517209E+02  0.32274289866E+02 -0.24743293024E+03  0.25056671842E+03  0.10000000000E+01 0.  0.
<mgrwt>
<rscale>  0 0.12500231E+03</rscale>
<asrwt>0</asrwt>
<pdfrwt beam="1">  1        4 0.21419610E-02 0.12500231E+03</pdfrwt>
<pdfrwt beam="2">  1       -4 0.43165607E-01 0.12500231E+03</pdfrwt>
<totfact> 0.76290149E+03</totfact>
</mgrwt>
</event>
<event>
 5    1  0.3276024E-002  0.1250028E+03  0.7818608E-02  0.1235065E+00
         -4   -1    0    0    0  501 -0.00000000000E+00  0.00000000000E+00  0.88554912368E+01  0.89460955196E+01  0.12700000000E+01 0. -1.
          4   -1    0    0  501    0  0.00000000000E+00 -0.00000000000E+00 -0.43879346164E+03  0.43879529952E+03  0.12700000000E+01 0. -1.
         25    2    1    2    0    0  0.00000000000E+00  0.00000000000E+00 -0.42993797040E+03  0.44774139504E+03  0.12500279371E+03 0.  0.
    9000005    1    3    3    0    0 -0.48666366510E+02  0.33257367957E+02 -0.14061154579E+03  0.15246991363E+03  0.10000000000E+01 0.  0.
    9000005    1    3    3    0    0  0.48666366510E+02 -0.33257367957E+02 -0.28932642462E+03  0.29527148141E+03  0.10000000000E+01 0.  0.
<mgrwt>
<rscale>  0 0.12500279E+03</rscale>
<asrwt>0</asrwt>
<pdfrwt beam="2">  1        4 0.67513781E-01 0.12500279E+03</pdfrwt>
<pdfrwt beam="1">  1       -4 0.13694945E-02 0.12500279E+03</pdfrwt>
<totfact> 0.60156263E+03</totfact>
</mgrwt>
</event>
<event>
 5    1  0.3276024E-002  0.1249954E+03  0.7818608E-02  0.1235076E+00
         -4   -1    0    0    0  501 -0.00000000000E+00  0.00000000000E+00  0.13686454688E+03  0.13687043907E+03  0.12700000000E+01 0. -1.
          4   -1    0    0  501    0  0.00000000000E+00 -0.00000000000E+00 -0.28518244300E+02  0.28546508682E+02  0.12700000000E+01 0. -1.
         25    2    1    2    0    0  0.00000000000E+00  0.00000000000E+00  0.10834630258E+03  0.16541694775E+03  0.12499538120E+03 0.  0.
    9000005    1    3    3    0    0  0.47355298055E+02  0.22095395961E+02  0.99521630363E+02  0.11241123470E+03  0.10000000000E+01 0.  0.
    9000005    1    3    3    0    0 -0.47355298055E+02 -0.22095395961E+02  0.88246722130E+01  0.53005713053E+02  0.10000000000E+01 0.  0.
<mgrwt>
<rscale>  0 0.12499538E+03</rscale>
<asrwt>0</asrwt>
<pdfrwt beam="2">  1        4 0.43900496E-02 0.12499538E+03</pdfrwt>
<pdfrwt beam="1">  1       -4 0.21058712E-01 0.12499538E+03</pdfrwt>
<totfact> 0.96318480E+03</totfact>
</mgrwt>
</event>
<event>
 5    1  0.3276024E-002  0.1250086E+03  0.7818608E-02  0.1235056E+00
         -4   -1    0    0    0  501 -0.00000000000E+00  0.00000000000E+00  0.12157083904E+03  0.12157747244E+03  0.12700000000E+01 0. -1.
          4   -1    0    0  501    0  0.00000000000E+00 -0.00000000000E+00 -0.32115835535E+02  0.32140936392E+02  0.12700000000E+01 0. -1.
         25    2    1    2    0    0  0.00000000000E+00  0.00000000000E+00  0.89455003501E+02  0.15371840883E+03  0.12500860595E+03 0.  0.
    9000005    1    3    3    0    0 -0.55608325050E+02  0.64886779517E+01  0.10574762554E+02  0.56984334334E+02  0.10000000000E+01 0.  0.
    9000005    1    3    3    0    0  0.55608325050E+02 -0.64886779517E+01  0.78880240947E+02  0.96734074494E+02  0.10000000000E+01 0.  0.
<mgrwt>
<rscale>  0 0.12500861E+03</rscale>
<asrwt>0</asrwt>
<pdfrwt beam="2">  1        4 0.49433389E-02 0.12500861E+03</pdfrwt>
<pdfrwt beam="1">  1       -4 0.18705647E-01 0.12500861E+03</pdfrwt>
<totfact> 0.98548506E+03</totfact>
</mgrwt>
</event>
<event>
 5    1  0.3276024E-002  0.1249983E+03  0.7818608E-02  0.1235072E+00
         -4   -1    0    0    0  501 -0.00000000000E+00  0.00000000000E+00  0.22963351747E+02  0.22998443936E+02  0.12700000000E+01 0. -1.
          4   -1    0    0  501    0  0.00000000000E+00 -0.00000000000E+00 -0.16993613441E+03  0.16994087995E+03  0.12700000000E+01 0. -1.
         25    2    1    2    0    0  0.00000000000E+00  0.00000000000E+00 -0.14697278266E+03  0.19293932389E+03  0.12499833542E+03 0.  0.
    9000005    1    3    3    0    0  0.27086841108E+02 -0.54232766863E+02 -0.96908284850E+02  0.11431144140E+03  0.10000000000E+01 0.  0.
    9000005    1    3    3    0    0 -0.27086841108E+02  0.54232766863E+02 -0.50064497813E+02  0.78627882485E+02  0.10000000000E+01 0.  0.
<mgrwt>
<rscale>  0 0.12499834E+03</rscale>
<asrwt>0</asrwt>
<pdfrwt beam="2">  1        4 0.26147084E-01 0.12499834E+03</pdfrwt>
<pdfrwt beam="1">  1       -4 0.35358879E-02 0.12499834E+03</pdfrwt>
<totfact> 0.91341788E+03</totfact>
</mgrwt>
</event>
<event>
 5    1  0.3276024E-002  0.1249957E+03  0.7818608E-02  0.1235076E+00
         -4   -1    0    0    0  501 -0.00000000000E+00  0.00000000000E+00  0.39958142205E+02  0.39978319480E+02  0.12700000000E+01 0. -1.
          4   -1    0    0  501    0  0.00000000000E+00 -0.00000000000E+00 -0.97702857413E+02  0.97711111173E+02  0.12700000000E+01 0. -1.
         25    2    1    2    0    0  0.00000000000E+00  0.00000000000E+00 -0.57744715208E+02  0.13768943065E+03  0.12499570864E+03 0.  0.
    9000005    1    3    3    0    0  0.84584356296E+01 -0.55922767641E+02 -0.58143028572E+02  0.81120360240E+02  0.10000000000E+01 0.  0.
    9000005    1    3    3    0    0 -0.84584356296E+01  0.55922767641E+02  0.39831336462E+00  0.56569070413E+02  0.10000000000E+01 0.  0.
<mgrwt>
<rscale>  0 0.12499571E+03</rscale>
<asrwt>0</asrwt>
<pdfrwt beam="2">  1        4 0.15033396E-01 0.12499571E+03</pdfrwt>
<pdfrwt beam="1">  1       -4 0.61495935E-02 0.12499571E+03</pdfrwt>
<totfact> 0.10182675E+04</totfact>
</mgrwt>
</event>
<event>
 5    1  0.3276024E-002  0.1249962E+03  0.7818608E-02  0.1235075E+00
          4   -1    0    0  501    0  0.00000000000E+00  0.00000000000E+00  0.12452879040E+02  0.12517471645E+02  0.12700000000E+01 0.  1.
         -4   -1    0    0    0  501 -0.00000000000E+00 -0.00000000000E+00 -0.31278621903E+03  0.31278879730E+03  0.12700000000E+01 0.  1.
         25    2    1    2    0    0  0.00000000000E+00  0.00000000000E+00 -0.30033333999E+03  0.32530626895E+03  0.12499621396E+03 0.  0.
    9000005    1    3    3    0    0 -0.13157590330E+02  0.59218369605E+02 -0.18921118799E+03  0.19870030484E+03  0.10000000000E+01 0.  0.
    9000005    1    3    3    0    0  0.13157590330E+02 -0.59218369605E+02 -0.11112215200E+03  0.12660596411E+03  0.10000000000E+01 0.  0.
<mgrwt>
<rscale>  0 0.12499621E+03</rscale>
<asrwt>0</asrwt>
<pdfrwt beam="1">  1        4 0.19209948E-02 0.12499621E+03</pdfrwt>
<pdfrwt beam="2">  1       -4 0.48126118E-01 0.12499621E+03</pdfrwt>
<totfact> 0.72535516E+03</totfact>
</mgrwt>
</event>
<event>
 5    1  0.3276024E-002  0.1250028E+03  0.7818608E-02  0.1235065E+00
          4   -1    0    0  501    0  0.00000000000E+00  0.00000000000E+00  0.19698857291E+02  0.19739753762E+02  0.12700000000E+01 0. -1.
         -4   -1    0    0    0  501 -0.00000000000E+00 -0.00000000000E+00 -0.19805862001E+03  0.19806269174E+03  0.12700000000E+01 0. -1.
         25    2    1    2    0    0  0.00000000000E+00  0.00000000000E+00 -0.17835976272E+03  0.21780244550E+03  0.12500280121E+03 0.  0.
    9000005    1    3    3    0    0 -0.26400461864E+02  0.56048960383E+02 -0.74922701080E+02  0.97225930100E+02  0.10000000000E+01 0.  0.
    9000005    1    3    3    0    0  0.26400461864E+02 -0.56048960383E+02 -0.10343706164E+03  0.12057651540E+03  0.10000000000E+01 0.  0.
<mgrwt>
<rscale>  0 0.12500280E+03</rscale>
<asrwt>0</asrwt>
<pdfrwt beam="1">  1        4 0.30340527E-02 0.12500280E+03</pdfrwt>
<pdfrwt beam="2">  1       -4 0.30474015E-01 0.12500280E+03</pdfrwt>
<totfact> 0.87211825E+03</totfact>
</mgrwt>
</event>
<event>
 5    1  0.3276024E-002  0.1250006E+03  0.7818608E-02  0.1235068E+00
         -4   -1    0    0    0  501 -0.00000000000E+00  0.00000000000E+00  0.11788624611E+03  0.11789308682E+03  0.12700000000E+01 0. -1.
          4   -1    0    0  501    0  0.00000000000E+00 -0.00000000000E+00 -0.33116115853E+02  0.33140459098E+02  0.12700000000E+01 0. -1.
         25    2    1    2    0    0  0.00000000000E+00  0.00000000000E+00  0.84770130253E+02  0.15103354592E+03  0.12500062804E+03 0.  0.
    9000005    1    3    3    0    0  0.47535048478E+02 -0.18550593098E+01  0.91349768713E+02  0.10299904040E+03  0.10000000000E+01 0.  0.
    9000005    1    3    3    0    0 -0.47535048478E+02  0.18550593098E+01 -0.65796384601E+01  0.48034505525E+02  0.10000000000E+01 0.  0.
<mgrwt>
<rscale>  0 0.12500063E+03</rscale>
<asrwt>0</asrwt>
<pdfrwt beam="2">  1        4 0.50971858E-02 0.12500063E+03</pdfrwt>
<pdfrwt beam="1">  1       -4 0.18138744E-01 0.12500063E+03</pdfrwt>
<totfact> 0.99096673E+03</totfact>
</mgrwt>
</event>
<event>
 5    1  0.3276024E-002  0.1249971E+03  0.7818608E-02  0.1235074E+00
          4   -1    0    0  501    0  0.00000000000E+00  0.00000000000E+00  0.41978148617E+01  0.43857211052E+01  0.12700000000E+01 0. -1.
         -4   -1    0    0    0  501 -0.00000000000E+00 -0.00000000000E+00 -0.90994227819E+03  0.90994316445E+03  0.12700000000E+01 0. -1.
         25    2    1    2    0    0  0.00000000000E+00  0.00000000000E+00 -0.90574446332E+03  0.91432888556E+03  0.12499711244E+03 0.  0.
    9000005    1    3    3    0    0  0.47602953203E+02 -0.40426116205E+02 -0.43691740558E+03  0.44135941286E+03  0.10000000000E+01 0.  0.
    9000005    1    3    3    0    0 -0.47602953203E+02  0.40426116205E+02 -0.46882705775E+03  0.47296947270E+03  0.10000000000E+01 0.  0.
<mgrwt>
<rscale>  0 0.12499711E+03</rscale>
<asrwt>0</asrwt>
<pdfrwt beam="1">  1        4 0.66034090E-03 0.12499711E+03</pdfrwt>
<pdfrwt beam="2">  1       -4 0.14000549E+00 0.12499711E+03</pdfrwt>
<totfact> 0.33619318E+03</totfact>
</mgrwt>
</event>
<event>
 5    1  0.3276024E-002  0.1250009E+03  0.7818608E-02  0.1235068E+00
          4   -1    0    0  501    0  0.00000000000E+00  0.00000000000E+00  0.45416805797E+03  0.45416983363E+03  0.12700000000E+01 0.  1.
         -4   -1    0    0    0  501 -0.00000000000E+00 -0.00000000000E+00 -0.85523311334E+01  0.86461128732E+01  0.12700000000E+01 0.  1.
         25    2    1    2    0    0  0.00000000000E+00  0.00000000000E+00  0.44561572683E+03  0.46281594650E+03  0.12500089733E+03 0.  0.
    9000005    1    3    3    0    0  0.17214310698E+02 -0.59316494638E+02  0.25803557069E+03  0.26532646828E+03  0.10000000000E+01 0.  0.
    9000005    1    3    3    0    0 -0.17214310698E+02  0.59316494638E+02  0.18758015614E+03  0.19748947822E+03  0.10000000000E+01 0.  0.
<mgrwt>
<rscale>  0 0.12500090E+03</rscale>
<asrwt>0</asrwt>
<pdfrwt beam="1">  1        4 0.69879367E-01 0.12500090E+03</pdfrwt>
<pdfrwt beam="2">  1       -4 0.13230937E-02 0.12500090E+03</pdfrwt>
<totfact> 0.58868240E+03</totfact>
</mgrwt>
</event>
<event>
 5    1  0.3276024E-002  0.1249987E+03  0.7818608E-02  0.1235071E+00
          4   -1    0    0  501    0  0.00000000000E+00  0.00000000000E+00  0.28004451290E+03  0.28004739261E+03  0.12700000000E+01 0. -1.
         -4   -1    0    0    0  501 -0.00000000000E+00 -0.00000000000E+00 -0.13916509166E+02  0.13974338173E+02  0.12700000000E+01 0. -1.
         25    2    1    2    0    0  0.00000000000E+00  0.00000000000E+00  0.26612800373E+03  0.29402173078E+03  0.12499865519E+03 0.  0.
    9000005    1    3    3    0    0 -0.54542562992E+02 -0.33911859711E+01  0.20436220525E+03  0.21154503599E+03  0.10000000000E+01 0.  0.
    9000005    1    3    3    0    0  0.54542562992E+02  0.33911859711E+01  0.61765798488E+02  0.82476694786E+02  0.10000000000E+01 0.  0.
<mgrwt>
<rscale>  0 0.12499866E+03</rscale>
<asrwt>0</asrwt>
<pdfrwt beam="1">  1        4 0.43088439E-01 0.12499866E+03</pdfrwt>
<pdfrwt beam="2">  1       -4 0.21456714E-02 0.12499866E+03</pdfrwt>
<totfact> 0.76357194E+03</totfact>
</mgrwt>
</event>
<event>
 5    1  0.3276024E-002  0.1249961E+03  0.7818608E-02  0.1235075E+00
          4   -1    0    0  501    0  0.00000000000E+00  0.00000000000E+00  0.14114729375E+03  0.14115300717E+03  0.12700000000E+01 0. -1.
         -4   -1    0    0    0  501 -0.00000000000E+00 -0.00000000000E+00 -0.27652413805E+02  0.27681562261E+02  0.12700000000E+01 0. -1.
         25    2    1    2    0    0  0.00000000000E+00  0.00000000000E+00  0.11349487995E+03  0.16883456943E+03  0.12499609618E+03 0.  0.
    9000005    1    3    3    0    0  0.35370215451E+02  0.47323132448E+02  0.84246262631E+02  0.10290269080E+03  0.10000000000E+01 0.  0.
    9000005    1    3    3    0    0 -0.35370215451E+02 -0.47323132448E+02  0.29248617318E+02  0.65931878638E+02  0.10000000000E+01 0.  0.
<mgrwt>
<rscale>  0 0.12499610E+03</rscale>
<asrwt>0</asrwt>
<pdfrwt beam="1">  1        4 0.21717649E-01 0.12499610E+03</pdfrwt>
<pdfrwt beam="2">  1       -4 0.42568994E-02 0.12499610E+03</pdfrwt>
<totfact> 0.95674461E+03</totfact>
</mgrwt>
</event>
<event>
 5    1  0.3276024E-002  0.1249998E+03  0.7818608E-02  0.1235070E+00
         -4   -1    0    0    0  501 -0.00000000000E+00  0.00000000000E+00  0.13536186659E+04  0.13536192617E+04  0.12700000000E+01 0. -1.
          4   -1    0    0  501    0  0.00000000000E+00 -0.00000000000E+00 -0.27454187995E+01  0.30249337818E+01  0.12700000000E+01 0. -1.
         25    2    1    2    0    0  0.00000000000E+00  0.00000000000E+00  0.13508732471E+04  0.13566441955E+04  0.12499977332E+03 0.  0.
    9000005    1    3    3    0    0 -0.47174516316E+02 -0.27932056266E+02  0.10009596530E+04  0.10024604041E+04  0.10000000000E+01 0.  0.
    9000005    1    3    3    0    0  0.47174516316E+02  0.27932056266E+02  0.34991359411E+03  0.35418379142E+03  0.10000000000E+01 0.  0.
<mgrwt>
<rscale>  0 0.12499977E+03</rscale>
<asrwt>0</asrwt>
<pdfrwt beam="2">  1        4 0.44391934E-03 0.12499977E+03</pdfrwt>
<pdfrwt beam="1">  1       -4 0.20827046E+00 0.12499977E+03</pdfrwt>
<totfact> 0.20929836E+03</totfact>
</mgrwt>
</event>
<event>
 5    1  0.3276024E-002  0.1249995E+03  0.7818608E-02  0.1235070E+00
         -4   -1    0    0    0  501 -0.00000000000E+00  0.00000000000E+00  0.13353873859E+02  0.13414128635E+02  0.12700000000E+01 0.  1.
          4   -1    0    0  501    0  0.00000000000E+00 -0.00000000000E+00 -0.29179571870E+03  0.29179848243E+03  0.12700000000E+01 0.  1.
         25    2    1    2    0    0  0.00000000000E+00  0.00000000000E+00 -0.27844184484E+03  0.30521261107E+03  0.12499950799E+03 0.  0.
    9000005    1    3    3    0    0 -0.25506681679E+02 -0.54223139116E+02 -0.18252117465E+03  0.19210861204E+03  0.10000000000E+01 0.  0.
    9000005    1    3    3    0    0  0.25506681679E+02  0.54223139116E+02 -0.95920670185E+02  0.11310399902E+03  0.10000000000E+01 0.  0.
<mgrwt>
<rscale>  0 0.12499951E+03</rscale>
<asrwt>0</asrwt>
<pdfrwt beam="2">  1        4 0.44896492E-01 0.12499951E+03</pdfrwt>
<pdfrwt beam="1">  1       -4 0.20592899E-02 0.12499951E+03</pdfrwt>
<totfact> 0.74950417E+03</totfact>
</mgrwt>
</event>
<event>
 5    1  0.3276024E-002  0.1249986E+03  0.7818608E-02  0.1235071E+00
          4   -1    0    0  501    0  0.00000000000E+00  0.00000000000E+00  0.24461007322E+02  0.24493953932E+02  0.12700000000E+01 0. -1.
         -4   -1    0    0    0  501 -0.00000000000E+00 -0.00000000000E+00 -0.15954637749E+03  0.15955143205E+03  0.12700000000E+01 0. -1.
         25    2    1    2    0    0  0.00000000000E+00  0.00000000000E+00 -0.13508537016E+03  0.18404538598E+03  0.12499858747E+03 0.  0.
    9000005    1    3    3    0    0 -0.38339671319E+02  0.46389111364E+02 -0.92324269157E+02  0.11021184476E+03  0.10000000000E+01 0.  0.
    9000005    1    3    3    0    0  0.38339671319E+02 -0.46389111364E+02 -0.42761101007E+02  0.73833541222E+02  0.10000000000E+01 0.  0.
<mgrwt>
<rscale>  0 0.12499859E+03</rscale>
<asrwt>0</asrwt>
<pdfrwt beam="1">  1        4 0.37661552E-02 0.12499859E+03</pdfrwt>
<pdfrwt beam="2">  1       -4 0.24548519E-01 0.12499859E+03</pdfrwt>
<totfact> 0.92896789E+03</totfact>
</mgrwt>
</event>
<event>
 5    1  0.3276024E-002  0.1250033E+03  0.7818608E-02  0.1235064E+00
         -4   -1    0    0    0  501 -0.00000000000E+00  0.00000000000E+00  0.25559848728E+02  0.25591380717E+02  0.12700000000E+01 0. -1.
          4   -1    0    0  501    0  0.00000000000E+00 -0.00000000000E+00 -0.15270736398E+03  0.15271264491E+03  0.12700000000E+01 0. -1.
         25    2    1    2    0    0  0.00000000000E+00  0.00000000000E+00 -0.12714751525E+03  0.17830402562E+03  0.12500333963E+03 0.  0.
    9000005    1    3    3    0    0  0.24592800554E+02 -0.57272193265E+02 -0.70039709066E+02  0.93762843421E+02  0.10000000000E+01 0.  0.
    9000005    1    3    3    0    0 -0.24592800554E+02  0.57272193265E+02 -0.57107806188E+02  0.84541182201E+02  0.10000000000E+01 0.  0.
<mgrwt>
<rscale>  0 0.12500334E+03</rscale>
<asrwt>0</asrwt>
<pdfrwt beam="2">  1        4 0.23496272E-01 0.12500334E+03</pdfrwt>
<pdfrwt beam="1">  1       -4 0.39351163E-02 0.12500334E+03</pdfrwt>
<totfact> 0.93916144E+03</totfact>
</mgrwt>
</event>
<event>
 5    1  0.3276024E-002  0.1250120E+03  0.7818608E-02  0.1235051E+00
         -4   -1    0    0    0  501 -0.00000000000E+00  0.00000000000E+00  0.73475272389E+02  0.73486247371E+02  0.12700000000E+01 0.  1.
          4   -1    0    0  501    0  0.00000000000E+00 -0.00000000000E+00 -0.53151787765E+02  0.53166958185E+02  0.12700000000E+01 0.  1.
         25    2    1    2    0    0  0.00000000000E+00  0.00000000000E+00  0.20323484625E+02  0.12665320556E+03  0.12501196123E+03 0.  0.
    9000005    1    3    3    0    0 -0.30876861076E+02 -0.54209799886E+02  0.63825333891E+01  0.62720169691E+02  0.10000000000E+01 0.  0.
    9000005    1    3    3    0    0  0.30876861076E+02  0.54209799886E+02  0.13940951235E+02  0.63933035865E+02  0.10000000000E+01 0.  0.
<mgrwt>
<rscale>  0 0.12501196E+03</rscale>
<asrwt>0</asrwt>
<pdfrwt beam="2">  1        4 0.81792094E-02 0.12501196E+03</pdfrwt>
<pdfrwt beam="1">  1       -4 0.11305899E-01 0.12501196E+03</pdfrwt>
<totfact> 0.10413877E+04</totfact>
</mgrwt>
</event>
<event>
 5    1  0.3276024E-002  0.1249975E+03  0.7818608E-02  0.1235073E+00
          4   -1    0    0  501    0  0.00000000000E+00  0.00000000000E+00  0.42014813836E+02  0.42034003874E+02  0.12700000000E+01 0.  1.
         -4   -1    0    0    0  501 -0.00000000000E+00 -0.00000000000E+00 -0.92924734867E+02  0.92933412991E+02  0.12700000000E+01 0.  1.
         25    2    1    2    0    0  0.00000000000E+00  0.00000000000E+00 -0.50909921031E+02  0.13496741686E+03  0.12499753420E+03 0.  0.
    9000005    1    3    3    0    0  0.15212978435E+02 -0.60366848305E+02 -0.19589881850E+02  0.65271391574E+02  0.10000000000E+01 0.  0.
    9000005    1    3    3    0    0 -0.15212978435E+02  0.60366848305E+02 -0.31320039181E+02  0.69696025291E+02  0.10000000000E+01 0.  0.
<mgrwt>
<rscale>  0 0.12499753E+03</rscale>
<asrwt>0</asrwt>
<pdfrwt beam="1">  1        4 0.64659612E-02 0.12499753E+03</pdfrwt>
<pdfrwt beam="2">  1       -4 0.14298257E-01 0.12499753E+03</pdfrwt>
<totfact> 0.10239327E+04</totfact>
</mgrwt>
</event>
<event>
 5    1  0.3276024E-002  0.1249945E+03  0.7818608E-02  0.1235078E+00
          4   -1    0    0  501    0  0.00000000000E+00  0.00000000000E+00  0.90824603307E+02  0.90833482075E+02  0.12700000000E+01 0. -1.
         -4   -1    0    0    0  501 -0.00000000000E+00 -0.00000000000E+00 -0.42984601582E+02  0.43003358859E+02  0.12700000000E+01 0. -1.
         25    2    1    2    0    0  0.00000000000E+00  0.00000000000E+00  0.47840001725E+02  0.13383684093E+03  0.12499453679E+03 0.  0.
    9000005    1    3    3    0    0  0.44505699341E+02  0.22883120909E+02 -0.16150833197E+02  0.52595093966E+02  0.10000000000E+01 0.  0.
    9000005    1    3    3    0    0 -0.44505699341E+02 -0.22883120909E+02  0.63990834922E+02  0.81241746968E+02  0.10000000000E+01 0.  0.
<mgrwt>
<rscale>  0 0.12499454E+03</rscale>
<asrwt>0</asrwt>
<pdfrwt beam="1">  1        4 0.13975142E-01 0.12499454E+03</pdfrwt>
<pdfrwt beam="2">  1       -4 0.66151416E-02 0.12499454E+03</pdfrwt>
<totfact> 0.10263911E+04</totfact>
</mgrwt>
</event>
<event>
 5    1  0.3276024E-002  0.1249993E+03  0.7818608E-02  0.1235070E+00
         -4   -1    0    0    0  501 -0.00000000000E+00  0.00000000000E+00  0.12269965816E+02  0.12335516249E+02  0.12700000000E+01 0.  1.
          4   -1    0    0  501    0  0.00000000000E+00 -0.00000000000E+00 -0.31744040264E+03  0.31744294311E+03  0.12700000000E+01 0.  1.
         25    2    1    2    0    0  0.00000000000E+00  0.00000000000E+00 -0.30517043682E+03  0.32977845935E+03  0.12499934697E+03 0.  0.
    9000005    1    3    3    0    0  0.55661377057E+02  0.17797297531E+02 -0.21100165682E+03  0.21894664162E+03  0.10000000000E+01 0.  0.
    9000005    1    3    3    0    0 -0.55661377057E+02 -0.17797297531E+02 -0.94168780002E+02  0.11083181773E+03  0.10000000000E+01 0.  0.
<mgrwt>
<rscale>  0 0.12499935E+03</rscale>
<asrwt>0</asrwt>
<pdfrwt beam="2">  1        4 0.48842217E-01 0.12499935E+03</pdfrwt>
<pdfrwt beam="1">  1       -4 0.18929251E-02 0.12499935E+03</pdfrwt>
<totfact> 0.72009049E+03</totfact>
</mgrwt>
</event>
<event>
 5    1  0.3276024E-002  0.1250154E+03  0.7818608E-02  0.1235045E+00
          4   -1    0    0  501    0  0.00000000000E+00  0.00000000000E+00  0.63810160526E+02  0.63822797545E+02  0.12700000000E+01 0.  1.
         -4   -1    0    0    0  501 -0.00000000000E+00 -0.00000000000E+00 -0.61206554672E+02  0.61219729131E+02  0.12700000000E+01 0.  1.
         25    2    1    2    0    0  0.00000000000E+00  0.00000000000E+00  0.26036058541E+01  0.12504252668E+03  0.12501541790E+03 0.  0.
    9000005    1    3    3    0    0  0.68007470516E+01 -0.42676478110E+02  0.46463357145E+02  0.63461606516E+02  0.10000000000E+01 0.  0.
    9000005    1    3    3    0    0 -0.68007470516E+01  0.42676478110E+02 -0.43859751291E+02  0.61580920160E+02  0.10000000000E+01 0.  0.
<mgrwt>
<rscale>  0 0.12501542E+03</rscale>
<asrwt>0</asrwt>
<pdfrwt beam="1">  1        4 0.98189333E-02 0.12501542E+03</pdfrwt>
<pdfrwt beam="2">  1       -4 0.94183785E-02 0.12501542E+03</pdfrwt>
<totfact> 0.10448298E+04</totfact>
</mgrwt>
</event>
<event>
 5    1  0.3276024E-002  0.1249959E+03  0.7818608E-02  0.1235076E+00
         -4   -1    0    0    0  501 -0.00000000000E+00  0.00000000000E+00  0.19278774500E+02  0.19320560195E+02  0.12700000000E+01 0. -1.
          4   -1    0    0  501    0  0.00000000000E+00 -0.00000000000E+00 -0.20234266159E+03  0.20234664711E+03  0.12700000000E+01 0. -1.
         25    2    1    2    0    0  0.00000000000E+00  0.00000000000E+00 -0.18306388709E+03  0.22166720731E+03  0.12499585609E+03 0.  0.
    9000005    1    3    3    0    0  0.34230827003E+02 -0.49098947696E+02 -0.59683065103E+02  0.84531203956E+02  0.10000000000E+01 0.  0.
    9000005    1    3    3    0    0 -0.34230827003E+02  0.49098947696E+02 -0.12338082199E+03  0.13713600335E+03  0.10000000000E+01 0.  0.
<mgrwt>
<rscale>  0 0.12499586E+03</rscale>
<asrwt>0</asrwt>
<pdfrwt beam="2">  1        4 0.31133160E-01 0.12499586E+03</pdfrwt>
<pdfrwt beam="1">  1       -4 0.29694863E-02 0.12499586E+03</pdfrwt>
<totfact> 0.86613238E+03</totfact>
</mgrwt>
</event>
<event>
 5    1  0.3276024E-002  0.1250033E+03  0.7818608E-02  0.1235064E+00
         -4   -1    0    0    0  501 -0.00000000000E+00  0.00000000000E+00  0.18925423215E+02  0.18967987343E+02  0.12700000000E+01 0.  1.
          4   -1    0    0  501    0  0.00000000000E+00 -0.00000000000E+00 -0.20613684653E+03  0.20614075870E+03  0.12700000000E+01 0.  1.
         25    2    1    2    0    0  0.00000000000E+00  0.00000000000E+00 -0.18721142331E+03  0.22510874604E+03  0.12500332206E+03 0.  0.
    9000005    1    3    3    0    0 -0.18250683233E+02 -0.21166065072E+02  0.70531225500E+01  0.28841572198E+02  0.10000000000E+01 0.  0.
    9000005    1    3    3    0    0  0.18250683233E+02  0.21166065072E+02 -0.19426454586E+03  0.19626717384E+03  0.10000000000E+01 0.  0.
<mgrwt>
<rscale>  0 0.12500332E+03</rscale>
<asrwt>0</asrwt>
<pdfrwt beam="2">  1        4 0.31716935E-01 0.12500332E+03</pdfrwt>
<pdfrwt beam="1">  1       -4 0.29151788E-02 0.12500332E+03</pdfrwt>
<totfact> 0.86059975E+03</totfact>
</mgrwt>
</event>
<event>
 5    1  0.3276024E-002  0.1250071E+03  0.7818608E-02  0.1235058E+00
          4   -1    0    0  501    0  0.00000000000E+00  0.00000000000E+00  0.83643546510E+01  0.84602203711E+01  0.12700000000E+01 0. -1.
         -4   -1    0    0    0  501 -0.00000000000E+00 -0.00000000000E+00 -0.46430646624E+03  0.46430820312E+03  0.12700000000E+01 0. -1.
         25    2    1    2    0    0  0.00000000000E+00  0.00000000000E+00 -0.45594211159E+03  0.47276842350E+03  0.12500709235E+03 0.  0.
    9000005    1    3    3    0    0  0.54952742453E+02 -0.29430431696E+02 -0.21116842949E+03  0.22017960811E+03  0.10000000000E+01 0.  0.
    9000005    1    3    3    0    0 -0.54952742453E+02  0.29430431696E+02 -0.24477368209E+03  0.25258881539E+03  0.10000000000E+01 0.  0.
<mgrwt>
<rscale>  0 0.12500709E+03</rscale>
<asrwt>0</asrwt>
<pdfrwt beam="1">  1        4 0.12943320E-02 0.12500709E+03</pdfrwt>
<pdfrwt beam="2">  1       -4 0.71439252E-01 0.12500709E+03</pdfrwt>
<totfact> 0.58031839E+03</totfact>
</mgrwt>
</event>
<event>
 5    1  0.3276024E-002  0.1249992E+03  0.7818608E-02  0.1235071E+00
         -4   -1    0    0    0  501 -0.00000000000E+00  0.00000000000E+00  0.47212701393E+01  0.48890992758E+01  0.12700000000E+01 0.  1.
          4   -1    0    0  501    0  0.00000000000E+00 -0.00000000000E+00 -0.81274505007E+03  0.81274604233E+03  0.12700000000E+01 0.  1.
         25    2    1    2    0    0  0.00000000000E+00  0.00000000000E+00 -0.80802377993E+03  0.81763514160E+03  0.12499918338E+03 0.  0.
    9000005    1    3    3    0    0 -0.24450512183E+02  0.39699151312E+02 -0.13183912929E+03  0.13984422109E+03  0.10000000000E+01 0.  0.
    9000005    1    3    3    0    0  0.24450512183E+02 -0.39699151312E+02 -0.67618465064E+03  0.67779092051E+03  0.10000000000E+01 0.  0.
<mgrwt>
<rscale>  0 0.12499918E+03</rscale>
<asrwt>0</asrwt>
<pdfrwt beam="2">  1        4 0.12505058E+00 0.12499918E+03</pdfrwt>
<pdfrwt beam="1">  1       -4 0.73933616E-03 0.12499918E+03</pdfrwt>
<totfact> 0.37490171E+03</totfact>
</mgrwt>
</event>
<event>
 5    1  0.3276024E-002  0.1250044E+03  0.7818608E-02  0.1235062E+00
         -4   -1    0    0    0  501 -0.00000000000E+00  0.00000000000E+00  0.29736032521E+01  0.32334526904E+01  0.12700000000E+01 0. -1.
          4   -1    0    0  501    0  0.00000000000E+00 -0.00000000000E+00 -0.12584767838E+04  0.12584774246E+04  0.12700000000E+01 0. -1.
         25    2    1    2    0    0  0.00000000000E+00  0.00000000000E+00 -0.12555031805E+04  0.12617108773E+04  0.12500440609E+03 0.  0.
    9000005    1    3    3    0    0  0.84619282427E+01 -0.39257201750E+02 -0.11110517903E+04  0.11117777714E+04  0.10000000000E+01 0.  0.
    9000005    1    3    3    0    0 -0.84619282427E+01  0.39257201750E+02 -0.14445139020E+03  0.14993310591E+03  0.10000000000E+01 0.  0.
<mgrwt>
<rscale>  0 0.12500441E+03</rscale>
<asrwt>0</asrwt>
<pdfrwt beam="2">  1        4 0.19363144E+00 0.12500441E+03</pdfrwt>
<pdfrwt beam="1">  1       -4 0.47751614E-03 0.12500441E+03</pdfrwt>
<totfact> 0.23148467E+03</totfact>
</mgrwt>
</event>
<event>
 5    1  0.3276024E-002  0.1250006E+03  0.7818608E-02  0.1235068E+00
         -4   -1    0    0    0  501 -0.00000000000E+00  0.00000000000E+00  0.39210319127E+02  0.39230881025E+02  0.12700000000E+01 0. -1.
          4   -1    0    0  501    0  0.00000000000E+00 -0.00000000000E+00 -0.99573185556E+02  0.99581284295E+02  0.12700000000E+01 0. -1.
         25    2    1    2    0    0  0.00000000000E+00  0.00000000000E+00 -0.60362866429E+02  0.13881216532E+03  0.12500056639E+03 0.  0.
    9000005    1    3    3    0    0  0.55514207230E+02 -0.26751522132E+02 -0.18650786970E+02  0.64391948218E+02  0.10000000000E+01 0.  0.
    9000005    1    3    3    0    0 -0.55514207230E+02  0.26751522132E+02 -0.41712079460E+02  0.74420217102E+02  0.10000000000E+01 0.  0.
<mgrwt>
<rscale>  0 0.12500057E+03</rscale>
<asrwt>0</asrwt>
<pdfrwt beam="2">  1        4 0.15321156E-01 0.12500057E+03</pdfrwt>
<pdfrwt beam="1">  1       -4 0.60345615E-02 0.12500057E+03</pdfrwt>
<totfact> 0.10158134E+04</totfact>
</mgrwt>
</event>
<event>
 5    1  0.3276024E-002  0.1249974E+03  0.7818608E-02  0.1235073E+00
          4   -1    0    0  501    0  0.00000000000E+00  0.00000000000E+00  0.83512186450E+03  0.83512283017E+03  0.12700000000E+01 0. -1.
         -4   -1    0    0    0  501 -0.00000000000E+00 -0.00000000000E+00 -0.45900729554E+01  0.47625276625E+01  0.12700000000E+01 0. -1.
         25    2    1    2    0    0  0.00000000000E+00  0.00000000000E+00  0.83053179155E+03  0.83988535783E+03  0.12499743009E+03 0.  0.
    9000005    1    3    3    0    0  0.56521088176E+02  0.27700991868E+01  0.59339275186E+03  0.59608578646E+03  0.10000000000E+01 0.  0.
    9000005    1    3    3    0    0 -0.56521088176E+02 -0.27700991868E+01  0.23713903969E+03  0.24379957138E+03  0.10000000000E+01 0.  0.
<mgrwt>
<rscale>  0 0.12499743E+03</rscale>
<asrwt>0</asrwt>
<pdfrwt beam="1">  1        4 0.12849368E+00 0.12499743E+03</pdfrwt>
<pdfrwt beam="2">  1       -4 0.71950481E-03 0.12499743E+03</pdfrwt>
<totfact> 0.36546874E+03</totfact>
</mgrwt>
</event>
<event>
 5    1  0.3276024E-002  0.1249893E+03  0.7818608E-02  0.1235086E+00
         -4   -1    0    0    0  501 -0.00000000000E+00  0.00000000000E+00  0.63286734638E+02  0.63299476152E+02  0.12700000000E+01 0.  1.
          4   -1    0    0  501    0  0.00000000000E+00 -0.00000000000E+00 -0.61686981242E+02  0.61700053118E+02  0.12700000000E+01 0.  1.
         25    2    1    2    0    0  0.00000000000E+00  0.00000000000E+00  0.15997533954E+01  0.12499952927E+03  0.12498929197E+03 0.  0.
    9000005    1    3    3    0    0  0.33618289451E+02 -0.47764325346E+02 -0.21404658221E+02  0.62215589324E+02  0.10000000000E+01 0.  0.
    9000005    1    3    3    0    0 -0.33618289451E+02  0.47764325346E+02  0.23004411616E+02  0.62783939946E+02  0.10000000000E+01 0.  0.
<mgrwt>
<rscale>  0 0.12498929E+03</rscale>
<asrwt>0</asrwt>
<pdfrwt beam="2">  1        4 0.94922905E-02 0.12498929E+03</pdfrwt>
<pdfrwt beam="1">  1       -4 0.97384063E-02 0.12498929E+03</pdfrwt>
<totfact> 0.10455403E+04</totfact>
</mgrwt>
</event>
<event>
 5    1  0.3276024E-002  0.1249946E+03  0.7818608E-02  0.1235078E+00
         -4   -1    0    0    0  501 -0.00000000000E+00  0.00000000000E+00  0.63366733756E+02  0.63379459187E+02  0.12700000000E+01 0.  1.
          4   -1    0    0  501    0  0.00000000000E+00 -0.00000000000E+00 -0.61614375691E+02  0.61627462967E+02  0.12700000000E+01 0.  1.
         25    2    1    2    0    0  0.00000000000E+00  0.00000000000E+00  0.17523580652E+01  0.12500692215E+03  0.12499463920E+03 0.  0.
    9000005    1    3    3    0    0  0.61364200037E+02  0.81145353147E+01  0.94504821674E+01  0.62623656415E+02  0.10000000000E+01 0.  0.
    9000005    1    3    3    0    0 -0.61364200037E+02 -0.81145353147E+01 -0.76981241022E+01  0.62383265739E+02  0.10000000000E+01 0.  0.
<mgrwt>
<rscale>  0 0.12499464E+03</rscale>
<asrwt>0</asrwt>
<pdfrwt beam="2">  1        4 0.94811204E-02 0.12499464E+03</pdfrwt>
<pdfrwt beam="1">  1       -4 0.97507138E-02 0.12499464E+03</pdfrwt>
<totfact> 0.10453979E+04</totfact>
</mgrwt>
</event>
<event>
 5    1  0.3276024E-002  0.1250041E+03  0.7818608E-02  0.1235063E+00
          4   -1    0    0  501    0  0.00000000000E+00  0.00000000000E+00  0.48049181886E+02  0.48065962800E+02  0.12700000000E+01 0. -1.
         -4   -1    0    0    0  501 -0.00000000000E+00 -0.00000000000E+00 -0.81266309017E+02  0.81276231958E+02  0.12700000000E+01 0. -1.
         25    2    1    2    0    0  0.00000000000E+00  0.00000000000E+00 -0.33217127132E+02  0.12934219476E+03  0.12500410317E+03 0.  0.
    9000005    1    3    3    0    0  0.18811326228E+02  0.23550496639E+02  0.40036280325E+02  0.50123803015E+02  0.10000000000E+01 0.  0.
    9000005    1    3    3    0    0 -0.18811326228E+02 -0.23550496639E+02 -0.73253407457E+02  0.79218391743E+02  0.10000000000E+01 0.  0.
<mgrwt>
<rscale>  0 0.12500410E+03</rscale>
<asrwt>0</asrwt>
<pdfrwt beam="1">  1        4 0.73942360E-02 0.12500410E+03</pdfrwt>
<pdfrwt beam="2">  1       -4 0.12504563E-01 0.12500410E+03</pdfrwt>
<totfact> 0.10357640E+04</totfact>
</mgrwt>
</event>
<event>
 5    1  0.3276024E-002  0.1249968E+03  0.7818608E-02  0.1235074E+00
         -4   -1    0    0    0  501 -0.00000000000E+00  0.00000000000E+00  0.79734607343E+02  0.79744720880E+02  0.12700000000E+01 0. -1.
          4   -1    0    0  501    0  0.00000000000E+00 -0.00000000000E+00 -0.48966705557E+02  0.48983172142E+02  0.12700000000E+01 0. -1.
         25    2    1    2    0    0  0.00000000000E+00  0.00000000000E+00  0.30767901786E+02  0.12872789302E+03  0.12499682661E+03 0.  0.
    9000005    1    3    3    0    0  0.48924522932E+02 -0.38054777526E+02  0.71918491025E+01  0.62405911019E+02  0.10000000000E+01 0.  0.
    9000005    1    3    3    0    0 -0.48924522932E+02  0.38054777526E+02  0.23576052683E+02  0.66321982003E+02  0.10000000000E+01 0.  0.
<mgrwt>
<rscale>  0 0.12499683E+03</rscale>
<asrwt>0</asrwt>
<pdfrwt beam="2">  1        4 0.75353840E-02 0.12499683E+03</pdfrwt>
<pdfrwt beam="1">  1       -4 0.12268907E-01 0.12499683E+03</pdfrwt>
<totfact> 0.10372541E+04</totfact>
</mgrwt>
</event>
<event>
 5    1  0.3276024E-002  0.1250009E+03  0.7818608E-02  0.1235068E+00
         -4   -1    0    0    0  501 -0.00000000000E+00  0.00000000000E+00  0.16284156387E+02  0.16333604906E+02  0.12700000000E+01 0.  1.
          4   -1    0    0  501    0  0.00000000000E+00 -0.00000000000E+00 -0.23946886790E+03  0.23947223554E+03  0.12700000000E+01 0.  1.
         25    2    1    2    0    0  0.00000000000E+00  0.00000000000E+00 -0.22318471151E+03  0.25580584044E+03  0.12500085021E+03 0.  0.
    9000005    1    3    3    0    0  0.44396444485E+02 -0.43433873969E+02 -0.97450121037E+02  0.11556414574E+03  0.10000000000E+01 0.  0.
    9000005    1    3    3    0    0 -0.44396444485E+02  0.43433873969E+02 -0.12573459048E+03  0.14024169470E+03  0.10000000000E+01 0.  0.
<mgrwt>
<rscale>  0 0.12500085E+03</rscale>
<asrwt>0</asrwt>
<pdfrwt beam="2">  1        4 0.36845424E-01 0.12500085E+03</pdfrwt>
<pdfrwt beam="1">  1       -4 0.25093178E-02 0.12500085E+03</pdfrwt>
<totfact> 0.81496736E+03</totfact>
</mgrwt>
</event>
<event>
 5    1  0.3276024E-002  0.1249982E+03  0.7818608E-02  0.1235072E+00
          4   -1    0    0  501    0  0.00000000000E+00  0.00000000000E+00  0.32401696172E+03  0.32401945062E+03  0.12700000000E+01 0.  1.
         -4   -1    0    0    0  501 -0.00000000000E+00 -0.00000000000E+00 -0.12019367266E+02  0.12086276907E+02  0.12700000000E+01 0.  1.
         25    2    1    2    0    0  0.00000000000E+00  0.00000000000E+00  0.31199759445E+03  0.33610572753E+03  0.12499824452E+03 0.  0.
    9000005    1    3    3    0    0 -0.81600549702E+01  0.24989875105E+00  0.32259008365E+03  0.32269491942E+03  0.10000000000E+01 0.  0.
    9000005    1    3    3    0    0  0.81600549702E+01 -0.24989875105E+00 -0.10592489205E+02  0.13410808106E+02  0.10000000000E+01 0.  0.
<mgrwt>
<rscale>  0 0.12499824E+03</rscale>
<asrwt>0</asrwt>
<pdfrwt beam="1">  1        4 0.49854103E-01 0.12499824E+03</pdfrwt>
<pdfrwt beam="2">  1       -4 0.18544717E-02 0.12499824E+03</pdfrwt>
<totfact> 0.71283407E+03</totfact>
</mgrwt>
</event>
<event>
 5    1  0.3276024E-002  0.1249923E+03  0.7818608E-02  0.1235081E+00
          4   -1    0    0  501    0  0.00000000000E+00  0.00000000000E+00  0.16788214512E+03  0.16788694871E+03  0.12700000000E+01 0. -1.
         -4   -1    0    0    0  501 -0.00000000000E+00 -0.00000000000E+00 -0.23242489340E+02  0.23277160710E+02  0.12700000000E+01 0. -1.
         25    2    1    2    0    0  0.00000000000E+00  0.00000000000E+00  0.14463965578E+03  0.19116410942E+03  0.12499234660E+03 0.  0.
    9000005    1    3    3    0    0  0.44074941361E+02  0.41841088171E+02  0.50077894336E+02  0.78753238768E+02  0.10000000000E+01 0.  0.
    9000005    1    3    3    0    0 -0.44074941361E+02 -0.41841088171E+02  0.94561761439E+02  0.11241087066E+03  0.10000000000E+01 0.  0.
<mgrwt>
<rscale>  0 0.12499235E+03</rscale>
<asrwt>0</asrwt>
<pdfrwt beam="1">  1        4 0.25831059E-01 0.12499235E+03</pdfrwt>
<pdfrwt beam="2">  1       -4 0.35788041E-02 0.12499235E+03</pdfrwt>
<totfact> 0.91660868E+03</totfact>
</mgrwt>
</event>
<event>
 5    1  0.3276024E-002  0.1249975E+03  0.7818608E-02  0.1235073E+00
          4   -1    0    0  501    0  0.00000000000E+00  0.00000000000E+00  0.36765591543E+02  0.36787519915E+02  0.12700000000E+01 0.  1.
         -4   -1    0    0    0  501 -0.00000000000E+00 -0.00000000000E+00 -0.10618573693E+03  0.10619333137E+03  0.12700000000E+01 0.  1.
         25    2    1    2    0    0  0.00000000000E+00  0.00000000000E+00 -0.69420145386E+02  0.14298085128E+03  0.12499746897E+03 0.  0.
    9000005    1    3    3    0    0  0.18077991297E+02 -0.39367672646E+02  0.16808088497E+02  0.46477298306E+02  0.10000000000E+01 0.  0.
    9000005    1    3    3    0    0 -0.18077991297E+02  0.39367672646E+02 -0.86228233882E+02  0.96503552978E+02  0.10000000000E+01 0.  0.
<mgrwt>
<rscale>  0 0.12499747E+03</rscale>
<asrwt>0</asrwt>
<pdfrwt beam="1">  1        4 0.56585159E-02 0.12499747E+03</pdfrwt>
<pdfrwt beam="2">  1       -4 0.16338538E-01 0.12499747E+03</pdfrwt>
<totfact> 0.10072750E+04</totfact>
</mgrwt>
</event>
<event>
 5    1  0.3276024E-002  0.1250013E+03  0.7818608E-02  0.1235067E+00
          4   -1    0    0  501    0  0.00000000000E+00  0.00000000000E+00  0.15954737197E+03  0.15955242650E+03  0.12700000000E+01 0. -1.
         -4   -1    0    0    0  501 -0.00000000000E+00 -0.00000000000E+00 -0.24461903047E+02  0.24494848452E+02  0.12700000000E+01 0. -1.
         25    2    1    2    0    0  0.00000000000E+00  0.00000000000E+00  0.13508546892E+03  0.18404727495E+03  0.12500126201E+03 0.  0.
    9000005    1    3    3    0    0 -0.55976868734E+02  0.44583521896E+01  0.27165545368E+02  0.62387928261E+02  0.10000000000E+01 0.  0.
    9000005    1    3    3    0    0  0.55976868734E+02 -0.44583521896E+01  0.10791992355E+03  0.12165934669E+03  0.10000000000E+01 0.  0.
<mgrwt>
<rscale>  0 0.12500126E+03</rscale>
<asrwt>0</asrwt>
<pdfrwt beam="1">  1        4 0.24548672E-01 0.12500126E+03</pdfrwt>
<pdfrwt beam="2">  1       -4 0.37662928E-02 0.12500126E+03</pdfrwt>
<totfact> 0.92890884E+03</totfact>
</mgrwt>
</event>
<event>
 5    1  0.3276024E-002  0.1249943E+03  0.7818608E-02  0.1235078E+00
          4   -1    0    0  501    0  0.00000000000E+00  0.00000000000E+00  0.11072913215E+02  0.11145506138E+02  0.12700000000E+01 0.  1.
         -4   -1    0    0    0  501 -0.00000000000E+00 -0.00000000000E+00 -0.35151672723E+03  0.35151902143E+03  0.12700000000E+01 0.  1.
         25    2    1    2    0    0  0.00000000000E+00  0.00000000000E+00 -0.34044381402E+03  0.36266452756E+03  0.12499427607E+03 0.  0.
    9000005    1    3    3    0    0  0.20200878310E+02  0.59123943291E+02 -0.16707532904E+03  0.17837847888E+03  0.10000000000E+01 0.  0.
    9000005    1    3    3    0    0 -0.20200878310E+02 -0.59123943291E+02 -0.17336848498E+03  0.18428604868E+03  0.10000000000E+01 0.  0.
<mgrwt>
<rscale>  0 0.12499428E+03</rscale>
<asrwt>0</asrwt>
<pdfrwt beam="1">  1        4 0.17092859E-02 0.12499428E+03</pdfrwt>
<pdfrwt beam="2">  1       -4 0.54085248E-01 0.12499428E+03</pdfrwt>
<totfact> 0.68362069E+03</totfact>
</mgrwt>
</event>
<event>
 5    1  0.3276024E-002  0.1250019E+03  0.7818608E-02  0.1235066E+00
         -4   -1    0    0    0  501 -0.00000000000E+00  0.00000000000E+00  0.16255875411E+03  0.16256371501E+03  0.12700000000E+01 0.  1.
          4   -1    0    0  501    0  0.00000000000E+00 -0.00000000000E+00 -0.24008378822E+02  0.24041945713E+02  0.12700000000E+01 0.  1.
         25    2    1    2    0    0  0.00000000000E+00  0.00000000000E+00  0.13855037529E+03  0.18660566072E+03  0.12500186447E+03 0.  0.
    9000005    1    3    3    0    0  0.61609641276E+01  0.61316470883E+02  0.53782917341E+02  0.81800178962E+02  0.10000000000E+01 0.  0.
    9000005    1    3    3    0    0 -0.61609641276E+01 -0.61316470883E+02  0.84767457948E+02  0.10480548176E+03  0.10000000000E+01 0.  0.
<mgrwt>
<rscale>  0 0.12500186E+03</rscale>
<asrwt>0</asrwt>
<pdfrwt beam="2">  1        4 0.36965604E-02 0.12500186E+03</pdfrwt>
<pdfrwt beam="1">  1       -4 0.25012003E-01 0.12500186E+03</pdfrwt>
<totfact> 0.92437433E+03</totfact>
</mgrwt>
</event>
<event>
 5    1  0.3276024E-002  0.1249983E+03  0.7818608E-02  0.1235072E+00
          4   -1    0    0  501    0  0.00000000000E+00  0.00000000000E+00  0.48264747793E+01  0.49907673553E+01  0.12700000000E+01 0.  1.
         -4   -1    0    0    0  501 -0.00000000000E+00 -0.00000000000E+00 -0.79560716039E+03  0.79560817402E+03  0.12700000000E+01 0.  1.
         25    2    1    2    0    0  0.00000000000E+00  0.00000000000E+00 -0.79078068561E+03  0.80059894137E+03  0.12499828876E+03 0.  0.
    9000005    1    3    3    0    0  0.41931949091E+02 -0.22437091222E+02 -0.65503940885E+03  0.65676429453E+03  0.10000000000E+01 0.  0.
    9000005    1    3    3    0    0 -0.41931949091E+02  0.22437091222E+02 -0.13574127676E+03  0.14383464684E+03  0.10000000000E+01 0.  0.
<mgrwt>
<rscale>  0 0.12499829E+03</rscale>
<asrwt>0</asrwt>
<pdfrwt beam="1">  1        4 0.75525108E-03 0.12499829E+03</pdfrwt>
<pdfrwt beam="2">  1       -4 0.12241371E+00 0.12499829E+03</pdfrwt>
<totfact> 0.38239458E+03</totfact>
</mgrwt>
</event>
<event>
 5    1  0.3276024E-002  0.1250007E+03  0.7818608E-02  0.1235068E+00
          4   -1    0    0  501    0  0.00000000000E+00  0.00000000000E+00  0.73222434337E+01  0.74315643644E+01  0.12700000000E+01 0. -1.
         -4   -1    0    0    0  501 -0.00000000000E+00 -0.00000000000E+00 -0.52941984470E+03  0.52942136797E+03  0.12700000000E+01 0. -1.
         25    2    1    2    0    0  0.00000000000E+00  0.00000000000E+00 -0.52209760127E+03  0.53685293234E+03  0.12500066283E+03 0.  0.
    9000005    1    3    3    0    0 -0.52426621698E+01  0.37234909478E+02 -0.46679838396E+02  0.59949406196E+02  0.10000000000E+01 0.  0.
    9000005    1    3    3    0    0  0.52426621698E+01 -0.37234909478E+02 -0.47541776287E+03  0.47690352614E+03  0.10000000000E+01 0.  0.
<mgrwt>
<rscale>  0 0.12500066E+03</rscale>
<asrwt>0</asrwt>
<pdfrwt beam="1">  1        4 0.11350259E-02 0.12500066E+03</pdfrwt>
<pdfrwt beam="2">  1       -4 0.81457704E-01 0.12500066E+03</pdfrwt>
<totfact> 0.53113508E+03</totfact>
</mgrwt>
</event>
<event>
 5    1  0.3276024E-002  0.1249961E+03  0.7818608E-02  0.1235075E+00
         -4   -1    0    0    0  501 -0.00000000000E+00  0.00000000000E+00  0.33727860901E+01  0.36039680922E+01  0.12700000000E+01 0. -1.
          4   -1    0    0  501    0  0.00000000000E+00 -0.00000000000E+00 -0.11194892232E+04  0.11194899436E+04  0.12700000000E+01 0. -1.
         25    2    1    2    0    0  0.00000000000E+00  0.00000000000E+00 -0.11161164371E+04  0.11230939117E+04  0.12499613287E+03 0.  0.
    9000005    1    3    3    0    0 -0.29822678723E+02 -0.50452820438E+02 -0.75287575209E+03  0.75515414145E+03  0.10000000000E+01 0.  0.
    9000005    1    3    3    0    0  0.29822678723E+02  0.50452820438E+02 -0.36324068504E+03  0.36793977024E+03  0.10000000000E+01 0.  0.
<mgrwt>
<rscale>  0 0.12499613E+03</rscale>
<asrwt>0</asrwt>
<pdfrwt beam="2">  1        4 0.17224666E+00 0.12499613E+03</pdfrwt>
<pdfrwt beam="1">  1       -4 0.53672971E-03 0.12499613E+03</pdfrwt>
<totfact> 0.26819456E+03</totfact>
</mgrwt>
</event>
<event>
 5    1  0.3276024E-002  0.1250015E+03  0.7818608E-02  0.1235067E+00
         -4   -1    0    0    0  501 -0.00000000000E+00  0.00000000000E+00  0.14317732559E+02  0.14373947462E+02  0.12700000000E+01 0. -1.
          4   -1    0    0  501    0  0.00000000000E+00 -0.00000000000E+00 -0.27224031156E+03  0.27224327382E+03  0.12700000000E+01 0. -1.
         25    2    1    2    0    0  0.00000000000E+00  0.00000000000E+00 -0.25792257901E+03  0.28661722128E+03  0.12500149909E+03 0.  0.
    9000005    1    3    3    0    0  0.53003225396E+02 -0.28148663862E+02 -0.89005756282E+02  0.10735321994E+03  0.10000000000E+01 0.  0.
    9000005    1    3    3    0    0 -0.53003225396E+02  0.28148663862E+02 -0.16891682272E+03  0.17926400135E+03  0.10000000000E+01 0.  0.
<mgrwt>
<rscale>  0 0.12500150E+03</rscale>
<asrwt>0</asrwt>
<pdfrwt beam="2">  1        4 0.41887673E-01 0.12500150E+03</pdfrwt>
<pdfrwt beam="1">  1       -4 0.22072804E-02 0.12500150E+03</pdfrwt>
<totfact> 0.77306239E+03</totfact>
</mgrwt>
</event>
<event>
 5    1  0.3276024E-002  0.1250065E+03  0.7818608E-02  0.1235059E+00
         -4   -1    0    0    0  501 -0.00000000000E+00  0.00000000000E+00  0.52558161813E+02  0.52573503528E+02  0.12700000000E+01 0. -1.
          4   -1    0    0  501    0  0.00000000000E+00 -0.00000000000E+00 -0.74298559548E+02  0.74309412937E+02  0.12700000000E+01 0. -1.
         25    2    1    2    0    0  0.00000000000E+00  0.00000000000E+00 -0.21740397735E+02  0.12688291646E+03  0.12500651822E+03 0.  0.
    9000005    1    3    3    0    0  0.37965680361E+02  0.45744596708E+02 -0.30439019960E+02  0.66794423041E+02  0.10000000000E+01 0.  0.
    9000005    1    3    3    0    0 -0.37965680361E+02 -0.45744596708E+02  0.86986222251E+01  0.60088493423E+02  0.10000000000E+01 0.  0.
<mgrwt>
<rscale>  0 0.12500652E+03</rscale>
<asrwt>0</asrwt>
<pdfrwt beam="2">  1        4 0.11432563E-01 0.12500652E+03</pdfrwt>
<pdfrwt beam="1">  1       -4 0.80878860E-02 0.12500652E+03</pdfrwt>
<totfact> 0.10410159E+04</totfact>
</mgrwt>
</event>
<event>
 5    1  0.3276024E-002  0.1250000E+03  0.7818608E-02  0.1235069E+00
         -4   -1    0    0    0  501 -0.00000000000E+00  0.00000000000E+00  0.32901856891E+02  0.32926358543E+02  0.12700000000E+01 0.  1.
          4   -1    0    0  501    0  0.00000000000E+00 -0.00000000000E+00 -0.11865221829E+03  0.11865901485E+03  0.12700000000E+01 0.  1.
         25    2    1    2    0    0  0.00000000000E+00  0.00000000000E+00 -0.85750361398E+02  0.15158537339E+03  0.12500000379E+03 0.  0.
    9000005    1    3    3    0    0  0.26377349251E+02  0.40443687584E+02 -0.90983611261E+02  0.10300715479E+03  0.10000000000E+01 0.  0.
    9000005    1    3    3    0    0 -0.26377349251E+02 -0.40443687584E+02  0.52332498626E+01  0.48578218607E+02  0.10000000000E+01 0.  0.
<mgrwt>
<rscale>  0 0.12500000E+03</rscale>
<asrwt>0</asrwt>
<pdfrwt beam="2">  1        4 0.18256595E-01 0.12500000E+03</pdfrwt>
<pdfrwt beam="1">  1       -4 0.50642318E-02 0.12500000E+03</pdfrwt>
<totfact> 0.98988603E+03</totfact>
</mgrwt>
</event>
<event>
 5    1  0.3276024E-002  0.1250015E+03  0.7818608E-02  0.1235067E+00
         -4   -1    0    0    0  501 -0.00000000000E+00  0.00000000000E+00  0.59910933657E+03  0.59911068265E+03  0.12700000000E+01 0. -1.
          4   -1    0    0  501    0  0.00000000000E+00 -0.00000000000E+00 -0.64570451878E+01  0.65807547103E+01  0.12700000000E+01 0. -1.
         25    2    1    2    0    0  0.00000000000E+00  0.00000000000E+00  0.59265229138E+03  0.60569143736E+03  0.12500151523E+03 0.  0.
    9000005    1    3    3    0    0 -0.63466614883E+01  0.53814832753E+02  0.14549035583E+03  0.15525707705E+03  0.10000000000E+01 0.  0.
    9000005    1    3    3    0    0  0.63466614883E+01 -0.53814832753E+02  0.44716193555E+03  0.45043436030E+03  0.10000000000E+01 0.  0.
<mgrwt>
<rscale>  0 0.12500152E+03</rscale>
<asrwt>0</asrwt>
<pdfrwt beam="2">  1        4 0.10030111E-02 0.12500152E+03</pdfrwt>
<pdfrwt beam="1">  1       -4 0.92180302E-01 0.12500152E+03</pdfrwt>
<totfact> 0.48508692E+03</totfact>
</mgrwt>
</event>
<event>
 5    1  0.3276024E-002  0.1249990E+03  0.7818608E-02  0.1235071E+00
          4   -1    0    0  501    0  0.00000000000E+00  0.00000000000E+00  0.57965155321E+03  0.57965294448E+03  0.12700000000E+01 0.  1.
         -4   -1    0    0    0  501 -0.00000000000E+00 -0.00000000000E+00 -0.66776074301E+01  0.67973039502E+01  0.12700000000E+01 0.  1.
         25    2    1    2    0    0  0.00000000000E+00  0.00000000000E+00  0.57297394578E+03  0.58645024843E+03  0.12499900534E+03 0.  0.
    9000005    1    3    3    0    0 -0.43222138334E+02  0.34374674408E+02  0.14926824426E+03  0.15915960615E+03  0.10000000000E+01 0.  0.
    9000005    1    3    3    0    0  0.43222138334E+02 -0.34374674408E+02  0.42370570152E+03  0.42729064228E+03  0.10000000000E+01 0.  0.
<mgrwt>
<rscale>  0 0.12499901E+03</rscale>
<asrwt>0</asrwt>
<pdfrwt beam="1">  1        4 0.89186466E-01 0.12499901E+03</pdfrwt>
<pdfrwt beam="2">  1       -4 0.10366388E-02 0.12499901E+03</pdfrwt>
<totfact> 0.49735323E+03</totfact>
</mgrwt>
</event>
<event>
 5    1  0.3276024E-002  0.1250026E+03  0.7818608E-02  0.1235065E+00
          4   -1    0    0  501    0  0.00000000000E+00  0.00000000000E+00  0.25428259597E+03  0.25428576742E+03  0.12700000000E+01 0.  1.
         -4   -1    0    0    0  501 -0.00000000000E+00 -0.00000000000E+00 -0.15332973717E+02  0.15385479616E+02  0.12700000000E+01 0.  1.
         25    2    1    2    0    0  0.00000000000E+00  0.00000000000E+00  0.23894962225E+03  0.26967124703E+03  0.12500263799E+03 0.  0.
    9000005    1    3    3    0    0 -0.87479671104E+01  0.24253794843E+02  0.24228402519E+03  0.24365410392E+03  0.10000000000E+01 0.  0.
    9000005    1    3    3    0    0  0.87479671104E+01 -0.24253794843E+02 -0.33344029440E+01  0.26017143115E+02  0.10000000000E+01 0.  0.
<mgrwt>
<rscale>  0 0.12500264E+03</rscale>
<asrwt>0</asrwt>
<pdfrwt beam="1">  1        4 0.39124682E-01 0.12500264E+03</pdfrwt>
<pdfrwt beam="2">  1       -4 0.23632019E-02 0.12500264E+03</pdfrwt>
<totfact> 0.79563038E+03</totfact>
</mgrwt>
</event>
<event>
 5    1  0.3276024E-002  0.1250043E+03  0.7818608E-02  0.1235063E+00
         -4   -1    0    0    0  501 -0.00000000000E+00  0.00000000000E+00  0.73047343269E+02  0.73058382536E+02  0.12700000000E+01 0. -1.
          4   -1    0    0  501    0  0.00000000000E+00 -0.00000000000E+00 -0.53456646363E+02  0.53471730292E+02  0.12700000000E+01 0. -1.
         25    2    1    2    0    0  0.00000000000E+00  0.00000000000E+00  0.19590696906E+02  0.12653011283E+03  0.12500429611E+03 0.  0.
    9000005    1    3    3    0    0  0.60980149326E+02  0.42338383100E+01  0.22954592932E+02  0.65302506348E+02  0.10000000000E+01 0.  0.
    9000005    1    3    3    0    0 -0.60980149326E+02 -0.42338383100E+01 -0.33638960253E+01  0.61227606479E+02  0.10000000000E+01 0.  0.
<mgrwt>
<rscale>  0 0.12500430E+03</rscale>
<asrwt>0</asrwt>
<pdfrwt beam="2">  1        4 0.82261090E-02 0.12500430E+03</pdfrwt>
<pdfrwt beam="1">  1       -4 0.11240062E-01 0.12500430E+03</pdfrwt>
<totfact> 0.10418361E+04</totfact>
</mgrwt>
</event>
<event>
 5    1  0.3276024E-002  0.1249938E+03  0.7818608E-02  0.1235079E+00
          4   -1    0    0  501    0  0.00000000000E+00  0.00000000000E+00  0.23712660224E+02  0.23746645129E+02  0.12700000000E+01 0.  1.
         -4   -1    0    0    0  501 -0.00000000000E+00 -0.00000000000E+00 -0.16456205683E+03  0.16456695734E+03  0.12700000000E+01 0.  1.
         25    2    1    2    0    0  0.00000000000E+00  0.00000000000E+00 -0.14084939661E+03  0.18831360247E+03  0.12499384125E+03 0.  0.
    9000005    1    3    3    0    0  0.59105387904E+02  0.13208103090E+00 -0.39866649287E+02  0.71300869911E+02  0.10000000000E+01 0.  0.
    9000005    1    3    3    0    0 -0.59105387904E+02 -0.13208103090E+00 -0.10098274732E+03  0.11701273256E+03  0.10000000000E+01 0.  0.
<mgrwt>
<rscale>  0 0.12499384E+03</rscale>
<asrwt>0</asrwt>
<pdfrwt beam="1">  1        4 0.36510929E-02 0.12499384E+03</pdfrwt>
<pdfrwt beam="2">  1       -4 0.25320230E-01 0.12499384E+03</pdfrwt>
<totfact> 0.92154287E+03</totfact>
</mgrwt>
</event>
<event>
 5    1  0.3276024E-002  0.1249954E+03  0.7818608E-02  0.1235076E+00
          4   -1    0    0  501    0  0.00000000000E+00  0.00000000000E+00  0.87021817738E+02  0.87031084461E+02  0.12700000000E+01 0. -1.
         -4   -1    0    0    0  501 -0.00000000000E+00 -0.00000000000E+00 -0.44864248697E+02  0.44882220435E+02  0.12700000000E+01 0. -1.
         25    2    1    2    0    0  0.00000000000E+00  0.00000000000E+00  0.42157569041E+02  0.13191330490E+03  0.12499543744E+03 0.  0.
    9000005    1    3    3    0    0 -0.20779301839E+02  0.30853675975E+02  0.74069673110E+02  0.82891767871E+02  0.10000000000E+01 0.  0.
    9000005    1    3    3    0    0  0.20779301839E+02 -0.30853675975E+02 -0.31912104069E+02  0.49021537025E+02  0.10000000000E+01 0.  0.
<mgrwt>
<rscale>  0 0.12499544E+03</rscale>
<asrwt>0</asrwt>
<pdfrwt beam="1">  1        4 0.13390067E-01 0.12499544E+03</pdfrwt>
<pdfrwt beam="2">  1       -4 0.69042874E-02 0.12499544E+03</pdfrwt>
<totfact> 0.10304610E+04</totfact>
</mgrwt>
</event>
<event>
 5    1  0.3276024E-002  0.1250043E+03  0.7818608E-02  0.1235063E+00
         -4   -1    0    0    0  501 -0.00000000000E+00  0.00000000000E+00  0.42316089231E+03  0.42316279808E+03  0.12700000000E+01 0.  1.
          4   -1    0    0  501    0  0.00000000000E+00 -0.00000000000E+00 -0.91861368537E+01  0.92735112171E+01  0.12700000000E+01 0.  1.
         25    2    1    2    0    0  0.00000000000E+00  0.00000000000E+00  0.41397475545E+03  0.43243630929E+03  0.12500425371E+03 0.  0.
    9000005    1    3    3    0    0 -0.60562339089E+01  0.61768590630E+02  0.23228556601E+03  0.24043631367E+03  0.10000000000E+01 0.  0.
    9000005    1    3    3    0    0  0.60562339089E+01 -0.61768590630E+02  0.18168918945E+03  0.19199999562E+03  0.10000000000E+01 0.  0.
<mgrwt>
<rscale>  0 0.12500425E+03</rscale>
<asrwt>0</asrwt>
<pdfrwt beam="2">  1        4 0.14201195E-02 0.12500425E+03</pdfrwt>
<pdfrwt beam="1">  1       -4 0.65108544E-01 0.12500425E+03</pdfrwt>
<totfact> 0.61510003E+03</totfact>
</mgrwt>
</event>
<event>
 5    1  0.3276024E-002  0.1250064E+03  0.7818608E-02  0.1235059E+00
         -4   -1    0    0    0  501 -0.00000000000E+00  0.00000000000E+00  0.74175200001E+01  0.75254569929E+01  0.12700000000E+01 0. -1.
          4   -1    0    0  501    0  0.00000000000E+00 -0.00000000000E+00 -0.52276551185E+03  0.52276705451E+03  0.12700000000E+01 0. -1.
         25    2    1    2    0    0  0.00000000000E+00  0.00000000000E+00 -0.51534799185E+03  0.53029251150E+03  0.12500638004E+03 0.  0.
    9000005    1    3    3    0    0 -0.38426100720E+02  0.40985576315E+02 -0.14155551346E+03  0.15230018409E+03  0.10000000000E+01 0.  0.
    9000005    1    3    3    0    0  0.38426100720E+02 -0.40985576315E+02 -0.37379247839E+03  0.37799232741E+03  0.10000000000E+01 0.  0.
<mgrwt>
<rscale>  0 0.12500638E+03</rscale>
<asrwt>0</asrwt>
<pdfrwt beam="2">  1        4 0.80433857E-01 0.12500638E+03</pdfrwt>
<pdfrwt beam="1">  1       -4 0.11495788E-02 0.12500638E+03</pdfrwt>
<totfact> 0.53580830E+03</totfact>
</mgrwt>
</event>
<event>
 5    1  0.3276024E-002  0.1250021E+03  0.7818608E-02  0.1235066E+00
          4   -1    0    0  501    0  0.00000000000E+00  0.00000000000E+00  0.62481886605E+02  0.62494792212E+02  0.12700000000E+01 0. -1.
         -4   -1    0    0    0  501 -0.00000000000E+00 -0.00000000000E+00 -0.62494394153E+02  0.62507297179E+02  0.12700000000E+01 0. -1.
         25    2    1    2    0    0  0.00000000000E+00  0.00000000000E+00 -0.12507548444E-01  0.12500208939E+03  0.12500208877E+03 0.  0.
    9000005    1    3    3    0    0  0.29787177031E+02 -0.52671403375E+02  0.15608735897E+02  0.62499482280E+02  0.10000000000E+01 0.  0.
    9000005    1    3    3    0    0 -0.29787177031E+02  0.52671403375E+02 -0.15621243445E+02  0.62502607111E+02  0.10000000000E+01 0.  0.
<mgrwt>
<rscale>  0 0.12500209E+03</rscale>
<asrwt>0</asrwt>
<pdfrwt beam="1">  1        4 0.96145832E-02 0.12500209E+03</pdfrwt>
<pdfrwt beam="2">  1       -4 0.96165074E-02 0.12500209E+03</pdfrwt>
<totfact> 0.10452324E+04</totfact>
</mgrwt>
</event>
<event>
 5    1  0.3276024E-002  0.1249998E+03  0.7818608E-02  0.1235070E+00
         -4   -1    0    0    0  501 -0.00000000000E+00  0.00000000000E+00  0.94205890569E+02  0.94214450685E+02  0.12700000000E+01 0. -1.
          4   -1    0    0  501    0  0.00000000000E+00 -0.00000000000E+00 -0.41444726281E+02  0.41464180162E+02  0.12700000000E+01 0. -1.
         25    2    1    2    0    0  0.00000000000E+00  0.00000000000E+00  0.52761164288E+02  0.13567863085E+03  0.12499980165E+03 0.  0.
    9000005    1    3    3    0    0 -0.62409245261E+02  0.26770069182E+01  0.28309274684E+02  0.68589323463E+02  0.10000000000E+01 0.  0.
    9000005    1    3    3    0    0  0.62409245261E+02 -0.26770069182E+01  0.24451889604E+02  0.67089307384E+02  0.10000000000E+01 0.  0.
<mgrwt>
<rscale>  0 0.12499980E+03</rscale>
<asrwt>0</asrwt>
<pdfrwt beam="2">  1        4 0.63782667E-02 0.12499980E+03</pdfrwt>
<pdfrwt beam="1">  1       -4 0.14495369E-01 0.12499980E+03</pdfrwt>
<totfact> 0.10223833E+04</totfact>
</mgrwt>
</event>
<event>
 5    1  0.3276024E-002  0.1249996E+03  0.7818608E-02  0.1235070E+00
          4   -1    0    0  501    0  0.00000000000E+00  0.00000000000E+00  0.51798145733E+01  0.53332334483E+01  0.12700000000E+01 0. -1.
         -4   -1    0    0    0  501 -0.00000000000E+00 -0.00000000000E+00 -0.74296494126E+03  0.74296602670E+03  0.12700000000E+01 0. -1.
         25    2    1    2    0    0  0.00000000000E+00  0.00000000000E+00 -0.73778512668E+03  0.74829926015E+03  0.12499955836E+03 0.  0.
    9000005    1    3    3    0    0 -0.44341515805E+01  0.94625126676E+01 -0.58373603139E-01  0.10497821379E+02  0.10000000000E+01 0.  0.
    9000005    1    3    3    0    0  0.44341515805E+01 -0.94625126676E+01 -0.73772675308E+03  0.73780143877E+03  0.10000000000E+01 0.  0.
<mgrwt>
<rscale>  0 0.12499956E+03</rscale>
<asrwt>0</asrwt>
<pdfrwt beam="1">  1        4 0.80878008E-03 0.12499956E+03</pdfrwt>
<pdfrwt beam="2">  1       -4 0.11431410E+00 0.12499956E+03</pdfrwt>
<totfact> 0.40656031E+03</totfact>
</mgrwt>
</event>
<event>
 5    1  0.3276024E-002  0.1249988E+03  0.7818608E-02  0.1235071E+00
          4   -1    0    0  501    0  0.00000000000E+00  0.00000000000E+00  0.16226643972E+03  0.16227140956E+03  0.12700000000E+01 0. -1.
         -4   -1    0    0    0  501 -0.00000000000E+00 -0.00000000000E+00 -0.24050520577E+02  0.24084028734E+02  0.12700000000E+01 0. -1.
         25    2    1    2    0    0  0.00000000000E+00  0.00000000000E+00  0.13821591915E+03  0.18635543829E+03  0.12499883630E+03 0.  0.
    9000005    1    3    3    0    0 -0.60680429276E+02 -0.12440351755E+02  0.81429011522E+02  0.10231598490E+03  0.10000000000E+01 0.  0.
    9000005    1    3    3    0    0  0.60680429276E+02  0.12440351755E+02  0.56786907623E+02  0.84039453391E+02  0.10000000000E+01 0.  0.
<mgrwt>
<rscale>  0 0.12499884E+03</rscale>
<asrwt>0</asrwt>
<pdfrwt beam="1">  1        4 0.24967028E-01 0.12499884E+03</pdfrwt>
<pdfrwt beam="2">  1       -4 0.37030399E-02 0.12499884E+03</pdfrwt>
<totfact> 0.92487763E+03</totfact>
</mgrwt>
</event>
<event>
 5    1  0.3276024E-002  0.1249994E+03  0.7818608E-02  0.1235070E+00
         -4   -1    0    0    0  501 -0.00000000000E+00  0.00000000000E+00  0.19549852925E+02  0.19591060446E+02  0.12700000000E+01 0. -1.
          4   -1    0    0  501    0  0.00000000000E+00 -0.00000000000E+00 -0.19955407469E+03  0.19955811591E+03  0.12700000000E+01 0. -1.
         25    2    1    2    0    0  0.00000000000E+00  0.00000000000E+00 -0.18000422176E+03  0.21914917635E+03  0.12499936657E+03 0.  0.
    9000005    1    3    3    0    0  0.53299530585E+02 -0.29207631296E+02 -0.64518199851E+02  0.88642674816E+02  0.10000000000E+01 0.  0.
    9000005    1    3    3    0    0 -0.53299530585E+02  0.29207631296E+02 -0.11548602191E+03  0.13050650154E+03  0.10000000000E+01 0.  0.
<mgrwt>
<rscale>  0 0.12499937E+03</rscale>
<asrwt>0</asrwt>
<pdfrwt beam="2">  1        4 0.30704106E-01 0.12499937E+03</pdfrwt>
<pdfrwt beam="1">  1       -4 0.30111505E-02 0.12499937E+03</pdfrwt>
<totfact> 0.87004392E+03</totfact>
</mgrwt>
</event>
<event>
 5    1  0.3276024E-002  0.1250047E+03  0.7818608E-02  0.1235062E+00
         -4   -1    0    0    0  501 -0.00000000000E+00  0.00000000000E+00  0.14038550980E+03  0.14039125422E+03  0.12700000000E+01 0.  1.
          4   -1    0    0  501    0  0.00000000000E+00 -0.00000000000E+00 -0.27806463825E+02  0.27835450966E+02  0.12700000000E+01 0.  1.
         25    2    1    2    0    0  0.00000000000E+00  0.00000000000E+00  0.11257904598E+03  0.16822670519E+03  0.12500473089E+03 0.  0.
    9000005    1    3    3    0    0  0.49190141719E+02  0.53027942754E+01  0.10767151188E+03  0.11849870945E+03  0.10000000000E+01 0.  0.
    9000005    1    3    3    0    0 -0.49190141719E+02 -0.53027942754E+01  0.49075340925E+01  0.49727995741E+02  0.10000000000E+01 0.  0.
<mgrwt>
<rscale>  0 0.12500473E+03</rscale>
<asrwt>0</asrwt>
<pdfrwt beam="2">  1        4 0.42805892E-02 0.12500473E+03</pdfrwt>
<pdfrwt beam="1">  1       -4 0.21600442E-01 0.12500473E+03</pdfrwt>
<totfact> 0.95769596E+03</totfact>
</mgrwt>
</event>
<event>
 5    1  0.3276024E-002  0.1250007E+03  0.7818608E-02  0.1235068E+00
         -4   -1    0    0    0  501 -0.00000000000E+00  0.00000000000E+00  0.64927915047E+01  0.66158326403E+01  0.12700000000E+01 0. -1.
          4   -1    0    0  501    0  0.00000000000E+00 -0.00000000000E+00 -0.59586494888E+03  0.59586630229E+03  0.12700000000E+01 0. -1.
         25    2    1    2    0    0  0.00000000000E+00  0.00000000000E+00 -0.58937215738E+03  0.60248213493E+03  0.12500073208E+03 0.  0.
    9000005    1    3    3    0    0  0.50208425067E+02  0.32048885914E+02 -0.20358255155E+03  0.21211994798E+03  0.10000000000E+01 0.  0.
    9000005    1    3    3    0    0 -0.50208425067E+02 -0.32048885914E+02 -0.38578960582E+03  0.39036218695E+03  0.10000000000E+01 0.  0.
<mgrwt>
<rscale>  0 0.12500073E+03</rscale>
<asrwt>0</asrwt>
<pdfrwt beam="2">  1        4 0.91681057E-01 0.12500073E+03</pdfrwt>
<pdfrwt beam="1">  1       -4 0.10084603E-02 0.12500073E+03</pdfrwt>
<totfact> 0.48710540E+03</totfact>
</mgrwt>
</event>
<event>
 5    1  0.3276024E-002  0.1250070E+03  0.7818608E-02  0.1235058E+00
          4   -1    0    0  501    0  0.00000000000E+00  0.00000000000E+00  0.35128027612E+01  0.37353290670E+01  0.12700000000E+01 0.  1.
         -4   -1    0    0    0  501 -0.00000000000E+00 -0.00000000000E+00 -0.10777616056E+04  0.10777623539E+04  0.12700000000E+01 0.  1.
         25    2    1    2    0    0  0.00000000000E+00  0.00000000000E+00 -0.10742488028E+04  0.10814976829E+04  0.12500699094E+03 0.  0.
    9000005    1    3    3    0    0  0.16399824167E+02 -0.60200688300E+02 -0.50640264059E+03  0.51023299727E+03  0.10000000000E+01 0.  0.
    9000005    1    3    3    0    0 -0.16399824167E+02  0.60200688300E+02 -0.56784616225E+03  0.57126468566E+03  0.10000000000E+01 0.  0.
<mgrwt>
<rscale>  0 0.12500699E+03</rscale>
<asrwt>0</asrwt>
<pdfrwt beam="1">  1        4 0.55760702E-03 0.12500699E+03</pdfrwt>
<pdfrwt beam="2">  1       -4 0.16582640E+00 0.12500699E+03</pdfrwt>
<totfact> 0.28027081E+03</totfact>
</mgrwt>
</event>
<event>
 5    1  0.3276024E-002  0.1250003E+03  0.7818608E-02  0.1235069E+00
          4   -1    0    0  501    0  0.00000000000E+00  0.00000000000E+00  0.16475140795E+02  0.16524017799E+02  0.12700000000E+01 0.  1.
         -4   -1    0    0    0  501 -0.00000000000E+00 -0.00000000000E+00 -0.23669919192E+03  0.23670259897E+03  0.12700000000E+01 0.  1.
         25    2    1    2    0    0  0.00000000000E+00  0.00000000000E+00 -0.22022405113E+03  0.25322661677E+03  0.12500034697E+03 0.  0.
    9000005    1    3    3    0    0  0.75992275475E+01  0.32761412219E+02 -0.34111314820E+01  0.33818548282E+02  0.10000000000E+01 0.  0.
    9000005    1    3    3    0    0 -0.75992275475E+01 -0.32761412219E+02 -0.21681291965E+03  0.21940806848E+03  0.10000000000E+01 0.  0.
<mgrwt>
<rscale>  0 0.12500035E+03</rscale>
<asrwt>0</asrwt>
<pdfrwt beam="1">  1        4 0.25386591E-02 0.12500035E+03</pdfrwt>
<pdfrwt beam="2">  1       -4 0.36419280E-01 0.12500035E+03</pdfrwt>
<totfact> 0.81865475E+03</totfact>
</mgrwt>
</event>
<event>
 5    1  0.3276024E-002  0.1250018E+03  0.7818608E-02  0.1235066E+00
          4   -1    0    0  501    0  0.00000000000E+00  0.00000000000E+00  0.13739328096E+02  0.13797899715E+02  0.12700000000E+01 0. -1.
         -4   -1    0    0    0  501 -0.00000000000E+00 -0.00000000000E+00 -0.28365511928E+03  0.28365796233E+03  0.12700000000E+01 0. -1.
         25    2    1    2    0    0  0.00000000000E+00  0.00000000000E+00 -0.26991579118E+03  0.29745586204E+03  0.12500182213E+03 0.  0.
    9000005    1    3    3    0    0 -0.44653836193E+02 -0.28396127652E+02 -0.21406197280E+03  0.22050812537E+03  0.10000000000E+01 0.  0.
    9000005    1    3    3    0    0  0.44653836193E+02  0.28396127652E+02 -0.55853818380E+02  0.76947736679E+02  0.10000000000E+01 0.  0.
<mgrwt>
<rscale>  0 0.12500182E+03</rscale>
<asrwt>0</asrwt>
<pdfrwt beam="1">  1        4 0.21184672E-02 0.12500182E+03</pdfrwt>
<pdfrwt beam="2">  1       -4 0.43643969E-01 0.12500182E+03</pdfrwt>
<totfact> 0.75916013E+03</totfact>
</mgrwt>
</event>
<event>
 5    1  0.3276024E-002  0.1249991E+03  0.7818608E-02  0.1235071E+00
         -4   -1    0    0    0  501 -0.00000000000E+00  0.00000000000E+00  0.28362738726E+03  0.28363023059E+03  0.12700000000E+01 0. -1.
          4   -1    0    0  501    0  0.00000000000E+00 -0.00000000000E+00 -0.13740082982E+02  0.13798651396E+02  0.12700000000E+01 0. -1.
         25    2    1    2    0    0  0.00000000000E+00  0.00000000000E+00  0.26988730428E+03  0.29742888198E+03  0.12499913131E+03 0.  0.
    9000005    1    3    3    0    0 -0.25231316123E+02 -0.53623402282E+02  0.18212079108E+03  0.19152303028E+03  0.10000000000E+01 0.  0.
    9000005    1    3    3    0    0  0.25231316123E+02  0.53623402282E+02  0.87766513200E+02  0.10590585170E+03  0.10000000000E+01 0.  0.
<mgrwt>
<rscale>  0 0.12499913E+03</rscale>
<asrwt>0</asrwt>
<pdfrwt beam="2">  1        4 0.21185831E-02 0.12499913E+03</pdfrwt>
<pdfrwt beam="1">  1       -4 0.43639703E-01 0.12499913E+03</pdfrwt>
<totfact> 0.75923957E+03</totfact>
</mgrwt>
</event>
<event>
 5    1  0.3276024E-002  0.1249983E+03  0.7818608E-02  0.1235072E+00
         -4   -1    0    0    0  501 -0.00000000000E+00  0.00000000000E+00  0.52466924396E+01  0.53982109588E+01  0.12700000000E+01 0.  1.
          4   -1    0    0  501    0  0.00000000000E+00 -0.00000000000E+00 -0.73374705859E+03  0.73374815767E+03  0.12700000000E+01 0.  1.
         25    2    1    2    0    0  0.00000000000E+00  0.00000000000E+00 -0.72850036615E+03  0.73914636863E+03  0.12499828311E+03 0.  0.
    9000005    1    3    3    0    0  0.60844693336E+02  0.13938410405E+02 -0.34672189969E+03  0.35229736263E+03  0.10000000000E+01 0.  0.
    9000005    1    3    3    0    0 -0.60844693336E+02 -0.13938410405E+02 -0.38177846646E+03  0.38684900600E+03  0.10000000000E+01 0.  0.
<mgrwt>
<rscale>  0 0.12499828E+03</rscale>
<asrwt>0</asrwt>
<pdfrwt beam="2">  1        4 0.11289582E+00 0.12499828E+03</pdfrwt>
<pdfrwt beam="1">  1       -4 0.81892385E-03 0.12499828E+03</pdfrwt>
<totfact> 0.41100292E+03</totfact>
</mgrwt>
</event>
<event>
 5    1  0.3276024E-002  0.1250033E+03  0.7818608E-02  0.1235064E+00
         -4   -1    0    0    0  501 -0.00000000000E+00  0.00000000000E+00  0.89715143922E+02  0.89724132478E+02  0.12700000000E+01 0. -1.
          4   -1    0    0  501    0  0.00000000000E+00 -0.00000000000E+00 -0.43522486069E+02  0.43541011628E+02  0.12700000000E+01 0. -1.
         25    2    1    2    0    0  0.00000000000E+00  0.00000000000E+00  0.46192657854E+02  0.13326514411E+03  0.12500334793E+03 0.  0.
    9000005    1    3    3    0    0 -0.47521422697E+02  0.11429159025E+01 -0.20154292021E+02  0.51640946532E+02  0.10000000000E+01 0.  0.
    9000005    1    3    3    0    0  0.47521422697E+02 -0.11429159025E+01  0.66346949875E+02  0.81624197574E+02  0.10000000000E+01 0.  0.
<mgrwt>
<rscale>  0 0.12500335E+03</rscale>
<asrwt>0</asrwt>
<pdfrwt beam="2">  1        4 0.66978836E-02 0.12500335E+03</pdfrwt>
<pdfrwt beam="1">  1       -4 0.13804446E-01 0.12500335E+03</pdfrwt>
<totfact> 0.10273992E+04</totfact>
</mgrwt>
</event>
<event>
 5    1  0.3276024E-002  0.1249987E+03  0.7818608E-02  0.1235071E+00
          4   -1    0    0  501    0  0.00000000000E+00  0.00000000000E+00  0.74947961472E+03  0.74948069073E+03  0.12700000000E+01 0.  1.
         -4   -1    0    0    0  501 -0.00000000000E+00 -0.00000000000E+00 -0.51333749802E+01  0.52881413263E+01  0.12700000000E+01 0.  1.
         25    2    1    2    0    0  0.00000000000E+00  0.00000000000E+00  0.74434623974E+03  0.75476883206E+03  0.12499866092E+03 0.  0.
    9000005    1    3    3    0    0 -0.36432821213E+02  0.37853573618E+02  0.16785979028E+03  0.17589244637E+03  0.10000000000E+01 0.  0.
    9000005    1    3    3    0    0  0.36432821213E+02 -0.37853573618E+02  0.57648644946E+03  0.57887638569E+03  0.10000000000E+01 0.  0.
<mgrwt>
<rscale>  0 0.12499866E+03</rscale>
<asrwt>0</asrwt>
<pdfrwt beam="1">  1        4 0.11531654E+00 0.12499866E+03</pdfrwt>
<pdfrwt beam="2">  1       -4 0.80173789E-03 0.12499866E+03</pdfrwt>
<totfact> 0.40348257E+03</totfact>
</mgrwt>
</event>
<event>
 5    1  0.3276024E-002  0.1250017E+03  0.7818608E-02  0.1235067E+00
          4   -1    0    0  501    0  0.00000000000E+00  0.00000000000E+00  0.17039934720E+03  0.17040407984E+03  0.12700000000E+01 0. -1.
         -4   -1    0    0    0  501 -0.00000000000E+00 -0.00000000000E+00 -0.22902086339E+02  0.22937272259E+02  0.12700000000E+01 0. -1.
         25    2    1    2    0    0  0.00000000000E+00  0.00000000000E+00  0.14749726086E+03  0.19334135210E+03  0.12500174587E+03 0.  0.
    9000005    1    3    3    0    0 -0.21622013529E+02  0.26698546178E+02 -0.69924836113E+01  0.35074473113E+02  0.10000000000E+01 0.  0.
    9000005    1    3    3    0    0  0.21622013529E+02 -0.26698546178E+02  0.15448974448E+03  0.15826687899E+03  0.10000000000E+01 0.  0.
<mgrwt>
<rscale>  0 0.12500175E+03</rscale>
<asrwt>0</asrwt>
<pdfrwt beam="1">  1        4 0.26218354E-01 0.12500175E+03</pdfrwt>
<pdfrwt beam="2">  1       -4 0.35264686E-02 0.12500175E+03</pdfrwt>
<totfact> 0.91265591E+03</totfact>
</mgrwt>
</event>
<event>
 5    1  0.3276024E-002  0.1249999E+03  0.7818608E-02  0.1235069E+00
         -4   -1    0    0    0  501 -0.00000000000E+00  0.00000000000E+00  0.25970076730E+02  0.26001111233E+02  0.12700000000E+01 0.  1.
          4   -1    0    0  501    0  0.00000000000E+00 -0.00000000000E+00 -0.15028981632E+03  0.15029518219E+03  0.12700000000E+01 0.  1.
         25    2    1    2    0    0  0.00000000000E+00  0.00000000000E+00 -0.12431973959E+03  0.17629629342E+03  0.12499994169E+03 0.  0.
    9000005    1    3    3    0    0  0.13435846142E+02  0.61021903113E+02 -0.60713476363E+02  0.87128186215E+02  0.10000000000E+01 0.  0.
    9000005    1    3    3    0    0 -0.13435846142E+02 -0.61021903113E+02 -0.63606263224E+02  0.89168107204E+02  0.10000000000E+01 0.  0.
<mgrwt>
<rscale>  0 0.12499994E+03</rscale>
<asrwt>0</asrwt>
<pdfrwt beam="2">  1        4 0.23124310E-01 0.12499994E+03</pdfrwt>
<pdfrwt beam="1">  1       -4 0.39981965E-02 0.12499994E+03</pdfrwt>
<totfact> 0.94288086E+03</totfact>
</mgrwt>
</event>
<event>
 5    1  0.3276024E-002  0.1250003E+03  0.7818608E-02  0.1235069E+00
          4   -1    0    0  501    0  0.00000000000E+00  0.00000000000E+00  0.10552783257E+03  0.10553547436E+03  0.12700000000E+01 0.  1.
         -4   -1    0    0    0  501 -0.00000000000E+00 -0.00000000000E+00 -0.36996617115E+02  0.37018408636E+02  0.12700000000E+01 0.  1.
         25    2    1    2    0    0  0.00000000000E+00  0.00000000000E+00  0.68531215459E+02  0.14255388299E+03  0.12500032826E+03 0.  0.
    9000005    1    3    3    0    0 -0.44842444621E+02 -0.33818168579E+02  0.30179379385E+01  0.56254967026E+02  0.10000000000E+01 0.  0.
    9000005    1    3    3    0    0  0.44842444621E+02  0.33818168579E+02  0.65513277520E+02  0.86298915967E+02  0.10000000000E+01 0.  0.
<mgrwt>
<rscale>  0 0.12500033E+03</rscale>
<asrwt>0</asrwt>
<pdfrwt beam="1">  1        4 0.16237315E-01 0.12500033E+03</pdfrwt>
<pdfrwt beam="2">  1       -4 0.56940515E-02 0.12500033E+03</pdfrwt>
<totfact> 0.10080852E+04</totfact>
</mgrwt>
</event>
<event>
 5    1  0.3276024E-002  0.1250053E+03  0.7818608E-02  0.1235061E+00
          4   -1    0    0  501    0  0.00000000000E+00  0.00000000000E+00  0.83975270324E+03  0.83975366358E+03  0.12700000000E+01 0. -1.
         -4   -1    0    0    0  501 -0.00000000000E+00 -0.00000000000E+00 -0.45644061577E+01  0.47377952227E+01  0.12700000000E+01 0. -1.
         25    2    1    2    0    0  0.00000000000E+00  0.00000000000E+00  0.83518829708E+03  0.84449145881E+03  0.12500532953E+03 0.  0.
    9000005    1    3    3    0    0  0.61839130539E+02 -0.19985098566E+01  0.47707105729E+03  0.48106742335E+03  0.10000000000E+01 0.  0.
    9000005    1    3    3    0    0 -0.61839130539E+02  0.19985098566E+01  0.35811723980E+03  0.36342403546E+03  0.10000000000E+01 0.  0.
<mgrwt>
<rscale>  0 0.12500533E+03</rscale>
<asrwt>0</asrwt>
<pdfrwt beam="1">  1        4 0.12920617E+00 0.12500533E+03</pdfrwt>
<pdfrwt beam="2">  1       -4 0.71562763E-03 0.12500533E+03</pdfrwt>
<totfact> 0.36349563E+03</totfact>
</mgrwt>
</event>
<event>
 5    1  0.3276024E-002  0.1249970E+03  0.7818608E-02  0.1235074E+00
          4   -1    0    0  501    0  0.00000000000E+00  0.00000000000E+00  0.39613422039E+03  0.39613625619E+03  0.12700000000E+01 0. -1.
         -4   -1    0    0    0  501 -0.00000000000E+00 -0.00000000000E+00 -0.98174935006E+01  0.98992968757E+01  0.12700000000E+01 0. -1.
         25    2    1    2    0    0  0.00000000000E+00  0.00000000000E+00  0.38631672689E+03  0.40603555306E+03  0.12499702746E+03 0.  0.
    9000005    1    3    3    0    0 -0.49836043845E+02  0.16787222964E+02  0.83499230327E+02  0.98684160766E+02  0.10000000000E+01 0.  0.
    9000005    1    3    3    0    0  0.49836043845E+02 -0.16787222964E+02  0.30281749657E+03  0.30735139230E+03  0.10000000000E+01 0.  0.
<mgrwt>
<rscale>  0 0.12499703E+03</rscale>
<asrwt>0</asrwt>
<pdfrwt beam="1">  1        4 0.60950185E-01 0.12499703E+03</pdfrwt>
<pdfrwt beam="2">  1       -4 0.15168326E-02 0.12499703E+03</pdfrwt>
<totfact> 0.63974171E+03</totfact>
</mgrwt>
</event>
<event>
 5    1  0.3276024E-002  0.1249913E+03  0.7818608E-02  0.1235083E+00
          4   -1    0    0  501    0  0.00000000000E+00  0.00000000000E+00  0.55265876964E+02  0.55280467225E+02  0.12700000000E+01 0. -1.
         -4   -1    0    0    0  501 -0.00000000000E+00 -0.00000000000E+00 -0.70641558785E+02  0.70652973947E+02  0.12700000000E+01 0. -1.
         25    2    1    2    0    0  0.00000000000E+00  0.00000000000E+00 -0.15375681821E+02  0.12593344117E+03  0.12499127975E+03 0.  0.
    9000005    1    3    3    0    0  0.29365741221E+02 -0.15963333134E+02 -0.60882882145E+02  0.69461500851E+02  0.10000000000E+01 0.  0.
    9000005    1    3    3    0    0 -0.29365741221E+02  0.15963333134E+02  0.45507200324E+02  0.56471940320E+02  0.10000000000E+01 0.  0.
<mgrwt>
<rscale>  0 0.12499128E+03</rscale>
<asrwt>0</asrwt>
<pdfrwt beam="1">  1        4 0.85044430E-02 0.12499128E+03</pdfrwt>
<pdfrwt beam="2">  1       -4 0.10869933E-01 0.12499128E+03</pdfrwt>
<totfact> 0.10434469E+04</totfact>
</mgrwt>
</event>
<event>
 5    1  0.3276024E-002  0.1249891E+03  0.7818608E-02  0.1235086E+00
         -4   -1    0    0    0  501 -0.00000000000E+00  0.00000000000E+00  0.15634812768E+02  0.15686308370E+02  0.12700000000E+01 0. -1.
          4   -1    0    0  501    0  0.00000000000E+00 -0.00000000000E+00 -0.24933574291E+03  0.24933897728E+03  0.12700000000E+01 0. -1.
         25    2    1    2    0    0  0.00000000000E+00  0.00000000000E+00 -0.23370093014E+03  0.26502528565E+03  0.12498910867E+03 0.  0.
    9000005    1    3    3    0    0  0.53336153940E+02 -0.26957216665E+02 -0.78149336885E+02  0.98385749491E+02  0.10000000000E+01 0.  0.
    9000005    1    3    3    0    0 -0.53336153940E+02  0.26957216665E+02 -0.15555159325E+03  0.16663953616E+03  0.10000000000E+01 0.  0.
<mgrwt>
<rscale>  0 0.12498911E+03</rscale>
<asrwt>0</asrwt>
<pdfrwt beam="2">  1        4 0.38363552E-01 0.12498911E+03</pdfrwt>
<pdfrwt beam="1">  1       -4 0.24095660E-02 0.12498911E+03</pdfrwt>
<totfact> 0.80225408E+03</totfact>
</mgrwt>
</event>
<event>
 5    1  0.3276024E-002  0.1250046E+03  0.7818608E-02  0.1235062E+00
          4   -1    0    0  501    0  0.00000000000E+00  0.00000000000E+00  0.49491154543E+02  0.49507446692E+02  0.12700000000E+01 0.  1.
         -4   -1    0    0    0  501 -0.00000000000E+00 -0.00000000000E+00 -0.78899641612E+02  0.78909862162E+02  0.12700000000E+01 0.  1.
         25    2    1    2    0    0  0.00000000000E+00  0.00000000000E+00 -0.29408487069E+02  0.12841730885E+03  0.12500458432E+03 0.  0.
    9000005    1    3    3    0    0  0.44100661557E+02  0.11537948991E+02 -0.58621129143E+02  0.74265937001E+02  0.10000000000E+01 0.  0.
    9000005    1    3    3    0    0 -0.44100661557E+02 -0.11537948991E+02  0.29212642074E+02  0.54151371853E+02  0.10000000000E+01 0.  0.
<mgrwt>
<rscale>  0 0.12500458E+03</rscale>
<asrwt>0</asrwt>
<pdfrwt beam="1">  1        4 0.76160632E-02 0.12500458E+03</pdfrwt>
<pdfrwt beam="2">  1       -4 0.12140446E-01 0.12500458E+03</pdfrwt>
<totfact> 0.10377411E+04</totfact>
</mgrwt>
</event>
<event>
 5    1  0.3276024E-002  0.1250073E+03  0.7818608E-02  0.1235058E+00
         -4   -1    0    0    0  501 -0.00000000000E+00  0.00000000000E+00  0.39460061171E+01  0.41453424799E+01  0.12700000000E+01 0.  1.
          4   -1    0    0  501    0  0.00000000000E+00 -0.00000000000E+00 -0.96544987298E+03  0.96545070829E+03  0.12700000000E+01 0.  1.
         25    2    1    2    0    0  0.00000000000E+00  0.00000000000E+00 -0.96150386686E+03  0.96959605077E+03  0.12500726249E+03 0.  0.
    9000005    1    3    3    0    0 -0.60124860241E+02  0.15749818099E+02 -0.53140510078E+03  0.53502844478E+03  0.10000000000E+01 0.  0.
    9000005    1    3    3    0    0  0.60124860241E+02 -0.15749818099E+02 -0.43009876608E+03  0.43456760599E+03  0.10000000000E+01 0.  0.
<mgrwt>
<rscale>  0 0.12500726E+03</rscale>
<asrwt>0</asrwt>
<pdfrwt beam="2">  1        4 0.14854596E+00 0.12500726E+03</pdfrwt>
<pdfrwt beam="1">  1       -4 0.62247645E-03 0.12500726E+03</pdfrwt>
<totfact> 0.31625322E+03</totfact>
</mgrwt>
</event>
<event>
 5    1  0.3276024E-002  0.1250007E+03  0.7818608E-02  0.1235068E+00
         -4   -1    0    0    0  501 -0.00000000000E+00  0.00000000000E+00  0.12976164191E+02  0.13038164638E+02  0.12700000000E+01 0.  1.
          4   -1    0    0  501    0  0.00000000000E+00 -0.00000000000E+00 -0.30025550409E+03  0.30025818995E+03  0.12700000000E+01 0.  1.
         25    2    1    2    0    0  0.00000000000E+00  0.00000000000E+00 -0.28727933989E+03  0.31329635459E+03  0.12500074668E+03 0.  0.
    9000005    1    3    3    0    0  0.50191546937E+02 -0.37228529657E+02 -0.14458368168E+03  0.15751379563E+03  0.10000000000E+01 0.  0.
    9000005    1    3    3    0    0 -0.50191546937E+02  0.37228529657E+02 -0.14269565821E+03  0.15578255896E+03  0.10000000000E+01 0.  0.
<mgrwt>
<rscale>  0 0.12500075E+03</rscale>
<asrwt>0</asrwt>
<pdfrwt beam="2">  1        4 0.46198125E-01 0.12500075E+03</pdfrwt>
<pdfrwt beam="1">  1       -4 0.20013091E-02 0.12500075E+03</pdfrwt>
<totfact> 0.73959371E+03</totfact>
</mgrwt>
</event>
<event>
 5    1  0.3276024E-002  0.1250005E+03  0.7818608E-02  0.1235069E+00
         -4   -1    0    0    0  501 -0.00000000000E+00  0.00000000000E+00  0.23612827714E+02  0.23646956097E+02  0.12700000000E+01 0. -1.
          4   -1    0    0  501    0  0.00000000000E+00 -0.00000000000E+00 -0.16527433149E+03  0.16527921089E+03  0.12700000000E+01 0. -1.
         25    2    1    2    0    0  0.00000000000E+00  0.00000000000E+00 -0.14166150378E+03  0.18892616698E+03  0.12500045967E+03 0.  0.
    9000005    1    3    3    0    0  0.26182405165E+02  0.39496507086E+02 -0.92554438051E+01  0.48292397458E+02  0.10000000000E+01 0.  0.
    9000005    1    3    3    0    0 -0.26182405165E+02 -0.39496507086E+02 -0.13240605998E+03  0.14063376952E+03  0.10000000000E+01 0.  0.
<mgrwt>
<rscale>  0 0.12500046E+03</rscale>
<asrwt>0</asrwt>
<pdfrwt beam="2">  1        4 0.25429820E-01 0.12500046E+03</pdfrwt>
<pdfrwt beam="1">  1       -4 0.36357434E-02 0.12500046E+03</pdfrwt>
<totfact> 0.92033547E+03</totfact>
</mgrwt>
</event>
<event>
 5    1  0.3276024E-002  0.1249974E+03  0.7818608E-02  0.1235073E+00
         -4   -1    0    0    0  501 -0.00000000000E+00  0.00000000000E+00  0.27077747181E+02  0.27107513578E+02  0.12700000000E+01 0.  1.
          4   -1    0    0  501    0  0.00000000000E+00 -0.00000000000E+00 -0.14414276676E+03  0.14414836146E+03  0.12700000000E+01 0.  1.
         25    2    1    2    0    0  0.00000000000E+00  0.00000000000E+00 -0.11706501958E+03  0.17125587503E+03  0.12499742367E+03 0.  0.
    9000005    1    3    3    0    0  0.44391309373E+02 -0.15530379918E+02 -0.11491086335E+03  0.12416637050E+03  0.10000000000E+01 0.  0.
    9000005    1    3    3    0    0 -0.44391309373E+02  0.15530379918E+02 -0.21541562380E+01  0.47089504535E+02  0.10000000000E+01 0.  0.
<mgrwt>
<rscale>  0 0.12499742E+03</rscale>
<asrwt>0</asrwt>
<pdfrwt beam="2">  1        4 0.22178530E-01 0.12499742E+03</pdfrwt>
<pdfrwt beam="1">  1       -4 0.41685274E-02 0.12499742E+03</pdfrwt>
<totfact> 0.95220581E+03</totfact>
</mgrwt>
</event>
<event>
 5    1  0.3276024E-002  0.1250023E+03  0.7818608E-02  0.1235066E+00
         -4   -1    0    0    0  501 -0.00000000000E+00  0.00000000000E+00  0.10327352362E+02  0.10405148092E+02  0.12700000000E+01 0.  1.
          4   -1    0    0  501    0  0.00000000000E+00 -0.00000000000E+00 -0.37675867515E+03  0.37676081564E+03  0.12700000000E+01 0.  1.
         25    2    1    2    0    0  0.00000000000E+00  0.00000000000E+00 -0.36643132279E+03  0.38716596373E+03  0.12500227658E+03 0.  0.
    9000005    1    3    3    0    0  0.39545985727E+02  0.39557726160E+02 -0.96897116223E+02  0.11188721919E+03  0.10000000000E+01 0.  0.
    9000005    1    3    3    0    0 -0.39545985727E+02 -0.39557726160E+02 -0.26953420656E+03  0.27527874454E+03  0.10000000000E+01 0.  0.
<mgrwt>
<rscale>  0 0.12500228E+03</rscale>
<asrwt>0</asrwt>
<pdfrwt beam="2">  1        4 0.57969012E-01 0.12500228E+03</pdfrwt>
<pdfrwt beam="1">  1       -4 0.15949727E-02 0.12500228E+03</pdfrwt>
<totfact> 0.65817144E+03</totfact>
</mgrwt>
</event>
<event>
 5    1  0.3276024E-002  0.1250113E+03  0.7818608E-02  0.1235052E+00
         -4   -1    0    0    0  501 -0.00000000000E+00  0.00000000000E+00  0.19974895033E+03  0.19975298761E+03  0.12700000000E+01 0.  1.
          4   -1    0    0  501    0  0.00000000000E+00 -0.00000000000E+00 -0.19534472678E+02  0.19575712574E+02  0.12700000000E+01 0.  1.
         25    2    1    2    0    0  0.00000000000E+00  0.00000000000E+00  0.18021447766E+03  0.21932870019E+03  0.12501128256E+03 0.  0.
    9000005    1    3    3    0    0 -0.10966850824E+02 -0.61527863826E+02  0.89978933885E+02  0.10955892655E+03  0.10000000000E+01 0.  0.
    9000005    1    3    3    0    0  0.10966850824E+02  0.61527863826E+02  0.90235543772E+02  0.10976977363E+03  0.10000000000E+01 0.  0.
<mgrwt>
<rscale>  0 0.12501128E+03</rscale>
<asrwt>0</asrwt>
<pdfrwt beam="2">  1        4 0.30087864E-02 0.12501128E+03</pdfrwt>
<pdfrwt beam="1">  1       -4 0.30734090E-01 0.12501128E+03</pdfrwt>
<totfact> 0.86952769E+03</totfact>
</mgrwt>
</event>
<event>
 5    1  0.3276024E-002  0.1250005E+03  0.7818608E-02  0.1235068E+00
         -4   -1    0    0    0  501 -0.00000000000E+00  0.00000000000E+00  0.65036712325E+02  0.65049111062E+02  0.12700000000E+01 0. -1.
          4   -1    0    0  501    0  0.00000000000E+00 -0.00000000000E+00 -0.60037880165E+02  0.60051311016E+02  0.12700000000E+01 0. -1.
         25    2    1    2    0    0  0.00000000000E+00  0.00000000000E+00  0.49988321591E+01  0.12510042208E+03  0.12500050912E+03 0.  0.
    9000005    1    3    3    0    0  0.88154032486E+01  0.57154122607E+02  0.26203295323E+02  0.63497383814E+02  0.10000000000E+01 0.  0.
    9000005    1    3    3    0    0 -0.88154032486E+01 -0.57154122607E+02 -0.21204463164E+02  0.61603038265E+02  0.10000000000E+01 0.  0.
<mgrwt>
<rscale>  0 0.12500051E+03</rscale>
<asrwt>0</asrwt>
<pdfrwt beam="2">  1        4 0.92385839E-02 0.12500051E+03</pdfrwt>
<pdfrwt beam="1">  1       -4 0.10007635E-01 0.12500051E+03</pdfrwt>
<totfact> 0.10450562E+04</totfact>
</mgrwt>
</event>
<event>
 5    1  0.3276024E-002  0.1250005E+03  0.7818608E-02  0.1235069E+00
         -4   -1    0    0    0  501 -0.00000000000E+00  0.00000000000E+00  0.16090146829E+04  0.16090151841E+04  0.12700000000E+01 0.  1.
          4   -1    0    0  501    0  0.00000000000E+00 -0.00000000000E+00 -0.22611205977E+01  0.25933696916E+01  0.12700000000E+01 0.  1.
         25    2    1    2    0    0  0.00000000000E+00  0.00000000000E+00  0.16067535623E+04  0.16116085538E+04  0.12500048283E+03 0.  0.
    9000005    1    3    3    0    0  0.12751823446E+02  0.58013302771E+02  0.55300107255E+03  0.55618282834E+03  0.10000000000E+01 0.  0.
    9000005    1    3    3    0    0 -0.12751823446E+02 -0.58013302771E+02  0.10537524898E+04  0.10554257255E+04  0.10000000000E+01 0.  0.
<mgrwt>
<rscale>  0 0.12500048E+03</rscale>
<asrwt>0</asrwt>
<pdfrwt beam="2">  1        4 0.37346020E-03 0.12500048E+03</pdfrwt>
<pdfrwt beam="1">  1       -4 0.24756677E+00 0.12500048E+03</pdfrwt>
<totfact> 0.15837063E+03</totfact>
</mgrwt>
</event>
<event>
 5    1  0.3276024E-002  0.1249975E+03  0.7818608E-02  0.1235073E+00
         -4   -1    0    0    0  501 -0.00000000000E+00  0.00000000000E+00  0.42569724695E+02  0.42588664696E+02  0.12700000000E+01 0. -1.
          4   -1    0    0  501    0  0.00000000000E+00 -0.00000000000E+00 -0.91713739412E+02  0.91722532111E+02  0.12700000000E+01 0. -1.
         25    2    1    2    0    0  0.00000000000E+00  0.00000000000E+00 -0.49144014717E+02  0.13431119681E+03  0.12499745360E+03 0.  0.
    9000005    1    3    3    0    0  0.23970755302E+02 -0.57634941949E+02 -0.27742673506E+02  0.68315734472E+02  0.10000000000E+01 0.  0.
    9000005    1    3    3    0    0 -0.23970755302E+02  0.57634941949E+02 -0.21401341210E+02  0.65995462335E+02  0.10000000000E+01 0.  0.
<mgrwt>
<rscale>  0 0.12499745E+03</rscale>
<asrwt>0</asrwt>
<pdfrwt beam="2">  1        4 0.14111939E-01 0.12499745E+03</pdfrwt>
<pdfrwt beam="1">  1       -4 0.65513217E-02 0.12499745E+03</pdfrwt>
<totfact> 0.10253198E+04</totfact>
</mgrwt>
</event>
<event>
 5    1  0.3276024E-002  0.1249990E+03  0.7818608E-02  0.1235071E+00
         -4   -1    0    0    0  501 -0.00000000000E+00  0.00000000000E+00  0.11166611124E+02  0.11238598845E+02  0.12700000000E+01 0. -1.
          4   -1    0    0  501    0  0.00000000000E+00 -0.00000000000E+00 -0.34861260570E+03  0.34861491900E+03  0.12700000000E+01 0. -1.
         25    2    1    2    0    0  0.00000000000E+00  0.00000000000E+00 -0.33744599457E+03  0.35985351785E+03  0.12499902021E+03 0.  0.
    9000005    1    3    3    0    0  0.41241020339E+02  0.23070894641E+02 -0.51002964507E+02  0.69536970934E+02  0.10000000000E+01 0.  0.
    9000005    1    3    3    0    0 -0.41241020339E+02 -0.23070894641E+02 -0.28644303007E+03  0.29031654691E+03  0.10000000000E+01 0.  0.
<mgrwt>
<rscale>  0 0.12499902E+03</rscale>
<asrwt>0</asrwt>
<pdfrwt beam="2">  1        4 0.53638416E-01 0.12499902E+03</pdfrwt>
<pdfrwt beam="1">  1       -4 0.17236559E-02 0.12499902E+03</pdfrwt>
<totfact> 0.68655472E+03</totfact>
</mgrwt>
</event>
<event>
 5    1  0.3276024E-002  0.1250027E+03  0.7818608E-02  0.1235065E+00
          4   -1    0    0  501    0  0.00000000000E+00  0.00000000000E+00  0.19177901205E+04  0.19177905410E+04  0.12700000000E+01 0. -1.
         -4   -1    0    0    0  501 -0.00000000000E+00 -0.00000000000E+00 -0.18385178207E+01  0.22345128724E+01  0.12700000000E+01 0. -1.
         25    2    1    2    0    0  0.00000000000E+00  0.00000000000E+00  0.19159516027E+04  0.19200250539E+04  0.12500265488E+03 0.  0.
    9000005    1    3    3    0    0  0.15188376552E+02  0.31456474210E+02  0.16204090629E+03  0.16576625671E+03  0.10000000000E+01 0.  0.
    9000005    1    3    3    0    0 -0.15188376552E+02 -0.31456474210E+02  0.17539106964E+04  0.17542587972E+04  0.10000000000E+01 0.  0.
<mgrwt>
<rscale>  0 0.12500265E+03</rscale>
<asrwt>0</asrwt>
<pdfrwt beam="1">  1        4 0.29507615E+00 0.12500265E+03</pdfrwt>
<pdfrwt beam="2">  1       -4 0.31334132E-03 0.12500265E+03</pdfrwt>
<totfact> 0.10940687E+03</totfact>
</mgrwt>
</event>
<event>
 5    1  0.3276024E-002  0.1249990E+03  0.7818608E-02  0.1235071E+00
          4   -1    0    0  501    0  0.00000000000E+00  0.00000000000E+00  0.13840243116E+03  0.13840825788E+03  0.12700000000E+01 0. -1.
         -4   -1    0    0    0  501 -0.00000000000E+00 -0.00000000000E+00 -0.28202704917E+02  0.28231285210E+02  0.12700000000E+01 0. -1.
         25    2    1    2    0    0  0.00000000000E+00  0.00000000000E+00  0.11019972624E+03  0.16663954309E+03  0.12499903063E+03 0.  0.
    9000005    1    3    3    0    0 -0.12099877141E+02  0.41093161413E+02 -0.55557084950E+01  0.43207879358E+02  0.10000000000E+01 0.  0.
    9000005    1    3    3    0    0  0.12099877141E+02 -0.41093161413E+02  0.11575543473E+03  0.12343166374E+03  0.10000000000E+01 0.  0.
<mgrwt>
<rscale>  0 0.12499903E+03</rscale>
<asrwt>0</asrwt>
<pdfrwt beam="1">  1        4 0.21295328E-01 0.12499903E+03</pdfrwt>
<pdfrwt beam="2">  1       -4 0.43415244E-02 0.12499903E+03</pdfrwt>
<totfact> 0.96079879E+03</totfact>
</mgrwt>
</event>
<event>
 5    1  0.3276024E-002  0.1250000E+03  0.7818608E-02  0.1235069E+00
         -4   -1    0    0    0  501 -0.00000000000E+00  0.00000000000E+00  0.99665074277E+03  0.99665155193E+03  0.12700000000E+01 0. -1.
          4   -1    0    0  501    0  0.00000000000E+00 -0.00000000000E+00 -0.38156651320E+01  0.40214674435E+01  0.12700000000E+01 0. -1.
         25    2    1    2    0    0  0.00000000000E+00  0.00000000000E+00  0.99283507763E+03  0.10006730194E+04  0.12500000125E+03 0.  0.
    9000005    1    3    3    0    0  0.33646851389E+02 -0.52587502246E+02  0.51862303316E+03  0.52236807571E+03  0.10000000000E+01 0.  0.
    9000005    1    3    3    0    0 -0.33646851389E+02  0.52587502246E+02  0.47421204448E+03  0.47830494366E+03  0.10000000000E+01 0.  0.
<mgrwt>
<rscale>  0 0.12500000E+03</rscale>
<asrwt>0</asrwt>
<pdfrwt beam="2">  1        4 0.60291842E-03 0.12500000E+03</pdfrwt>
<pdfrwt beam="1">  1       -4 0.15334682E+00 0.12500000E+03</pdfrwt>
<totfact> 0.30582260E+03</totfact>
</mgrwt>
</event>
<event>
 5    1  0.3276024E-002  0.1249983E+03  0.7818608E-02  0.1235072E+00
         -4   -1    0    0    0  501 -0.00000000000E+00  0.00000000000E+00  0.56745873898E+03  0.56746016014E+03  0.12700000000E+01 0. -1.
          4   -1    0    0  501    0  0.00000000000E+00 -0.00000000000E+00 -0.68235514172E+01  0.69407315135E+01  0.12700000000E+01 0. -1.
         25    2    1    2    0    0  0.00000000000E+00  0.00000000000E+00  0.56063518756E+03  0.57440089165E+03  0.12499828318E+03 0.  0.
    9000005    1    3    3    0    0 -0.18845660474E+01  0.61724553649E+02  0.23632028998E+03  0.24425755171E+03  0.10000000000E+01 0.  0.
    9000005    1    3    3    0    0  0.18845660474E+01 -0.61724553649E+02  0.32431489758E+03  0.33014333994E+03  0.10000000000E+01 0.  0.
<mgrwt>
<rscale>  0 0.12499828E+03</rscale>
<asrwt>0</asrwt>
<pdfrwt beam="2">  1        4 0.10589006E-02 0.12499828E+03</pdfrwt>
<pdfrwt beam="1">  1       -4 0.87310443E-01 0.12499828E+03</pdfrwt>
<totfact> 0.50526338E+03</totfact>
</mgrwt>
</event>
<event>
 5    1  0.3276024E-002  0.1250018E+03  0.7818608E-02  0.1235066E+00
          4   -1    0    0  501    0  0.00000000000E+00  0.00000000000E+00  0.49719316655E+01  0.51315693980E+01  0.12700000000E+01 0.  1.
         -4   -1    0    0    0  501 -0.00000000000E+00 -0.00000000000E+00 -0.77310919301E+03  0.77311023614E+03  0.12700000000E+01 0.  1.
         25    2    1    2    0    0  0.00000000000E+00  0.00000000000E+00 -0.76813726135E+03  0.77824180553E+03  0.12500182244E+03 0.  0.
    9000005    1    3    3    0    0 -0.44970197664E+02  0.82273045230E+01 -0.11880409194E+03  0.12730050856E+03  0.10000000000E+01 0.  0.
    9000005    1    3    3    0    0  0.44970197664E+02 -0.82273045230E+01 -0.64933316940E+03  0.65094129697E+03  0.10000000000E+01 0.  0.
<mgrwt>
<rscale>  0 0.12500182E+03</rscale>
<asrwt>0</asrwt>
<pdfrwt beam="1">  1        4 0.77727325E-03 0.12500182E+03</pdfrwt>
<pdfrwt beam="2">  1       -4 0.11895214E+00 0.12500182E+03</pdfrwt>
<totfact> 0.39253174E+03</totfact>
</mgrwt>
</event>
<event>
 5    1  0.3276024E-002  0.1250012E+03  0.7818608E-02  0.1235067E+00
         -4   -1    0    0    0  501 -0.00000000000E+00  0.00000000000E+00  0.52623354778E+03  0.52623508027E+03  0.12700000000E+01 0. -1.
          4   -1    0    0  501    0  0.00000000000E+00 -0.00000000000E+00 -0.73673009279E+01  0.74759630123E+01  0.12700000000E+01 0. -1.
         25    2    1    2    0    0  0.00000000000E+00  0.00000000000E+00  0.51886624685E+03  0.53371104328E+03  0.12500118240E+03 0.  0.
    9000005    1    3    3    0    0  0.28336696993E+02  0.63409378030E+01  0.23164986085E+02  0.37159015986E+02  0.10000000000E+01 0.  0.
    9000005    1    3    3    0    0 -0.28336696993E+02 -0.63409378030E+01  0.49570126077E+03  0.49655202730E+03  0.10000000000E+01 0.  0.
<mgrwt>
<rscale>  0 0.12500118E+03</rscale>
<asrwt>0</asrwt>
<pdfrwt beam="2">  1        4 0.11419070E-02 0.12500118E+03</pdfrwt>
<pdfrwt beam="1">  1       -4 0.80967517E-01 0.12500118E+03</pdfrwt>
<totfact> 0.53339092E+03</totfact>
</mgrwt>
</event>
<event>
 5    1  0.3276024E-002  0.1250007E+03  0.7818608E-02  0.1235068E+00
          4   -1    0    0  501    0  0.00000000000E+00  0.00000000000E+00  0.17890690820E+02  0.17935710692E+02  0.12700000000E+01 0. -1.
         -4   -1    0    0    0  501 -0.00000000000E+00 -0.00000000000E+00 -0.21802099999E+03  0.21802469891E+03  0.12700000000E+01 0. -1.
         25    2    1    2    0    0  0.00000000000E+00  0.00000000000E+00 -0.20013030917E+03  0.23596040960E+03  0.12500069701E+03 0.  0.
    9000005    1    3    3    0    0  0.18929330325E+02 -0.57665741264E+02 -0.12816779675E+03  0.14181551885E+03  0.10000000000E+01 0.  0.
    9000005    1    3    3    0    0 -0.18929330325E+02  0.57665741264E+02 -0.71962512418E+02  0.94144890756E+02  0.10000000000E+01 0.  0.
<mgrwt>
<rscale>  0 0.12500070E+03</rscale>
<asrwt>0</asrwt>
<pdfrwt beam="1">  1        4 0.27561617E-02 0.12500070E+03</pdfrwt>
<pdfrwt beam="2">  1       -4 0.33545438E-01 0.12500070E+03</pdfrwt>
<totfact> 0.84401384E+03</totfact>
</mgrwt>
</event>
<event>
 5    1  0.3276024E-002  0.1249976E+03  0.7818608E-02  0.1235073E+00
          4   -1    0    0  501    0  0.00000000000E+00  0.00000000000E+00  0.28439400758E+01  0.31146260056E+01  0.12700000000E+01 0.  1.
         -4   -1    0    0    0  501 -0.00000000000E+00 -0.00000000000E+00 -0.13108170065E+04  0.13108176217E+04  0.12700000000E+01 0.  1.
         25    2    1    2    0    0  0.00000000000E+00  0.00000000000E+00 -0.13079730664E+04  0.13139322477E+04  0.12499763654E+03 0.  0.
    9000005    1    3    3    0    0  0.60270117013E+02  0.16045640360E+02 -0.61306835740E+03  0.61623352751E+03  0.10000000000E+01 0.  0.
    9000005    1    3    3    0    0 -0.60270117013E+02 -0.16045640360E+02 -0.69490470901E+03  0.69769872021E+03  0.10000000000E+01 0.  0.
<mgrwt>
<rscale>  0 0.12499764E+03</rscale>
<asrwt>0</asrwt>
<pdfrwt beam="1">  1        4 0.45839961E-03 0.12499764E+03</pdfrwt>
<pdfrwt beam="2">  1       -4 0.20168456E+00 0.12499764E+03</pdfrwt>
<totfact> 0.21903261E+03</totfact>
</mgrwt>
</event>
<event>
 5    1  0.3276024E-002  0.1249998E+03  0.7818608E-02  0.1235070E+00
         -4   -1    0    0    0  501 -0.00000000000E+00  0.00000000000E+00  0.13833220775E+01  0.18778924278E+01  0.12700000000E+01 0. -1.
          4   -1    0    0  501    0  0.00000000000E+00 -0.00000000000E+00 -0.23950760706E+04  0.23950764073E+04  0.12700000000E+01 0. -1.
         25    2    1    2    0    0  0.00000000000E+00  0.00000000000E+00 -0.23936927485E+04  0.23969542998E+04  0.12499976284E+03 0.  0.
    9000005    1    3    3    0    0  0.32391515478E+02  0.37951709974E+02 -0.19183442350E+04  0.19189932639E+04  0.10000000000E+01 0.  0.
    9000005    1    3    3    0    0 -0.32391515478E+02 -0.37951709974E+02 -0.47534851349E+03  0.47796103591E+03  0.10000000000E+01 0.  0.
<mgrwt>
<rscale>  0 0.12499976E+03</rscale>
<asrwt>0</asrwt>
<pdfrwt beam="2">  1        4 0.36850850E+00 0.12499976E+03</pdfrwt>
<pdfrwt beam="1">  1       -4 0.25089047E-03 0.12499976E+03</pdfrwt>
<totfact> 0.55304125E+02</totfact>
</mgrwt>
</event>
<event>
 5    1  0.3276024E-002  0.1250044E+03  0.7818608E-02  0.1235062E+00
         -4   -1    0    0    0  501 -0.00000000000E+00  0.00000000000E+00  0.55840346909E+02  0.55854787108E+02  0.12700000000E+01 0.  1.
          4   -1    0    0  501    0  0.00000000000E+00 -0.00000000000E+00 -0.69929574283E+02  0.69941105649E+02  0.12700000000E+01 0.  1.
         25    2    1    2    0    0  0.00000000000E+00  0.00000000000E+00 -0.14089227374E+02  0.12579589276E+03  0.12500440115E+03 0.  0.
    9000005    1    3    3    0    0 -0.31541515522E+02  0.45128137024E+02 -0.36797149349E+02  0.66230251040E+02  0.10000000000E+01 0.  0.
    9000005    1    3    3    0    0  0.31541515522E+02 -0.45128137024E+02  0.22707921975E+02  0.59565641717E+02  0.10000000000E+01 0.  0.
<mgrwt>
<rscale>  0 0.12500440E+03</rscale>
<asrwt>0</asrwt>
<pdfrwt beam="2">  1        4 0.10760394E-01 0.12500440E+03</pdfrwt>
<pdfrwt beam="1">  1       -4 0.85928204E-02 0.12500440E+03</pdfrwt>
<totfact> 0.10434399E+04</totfact>
</mgrwt>
</event>
<event>
 5    1  0.3276024E-002  0.1250000E+03  0.7818608E-02  0.1235069E+00
         -4   -1    0    0    0  501 -0.00000000000E+00  0.00000000000E+00  0.10278054626E+03  0.10278839229E+03  0.12700000000E+01 0. -1.
          4   -1    0    0  501    0  0.00000000000E+00 -0.00000000000E+00 -0.37985819598E+02  0.38007043960E+02  0.12700000000E+01 0. -1.
         25    2    1    2    0    0  0.00000000000E+00  0.00000000000E+00  0.64794726661E+02  0.14079543625E+03  0.12499999306E+03 0.  0.
    9000005    1    3    3    0    0  0.84202699721E+01 -0.48500986522E+02  0.75758745733E+02  0.90352831694E+02  0.10000000000E+01 0.  0.
    9000005    1    3    3    0    0 -0.84202699721E+01  0.48500986522E+02 -0.10964019072E+02  0.50442604554E+02  0.10000000000E+01 0.  0.
<mgrwt>
<rscale>  0 0.12499999E+03</rscale>
<asrwt>0</asrwt>
<pdfrwt beam="2">  1        4 0.58462086E-02 0.12499999E+03</pdfrwt>
<pdfrwt beam="1">  1       -4 0.15814628E-01 0.12499999E+03</pdfrwt>
<totfact> 0.10117128E+04</totfact>
</mgrwt>
</event>
<event>
 5    1  0.3276024E-002  0.1249875E+03  0.7818608E-02  0.1235089E+00
          4   -1    0    0  501    0  0.00000000000E+00  0.00000000000E+00  0.27223713104E+03  0.27224009333E+03  0.12700000000E+01 0.  1.
         -4   -1    0    0    0  501 -0.00000000000E+00 -0.00000000000E+00 -0.14314679289E+02  0.14370906136E+02  0.12700000000E+01 0.  1.
         25    2    1    2    0    0  0.00000000000E+00  0.00000000000E+00  0.25792245175E+03  0.28661099947E+03  0.12498749497E+03 0.  0.
    9000005    1    3    3    0    0  0.39504851921E+02 -0.41892902911E+02  0.18460511868E+03  0.19337967443E+03  0.10000000000E+01 0.  0.
    9000005    1    3    3    0    0 -0.39504851921E+02  0.41892902911E+02  0.73317333071E+02  0.93231325037E+02  0.10000000000E+01 0.  0.
<mgrwt>
<rscale>  0 0.12498749E+03</rscale>
<asrwt>0</asrwt>
<pdfrwt beam="1">  1        4 0.41887194E-01 0.12498749E+03</pdfrwt>
<pdfrwt beam="2">  1       -4 0.22068111E-02 0.12498749E+03</pdfrwt>
<totfact> 0.77331100E+03</totfact>
</mgrwt>
</event>
<event>
 5    1  0.3276024E-002  0.1250001E+03  0.7818608E-02  0.1235069E+00
         -4   -1    0    0    0  501 -0.00000000000E+00  0.00000000000E+00  0.13249811035E+03  0.13250419671E+03  0.12700000000E+01 0.  1.
          4   -1    0    0  501    0  0.00000000000E+00 -0.00000000000E+00 -0.29461146768E+02  0.29488507404E+02  0.12700000000E+01 0.  1.
         25    2    1    2    0    0  0.00000000000E+00  0.00000000000E+00  0.10303696358E+03  0.16199270411E+03  0.12500008129E+03 0.  0.
    9000005    1    3    3    0    0  0.33728433480E+02 -0.35779797712E+02  0.15372538652E+01  0.49205327951E+02  0.10000000000E+01 0.  0.
    9000005    1    3    3    0    0 -0.33728433480E+02  0.35779797712E+02  0.10149970971E+03  0.11278737616E+03  0.10000000000E+01 0.  0.
<mgrwt>
<rscale>  0 0.12500008E+03</rscale>
<asrwt>0</asrwt>
<pdfrwt beam="2">  1        4 0.45350569E-02 0.12500008E+03</pdfrwt>
<pdfrwt beam="1">  1       -4 0.20386898E-01 0.12500008E+03</pdfrwt>
<totfact> 0.96959800E+03</totfact>
</mgrwt>
</event>
<event>
 5    1  0.3276024E-002  0.1250250E+03  0.7818608E-02  0.1235030E+00
          4   -1    0    0  501    0  0.00000000000E+00  0.00000000000E+00  0.10446671299E+03  0.10447443239E+03  0.12700000000E+01 0.  1.
         -4   -1    0    0    0  501 -0.00000000000E+00 -0.00000000000E+00 -0.37387351888E+02  0.37408915798E+02  0.12700000000E+01 0.  1.
         25    2    1    2    0    0  0.00000000000E+00  0.00000000000E+00  0.67079361102E+02  0.14188334819E+03  0.12502497273E+03 0.  0.
    9000005    1    3    3    0    0 -0.47368911262E+00  0.12670484983E+02  0.10299750513E+03  0.10377982287E+03  0.10000000000E+01 0.  0.
    9000005    1    3    3    0    0  0.47368911262E+00 -0.12670484983E+02 -0.35918144030E+02  0.38103525318E+02  0.10000000000E+01 0.  0.
<mgrwt>
<rscale>  0 0.12502497E+03</rscale>
<asrwt>0</asrwt>
<pdfrwt beam="1">  1        4 0.16074054E-01 0.12502497E+03</pdfrwt>
<pdfrwt beam="2">  1       -4 0.57541529E-02 0.12502497E+03</pdfrwt>
<totfact> 0.10089024E+04</totfact>
</mgrwt>
</event>
<event>
 5    1  0.3276024E-002  0.1250308E+03  0.7818608E-02  0.1235021E+00
          4   -1    0    0  501    0  0.00000000000E+00  0.00000000000E+00  0.80148058805E+03  0.80148159425E+03  0.12700000000E+01 0. -1.
         -4   -1    0    0    0  501 -0.00000000000E+00 -0.00000000000E+00 -0.47924749386E+01  0.49578943148E+01  0.12700000000E+01 0. -1.
         25    2    1    2    0    0  0.00000000000E+00  0.00000000000E+00  0.79668811311E+03  0.80643948857E+03  0.12503079278E+03 0.  0.
    9000005    1    3    3    0    0 -0.11431936501E+02  0.29620581906E+02  0.74562975859E+03  0.74630610673E+03  0.10000000000E+01 0.  0.
    9000005    1    3    3    0    0  0.11431936501E+02 -0.29620581906E+02  0.51058354519E+02  0.60133381834E+02  0.10000000000E+01 0.  0.
<mgrwt>
<rscale>  0 0.12503079E+03</rscale>
<asrwt>0</asrwt>
<pdfrwt beam="1">  1        4 0.12331764E+00 0.12503079E+03</pdfrwt>
<pdfrwt beam="2">  1       -4 0.75010502E-03 0.12503079E+03</pdfrwt>
<totfact> 0.37953287E+03</totfact>
</mgrwt>
</event>
<event>
 5    1  0.3276024E-002  0.1250075E+03  0.7818608E-02  0.1235058E+00
         -4   -1    0    0    0  501 -0.00000000000E+00  0.00000000000E+00  0.10605599301E+03  0.10606359674E+03  0.12700000000E+01 0. -1.
          4   -1    0    0  501    0  0.00000000000E+00 -0.00000000000E+00 -0.36816515186E+02  0.36838413245E+02  0.12700000000E+01 0. -1.
         25    2    1    2    0    0  0.00000000000E+00  0.00000000000E+00  0.69239477824E+02  0.14290200999E+03  0.12500751645E+03 0.  0.
    9000005    1    3    3    0    0  0.55421813033E+02  0.16094643274E+02  0.72055285779E+01  0.58168157476E+02  0.10000000000E+01 0.  0.
    9000005    1    3    3    0    0 -0.55421813033E+02 -0.16094643274E+02  0.62033949246E+02  0.84733852510E+02  0.10000000000E+01 0.  0.
<mgrwt>
<rscale>  0 0.12500752E+03</rscale>
<asrwt>0</asrwt>
<pdfrwt beam="2">  1        4 0.56663487E-02 0.12500752E+03</pdfrwt>
<pdfrwt beam="1">  1       -4 0.16318576E-01 0.12500752E+03</pdfrwt>
<totfact> 0.10072085E+04</totfact>
</mgrwt>
</event>
<event>
 5    1  0.3276024E-002  0.1250000E+03  0.7818608E-02  0.1235069E+00
         -4   -1    0    0    0  501 -0.00000000000E+00  0.00000000000E+00  0.97405516715E+01  0.98229958193E+01  0.12700000000E+01 0. -1.
          4   -1    0    0  501    0  0.00000000000E+00 -0.00000000000E+00 -0.39925600239E+03  0.39925802227E+03  0.12700000000E+01 0. -1.
         25    2    1    2    0    0  0.00000000000E+00  0.00000000000E+00 -0.38951545072E+03  0.40908101809E+03  0.12499997204E+03 0.  0.
    9000005    1    3    3    0    0  0.34228926364E+02  0.46379199151E+02 -0.11576553032E+03  0.12932636051E+03  0.10000000000E+01 0.  0.
    9000005    1    3    3    0    0 -0.34228926364E+02 -0.46379199151E+02 -0.27374992040E+03  0.27975465757E+03  0.10000000000E+01 0.  0.
<mgrwt>
<rscale>  0 0.12499997E+03</rscale>
<asrwt>0</asrwt>
<pdfrwt beam="2">  1        4 0.61430485E-01 0.12499997E+03</pdfrwt>
<pdfrwt beam="1">  1       -4 0.15050439E-02 0.12499997E+03</pdfrwt>
<totfact> 0.63679105E+03</totfact>
</mgrwt>
</event>
<event>
 5    1  0.3276024E-002  0.1249808E+03  0.7818608E-02  0.1235099E+00
         -4   -1    0    0    0  501 -0.00000000000E+00  0.00000000000E+00  0.44650452606E+03  0.44650633219E+03  0.12700000000E+01 0. -1.
          4   -1    0    0  501    0  0.00000000000E+00 -0.00000000000E+00 -0.86978821163E+01  0.87901111090E+01  0.12700000000E+01 0. -1.
         25    2    1    2    0    0  0.00000000000E+00  0.00000000000E+00  0.43780664394E+03  0.45529644330E+03  0.12498077374E+03 0.  0.
    9000005    1    3    3    0    0 -0.59177889478E+02  0.15657596437E+02  0.17327706960E+03  0.18377466033E+03  0.10000000000E+01 0.  0.
    9000005    1    3    3    0    0  0.59177889478E+02 -0.15657596437E+02  0.26452957434E+03  0.27152178298E+03  0.10000000000E+01 0.  0.
<mgrwt>
<rscale>  0 0.12498077E+03</rscale>
<asrwt>0</asrwt>
<pdfrwt beam="2">  1        4 0.13453690E-02 0.12498077E+03</pdfrwt>
<pdfrwt beam="1">  1       -4 0.68700247E-01 0.12498077E+03</pdfrwt>
<totfact> 0.59532892E+03</totfact>
</mgrwt>
</event>
<event>
 5    1  0.3276024E-002  0.1250032E+03  0.7818608E-02  0.1235064E+00
         -4   -1    0    0    0  501 -0.00000000000E+00  0.00000000000E+00  0.61448155805E+01  0.62746839377E+01  0.12700000000E+01 0.  1.
          4   -1    0    0  501    0  0.00000000000E+00 -0.00000000000E+00 -0.62895248763E+03  0.62895376984E+03  0.12700000000E+01 0.  1.
         25    2    1    2    0    0  0.00000000000E+00  0.00000000000E+00 -0.62280767205E+03  0.63522845377E+03  0.12500316846E+03 0.  0.
    9000005    1    3    3    0    0 -0.24166229572E+02 -0.37214964064E+02 -0.53502675284E+03  0.53686458857E+03  0.10000000000E+01 0.  0.
    9000005    1    3    3    0    0  0.24166229572E+02  0.37214964064E+02 -0.87780919205E+02  0.98363865207E+02  0.10000000000E+01 0.  0.
<mgrwt>
<rscale>  0 0.12500317E+03</rscale>
<asrwt>0</asrwt>
<pdfrwt beam="2">  1        4 0.96771960E-01 0.12500317E+03</pdfrwt>
<pdfrwt beam="1">  1       -4 0.95544524E-03 0.12500317E+03</pdfrwt>
<totfact> 0.46713586E+03</totfact>
</mgrwt>
</event>
<event>
 5    1  0.3276024E-002  0.1250421E+03  0.7818608E-02  0.1235004E+00
          4   -1    0    0  501    0  0.00000000000E+00  0.00000000000E+00  0.26311364633E+03  0.26311671134E+03  0.12700000000E+01 0.  1.
         -4   -1    0    0    0  501 -0.00000000000E+00 -0.00000000000E+00 -0.14825947158E+02  0.14880242240E+02  0.12700000000E+01 0.  1.
         25    2    1    2    0    0  0.00000000000E+00  0.00000000000E+00  0.24828769917E+03  0.27799695358E+03  0.12504209147E+03 0.  0.
    9000005    1    3    3    0    0 -0.23226154301E+02  0.39780687959E+02  0.21809784815E+03  0.22291170616E+03  0.10000000000E+01 0.  0.
    9000005    1    3    3    0    0  0.23226154301E+02 -0.39780687959E+02  0.30189851030E+02  0.55085247420E+02  0.10000000000E+01 0.  0.
<mgrwt>
<rscale>  0 0.12504209E+03</rscale>
<asrwt>0</asrwt>
<pdfrwt beam="1">  1        4 0.40483428E-01 0.12504209E+03</pdfrwt>
<pdfrwt beam="2">  1       -4 0.22853276E-02 0.12504209E+03</pdfrwt>
<totfact> 0.78371091E+03</totfact>
</mgrwt>
</event>
<event>
 5    1  0.3276024E-002  0.1249929E+03  0.7818608E-02  0.1235080E+00
         -4   -1    0    0    0  501 -0.00000000000E+00  0.00000000000E+00  0.53232612606E+03  0.53232764101E+03  0.12700000000E+01 0. -1.
          4   -1    0    0  501    0  0.00000000000E+00 -0.00000000000E+00 -0.72807520476E+01  0.73906867325E+01  0.12700000000E+01 0. -1.
         25    2    1    2    0    0  0.00000000000E+00  0.00000000000E+00  0.52504537401E+03  0.53971832774E+03  0.12499291393E+03 0.  0.
    9000005    1    3    3    0    0 -0.49974620321E+02  0.32112935135E+02  0.17878216476E+03  0.18839523803E+03  0.10000000000E+01 0.  0.
    9000005    1    3    3    0    0  0.49974620321E+02 -0.32112935135E+02  0.34626320925E+03  0.35132308971E+03  0.10000000000E+01 0.  0.
<mgrwt>
<rscale>  0 0.12499291E+03</rscale>
<asrwt>0</asrwt>
<pdfrwt beam="2">  1        4 0.11286888E-02 0.12499291E+03</pdfrwt>
<pdfrwt beam="1">  1       -4 0.81904896E-01 0.12499291E+03</pdfrwt>
<totfact> 0.52917474E+03</totfact>
</mgrwt>
</event>
<event>
 5    1  0.3276024E-002  0.1249989E+03  0.7818608E-02  0.1235071E+00
         -4   -1    0    0    0  501 -0.00000000000E+00  0.00000000000E+00  0.50333643933E+01  0.51911132829E+01  0.12700000000E+01 0. -1.
          4   -1    0    0  501    0  0.00000000000E+00 -0.00000000000E+00 -0.76392626195E+03  0.76392731762E+03  0.12700000000E+01 0. -1.
         25    2    1    2    0    0  0.00000000000E+00  0.00000000000E+00 -0.75889289756E+03  0.76911843090E+03  0.12499892313E+03 0.  0.
    9000005    1    3    3    0    0  0.45393023819E+01  0.39025011659E+01  0.32953008690E+01  0.69060690180E+01  0.10000000000E+01 0.  0.
    9000005    1    3    3    0    0 -0.45393023819E+01 -0.39025011659E+01 -0.76218819843E+03  0.76221236188E+03  0.10000000000E+01 0.  0.
<mgrwt>
<rscale>  0 0.12499892E+03</rscale>
<asrwt>0</asrwt>
<pdfrwt beam="2">  1        4 0.11753924E+00 0.12499892E+03</pdfrwt>
<pdfrwt beam="1">  1       -4 0.78658009E-03 0.12499892E+03</pdfrwt>
<totfact> 0.39676923E+03</totfact>
</mgrwt>
</event>
<event>
 5    1  0.3276024E-002  0.1249946E+03  0.7818608E-02  0.1235078E+00
         -4   -1    0    0    0  501 -0.00000000000E+00  0.00000000000E+00  0.13318485038E+02  0.13378899197E+02  0.12700000000E+01 0.  1.
          4   -1    0    0  501    0  0.00000000000E+00 -0.00000000000E+00 -0.29254473183E+03  0.29254748849E+03  0.12700000000E+01 0.  1.
         25    2    1    2    0    0  0.00000000000E+00  0.00000000000E+00 -0.27922624679E+03  0.30592638768E+03  0.12499463102E+03 0.  0.
    9000005    1    3    3    0    0 -0.33427974445E+02 -0.50957333127E+02 -0.10580237457E+03  0.12210332403E+03  0.10000000000E+01 0.  0.
    9000005    1    3    3    0    0  0.33427974445E+02  0.50957333127E+02 -0.17342387222E+03  0.18382306365E+03  0.10000000000E+01 0.  0.
<mgrwt>
<rscale>  0 0.12499463E+03</rscale>
<asrwt>0</asrwt>
<pdfrwt beam="2">  1        4 0.45011736E-01 0.12499463E+03</pdfrwt>
<pdfrwt beam="1">  1       -4 0.20538572E-02 0.12499463E+03</pdfrwt>
<totfact> 0.74870328E+03</totfact>
</mgrwt>
</event>
<event>
 5    1  0.3276024E-002  0.1250085E+03  0.7818608E-02  0.1235056E+00
          4   -1    0    0  501    0  0.00000000000E+00  0.00000000000E+00  0.12905873085E+04  0.12905879334E+04  0.12700000000E+01 0.  1.
         -4   -1    0    0    0  501 -0.00000000000E+00 -0.00000000000E+00 -0.28932785045E+01  0.31597405755E+01  0.12700000000E+01 0.  1.
         25    2    1    2    0    0  0.00000000000E+00  0.00000000000E+00  0.12876940300E+04  0.12937476740E+04  0.12500851553E+03 0.  0.
    9000005    1    3    3    0    0 -0.23611068786E+01  0.55792369138E+02  0.35343611173E+03  0.35782181090E+03  0.10000000000E+01 0.  0.
    9000005    1    3    3    0    0  0.23611068786E+01 -0.55792369138E+02  0.93425791831E+03  0.93592586310E+03  0.10000000000E+01 0.  0.
<mgrwt>
<rscale>  0 0.12500852E+03</rscale>
<asrwt>0</asrwt>
<pdfrwt beam="1">  1        4 0.19857185E+00 0.12500852E+03</pdfrwt>
<pdfrwt beam="2">  1       -4 0.46566631E-03 0.12500852E+03</pdfrwt>
<totfact> 0.22372495E+03</totfact>
</mgrwt>
</event>
<event>
 5    1  0.3276024E-002  0.1250001E+03  0.7818608E-02  0.1235069E+00
         -4   -1    0    0    0  501 -0.00000000000E+00  0.00000000000E+00  0.25202144717E+02  0.25234123689E+02  0.12700000000E+01 0.  1.
          4   -1    0    0  501    0  0.00000000000E+00 -0.00000000000E+00 -0.15486413346E+03  0.15486934084E+03  0.12700000000E+01 0.  1.
         25    2    1    2    0    0  0.00000000000E+00  0.00000000000E+00 -0.12966198874E+03  0.18010346453E+03  0.12500010644E+03 0.  0.
    9000005    1    3    3    0    0  0.16462567291E+02  0.58998742190E+02 -0.82675672656E+02  0.10289866156E+03  0.10000000000E+01 0.  0.
    9000005    1    3    3    0    0 -0.16462567291E+02 -0.58998742190E+02 -0.46986316082E+02  0.77204802965E+02  0.10000000000E+01 0.  0.
<mgrwt>
<rscale>  0 0.12500011E+03</rscale>
<asrwt>0</asrwt>
<pdfrwt beam="2">  1        4 0.23828111E-01 0.12500011E+03</pdfrwt>
<pdfrwt beam="1">  1       -4 0.38801136E-02 0.12500011E+03</pdfrwt>
<totfact> 0.93598159E+03</totfact>
</mgrwt>
</event>
<event>
 5    1  0.3276024E-002  0.1249960E+03  0.7818608E-02  0.1235076E+00
         -4   -1    0    0    0  501 -0.00000000000E+00  0.00000000000E+00  0.43744343440E+02  0.43762775083E+02  0.12700000000E+01 0. -1.
          4   -1    0    0  501    0  0.00000000000E+00 -0.00000000000E+00 -0.89249766150E+02  0.89258801570E+02  0.12700000000E+01 0. -1.
         25    2    1    2    0    0  0.00000000000E+00  0.00000000000E+00 -0.45505422710E+02  0.13302157665E+03  0.12499598537E+03 0.  0.
    9000005    1    3    3    0    0 -0.30977571927E+02 -0.15358087924E+01 -0.80485615175E+02  0.86260668449E+02  0.10000000000E+01 0.  0.
    9000005    1    3    3    0    0  0.30977571927E+02  0.15358087924E+01  0.34980192466E+02  0.46760908204E+02  0.10000000000E+01 0.  0.
<mgrwt>
<rscale>  0 0.12499599E+03</rscale>
<asrwt>0</asrwt>
<pdfrwt beam="2">  1        4 0.13732846E-01 0.12499599E+03</pdfrwt>
<pdfrwt beam="1">  1       -4 0.67320118E-02 0.12499599E+03</pdfrwt>
<totfact> 0.10280872E+04</totfact>
</mgrwt>
</event>
<event>
 5    1  0.3276024E-002  0.1249853E+03  0.7818608E-02  0.1235092E+00
          4   -1    0    0  501    0  0.00000000000E+00  0.00000000000E+00  0.36230541457E+02  0.36252793468E+02  0.12700000000E+01 0.  1.
         -4   -1    0    0    0  501 -0.00000000000E+00 -0.00000000000E+00 -0.10773201033E+03  0.10773949578E+03  0.12700000000E+01 0.  1.
         25    2    1    2    0    0  0.00000000000E+00  0.00000000000E+00 -0.71501468874E+02  0.14399228924E+03  0.12498527637E+03 0.  0.
    9000005    1    3    3    0    0 -0.12601740020E+02  0.58541296787E+02 -0.15192021351E+02  0.61787416144E+02  0.10000000000E+01 0.  0.
    9000005    1    3    3    0    0  0.12601740020E+02 -0.58541296787E+02 -0.56309447523E+02  0.82204873100E+02  0.10000000000E+01 0.  0.
<mgrwt>
<rscale>  0 0.12498528E+03</rscale>
<asrwt>0</asrwt>
<pdfrwt beam="1">  1        4 0.55762170E-02 0.12498528E+03</pdfrwt>
<pdfrwt beam="2">  1       -4 0.16576443E-01 0.12498528E+03</pdfrwt>
<totfact> 0.10054837E+04</totfact>
</mgrwt>
</event>
<event>
 5    1  0.3276024E-002  0.1249966E+03  0.7818608E-02  0.1235075E+00
          4   -1    0    0  501    0  0.00000000000E+00  0.00000000000E+00  0.23138088788E+02  0.23172916363E+02  0.12700000000E+01 0. -1.
         -4   -1    0    0    0  501 -0.00000000000E+00 -0.00000000000E+00 -0.16865008329E+03  0.16865486502E+03  0.12700000000E+01 0. -1.
         25    2    1    2    0    0  0.00000000000E+00  0.00000000000E+00 -0.14551199450E+03  0.19182778138E+03  0.12499662861E+03 0.  0.
    9000005    1    3    3    0    0  0.59304693202E+02 -0.19465455024E+02 -0.77382624099E+02  0.99423443349E+02  0.10000000000E+01 0.  0.
    9000005    1    3    3    0    0 -0.59304693202E+02  0.19465455024E+02 -0.68129370402E+02  0.92404338029E+02  0.10000000000E+01 0.  0.
<mgrwt>
<rscale>  0 0.12499663E+03</rscale>
<asrwt>0</asrwt>
<pdfrwt beam="1">  1        4 0.35627529E-02 0.12499663E+03</pdfrwt>
<pdfrwt beam="2">  1       -4 0.25949213E-01 0.12499663E+03</pdfrwt>
<totfact> 0.91537168E+03</totfact>
</mgrwt>
</event>
<event>
 5    1  0.3276024E-002  0.1249955E+03  0.7818608E-02  0.1235076E+00
          4   -1    0    0  501    0  0.00000000000E+00  0.00000000000E+00  0.63413187862E+02  0.63425903973E+02  0.12700000000E+01 0.  1.
         -4   -1    0    0    0  501 -0.00000000000E+00 -0.00000000000E+00 -0.61570109643E+02  0.61583206326E+02  0.12700000000E+01 0.  1.
         25    2    1    2    0    0  0.00000000000E+00  0.00000000000E+00  0.18430782191E+01  0.12500911030E+03  0.12499552280E+03 0.  0.
    9000005    1    3    3    0    0 -0.63036734674E+00 -0.44286592238E+02  0.45008873686E+02  0.63154559024E+02  0.10000000000E+01 0.  0.
    9000005    1    3    3    0    0  0.63036734674E+00  0.44286592238E+02 -0.43165795467E+02  0.61854551275E+02  0.10000000000E+01 0.  0.
<mgrwt>
<rscale>  0 0.12499552E+03</rscale>
<asrwt>0</asrwt>
<pdfrwt beam="1">  1        4 0.97578607E-02 0.12499552E+03</pdfrwt>
<pdfrwt beam="2">  1       -4 0.94743101E-02 0.12499552E+03</pdfrwt>
<totfact> 0.10453722E+04</totfact>
</mgrwt>
</event>
<event>
 5    1  0.3276024E-002  0.1250045E+03  0.7818608E-02  0.1235062E+00
          4   -1    0    0  501    0  0.00000000000E+00  0.00000000000E+00  0.97011172101E+02  0.97019484705E+02  0.12700000000E+01 0. -1.
         -4   -1    0    0    0  501 -0.00000000000E+00 -0.00000000000E+00 -0.40248795396E+02  0.40268827035E+02  0.12700000000E+01 0. -1.
         25    2    1    2    0    0  0.00000000000E+00  0.00000000000E+00  0.56762376705E+02  0.13728831174E+03  0.12500445245E+03 0.  0.
    9000005    1    3    3    0    0  0.57048149526E+02  0.20809779110E+01  0.56310593009E+02  0.80191674870E+02  0.10000000000E+01 0.  0.
    9000005    1    3    3    0    0 -0.57048149526E+02 -0.20809779110E+01  0.45178369616E+00  0.57096636870E+02  0.10000000000E+01 0.  0.
<mgrwt>
<rscale>  0 0.12500445E+03</rscale>
<asrwt>0</asrwt>
<pdfrwt beam="1">  1        4 0.14926976E-01 0.12500445E+03</pdfrwt>
<pdfrwt beam="2">  1       -4 0.61943028E-02 0.12500445E+03</pdfrwt>
<totfact> 0.10189038E+04</totfact>
</mgrwt>
</event>
<event>
 5    1  0.3276024E-002  0.1250024E+03  0.7818608E-02  0.1235066E+00
         -4   -1    0    0    0  501 -0.00000000000E+00  0.00000000000E+00  0.28990520613E+03  0.28990798789E+03  0.12700000000E+01 0.  1.
          4   -1    0    0  501    0  0.00000000000E+00 -0.00000000000E+00 -0.13441971598E+02  0.13501833225E+02  0.12700000000E+01 0.  1.
         25    2    1    2    0    0  0.00000000000E+00  0.00000000000E+00  0.27646323453E+03  0.30340982112E+03  0.12500239798E+03 0.  0.
    9000005    1    3    3    0    0 -0.52516951019E+02 -0.33104670871E+02  0.12082132433E+03  0.13584086936E+03  0.10000000000E+01 0.  0.
    9000005    1    3    3    0    0  0.52516951019E+02  0.33104670871E+02  0.15564191021E+03  0.16756895175E+03  0.10000000000E+01 0.  0.
<mgrwt>
<rscale>  0 0.12500240E+03</rscale>
<asrwt>0</asrwt>
<pdfrwt beam="2">  1        4 0.20728145E-02 0.12500240E+03</pdfrwt>
<pdfrwt beam="1">  1       -4 0.44605616E-01 0.12500240E+03</pdfrwt>
<totfact> 0.75169099E+03</totfact>
</mgrwt>
</event>
<event>
 5    1  0.3276024E-002  0.1250021E+03  0.7818608E-02  0.1235066E+00
         -4   -1    0    0    0  501 -0.00000000000E+00  0.00000000000E+00  0.10399746462E+02  0.10477004651E+02  0.12700000000E+01 0.  1.
          4   -1    0    0  501    0  0.00000000000E+00 -0.00000000000E+00 -0.37415422714E+03  0.37415638253E+03  0.12700000000E+01 0.  1.
         25    2    1    2    0    0  0.00000000000E+00  0.00000000000E+00 -0.36375448068E+03  0.38463338718E+03  0.12500208126E+03 0.  0.
    9000005    1    3    3    0    0 -0.51986984006E+01 -0.62260329159E+02 -0.17752021638E+03  0.18819618029E+03  0.10000000000E+01 0.  0.
    9000005    1    3    3    0    0  0.51986984006E+01  0.62260329159E+02 -0.18623426429E+03  0.19643720688E+03  0.10000000000E+01 0.  0.
<mgrwt>
<rscale>  0 0.12500208E+03</rscale>
<asrwt>0</asrwt>
<pdfrwt beam="2">  1        4 0.57568287E-01 0.12500208E+03</pdfrwt>
<pdfrwt beam="1">  1       -4 0.16060700E-02 0.12500208E+03</pdfrwt>
<totfact> 0.66072246E+03</totfact>
</mgrwt>
</event>
<event>
 5    1  0.3276024E-002  0.1249997E+03  0.7818608E-02  0.1235070E+00
          4   -1    0    0  501    0  0.00000000000E+00  0.00000000000E+00  0.77792017317E+02  0.77802383371E+02  0.12700000000E+01 0. -1.
         -4   -1    0    0    0  501 -0.00000000000E+00 -0.00000000000E+00 -0.50192045342E+02  0.50208110058E+02  0.12700000000E+01 0. -1.
         25    2    1    2    0    0  0.00000000000E+00  0.00000000000E+00  0.27599971975E+02  0.12801049343E+03  0.12499971190E+03 0.  0.
    9000005    1    3    3    0    0 -0.17656898951E+02 -0.43922417628E+01  0.75024368379E+02  0.77205658594E+02  0.10000000000E+01 0.  0.
    9000005    1    3    3    0    0  0.17656898951E+02  0.43922417628E+01 -0.47424396404E+02  0.50804834835E+02  0.10000000000E+01 0.  0.
<mgrwt>
<rscale>  0 0.12499971E+03</rscale>
<asrwt>0</asrwt>
<pdfrwt beam="1">  1        4 0.11970036E-01 0.12499971E+03</pdfrwt>
<pdfrwt beam="2">  1       -4 0.77238863E-02 0.12499971E+03</pdfrwt>
<totfact> 0.10387328E+04</totfact>
</mgrwt>
</event>
<event>
 5    1  0.3276024E-002  0.1250036E+03  0.7818608E-02  0.1235064E+00
         -4   -1    0    0    0  501 -0.00000000000E+00  0.00000000000E+00  0.56666354646E+02  0.56680584408E+02  0.12700000000E+01 0.  1.
          4   -1    0    0  501    0  0.00000000000E+00 -0.00000000000E+00 -0.68909440886E+02  0.68921142934E+02  0.12700000000E+01 0.  1.
         25    2    1    2    0    0  0.00000000000E+00  0.00000000000E+00 -0.12243086241E+02  0.12560172734E+03  0.12500360295E+03 0.  0.
    9000005    1    3    3    0    0 -0.32381747394E+02  0.11676143179E+02  0.46287068995E+02  0.57692310059E+02  0.10000000000E+01 0.  0.
    9000005    1    3    3    0    0  0.32381747394E+02 -0.11676143179E+02 -0.58530155235E+02  0.67909417283E+02  0.10000000000E+01 0.  0.
<mgrwt>
<rscale>  0 0.12500360E+03</rscale>
<asrwt>0</asrwt>
<pdfrwt beam="2">  1        4 0.10603447E-01 0.12500360E+03</pdfrwt>
<pdfrwt beam="1">  1       -4 0.87198955E-02 0.12500360E+03</pdfrwt>
<totfact> 0.10438860E+04</totfact>
</mgrwt>
</event>
<event>
 5    1  0.3276024E-002  0.1249997E+03  0.7818608E-02  0.1235070E+00
         -4   -1    0    0    0  501 -0.00000000000E+00  0.00000000000E+00  0.10271852858E+03  0.10272637935E+03  0.12700000000E+01 0. -1.
          4   -1    0    0  501    0  0.00000000000E+00 -0.00000000000E+00 -0.38008561656E+02  0.38029773326E+02  0.12700000000E+01 0. -1.
         25    2    1    2    0    0  0.00000000000E+00  0.00000000000E+00  0.64709966925E+02  0.14075615267E+03  0.12499965878E+03 0.  0.
    9000005    1    3    3    0    0  0.14584651663E+02 -0.22623842077E+02 -0.31151554583E+02  0.41182152049E+02  0.10000000000E+01 0.  0.
    9000005    1    3    3    0    0 -0.14584651663E+02  0.22623842077E+02  0.95861521508E+02  0.99574000624E+02  0.10000000000E+01 0.  0.
<mgrwt>
<rscale>  0 0.12499966E+03</rscale>
<asrwt>0</asrwt>
<pdfrwt beam="2">  1        4 0.58497066E-02 0.12499966E+03</pdfrwt>
<pdfrwt beam="1">  1       -4 0.15805086E-01 0.12499966E+03</pdfrwt>
<totfact> 0.10118016E+04</totfact>
</mgrwt>
</event>
<event>
 5    1  0.3276024E-002  0.1250030E+03  0.7818608E-02  0.1235065E+00
          4   -1    0    0  501    0  0.00000000000E+00  0.00000000000E+00  0.18147121096E+02  0.18191506372E+02  0.12700000000E+01 0. -1.
         -4   -1    0    0    0  501 -0.00000000000E+00 -0.00000000000E+00 -0.21495552753E+03  0.21495927921E+03  0.12700000000E+01 0. -1.
         25    2    1    2    0    0  0.00000000000E+00  0.00000000000E+00 -0.19680840644E+03  0.23315078558E+03  0.12500295985E+03 0.  0.
    9000005    1    3    3    0    0  0.56867057120E+02 -0.21407976368E+02 -0.71165724337E+02  0.93582711854E+02  0.10000000000E+01 0.  0.
    9000005    1    3    3    0    0 -0.56867057120E+02  0.21407976368E+02 -0.12564268210E+03  0.13956807372E+03  0.10000000000E+01 0.  0.
<mgrwt>
<rscale>  0 0.12500296E+03</rscale>
<asrwt>0</asrwt>
<pdfrwt beam="1">  1        4 0.27955678E-02 0.12500296E+03</pdfrwt>
<pdfrwt beam="2">  1       -4 0.33073782E-01 0.12500296E+03</pdfrwt>
<totfact> 0.84822528E+03</totfact>
</mgrwt>
</event>
<event>
 5    1  0.3276024E-002  0.1249983E+03  0.7818608E-02  0.1235072E+00
          4   -1    0    0  501    0  0.00000000000E+00  0.00000000000E+00  0.60644670695E+02  0.60657967191E+02  0.12700000000E+01 0.  1.
         -4   -1    0    0    0  501 -0.00000000000E+00 -0.00000000000E+00 -0.64383749967E+02  0.64396274424E+02  0.12700000000E+01 0.  1.
         25    2    1    2    0    0  0.00000000000E+00  0.00000000000E+00 -0.37390792712E+01  0.12505424162E+03  0.12499833052E+03 0.  0.
    9000005    1    3    3    0    0  0.61751211252E+02 -0.66950636573E+01 -0.87362595847E+01  0.62732433398E+02  0.10000000000E+01 0.  0.
    9000005    1    3    3    0    0 -0.61751211252E+02  0.66950636573E+01  0.49971803134E+01  0.62321808218E+02  0.10000000000E+01 0.  0.
<mgrwt>
<rscale>  0 0.12499833E+03</rscale>
<asrwt>0</asrwt>
<pdfrwt beam="1">  1        4 0.93319356E-02 0.12499833E+03</pdfrwt>
<pdfrwt beam="2">  1       -4 0.99071785E-02 0.12499833E+03</pdfrwt>
<totfact> 0.10452079E+04</totfact>
</mgrwt>
</event>
<event>
 5    1  0.3276024E-002  0.1250002E+03  0.7818608E-02  0.1235069E+00
         -4   -1    0    0    0  501 -0.00000000000E+00  0.00000000000E+00  0.61802261658E+03  0.61802392146E+03  0.12700000000E+01 0.  1.
          4   -1    0    0  501    0  0.00000000000E+00 -0.00000000000E+00 -0.62554577163E+01  0.63830753748E+01  0.12700000000E+01 0.  1.
         25    2    1    2    0    0  0.00000000000E+00  0.00000000000E+00  0.61176715886E+03  0.62440699684E+03  0.12500016416E+03 0.  0.
    9000005    1    3    3    0    0 -0.60732707287E+02 -0.28869877624E+01  0.37800637148E+03  0.38286631258E+03  0.10000000000E+01 0.  0.
    9000005    1    3    3    0    0  0.60732707287E+02  0.28869877624E+01  0.23376078738E+03  0.24154068426E+03  0.10000000000E+01 0.  0.
<mgrwt>
<rscale>  0 0.12500016E+03</rscale>
<asrwt>0</asrwt>
<pdfrwt beam="2">  1        4 0.97229516E-03 0.12500016E+03</pdfrwt>
<pdfrwt beam="1">  1       -4 0.95090326E-01 0.12500016E+03</pdfrwt>
<totfact> 0.47362171E+03</totfact>
</mgrwt>
</event>
<event>
 4    1  0.3276024E-002  0.1257926E+03  0.7818608E-02  0.1233836E+00
         -4   -1    0    0    0  501 -0.00000000000E+00  0.00000000000E+00  0.28653577547E+02  0.28681708566E+02  0.12700000000E+01 0. -1.
          4   -1    0    0  501    0  0.00000000000E+00 -0.00000000000E+00 -0.13796239495E+03  0.13796824026E+03  0.12700000000E+01 0. -1.
    9000005    1    1    2    0    0  0.47940440523E+01  0.96738166141E+01  0.27423072538E+02  0.29488819809E+02  0.10000000000E+01 0.  0.
    9000005    1    1    2    0    0 -0.47940440523E+01 -0.96738166141E+01 -0.13673188994E+03  0.13716112902E+03  0.10000000000E+01 0.  0.
<mgrwt>
<rscale>  0 0.12579264E+03</rscale>
<asrwt>0</asrwt>
<pdfrwt beam="2">  1        4 0.21227597E-01 0.12579264E+03</pdfrwt>
<pdfrwt beam="1">  1       -4 0.44108563E-02 0.12579264E+03</pdfrwt>
<totfact> 0.94385181E+03</totfact>
</mgrwt>
</event>
