<event>
 4    1  0.2201588E-006  0.1300000E+05  0.7957747E-01  0.1322471E+00
    9000001   -1    0    0    0    0  0.00000000000E+00  0.00000000000E+00  0.64999999231E+04  0.65000000000E+04  0.10000000000E+01 0.  0.
    9000001   -1    0    0    0    0 -0.00000000000E+00 -0.00000000000E+00 -0.64999999231E+04  0.65000000000E+04  0.10000000000E+01 0.  0.
    9000001    1    1    2    0    0  0.25168665288E+04 -0.42887216593E+04  0.41859584810E+04  0.65000000000E+04  0.10000000000E+01 0.  0.
    9000001    1    1    2    0    0 -0.25168665288E+04  0.42887216593E+04 -0.41859584810E+04  0.65000000000E+04  0.10000000000E+01 0.  0.
</event>
<event>
 4    1  0.2201588E-006  0.1300000E+05  0.7957747E-01  0.1322471E+00
    9000001   -1    0    0    0    0  0.00000000000E+00  0.00000000000E+00  0.64999999231E+04  0.65000000000E+04  0.10000000000E+01 0.  0.
    9000001   -1    0    0    0    0 -0.00000000000E+00 -0.00000000000E+00 -0.64999999231E+04  0.65000000000E+04  0.10000000000E+01 0.  0.
    9000001    1    1    2    0    0  0.44810899180E+04 -0.32520901778E+04 -0.34049583878E+04  0.65000000000E+04  0.10000000000E+01 0.  0.
    9000001    1    1    2    0    0 -0.44810899180E+04  0.32520901778E+04  0.34049583878E+04  0.65000000000E+04  0.10000000000E+01 0.  0.
</event>
<event>
 4    1  0.2201588E-006  0.1300000E+05  0.7957747E-01  0.1322471E+00
    9000001   -1    0    0    0    0  0.00000000000E+00  0.00000000000E+00  0.64999999231E+04  0.65000000000E+04  0.10000000000E+01 0.  0.
    9000001   -1    0    0    0    0 -0.00000000000E+00 -0.00000000000E+00 -0.64999999231E+04  0.65000000000E+04  0.10000000000E+01 0.  0.
    9000001    1    1    2    0    0 -0.58288562538E+04  0.14405792149E+04  0.24898123018E+04  0.65000000000E+04  0.10000000000E+01 0.  0.
    9000001    1    1    2    0    0  0.58288562538E+04 -0.14405792149E+04 -0.24898123018E+04  0.65000000000E+04  0.10000000000E+01 0.  0.
</event>
<event>
 4    1  0.2201588E-006  0.1300000E+05  0.7957747E-01  0.1322471E+00
    9000001   -1    0    0    0    0  0.00000000000E+00  0.00000000000E+00  0.64999999231E+04  0.65000000000E+04  0.10000000000E+01 0.  0.
    9000001   -1    0    0    0    0 -0.00000000000E+00 -0.00000000000E+00 -0.64999999231E+04  0.65000000000E+04  0.10000000000E+01 0.  0.
    9000001    1    1    2    0    0  0.17562645642E+04  0.59166138393E+04 -0.20394152244E+04  0.65000000000E+04  0.10000000000E+01 0.  0.
    9000001    1    1    2    0    0 -0.17562645642E+04 -0.59166138393E+04  0.20394152244E+04  0.65000000000E+04  0.10000000000E+01 0.  0.
</event>
<event>
 4    1  0.2201588E-006  0.1300000E+05  0.7957747E-01  0.1322471E+00
    9000001   -1    0    0    0    0  0.00000000000E+00  0.00000000000E+00  0.64999999231E+04  0.65000000000E+04  0.10000000000E+01 0.  0.
    9000001   -1    0    0    0    0 -0.00000000000E+00 -0.00000000000E+00 -0.64999999231E+04  0.65000000000E+04  0.10000000000E+01 0.  0.
    9000001    1    1    2    0    0  0.31511526049E+04 -0.45130801816E+04  0.34572161540E+04  0.65000000000E+04  0.10000000000E+01 0.  0.
    9000001    1    1    2    0    0 -0.31511526049E+04  0.45130801816E+04 -0.34572161540E+04  0.65000000000E+04  0.10000000000E+01 0.  0.
</event>
<event>
 4    1  0.2201588E-006  0.1300000E+05  0.7957747E-01  0.1322471E+00
    9000001   -1    0    0    0    0  0.00000000000E+00  0.00000000000E+00  0.64999999231E+04  0.65000000000E+04  0.10000000000E+01 0.  0.
    9000001   -1    0    0    0    0 -0.00000000000E+00 -0.00000000000E+00 -0.64999999231E+04  0.65000000000E+04  0.10000000000E+01 0.  0.
    9000001    1    1    2    0    0  0.50286532965E+04  0.22727754124E+04  0.34346960488E+04  0.65000000000E+04  0.10000000000E+01 0.  0.
    9000001    1    1    2    0    0 -0.50286532965E+04 -0.22727754124E+04 -0.34346960488E+04  0.65000000000E+04  0.10000000000E+01 0.  0.
</event>
<event>
 4    1  0.2201588E-006  0.1300000E+05  0.7957747E-01  0.1322471E+00
    9000001   -1    0    0    0    0  0.00000000000E+00  0.00000000000E+00  0.64999999231E+04  0.65000000000E+04  0.10000000000E+01 0.  0.
    9000001   -1    0    0    0    0 -0.00000000000E+00 -0.00000000000E+00 -0.64999999231E+04  0.65000000000E+04  0.10000000000E+01 0.  0.
    9000001    1    1    2    0    0  0.50271096898E+04  0.54600787567E+03 -0.40841207825E+04  0.65000000000E+04  0.10000000000E+01 0.  0.
    9000001    1    1    2    0    0 -0.50271096898E+04 -0.54600787567E+03  0.40841207825E+04  0.65000000000E+04  0.10000000000E+01 0.  0.
</event>
<event>
 4    1  0.2201588E-006  0.1300000E+05  0.7957747E-01  0.1322471E+00
    9000001   -1    0    0    0    0  0.00000000000E+00  0.00000000000E+00  0.64999999231E+04  0.65000000000E+04  0.10000000000E+01 0.  0.
    9000001   -1    0    0    0    0 -0.00000000000E+00 -0.00000000000E+00 -0.64999999231E+04  0.65000000000E+04  0.10000000000E+01 0.  0.
    9000001    1    1    2    0    0 -0.35419337006E+03 -0.64610411406E+04 -0.61603038534E+03  0.65000000000E+04  0.10000000000E+01 0.  0.
    9000001    1    1    2    0    0  0.35419337006E+03  0.64610411406E+04  0.61603038534E+03  0.65000000000E+04  0.10000000000E+01 0.  0.
</event>
<event>
 4    1  0.2201588E-006  0.1300000E+05  0.7957747E-01  0.1322471E+00
    9000001   -1    0    0    0    0  0.00000000000E+00  0.00000000000E+00  0.64999999231E+04  0.65000000000E+04  0.10000000000E+01 0.  0.
    9000001   -1    0    0    0    0 -0.00000000000E+00 -0.00000000000E+00 -0.64999999231E+04  0.65000000000E+04  0.10000000000E+01 0.  0.
    9000001    1    1    2    0    0 -0.66200878408E+03  0.55213770388E+04 -0.33654329536E+04  0.65000000000E+04  0.10000000000E+01 0.  0.
    9000001    1    1    2    0    0  0.66200878408E+03 -0.55213770388E+04  0.33654329536E+04  0.65000000000E+04  0.10000000000E+01 0.  0.
</event>
<event>
 4    1  0.2201588E-006  0.1300000E+05  0.7957747E-01  0.1322471E+00
    9000001   -1    0    0    0    0  0.00000000000E+00  0.00000000000E+00  0.64999999231E+04  0.65000000000E+04  0.10000000000E+01 0.  0.
    9000001   -1    0    0    0    0 -0.00000000000E+00 -0.00000000000E+00 -0.64999999231E+04  0.65000000000E+04  0.10000000000E+01 0.  0.
    9000001    1    1    2    0    0 -0.92494448485E+03  0.19641303509E+04 -0.61267176094E+04  0.65000000000E+04  0.10000000000E+01 0.  0.
    9000001    1    1    2    0    0  0.92494448485E+03 -0.19641303509E+04  0.61267176094E+04  0.65000000000E+04  0.10000000000E+01 0.  0.
</event>
<event>
 4    1  0.2201588E-006  0.1300000E+05  0.7957747E-01  0.1322471E+00
    9000001   -1    0    0    0    0  0.00000000000E+00  0.00000000000E+00  0.64999999231E+04  0.65000000000E+04  0.10000000000E+01 0.  0.
    9000001   -1    0    0    0    0 -0.00000000000E+00 -0.00000000000E+00 -0.64999999231E+04  0.65000000000E+04  0.10000000000E+01 0.  0.
    9000001    1    1    2    0    0  0.24070593334E+04 -0.57576362916E+03  0.60103710875E+04  0.65000000000E+04  0.10000000000E+01 0.  0.
    9000001    1    1    2    0    0 -0.24070593334E+04  0.57576362916E+03 -0.60103710875E+04  0.65000000000E+04  0.10000000000E+01 0.  0.
</event>
<event>
 4    1  0.2201588E-006  0.1300000E+05  0.7957747E-01  0.1322471E+00
    9000001   -1    0    0    0    0  0.00000000000E+00  0.00000000000E+00  0.64999999231E+04  0.65000000000E+04  0.10000000000E+01 0.  0.
    9000001   -1    0    0    0    0 -0.00000000000E+00 -0.00000000000E+00 -0.64999999231E+04  0.65000000000E+04  0.10000000000E+01 0.  0.
    9000001    1    1    2    0    0 -0.45494368512E+04 -0.12290625444E+04  0.44768324292E+04  0.65000000000E+04  0.10000000000E+01 0.  0.
    9000001    1    1    2    0    0  0.45494368512E+04  0.12290625444E+04 -0.44768324292E+04  0.65000000000E+04  0.10000000000E+01 0.  0.
</event>
<event>
 4    1  0.2201588E-006  0.1300000E+05  0.7957747E-01  0.1322471E+00
    9000001   -1    0    0    0    0  0.00000000000E+00  0.00000000000E+00  0.64999999231E+04  0.65000000000E+04  0.10000000000E+01 0.  0.
    9000001   -1    0    0    0    0 -0.00000000000E+00 -0.00000000000E+00 -0.64999999231E+04  0.65000000000E+04  0.10000000000E+01 0.  0.
    9000001    1    1    2    0    0  0.56687471648E+04 -0.29847101625E+04  0.10985489643E+04  0.65000000000E+04  0.10000000000E+01 0.  0.
    9000001    1    1    2    0    0 -0.56687471648E+04  0.29847101625E+04 -0.10985489643E+04  0.65000000000E+04  0.10000000000E+01 0.  0.
</event>
<event>
 4    1  0.2201588E-006  0.1300000E+05  0.7957747E-01  0.1322471E+00
    9000001   -1    0    0    0    0  0.00000000000E+00  0.00000000000E+00  0.64999999231E+04  0.65000000000E+04  0.10000000000E+01 0.  0.
    9000001   -1    0    0    0    0 -0.00000000000E+00 -0.00000000000E+00 -0.64999999231E+04  0.65000000000E+04  0.10000000000E+01 0.  0.
    9000001    1    1    2    0    0  0.38482731648E+04 -0.35848188946E+04  0.38196683287E+04  0.65000000000E+04  0.10000000000E+01 0.  0.
    9000001    1    1    2    0    0 -0.38482731648E+04  0.35848188946E+04 -0.38196683287E+04  0.65000000000E+04  0.10000000000E+01 0.  0.
</event>
<event>
 4    1  0.2201588E-006  0.1300000E+05  0.7957747E-01  0.1322471E+00
    9000001   -1    0    0    0    0  0.00000000000E+00  0.00000000000E+00  0.64999999231E+04  0.65000000000E+04  0.10000000000E+01 0.  0.
    9000001   -1    0    0    0    0 -0.00000000000E+00 -0.00000000000E+00 -0.64999999231E+04  0.65000000000E+04  0.10000000000E+01 0.  0.
    9000001    1    1    2    0    0 -0.17660783623E+04  0.43643997305E+04  0.44814039329E+04  0.65000000000E+04  0.10000000000E+01 0.  0.
    9000001    1    1    2    0    0  0.17660783623E+04 -0.43643997305E+04 -0.44814039329E+04  0.65000000000E+04  0.10000000000E+01 0.  0.
</event>
<event>
 4    1  0.2201588E-006  0.1300000E+05  0.7957747E-01  0.1322471E+00
    9000001   -1    0    0    0    0  0.00000000000E+00  0.00000000000E+00  0.64999999231E+04  0.65000000000E+04  0.10000000000E+01 0.  0.
    9000001   -1    0    0    0    0 -0.00000000000E+00 -0.00000000000E+00 -0.64999999231E+04  0.65000000000E+04  0.10000000000E+01 0.  0.
    9000001    1    1    2    0    0 -0.25378487524E+04 -0.23519093370E+04 -0.55025307978E+04  0.65000000000E+04  0.10000000000E+01 0.  0.
    9000001    1    1    2    0    0  0.25378487524E+04  0.23519093370E+04  0.55025307978E+04  0.65000000000E+04  0.10000000000E+01 0.  0.
</event>
<event>
 4    1  0.2201588E-006  0.1300000E+05  0.7957747E-01  0.1322471E+00
    9000001   -1    0    0    0    0  0.00000000000E+00  0.00000000000E+00  0.64999999231E+04  0.65000000000E+04  0.10000000000E+01 0.  0.
    9000001   -1    0    0    0    0 -0.00000000000E+00 -0.00000000000E+00 -0.64999999231E+04  0.65000000000E+04  0.10000000000E+01 0.  0.
    9000001    1    1    2    0    0 -0.82631062137E+03  0.62319690054E+04 -0.16522021889E+04  0.65000000000E+04  0.10000000000E+01 0.  0.
    9000001    1    1    2    0    0  0.82631062137E+03 -0.62319690054E+04  0.16522021889E+04  0.65000000000E+04  0.10000000000E+01 0.  0.
</event>
<event>
 4    1  0.2201588E-006  0.1300000E+05  0.7957747E-01  0.1322471E+00
    9000001   -1    0    0    0    0  0.00000000000E+00  0.00000000000E+00  0.64999999231E+04  0.65000000000E+04  0.10000000000E+01 0.  0.
    9000001   -1    0    0    0    0 -0.00000000000E+00 -0.00000000000E+00 -0.64999999231E+04  0.65000000000E+04  0.10000000000E+01 0.  0.
    9000001    1    1    2    0    0 -0.50165136902E+02  0.47409845922E+04  0.44464083883E+04  0.65000000000E+04  0.10000000000E+01 0.  0.
    9000001    1    1    2    0    0  0.50165136902E+02 -0.47409845922E+04 -0.44464083883E+04  0.65000000000E+04  0.10000000000E+01 0.  0.
</event>
<event>
 4    1  0.2201588E-006  0.1300000E+05  0.7957747E-01  0.1322471E+00
    9000001   -1    0    0    0    0  0.00000000000E+00  0.00000000000E+00  0.64999999231E+04  0.65000000000E+04  0.10000000000E+01 0.  0.
    9000001   -1    0    0    0    0 -0.00000000000E+00 -0.00000000000E+00 -0.64999999231E+04  0.65000000000E+04  0.10000000000E+01 0.  0.
    9000001    1    1    2    0    0 -0.42794261195E+04 -0.31839604736E+04  0.37146879802E+04  0.65000000000E+04  0.10000000000E+01 0.  0.
    9000001    1    1    2    0    0  0.42794261195E+04  0.31839604736E+04 -0.37146879802E+04  0.65000000000E+04  0.10000000000E+01 0.  0.
</event>
<event>
 4    1  0.2201588E-006  0.1300000E+05  0.7957747E-01  0.1322471E+00
    9000001   -1    0    0    0    0  0.00000000000E+00  0.00000000000E+00  0.64999999231E+04  0.65000000000E+04  0.10000000000E+01 0.  0.
    9000001   -1    0    0    0    0 -0.00000000000E+00 -0.00000000000E+00 -0.64999999231E+04  0.65000000000E+04  0.10000000000E+01 0.  0.
    9000001    1    1    2    0    0 -0.54791491821E+04  0.25564792751E+04 -0.23860714484E+04  0.65000000000E+04  0.10000000000E+01 0.  0.
    9000001    1    1    2    0    0  0.54791491821E+04 -0.25564792751E+04  0.23860714484E+04  0.65000000000E+04  0.10000000000E+01 0.  0.
</event>
<event>
 4    1  0.2201588E-006  0.1300000E+05  0.7957747E-01  0.1322471E+00
    9000001   -1    0    0    0    0  0.00000000000E+00  0.00000000000E+00  0.64999999231E+04  0.65000000000E+04  0.10000000000E+01 0.  0.
    9000001   -1    0    0    0    0 -0.00000000000E+00 -0.00000000000E+00 -0.64999999231E+04  0.65000000000E+04  0.10000000000E+01 0.  0.
    9000001    1    1    2    0    0  0.58540872200E+04  0.11661287263E+04 -0.25728982907E+04  0.65000000000E+04  0.10000000000E+01 0.  0.
    9000001    1    1    2    0    0 -0.58540872200E+04 -0.11661287263E+04  0.25728982907E+04  0.65000000000E+04  0.10000000000E+01 0.  0.
</event>
<event>
 4    1  0.2201588E-006  0.1300000E+05  0.7957747E-01  0.1322471E+00
    9000001   -1    0    0    0    0  0.00000000000E+00  0.00000000000E+00  0.64999999231E+04  0.65000000000E+04  0.10000000000E+01 0.  0.
    9000001   -1    0    0    0    0 -0.00000000000E+00 -0.00000000000E+00 -0.64999999231E+04  0.65000000000E+04  0.10000000000E+01 0.  0.
    9000001    1    1    2    0    0 -0.39114542241E+04 -0.18944223249E+04  0.48333931050E+04  0.65000000000E+04  0.10000000000E+01 0.  0.
    9000001    1    1    2    0    0  0.39114542241E+04  0.18944223249E+04 -0.48333931050E+04  0.65000000000E+04  0.10000000000E+01 0.  0.
</event>
<event>
 4    1  0.2201588E-006  0.1300000E+05  0.7957747E-01  0.1322471E+00
    9000001   -1    0    0    0    0  0.00000000000E+00  0.00000000000E+00  0.64999999231E+04  0.65000000000E+04  0.10000000000E+01 0.  0.
    9000001   -1    0    0    0    0 -0.00000000000E+00 -0.00000000000E+00 -0.64999999231E+04  0.65000000000E+04  0.10000000000E+01 0.  0.
    9000001    1    1    2    0    0 -0.15742498212E+04  0.44345362674E+04  0.44840411008E+04  0.65000000000E+04  0.10000000000E+01 0.  0.
    9000001    1    1    2    0    0  0.15742498212E+04 -0.44345362674E+04 -0.44840411008E+04  0.65000000000E+04  0.10000000000E+01 0.  0.
</event>
<event>
 4    1  0.2201588E-006  0.1300000E+05  0.7957747E-01  0.1322471E+00
    9000001   -1    0    0    0    0  0.00000000000E+00  0.00000000000E+00  0.64999999231E+04  0.65000000000E+04  0.10000000000E+01 0.  0.
    9000001   -1    0    0    0    0 -0.00000000000E+00 -0.00000000000E+00 -0.64999999231E+04  0.65000000000E+04  0.10000000000E+01 0.  0.
    9000001    1    1    2    0    0  0.62751043438E+04  0.11595712875E+04 -0.12363085796E+04  0.65000000000E+04  0.10000000000E+01 0.  0.
    9000001    1    1    2    0    0 -0.62751043438E+04 -0.11595712875E+04  0.12363085796E+04  0.65000000000E+04  0.10000000000E+01 0.  0.
</event>
<event>
 4    1  0.2201588E-006  0.1300000E+05  0.7957747E-01  0.1322471E+00
    9000001   -1    0    0    0    0  0.00000000000E+00  0.00000000000E+00  0.64999999231E+04  0.65000000000E+04  0.10000000000E+01 0.  0.
    9000001   -1    0    0    0    0 -0.00000000000E+00 -0.00000000000E+00 -0.64999999231E+04  0.65000000000E+04  0.10000000000E+01 0.  0.
    9000001    1    1    2    0    0  0.38470051587E+03  0.48573715962E+04 -0.43020862020E+04  0.65000000000E+04  0.10000000000E+01 0.  0.
    9000001    1    1    2    0    0 -0.38470051587E+03 -0.48573715962E+04  0.43020862020E+04  0.65000000000E+04  0.10000000000E+01 0.  0.
</event>
<event>
 4    1  0.2201588E-006  0.1300000E+05  0.7957747E-01  0.1322471E+00
    9000001   -1    0    0    0    0  0.00000000000E+00  0.00000000000E+00  0.64999999231E+04  0.65000000000E+04  0.10000000000E+01 0.  0.
    9000001   -1    0    0    0    0 -0.00000000000E+00 -0.00000000000E+00 -0.64999999231E+04  0.65000000000E+04  0.10000000000E+01 0.  0.
    9000001    1    1    2    0    0  0.18273148243E+04  0.54088529697E+04  0.31072864503E+04  0.65000000000E+04  0.10000000000E+01 0.  0.
    9000001    1    1    2    0    0 -0.18273148243E+04 -0.54088529697E+04 -0.31072864503E+04  0.65000000000E+04  0.10000000000E+01 0.  0.
</event>
<event>
 4    1  0.2201588E-006  0.1300000E+05  0.7957747E-01  0.1322471E+00
    9000001   -1    0    0    0    0  0.00000000000E+00  0.00000000000E+00  0.64999999231E+04  0.65000000000E+04  0.10000000000E+01 0.  0.
    9000001   -1    0    0    0    0 -0.00000000000E+00 -0.00000000000E+00 -0.64999999231E+04  0.65000000000E+04  0.10000000000E+01 0.  0.
    9000001    1    1    2    0    0 -0.10833090661E+04  0.55832314512E+04  0.31470568837E+04  0.65000000000E+04  0.10000000000E+01 0.  0.
    9000001    1    1    2    0    0  0.10833090661E+04 -0.55832314512E+04 -0.31470568837E+04  0.65000000000E+04  0.10000000000E+01 0.  0.
</event>
<event>
 4    1  0.2201588E-006  0.1300000E+05  0.7957747E-01  0.1322471E+00
    9000001   -1    0    0    0    0  0.00000000000E+00  0.00000000000E+00  0.64999999231E+04  0.65000000000E+04  0.10000000000E+01 0.  0.
    9000001   -1    0    0    0    0 -0.00000000000E+00 -0.00000000000E+00 -0.64999999231E+04  0.65000000000E+04  0.10000000000E+01 0.  0.
    9000001    1    1    2    0    0  0.39799266327E+04 -0.41565007394E+04 -0.30221986370E+04  0.65000000000E+04  0.10000000000E+01 0.  0.
    9000001    1    1    2    0    0 -0.39799266327E+04  0.41565007394E+04  0.30221986370E+04  0.65000000000E+04  0.10000000000E+01 0.  0.
</event>
<event>
 4    1  0.2201588E-006  0.1300000E+05  0.7957747E-01  0.1322471E+00
    9000001   -1    0    0    0    0  0.00000000000E+00  0.00000000000E+00  0.64999999231E+04  0.65000000000E+04  0.10000000000E+01 0.  0.
    9000001   -1    0    0    0    0 -0.00000000000E+00 -0.00000000000E+00 -0.64999999231E+04  0.65000000000E+04  0.10000000000E+01 0.  0.
    9000001    1    1    2    0    0  0.20230994085E+04 -0.40800420922E+04  0.46379224130E+04  0.65000000000E+04  0.10000000000E+01 0.  0.
    9000001    1    1    2    0    0 -0.20230994085E+04  0.40800420922E+04 -0.46379224130E+04  0.65000000000E+04  0.10000000000E+01 0.  0.
</event>
<event>
 4    1  0.2201588E-006  0.1300000E+05  0.7957747E-01  0.1322471E+00
    9000001   -1    0    0    0    0  0.00000000000E+00  0.00000000000E+00  0.64999999231E+04  0.65000000000E+04  0.10000000000E+01 0.  0.
    9000001   -1    0    0    0    0 -0.00000000000E+00 -0.00000000000E+00 -0.64999999231E+04  0.65000000000E+04  0.10000000000E+01 0.  0.
    9000001    1    1    2    0    0  0.52614072025E+04 -0.38155614020E+04 -0.95312312496E+02  0.65000000000E+04  0.10000000000E+01 0.  0.
    9000001    1    1    2    0    0 -0.52614072025E+04  0.38155614020E+04  0.95312312496E+02  0.65000000000E+04  0.10000000000E+01 0.  0.
</event>
<event>
 4    1  0.2201588E-006  0.1300000E+05  0.7957747E-01  0.1322471E+00
    9000001   -1    0    0    0    0  0.00000000000E+00  0.00000000000E+00  0.64999999231E+04  0.65000000000E+04  0.10000000000E+01 0.  0.
    9000001   -1    0    0    0    0 -0.00000000000E+00 -0.00000000000E+00 -0.64999999231E+04  0.65000000000E+04  0.10000000000E+01 0.  0.
    9000001    1    1    2    0    0 -0.36949188970E+04 -0.46263372435E+04 -0.26822708763E+04  0.65000000000E+04  0.10000000000E+01 0.  0.
    9000001    1    1    2    0    0  0.36949188970E+04  0.46263372435E+04  0.26822708763E+04  0.65000000000E+04  0.10000000000E+01 0.  0.
</event>
<event>
 4    1  0.2201588E-006  0.1300000E+05  0.7957747E-01  0.1322471E+00
    9000001   -1    0    0    0    0  0.00000000000E+00  0.00000000000E+00  0.64999999231E+04  0.65000000000E+04  0.10000000000E+01 0.  0.
    9000001   -1    0    0    0    0 -0.00000000000E+00 -0.00000000000E+00 -0.64999999231E+04  0.65000000000E+04  0.10000000000E+01 0.  0.
    9000001    1    1    2    0    0 -0.10754305022E+04  0.53074578380E+04  0.35950437456E+04  0.65000000000E+04  0.10000000000E+01 0.  0.
    9000001    1    1    2    0    0  0.10754305022E+04 -0.53074578380E+04 -0.35950437456E+04  0.65000000000E+04  0.10000000000E+01 0.  0.
</event>
<event>
 4    1  0.2201588E-006  0.1300000E+05  0.7957747E-01  0.1322471E+00
    9000001   -1    0    0    0    0  0.00000000000E+00  0.00000000000E+00  0.64999999231E+04  0.65000000000E+04  0.10000000000E+01 0.  0.
    9000001   -1    0    0    0    0 -0.00000000000E+00 -0.00000000000E+00 -0.64999999231E+04  0.65000000000E+04  0.10000000000E+01 0.  0.
    9000001    1    1    2    0    0  0.19562777887E+04 -0.31042335527E+04 -0.53653248051E+04  0.65000000000E+04  0.10000000000E+01 0.  0.
    9000001    1    1    2    0    0 -0.19562777887E+04  0.31042335527E+04  0.53653248051E+04  0.65000000000E+04  0.10000000000E+01 0.  0.
</event>
<event>
 4    1  0.2201588E-006  0.1300000E+05  0.7957747E-01  0.1322471E+00
    9000001   -1    0    0    0    0  0.00000000000E+00  0.00000000000E+00  0.64999999231E+04  0.65000000000E+04  0.10000000000E+01 0.  0.
    9000001   -1    0    0    0    0 -0.00000000000E+00 -0.00000000000E+00 -0.64999999231E+04  0.65000000000E+04  0.10000000000E+01 0.  0.
    9000001    1    1    2    0    0 -0.34128162165E+03 -0.52724980958E+04  0.37860651982E+04  0.65000000000E+04  0.10000000000E+01 0.  0.
    9000001    1    1    2    0    0  0.34128162165E+03  0.52724980958E+04 -0.37860651982E+04  0.65000000000E+04  0.10000000000E+01 0.  0.
</event>
<event>
 4    1  0.2201588E-006  0.1300000E+05  0.7957747E-01  0.1322471E+00
    9000001   -1    0    0    0    0  0.00000000000E+00  0.00000000000E+00  0.64999999231E+04  0.65000000000E+04  0.10000000000E+01 0.  0.
    9000001   -1    0    0    0    0 -0.00000000000E+00 -0.00000000000E+00 -0.64999999231E+04  0.65000000000E+04  0.10000000000E+01 0.  0.
    9000001    1    1    2    0    0 -0.52772738486E+04 -0.18171750051E+04  0.33314043177E+04  0.65000000000E+04  0.10000000000E+01 0.  0.
    9000001    1    1    2    0    0  0.52772738486E+04  0.18171750051E+04 -0.33314043177E+04  0.65000000000E+04  0.10000000000E+01 0.  0.
</event>
<event>
 4    1  0.2201588E-006  0.1300000E+05  0.7957747E-01  0.1322471E+00
    9000001   -1    0    0    0    0  0.00000000000E+00  0.00000000000E+00  0.64999999231E+04  0.65000000000E+04  0.10000000000E+01 0.  0.
    9000001   -1    0    0    0    0 -0.00000000000E+00 -0.00000000000E+00 -0.64999999231E+04  0.65000000000E+04  0.10000000000E+01 0.  0.
    9000001    1    1    2    0    0 -0.21538433342E+04 -0.45734893929E+04  0.40858478514E+04  0.65000000000E+04  0.10000000000E+01 0.  0.
    9000001    1    1    2    0    0  0.21538433342E+04  0.45734893929E+04 -0.40858478514E+04  0.65000000000E+04  0.10000000000E+01 0.  0.
</event>
<event>
 4    1  0.2201588E-006  0.1300000E+05  0.7957747E-01  0.1322471E+00
    9000001   -1    0    0    0    0  0.00000000000E+00  0.00000000000E+00  0.64999999231E+04  0.65000000000E+04  0.10000000000E+01 0.  0.
    9000001   -1    0    0    0    0 -0.00000000000E+00 -0.00000000000E+00 -0.64999999231E+04  0.65000000000E+04  0.10000000000E+01 0.  0.
    9000001    1    1    2    0    0 -0.35665908171E+04  0.41841981795E+04 -0.34672632634E+04  0.65000000000E+04  0.10000000000E+01 0.  0.
    9000001    1    1    2    0    0  0.35665908171E+04 -0.41841981795E+04  0.34672632634E+04  0.65000000000E+04  0.10000000000E+01 0.  0.
</event>
<event>
 4    1  0.2201588E-006  0.1300000E+05  0.7957747E-01  0.1322471E+00
    9000001   -1    0    0    0    0  0.00000000000E+00  0.00000000000E+00  0.64999999231E+04  0.65000000000E+04  0.10000000000E+01 0.  0.
    9000001   -1    0    0    0    0 -0.00000000000E+00 -0.00000000000E+00 -0.64999999231E+04  0.65000000000E+04  0.10000000000E+01 0.  0.
    9000001    1    1    2    0    0  0.32756766013E+04  0.27162691551E+04 -0.49134329832E+04  0.65000000000E+04  0.10000000000E+01 0.  0.
    9000001    1    1    2    0    0 -0.32756766013E+04 -0.27162691551E+04  0.49134329832E+04  0.65000000000E+04  0.10000000000E+01 0.  0.
</event>
<event>
 4    1  0.2201588E-006  0.1300000E+05  0.7957747E-01  0.1322471E+00
    9000001   -1    0    0    0    0  0.00000000000E+00  0.00000000000E+00  0.64999999231E+04  0.65000000000E+04  0.10000000000E+01 0.  0.
    9000001   -1    0    0    0    0 -0.00000000000E+00 -0.00000000000E+00 -0.64999999231E+04  0.65000000000E+04  0.10000000000E+01 0.  0.
    9000001    1    1    2    0    0 -0.58319673109E+03 -0.81700606335E+03  0.64220231754E+04  0.65000000000E+04  0.10000000000E+01 0.  0.
    9000001    1    1    2    0    0  0.58319673109E+03  0.81700606335E+03 -0.64220231754E+04  0.65000000000E+04  0.10000000000E+01 0.  0.
</event>
<event>
 4    1  0.2201588E-006  0.1300000E+05  0.7957747E-01  0.1322471E+00
    9000001   -1    0    0    0    0  0.00000000000E+00  0.00000000000E+00  0.64999999231E+04  0.65000000000E+04  0.10000000000E+01 0.  0.
    9000001   -1    0    0    0    0 -0.00000000000E+00 -0.00000000000E+00 -0.64999999231E+04  0.65000000000E+04  0.10000000000E+01 0.  0.
    9000001    1    1    2    0    0 -0.47954229339E+04  0.42802311072E+04 -0.96619850663E+03  0.65000000000E+04  0.10000000000E+01 0.  0.
    9000001    1    1    2    0    0  0.47954229339E+04 -0.42802311072E+04  0.96619850663E+03  0.65000000000E+04  0.10000000000E+01 0.  0.
</event>
<event>
 4    1  0.2201588E-006  0.1300000E+05  0.7957747E-01  0.1322471E+00
    9000001   -1    0    0    0    0  0.00000000000E+00  0.00000000000E+00  0.64999999231E+04  0.65000000000E+04  0.10000000000E+01 0.  0.
    9000001   -1    0    0    0    0 -0.00000000000E+00 -0.00000000000E+00 -0.64999999231E+04  0.65000000000E+04  0.10000000000E+01 0.  0.
    9000001    1    1    2    0    0 -0.54808494129E+04  0.30478434510E+03 -0.34810049146E+04  0.65000000000E+04  0.10000000000E+01 0.  0.
    9000001    1    1    2    0    0  0.54808494129E+04 -0.30478434510E+03  0.34810049146E+04  0.65000000000E+04  0.10000000000E+01 0.  0.
</event>
<event>
 4    1  0.2201588E-006  0.1300000E+05  0.7957747E-01  0.1322471E+00
    9000001   -1    0    0    0    0  0.00000000000E+00  0.00000000000E+00  0.64999999231E+04  0.65000000000E+04  0.10000000000E+01 0.  0.
    9000001   -1    0    0    0    0 -0.00000000000E+00 -0.00000000000E+00 -0.64999999231E+04  0.65000000000E+04  0.10000000000E+01 0.  0.
    9000001    1    1    2    0    0 -0.23833730967E+04  0.62599600145E+03 -0.60147868365E+04  0.65000000000E+04  0.10000000000E+01 0.  0.
    9000001    1    1    2    0    0  0.23833730967E+04 -0.62599600145E+03  0.60147868365E+04  0.65000000000E+04  0.10000000000E+01 0.  0.
</event>
<event>
 4    1  0.2201588E-006  0.1300000E+05  0.7957747E-01  0.1322471E+00
    9000001   -1    0    0    0    0  0.00000000000E+00  0.00000000000E+00  0.64999999231E+04  0.65000000000E+04  0.10000000000E+01 0.  0.
    9000001   -1    0    0    0    0 -0.00000000000E+00 -0.00000000000E+00 -0.64999999231E+04  0.65000000000E+04  0.10000000000E+01 0.  0.
    9000001    1    1    2    0    0 -0.16046873716E+03  0.63358180613E+04 -0.14427953002E+04  0.65000000000E+04  0.10000000000E+01 0.  0.
    9000001    1    1    2    0    0  0.16046873716E+03 -0.63358180613E+04  0.14427953002E+04  0.65000000000E+04  0.10000000000E+01 0.  0.
</event>
<event>
 4    1  0.2201588E-006  0.1300000E+05  0.7957747E-01  0.1322471E+00
    9000001   -1    0    0    0    0  0.00000000000E+00  0.00000000000E+00  0.64999999231E+04  0.65000000000E+04  0.10000000000E+01 0.  0.
    9000001   -1    0    0    0    0 -0.00000000000E+00 -0.00000000000E+00 -0.64999999231E+04  0.65000000000E+04  0.10000000000E+01 0.  0.
    9000001    1    1    2    0    0  0.46524483458E+04 -0.19309341694E+02 -0.45392015310E+04  0.65000000000E+04  0.10000000000E+01 0.  0.
    9000001    1    1    2    0    0 -0.46524483458E+04  0.19309341694E+02  0.45392015310E+04  0.65000000000E+04  0.10000000000E+01 0.  0.
</event>
<event>
 4    1  0.2201588E-006  0.1300000E+05  0.7957747E-01  0.1322471E+00
    9000001   -1    0    0    0    0  0.00000000000E+00  0.00000000000E+00  0.64999999231E+04  0.65000000000E+04  0.10000000000E+01 0.  0.
    9000001   -1    0    0    0    0 -0.00000000000E+00 -0.00000000000E+00 -0.64999999231E+04  0.65000000000E+04  0.10000000000E+01 0.  0.
    9000001    1    1    2    0    0 -0.53567635193E+04 -0.43386422226E+03  0.36560696704E+04  0.65000000000E+04  0.10000000000E+01 0.  0.
    9000001    1    1    2    0    0  0.53567635193E+04  0.43386422226E+03 -0.36560696704E+04  0.65000000000E+04  0.10000000000E+01 0.  0.
</event>
<event>
 4    1  0.2201588E-006  0.1300000E+05  0.7957747E-01  0.1322471E+00
    9000001   -1    0    0    0    0  0.00000000000E+00  0.00000000000E+00  0.64999999231E+04  0.65000000000E+04  0.10000000000E+01 0.  0.
    9000001   -1    0    0    0    0 -0.00000000000E+00 -0.00000000000E+00 -0.64999999231E+04  0.65000000000E+04  0.10000000000E+01 0.  0.
    9000001    1    1    2    0    0  0.48806411884E+04 -0.90849657009E+02  0.42919793720E+04  0.65000000000E+04  0.10000000000E+01 0.  0.
    9000001    1    1    2    0    0 -0.48806411884E+04  0.90849657009E+02 -0.42919793720E+04  0.65000000000E+04  0.10000000000E+01 0.  0.
</event>
<event>
 4    1  0.2201588E-006  0.1300000E+05  0.7957747E-01  0.1322471E+00
    9000001   -1    0    0    0    0  0.00000000000E+00  0.00000000000E+00  0.64999999231E+04  0.65000000000E+04  0.10000000000E+01 0.  0.
    9000001   -1    0    0    0    0 -0.00000000000E+00 -0.00000000000E+00 -0.64999999231E+04  0.65000000000E+04  0.10000000000E+01 0.  0.
    9000001    1    1    2    0    0  0.26591142367E+04 -0.47081452593E+04 -0.36072813439E+04  0.65000000000E+04  0.10000000000E+01 0.  0.
    9000001    1    1    2    0    0 -0.26591142367E+04  0.47081452593E+04  0.36072813439E+04  0.65000000000E+04  0.10000000000E+01 0.  0.
</event>
<event>
 4    1  0.2201588E-006  0.1300000E+05  0.7957747E-01  0.1322471E+00
    9000001   -1    0    0    0    0  0.00000000000E+00  0.00000000000E+00  0.64999999231E+04  0.65000000000E+04  0.10000000000E+01 0.  0.
    9000001   -1    0    0    0    0 -0.00000000000E+00 -0.00000000000E+00 -0.64999999231E+04  0.65000000000E+04  0.10000000000E+01 0.  0.
    9000001    1    1    2    0    0  0.41248695570E+04  0.32961660868E+04 -0.37908757915E+04  0.65000000000E+04  0.10000000000E+01 0.  0.
    9000001    1    1    2    0    0 -0.41248695570E+04 -0.32961660868E+04  0.37908757915E+04  0.65000000000E+04  0.10000000000E+01 0.  0.
</event>
<event>
 4    1  0.2201588E-006  0.1300000E+05  0.7957747E-01  0.1322471E+00
    9000001   -1    0    0    0    0  0.00000000000E+00  0.00000000000E+00  0.64999999231E+04  0.65000000000E+04  0.10000000000E+01 0.  0.
    9000001   -1    0    0    0    0 -0.00000000000E+00 -0.00000000000E+00 -0.64999999231E+04  0.65000000000E+04  0.10000000000E+01 0.  0.
    9000001    1    1    2    0    0  0.39096879695E+04  0.51675023988E+04 -0.51113397349E+03  0.65000000000E+04  0.10000000000E+01 0.  0.
    9000001    1    1    2    0    0 -0.39096879695E+04 -0.51675023988E+04  0.51113397349E+03  0.65000000000E+04  0.10000000000E+01 0.  0.
</event>
<event>
 4    1  0.2201588E-006  0.1300000E+05  0.7957747E-01  0.1322471E+00
    9000001   -1    0    0    0    0  0.00000000000E+00  0.00000000000E+00  0.64999999231E+04  0.65000000000E+04  0.10000000000E+01 0.  0.
    9000001   -1    0    0    0    0 -0.00000000000E+00 -0.00000000000E+00 -0.64999999231E+04  0.65000000000E+04  0.10000000000E+01 0.  0.
    9000001    1    1    2    0    0  0.81390147251E+02 -0.48700858128E+04  0.43041420538E+04  0.65000000000E+04  0.10000000000E+01 0.  0.
    9000001    1    1    2    0    0 -0.81390147251E+02  0.48700858128E+04 -0.43041420538E+04  0.65000000000E+04  0.10000000000E+01 0.  0.
</event>
<event>
 4    1  0.2201588E-006  0.1300000E+05  0.7957747E-01  0.1322471E+00
    9000001   -1    0    0    0    0  0.00000000000E+00  0.00000000000E+00  0.64999999231E+04  0.65000000000E+04  0.10000000000E+01 0.  0.
    9000001   -1    0    0    0    0 -0.00000000000E+00 -0.00000000000E+00 -0.64999999231E+04  0.65000000000E+04  0.10000000000E+01 0.  0.
    9000001    1    1    2    0    0 -0.19995972290E+04  0.34970308380E+04  0.51012140946E+04  0.65000000000E+04  0.10000000000E+01 0.  0.
    9000001    1    1    2    0    0  0.19995972290E+04 -0.34970308380E+04 -0.51012140946E+04  0.65000000000E+04  0.10000000000E+01 0.  0.
</event>
<event>
 4    1  0.2201588E-006  0.1300000E+05  0.7957747E-01  0.1322471E+00
    9000001   -1    0    0    0    0  0.00000000000E+00  0.00000000000E+00  0.64999999231E+04  0.65000000000E+04  0.10000000000E+01 0.  0.
    9000001   -1    0    0    0    0 -0.00000000000E+00 -0.00000000000E+00 -0.64999999231E+04  0.65000000000E+04  0.10000000000E+01 0.  0.
    9000001    1    1    2    0    0  0.19568661229E+04 -0.35606677981E+04 -0.50736888758E+04  0.65000000000E+04  0.10000000000E+01 0.  0.
    9000001    1    1    2    0    0 -0.19568661229E+04  0.35606677981E+04  0.50736888758E+04  0.65000000000E+04  0.10000000000E+01 0.  0.
</event>
<event>
 4    1  0.2201588E-006  0.1300000E+05  0.7957747E-01  0.1322471E+00
    9000001   -1    0    0    0    0  0.00000000000E+00  0.00000000000E+00  0.64999999231E+04  0.65000000000E+04  0.10000000000E+01 0.  0.
    9000001   -1    0    0    0    0 -0.00000000000E+00 -0.00000000000E+00 -0.64999999231E+04  0.65000000000E+04  0.10000000000E+01 0.  0.
    9000001    1    1    2    0    0  0.16627713108E+04 -0.43117603554E+04 -0.45709860211E+04  0.65000000000E+04  0.10000000000E+01 0.  0.
    9000001    1    1    2    0    0 -0.16627713108E+04  0.43117603554E+04  0.45709860211E+04  0.65000000000E+04  0.10000000000E+01 0.  0.
</event>
<event>
 4    1  0.2201588E-006  0.1300000E+05  0.7957747E-01  0.1322471E+00
    9000001   -1    0    0    0    0  0.00000000000E+00  0.00000000000E+00  0.64999999231E+04  0.65000000000E+04  0.10000000000E+01 0.  0.
    9000001   -1    0    0    0    0 -0.00000000000E+00 -0.00000000000E+00 -0.64999999231E+04  0.65000000000E+04  0.10000000000E+01 0.  0.
    9000001    1    1    2    0    0  0.56916363285E+04 -0.31257168344E+04 -0.29183758413E+03  0.65000000000E+04  0.10000000000E+01 0.  0.
    9000001    1    1    2    0    0 -0.56916363285E+04  0.31257168344E+04  0.29183758413E+03  0.65000000000E+04  0.10000000000E+01 0.  0.
</event>
<event>
 4    1  0.2201588E-006  0.1300000E+05  0.7957747E-01  0.1322471E+00
    9000001   -1    0    0    0    0  0.00000000000E+00  0.00000000000E+00  0.64999999231E+04  0.65000000000E+04  0.10000000000E+01 0.  0.
    9000001   -1    0    0    0    0 -0.00000000000E+00 -0.00000000000E+00 -0.64999999231E+04  0.65000000000E+04  0.10000000000E+01 0.  0.
    9000001    1    1    2    0    0  0.37182835324E+04  0.44641186986E+04  0.29147917279E+04  0.65000000000E+04  0.10000000000E+01 0.  0.
    9000001    1    1    2    0    0 -0.37182835324E+04 -0.44641186986E+04 -0.29147917279E+04  0.65000000000E+04  0.10000000000E+01 0.  0.
</event>
<event>
 4    1  0.2201588E-006  0.1300000E+05  0.7957747E-01  0.1322471E+00
    9000001   -1    0    0    0    0  0.00000000000E+00  0.00000000000E+00  0.64999999231E+04  0.65000000000E+04  0.10000000000E+01 0.  0.
    9000001   -1    0    0    0    0 -0.00000000000E+00 -0.00000000000E+00 -0.64999999231E+04  0.65000000000E+04  0.10000000000E+01 0.  0.
    9000001    1    1    2    0    0  0.38511380258E+04 -0.30148788849E+04  0.42812661930E+04  0.65000000000E+04  0.10000000000E+01 0.  0.
    9000001    1    1    2    0    0 -0.38511380258E+04  0.30148788849E+04 -0.42812661930E+04  0.65000000000E+04  0.10000000000E+01 0.  0.
</event>
<event>
 4    1  0.2201588E-006  0.1300000E+05  0.7957747E-01  0.1322471E+00
    9000001   -1    0    0    0    0  0.00000000000E+00  0.00000000000E+00  0.64999999231E+04  0.65000000000E+04  0.10000000000E+01 0.  0.
    9000001   -1    0    0    0    0 -0.00000000000E+00 -0.00000000000E+00 -0.64999999231E+04  0.65000000000E+04  0.10000000000E+01 0.  0.
    9000001    1    1    2    0    0  0.11699079478E+04 -0.16137108856E+04  0.61868612051E+04  0.65000000000E+04  0.10000000000E+01 0.  0.
    9000001    1    1    2    0    0 -0.11699079478E+04  0.16137108856E+04 -0.61868612051E+04  0.65000000000E+04  0.10000000000E+01 0.  0.
</event>
<event>
 4    1  0.2201588E-006  0.1300000E+05  0.7957747E-01  0.1322471E+00
    9000001   -1    0    0    0    0  0.00000000000E+00  0.00000000000E+00  0.64999999231E+04  0.65000000000E+04  0.10000000000E+01 0.  0.
    9000001   -1    0    0    0    0 -0.00000000000E+00 -0.00000000000E+00 -0.64999999231E+04  0.65000000000E+04  0.10000000000E+01 0.  0.
    9000001    1    1    2    0    0  0.15874169458E+04  0.10925091858E+04  0.62077798060E+04  0.65000000000E+04  0.10000000000E+01 0.  0.
    9000001    1    1    2    0    0 -0.15874169458E+04 -0.10925091858E+04 -0.62077798060E+04  0.65000000000E+04  0.10000000000E+01 0.  0.
</event>
<event>
 4    1  0.2201588E-006  0.1300000E+05  0.7957747E-01  0.1322471E+00
    9000001   -1    0    0    0    0  0.00000000000E+00  0.00000000000E+00  0.64999999231E+04  0.65000000000E+04  0.10000000000E+01 0.  0.
    9000001   -1    0    0    0    0 -0.00000000000E+00 -0.00000000000E+00 -0.64999999231E+04  0.65000000000E+04  0.10000000000E+01 0.  0.
    9000001    1    1    2    0    0  0.89014582946E+02  0.11787371123E+04 -0.63916081094E+04  0.65000000000E+04  0.10000000000E+01 0.  0.
    9000001    1    1    2    0    0 -0.89014582946E+02 -0.11787371123E+04  0.63916081094E+04  0.65000000000E+04  0.10000000000E+01 0.  0.
</event>
<event>
 4    1  0.2201588E-006  0.1300000E+05  0.7957747E-01  0.1322471E+00
    9000001   -1    0    0    0    0  0.00000000000E+00  0.00000000000E+00  0.64999999231E+04  0.65000000000E+04  0.10000000000E+01 0.  0.
    9000001   -1    0    0    0    0 -0.00000000000E+00 -0.00000000000E+00 -0.64999999231E+04  0.65000000000E+04  0.10000000000E+01 0.  0.
    9000001    1    1    2    0    0  0.37657400274E+04  0.52203610882E+04  0.90389775713E+03  0.65000000000E+04  0.10000000000E+01 0.  0.
    9000001    1    1    2    0    0 -0.37657400274E+04 -0.52203610882E+04 -0.90389775713E+03  0.65000000000E+04  0.10000000000E+01 0.  0.
</event>
<event>
 4    1  0.2201588E-006  0.1300000E+05  0.7957747E-01  0.1322471E+00
    9000001   -1    0    0    0    0  0.00000000000E+00  0.00000000000E+00  0.64999999231E+04  0.65000000000E+04  0.10000000000E+01 0.  0.
    9000001   -1    0    0    0    0 -0.00000000000E+00 -0.00000000000E+00 -0.64999999231E+04  0.65000000000E+04  0.10000000000E+01 0.  0.
    9000001    1    1    2    0    0 -0.30255375881E+04  0.24242625776E+04 -0.52171900730E+04  0.65000000000E+04  0.10000000000E+01 0.  0.
    9000001    1    1    2    0    0  0.30255375881E+04 -0.24242625776E+04  0.52171900730E+04  0.65000000000E+04  0.10000000000E+01 0.  0.
</event>
<event>
 4    1  0.2201588E-006  0.1300000E+05  0.7957747E-01  0.1322471E+00
    9000001   -1    0    0    0    0  0.00000000000E+00  0.00000000000E+00  0.64999999231E+04  0.65000000000E+04  0.10000000000E+01 0.  0.
    9000001   -1    0    0    0    0 -0.00000000000E+00 -0.00000000000E+00 -0.64999999231E+04  0.65000000000E+04  0.10000000000E+01 0.  0.
    9000001    1    1    2    0    0  0.20934806199E+04  0.17235444745E+04  0.59073456255E+04  0.65000000000E+04  0.10000000000E+01 0.  0.
    9000001    1    1    2    0    0 -0.20934806199E+04 -0.17235444745E+04 -0.59073456255E+04  0.65000000000E+04  0.10000000000E+01 0.  0.
</event>
<event>
 4    1  0.2201588E-006  0.1300000E+05  0.7957747E-01  0.1322471E+00
    9000001   -1    0    0    0    0  0.00000000000E+00  0.00000000000E+00  0.64999999231E+04  0.65000000000E+04  0.10000000000E+01 0.  0.
    9000001   -1    0    0    0    0 -0.00000000000E+00 -0.00000000000E+00 -0.64999999231E+04  0.65000000000E+04  0.10000000000E+01 0.  0.
    9000001    1    1    2    0    0 -0.11177544643E+04 -0.87645942810E+03  0.63429049203E+04  0.65000000000E+04  0.10000000000E+01 0.  0.
    9000001    1    1    2    0    0  0.11177544643E+04  0.87645942810E+03 -0.63429049203E+04  0.65000000000E+04  0.10000000000E+01 0.  0.
</event>
<event>
 4    1  0.2201588E-006  0.1300000E+05  0.7957747E-01  0.1322471E+00
    9000001   -1    0    0    0    0  0.00000000000E+00  0.00000000000E+00  0.64999999231E+04  0.65000000000E+04  0.10000000000E+01 0.  0.
    9000001   -1    0    0    0    0 -0.00000000000E+00 -0.00000000000E+00 -0.64999999231E+04  0.65000000000E+04  0.10000000000E+01 0.  0.
    9000001    1    1    2    0    0 -0.34913278466E+04  0.41363266331E+04  0.35988096438E+04  0.65000000000E+04  0.10000000000E+01 0.  0.
    9000001    1    1    2    0    0  0.34913278466E+04 -0.41363266331E+04 -0.35988096438E+04  0.65000000000E+04  0.10000000000E+01 0.  0.
</event>
<event>
 4    1  0.2201588E-006  0.1300000E+05  0.7957747E-01  0.1322471E+00
    9000001   -1    0    0    0    0  0.00000000000E+00  0.00000000000E+00  0.64999999231E+04  0.65000000000E+04  0.10000000000E+01 0.  0.
    9000001   -1    0    0    0    0 -0.00000000000E+00 -0.00000000000E+00 -0.64999999231E+04  0.65000000000E+04  0.10000000000E+01 0.  0.
    9000001    1    1    2    0    0 -0.15118740742E+04 -0.60684751653E+04  0.17713963285E+04  0.65000000000E+04  0.10000000000E+01 0.  0.
    9000001    1    1    2    0    0  0.15118740742E+04  0.60684751653E+04 -0.17713963285E+04  0.65000000000E+04  0.10000000000E+01 0.  0.
</event>
<event>
 4    1  0.2201588E-006  0.1300000E+05  0.7957747E-01  0.1322471E+00
    9000001   -1    0    0    0    0  0.00000000000E+00  0.00000000000E+00  0.64999999231E+04  0.65000000000E+04  0.10000000000E+01 0.  0.
    9000001   -1    0    0    0    0 -0.00000000000E+00 -0.00000000000E+00 -0.64999999231E+04  0.65000000000E+04  0.10000000000E+01 0.  0.
    9000001    1    1    2    0    0  0.36942735353E+04 -0.53437930196E+04 -0.21498421024E+03  0.65000000000E+04  0.10000000000E+01 0.  0.
    9000001    1    1    2    0    0 -0.36942735353E+04  0.53437930196E+04  0.21498421024E+03  0.65000000000E+04  0.10000000000E+01 0.  0.
</event>
<event>
 4    1  0.2201588E-006  0.1300000E+05  0.7957747E-01  0.1322471E+00
    9000001   -1    0    0    0    0  0.00000000000E+00  0.00000000000E+00  0.64999999231E+04  0.65000000000E+04  0.10000000000E+01 0.  0.
    9000001   -1    0    0    0    0 -0.00000000000E+00 -0.00000000000E+00 -0.64999999231E+04  0.65000000000E+04  0.10000000000E+01 0.  0.
    9000001    1    1    2    0    0 -0.38858043834E+04 -0.29912166652E+04 -0.42665145208E+04  0.65000000000E+04  0.10000000000E+01 0.  0.
    9000001    1    1    2    0    0  0.38858043834E+04  0.29912166652E+04  0.42665145208E+04  0.65000000000E+04  0.10000000000E+01 0.  0.
</event>
<event>
 4    1  0.2201588E-006  0.1300000E+05  0.7957747E-01  0.1322471E+00
    9000001   -1    0    0    0    0  0.00000000000E+00  0.00000000000E+00  0.64999999231E+04  0.65000000000E+04  0.10000000000E+01 0.  0.
    9000001   -1    0    0    0    0 -0.00000000000E+00 -0.00000000000E+00 -0.64999999231E+04  0.65000000000E+04  0.10000000000E+01 0.  0.
    9000001    1    1    2    0    0 -0.42105811686E+04 -0.34317354262E+04 -0.35699015655E+04  0.65000000000E+04  0.10000000000E+01 0.  0.
    9000001    1    1    2    0    0  0.42105811686E+04  0.34317354262E+04  0.35699015655E+04  0.65000000000E+04  0.10000000000E+01 0.  0.
</event>
<event>
 4    1  0.2201588E-006  0.1300000E+05  0.7957747E-01  0.1322471E+00
    9000001   -1    0    0    0    0  0.00000000000E+00  0.00000000000E+00  0.64999999231E+04  0.65000000000E+04  0.10000000000E+01 0.  0.
    9000001   -1    0    0    0    0 -0.00000000000E+00 -0.00000000000E+00 -0.64999999231E+04  0.65000000000E+04  0.10000000000E+01 0.  0.
    9000001    1    1    2    0    0  0.32556605995E+04  0.30601620477E+02 -0.56258098618E+04  0.65000000000E+04  0.10000000000E+01 0.  0.
    9000001    1    1    2    0    0 -0.32556605995E+04 -0.30601620477E+02  0.56258098618E+04  0.65000000000E+04  0.10000000000E+01 0.  0.
</event>
<event>
 4    1  0.2201588E-006  0.1300000E+05  0.7957747E-01  0.1322471E+00
    9000001   -1    0    0    0    0  0.00000000000E+00  0.00000000000E+00  0.64999999231E+04  0.65000000000E+04  0.10000000000E+01 0.  0.
    9000001   -1    0    0    0    0 -0.00000000000E+00 -0.00000000000E+00 -0.64999999231E+04  0.65000000000E+04  0.10000000000E+01 0.  0.
    9000001    1    1    2    0    0  0.19186950646E+04  0.58508637442E+04 -0.20823068209E+04  0.65000000000E+04  0.10000000000E+01 0.  0.
    9000001    1    1    2    0    0 -0.19186950646E+04 -0.58508637442E+04  0.20823068209E+04  0.65000000000E+04  0.10000000000E+01 0.  0.
</event>
<event>
 4    1  0.2201588E-006  0.1300000E+05  0.7957747E-01  0.1322471E+00
    9000001   -1    0    0    0    0  0.00000000000E+00  0.00000000000E+00  0.64999999231E+04  0.65000000000E+04  0.10000000000E+01 0.  0.
    9000001   -1    0    0    0    0 -0.00000000000E+00 -0.00000000000E+00 -0.64999999231E+04  0.65000000000E+04  0.10000000000E+01 0.  0.
    9000001    1    1    2    0    0 -0.14270077326E+04  0.19376766901E+04 -0.60381335672E+04  0.65000000000E+04  0.10000000000E+01 0.  0.
    9000001    1    1    2    0    0  0.14270077326E+04 -0.19376766901E+04  0.60381335672E+04  0.65000000000E+04  0.10000000000E+01 0.  0.
</event>
<event>
 4    1  0.2201588E-006  0.1300000E+05  0.7957747E-01  0.1322471E+00
    9000001   -1    0    0    0    0  0.00000000000E+00  0.00000000000E+00  0.64999999231E+04  0.65000000000E+04  0.10000000000E+01 0.  0.
    9000001   -1    0    0    0    0 -0.00000000000E+00 -0.00000000000E+00 -0.64999999231E+04  0.65000000000E+04  0.10000000000E+01 0.  0.
    9000001    1    1    2    0    0  0.24084592108E+04  0.32777600736E+04  0.50700702293E+04  0.65000000000E+04  0.10000000000E+01 0.  0.
    9000001    1    1    2    0    0 -0.24084592108E+04 -0.32777600736E+04 -0.50700702293E+04  0.65000000000E+04  0.10000000000E+01 0.  0.
</event>
<event>
 4    1  0.2201588E-006  0.1300000E+05  0.7957747E-01  0.1322471E+00
    9000001   -1    0    0    0    0  0.00000000000E+00  0.00000000000E+00  0.64999999231E+04  0.65000000000E+04  0.10000000000E+01 0.  0.
    9000001   -1    0    0    0    0 -0.00000000000E+00 -0.00000000000E+00 -0.64999999231E+04  0.65000000000E+04  0.10000000000E+01 0.  0.
    9000001    1    1    2    0    0  0.30797869296E+04  0.41148711919E+04 -0.39790383941E+04  0.65000000000E+04  0.10000000000E+01 0.  0.
    9000001    1    1    2    0    0 -0.30797869296E+04 -0.41148711919E+04  0.39790383941E+04  0.65000000000E+04  0.10000000000E+01 0.  0.
</event>
<event>
 4    1  0.2201588E-006  0.1300000E+05  0.7957747E-01  0.1322471E+00
    9000001   -1    0    0    0    0  0.00000000000E+00  0.00000000000E+00  0.64999999231E+04  0.65000000000E+04  0.10000000000E+01 0.  0.
    9000001   -1    0    0    0    0 -0.00000000000E+00 -0.00000000000E+00 -0.64999999231E+04  0.65000000000E+04  0.10000000000E+01 0.  0.
    9000001    1    1    2    0    0 -0.14344207511E+04 -0.35504523304E+04  0.52523065751E+04  0.65000000000E+04  0.10000000000E+01 0.  0.
    9000001    1    1    2    0    0  0.14344207511E+04  0.35504523304E+04 -0.52523065751E+04  0.65000000000E+04  0.10000000000E+01 0.  0.
</event>
<event>
 4    1  0.2201588E-006  0.1300000E+05  0.7957747E-01  0.1322471E+00
    9000001   -1    0    0    0    0  0.00000000000E+00  0.00000000000E+00  0.64999999231E+04  0.65000000000E+04  0.10000000000E+01 0.  0.
    9000001   -1    0    0    0    0 -0.00000000000E+00 -0.00000000000E+00 -0.64999999231E+04  0.65000000000E+04  0.10000000000E+01 0.  0.
    9000001    1    1    2    0    0 -0.17072545219E+04  0.62363637354E+04 -0.66561877753E+03  0.65000000000E+04  0.10000000000E+01 0.  0.
    9000001    1    1    2    0    0  0.17072545219E+04 -0.62363637354E+04  0.66561877753E+03  0.65000000000E+04  0.10000000000E+01 0.  0.
</event>
<event>
 4    1  0.2201588E-006  0.1300000E+05  0.7957747E-01  0.1322471E+00
    9000001   -1    0    0    0    0  0.00000000000E+00  0.00000000000E+00  0.64999999231E+04  0.65000000000E+04  0.10000000000E+01 0.  0.
    9000001   -1    0    0    0    0 -0.00000000000E+00 -0.00000000000E+00 -0.64999999231E+04  0.65000000000E+04  0.10000000000E+01 0.  0.
    9000001    1    1    2    0    0 -0.16297984680E+04 -0.60556042235E+04 -0.17097992401E+04  0.65000000000E+04  0.10000000000E+01 0.  0.
    9000001    1    1    2    0    0  0.16297984680E+04  0.60556042235E+04  0.17097992401E+04  0.65000000000E+04  0.10000000000E+01 0.  0.
</event>
<event>
 4    1  0.2201588E-006  0.1300000E+05  0.7957747E-01  0.1322471E+00
    9000001   -1    0    0    0    0  0.00000000000E+00  0.00000000000E+00  0.64999999231E+04  0.65000000000E+04  0.10000000000E+01 0.  0.
    9000001   -1    0    0    0    0 -0.00000000000E+00 -0.00000000000E+00 -0.64999999231E+04  0.65000000000E+04  0.10000000000E+01 0.  0.
    9000001    1    1    2    0    0  0.18709180805E+03 -0.20638753019E+04  0.61607965713E+04  0.65000000000E+04  0.10000000000E+01 0.  0.
    9000001    1    1    2    0    0 -0.18709180805E+03  0.20638753019E+04 -0.61607965713E+04  0.65000000000E+04  0.10000000000E+01 0.  0.
</event>
<event>
 4    1  0.2201588E-006  0.1300000E+05  0.7957747E-01  0.1322471E+00
    9000001   -1    0    0    0    0  0.00000000000E+00  0.00000000000E+00  0.64999999231E+04  0.65000000000E+04  0.10000000000E+01 0.  0.
    9000001   -1    0    0    0    0 -0.00000000000E+00 -0.00000000000E+00 -0.64999999231E+04  0.65000000000E+04  0.10000000000E+01 0.  0.
    9000001    1    1    2    0    0 -0.51773308986E+04  0.18777301986E+04  0.34524445061E+04  0.65000000000E+04  0.10000000000E+01 0.  0.
    9000001    1    1    2    0    0  0.51773308986E+04 -0.18777301986E+04 -0.34524445061E+04  0.65000000000E+04  0.10000000000E+01 0.  0.
</event>
<event>
 4    1  0.2201588E-006  0.1300000E+05  0.7957747E-01  0.1322471E+00
    9000001   -1    0    0    0    0  0.00000000000E+00  0.00000000000E+00  0.64999999231E+04  0.65000000000E+04  0.10000000000E+01 0.  0.
    9000001   -1    0    0    0    0 -0.00000000000E+00 -0.00000000000E+00 -0.64999999231E+04  0.65000000000E+04  0.10000000000E+01 0.  0.
    9000001    1    1    2    0    0  0.33533665793E+04  0.38521749620E+04  0.40206566188E+04  0.65000000000E+04  0.10000000000E+01 0.  0.
    9000001    1    1    2    0    0 -0.33533665793E+04 -0.38521749620E+04 -0.40206566188E+04  0.65000000000E+04  0.10000000000E+01 0.  0.
</event>
<event>
 4    1  0.2201588E-006  0.1300000E+05  0.7957747E-01  0.1322471E+00
    9000001   -1    0    0    0    0  0.00000000000E+00  0.00000000000E+00  0.64999999231E+04  0.65000000000E+04  0.10000000000E+01 0.  0.
    9000001   -1    0    0    0    0 -0.00000000000E+00 -0.00000000000E+00 -0.64999999231E+04  0.65000000000E+04  0.10000000000E+01 0.  0.
    9000001    1    1    2    0    0 -0.32863272668E+03  0.60699129337E+04  0.23017724709E+04  0.65000000000E+04  0.10000000000E+01 0.  0.
    9000001    1    1    2    0    0  0.32863272668E+03 -0.60699129337E+04 -0.23017724709E+04  0.65000000000E+04  0.10000000000E+01 0.  0.
</event>
<event>
 4    1  0.2201588E-006  0.1300000E+05  0.7957747E-01  0.1322471E+00
    9000001   -1    0    0    0    0  0.00000000000E+00  0.00000000000E+00  0.64999999231E+04  0.65000000000E+04  0.10000000000E+01 0.  0.
    9000001   -1    0    0    0    0 -0.00000000000E+00 -0.00000000000E+00 -0.64999999231E+04  0.65000000000E+04  0.10000000000E+01 0.  0.
    9000001    1    1    2    0    0 -0.55712956802E+04  0.32425639340E+04  0.83453135261E+03  0.65000000000E+04  0.10000000000E+01 0.  0.
    9000001    1    1    2    0    0  0.55712956802E+04 -0.32425639340E+04 -0.83453135261E+03  0.65000000000E+04  0.10000000000E+01 0.  0.
</event>
<event>
 4    1  0.2201588E-006  0.1300000E+05  0.7957747E-01  0.1322471E+00
    9000001   -1    0    0    0    0  0.00000000000E+00  0.00000000000E+00  0.64999999231E+04  0.65000000000E+04  0.10000000000E+01 0.  0.
    9000001   -1    0    0    0    0 -0.00000000000E+00 -0.00000000000E+00 -0.64999999231E+04  0.65000000000E+04  0.10000000000E+01 0.  0.
    9000001    1    1    2    0    0  0.60671684547E+02  0.38705194157E+04 -0.52216278496E+04  0.65000000000E+04  0.10000000000E+01 0.  0.
    9000001    1    1    2    0    0 -0.60671684547E+02 -0.38705194157E+04  0.52216278496E+04  0.65000000000E+04  0.10000000000E+01 0.  0.
</event>
<event>
 4    1  0.2201588E-006  0.1300000E+05  0.7957747E-01  0.1322471E+00
    9000001   -1    0    0    0    0  0.00000000000E+00  0.00000000000E+00  0.64999999231E+04  0.65000000000E+04  0.10000000000E+01 0.  0.
    9000001   -1    0    0    0    0 -0.00000000000E+00 -0.00000000000E+00 -0.64999999231E+04  0.65000000000E+04  0.10000000000E+01 0.  0.
    9000001    1    1    2    0    0 -0.25531585747E+04  0.43624460268E+04  0.40866177893E+04  0.65000000000E+04  0.10000000000E+01 0.  0.
    9000001    1    1    2    0    0  0.25531585747E+04 -0.43624460268E+04 -0.40866177893E+04  0.65000000000E+04  0.10000000000E+01 0.  0.
</event>
<event>
 4    1  0.2201588E-006  0.1300000E+05  0.7957747E-01  0.1322471E+00
    9000001   -1    0    0    0    0  0.00000000000E+00  0.00000000000E+00  0.64999999231E+04  0.65000000000E+04  0.10000000000E+01 0.  0.
    9000001   -1    0    0    0    0 -0.00000000000E+00 -0.00000000000E+00 -0.64999999231E+04  0.65000000000E+04  0.10000000000E+01 0.  0.
    9000001    1    1    2    0    0 -0.27821346661E+04  0.55174624879E+04  0.20167630983E+04  0.65000000000E+04  0.10000000000E+01 0.  0.
    9000001    1    1    2    0    0  0.27821346661E+04 -0.55174624879E+04 -0.20167630983E+04  0.65000000000E+04  0.10000000000E+01 0.  0.
</event>
<event>
 4    1  0.2201588E-006  0.1300000E+05  0.7957747E-01  0.1322471E+00
    9000001   -1    0    0    0    0  0.00000000000E+00  0.00000000000E+00  0.64999999231E+04  0.65000000000E+04  0.10000000000E+01 0.  0.
    9000001   -1    0    0    0    0 -0.00000000000E+00 -0.00000000000E+00 -0.64999999231E+04  0.65000000000E+04  0.10000000000E+01 0.  0.
    9000001    1    1    2    0    0  0.49552737538E+04 -0.26869100551E+04  0.32366302508E+04  0.65000000000E+04  0.10000000000E+01 0.  0.
    9000001    1    1    2    0    0 -0.49552737538E+04  0.26869100551E+04 -0.32366302508E+04  0.65000000000E+04  0.10000000000E+01 0.  0.
</event>
<event>
 4    1  0.2201588E-006  0.1300000E+05  0.7957747E-01  0.1322471E+00
    9000001   -1    0    0    0    0  0.00000000000E+00  0.00000000000E+00  0.64999999231E+04  0.65000000000E+04  0.10000000000E+01 0.  0.
    9000001   -1    0    0    0    0 -0.00000000000E+00 -0.00000000000E+00 -0.64999999231E+04  0.65000000000E+04  0.10000000000E+01 0.  0.
    9000001    1    1    2    0    0 -0.11049696299E+04  0.61562707975E+04 -0.17690028221E+04  0.65000000000E+04  0.10000000000E+01 0.  0.
    9000001    1    1    2    0    0  0.11049696299E+04 -0.61562707975E+04  0.17690028221E+04  0.65000000000E+04  0.10000000000E+01 0.  0.
</event>
<event>
 4    1  0.2201588E-006  0.1300000E+05  0.7957747E-01  0.1322471E+00
    9000001   -1    0    0    0    0  0.00000000000E+00  0.00000000000E+00  0.64999999231E+04  0.65000000000E+04  0.10000000000E+01 0.  0.
    9000001   -1    0    0    0    0 -0.00000000000E+00 -0.00000000000E+00 -0.64999999231E+04  0.65000000000E+04  0.10000000000E+01 0.  0.
    9000001    1    1    2    0    0 -0.34679704322E+03  0.63707464069E+04 -0.12423047252E+04  0.65000000000E+04  0.10000000000E+01 0.  0.
    9000001    1    1    2    0    0  0.34679704322E+03 -0.63707464069E+04  0.12423047252E+04  0.65000000000E+04  0.10000000000E+01 0.  0.
</event>
<event>
 4    1  0.2201588E-006  0.1300000E+05  0.7957747E-01  0.1322471E+00
    9000001   -1    0    0    0    0  0.00000000000E+00  0.00000000000E+00  0.64999999231E+04  0.65000000000E+04  0.10000000000E+01 0.  0.
    9000001   -1    0    0    0    0 -0.00000000000E+00 -0.00000000000E+00 -0.64999999231E+04  0.65000000000E+04  0.10000000000E+01 0.  0.
    9000001    1    1    2    0    0 -0.56545158413E+04 -0.23440980150E+04 -0.21866993612E+04  0.65000000000E+04  0.10000000000E+01 0.  0.
    9000001    1    1    2    0    0  0.56545158413E+04  0.23440980150E+04  0.21866993612E+04  0.65000000000E+04  0.10000000000E+01 0.  0.
</event>
<event>
 4    1  0.2201588E-006  0.1300000E+05  0.7957747E-01  0.1322471E+00
    9000001   -1    0    0    0    0  0.00000000000E+00  0.00000000000E+00  0.64999999231E+04  0.65000000000E+04  0.10000000000E+01 0.  0.
    9000001   -1    0    0    0    0 -0.00000000000E+00 -0.00000000000E+00 -0.64999999231E+04  0.65000000000E+04  0.10000000000E+01 0.  0.
    9000001    1    1    2    0    0 -0.38820387746E+04 -0.44088183569E+04 -0.27824619762E+04  0.65000000000E+04  0.10000000000E+01 0.  0.
    9000001    1    1    2    0    0  0.38820387746E+04  0.44088183569E+04  0.27824619762E+04  0.65000000000E+04  0.10000000000E+01 0.  0.
</event>
<event>
 4    1  0.2201588E-006  0.1300000E+05  0.7957747E-01  0.1322471E+00
    9000001   -1    0    0    0    0  0.00000000000E+00  0.00000000000E+00  0.64999999231E+04  0.65000000000E+04  0.10000000000E+01 0.  0.
    9000001   -1    0    0    0    0 -0.00000000000E+00 -0.00000000000E+00 -0.64999999231E+04  0.65000000000E+04  0.10000000000E+01 0.  0.
    9000001    1    1    2    0    0  0.24886863125E+04 -0.59997936157E+04 -0.24272619608E+03  0.65000000000E+04  0.10000000000E+01 0.  0.
    9000001    1    1    2    0    0 -0.24886863125E+04  0.59997936157E+04  0.24272619608E+03  0.65000000000E+04  0.10000000000E+01 0.  0.
</event>
<event>
 4    1  0.2201588E-006  0.1300000E+05  0.7957747E-01  0.1322471E+00
    9000001   -1    0    0    0    0  0.00000000000E+00  0.00000000000E+00  0.64999999231E+04  0.65000000000E+04  0.10000000000E+01 0.  0.
    9000001   -1    0    0    0    0 -0.00000000000E+00 -0.00000000000E+00 -0.64999999231E+04  0.65000000000E+04  0.10000000000E+01 0.  0.
    9000001    1    1    2    0    0  0.24056800182E+03 -0.54505742092E+04  0.35331808369E+04  0.65000000000E+04  0.10000000000E+01 0.  0.
    9000001    1    1    2    0    0 -0.24056800182E+03  0.54505742092E+04 -0.35331808369E+04  0.65000000000E+04  0.10000000000E+01 0.  0.
</event>
<event>
 4    1  0.2201588E-006  0.1300000E+05  0.7957747E-01  0.1322471E+00
    9000001   -1    0    0    0    0  0.00000000000E+00  0.00000000000E+00  0.64999999231E+04  0.65000000000E+04  0.10000000000E+01 0.  0.
    9000001   -1    0    0    0    0 -0.00000000000E+00 -0.00000000000E+00 -0.64999999231E+04  0.65000000000E+04  0.10000000000E+01 0.  0.
    9000001    1    1    2    0    0 -0.23772797623E+04 -0.51051349880E+04  0.32459415716E+04  0.65000000000E+04  0.10000000000E+01 0.  0.
    9000001    1    1    2    0    0  0.23772797623E+04  0.51051349880E+04 -0.32459415716E+04  0.65000000000E+04  0.10000000000E+01 0.  0.
</event>
<event>
 4    1  0.2201588E-006  0.1300000E+05  0.7957747E-01  0.1322471E+00
    9000001   -1    0    0    0    0  0.00000000000E+00  0.00000000000E+00  0.64999999231E+04  0.65000000000E+04  0.10000000000E+01 0.  0.
    9000001   -1    0    0    0    0 -0.00000000000E+00 -0.00000000000E+00 -0.64999999231E+04  0.65000000000E+04  0.10000000000E+01 0.  0.
    9000001    1    1    2    0    0  0.34244018217E+04  0.55234108320E+04  0.12411262692E+03  0.65000000000E+04  0.10000000000E+01 0.  0.
    9000001    1    1    2    0    0 -0.34244018217E+04 -0.55234108320E+04 -0.12411262692E+03  0.65000000000E+04  0.10000000000E+01 0.  0.
</event>
<event>
 4    1  0.2201588E-006  0.1300000E+05  0.7957747E-01  0.1322471E+00
    9000001   -1    0    0    0    0  0.00000000000E+00  0.00000000000E+00  0.64999999231E+04  0.65000000000E+04  0.10000000000E+01 0.  0.
    9000001   -1    0    0    0    0 -0.00000000000E+00 -0.00000000000E+00 -0.64999999231E+04  0.65000000000E+04  0.10000000000E+01 0.  0.
    9000001    1    1    2    0    0  0.45282298479E+04  0.45393856686E+04  0.10672915233E+04  0.65000000000E+04  0.10000000000E+01 0.  0.
    9000001    1    1    2    0    0 -0.45282298479E+04 -0.45393856686E+04 -0.10672915233E+04  0.65000000000E+04  0.10000000000E+01 0.  0.
</event>
<event>
 4    1  0.2201588E-006  0.1300000E+05  0.7957747E-01  0.1322471E+00
    9000001   -1    0    0    0    0  0.00000000000E+00  0.00000000000E+00  0.64999999231E+04  0.65000000000E+04  0.10000000000E+01 0.  0.
    9000001   -1    0    0    0    0 -0.00000000000E+00 -0.00000000000E+00 -0.64999999231E+04  0.65000000000E+04  0.10000000000E+01 0.  0.
    9000001    1    1    2    0    0  0.21495154748E+04 -0.35871332526E+04 -0.49761488374E+04  0.65000000000E+04  0.10000000000E+01 0.  0.
    9000001    1    1    2    0    0 -0.21495154748E+04  0.35871332526E+04  0.49761488374E+04  0.65000000000E+04  0.10000000000E+01 0.  0.
</event>
<event>
 4    1  0.2201588E-006  0.1300000E+05  0.7957747E-01  0.1322471E+00
    9000001   -1    0    0    0    0  0.00000000000E+00  0.00000000000E+00  0.64999999231E+04  0.65000000000E+04  0.10000000000E+01 0.  0.
    9000001   -1    0    0    0    0 -0.00000000000E+00 -0.00000000000E+00 -0.64999999231E+04  0.65000000000E+04  0.10000000000E+01 0.  0.
    9000001    1    1    2    0    0  0.35537389341E+04 -0.43957434424E+03 -0.54247316048E+04  0.65000000000E+04  0.10000000000E+01 0.  0.
    9000001    1    1    2    0    0 -0.35537389341E+04  0.43957434424E+03  0.54247316048E+04  0.65000000000E+04  0.10000000000E+01 0.  0.
</event>
<event>
 4    1  0.2201588E-006  0.1300000E+05  0.7957747E-01  0.1322471E+00
    9000001   -1    0    0    0    0  0.00000000000E+00  0.00000000000E+00  0.64999999231E+04  0.65000000000E+04  0.10000000000E+01 0.  0.
    9000001   -1    0    0    0    0 -0.00000000000E+00 -0.00000000000E+00 -0.64999999231E+04  0.65000000000E+04  0.10000000000E+01 0.  0.
    9000001    1    1    2    0    0  0.20082868988E+04  0.13221350282E+04 -0.60389354773E+04  0.65000000000E+04  0.10000000000E+01 0.  0.
    9000001    1    1    2    0    0 -0.20082868988E+04 -0.13221350282E+04  0.60389354773E+04  0.65000000000E+04  0.10000000000E+01 0.  0.
</event>
<event>
 4    1  0.2201588E-006  0.1300000E+05  0.7957747E-01  0.1322471E+00
    9000001   -1    0    0    0    0  0.00000000000E+00  0.00000000000E+00  0.64999999231E+04  0.65000000000E+04  0.10000000000E+01 0.  0.
    9000001   -1    0    0    0    0 -0.00000000000E+00 -0.00000000000E+00 -0.64999999231E+04  0.65000000000E+04  0.10000000000E+01 0.  0.
    9000001    1    1    2    0    0  0.53407985463E+04  0.15720468884E+04 -0.33547784530E+04  0.65000000000E+04  0.10000000000E+01 0.  0.
    9000001    1    1    2    0    0 -0.53407985463E+04 -0.15720468884E+04  0.33547784530E+04  0.65000000000E+04  0.10000000000E+01 0.  0.
</event>
<event>
 4    1  0.2201588E-006  0.1300000E+05  0.7957747E-01  0.1322471E+00
    9000001   -1    0    0    0    0  0.00000000000E+00  0.00000000000E+00  0.64999999231E+04  0.65000000000E+04  0.10000000000E+01 0.  0.
    9000001   -1    0    0    0    0 -0.00000000000E+00 -0.00000000000E+00 -0.64999999231E+04  0.65000000000E+04  0.10000000000E+01 0.  0.
    9000001    1    1    2    0    0  0.33284907730E+04  0.53896547724E+04  0.14569727549E+04  0.65000000000E+04  0.10000000000E+01 0.  0.
    9000001    1    1    2    0    0 -0.33284907730E+04 -0.53896547724E+04 -0.14569727549E+04  0.65000000000E+04  0.10000000000E+01 0.  0.
</event>
<event>
 4    1  0.2201588E-006  0.1300000E+05  0.7957747E-01  0.1322471E+00
    9000001   -1    0    0    0    0  0.00000000000E+00  0.00000000000E+00  0.64999999231E+04  0.65000000000E+04  0.10000000000E+01 0.  0.
    9000001   -1    0    0    0    0 -0.00000000000E+00 -0.00000000000E+00 -0.64999999231E+04  0.65000000000E+04  0.10000000000E+01 0.  0.
    9000001    1    1    2    0    0 -0.96839548886E+02 -0.59122199180E+04  0.26993104200E+04  0.65000000000E+04  0.10000000000E+01 0.  0.
    9000001    1    1    2    0    0  0.96839548886E+02  0.59122199180E+04 -0.26993104200E+04  0.65000000000E+04  0.10000000000E+01 0.  0.
</event>
<event>
 4    1  0.2201588E-006  0.1300000E+05  0.7957747E-01  0.1322471E+00
    9000001   -1    0    0    0    0  0.00000000000E+00  0.00000000000E+00  0.64999999231E+04  0.65000000000E+04  0.10000000000E+01 0.  0.
    9000001   -1    0    0    0    0 -0.00000000000E+00 -0.00000000000E+00 -0.64999999231E+04  0.65000000000E+04  0.10000000000E+01 0.  0.
    9000001    1    1    2    0    0 -0.54671691833E+04 -0.14259969410E+04 -0.32135016486E+04  0.65000000000E+04  0.10000000000E+01 0.  0.
    9000001    1    1    2    0    0  0.54671691833E+04  0.14259969410E+04  0.32135016486E+04  0.65000000000E+04  0.10000000000E+01 0.  0.
</event>
<event>
 4    1  0.2201588E-006  0.1300000E+05  0.7957747E-01  0.1322471E+00
    9000001   -1    0    0    0    0  0.00000000000E+00  0.00000000000E+00  0.64999999231E+04  0.65000000000E+04  0.10000000000E+01 0.  0.
    9000001   -1    0    0    0    0 -0.00000000000E+00 -0.00000000000E+00 -0.64999999231E+04  0.65000000000E+04  0.10000000000E+01 0.  0.
    9000001    1    1    2    0    0  0.44370383124E+04 -0.84628744720E+03  0.46740226327E+04  0.65000000000E+04  0.10000000000E+01 0.  0.
    9000001    1    1    2    0    0 -0.44370383124E+04  0.84628744720E+03 -0.46740226327E+04  0.65000000000E+04  0.10000000000E+01 0.  0.
</event>
<event>
 4    1  0.2201588E-006  0.1300000E+05  0.7957747E-01  0.1322471E+00
    9000001   -1    0    0    0    0  0.00000000000E+00  0.00000000000E+00  0.64999999231E+04  0.65000000000E+04  0.10000000000E+01 0.  0.
    9000001   -1    0    0    0    0 -0.00000000000E+00 -0.00000000000E+00 -0.64999999231E+04  0.65000000000E+04  0.10000000000E+01 0.  0.
    9000001    1    1    2    0    0 -0.25031435625E+04  0.37742260892E+04 -0.46625624643E+04  0.65000000000E+04  0.10000000000E+01 0.  0.
    9000001    1    1    2    0    0  0.25031435625E+04 -0.37742260892E+04  0.46625624643E+04  0.65000000000E+04  0.10000000000E+01 0.  0.
</event>
<event>
 4    1  0.2201588E-006  0.1300000E+05  0.7957747E-01  0.1322471E+00
    9000001   -1    0    0    0    0  0.00000000000E+00  0.00000000000E+00  0.64999999231E+04  0.65000000000E+04  0.10000000000E+01 0.  0.
    9000001   -1    0    0    0    0 -0.00000000000E+00 -0.00000000000E+00 -0.64999999231E+04  0.65000000000E+04  0.10000000000E+01 0.  0.
    9000001    1    1    2    0    0  0.73204292547E+03 -0.58920831681E+04 -0.26452727827E+04  0.65000000000E+04  0.10000000000E+01 0.  0.
    9000001    1    1    2    0    0 -0.73204292547E+03  0.58920831681E+04  0.26452727827E+04  0.65000000000E+04  0.10000000000E+01 0.  0.
</event>
<event>
 4    1  0.2201588E-006  0.1300000E+05  0.7957747E-01  0.1322471E+00
    9000001   -1    0    0    0    0  0.00000000000E+00  0.00000000000E+00  0.64999999231E+04  0.65000000000E+04  0.10000000000E+01 0.  0.
    9000001   -1    0    0    0    0 -0.00000000000E+00 -0.00000000000E+00 -0.64999999231E+04  0.65000000000E+04  0.10000000000E+01 0.  0.
    9000001    1    1    2    0    0 -0.49332989737E+04 -0.34629500253E+04  0.24332154360E+04  0.65000000000E+04  0.10000000000E+01 0.  0.
    9000001    1    1    2    0    0  0.49332989737E+04  0.34629500253E+04 -0.24332154360E+04  0.65000000000E+04  0.10000000000E+01 0.  0.
</event>
<event>
 4    1  0.2201588E-006  0.1300000E+05  0.7957747E-01  0.1322471E+00
    9000001   -1    0    0    0    0  0.00000000000E+00  0.00000000000E+00  0.64999999231E+04  0.65000000000E+04  0.10000000000E+01 0.  0.
    9000001   -1    0    0    0    0 -0.00000000000E+00 -0.00000000000E+00 -0.64999999231E+04  0.65000000000E+04  0.10000000000E+01 0.  0.
    9000001    1    1    2    0    0 -0.24453414898E+04 -0.54633461660E+04 -0.25341966514E+04  0.65000000000E+04  0.10000000000E+01 0.  0.
    9000001    1    1    2    0    0  0.24453414898E+04  0.54633461660E+04  0.25341966514E+04  0.65000000000E+04  0.10000000000E+01 0.  0.
</event>
<event>
 4    1  0.2201588E-006  0.1300000E+05  0.7957747E-01  0.1322471E+00
    9000001   -1    0    0    0    0  0.00000000000E+00  0.00000000000E+00  0.64999999231E+04  0.65000000000E+04  0.10000000000E+01 0.  0.
    9000001   -1    0    0    0    0 -0.00000000000E+00 -0.00000000000E+00 -0.64999999231E+04  0.65000000000E+04  0.10000000000E+01 0.  0.
    9000001    1    1    2    0    0  0.12336691011E+04  0.55496654115E+04 -0.31510749546E+04  0.65000000000E+04  0.10000000000E+01 0.  0.
    9000001    1    1    2    0    0 -0.12336691011E+04 -0.55496654115E+04  0.31510749546E+04  0.65000000000E+04  0.10000000000E+01 0.  0.
</event>
<event>
 4    1  0.2201588E-006  0.1300000E+05  0.7957747E-01  0.1322471E+00
    9000001   -1    0    0    0    0  0.00000000000E+00  0.00000000000E+00  0.64999999231E+04  0.65000000000E+04  0.10000000000E+01 0.  0.
    9000001   -1    0    0    0    0 -0.00000000000E+00 -0.00000000000E+00 -0.64999999231E+04  0.65000000000E+04  0.10000000000E+01 0.  0.
    9000001    1    1    2    0    0  0.17488443810E+04 -0.32637915123E+04  0.53422099636E+04  0.65000000000E+04  0.10000000000E+01 0.  0.
    9000001    1    1    2    0    0 -0.17488443810E+04  0.32637915123E+04 -0.53422099636E+04  0.65000000000E+04  0.10000000000E+01 0.  0.
</event>
<event>
 4    1  0.2201588E-006  0.1300000E+05  0.7957747E-01  0.1322471E+00
    9000001   -1    0    0    0    0  0.00000000000E+00  0.00000000000E+00  0.64999999231E+04  0.65000000000E+04  0.10000000000E+01 0.  0.
    9000001   -1    0    0    0    0 -0.00000000000E+00 -0.00000000000E+00 -0.64999999231E+04  0.65000000000E+04  0.10000000000E+01 0.  0.
    9000001    1    1    2    0    0 -0.38567565321E+04  0.50127121575E+04 -0.14993814986E+04  0.65000000000E+04  0.10000000000E+01 0.  0.
    9000001    1    1    2    0    0  0.38567565321E+04 -0.50127121575E+04  0.14993814986E+04  0.65000000000E+04  0.10000000000E+01 0.  0.
</event>
<event>
 4    1  0.2201588E-006  0.1300000E+05  0.7957747E-01  0.1322471E+00
    9000001   -1    0    0    0    0  0.00000000000E+00  0.00000000000E+00  0.64999999231E+04  0.65000000000E+04  0.10000000000E+01 0.  0.
    9000001   -1    0    0    0    0 -0.00000000000E+00 -0.00000000000E+00 -0.64999999231E+04  0.65000000000E+04  0.10000000000E+01 0.  0.
    9000001    1    1    2    0    0  0.12402289522E+04  0.63765545548E+04  0.22667852939E+03  0.65000000000E+04  0.10000000000E+01 0.  0.
    9000001    1    1    2    0    0 -0.12402289522E+04 -0.63765545548E+04 -0.22667852939E+03  0.65000000000E+04  0.10000000000E+01 0.  0.
</event>
<event>
 4    1  0.2201588E-006  0.1300000E+05  0.7957747E-01  0.1322471E+00
    9000001   -1    0    0    0    0  0.00000000000E+00  0.00000000000E+00  0.64999999231E+04  0.65000000000E+04  0.10000000000E+01 0.  0.
    9000001   -1    0    0    0    0 -0.00000000000E+00 -0.00000000000E+00 -0.64999999231E+04  0.65000000000E+04  0.10000000000E+01 0.  0.
    9000001    1    1    2    0    0 -0.29542020794E+04  0.57705141070E+04  0.47313424634E+03  0.65000000000E+04  0.10000000000E+01 0.  0.
    9000001    1    1    2    0    0  0.29542020794E+04 -0.57705141070E+04 -0.47313424634E+03  0.65000000000E+04  0.10000000000E+01 0.  0.
</event>
<event>
 4    1  0.2201588E-006  0.1300000E+05  0.7957747E-01  0.1322471E+00
    9000001   -1    0    0    0    0  0.00000000000E+00  0.00000000000E+00  0.64999999231E+04  0.65000000000E+04  0.10000000000E+01 0.  0.
    9000001   -1    0    0    0    0 -0.00000000000E+00 -0.00000000000E+00 -0.64999999231E+04  0.65000000000E+04  0.10000000000E+01 0.  0.
    9000001    1    1    2    0    0 -0.25798762187E+04 -0.52060271773E+04  0.29140210578E+04  0.65000000000E+04  0.10000000000E+01 0.  0.
    9000001    1    1    2    0    0  0.25798762187E+04  0.52060271773E+04 -0.29140210578E+04  0.65000000000E+04  0.10000000000E+01 0.  0.
</event>
<event>
 4    1  0.2201588E-006  0.1300000E+05  0.7957747E-01  0.1322471E+00
    9000001   -1    0    0    0    0  0.00000000000E+00  0.00000000000E+00  0.64999999231E+04  0.65000000000E+04  0.10000000000E+01 0.  0.
    9000001   -1    0    0    0    0 -0.00000000000E+00 -0.00000000000E+00 -0.64999999231E+04  0.65000000000E+04  0.10000000000E+01 0.  0.
    9000001    1    1    2    0    0  0.16324818377E+04  0.49399614713E+03  0.62722380261E+04  0.65000000000E+04  0.10000000000E+01 0.  0.
    9000001    1    1    2    0    0 -0.16324818377E+04 -0.49399614713E+03 -0.62722380261E+04  0.65000000000E+04  0.10000000000E+01 0.  0.
</event>
<event>
 4    1  0.2201588E-006  0.1300000E+05  0.7957747E-01  0.1322471E+00
    9000001   -1    0    0    0    0  0.00000000000E+00  0.00000000000E+00  0.64999999231E+04  0.65000000000E+04  0.10000000000E+01 0.  0.
    9000001   -1    0    0    0    0 -0.00000000000E+00 -0.00000000000E+00 -0.64999999231E+04  0.65000000000E+04  0.10000000000E+01 0.  0.
    9000001    1    1    2    0    0 -0.34213556768E+04  0.11368195491E+04 -0.54085086341E+04  0.65000000000E+04  0.10000000000E+01 0.  0.
    9000001    1    1    2    0    0  0.34213556768E+04 -0.11368195491E+04  0.54085086341E+04  0.65000000000E+04  0.10000000000E+01 0.  0.
</event>
<event>
 4    1  0.2201588E-006  0.1300000E+05  0.7957747E-01  0.1322471E+00
    9000001   -1    0    0    0    0  0.00000000000E+00  0.00000000000E+00  0.64999999231E+04  0.65000000000E+04  0.10000000000E+01 0.  0.
    9000001   -1    0    0    0    0 -0.00000000000E+00 -0.00000000000E+00 -0.64999999231E+04  0.65000000000E+04  0.10000000000E+01 0.  0.
    9000001    1    1    2    0    0  0.14222198530E+04  0.73754257940E+03  0.62994698692E+04  0.65000000000E+04  0.10000000000E+01 0.  0.
    9000001    1    1    2    0    0 -0.14222198530E+04 -0.73754257940E+03 -0.62994698692E+04  0.65000000000E+04  0.10000000000E+01 0.  0.
</event>
<event>
 4    1  0.2201588E-006  0.1300000E+05  0.7957747E-01  0.1322471E+00
    9000001   -1    0    0    0    0  0.00000000000E+00  0.00000000000E+00  0.64999999231E+04  0.65000000000E+04  0.10000000000E+01 0.  0.
    9000001   -1    0    0    0    0 -0.00000000000E+00 -0.00000000000E+00 -0.64999999231E+04  0.65000000000E+04  0.10000000000E+01 0.  0.
    9000001    1    1    2    0    0  0.48901473567E+04  0.27842584875E+04  0.32533617236E+04  0.65000000000E+04  0.10000000000E+01 0.  0.
    9000001    1    1    2    0    0 -0.48901473567E+04 -0.27842584875E+04 -0.32533617236E+04  0.65000000000E+04  0.10000000000E+01 0.  0.
</event>
<event>
 4    1  0.2201588E-006  0.1300000E+05  0.7957747E-01  0.1322471E+00
    9000001   -1    0    0    0    0  0.00000000000E+00  0.00000000000E+00  0.64999999231E+04  0.65000000000E+04  0.10000000000E+01 0.  0.
    9000001   -1    0    0    0    0 -0.00000000000E+00 -0.00000000000E+00 -0.64999999231E+04  0.65000000000E+04  0.10000000000E+01 0.  0.
    9000001    1    1    2    0    0 -0.19713063379E+04 -0.58404878748E+04 -0.20621958459E+04  0.65000000000E+04  0.10000000000E+01 0.  0.
    9000001    1    1    2    0    0  0.19713063379E+04  0.58404878748E+04  0.20621958459E+04  0.65000000000E+04  0.10000000000E+01 0.  0.
</event>
<event>
 4    1  0.2201588E-006  0.1300000E+05  0.7957747E-01  0.1322471E+00
    9000001   -1    0    0    0    0  0.00000000000E+00  0.00000000000E+00  0.64999999231E+04  0.65000000000E+04  0.10000000000E+01 0.  0.
    9000001   -1    0    0    0    0 -0.00000000000E+00 -0.00000000000E+00 -0.64999999231E+04  0.65000000000E+04  0.10000000000E+01 0.  0.
    9000001    1    1    2    0    0  0.23141874429E+04  0.52628629563E+04 -0.30326241083E+04  0.65000000000E+04  0.10000000000E+01 0.  0.
    9000001    1    1    2    0    0 -0.23141874429E+04 -0.52628629563E+04  0.30326241083E+04  0.65000000000E+04  0.10000000000E+01 0.  0.
</event>
<event>
 4    1  0.2201588E-006  0.1300000E+05  0.7957747E-01  0.1322471E+00
    9000001   -1    0    0    0    0  0.00000000000E+00  0.00000000000E+00  0.64999999231E+04  0.65000000000E+04  0.10000000000E+01 0.  0.
    9000001   -1    0    0    0    0 -0.00000000000E+00 -0.00000000000E+00 -0.64999999231E+04  0.65000000000E+04  0.10000000000E+01 0.  0.
    9000001    1    1    2    0    0 -0.49433040389E+04  0.18370821624E+04 -0.37998517481E+04  0.65000000000E+04  0.10000000000E+01 0.  0.
    9000001    1    1    2    0    0  0.49433040389E+04 -0.18370821624E+04  0.37998517481E+04  0.65000000000E+04  0.10000000000E+01 0.  0.
</event>
<event>
 4    1  0.2201588E-006  0.1300000E+05  0.7957747E-01  0.1322471E+00
    9000001   -1    0    0    0    0  0.00000000000E+00  0.00000000000E+00  0.64999999231E+04  0.65000000000E+04  0.10000000000E+01 0.  0.
    9000001   -1    0    0    0    0 -0.00000000000E+00 -0.00000000000E+00 -0.64999999231E+04  0.65000000000E+04  0.10000000000E+01 0.  0.
    9000001    1    1    2    0    0 -0.46139923159E+04  0.45719221814E+04  0.24207741649E+03  0.65000000000E+04  0.10000000000E+01 0.  0.
    9000001    1    1    2    0    0  0.46139923159E+04 -0.45719221814E+04 -0.24207741649E+03  0.65000000000E+04  0.10000000000E+01 0.  0.
</event>
<event>
 4    1  0.2201588E-006  0.1300000E+05  0.7957747E-01  0.1322471E+00
    9000001   -1    0    0    0    0  0.00000000000E+00  0.00000000000E+00  0.64999999231E+04  0.65000000000E+04  0.10000000000E+01 0.  0.
    9000001   -1    0    0    0    0 -0.00000000000E+00 -0.00000000000E+00 -0.64999999231E+04  0.65000000000E+04  0.10000000000E+01 0.  0.
    9000001    1    1    2    0    0 -0.32740619308E+03  0.21453451417E+04 -0.61270138247E+04  0.65000000000E+04  0.10000000000E+01 0.  0.
    9000001    1    1    2    0    0  0.32740619308E+03 -0.21453451417E+04  0.61270138247E+04  0.65000000000E+04  0.10000000000E+01 0.  0.
</event>
<event>
 4    1  0.2201588E-006  0.1300000E+05  0.7957747E-01  0.1322471E+00
    9000001   -1    0    0    0    0  0.00000000000E+00  0.00000000000E+00  0.64999999231E+04  0.65000000000E+04  0.10000000000E+01 0.  0.
    9000001   -1    0    0    0    0 -0.00000000000E+00 -0.00000000000E+00 -0.64999999231E+04  0.65000000000E+04  0.10000000000E+01 0.  0.
    9000001    1    1    2    0    0 -0.53236089295E+04 -0.17553565463E+04 -0.32905790313E+04  0.65000000000E+04  0.10000000000E+01 0.  0.
    9000001    1    1    2    0    0  0.53236089295E+04  0.17553565463E+04  0.32905790313E+04  0.65000000000E+04  0.10000000000E+01 0.  0.
</event>
<event>
 4    1  0.2201588E-006  0.1300000E+05  0.7957747E-01  0.1322471E+00
    9000001   -1    0    0    0    0  0.00000000000E+00  0.00000000000E+00  0.64999999231E+04  0.65000000000E+04  0.10000000000E+01 0.  0.
    9000001   -1    0    0    0    0 -0.00000000000E+00 -0.00000000000E+00 -0.64999999231E+04  0.65000000000E+04  0.10000000000E+01 0.  0.
    9000001    1    1    2    0    0  0.38774279599E+04 -0.52149443679E+04 -0.14109094824E+03  0.65000000000E+04  0.10000000000E+01 0.  0.
    9000001    1    1    2    0    0 -0.38774279599E+04  0.52149443679E+04  0.14109094824E+03  0.65000000000E+04  0.10000000000E+01 0.  0.
</event>
<event>
 4    1  0.2201588E-006  0.1300000E+05  0.7957747E-01  0.1322471E+00
    9000001   -1    0    0    0    0  0.00000000000E+00  0.00000000000E+00  0.64999999231E+04  0.65000000000E+04  0.10000000000E+01 0.  0.
    9000001   -1    0    0    0    0 -0.00000000000E+00 -0.00000000000E+00 -0.64999999231E+04  0.65000000000E+04  0.10000000000E+01 0.  0.
    9000001    1    1    2    0    0  0.50719354063E+04  0.33707084858E+04 -0.22723984109E+04  0.65000000000E+04  0.10000000000E+01 0.  0.
    9000001    1    1    2    0    0 -0.50719354063E+04 -0.33707084858E+04  0.22723984109E+04  0.65000000000E+04  0.10000000000E+01 0.  0.
</event>
<event>
 4    1  0.2201588E-006  0.1300000E+05  0.7957747E-01  0.1322471E+00
    9000001   -1    0    0    0    0  0.00000000000E+00  0.00000000000E+00  0.64999999231E+04  0.65000000000E+04  0.10000000000E+01 0.  0.
    9000001   -1    0    0    0    0 -0.00000000000E+00 -0.00000000000E+00 -0.64999999231E+04  0.65000000000E+04  0.10000000000E+01 0.  0.
    9000001    1    1    2    0    0 -0.29892342570E+04  0.35875702954E+04  0.45214839303E+04  0.65000000000E+04  0.10000000000E+01 0.  0.
    9000001    1    1    2    0    0  0.29892342570E+04 -0.35875702954E+04 -0.45214839303E+04  0.65000000000E+04  0.10000000000E+01 0.  0.
</event>
<event>
 4    1  0.2201588E-006  0.1300000E+05  0.7957747E-01  0.1322471E+00
    9000001   -1    0    0    0    0  0.00000000000E+00  0.00000000000E+00  0.64999999231E+04  0.65000000000E+04  0.10000000000E+01 0.  0.
    9000001   -1    0    0    0    0 -0.00000000000E+00 -0.00000000000E+00 -0.64999999231E+04  0.65000000000E+04  0.10000000000E+01 0.  0.
    9000001    1    1    2    0    0  0.47245240948E+04  0.40281626400E+04  0.19242600715E+04  0.65000000000E+04  0.10000000000E+01 0.  0.
    9000001    1    1    2    0    0 -0.47245240948E+04 -0.40281626400E+04 -0.19242600715E+04  0.65000000000E+04  0.10000000000E+01 0.  0.
</event>
<event>
 4    1  0.2201588E-006  0.1300000E+05  0.7957747E-01  0.1322471E+00
    9000001   -1    0    0    0    0  0.00000000000E+00  0.00000000000E+00  0.64999999231E+04  0.65000000000E+04  0.10000000000E+01 0.  0.
    9000001   -1    0    0    0    0 -0.00000000000E+00 -0.00000000000E+00 -0.64999999231E+04  0.65000000000E+04  0.10000000000E+01 0.  0.
    9000001    1    1    2    0    0 -0.23145252892E+04 -0.13610397523E+04  0.59195052562E+04  0.65000000000E+04  0.10000000000E+01 0.  0.
    9000001    1    1    2    0    0  0.23145252892E+04  0.13610397523E+04 -0.59195052562E+04  0.65000000000E+04  0.10000000000E+01 0.  0.
</event>
<event>
 4    1  0.2201588E-006  0.1300000E+05  0.7957747E-01  0.1322471E+00
    9000001   -1    0    0    0    0  0.00000000000E+00  0.00000000000E+00  0.64999999231E+04  0.65000000000E+04  0.10000000000E+01 0.  0.
    9000001   -1    0    0    0    0 -0.00000000000E+00 -0.00000000000E+00 -0.64999999231E+04  0.65000000000E+04  0.10000000000E+01 0.  0.
    9000001    1    1    2    0    0 -0.50188587242E+04  0.40238196070E+04  0.93270138644E+03  0.65000000000E+04  0.10000000000E+01 0.  0.
    9000001    1    1    2    0    0  0.50188587242E+04 -0.40238196070E+04 -0.93270138644E+03  0.65000000000E+04  0.10000000000E+01 0.  0.
</event>
<event>
 4    1  0.2201588E-006  0.1300000E+05  0.7957747E-01  0.1322471E+00
    9000001   -1    0    0    0    0  0.00000000000E+00  0.00000000000E+00  0.64999999231E+04  0.65000000000E+04  0.10000000000E+01 0.  0.
    9000001   -1    0    0    0    0 -0.00000000000E+00 -0.00000000000E+00 -0.64999999231E+04  0.65000000000E+04  0.10000000000E+01 0.  0.
    9000001    1    1    2    0    0 -0.48301117491E+04 -0.27608365451E+04  0.33612201747E+04  0.65000000000E+04  0.10000000000E+01 0.  0.
    9000001    1    1    2    0    0  0.48301117491E+04  0.27608365451E+04 -0.33612201747E+04  0.65000000000E+04  0.10000000000E+01 0.  0.
</event>
<event>
 4    1  0.2201588E-006  0.1300000E+05  0.7957747E-01  0.1322471E+00
    9000001   -1    0    0    0    0  0.00000000000E+00  0.00000000000E+00  0.64999999231E+04  0.65000000000E+04  0.10000000000E+01 0.  0.
    9000001   -1    0    0    0    0 -0.00000000000E+00 -0.00000000000E+00 -0.64999999231E+04  0.65000000000E+04  0.10000000000E+01 0.  0.
    9000001    1    1    2    0    0 -0.41443785438E+04 -0.14915653501E+04 -0.47801002387E+04  0.65000000000E+04  0.10000000000E+01 0.  0.
    9000001    1    1    2    0    0  0.41443785438E+04  0.14915653501E+04  0.47801002387E+04  0.65000000000E+04  0.10000000000E+01 0.  0.
</event>
<event>
 4    1  0.2201588E-006  0.1300000E+05  0.7957747E-01  0.1322471E+00
    9000001   -1    0    0    0    0  0.00000000000E+00  0.00000000000E+00  0.64999999231E+04  0.65000000000E+04  0.10000000000E+01 0.  0.
    9000001   -1    0    0    0    0 -0.00000000000E+00 -0.00000000000E+00 -0.64999999231E+04  0.65000000000E+04  0.10000000000E+01 0.  0.
    9000001    1    1    2    0    0  0.49759731955E+04  0.41496183146E+04 -0.51995922973E+03  0.65000000000E+04  0.10000000000E+01 0.  0.
    9000001    1    1    2    0    0 -0.49759731955E+04 -0.41496183146E+04  0.51995922973E+03  0.65000000000E+04  0.10000000000E+01 0.  0.
</event>
<event>
 4    1  0.2201588E-006  0.1300000E+05  0.7957747E-01  0.1322471E+00
    9000001   -1    0    0    0    0  0.00000000000E+00  0.00000000000E+00  0.64999999231E+04  0.65000000000E+04  0.10000000000E+01 0.  0.
    9000001   -1    0    0    0    0 -0.00000000000E+00 -0.00000000000E+00 -0.64999999231E+04  0.65000000000E+04  0.10000000000E+01 0.  0.
    9000001    1    1    2    0    0 -0.17387550645E+04 -0.62610858482E+04  0.15979307669E+03  0.65000000000E+04  0.10000000000E+01 0.  0.
    9000001    1    1    2    0    0  0.17387550645E+04  0.62610858482E+04 -0.15979307669E+03  0.65000000000E+04  0.10000000000E+01 0.  0.
</event>
<event>
 4    1  0.2201588E-006  0.1300000E+05  0.7957747E-01  0.1322471E+00
    9000001   -1    0    0    0    0  0.00000000000E+00  0.00000000000E+00  0.64999999231E+04  0.65000000000E+04  0.10000000000E+01 0.  0.
    9000001   -1    0    0    0    0 -0.00000000000E+00 -0.00000000000E+00 -0.64999999231E+04  0.65000000000E+04  0.10000000000E+01 0.  0.
    9000001    1    1    2    0    0 -0.29049930678E+04 -0.17439807214E+04  0.55470303334E+04  0.65000000000E+04  0.10000000000E+01 0.  0.
    9000001    1    1    2    0    0  0.29049930678E+04  0.17439807214E+04 -0.55470303334E+04  0.65000000000E+04  0.10000000000E+01 0.  0.
</event>
<event>
 4    1  0.2201588E-006  0.1300000E+05  0.7957747E-01  0.1322471E+00
    9000001   -1    0    0    0    0  0.00000000000E+00  0.00000000000E+00  0.64999999231E+04  0.65000000000E+04  0.10000000000E+01 0.  0.
    9000001   -1    0    0    0    0 -0.00000000000E+00 -0.00000000000E+00 -0.64999999231E+04  0.65000000000E+04  0.10000000000E+01 0.  0.
    9000001    1    1    2    0    0 -0.53425089398E+04 -0.30719973193E+04 -0.20665018021E+04  0.65000000000E+04  0.10000000000E+01 0.  0.
    9000001    1    1    2    0    0  0.53425089398E+04  0.30719973193E+04  0.20665018021E+04  0.65000000000E+04  0.10000000000E+01 0.  0.
</event>
<event>
 4    1  0.2201588E-006  0.1300000E+05  0.7957747E-01  0.1322471E+00
    9000001   -1    0    0    0    0  0.00000000000E+00  0.00000000000E+00  0.64999999231E+04  0.65000000000E+04  0.10000000000E+01 0.  0.
    9000001   -1    0    0    0    0 -0.00000000000E+00 -0.00000000000E+00 -0.64999999231E+04  0.65000000000E+04  0.10000000000E+01 0.  0.
    9000001    1    1    2    0    0  0.57555758678E+04 -0.25497410922E+04  0.16193102831E+04  0.65000000000E+04  0.10000000000E+01 0.  0.
    9000001    1    1    2    0    0 -0.57555758678E+04  0.25497410922E+04 -0.16193102831E+04  0.65000000000E+04  0.10000000000E+01 0.  0.
</event>
<event>
 4    1  0.2201588E-006  0.1300000E+05  0.7957747E-01  0.1322471E+00
    9000001   -1    0    0    0    0  0.00000000000E+00  0.00000000000E+00  0.64999999231E+04  0.65000000000E+04  0.10000000000E+01 0.  0.
    9000001   -1    0    0    0    0 -0.00000000000E+00 -0.00000000000E+00 -0.64999999231E+04  0.65000000000E+04  0.10000000000E+01 0.  0.
    9000001    1    1    2    0    0  0.18615728961E+03  0.34940312828E+04 -0.54778727494E+04  0.65000000000E+04  0.10000000000E+01 0.  0.
    9000001    1    1    2    0    0 -0.18615728961E+03 -0.34940312828E+04  0.54778727494E+04  0.65000000000E+04  0.10000000000E+01 0.  0.
</event>
<event>
 4    1  0.2201588E-006  0.1300000E+05  0.7957747E-01  0.1322471E+00
    9000001   -1    0    0    0    0  0.00000000000E+00  0.00000000000E+00  0.64999999231E+04  0.65000000000E+04  0.10000000000E+01 0.  0.
    9000001   -1    0    0    0    0 -0.00000000000E+00 -0.00000000000E+00 -0.64999999231E+04  0.65000000000E+04  0.10000000000E+01 0.  0.
    9000001    1    1    2    0    0  0.94045713829E+03  0.55999339143E+04 -0.31632703846E+04  0.65000000000E+04  0.10000000000E+01 0.  0.
    9000001    1    1    2    0    0 -0.94045713829E+03 -0.55999339143E+04  0.31632703846E+04  0.65000000000E+04  0.10000000000E+01 0.  0.
</event>
<event>
 4    1  0.2201588E-006  0.1300000E+05  0.7957747E-01  0.1322471E+00
    9000001   -1    0    0    0    0  0.00000000000E+00  0.00000000000E+00  0.64999999231E+04  0.65000000000E+04  0.10000000000E+01 0.  0.
    9000001   -1    0    0    0    0 -0.00000000000E+00 -0.00000000000E+00 -0.64999999231E+04  0.65000000000E+04  0.10000000000E+01 0.  0.
    9000001    1    1    2    0    0 -0.29690937535E+03 -0.61954122047E+04 -0.19438907987E+04  0.65000000000E+04  0.10000000000E+01 0.  0.
    9000001    1    1    2    0    0  0.29690937535E+03  0.61954122047E+04  0.19438907987E+04  0.65000000000E+04  0.10000000000E+01 0.  0.
</event>
<event>
 4    1  0.2201588E-006  0.1300000E+05  0.7957747E-01  0.1322471E+00
    9000001   -1    0    0    0    0  0.00000000000E+00  0.00000000000E+00  0.64999999231E+04  0.65000000000E+04  0.10000000000E+01 0.  0.
    9000001   -1    0    0    0    0 -0.00000000000E+00 -0.00000000000E+00 -0.64999999231E+04  0.65000000000E+04  0.10000000000E+01 0.  0.
    9000001    1    1    2    0    0 -0.56486817450E+04  0.13158685772E+04 -0.29344306827E+04  0.65000000000E+04  0.10000000000E+01 0.  0.
    9000001    1    1    2    0    0  0.56486817450E+04 -0.13158685772E+04  0.29344306827E+04  0.65000000000E+04  0.10000000000E+01 0.  0.
</event>
<event>
 4    1  0.2201588E-006  0.1300000E+05  0.7957747E-01  0.1322471E+00
    9000001   -1    0    0    0    0  0.00000000000E+00  0.00000000000E+00  0.64999999231E+04  0.65000000000E+04  0.10000000000E+01 0.  0.
    9000001   -1    0    0    0    0 -0.00000000000E+00 -0.00000000000E+00 -0.64999999231E+04  0.65000000000E+04  0.10000000000E+01 0.  0.
    9000001    1    1    2    0    0  0.19958623569E+04  0.58746343230E+04 -0.19378348804E+04  0.65000000000E+04  0.10000000000E+01 0.  0.
    9000001    1    1    2    0    0 -0.19958623569E+04 -0.58746343230E+04  0.19378348804E+04  0.65000000000E+04  0.10000000000E+01 0.  0.
</event>
<event>
 4    1  0.2201588E-006  0.1300000E+05  0.7957747E-01  0.1322471E+00
    9000001   -1    0    0    0    0  0.00000000000E+00  0.00000000000E+00  0.64999999231E+04  0.65000000000E+04  0.10000000000E+01 0.  0.
    9000001   -1    0    0    0    0 -0.00000000000E+00 -0.00000000000E+00 -0.64999999231E+04  0.65000000000E+04  0.10000000000E+01 0.  0.
    9000001    1    1    2    0    0 -0.55723073242E+04  0.22835853282E+04  0.24463499615E+04  0.65000000000E+04  0.10000000000E+01 0.  0.
    9000001    1    1    2    0    0  0.55723073242E+04 -0.22835853282E+04 -0.24463499615E+04  0.65000000000E+04  0.10000000000E+01 0.  0.
</event>
<event>
 4    1  0.2201588E-006  0.1300000E+05  0.7957747E-01  0.1322471E+00
    9000001   -1    0    0    0    0  0.00000000000E+00  0.00000000000E+00  0.64999999231E+04  0.65000000000E+04  0.10000000000E+01 0.  0.
    9000001   -1    0    0    0    0 -0.00000000000E+00 -0.00000000000E+00 -0.64999999231E+04  0.65000000000E+04  0.10000000000E+01 0.  0.
    9000001    1    1    2    0    0 -0.53027500220E+04  0.31785262147E+04  0.20069410320E+04  0.65000000000E+04  0.10000000000E+01 0.  0.
    9000001    1    1    2    0    0  0.53027500220E+04 -0.31785262147E+04 -0.20069410320E+04  0.65000000000E+04  0.10000000000E+01 0.  0.
</event>
<event>
 4    1  0.2201588E-006  0.1300000E+05  0.7957747E-01  0.1322471E+00
    9000001   -1    0    0    0    0  0.00000000000E+00  0.00000000000E+00  0.64999999231E+04  0.65000000000E+04  0.10000000000E+01 0.  0.
    9000001   -1    0    0    0    0 -0.00000000000E+00 -0.00000000000E+00 -0.64999999231E+04  0.65000000000E+04  0.10000000000E+01 0.  0.
    9000001    1    1    2    0    0 -0.13858741611E+04 -0.62785648258E+04  0.95340208640E+03  0.65000000000E+04  0.10000000000E+01 0.  0.
    9000001    1    1    2    0    0  0.13858741611E+04  0.62785648258E+04 -0.95340208640E+03  0.65000000000E+04  0.10000000000E+01 0.  0.
</event>
<event>
 4    1  0.2201588E-006  0.1300000E+05  0.7957747E-01  0.1322471E+00
    9000001   -1    0    0    0    0  0.00000000000E+00  0.00000000000E+00  0.64999999231E+04  0.65000000000E+04  0.10000000000E+01 0.  0.
    9000001   -1    0    0    0    0 -0.00000000000E+00 -0.00000000000E+00 -0.64999999231E+04  0.65000000000E+04  0.10000000000E+01 0.  0.
    9000001    1    1    2    0    0 -0.30449097662E+04 -0.57293321553E+04  0.39150551745E+03  0.65000000000E+04  0.10000000000E+01 0.  0.
    9000001    1    1    2    0    0  0.30449097662E+04  0.57293321553E+04 -0.39150551745E+03  0.65000000000E+04  0.10000000000E+01 0.  0.
</event>
<event>
 4    1  0.2201588E-006  0.1300000E+05  0.7957747E-01  0.1322471E+00
    9000001   -1    0    0    0    0  0.00000000000E+00  0.00000000000E+00  0.64999999231E+04  0.65000000000E+04  0.10000000000E+01 0.  0.
    9000001   -1    0    0    0    0 -0.00000000000E+00 -0.00000000000E+00 -0.64999999231E+04  0.65000000000E+04  0.10000000000E+01 0.  0.
    9000001    1    1    2    0    0 -0.55851209094E+04  0.16169500200E+04  0.29054941163E+04  0.65000000000E+04  0.10000000000E+01 0.  0.
    9000001    1    1    2    0    0  0.55851209094E+04 -0.16169500200E+04 -0.29054941163E+04  0.65000000000E+04  0.10000000000E+01 0.  0.
</event>
<event>
 4    1  0.2201588E-006  0.1300000E+05  0.7957747E-01  0.1322471E+00
    9000001   -1    0    0    0    0  0.00000000000E+00  0.00000000000E+00  0.64999999231E+04  0.65000000000E+04  0.10000000000E+01 0.  0.
    9000001   -1    0    0    0    0 -0.00000000000E+00 -0.00000000000E+00 -0.64999999231E+04  0.65000000000E+04  0.10000000000E+01 0.  0.
    9000001    1    1    2    0    0 -0.34045670091E+04  0.11852693003E+04 -0.54087021702E+04  0.65000000000E+04  0.10000000000E+01 0.  0.
    9000001    1    1    2    0    0  0.34045670091E+04 -0.11852693003E+04  0.54087021702E+04  0.65000000000E+04  0.10000000000E+01 0.  0.
</event>
<event>
 4    1  0.2201588E-006  0.1300000E+05  0.7957747E-01  0.1322471E+00
    9000001   -1    0    0    0    0  0.00000000000E+00  0.00000000000E+00  0.64999999231E+04  0.65000000000E+04  0.10000000000E+01 0.  0.
    9000001   -1    0    0    0    0 -0.00000000000E+00 -0.00000000000E+00 -0.64999999231E+04  0.65000000000E+04  0.10000000000E+01 0.  0.
    9000001    1    1    2    0    0  0.19511905479E+03 -0.38235295364E+04  0.52528610718E+04  0.65000000000E+04  0.10000000000E+01 0.  0.
    9000001    1    1    2    0    0 -0.19511905479E+03  0.38235295364E+04 -0.52528610718E+04  0.65000000000E+04  0.10000000000E+01 0.  0.
</event>
<event>
 4    1  0.2201588E-006  0.1300000E+05  0.7957747E-01  0.1322471E+00
    9000001   -1    0    0    0    0  0.00000000000E+00  0.00000000000E+00  0.64999999231E+04  0.65000000000E+04  0.10000000000E+01 0.  0.
    9000001   -1    0    0    0    0 -0.00000000000E+00 -0.00000000000E+00 -0.64999999231E+04  0.65000000000E+04  0.10000000000E+01 0.  0.
    9000001    1    1    2    0    0  0.40205725235E+02 -0.61171536748E+04 -0.21974561244E+04  0.65000000000E+04  0.10000000000E+01 0.  0.
    9000001    1    1    2    0    0 -0.40205725235E+02  0.61171536748E+04  0.21974561244E+04  0.65000000000E+04  0.10000000000E+01 0.  0.
</event>
<event>
 4    1  0.2201588E-006  0.1300000E+05  0.7957747E-01  0.1322471E+00
    9000001   -1    0    0    0    0  0.00000000000E+00  0.00000000000E+00  0.64999999231E+04  0.65000000000E+04  0.10000000000E+01 0.  0.
    9000001   -1    0    0    0    0 -0.00000000000E+00 -0.00000000000E+00 -0.64999999231E+04  0.65000000000E+04  0.10000000000E+01 0.  0.
    9000001    1    1    2    0    0 -0.40010882852E+04  0.23796684297E+04 -0.45363498211E+04  0.65000000000E+04  0.10000000000E+01 0.  0.
    9000001    1    1    2    0    0  0.40010882852E+04 -0.23796684297E+04  0.45363498211E+04  0.65000000000E+04  0.10000000000E+01 0.  0.
</event>
<event>
 4    1  0.2201588E-006  0.1300000E+05  0.7957747E-01  0.1322471E+00
    9000001   -1    0    0    0    0  0.00000000000E+00  0.00000000000E+00  0.64999999231E+04  0.65000000000E+04  0.10000000000E+01 0.  0.
    9000001   -1    0    0    0    0 -0.00000000000E+00 -0.00000000000E+00 -0.64999999231E+04  0.65000000000E+04  0.10000000000E+01 0.  0.
    9000001    1    1    2    0    0  0.27178959032E+04 -0.14820197089E+04 -0.57154753470E+04  0.65000000000E+04  0.10000000000E+01 0.  0.
    9000001    1    1    2    0    0 -0.27178959032E+04  0.14820197089E+04  0.57154753470E+04  0.65000000000E+04  0.10000000000E+01 0.  0.
</event>
<event>
 4    1  0.2201588E-006  0.1300000E+05  0.7957747E-01  0.1322471E+00
    9000001   -1    0    0    0    0  0.00000000000E+00  0.00000000000E+00  0.64999999231E+04  0.65000000000E+04  0.10000000000E+01 0.  0.
    9000001   -1    0    0    0    0 -0.00000000000E+00 -0.00000000000E+00 -0.64999999231E+04  0.65000000000E+04  0.10000000000E+01 0.  0.
    9000001    1    1    2    0    0 -0.19862723261E+04 -0.58072517156E+04 -0.21402216609E+04  0.65000000000E+04  0.10000000000E+01 0.  0.
    9000001    1    1    2    0    0  0.19862723261E+04  0.58072517156E+04  0.21402216609E+04  0.65000000000E+04  0.10000000000E+01 0.  0.
</event>
<event>
 4    1  0.2201588E-006  0.1300000E+05  0.7957747E-01  0.1322471E+00
    9000001   -1    0    0    0    0  0.00000000000E+00  0.00000000000E+00  0.64999999231E+04  0.65000000000E+04  0.10000000000E+01 0.  0.
    9000001   -1    0    0    0    0 -0.00000000000E+00 -0.00000000000E+00 -0.64999999231E+04  0.65000000000E+04  0.10000000000E+01 0.  0.
    9000001    1    1    2    0    0 -0.58695567508E+04  0.27920286825E+04 -0.53650585912E+02  0.65000000000E+04  0.10000000000E+01 0.  0.
    9000001    1    1    2    0    0  0.58695567508E+04 -0.27920286825E+04  0.53650585912E+02  0.65000000000E+04  0.10000000000E+01 0.  0.
</event>
<event>
 4    1  0.2201588E-006  0.1300000E+05  0.7957747E-01  0.1322471E+00
    9000001   -1    0    0    0    0  0.00000000000E+00  0.00000000000E+00  0.64999999231E+04  0.65000000000E+04  0.10000000000E+01 0.  0.
    9000001   -1    0    0    0    0 -0.00000000000E+00 -0.00000000000E+00 -0.64999999231E+04  0.65000000000E+04  0.10000000000E+01 0.  0.
    9000001    1    1    2    0    0  0.40651402394E+04 -0.13188010593E+04  0.48974889076E+04  0.65000000000E+04  0.10000000000E+01 0.  0.
    9000001    1    1    2    0    0 -0.40651402394E+04  0.13188010593E+04 -0.48974889076E+04  0.65000000000E+04  0.10000000000E+01 0.  0.
</event>
<event>
 4    1  0.2201588E-006  0.1300000E+05  0.7957747E-01  0.1322471E+00
    9000001   -1    0    0    0    0  0.00000000000E+00  0.00000000000E+00  0.64999999231E+04  0.65000000000E+04  0.10000000000E+01 0.  0.
    9000001   -1    0    0    0    0 -0.00000000000E+00 -0.00000000000E+00 -0.64999999231E+04  0.65000000000E+04  0.10000000000E+01 0.  0.
    9000001    1    1    2    0    0 -0.41103570182E+04 -0.17614368323E+04 -0.47172348329E+04  0.65000000000E+04  0.10000000000E+01 0.  0.
    9000001    1    1    2    0    0  0.41103570182E+04  0.17614368323E+04  0.47172348329E+04  0.65000000000E+04  0.10000000000E+01 0.  0.
</event>
<event>
 4    1  0.2201588E-006  0.1300000E+05  0.7957747E-01  0.1322471E+00
    9000001   -1    0    0    0    0  0.00000000000E+00  0.00000000000E+00  0.64999999231E+04  0.65000000000E+04  0.10000000000E+01 0.  0.
    9000001   -1    0    0    0    0 -0.00000000000E+00 -0.00000000000E+00 -0.64999999231E+04  0.65000000000E+04  0.10000000000E+01 0.  0.
    9000001    1    1    2    0    0  0.43072318619E+04  0.25806174197E+04  0.41277313891E+04  0.65000000000E+04  0.10000000000E+01 0.  0.
    9000001    1    1    2    0    0 -0.43072318619E+04 -0.25806174197E+04 -0.41277313891E+04  0.65000000000E+04  0.10000000000E+01 0.  0.
</event>
<event>
 4    1  0.2201588E-006  0.1300000E+05  0.7957747E-01  0.1322471E+00
    9000001   -1    0    0    0    0  0.00000000000E+00  0.00000000000E+00  0.64999999231E+04  0.65000000000E+04  0.10000000000E+01 0.  0.
    9000001   -1    0    0    0    0 -0.00000000000E+00 -0.00000000000E+00 -0.64999999231E+04  0.65000000000E+04  0.10000000000E+01 0.  0.
    9000001    1    1    2    0    0  0.59670415654E+04  0.25774126495E+04  0.36850928913E+02  0.65000000000E+04  0.10000000000E+01 0.  0.
    9000001    1    1    2    0    0 -0.59670415654E+04 -0.25774126495E+04 -0.36850928913E+02  0.65000000000E+04  0.10000000000E+01 0.  0.
</event>
<event>
 4    1  0.2201588E-006  0.1300000E+05  0.7957747E-01  0.1322471E+00
    9000001   -1    0    0    0    0  0.00000000000E+00  0.00000000000E+00  0.64999999231E+04  0.65000000000E+04  0.10000000000E+01 0.  0.
    9000001   -1    0    0    0    0 -0.00000000000E+00 -0.00000000000E+00 -0.64999999231E+04  0.65000000000E+04  0.10000000000E+01 0.  0.
    9000001    1    1    2    0    0  0.49121465764E+04  0.63701928459E+03 -0.42089216485E+04  0.65000000000E+04  0.10000000000E+01 0.  0.
    9000001    1    1    2    0    0 -0.49121465764E+04 -0.63701928459E+03  0.42089216485E+04  0.65000000000E+04  0.10000000000E+01 0.  0.
</event>
<event>
 4    1  0.2201588E-006  0.1300000E+05  0.7957747E-01  0.1322471E+00
    9000001   -1    0    0    0    0  0.00000000000E+00  0.00000000000E+00  0.64999999231E+04  0.65000000000E+04  0.10000000000E+01 0.  0.
    9000001   -1    0    0    0    0 -0.00000000000E+00 -0.00000000000E+00 -0.64999999231E+04  0.65000000000E+04  0.10000000000E+01 0.  0.
    9000001    1    1    2    0    0  0.61906462943E+04  0.22726630432E+03  0.19683108205E+04  0.65000000000E+04  0.10000000000E+01 0.  0.
    9000001    1    1    2    0    0 -0.61906462943E+04 -0.22726630432E+03 -0.19683108205E+04  0.65000000000E+04  0.10000000000E+01 0.  0.
</event>
<event>
 4    1  0.2201588E-006  0.1300000E+05  0.7957747E-01  0.1322471E+00
    9000001   -1    0    0    0    0  0.00000000000E+00  0.00000000000E+00  0.64999999231E+04  0.65000000000E+04  0.10000000000E+01 0.  0.
    9000001   -1    0    0    0    0 -0.00000000000E+00 -0.00000000000E+00 -0.64999999231E+04  0.65000000000E+04  0.10000000000E+01 0.  0.
    9000001    1    1    2    0    0  0.49718825315E+02 -0.55636166303E+04  0.33606096216E+04  0.65000000000E+04  0.10000000000E+01 0.  0.
    9000001    1    1    2    0    0 -0.49718825315E+02  0.55636166303E+04 -0.33606096216E+04  0.65000000000E+04  0.10000000000E+01 0.  0.
</event>
<event>
 4    1  0.2201588E-006  0.1300000E+05  0.7957747E-01  0.1322471E+00
    9000001   -1    0    0    0    0  0.00000000000E+00  0.00000000000E+00  0.64999999231E+04  0.65000000000E+04  0.10000000000E+01 0.  0.
    9000001   -1    0    0    0    0 -0.00000000000E+00 -0.00000000000E+00 -0.64999999231E+04  0.65000000000E+04  0.10000000000E+01 0.  0.
    9000001    1    1    2    0    0  0.50276832846E+04  0.32189375341E+04 -0.25711555654E+04  0.65000000000E+04  0.10000000000E+01 0.  0.
    9000001    1    1    2    0    0 -0.50276832846E+04 -0.32189375341E+04  0.25711555654E+04  0.65000000000E+04  0.10000000000E+01 0.  0.
</event>
<event>
 4    1  0.2201588E-006  0.1300000E+05  0.7957747E-01  0.1322471E+00
    9000001   -1    0    0    0    0  0.00000000000E+00  0.00000000000E+00  0.64999999231E+04  0.65000000000E+04  0.10000000000E+01 0.  0.
    9000001   -1    0    0    0    0 -0.00000000000E+00 -0.00000000000E+00 -0.64999999231E+04  0.65000000000E+04  0.10000000000E+01 0.  0.
    9000001    1    1    2    0    0  0.10358563420E+04 -0.44181050873E+04  0.46537455965E+04  0.65000000000E+04  0.10000000000E+01 0.  0.
    9000001    1    1    2    0    0 -0.10358563420E+04  0.44181050873E+04 -0.46537455965E+04  0.65000000000E+04  0.10000000000E+01 0.  0.
</event>
<event>
 4    1  0.2201588E-006  0.1300000E+05  0.7957747E-01  0.1322471E+00
    9000001   -1    0    0    0    0  0.00000000000E+00  0.00000000000E+00  0.64999999231E+04  0.65000000000E+04  0.10000000000E+01 0.  0.
    9000001   -1    0    0    0    0 -0.00000000000E+00 -0.00000000000E+00 -0.64999999231E+04  0.65000000000E+04  0.10000000000E+01 0.  0.
    9000001    1    1    2    0    0 -0.29676620122E+04  0.36531946166E+03  0.57714402771E+04  0.65000000000E+04  0.10000000000E+01 0.  0.
    9000001    1    1    2    0    0  0.29676620122E+04 -0.36531946166E+03 -0.57714402771E+04  0.65000000000E+04  0.10000000000E+01 0.  0.
</event>
<event>
 4    1  0.2201588E-006  0.1300000E+05  0.7957747E-01  0.1322471E+00
    9000001   -1    0    0    0    0  0.00000000000E+00  0.00000000000E+00  0.64999999231E+04  0.65000000000E+04  0.10000000000E+01 0.  0.
    9000001   -1    0    0    0    0 -0.00000000000E+00 -0.00000000000E+00 -0.64999999231E+04  0.65000000000E+04  0.10000000000E+01 0.  0.
    9000001    1    1    2    0    0  0.44767006965E+03 -0.19424994960E+04  0.61867831881E+04  0.65000000000E+04  0.10000000000E+01 0.  0.
    9000001    1    1    2    0    0 -0.44767006965E+03  0.19424994960E+04 -0.61867831881E+04  0.65000000000E+04  0.10000000000E+01 0.  0.
</event>
<event>
 4    1  0.2201588E-006  0.1300000E+05  0.7957747E-01  0.1322471E+00
    9000001   -1    0    0    0    0  0.00000000000E+00  0.00000000000E+00  0.64999999231E+04  0.65000000000E+04  0.10000000000E+01 0.  0.
    9000001   -1    0    0    0    0 -0.00000000000E+00 -0.00000000000E+00 -0.64999999231E+04  0.65000000000E+04  0.10000000000E+01 0.  0.
    9000001    1    1    2    0    0  0.41220476542E+04  0.11764584073E+04 -0.48861710727E+04  0.65000000000E+04  0.10000000000E+01 0.  0.
    9000001    1    1    2    0    0 -0.41220476542E+04 -0.11764584073E+04  0.48861710727E+04  0.65000000000E+04  0.10000000000E+01 0.  0.
</event>
<event>
 4    1  0.2201588E-006  0.1300000E+05  0.7957747E-01  0.1322471E+00
    9000001   -1    0    0    0    0  0.00000000000E+00  0.00000000000E+00  0.64999999231E+04  0.65000000000E+04  0.10000000000E+01 0.  0.
    9000001   -1    0    0    0    0 -0.00000000000E+00 -0.00000000000E+00 -0.64999999231E+04  0.65000000000E+04  0.10000000000E+01 0.  0.
    9000001    1    1    2    0    0 -0.42581192227E+04 -0.13909251613E+04  0.47099625138E+04  0.65000000000E+04  0.10000000000E+01 0.  0.
    9000001    1    1    2    0    0  0.42581192227E+04  0.13909251613E+04 -0.47099625138E+04  0.65000000000E+04  0.10000000000E+01 0.  0.
</event>
<event>
 4    1  0.2201588E-006  0.1300000E+05  0.7957747E-01  0.1322471E+00
    9000001   -1    0    0    0    0  0.00000000000E+00  0.00000000000E+00  0.64999999231E+04  0.65000000000E+04  0.10000000000E+01 0.  0.
    9000001   -1    0    0    0    0 -0.00000000000E+00 -0.00000000000E+00 -0.64999999231E+04  0.65000000000E+04  0.10000000000E+01 0.  0.
    9000001    1    1    2    0    0 -0.64424877306E+04 -0.75643304481E+03  0.41492154640E+03  0.65000000000E+04  0.10000000000E+01 0.  0.
    9000001    1    1    2    0    0  0.64424877306E+04  0.75643304481E+03 -0.41492154640E+03  0.65000000000E+04  0.10000000000E+01 0.  0.
</event>
<event>
 4    1  0.2201588E-006  0.1300000E+05  0.7957747E-01  0.1322471E+00
    9000001   -1    0    0    0    0  0.00000000000E+00  0.00000000000E+00  0.64999999231E+04  0.65000000000E+04  0.10000000000E+01 0.  0.
    9000001   -1    0    0    0    0 -0.00000000000E+00 -0.00000000000E+00 -0.64999999231E+04  0.65000000000E+04  0.10000000000E+01 0.  0.
    9000001    1    1    2    0    0 -0.27498598250E+04 -0.51184790282E+04  0.29136647681E+04  0.65000000000E+04  0.10000000000E+01 0.  0.
    9000001    1    1    2    0    0  0.27498598250E+04  0.51184790282E+04 -0.29136647681E+04  0.65000000000E+04  0.10000000000E+01 0.  0.
</event>
<event>
 4    1  0.2201588E-006  0.1300000E+05  0.7957747E-01  0.1322471E+00
    9000001   -1    0    0    0    0  0.00000000000E+00  0.00000000000E+00  0.64999999231E+04  0.65000000000E+04  0.10000000000E+01 0.  0.
    9000001   -1    0    0    0    0 -0.00000000000E+00 -0.00000000000E+00 -0.64999999231E+04  0.65000000000E+04  0.10000000000E+01 0.  0.
    9000001    1    1    2    0    0 -0.27601146952E+03 -0.44143976083E+04 -0.47630778310E+04  0.65000000000E+04  0.10000000000E+01 0.  0.
    9000001    1    1    2    0    0  0.27601146952E+03  0.44143976083E+04  0.47630778310E+04  0.65000000000E+04  0.10000000000E+01 0.  0.
</event>
<event>
 4    1  0.2201588E-006  0.1300000E+05  0.7957747E-01  0.1322471E+00
    9000001   -1    0    0    0    0  0.00000000000E+00  0.00000000000E+00  0.64999999231E+04  0.65000000000E+04  0.10000000000E+01 0.  0.
    9000001   -1    0    0    0    0 -0.00000000000E+00 -0.00000000000E+00 -0.64999999231E+04  0.65000000000E+04  0.10000000000E+01 0.  0.
    9000001    1    1    2    0    0  0.62493636894E+03 -0.31208851322E+04 -0.56674094193E+04  0.65000000000E+04  0.10000000000E+01 0.  0.
    9000001    1    1    2    0    0 -0.62493636894E+03  0.31208851322E+04  0.56674094193E+04  0.65000000000E+04  0.10000000000E+01 0.  0.
</event>
<event>
 4    1  0.2201588E-006  0.1300000E+05  0.7957747E-01  0.1322471E+00
    9000001   -1    0    0    0    0  0.00000000000E+00  0.00000000000E+00  0.64999999231E+04  0.65000000000E+04  0.10000000000E+01 0.  0.
    9000001   -1    0    0    0    0 -0.00000000000E+00 -0.00000000000E+00 -0.64999999231E+04  0.65000000000E+04  0.10000000000E+01 0.  0.
    9000001    1    1    2    0    0 -0.29582606944E+04 -0.29299509934E+03 -0.57803846356E+04  0.65000000000E+04  0.10000000000E+01 0.  0.
    9000001    1    1    2    0    0  0.29582606944E+04  0.29299509934E+03  0.57803846356E+04  0.65000000000E+04  0.10000000000E+01 0.  0.
</event>
<event>
 4    1  0.2201588E-006  0.1300000E+05  0.7957747E-01  0.1322471E+00
    9000001   -1    0    0    0    0  0.00000000000E+00  0.00000000000E+00  0.64999999231E+04  0.65000000000E+04  0.10000000000E+01 0.  0.
    9000001   -1    0    0    0    0 -0.00000000000E+00 -0.00000000000E+00 -0.64999999231E+04  0.65000000000E+04  0.10000000000E+01 0.  0.
    9000001    1    1    2    0    0 -0.48081609365E+04 -0.40231893882E+04 -0.17162559703E+04  0.65000000000E+04  0.10000000000E+01 0.  0.
    9000001    1    1    2    0    0  0.48081609365E+04  0.40231893882E+04  0.17162559703E+04  0.65000000000E+04  0.10000000000E+01 0.  0.
</event>
<event>
 4    1  0.2201588E-006  0.1300000E+05  0.7957747E-01  0.1322471E+00
    9000001   -1    0    0    0    0  0.00000000000E+00  0.00000000000E+00  0.64999999231E+04  0.65000000000E+04  0.10000000000E+01 0.  0.
    9000001   -1    0    0    0    0 -0.00000000000E+00 -0.00000000000E+00 -0.64999999231E+04  0.65000000000E+04  0.10000000000E+01 0.  0.
    9000001    1    1    2    0    0  0.34869474095E+04 -0.44889373983E+04  0.31528777011E+04  0.65000000000E+04  0.10000000000E+01 0.  0.
    9000001    1    1    2    0    0 -0.34869474095E+04  0.44889373983E+04 -0.31528777011E+04  0.65000000000E+04  0.10000000000E+01 0.  0.
</event>
<event>
 4    1  0.2201588E-006  0.1300000E+05  0.7957747E-01  0.1322471E+00
    9000001   -1    0    0    0    0  0.00000000000E+00  0.00000000000E+00  0.64999999231E+04  0.65000000000E+04  0.10000000000E+01 0.  0.
    9000001   -1    0    0    0    0 -0.00000000000E+00 -0.00000000000E+00 -0.64999999231E+04  0.65000000000E+04  0.10000000000E+01 0.  0.
    9000001    1    1    2    0    0 -0.57353337681E+04 -0.29065867579E+04 -0.95273237954E+03  0.65000000000E+04  0.10000000000E+01 0.  0.
    9000001    1    1    2    0    0  0.57353337681E+04  0.29065867579E+04  0.95273237954E+03  0.65000000000E+04  0.10000000000E+01 0.  0.
</event>
<event>
 4    1  0.2201588E-006  0.1300000E+05  0.7957747E-01  0.1322471E+00
    9000001   -1    0    0    0    0  0.00000000000E+00  0.00000000000E+00  0.64999999231E+04  0.65000000000E+04  0.10000000000E+01 0.  0.
    9000001   -1    0    0    0    0 -0.00000000000E+00 -0.00000000000E+00 -0.64999999231E+04  0.65000000000E+04  0.10000000000E+01 0.  0.
    9000001    1    1    2    0    0  0.31645073799E+02 -0.33311686895E+04 -0.55814256917E+04  0.65000000000E+04  0.10000000000E+01 0.  0.
    9000001    1    1    2    0    0 -0.31645073799E+02  0.33311686895E+04  0.55814256917E+04  0.65000000000E+04  0.10000000000E+01 0.  0.
</event>
<event>
 4    1  0.2201588E-006  0.1300000E+05  0.7957747E-01  0.1322471E+00
    9000001   -1    0    0    0    0  0.00000000000E+00  0.00000000000E+00  0.64999999231E+04  0.65000000000E+04  0.10000000000E+01 0.  0.
    9000001   -1    0    0    0    0 -0.00000000000E+00 -0.00000000000E+00 -0.64999999231E+04  0.65000000000E+04  0.10000000000E+01 0.  0.
    9000001    1    1    2    0    0 -0.57661771742E+04  0.10926745445E+04  0.27941478372E+04  0.65000000000E+04  0.10000000000E+01 0.  0.
    9000001    1    1    2    0    0  0.57661771742E+04 -0.10926745445E+04 -0.27941478372E+04  0.65000000000E+04  0.10000000000E+01 0.  0.
</event>
<event>
 4    1  0.2201588E-006  0.1300000E+05  0.7957747E-01  0.1322471E+00
    9000001   -1    0    0    0    0  0.00000000000E+00  0.00000000000E+00  0.64999999231E+04  0.65000000000E+04  0.10000000000E+01 0.  0.
    9000001   -1    0    0    0    0 -0.00000000000E+00 -0.00000000000E+00 -0.64999999231E+04  0.65000000000E+04  0.10000000000E+01 0.  0.
    9000001    1    1    2    0    0 -0.62072394810E+04  0.19196949266E+04  0.18694494937E+03  0.65000000000E+04  0.10000000000E+01 0.  0.
    9000001    1    1    2    0    0  0.62072394810E+04 -0.19196949266E+04 -0.18694494937E+03  0.65000000000E+04  0.10000000000E+01 0.  0.
</event>
<event>
 4    1  0.2201588E-006  0.1300000E+05  0.7957747E-01  0.1322471E+00
    9000001   -1    0    0    0    0  0.00000000000E+00  0.00000000000E+00  0.64999999231E+04  0.65000000000E+04  0.10000000000E+01 0.  0.
    9000001   -1    0    0    0    0 -0.00000000000E+00 -0.00000000000E+00 -0.64999999231E+04  0.65000000000E+04  0.10000000000E+01 0.  0.
    9000001    1    1    2    0    0  0.63748583822E+04 -0.12671764384E+04  0.73779952790E+02  0.65000000000E+04  0.10000000000E+01 0.  0.
    9000001    1    1    2    0    0 -0.63748583822E+04  0.12671764384E+04 -0.73779952790E+02  0.65000000000E+04  0.10000000000E+01 0.  0.
</event>
<event>
 4    1  0.2201588E-006  0.1300000E+05  0.7957747E-01  0.1322471E+00
    9000001   -1    0    0    0    0  0.00000000000E+00  0.00000000000E+00  0.64999999231E+04  0.65000000000E+04  0.10000000000E+01 0.  0.
    9000001   -1    0    0    0    0 -0.00000000000E+00 -0.00000000000E+00 -0.64999999231E+04  0.65000000000E+04  0.10000000000E+01 0.  0.
    9000001    1    1    2    0    0  0.43863819468E+04  0.33884402645E+04  0.33953092629E+04  0.65000000000E+04  0.10000000000E+01 0.  0.
    9000001    1    1    2    0    0 -0.43863819468E+04 -0.33884402645E+04 -0.33953092629E+04  0.65000000000E+04  0.10000000000E+01 0.  0.
</event>
<event>
 4    1  0.2201588E-006  0.1300000E+05  0.7957747E-01  0.1322471E+00
    9000001   -1    0    0    0    0  0.00000000000E+00  0.00000000000E+00  0.64999999231E+04  0.65000000000E+04  0.10000000000E+01 0.  0.
    9000001   -1    0    0    0    0 -0.00000000000E+00 -0.00000000000E+00 -0.64999999231E+04  0.65000000000E+04  0.10000000000E+01 0.  0.
    9000001    1    1    2    0    0 -0.63544333301E+04  0.36313975738E+03  0.13188273465E+04  0.65000000000E+04  0.10000000000E+01 0.  0.
    9000001    1    1    2    0    0  0.63544333301E+04 -0.36313975738E+03 -0.13188273465E+04  0.65000000000E+04  0.10000000000E+01 0.  0.
</event>
<event>
 4    1  0.2201588E-006  0.1300000E+05  0.7957747E-01  0.1322471E+00
    9000001   -1    0    0    0    0  0.00000000000E+00  0.00000000000E+00  0.64999999231E+04  0.65000000000E+04  0.10000000000E+01 0.  0.
    9000001   -1    0    0    0    0 -0.00000000000E+00 -0.00000000000E+00 -0.64999999231E+04  0.65000000000E+04  0.10000000000E+01 0.  0.
    9000001    1    1    2    0    0  0.20960846331E+04  0.18875122221E+04  0.58560845129E+04  0.65000000000E+04  0.10000000000E+01 0.  0.
    9000001    1    1    2    0    0 -0.20960846331E+04 -0.18875122221E+04 -0.58560845129E+04  0.65000000000E+04  0.10000000000E+01 0.  0.
</event>
<event>
 4    1  0.2201588E-006  0.1300000E+05  0.7957747E-01  0.1322471E+00
    9000001   -1    0    0    0    0  0.00000000000E+00  0.00000000000E+00  0.64999999231E+04  0.65000000000E+04  0.10000000000E+01 0.  0.
    9000001   -1    0    0    0    0 -0.00000000000E+00 -0.00000000000E+00 -0.64999999231E+04  0.65000000000E+04  0.10000000000E+01 0.  0.
    9000001    1    1    2    0    0  0.20146465643E+03  0.55707089332E+04 -0.33431441749E+04  0.65000000000E+04  0.10000000000E+01 0.  0.
    9000001    1    1    2    0    0 -0.20146465643E+03 -0.55707089332E+04  0.33431441749E+04  0.65000000000E+04  0.10000000000E+01 0.  0.
</event>
<event>
 4    1  0.2201588E-006  0.1300000E+05  0.7957747E-01  0.1322471E+00
    9000001   -1    0    0    0    0  0.00000000000E+00  0.00000000000E+00  0.64999999231E+04  0.65000000000E+04  0.10000000000E+01 0.  0.
    9000001   -1    0    0    0    0 -0.00000000000E+00 -0.00000000000E+00 -0.64999999231E+04  0.65000000000E+04  0.10000000000E+01 0.  0.
    9000001    1    1    2    0    0  0.22424750170E+04  0.60582354697E+04 -0.72047747476E+03  0.65000000000E+04  0.10000000000E+01 0.  0.
    9000001    1    1    2    0    0 -0.22424750170E+04 -0.60582354697E+04  0.72047747476E+03  0.65000000000E+04  0.10000000000E+01 0.  0.
</event>
<event>
 4    1  0.2201588E-006  0.1300000E+05  0.7957747E-01  0.1322471E+00
    9000001   -1    0    0    0    0  0.00000000000E+00  0.00000000000E+00  0.64999999231E+04  0.65000000000E+04  0.10000000000E+01 0.  0.
    9000001   -1    0    0    0    0 -0.00000000000E+00 -0.00000000000E+00 -0.64999999231E+04  0.65000000000E+04  0.10000000000E+01 0.  0.
    9000001    1    1    2    0    0 -0.57256766010E+04  0.10836571029E+04 -0.28796377801E+04  0.65000000000E+04  0.10000000000E+01 0.  0.
    9000001    1    1    2    0    0  0.57256766010E+04 -0.10836571029E+04  0.28796377801E+04  0.65000000000E+04  0.10000000000E+01 0.  0.
</event>
<event>
 4    1  0.2201588E-006  0.1300000E+05  0.7957747E-01  0.1322471E+00
    9000001   -1    0    0    0    0  0.00000000000E+00  0.00000000000E+00  0.64999999231E+04  0.65000000000E+04  0.10000000000E+01 0.  0.
    9000001   -1    0    0    0    0 -0.00000000000E+00 -0.00000000000E+00 -0.64999999231E+04  0.65000000000E+04  0.10000000000E+01 0.  0.
    9000001    1    1    2    0    0  0.10707039999E+04 -0.17707503794E+03 -0.64087624683E+04  0.65000000000E+04  0.10000000000E+01 0.  0.
    9000001    1    1    2    0    0 -0.10707039999E+04  0.17707503794E+03  0.64087624683E+04  0.65000000000E+04  0.10000000000E+01 0.  0.
</event>
<event>
 4    1  0.2201588E-006  0.1300000E+05  0.7957747E-01  0.1322471E+00
    9000001   -1    0    0    0    0  0.00000000000E+00  0.00000000000E+00  0.64999999231E+04  0.65000000000E+04  0.10000000000E+01 0.  0.
    9000001   -1    0    0    0    0 -0.00000000000E+00 -0.00000000000E+00 -0.64999999231E+04  0.65000000000E+04  0.10000000000E+01 0.  0.
    9000001    1    1    2    0    0 -0.51833284402E+04  0.37921510966E+04 -0.10013467637E+04  0.65000000000E+04  0.10000000000E+01 0.  0.
    9000001    1    1    2    0    0  0.51833284402E+04 -0.37921510966E+04  0.10013467637E+04  0.65000000000E+04  0.10000000000E+01 0.  0.
</event>
<event>
 4    1  0.2201588E-006  0.1300000E+05  0.7957747E-01  0.1322471E+00
    9000001   -1    0    0    0    0  0.00000000000E+00  0.00000000000E+00  0.64999999231E+04  0.65000000000E+04  0.10000000000E+01 0.  0.
    9000001   -1    0    0    0    0 -0.00000000000E+00 -0.00000000000E+00 -0.64999999231E+04  0.65000000000E+04  0.10000000000E+01 0.  0.
    9000001    1    1    2    0    0 -0.33564992424E+04 -0.35489213690E+04  0.42882477718E+04  0.65000000000E+04  0.10000000000E+01 0.  0.
    9000001    1    1    2    0    0  0.33564992424E+04  0.35489213690E+04 -0.42882477718E+04  0.65000000000E+04  0.10000000000E+01 0.  0.
</event>
<event>
 4    1  0.2201588E-006  0.1300000E+05  0.7957747E-01  0.1322471E+00
    9000001   -1    0    0    0    0  0.00000000000E+00  0.00000000000E+00  0.64999999231E+04  0.65000000000E+04  0.10000000000E+01 0.  0.
    9000001   -1    0    0    0    0 -0.00000000000E+00 -0.00000000000E+00 -0.64999999231E+04  0.65000000000E+04  0.10000000000E+01 0.  0.
    9000001    1    1    2    0    0  0.23466252917E+04 -0.60228954001E+04 -0.68416353276E+03  0.65000000000E+04  0.10000000000E+01 0.  0.
    9000001    1    1    2    0    0 -0.23466252917E+04  0.60228954001E+04  0.68416353276E+03  0.65000000000E+04  0.10000000000E+01 0.  0.
</event>
<event>
 4    1  0.2201588E-006  0.1300000E+05  0.7957747E-01  0.1322471E+00
    9000001   -1    0    0    0    0  0.00000000000E+00  0.00000000000E+00  0.64999999231E+04  0.65000000000E+04  0.10000000000E+01 0.  0.
    9000001   -1    0    0    0    0 -0.00000000000E+00 -0.00000000000E+00 -0.64999999231E+04  0.65000000000E+04  0.10000000000E+01 0.  0.
    9000001    1    1    2    0    0  0.11713559989E+04 -0.35694401130E+04 -0.53044341266E+04  0.65000000000E+04  0.10000000000E+01 0.  0.
    9000001    1    1    2    0    0 -0.11713559989E+04  0.35694401130E+04  0.53044341266E+04  0.65000000000E+04  0.10000000000E+01 0.  0.
</event>
<event>
 4    1  0.2201588E-006  0.1300000E+05  0.7957747E-01  0.1322471E+00
    9000001   -1    0    0    0    0  0.00000000000E+00  0.00000000000E+00  0.64999999231E+04  0.65000000000E+04  0.10000000000E+01 0.  0.
    9000001   -1    0    0    0    0 -0.00000000000E+00 -0.00000000000E+00 -0.64999999231E+04  0.65000000000E+04  0.10000000000E+01 0.  0.
    9000001    1    1    2    0    0  0.25422658511E+04  0.47994321488E+04  0.35710410795E+04  0.65000000000E+04  0.10000000000E+01 0.  0.
    9000001    1    1    2    0    0 -0.25422658511E+04 -0.47994321488E+04 -0.35710410795E+04  0.65000000000E+04  0.10000000000E+01 0.  0.
</event>
<event>
 4    1  0.2201588E-006  0.1300000E+05  0.7957747E-01  0.1322471E+00
    9000001   -1    0    0    0    0  0.00000000000E+00  0.00000000000E+00  0.64999999231E+04  0.65000000000E+04  0.10000000000E+01 0.  0.
    9000001   -1    0    0    0    0 -0.00000000000E+00 -0.00000000000E+00 -0.64999999231E+04  0.65000000000E+04  0.10000000000E+01 0.  0.
    9000001    1    1    2    0    0  0.19772607913E+04  0.55402905716E+04 -0.27650712730E+04  0.65000000000E+04  0.10000000000E+01 0.  0.
    9000001    1    1    2    0    0 -0.19772607913E+04 -0.55402905716E+04  0.27650712730E+04  0.65000000000E+04  0.10000000000E+01 0.  0.
</event>
<event>
 4    1  0.2201588E-006  0.1300000E+05  0.7957747E-01  0.1322471E+00
    9000001   -1    0    0    0    0  0.00000000000E+00  0.00000000000E+00  0.64999999231E+04  0.65000000000E+04  0.10000000000E+01 0.  0.
    9000001   -1    0    0    0    0 -0.00000000000E+00 -0.00000000000E+00 -0.64999999231E+04  0.65000000000E+04  0.10000000000E+01 0.  0.
    9000001    1    1    2    0    0  0.45281022420E+04 -0.41946837217E+04  0.20373800728E+04  0.65000000000E+04  0.10000000000E+01 0.  0.
    9000001    1    1    2    0    0 -0.45281022420E+04  0.41946837217E+04 -0.20373800728E+04  0.65000000000E+04  0.10000000000E+01 0.  0.
</event>
<event>
 4    1  0.2201588E-006  0.1300000E+05  0.7957747E-01  0.1322471E+00
    9000001   -1    0    0    0    0  0.00000000000E+00  0.00000000000E+00  0.64999999231E+04  0.65000000000E+04  0.10000000000E+01 0.  0.
    9000001   -1    0    0    0    0 -0.00000000000E+00 -0.00000000000E+00 -0.64999999231E+04  0.65000000000E+04  0.10000000000E+01 0.  0.
    9000001    1    1    2    0    0 -0.61676908761E+04  0.20427683001E+04  0.19153571102E+03  0.65000000000E+04  0.10000000000E+01 0.  0.
    9000001    1    1    2    0    0  0.61676908761E+04 -0.20427683001E+04 -0.19153571102E+03  0.65000000000E+04  0.10000000000E+01 0.  0.
</event>
<event>
 4    1  0.2201588E-006  0.1300000E+05  0.7957747E-01  0.1322471E+00
    9000001   -1    0    0    0    0  0.00000000000E+00  0.00000000000E+00  0.64999999231E+04  0.65000000000E+04  0.10000000000E+01 0.  0.
    9000001   -1    0    0    0    0 -0.00000000000E+00 -0.00000000000E+00 -0.64999999231E+04  0.65000000000E+04  0.10000000000E+01 0.  0.
    9000001    1    1    2    0    0 -0.63605652195E+04  0.23255997467E+03 -0.13187588662E+04  0.65000000000E+04  0.10000000000E+01 0.  0.
    9000001    1    1    2    0    0  0.63605652195E+04 -0.23255997467E+03  0.13187588662E+04  0.65000000000E+04  0.10000000000E+01 0.  0.
</event>
<event>
 4    1  0.2201588E-006  0.1300000E+05  0.7957747E-01  0.1322471E+00
    9000001   -1    0    0    0    0  0.00000000000E+00  0.00000000000E+00  0.64999999231E+04  0.65000000000E+04  0.10000000000E+01 0.  0.
    9000001   -1    0    0    0    0 -0.00000000000E+00 -0.00000000000E+00 -0.64999999231E+04  0.65000000000E+04  0.10000000000E+01 0.  0.
    9000001    1    1    2    0    0 -0.45699533273E+04  0.30096955622E+04 -0.35081702081E+04  0.65000000000E+04  0.10000000000E+01 0.  0.
    9000001    1    1    2    0    0  0.45699533273E+04 -0.30096955622E+04  0.35081702081E+04  0.65000000000E+04  0.10000000000E+01 0.  0.
</event>
<event>
 4    1  0.2201588E-006  0.1300000E+05  0.7957747E-01  0.1322471E+00
    9000001   -1    0    0    0    0  0.00000000000E+00  0.00000000000E+00  0.64999999231E+04  0.65000000000E+04  0.10000000000E+01 0.  0.
    9000001   -1    0    0    0    0 -0.00000000000E+00 -0.00000000000E+00 -0.64999999231E+04  0.65000000000E+04  0.10000000000E+01 0.  0.
    9000001    1    1    2    0    0 -0.59474941108E+04 -0.24683364971E+04  0.88579215330E+03  0.65000000000E+04  0.10000000000E+01 0.  0.
    9000001    1    1    2    0    0  0.59474941108E+04  0.24683364971E+04 -0.88579215330E+03  0.65000000000E+04  0.10000000000E+01 0.  0.
</event>
<event>
 4    1  0.2201588E-006  0.1300000E+05  0.7957747E-01  0.1322471E+00
    9000001   -1    0    0    0    0  0.00000000000E+00  0.00000000000E+00  0.64999999231E+04  0.65000000000E+04  0.10000000000E+01 0.  0.
    9000001   -1    0    0    0    0 -0.00000000000E+00 -0.00000000000E+00 -0.64999999231E+04  0.65000000000E+04  0.10000000000E+01 0.  0.
    9000001    1    1    2    0    0 -0.19603244657E+04  0.61706505354E+04 -0.57462941042E+03  0.65000000000E+04  0.10000000000E+01 0.  0.
    9000001    1    1    2    0    0  0.19603244657E+04 -0.61706505354E+04  0.57462941042E+03  0.65000000000E+04  0.10000000000E+01 0.  0.
</event>
<event>
 4    1  0.2201588E-006  0.1300000E+05  0.7957747E-01  0.1322471E+00
    9000001   -1    0    0    0    0  0.00000000000E+00  0.00000000000E+00  0.64999999231E+04  0.65000000000E+04  0.10000000000E+01 0.  0.
    9000001   -1    0    0    0    0 -0.00000000000E+00 -0.00000000000E+00 -0.64999999231E+04  0.65000000000E+04  0.10000000000E+01 0.  0.
    9000001    1    1    2    0    0 -0.35338245740E+04 -0.27731661568E+04 -0.46980455880E+04  0.65000000000E+04  0.10000000000E+01 0.  0.
    9000001    1    1    2    0    0  0.35338245740E+04  0.27731661568E+04  0.46980455880E+04  0.65000000000E+04  0.10000000000E+01 0.  0.
</event>
<event>
 4    1  0.2201588E-006  0.1300000E+05  0.7957747E-01  0.1322471E+00
    9000001   -1    0    0    0    0  0.00000000000E+00  0.00000000000E+00  0.64999999231E+04  0.65000000000E+04  0.10000000000E+01 0.  0.
    9000001   -1    0    0    0    0 -0.00000000000E+00 -0.00000000000E+00 -0.64999999231E+04  0.65000000000E+04  0.10000000000E+01 0.  0.
    9000001    1    1    2    0    0 -0.54341439583E+04  0.24613907732E+04  0.25810141228E+04  0.65000000000E+04  0.10000000000E+01 0.  0.
    9000001    1    1    2    0    0  0.54341439583E+04 -0.24613907732E+04 -0.25810141228E+04  0.65000000000E+04  0.10000000000E+01 0.  0.
</event>
<event>
 4    1  0.2201588E-006  0.1300000E+05  0.7957747E-01  0.1322471E+00
    9000001   -1    0    0    0    0  0.00000000000E+00  0.00000000000E+00  0.64999999231E+04  0.65000000000E+04  0.10000000000E+01 0.  0.
    9000001   -1    0    0    0    0 -0.00000000000E+00 -0.00000000000E+00 -0.64999999231E+04  0.65000000000E+04  0.10000000000E+01 0.  0.
    9000001    1    1    2    0    0  0.32147958868E+04  0.73773812868E+03 -0.56009667790E+04  0.65000000000E+04  0.10000000000E+01 0.  0.
    9000001    1    1    2    0    0 -0.32147958868E+04 -0.73773812868E+03  0.56009667790E+04  0.65000000000E+04  0.10000000000E+01 0.  0.
</event>
<event>
 4    1  0.2201588E-006  0.1300000E+05  0.7957747E-01  0.1322471E+00
    9000001   -1    0    0    0    0  0.00000000000E+00  0.00000000000E+00  0.64999999231E+04  0.65000000000E+04  0.10000000000E+01 0.  0.
    9000001   -1    0    0    0    0 -0.00000000000E+00 -0.00000000000E+00 -0.64999999231E+04  0.65000000000E+04  0.10000000000E+01 0.  0.
    9000001    1    1    2    0    0 -0.65052482560E+03 -0.45289607007E+04  0.46168529782E+04  0.65000000000E+04  0.10000000000E+01 0.  0.
    9000001    1    1    2    0    0  0.65052482560E+03  0.45289607007E+04 -0.46168529782E+04  0.65000000000E+04  0.10000000000E+01 0.  0.
</event>
<event>
 4    1  0.2201588E-006  0.1300000E+05  0.7957747E-01  0.1322471E+00
    9000001   -1    0    0    0    0  0.00000000000E+00  0.00000000000E+00  0.64999999231E+04  0.65000000000E+04  0.10000000000E+01 0.  0.
    9000001   -1    0    0    0    0 -0.00000000000E+00 -0.00000000000E+00 -0.64999999231E+04  0.65000000000E+04  0.10000000000E+01 0.  0.
    9000001    1    1    2    0    0 -0.33307578677E+04  0.35062938548E+04 -0.43430351635E+04  0.65000000000E+04  0.10000000000E+01 0.  0.
    9000001    1    1    2    0    0  0.33307578677E+04 -0.35062938548E+04  0.43430351635E+04  0.65000000000E+04  0.10000000000E+01 0.  0.
</event>
<event>
 4    1  0.2201588E-006  0.1300000E+05  0.7957747E-01  0.1322471E+00
    9000001   -1    0    0    0    0  0.00000000000E+00  0.00000000000E+00  0.64999999231E+04  0.65000000000E+04  0.10000000000E+01 0.  0.
    9000001   -1    0    0    0    0 -0.00000000000E+00 -0.00000000000E+00 -0.64999999231E+04  0.65000000000E+04  0.10000000000E+01 0.  0.
    9000001    1    1    2    0    0 -0.53248271763E+04 -0.21384785716E+04  0.30533791021E+04  0.65000000000E+04  0.10000000000E+01 0.  0.
    9000001    1    1    2    0    0  0.53248271763E+04  0.21384785716E+04 -0.30533791021E+04  0.65000000000E+04  0.10000000000E+01 0.  0.
</event>
<event>
 4    1  0.2201588E-006  0.1300000E+05  0.7957747E-01  0.1322471E+00
    9000001   -1    0    0    0    0  0.00000000000E+00  0.00000000000E+00  0.64999999231E+04  0.65000000000E+04  0.10000000000E+01 0.  0.
    9000001   -1    0    0    0    0 -0.00000000000E+00 -0.00000000000E+00 -0.64999999231E+04  0.65000000000E+04  0.10000000000E+01 0.  0.
    9000001    1    1    2    0    0 -0.13931663372E+04 -0.63050593398E+04  0.74519344994E+03  0.65000000000E+04  0.10000000000E+01 0.  0.
    9000001    1    1    2    0    0  0.13931663372E+04  0.63050593398E+04 -0.74519344994E+03  0.65000000000E+04  0.10000000000E+01 0.  0.
</event>
<event>
 4    1  0.2201588E-006  0.1300000E+05  0.7957747E-01  0.1322471E+00
    9000001   -1    0    0    0    0  0.00000000000E+00  0.00000000000E+00  0.64999999231E+04  0.65000000000E+04  0.10000000000E+01 0.  0.
    9000001   -1    0    0    0    0 -0.00000000000E+00 -0.00000000000E+00 -0.64999999231E+04  0.65000000000E+04  0.10000000000E+01 0.  0.
    9000001    1    1    2    0    0  0.55242259692E+04  0.17035725681E+04  0.29716606378E+04  0.65000000000E+04  0.10000000000E+01 0.  0.
    9000001    1    1    2    0    0 -0.55242259692E+04 -0.17035725681E+04 -0.29716606378E+04  0.65000000000E+04  0.10000000000E+01 0.  0.
</event>
<event>
 4    1  0.2201588E-006  0.1300000E+05  0.7957747E-01  0.1322471E+00
    9000001   -1    0    0    0    0  0.00000000000E+00  0.00000000000E+00  0.64999999231E+04  0.65000000000E+04  0.10000000000E+01 0.  0.
    9000001   -1    0    0    0    0 -0.00000000000E+00 -0.00000000000E+00 -0.64999999231E+04  0.65000000000E+04  0.10000000000E+01 0.  0.
    9000001    1    1    2    0    0 -0.23493219492E+04 -0.57741704326E+04  0.18410978233E+04  0.65000000000E+04  0.10000000000E+01 0.  0.
    9000001    1    1    2    0    0  0.23493219492E+04  0.57741704326E+04 -0.18410978233E+04  0.65000000000E+04  0.10000000000E+01 0.  0.
</event>
<event>
 4    1  0.2201588E-006  0.1300000E+05  0.7957747E-01  0.1322471E+00
    9000001   -1    0    0    0    0  0.00000000000E+00  0.00000000000E+00  0.64999999231E+04  0.65000000000E+04  0.10000000000E+01 0.  0.
    9000001   -1    0    0    0    0 -0.00000000000E+00 -0.00000000000E+00 -0.64999999231E+04  0.65000000000E+04  0.10000000000E+01 0.  0.
    9000001    1    1    2    0    0  0.35847476424E+04 -0.37520513067E+04  0.39142935930E+04  0.65000000000E+04  0.10000000000E+01 0.  0.
    9000001    1    1    2    0    0 -0.35847476424E+04  0.37520513067E+04 -0.39142935930E+04  0.65000000000E+04  0.10000000000E+01 0.  0.
</event>
<event>
 4    1  0.2201588E-006  0.1300000E+05  0.7957747E-01  0.1322471E+00
    9000001   -1    0    0    0    0  0.00000000000E+00  0.00000000000E+00  0.64999999231E+04  0.65000000000E+04  0.10000000000E+01 0.  0.
    9000001   -1    0    0    0    0 -0.00000000000E+00 -0.00000000000E+00 -0.64999999231E+04  0.65000000000E+04  0.10000000000E+01 0.  0.
    9000001    1    1    2    0    0  0.85881590690E+03  0.12969792737E+03 -0.64417088327E+04  0.65000000000E+04  0.10000000000E+01 0.  0.
    9000001    1    1    2    0    0 -0.85881590690E+03 -0.12969792737E+03  0.64417088327E+04  0.65000000000E+04  0.10000000000E+01 0.  0.
</event>
<event>
 4    1  0.2201588E-006  0.1300000E+05  0.7957747E-01  0.1322471E+00
    9000001   -1    0    0    0    0  0.00000000000E+00  0.00000000000E+00  0.64999999231E+04  0.65000000000E+04  0.10000000000E+01 0.  0.
    9000001   -1    0    0    0    0 -0.00000000000E+00 -0.00000000000E+00 -0.64999999231E+04  0.65000000000E+04  0.10000000000E+01 0.  0.
    9000001    1    1    2    0    0 -0.48542096161E+04 -0.13882805509E+04  0.40938154715E+04  0.65000000000E+04  0.10000000000E+01 0.  0.
    9000001    1    1    2    0    0  0.48542096161E+04  0.13882805509E+04 -0.40938154715E+04  0.65000000000E+04  0.10000000000E+01 0.  0.
</event>
<event>
 4    1  0.2201588E-006  0.1300000E+05  0.7957747E-01  0.1322471E+00
    9000001   -1    0    0    0    0  0.00000000000E+00  0.00000000000E+00  0.64999999231E+04  0.65000000000E+04  0.10000000000E+01 0.  0.
    9000001   -1    0    0    0    0 -0.00000000000E+00 -0.00000000000E+00 -0.64999999231E+04  0.65000000000E+04  0.10000000000E+01 0.  0.
    9000001    1    1    2    0    0  0.33515243245E+03 -0.37111618781E+04 -0.53258754549E+04  0.65000000000E+04  0.10000000000E+01 0.  0.
    9000001    1    1    2    0    0 -0.33515243245E+03  0.37111618781E+04  0.53258754549E+04  0.65000000000E+04  0.10000000000E+01 0.  0.
</event>
<event>
 4    1  0.2201588E-006  0.1300000E+05  0.7957747E-01  0.1322471E+00
    9000001   -1    0    0    0    0  0.00000000000E+00  0.00000000000E+00  0.64999999231E+04  0.65000000000E+04  0.10000000000E+01 0.  0.
    9000001   -1    0    0    0    0 -0.00000000000E+00 -0.00000000000E+00 -0.64999999231E+04  0.65000000000E+04  0.10000000000E+01 0.  0.
    9000001    1    1    2    0    0  0.37424681306E+03 -0.65776841747E+03 -0.64557942216E+04  0.65000000000E+04  0.10000000000E+01 0.  0.
    9000001    1    1    2    0    0 -0.37424681306E+03  0.65776841747E+03  0.64557942216E+04  0.65000000000E+04  0.10000000000E+01 0.  0.
</event>
<event>
 4    1  0.2201588E-006  0.1300000E+05  0.7957747E-01  0.1322471E+00
    9000001   -1    0    0    0    0  0.00000000000E+00  0.00000000000E+00  0.64999999231E+04  0.65000000000E+04  0.10000000000E+01 0.  0.
    9000001   -1    0    0    0    0 -0.00000000000E+00 -0.00000000000E+00 -0.64999999231E+04  0.65000000000E+04  0.10000000000E+01 0.  0.
    9000001    1    1    2    0    0 -0.55177087082E+03 -0.12360035889E+04 -0.63575028930E+04  0.65000000000E+04  0.10000000000E+01 0.  0.
    9000001    1    1    2    0    0  0.55177087082E+03  0.12360035889E+04  0.63575028930E+04  0.65000000000E+04  0.10000000000E+01 0.  0.
</event>
<event>
 4    1  0.2201588E-006  0.1300000E+05  0.7957747E-01  0.1322471E+00
    9000001   -1    0    0    0    0  0.00000000000E+00  0.00000000000E+00  0.64999999231E+04  0.65000000000E+04  0.10000000000E+01 0.  0.
    9000001   -1    0    0    0    0 -0.00000000000E+00 -0.00000000000E+00 -0.64999999231E+04  0.65000000000E+04  0.10000000000E+01 0.  0.
    9000001    1    1    2    0    0 -0.27679097377E+04 -0.21441292387E+04 -0.54764390339E+04  0.65000000000E+04  0.10000000000E+01 0.  0.
    9000001    1    1    2    0    0  0.27679097377E+04  0.21441292387E+04  0.54764390339E+04  0.65000000000E+04  0.10000000000E+01 0.  0.
</event>
<event>
 4    1  0.2201588E-006  0.1300000E+05  0.7957747E-01  0.1322471E+00
    9000001   -1    0    0    0    0  0.00000000000E+00  0.00000000000E+00  0.64999999231E+04  0.65000000000E+04  0.10000000000E+01 0.  0.
    9000001   -1    0    0    0    0 -0.00000000000E+00 -0.00000000000E+00 -0.64999999231E+04  0.65000000000E+04  0.10000000000E+01 0.  0.
    9000001    1    1    2    0    0  0.32090759279E+04 -0.10094792260E+04  0.55617247668E+04  0.65000000000E+04  0.10000000000E+01 0.  0.
    9000001    1    1    2    0    0 -0.32090759279E+04  0.10094792260E+04 -0.55617247668E+04  0.65000000000E+04  0.10000000000E+01 0.  0.
</event>
<event>
 4    1  0.2201588E-006  0.1300000E+05  0.7957747E-01  0.1322471E+00
    9000001   -1    0    0    0    0  0.00000000000E+00  0.00000000000E+00  0.64999999231E+04  0.65000000000E+04  0.10000000000E+01 0.  0.
    9000001   -1    0    0    0    0 -0.00000000000E+00 -0.00000000000E+00 -0.64999999231E+04  0.65000000000E+04  0.10000000000E+01 0.  0.
    9000001    1    1    2    0    0 -0.44600724760E+03 -0.61443739356E+04 -0.20731004497E+04  0.65000000000E+04  0.10000000000E+01 0.  0.
    9000001    1    1    2    0    0  0.44600724760E+03  0.61443739356E+04  0.20731004497E+04  0.65000000000E+04  0.10000000000E+01 0.  0.
</event>
<event>
 4    1  0.2201588E-006  0.1300000E+05  0.7957747E-01  0.1322471E+00
    9000001   -1    0    0    0    0  0.00000000000E+00  0.00000000000E+00  0.64999999231E+04  0.65000000000E+04  0.10000000000E+01 0.  0.
    9000001   -1    0    0    0    0 -0.00000000000E+00 -0.00000000000E+00 -0.64999999231E+04  0.65000000000E+04  0.10000000000E+01 0.  0.
    9000001    1    1    2    0    0 -0.63699074771E+04 -0.67127754923E+03 -0.11061935566E+04  0.65000000000E+04  0.10000000000E+01 0.  0.
    9000001    1    1    2    0    0  0.63699074771E+04  0.67127754923E+03  0.11061935566E+04  0.65000000000E+04  0.10000000000E+01 0.  0.
</event>
<event>
 4    1  0.2201588E-006  0.1300000E+05  0.7957747E-01  0.1322471E+00
    9000001   -1    0    0    0    0  0.00000000000E+00  0.00000000000E+00  0.64999999231E+04  0.65000000000E+04  0.10000000000E+01 0.  0.
    9000001   -1    0    0    0    0 -0.00000000000E+00 -0.00000000000E+00 -0.64999999231E+04  0.65000000000E+04  0.10000000000E+01 0.  0.
    9000001    1    1    2    0    0 -0.33756075080E+04 -0.52017248767E+04 -0.19486742311E+04  0.65000000000E+04  0.10000000000E+01 0.  0.
    9000001    1    1    2    0    0  0.33756075080E+04  0.52017248767E+04  0.19486742311E+04  0.65000000000E+04  0.10000000000E+01 0.  0.
</event>
<event>
 4    1  0.2201588E-006  0.1300000E+05  0.7957747E-01  0.1322471E+00
    9000001   -1    0    0    0    0  0.00000000000E+00  0.00000000000E+00  0.64999999231E+04  0.65000000000E+04  0.10000000000E+01 0.  0.
    9000001   -1    0    0    0    0 -0.00000000000E+00 -0.00000000000E+00 -0.64999999231E+04  0.65000000000E+04  0.10000000000E+01 0.  0.
    9000001    1    1    2    0    0 -0.51004036661E+04 -0.30804271527E+04  0.25974699228E+04  0.65000000000E+04  0.10000000000E+01 0.  0.
    9000001    1    1    2    0    0  0.51004036661E+04  0.30804271527E+04 -0.25974699228E+04  0.65000000000E+04  0.10000000000E+01 0.  0.
</event>
<event>
 4    1  0.2201588E-006  0.1300000E+05  0.7957747E-01  0.1322471E+00
    9000001   -1    0    0    0    0  0.00000000000E+00  0.00000000000E+00  0.64999999231E+04  0.65000000000E+04  0.10000000000E+01 0.  0.
    9000001   -1    0    0    0    0 -0.00000000000E+00 -0.00000000000E+00 -0.64999999231E+04  0.65000000000E+04  0.10000000000E+01 0.  0.
    9000001    1    1    2    0    0 -0.18228099524E+03  0.57078309485E+04  0.31044224104E+04  0.65000000000E+04  0.10000000000E+01 0.  0.
    9000001    1    1    2    0    0  0.18228099524E+03 -0.57078309485E+04 -0.31044224104E+04  0.65000000000E+04  0.10000000000E+01 0.  0.
</event>
<event>
 4    1  0.2201588E-006  0.1300000E+05  0.7957747E-01  0.1322471E+00
    9000001   -1    0    0    0    0  0.00000000000E+00  0.00000000000E+00  0.64999999231E+04  0.65000000000E+04  0.10000000000E+01 0.  0.
    9000001   -1    0    0    0    0 -0.00000000000E+00 -0.00000000000E+00 -0.64999999231E+04  0.65000000000E+04  0.10000000000E+01 0.  0.
    9000001    1    1    2    0    0  0.49655848843E+04 -0.23492533418E+04 -0.34747625088E+04  0.65000000000E+04  0.10000000000E+01 0.  0.
    9000001    1    1    2    0    0 -0.49655848843E+04  0.23492533418E+04  0.34747625088E+04  0.65000000000E+04  0.10000000000E+01 0.  0.
</event>
<event>
 4    1  0.2201588E-006  0.1300000E+05  0.7957747E-01  0.1322471E+00
    9000001   -1    0    0    0    0  0.00000000000E+00  0.00000000000E+00  0.64999999231E+04  0.65000000000E+04  0.10000000000E+01 0.  0.
    9000001   -1    0    0    0    0 -0.00000000000E+00 -0.00000000000E+00 -0.64999999231E+04  0.65000000000E+04  0.10000000000E+01 0.  0.
    9000001    1    1    2    0    0  0.26454763201E+04  0.52292807183E+04  0.28117747437E+04  0.65000000000E+04  0.10000000000E+01 0.  0.
    9000001    1    1    2    0    0 -0.26454763201E+04 -0.52292807183E+04 -0.28117747437E+04  0.65000000000E+04  0.10000000000E+01 0.  0.
</event>
<event>
 4    1  0.2201588E-006  0.1300000E+05  0.7957747E-01  0.1322471E+00
    9000001   -1    0    0    0    0  0.00000000000E+00  0.00000000000E+00  0.64999999231E+04  0.65000000000E+04  0.10000000000E+01 0.  0.
    9000001   -1    0    0    0    0 -0.00000000000E+00 -0.00000000000E+00 -0.64999999231E+04  0.65000000000E+04  0.10000000000E+01 0.  0.
    9000001    1    1    2    0    0 -0.17179622701E+04  0.60350638041E+04  0.16960570504E+04  0.65000000000E+04  0.10000000000E+01 0.  0.
    9000001    1    1    2    0    0  0.17179622701E+04 -0.60350638041E+04 -0.16960570504E+04  0.65000000000E+04  0.10000000000E+01 0.  0.
</event>
<event>
 4    1  0.2201588E-006  0.1300000E+05  0.7957747E-01  0.1322471E+00
    9000001   -1    0    0    0    0  0.00000000000E+00  0.00000000000E+00  0.64999999231E+04  0.65000000000E+04  0.10000000000E+01 0.  0.
    9000001   -1    0    0    0    0 -0.00000000000E+00 -0.00000000000E+00 -0.64999999231E+04  0.65000000000E+04  0.10000000000E+01 0.  0.
    9000001    1    1    2    0    0  0.47090344818E+04 -0.32093735714E+04 -0.31264859712E+04  0.65000000000E+04  0.10000000000E+01 0.  0.
    9000001    1    1    2    0    0 -0.47090344818E+04  0.32093735714E+04  0.31264859712E+04  0.65000000000E+04  0.10000000000E+01 0.  0.
</event>
<event>
 4    1  0.2201588E-006  0.1300000E+05  0.7957747E-01  0.1322471E+00
    9000001   -1    0    0    0    0  0.00000000000E+00  0.00000000000E+00  0.64999999231E+04  0.65000000000E+04  0.10000000000E+01 0.  0.
    9000001   -1    0    0    0    0 -0.00000000000E+00 -0.00000000000E+00 -0.64999999231E+04  0.65000000000E+04  0.10000000000E+01 0.  0.
    9000001    1    1    2    0    0  0.61373100690E+04 -0.82969531115E+03  0.19735829874E+04  0.65000000000E+04  0.10000000000E+01 0.  0.
    9000001    1    1    2    0    0 -0.61373100690E+04  0.82969531115E+03 -0.19735829874E+04  0.65000000000E+04  0.10000000000E+01 0.  0.
</event>
<event>
 4    1  0.2201588E-006  0.1300000E+05  0.7957747E-01  0.1322471E+00
    9000001   -1    0    0    0    0  0.00000000000E+00  0.00000000000E+00  0.64999999231E+04  0.65000000000E+04  0.10000000000E+01 0.  0.
    9000001   -1    0    0    0    0 -0.00000000000E+00 -0.00000000000E+00 -0.64999999231E+04  0.65000000000E+04  0.10000000000E+01 0.  0.
    9000001    1    1    2    0    0  0.16230150850E+04 -0.90540609135E+03 -0.62286483962E+04  0.65000000000E+04  0.10000000000E+01 0.  0.
    9000001    1    1    2    0    0 -0.16230150850E+04  0.90540609135E+03  0.62286483962E+04  0.65000000000E+04  0.10000000000E+01 0.  0.
</event>
<event>
 4    1  0.2201588E-006  0.1300000E+05  0.7957747E-01  0.1322471E+00
    9000001   -1    0    0    0    0  0.00000000000E+00  0.00000000000E+00  0.64999999231E+04  0.65000000000E+04  0.10000000000E+01 0.  0.
    9000001   -1    0    0    0    0 -0.00000000000E+00 -0.00000000000E+00 -0.64999999231E+04  0.65000000000E+04  0.10000000000E+01 0.  0.
    9000001    1    1    2    0    0  0.22735587228E+03  0.34122693245E+04  0.55276329803E+04  0.65000000000E+04  0.10000000000E+01 0.  0.
    9000001    1    1    2    0    0 -0.22735587228E+03 -0.34122693245E+04 -0.55276329803E+04  0.65000000000E+04  0.10000000000E+01 0.  0.
</event>
<event>
 4    1  0.2201588E-006  0.1300000E+05  0.7957747E-01  0.1322471E+00
    9000001   -1    0    0    0    0  0.00000000000E+00  0.00000000000E+00  0.64999999231E+04  0.65000000000E+04  0.10000000000E+01 0.  0.
    9000001   -1    0    0    0    0 -0.00000000000E+00 -0.00000000000E+00 -0.64999999231E+04  0.65000000000E+04  0.10000000000E+01 0.  0.
    9000001    1    1    2    0    0 -0.38220040244E+03  0.54864964523E+04  0.34644304772E+04  0.65000000000E+04  0.10000000000E+01 0.  0.
    9000001    1    1    2    0    0  0.38220040244E+03 -0.54864964523E+04 -0.34644304772E+04  0.65000000000E+04  0.10000000000E+01 0.  0.
</event>
<event>
 4    1  0.2201588E-006  0.1300000E+05  0.7957747E-01  0.1322471E+00
    9000001   -1    0    0    0    0  0.00000000000E+00  0.00000000000E+00  0.64999999231E+04  0.65000000000E+04  0.10000000000E+01 0.  0.
    9000001   -1    0    0    0    0 -0.00000000000E+00 -0.00000000000E+00 -0.64999999231E+04  0.65000000000E+04  0.10000000000E+01 0.  0.
    9000001    1    1    2    0    0  0.48085423248E+04  0.40547529097E+04  0.16391761807E+04  0.65000000000E+04  0.10000000000E+01 0.  0.
    9000001    1    1    2    0    0 -0.48085423248E+04 -0.40547529097E+04 -0.16391761807E+04  0.65000000000E+04  0.10000000000E+01 0.  0.
</event>
<event>
 4    1  0.2201588E-006  0.1300000E+05  0.7957747E-01  0.1322471E+00
    9000001   -1    0    0    0    0  0.00000000000E+00  0.00000000000E+00  0.64999999231E+04  0.65000000000E+04  0.10000000000E+01 0.  0.
    9000001   -1    0    0    0    0 -0.00000000000E+00 -0.00000000000E+00 -0.64999999231E+04  0.65000000000E+04  0.10000000000E+01 0.  0.
    9000001    1    1    2    0    0  0.58474079686E+04 -0.28220794206E+04  0.30608298322E+03  0.65000000000E+04  0.10000000000E+01 0.  0.
    9000001    1    1    2    0    0 -0.58474079686E+04  0.28220794206E+04 -0.30608298322E+03  0.65000000000E+04  0.10000000000E+01 0.  0.
</event>
<event>
 4    1  0.2201588E-006  0.1300000E+05  0.7957747E-01  0.1322471E+00
    9000001   -1    0    0    0    0  0.00000000000E+00  0.00000000000E+00  0.64999999231E+04  0.65000000000E+04  0.10000000000E+01 0.  0.
    9000001   -1    0    0    0    0 -0.00000000000E+00 -0.00000000000E+00 -0.64999999231E+04  0.65000000000E+04  0.10000000000E+01 0.  0.
    9000001    1    1    2    0    0 -0.47242619964E+03  0.19626080401E+04  0.61785906295E+04  0.65000000000E+04  0.10000000000E+01 0.  0.
    9000001    1    1    2    0    0  0.47242619964E+03 -0.19626080401E+04 -0.61785906295E+04  0.65000000000E+04  0.10000000000E+01 0.  0.
</event>
<event>
 4    1  0.2201588E-006  0.1300000E+05  0.7957747E-01  0.1322471E+00
    9000001   -1    0    0    0    0  0.00000000000E+00  0.00000000000E+00  0.64999999231E+04  0.65000000000E+04  0.10000000000E+01 0.  0.
    9000001   -1    0    0    0    0 -0.00000000000E+00 -0.00000000000E+00 -0.64999999231E+04  0.65000000000E+04  0.10000000000E+01 0.  0.
    9000001    1    1    2    0    0  0.20573628392E+04 -0.35685902833E+04 -0.50281627398E+04  0.65000000000E+04  0.10000000000E+01 0.  0.
    9000001    1    1    2    0    0 -0.20573628392E+04  0.35685902833E+04  0.50281627398E+04  0.65000000000E+04  0.10000000000E+01 0.  0.
</event>
<event>
 4    1  0.2201588E-006  0.1300000E+05  0.7957747E-01  0.1322471E+00
    9000001   -1    0    0    0    0  0.00000000000E+00  0.00000000000E+00  0.64999999231E+04  0.65000000000E+04  0.10000000000E+01 0.  0.
    9000001   -1    0    0    0    0 -0.00000000000E+00 -0.00000000000E+00 -0.64999999231E+04  0.65000000000E+04  0.10000000000E+01 0.  0.
    9000001    1    1    2    0    0 -0.52262600636E+04  0.33361364121E+04 -0.19509993817E+04  0.65000000000E+04  0.10000000000E+01 0.  0.
    9000001    1    1    2    0    0  0.52262600636E+04 -0.33361364121E+04  0.19509993817E+04  0.65000000000E+04  0.10000000000E+01 0.  0.
</event>
<event>
 4    1  0.2201588E-006  0.1300000E+05  0.7957747E-01  0.1322471E+00
    9000001   -1    0    0    0    0  0.00000000000E+00  0.00000000000E+00  0.64999999231E+04  0.65000000000E+04  0.10000000000E+01 0.  0.
    9000001   -1    0    0    0    0 -0.00000000000E+00 -0.00000000000E+00 -0.64999999231E+04  0.65000000000E+04  0.10000000000E+01 0.  0.
    9000001    1    1    2    0    0  0.45482109365E+04  0.35726336159E+04  0.29664904051E+04  0.65000000000E+04  0.10000000000E+01 0.  0.
    9000001    1    1    2    0    0 -0.45482109365E+04 -0.35726336159E+04 -0.29664904051E+04  0.65000000000E+04  0.10000000000E+01 0.  0.
</event>
<event>
 4    1  0.2201588E-006  0.1300000E+05  0.7957747E-01  0.1322471E+00
    9000001   -1    0    0    0    0  0.00000000000E+00  0.00000000000E+00  0.64999999231E+04  0.65000000000E+04  0.10000000000E+01 0.  0.
    9000001   -1    0    0    0    0 -0.00000000000E+00 -0.00000000000E+00 -0.64999999231E+04  0.65000000000E+04  0.10000000000E+01 0.  0.
    9000001    1    1    2    0    0 -0.22630132033E+04  0.43195498688E+04  0.42977039419E+04  0.65000000000E+04  0.10000000000E+01 0.  0.
    9000001    1    1    2    0    0  0.22630132033E+04 -0.43195498688E+04 -0.42977039419E+04  0.65000000000E+04  0.10000000000E+01 0.  0.
</event>
<event>
 4    1  0.2201588E-006  0.1300000E+05  0.7957747E-01  0.1322471E+00
    9000001   -1    0    0    0    0  0.00000000000E+00  0.00000000000E+00  0.64999999231E+04  0.65000000000E+04  0.10000000000E+01 0.  0.
    9000001   -1    0    0    0    0 -0.00000000000E+00 -0.00000000000E+00 -0.64999999231E+04  0.65000000000E+04  0.10000000000E+01 0.  0.
    9000001    1    1    2    0    0 -0.44039684769E+04 -0.40634595596E+04 -0.25186022040E+04  0.65000000000E+04  0.10000000000E+01 0.  0.
    9000001    1    1    2    0    0  0.44039684769E+04  0.40634595596E+04  0.25186022040E+04  0.65000000000E+04  0.10000000000E+01 0.  0.
</event>
<event>
 4    1  0.2201588E-006  0.1300000E+05  0.7957747E-01  0.1322471E+00
    9000001   -1    0    0    0    0  0.00000000000E+00  0.00000000000E+00  0.64999999231E+04  0.65000000000E+04  0.10000000000E+01 0.  0.
    9000001   -1    0    0    0    0 -0.00000000000E+00 -0.00000000000E+00 -0.64999999231E+04  0.65000000000E+04  0.10000000000E+01 0.  0.
    9000001    1    1    2    0    0 -0.35846126839E+04  0.53377475430E+04  0.95341600232E+03  0.65000000000E+04  0.10000000000E+01 0.  0.
    9000001    1    1    2    0    0  0.35846126839E+04 -0.53377475430E+04 -0.95341600232E+03  0.65000000000E+04  0.10000000000E+01 0.  0.
</event>
<event>
 4    1  0.2201588E-006  0.1300000E+05  0.7957747E-01  0.1322471E+00
    9000001   -1    0    0    0    0  0.00000000000E+00  0.00000000000E+00  0.64999999231E+04  0.65000000000E+04  0.10000000000E+01 0.  0.
    9000001   -1    0    0    0    0 -0.00000000000E+00 -0.00000000000E+00 -0.64999999231E+04  0.65000000000E+04  0.10000000000E+01 0.  0.
    9000001    1    1    2    0    0 -0.57655941434E+03 -0.44497126754E+04 -0.47029390118E+04  0.65000000000E+04  0.10000000000E+01 0.  0.
    9000001    1    1    2    0    0  0.57655941434E+03  0.44497126754E+04  0.47029390118E+04  0.65000000000E+04  0.10000000000E+01 0.  0.
</event>
<event>
 4    1  0.2201588E-006  0.1300000E+05  0.7957747E-01  0.1322471E+00
    9000001   -1    0    0    0    0  0.00000000000E+00  0.00000000000E+00  0.64999999231E+04  0.65000000000E+04  0.10000000000E+01 0.  0.
    9000001   -1    0    0    0    0 -0.00000000000E+00 -0.00000000000E+00 -0.64999999231E+04  0.65000000000E+04  0.10000000000E+01 0.  0.
    9000001    1    1    2    0    0 -0.50985025899E+04  0.13065302999E+04 -0.38142166845E+04  0.65000000000E+04  0.10000000000E+01 0.  0.
    9000001    1    1    2    0    0  0.50985025899E+04 -0.13065302999E+04  0.38142166845E+04  0.65000000000E+04  0.10000000000E+01 0.  0.
</event>
<event>
 4    1  0.2201588E-006  0.1300000E+05  0.7957747E-01  0.1322471E+00
    9000001   -1    0    0    0    0  0.00000000000E+00  0.00000000000E+00  0.64999999231E+04  0.65000000000E+04  0.10000000000E+01 0.  0.
    9000001   -1    0    0    0    0 -0.00000000000E+00 -0.00000000000E+00 -0.64999999231E+04  0.65000000000E+04  0.10000000000E+01 0.  0.
    9000001    1    1    2    0    0  0.11376171718E+04  0.58053542072E+04 -0.26932672908E+04  0.65000000000E+04  0.10000000000E+01 0.  0.
    9000001    1    1    2    0    0 -0.11376171718E+04 -0.58053542072E+04  0.26932672908E+04  0.65000000000E+04  0.10000000000E+01 0.  0.
</event>
<event>
 4    1  0.2201588E-006  0.1300000E+05  0.7957747E-01  0.1322471E+00
    9000001   -1    0    0    0    0  0.00000000000E+00  0.00000000000E+00  0.64999999231E+04  0.65000000000E+04  0.10000000000E+01 0.  0.
    9000001   -1    0    0    0    0 -0.00000000000E+00 -0.00000000000E+00 -0.64999999231E+04  0.65000000000E+04  0.10000000000E+01 0.  0.
    9000001    1    1    2    0    0 -0.63720792495E+04  0.14128291058E+03  0.12753996146E+04  0.65000000000E+04  0.10000000000E+01 0.  0.
    9000001    1    1    2    0    0  0.63720792495E+04 -0.14128291058E+03 -0.12753996146E+04  0.65000000000E+04  0.10000000000E+01 0.  0.
</event>
<event>
 4    1  0.2201588E-006  0.1300000E+05  0.7957747E-01  0.1322471E+00
    9000001   -1    0    0    0    0  0.00000000000E+00  0.00000000000E+00  0.64999999231E+04  0.65000000000E+04  0.10000000000E+01 0.  0.
    9000001   -1    0    0    0    0 -0.00000000000E+00 -0.00000000000E+00 -0.64999999231E+04  0.65000000000E+04  0.10000000000E+01 0.  0.
    9000001    1    1    2    0    0 -0.33296925165E+04  0.34911845454E+04  0.43560047309E+04  0.65000000000E+04  0.10000000000E+01 0.  0.
    9000001    1    1    2    0    0  0.33296925165E+04 -0.34911845454E+04 -0.43560047309E+04  0.65000000000E+04  0.10000000000E+01 0.  0.
</event>
<event>
 4    1  0.2201588E-006  0.1300000E+05  0.7957747E-01  0.1322471E+00
    9000001   -1    0    0    0    0  0.00000000000E+00  0.00000000000E+00  0.64999999231E+04  0.65000000000E+04  0.10000000000E+01 0.  0.
    9000001   -1    0    0    0    0 -0.00000000000E+00 -0.00000000000E+00 -0.64999999231E+04  0.65000000000E+04  0.10000000000E+01 0.  0.
    9000001    1    1    2    0    0 -0.88377609860E+03 -0.42560302768E+04  0.48327161194E+04  0.65000000000E+04  0.10000000000E+01 0.  0.
    9000001    1    1    2    0    0  0.88377609860E+03  0.42560302768E+04 -0.48327161194E+04  0.65000000000E+04  0.10000000000E+01 0.  0.
</event>
<event>
 4    1  0.2201588E-006  0.1300000E+05  0.7957747E-01  0.1322471E+00
    9000001   -1    0    0    0    0  0.00000000000E+00  0.00000000000E+00  0.64999999231E+04  0.65000000000E+04  0.10000000000E+01 0.  0.
    9000001   -1    0    0    0    0 -0.00000000000E+00 -0.00000000000E+00 -0.64999999231E+04  0.65000000000E+04  0.10000000000E+01 0.  0.
    9000001    1    1    2    0    0 -0.21349457867E+04 -0.10385660891E+03  0.61385030173E+04  0.65000000000E+04  0.10000000000E+01 0.  0.
    9000001    1    1    2    0    0  0.21349457867E+04  0.10385660891E+03 -0.61385030173E+04  0.65000000000E+04  0.10000000000E+01 0.  0.
</event>
<event>
 4    1  0.2201588E-006  0.1300000E+05  0.7957747E-01  0.1322471E+00
    9000001   -1    0    0    0    0  0.00000000000E+00  0.00000000000E+00  0.64999999231E+04  0.65000000000E+04  0.10000000000E+01 0.  0.
    9000001   -1    0    0    0    0 -0.00000000000E+00 -0.00000000000E+00 -0.64999999231E+04  0.65000000000E+04  0.10000000000E+01 0.  0.
    9000001    1    1    2    0    0 -0.37796738900E+04  0.32740014526E+02 -0.52880045742E+04  0.65000000000E+04  0.10000000000E+01 0.  0.
    9000001    1    1    2    0    0  0.37796738900E+04 -0.32740014526E+02  0.52880045742E+04  0.65000000000E+04  0.10000000000E+01 0.  0.
</event>
<event>
 4    1  0.2201588E-006  0.1300000E+05  0.7957747E-01  0.1322471E+00
    9000001   -1    0    0    0    0  0.00000000000E+00  0.00000000000E+00  0.64999999231E+04  0.65000000000E+04  0.10000000000E+01 0.  0.
    9000001   -1    0    0    0    0 -0.00000000000E+00 -0.00000000000E+00 -0.64999999231E+04  0.65000000000E+04  0.10000000000E+01 0.  0.
    9000001    1    1    2    0    0  0.53093869099E+04 -0.37485515826E+04  0.93651873901E+02  0.65000000000E+04  0.10000000000E+01 0.  0.
    9000001    1    1    2    0    0 -0.53093869099E+04  0.37485515826E+04 -0.93651873901E+02  0.65000000000E+04  0.10000000000E+01 0.  0.
</event>
<event>
 4    1  0.2201588E-006  0.1300000E+05  0.7957747E-01  0.1322471E+00
    9000001   -1    0    0    0    0  0.00000000000E+00  0.00000000000E+00  0.64999999231E+04  0.65000000000E+04  0.10000000000E+01 0.  0.
    9000001   -1    0    0    0    0 -0.00000000000E+00 -0.00000000000E+00 -0.64999999231E+04  0.65000000000E+04  0.10000000000E+01 0.  0.
    9000001    1    1    2    0    0  0.29408755762E+04 -0.13760622243E+04  0.56309592966E+04  0.65000000000E+04  0.10000000000E+01 0.  0.
    9000001    1    1    2    0    0 -0.29408755762E+04  0.13760622243E+04 -0.56309592966E+04  0.65000000000E+04  0.10000000000E+01 0.  0.
</event>
<event>
 4    1  0.2201588E-006  0.1300000E+05  0.7957747E-01  0.1322471E+00
    9000001   -1    0    0    0    0  0.00000000000E+00  0.00000000000E+00  0.64999999231E+04  0.65000000000E+04  0.10000000000E+01 0.  0.
    9000001   -1    0    0    0    0 -0.00000000000E+00 -0.00000000000E+00 -0.64999999231E+04  0.65000000000E+04  0.10000000000E+01 0.  0.
    9000001    1    1    2    0    0 -0.40707110911E+04  0.49998213720E+04 -0.82528568402E+03  0.65000000000E+04  0.10000000000E+01 0.  0.
    9000001    1    1    2    0    0  0.40707110911E+04 -0.49998213720E+04  0.82528568402E+03  0.65000000000E+04  0.10000000000E+01 0.  0.
</event>
<event>
 4    1  0.2201588E-006  0.1300000E+05  0.7957747E-01  0.1322471E+00
    9000001   -1    0    0    0    0  0.00000000000E+00  0.00000000000E+00  0.64999999231E+04  0.65000000000E+04  0.10000000000E+01 0.  0.
    9000001   -1    0    0    0    0 -0.00000000000E+00 -0.00000000000E+00 -0.64999999231E+04  0.65000000000E+04  0.10000000000E+01 0.  0.
    9000001    1    1    2    0    0  0.57423485274E+04  0.25714081805E+04  0.16319596682E+04  0.65000000000E+04  0.10000000000E+01 0.  0.
    9000001    1    1    2    0    0 -0.57423485274E+04 -0.25714081805E+04 -0.16319596682E+04  0.65000000000E+04  0.10000000000E+01 0.  0.
</event>
<event>
 4    1  0.2201588E-006  0.1300000E+05  0.7957747E-01  0.1322471E+00
    9000001   -1    0    0    0    0  0.00000000000E+00  0.00000000000E+00  0.64999999231E+04  0.65000000000E+04  0.10000000000E+01 0.  0.
    9000001   -1    0    0    0    0 -0.00000000000E+00 -0.00000000000E+00 -0.64999999231E+04  0.65000000000E+04  0.10000000000E+01 0.  0.
    9000001    1    1    2    0    0 -0.11367979818E+04  0.47067546485E+04  0.43363752176E+04  0.65000000000E+04  0.10000000000E+01 0.  0.
    9000001    1    1    2    0    0  0.11367979818E+04 -0.47067546485E+04 -0.43363752176E+04  0.65000000000E+04  0.10000000000E+01 0.  0.
</event>
<event>
 4    1  0.2201588E-006  0.1300000E+05  0.7957747E-01  0.1322471E+00
    9000001   -1    0    0    0    0  0.00000000000E+00  0.00000000000E+00  0.64999999231E+04  0.65000000000E+04  0.10000000000E+01 0.  0.
    9000001   -1    0    0    0    0 -0.00000000000E+00 -0.00000000000E+00 -0.64999999231E+04  0.65000000000E+04  0.10000000000E+01 0.  0.
    9000001    1    1    2    0    0  0.51283476833E+04 -0.30763688420E+04  0.25467633943E+04  0.65000000000E+04  0.10000000000E+01 0.  0.
    9000001    1    1    2    0    0 -0.51283476833E+04  0.30763688420E+04 -0.25467633943E+04  0.65000000000E+04  0.10000000000E+01 0.  0.
</event>
<event>
 4    1  0.2201588E-006  0.1300000E+05  0.7957747E-01  0.1322471E+00
    9000001   -1    0    0    0    0  0.00000000000E+00  0.00000000000E+00  0.64999999231E+04  0.65000000000E+04  0.10000000000E+01 0.  0.
    9000001   -1    0    0    0    0 -0.00000000000E+00 -0.00000000000E+00 -0.64999999231E+04  0.65000000000E+04  0.10000000000E+01 0.  0.
    9000001    1    1    2    0    0  0.15131681677E+04 -0.15282105595E+04 -0.61339133986E+04  0.65000000000E+04  0.10000000000E+01 0.  0.
    9000001    1    1    2    0    0 -0.15131681677E+04  0.15282105595E+04  0.61339133986E+04  0.65000000000E+04  0.10000000000E+01 0.  0.
</event>
<event>
 4    1  0.2201588E-006  0.1300000E+05  0.7957747E-01  0.1322471E+00
    9000001   -1    0    0    0    0  0.00000000000E+00  0.00000000000E+00  0.64999999231E+04  0.65000000000E+04  0.10000000000E+01 0.  0.
    9000001   -1    0    0    0    0 -0.00000000000E+00 -0.00000000000E+00 -0.64999999231E+04  0.65000000000E+04  0.10000000000E+01 0.  0.
    9000001    1    1    2    0    0 -0.15589682376E+04 -0.55170669836E+04  0.30629379577E+04  0.65000000000E+04  0.10000000000E+01 0.  0.
    9000001    1    1    2    0    0  0.15589682376E+04  0.55170669836E+04 -0.30629379577E+04  0.65000000000E+04  0.10000000000E+01 0.  0.
</event>
<event>
 4    1  0.2201588E-006  0.1300000E+05  0.7957747E-01  0.1322471E+00
    9000001   -1    0    0    0    0  0.00000000000E+00  0.00000000000E+00  0.64999999231E+04  0.65000000000E+04  0.10000000000E+01 0.  0.
    9000001   -1    0    0    0    0 -0.00000000000E+00 -0.00000000000E+00 -0.64999999231E+04  0.65000000000E+04  0.10000000000E+01 0.  0.
    9000001    1    1    2    0    0  0.29142669602E+04  0.74190070269E+03  0.57625194518E+04  0.65000000000E+04  0.10000000000E+01 0.  0.
    9000001    1    1    2    0    0 -0.29142669602E+04 -0.74190070269E+03 -0.57625194518E+04  0.65000000000E+04  0.10000000000E+01 0.  0.
</event>
<event>
 4    1  0.2201588E-006  0.1300000E+05  0.7957747E-01  0.1322471E+00
    9000001   -1    0    0    0    0  0.00000000000E+00  0.00000000000E+00  0.64999999231E+04  0.65000000000E+04  0.10000000000E+01 0.  0.
    9000001   -1    0    0    0    0 -0.00000000000E+00 -0.00000000000E+00 -0.64999999231E+04  0.65000000000E+04  0.10000000000E+01 0.  0.
    9000001    1    1    2    0    0  0.30632547260E+04  0.54370415088E+03 -0.57070881612E+04  0.65000000000E+04  0.10000000000E+01 0.  0.
    9000001    1    1    2    0    0 -0.30632547260E+04 -0.54370415088E+03  0.57070881612E+04  0.65000000000E+04  0.10000000000E+01 0.  0.
</event>
<event>
 4    1  0.2201588E-006  0.1300000E+05  0.7957747E-01  0.1322471E+00
    9000001   -1    0    0    0    0  0.00000000000E+00  0.00000000000E+00  0.64999999231E+04  0.65000000000E+04  0.10000000000E+01 0.  0.
    9000001   -1    0    0    0    0 -0.00000000000E+00 -0.00000000000E+00 -0.64999999231E+04  0.65000000000E+04  0.10000000000E+01 0.  0.
    9000001    1    1    2    0    0  0.37130881228E+04  0.43029404250E+04 -0.31539941805E+04  0.65000000000E+04  0.10000000000E+01 0.  0.
    9000001    1    1    2    0    0 -0.37130881228E+04 -0.43029404250E+04  0.31539941805E+04  0.65000000000E+04  0.10000000000E+01 0.  0.
</event>
<event>
 4    1  0.2201588E-006  0.1300000E+05  0.7957747E-01  0.1322471E+00
    9000001   -1    0    0    0    0  0.00000000000E+00  0.00000000000E+00  0.64999999231E+04  0.65000000000E+04  0.10000000000E+01 0.  0.
    9000001   -1    0    0    0    0 -0.00000000000E+00 -0.00000000000E+00 -0.64999999231E+04  0.65000000000E+04  0.10000000000E+01 0.  0.
    9000001    1    1    2    0    0 -0.61095689950E+04  0.12095542092E+04  0.18601463140E+04  0.65000000000E+04  0.10000000000E+01 0.  0.
    9000001    1    1    2    0    0  0.61095689950E+04 -0.12095542092E+04 -0.18601463140E+04  0.65000000000E+04  0.10000000000E+01 0.  0.
</event>
<event>
 4    1  0.2201588E-006  0.1300000E+05  0.7957747E-01  0.1322471E+00
    9000001   -1    0    0    0    0  0.00000000000E+00  0.00000000000E+00  0.64999999231E+04  0.65000000000E+04  0.10000000000E+01 0.  0.
    9000001   -1    0    0    0    0 -0.00000000000E+00 -0.00000000000E+00 -0.64999999231E+04  0.65000000000E+04  0.10000000000E+01 0.  0.
    9000001    1    1    2    0    0  0.11589078519E+04  0.25325948207E+04 -0.58730652188E+04  0.65000000000E+04  0.10000000000E+01 0.  0.
    9000001    1    1    2    0    0 -0.11589078519E+04 -0.25325948207E+04  0.58730652188E+04  0.65000000000E+04  0.10000000000E+01 0.  0.
</event>
<event>
 4    1  0.2201588E-006  0.1300000E+05  0.7957747E-01  0.1322471E+00
    9000001   -1    0    0    0    0  0.00000000000E+00  0.00000000000E+00  0.64999999231E+04  0.65000000000E+04  0.10000000000E+01 0.  0.
    9000001   -1    0    0    0    0 -0.00000000000E+00 -0.00000000000E+00 -0.64999999231E+04  0.65000000000E+04  0.10000000000E+01 0.  0.
    9000001    1    1    2    0    0 -0.32435010118E+04 -0.38759765055E+04 -0.40873593328E+04  0.65000000000E+04  0.10000000000E+01 0.  0.
    9000001    1    1    2    0    0  0.32435010118E+04  0.38759765055E+04  0.40873593328E+04  0.65000000000E+04  0.10000000000E+01 0.  0.
</event>
<event>
 4    1  0.2201588E-006  0.1300000E+05  0.7957747E-01  0.1322471E+00
    9000001   -1    0    0    0    0  0.00000000000E+00  0.00000000000E+00  0.64999999231E+04  0.65000000000E+04  0.10000000000E+01 0.  0.
    9000001   -1    0    0    0    0 -0.00000000000E+00 -0.00000000000E+00 -0.64999999231E+04  0.65000000000E+04  0.10000000000E+01 0.  0.
    9000001    1    1    2    0    0  0.65935897254E+03  0.13608494465E+04  0.63216559167E+04  0.65000000000E+04  0.10000000000E+01 0.  0.
    9000001    1    1    2    0    0 -0.65935897254E+03 -0.13608494465E+04 -0.63216559167E+04  0.65000000000E+04  0.10000000000E+01 0.  0.
</event>
<event>
 4    1  0.2201588E-006  0.1300000E+05  0.7957747E-01  0.1322471E+00
    9000001   -1    0    0    0    0  0.00000000000E+00  0.00000000000E+00  0.64999999231E+04  0.65000000000E+04  0.10000000000E+01 0.  0.
    9000001   -1    0    0    0    0 -0.00000000000E+00 -0.00000000000E+00 -0.64999999231E+04  0.65000000000E+04  0.10000000000E+01 0.  0.
    9000001    1    1    2    0    0  0.62560706491E+04 -0.29822203290E+03 -0.17385748914E+04  0.65000000000E+04  0.10000000000E+01 0.  0.
    9000001    1    1    2    0    0 -0.62560706491E+04  0.29822203290E+03  0.17385748914E+04  0.65000000000E+04  0.10000000000E+01 0.  0.
</event>
<event>
 4    1  0.2201588E-006  0.1300000E+05  0.7957747E-01  0.1322471E+00
    9000001   -1    0    0    0    0  0.00000000000E+00  0.00000000000E+00  0.64999999231E+04  0.65000000000E+04  0.10000000000E+01 0.  0.
    9000001   -1    0    0    0    0 -0.00000000000E+00 -0.00000000000E+00 -0.64999999231E+04  0.65000000000E+04  0.10000000000E+01 0.  0.
    9000001    1    1    2    0    0  0.39943397916E+04  0.34026847839E+04  0.38362722650E+04  0.65000000000E+04  0.10000000000E+01 0.  0.
    9000001    1    1    2    0    0 -0.39943397916E+04 -0.34026847839E+04 -0.38362722650E+04  0.65000000000E+04  0.10000000000E+01 0.  0.
</event>
<event>
 4    1  0.2201588E-006  0.1300000E+05  0.7957747E-01  0.1322471E+00
    9000001   -1    0    0    0    0  0.00000000000E+00  0.00000000000E+00  0.64999999231E+04  0.65000000000E+04  0.10000000000E+01 0.  0.
    9000001   -1    0    0    0    0 -0.00000000000E+00 -0.00000000000E+00 -0.64999999231E+04  0.65000000000E+04  0.10000000000E+01 0.  0.
    9000001    1    1    2    0    0 -0.17701468991E+03 -0.64868686375E+04  0.37309526835E+03  0.65000000000E+04  0.10000000000E+01 0.  0.
    9000001    1    1    2    0    0  0.17701468991E+03  0.64868686375E+04 -0.37309526835E+03  0.65000000000E+04  0.10000000000E+01 0.  0.
</event>
<event>
 4    1  0.2201588E-006  0.1300000E+05  0.7957747E-01  0.1322471E+00
    9000001   -1    0    0    0    0  0.00000000000E+00  0.00000000000E+00  0.64999999231E+04  0.65000000000E+04  0.10000000000E+01 0.  0.
    9000001   -1    0    0    0    0 -0.00000000000E+00 -0.00000000000E+00 -0.64999999231E+04  0.65000000000E+04  0.10000000000E+01 0.  0.
    9000001    1    1    2    0    0 -0.24907133732E+03 -0.58034593253E+04  0.29168171573E+04  0.65000000000E+04  0.10000000000E+01 0.  0.
    9000001    1    1    2    0    0  0.24907133732E+03  0.58034593253E+04 -0.29168171573E+04  0.65000000000E+04  0.10000000000E+01 0.  0.
</event>
<event>
 4    1  0.2201588E-006  0.1300000E+05  0.7957747E-01  0.1322471E+00
    9000001   -1    0    0    0    0  0.00000000000E+00  0.00000000000E+00  0.64999999231E+04  0.65000000000E+04  0.10000000000E+01 0.  0.
    9000001   -1    0    0    0    0 -0.00000000000E+00 -0.00000000000E+00 -0.64999999231E+04  0.65000000000E+04  0.10000000000E+01 0.  0.
    9000001    1    1    2    0    0  0.97389411213E+03  0.61498513475E+04 -0.18657056740E+04  0.65000000000E+04  0.10000000000E+01 0.  0.
    9000001    1    1    2    0    0 -0.97389411213E+03 -0.61498513475E+04  0.18657056740E+04  0.65000000000E+04  0.10000000000E+01 0.  0.
</event>
<event>
 4    1  0.2201588E-006  0.1300000E+05  0.7957747E-01  0.1322471E+00
    9000001   -1    0    0    0    0  0.00000000000E+00  0.00000000000E+00  0.64999999231E+04  0.65000000000E+04  0.10000000000E+01 0.  0.
    9000001   -1    0    0    0    0 -0.00000000000E+00 -0.00000000000E+00 -0.64999999231E+04  0.65000000000E+04  0.10000000000E+01 0.  0.
    9000001    1    1    2    0    0  0.59888360194E+03 -0.99152041311E+03  0.63959537758E+04  0.65000000000E+04  0.10000000000E+01 0.  0.
    9000001    1    1    2    0    0 -0.59888360194E+03  0.99152041311E+03 -0.63959537758E+04  0.65000000000E+04  0.10000000000E+01 0.  0.
</event>
<event>
 4    1  0.2201588E-006  0.1300000E+05  0.7957747E-01  0.1322471E+00
    9000001   -1    0    0    0    0  0.00000000000E+00  0.00000000000E+00  0.64999999231E+04  0.65000000000E+04  0.10000000000E+01 0.  0.
    9000001   -1    0    0    0    0 -0.00000000000E+00 -0.00000000000E+00 -0.64999999231E+04  0.65000000000E+04  0.10000000000E+01 0.  0.
    9000001    1    1    2    0    0  0.51124817929E+04  0.38174845986E+04  0.12407015180E+04  0.65000000000E+04  0.10000000000E+01 0.  0.
    9000001    1    1    2    0    0 -0.51124817929E+04 -0.38174845986E+04 -0.12407015180E+04  0.65000000000E+04  0.10000000000E+01 0.  0.
</event>
<event>
 4    1  0.2201588E-006  0.1300000E+05  0.7957747E-01  0.1322471E+00
    9000001   -1    0    0    0    0  0.00000000000E+00  0.00000000000E+00  0.64999999231E+04  0.65000000000E+04  0.10000000000E+01 0.  0.
    9000001   -1    0    0    0    0 -0.00000000000E+00 -0.00000000000E+00 -0.64999999231E+04  0.65000000000E+04  0.10000000000E+01 0.  0.
    9000001    1    1    2    0    0  0.53954452625E+04 -0.34826528670E+04 -0.10051360242E+04  0.65000000000E+04  0.10000000000E+01 0.  0.
    9000001    1    1    2    0    0 -0.53954452625E+04  0.34826528670E+04  0.10051360242E+04  0.65000000000E+04  0.10000000000E+01 0.  0.
</event>
<event>
 4    1  0.2201588E-006  0.1300000E+05  0.7957747E-01  0.1322471E+00
    9000001   -1    0    0    0    0  0.00000000000E+00  0.00000000000E+00  0.64999999231E+04  0.65000000000E+04  0.10000000000E+01 0.  0.
    9000001   -1    0    0    0    0 -0.00000000000E+00 -0.00000000000E+00 -0.64999999231E+04  0.65000000000E+04  0.10000000000E+01 0.  0.
    9000001    1    1    2    0    0  0.55362975611E+03 -0.63861142600E+04 -0.10775146176E+04  0.65000000000E+04  0.10000000000E+01 0.  0.
    9000001    1    1    2    0    0 -0.55362975611E+03  0.63861142600E+04  0.10775146176E+04  0.65000000000E+04  0.10000000000E+01 0.  0.
</event>
<event>
 4    1  0.2201588E-006  0.1300000E+05  0.7957747E-01  0.1322471E+00
    9000001   -1    0    0    0    0  0.00000000000E+00  0.00000000000E+00  0.64999999231E+04  0.65000000000E+04  0.10000000000E+01 0.  0.
    9000001   -1    0    0    0    0 -0.00000000000E+00 -0.00000000000E+00 -0.64999999231E+04  0.65000000000E+04  0.10000000000E+01 0.  0.
    9000001    1    1    2    0    0 -0.33538419187E+04 -0.18142370010E+04  0.52640561821E+04  0.65000000000E+04  0.10000000000E+01 0.  0.
    9000001    1    1    2    0    0  0.33538419187E+04  0.18142370010E+04 -0.52640561821E+04  0.65000000000E+04  0.10000000000E+01 0.  0.
</event>
<event>
 4    1  0.2201588E-006  0.1300000E+05  0.7957747E-01  0.1322471E+00
    9000001   -1    0    0    0    0  0.00000000000E+00  0.00000000000E+00  0.64999999231E+04  0.65000000000E+04  0.10000000000E+01 0.  0.
    9000001   -1    0    0    0    0 -0.00000000000E+00 -0.00000000000E+00 -0.64999999231E+04  0.65000000000E+04  0.10000000000E+01 0.  0.
    9000001    1    1    2    0    0  0.27140241828E+04 -0.40602324062E+04  0.42893571247E+04  0.65000000000E+04  0.10000000000E+01 0.  0.
    9000001    1    1    2    0    0 -0.27140241828E+04  0.40602324062E+04 -0.42893571247E+04  0.65000000000E+04  0.10000000000E+01 0.  0.
</event>
<event>
 4    1  0.2201588E-006  0.1300000E+05  0.7957747E-01  0.1322471E+00
    9000001   -1    0    0    0    0  0.00000000000E+00  0.00000000000E+00  0.64999999231E+04  0.65000000000E+04  0.10000000000E+01 0.  0.
    9000001   -1    0    0    0    0 -0.00000000000E+00 -0.00000000000E+00 -0.64999999231E+04  0.65000000000E+04  0.10000000000E+01 0.  0.
    9000001    1    1    2    0    0 -0.35097172104E+04 -0.23158751771E+04  0.49566729030E+04  0.65000000000E+04  0.10000000000E+01 0.  0.
    9000001    1    1    2    0    0  0.35097172104E+04  0.23158751771E+04 -0.49566729030E+04  0.65000000000E+04  0.10000000000E+01 0.  0.
</event>
<event>
 4    1  0.2201588E-006  0.1300000E+05  0.7957747E-01  0.1322471E+00
    9000001   -1    0    0    0    0  0.00000000000E+00  0.00000000000E+00  0.64999999231E+04  0.65000000000E+04  0.10000000000E+01 0.  0.
    9000001   -1    0    0    0    0 -0.00000000000E+00 -0.00000000000E+00 -0.64999999231E+04  0.65000000000E+04  0.10000000000E+01 0.  0.
    9000001    1    1    2    0    0 -0.61861792128E+04  0.19793011375E+04  0.25209671550E+03  0.65000000000E+04  0.10000000000E+01 0.  0.
    9000001    1    1    2    0    0  0.61861792128E+04 -0.19793011375E+04 -0.25209671550E+03  0.65000000000E+04  0.10000000000E+01 0.  0.
</event>
<event>
 4    1  0.2201588E-006  0.1300000E+05  0.7957747E-01  0.1322471E+00
    9000001   -1    0    0    0    0  0.00000000000E+00  0.00000000000E+00  0.64999999231E+04  0.65000000000E+04  0.10000000000E+01 0.  0.
    9000001   -1    0    0    0    0 -0.00000000000E+00 -0.00000000000E+00 -0.64999999231E+04  0.65000000000E+04  0.10000000000E+01 0.  0.
    9000001    1    1    2    0    0 -0.35448430428E+04  0.53624480283E+04 -0.96345106040E+03  0.65000000000E+04  0.10000000000E+01 0.  0.
    9000001    1    1    2    0    0  0.35448430428E+04 -0.53624480283E+04  0.96345106040E+03  0.65000000000E+04  0.10000000000E+01 0.  0.
</event>
<event>
 4    1  0.2201588E-006  0.1300000E+05  0.7957747E-01  0.1322471E+00
    9000001   -1    0    0    0    0  0.00000000000E+00  0.00000000000E+00  0.64999999231E+04  0.65000000000E+04  0.10000000000E+01 0.  0.
    9000001   -1    0    0    0    0 -0.00000000000E+00 -0.00000000000E+00 -0.64999999231E+04  0.65000000000E+04  0.10000000000E+01 0.  0.
    9000001    1    1    2    0    0 -0.42095231409E+03  0.55375246599E+04 -0.33776646948E+04  0.65000000000E+04  0.10000000000E+01 0.  0.
    9000001    1    1    2    0    0  0.42095231409E+03 -0.55375246599E+04  0.33776646948E+04  0.65000000000E+04  0.10000000000E+01 0.  0.
</event>
<event>
 4    1  0.2201588E-006  0.1300000E+05  0.7957747E-01  0.1322471E+00
    9000001   -1    0    0    0    0  0.00000000000E+00  0.00000000000E+00  0.64999999231E+04  0.65000000000E+04  0.10000000000E+01 0.  0.
    9000001   -1    0    0    0    0 -0.00000000000E+00 -0.00000000000E+00 -0.64999999231E+04  0.65000000000E+04  0.10000000000E+01 0.  0.
    9000001    1    1    2    0    0  0.43080123152E+04  0.86454562031E+03  0.47899467390E+04  0.65000000000E+04  0.10000000000E+01 0.  0.
    9000001    1    1    2    0    0 -0.43080123152E+04 -0.86454562031E+03 -0.47899467390E+04  0.65000000000E+04  0.10000000000E+01 0.  0.
</event>
<event>
 4    1  0.2201588E-006  0.1300000E+05  0.7957747E-01  0.1322471E+00
    9000001   -1    0    0    0    0  0.00000000000E+00  0.00000000000E+00  0.64999999231E+04  0.65000000000E+04  0.10000000000E+01 0.  0.
    9000001   -1    0    0    0    0 -0.00000000000E+00 -0.00000000000E+00 -0.64999999231E+04  0.65000000000E+04  0.10000000000E+01 0.  0.
    9000001    1    1    2    0    0  0.29702321459E+04  0.58143184931E+03 -0.57523609939E+04  0.65000000000E+04  0.10000000000E+01 0.  0.
    9000001    1    1    2    0    0 -0.29702321459E+04 -0.58143184931E+03  0.57523609939E+04  0.65000000000E+04  0.10000000000E+01 0.  0.
</event>
<event>
 4    1  0.2201588E-006  0.1300000E+05  0.7957747E-01  0.1322471E+00
    9000001   -1    0    0    0    0  0.00000000000E+00  0.00000000000E+00  0.64999999231E+04  0.65000000000E+04  0.10000000000E+01 0.  0.
    9000001   -1    0    0    0    0 -0.00000000000E+00 -0.00000000000E+00 -0.64999999231E+04  0.65000000000E+04  0.10000000000E+01 0.  0.
    9000001    1    1    2    0    0  0.50219150311E+04 -0.34387459058E+04  0.22815334788E+04  0.65000000000E+04  0.10000000000E+01 0.  0.
    9000001    1    1    2    0    0 -0.50219150311E+04  0.34387459058E+04 -0.22815334788E+04  0.65000000000E+04  0.10000000000E+01 0.  0.
</event>
<event>
 4    1  0.2201588E-006  0.1300000E+05  0.7957747E-01  0.1322471E+00
    9000001   -1    0    0    0    0  0.00000000000E+00  0.00000000000E+00  0.64999999231E+04  0.65000000000E+04  0.10000000000E+01 0.  0.
    9000001   -1    0    0    0    0 -0.00000000000E+00 -0.00000000000E+00 -0.64999999231E+04  0.65000000000E+04  0.10000000000E+01 0.  0.
    9000001    1    1    2    0    0  0.29558786905E+04  0.35033742207E+04  0.46085951479E+04  0.65000000000E+04  0.10000000000E+01 0.  0.
    9000001    1    1    2    0    0 -0.29558786905E+04 -0.35033742207E+04 -0.46085951479E+04  0.65000000000E+04  0.10000000000E+01 0.  0.
</event>
<event>
 4    1  0.2201588E-006  0.1300000E+05  0.7957747E-01  0.1322471E+00
    9000001   -1    0    0    0    0  0.00000000000E+00  0.00000000000E+00  0.64999999231E+04  0.65000000000E+04  0.10000000000E+01 0.  0.
    9000001   -1    0    0    0    0 -0.00000000000E+00 -0.00000000000E+00 -0.64999999231E+04  0.65000000000E+04  0.10000000000E+01 0.  0.
    9000001    1    1    2    0    0 -0.56982609058E+04  0.11862361599E+04 -0.28935558440E+04  0.65000000000E+04  0.10000000000E+01 0.  0.
    9000001    1    1    2    0    0  0.56982609058E+04 -0.11862361599E+04  0.28935558440E+04  0.65000000000E+04  0.10000000000E+01 0.  0.
</event>
<event>
 4    1  0.2201588E-006  0.1300000E+05  0.7957747E-01  0.1322471E+00
    9000001   -1    0    0    0    0  0.00000000000E+00  0.00000000000E+00  0.64999999231E+04  0.65000000000E+04  0.10000000000E+01 0.  0.
    9000001   -1    0    0    0    0 -0.00000000000E+00 -0.00000000000E+00 -0.64999999231E+04  0.65000000000E+04  0.10000000000E+01 0.  0.
    9000001    1    1    2    0    0 -0.42511860484E+04 -0.41217989279E+04 -0.26810799652E+04  0.65000000000E+04  0.10000000000E+01 0.  0.
    9000001    1    1    2    0    0  0.42511860484E+04  0.41217989279E+04  0.26810799652E+04  0.65000000000E+04  0.10000000000E+01 0.  0.
</event>
<event>
 4    1  0.2201588E-006  0.1300000E+05  0.7957747E-01  0.1322471E+00
    9000001   -1    0    0    0    0  0.00000000000E+00  0.00000000000E+00  0.64999999231E+04  0.65000000000E+04  0.10000000000E+01 0.  0.
    9000001   -1    0    0    0    0 -0.00000000000E+00 -0.00000000000E+00 -0.64999999231E+04  0.65000000000E+04  0.10000000000E+01 0.  0.
    9000001    1    1    2    0    0 -0.33338885691E+04 -0.55476759320E+04  0.59873012441E+03  0.65000000000E+04  0.10000000000E+01 0.  0.
    9000001    1    1    2    0    0  0.33338885691E+04  0.55476759320E+04 -0.59873012441E+03  0.65000000000E+04  0.10000000000E+01 0.  0.
</event>
<event>
 4    1  0.2201588E-006  0.1300000E+05  0.7957747E-01  0.1322471E+00
    9000001   -1    0    0    0    0  0.00000000000E+00  0.00000000000E+00  0.64999999231E+04  0.65000000000E+04  0.10000000000E+01 0.  0.
    9000001   -1    0    0    0    0 -0.00000000000E+00 -0.00000000000E+00 -0.64999999231E+04  0.65000000000E+04  0.10000000000E+01 0.  0.
    9000001    1    1    2    0    0  0.54137387628E+04 -0.13521134530E+04 -0.33336497743E+04  0.65000000000E+04  0.10000000000E+01 0.  0.
    9000001    1    1    2    0    0 -0.54137387628E+04  0.13521134530E+04  0.33336497743E+04  0.65000000000E+04  0.10000000000E+01 0.  0.
</event>
<event>
 4    1  0.2201588E-006  0.1300000E+05  0.7957747E-01  0.1322471E+00
    9000001   -1    0    0    0    0  0.00000000000E+00  0.00000000000E+00  0.64999999231E+04  0.65000000000E+04  0.10000000000E+01 0.  0.
    9000001   -1    0    0    0    0 -0.00000000000E+00 -0.00000000000E+00 -0.64999999231E+04  0.65000000000E+04  0.10000000000E+01 0.  0.
    9000001    1    1    2    0    0 -0.21201453023E+04 -0.98707508994E+03  0.60647065604E+04  0.65000000000E+04  0.10000000000E+01 0.  0.
    9000001    1    1    2    0    0  0.21201453023E+04  0.98707508994E+03 -0.60647065604E+04  0.65000000000E+04  0.10000000000E+01 0.  0.
</event>
<event>
 4    1  0.2201588E-006  0.1300000E+05  0.7957747E-01  0.1322471E+00
    9000001   -1    0    0    0    0  0.00000000000E+00  0.00000000000E+00  0.64999999231E+04  0.65000000000E+04  0.10000000000E+01 0.  0.
    9000001   -1    0    0    0    0 -0.00000000000E+00 -0.00000000000E+00 -0.64999999231E+04  0.65000000000E+04  0.10000000000E+01 0.  0.
    9000001    1    1    2    0    0 -0.21708031090E+04  0.52327165583E+04 -0.31868935160E+04  0.65000000000E+04  0.10000000000E+01 0.  0.
    9000001    1    1    2    0    0  0.21708031090E+04 -0.52327165583E+04  0.31868935160E+04  0.65000000000E+04  0.10000000000E+01 0.  0.
</event>
<event>
 4    1  0.2201588E-006  0.1300000E+05  0.7957747E-01  0.1322471E+00
    9000001   -1    0    0    0    0  0.00000000000E+00  0.00000000000E+00  0.64999999231E+04  0.65000000000E+04  0.10000000000E+01 0.  0.
    9000001   -1    0    0    0    0 -0.00000000000E+00 -0.00000000000E+00 -0.64999999231E+04  0.65000000000E+04  0.10000000000E+01 0.  0.
    9000001    1    1    2    0    0  0.60749476339E+04 -0.10907185611E+04  0.20384659099E+04  0.65000000000E+04  0.10000000000E+01 0.  0.
    9000001    1    1    2    0    0 -0.60749476339E+04  0.10907185611E+04 -0.20384659099E+04  0.65000000000E+04  0.10000000000E+01 0.  0.
</event>
<event>
 4    1  0.2201588E-006  0.1300000E+05  0.7957747E-01  0.1322471E+00
    9000001   -1    0    0    0    0  0.00000000000E+00  0.00000000000E+00  0.64999999231E+04  0.65000000000E+04  0.10000000000E+01 0.  0.
    9000001   -1    0    0    0    0 -0.00000000000E+00 -0.00000000000E+00 -0.64999999231E+04  0.65000000000E+04  0.10000000000E+01 0.  0.
    9000001    1    1    2    0    0  0.51992740107E+04 -0.38989733189E+04  0.12472297282E+03  0.65000000000E+04  0.10000000000E+01 0.  0.
    9000001    1    1    2    0    0 -0.51992740107E+04  0.38989733189E+04 -0.12472297282E+03  0.65000000000E+04  0.10000000000E+01 0.  0.
</event>
<event>
 4    1  0.2201588E-006  0.1300000E+05  0.7957747E-01  0.1322471E+00
    9000001   -1    0    0    0    0  0.00000000000E+00  0.00000000000E+00  0.64999999231E+04  0.65000000000E+04  0.10000000000E+01 0.  0.
    9000001   -1    0    0    0    0 -0.00000000000E+00 -0.00000000000E+00 -0.64999999231E+04  0.65000000000E+04  0.10000000000E+01 0.  0.
    9000001    1    1    2    0    0  0.96207570183E+02 -0.25710825763E+04  0.59691102762E+04  0.65000000000E+04  0.10000000000E+01 0.  0.
    9000001    1    1    2    0    0 -0.96207570183E+02  0.25710825763E+04 -0.59691102762E+04  0.65000000000E+04  0.10000000000E+01 0.  0.
</event>
<event>
 4    1  0.2201588E-006  0.1300000E+05  0.7957747E-01  0.1322471E+00
    9000001   -1    0    0    0    0  0.00000000000E+00  0.00000000000E+00  0.64999999231E+04  0.65000000000E+04  0.10000000000E+01 0.  0.
    9000001   -1    0    0    0    0 -0.00000000000E+00 -0.00000000000E+00 -0.64999999231E+04  0.65000000000E+04  0.10000000000E+01 0.  0.
    9000001    1    1    2    0    0  0.12978260737E+04  0.43237298725E+04 -0.46766447879E+04  0.65000000000E+04  0.10000000000E+01 0.  0.
    9000001    1    1    2    0    0 -0.12978260737E+04 -0.43237298725E+04  0.46766447879E+04  0.65000000000E+04  0.10000000000E+01 0.  0.
</event>
<event>
 4    1  0.2201588E-006  0.1300000E+05  0.7957747E-01  0.1322471E+00
    9000001   -1    0    0    0    0  0.00000000000E+00  0.00000000000E+00  0.64999999231E+04  0.65000000000E+04  0.10000000000E+01 0.  0.
    9000001   -1    0    0    0    0 -0.00000000000E+00 -0.00000000000E+00 -0.64999999231E+04  0.65000000000E+04  0.10000000000E+01 0.  0.
    9000001    1    1    2    0    0  0.48623163251E+04 -0.42641786200E+04  0.65165915263E+03  0.65000000000E+04  0.10000000000E+01 0.  0.
    9000001    1    1    2    0    0 -0.48623163251E+04  0.42641786200E+04 -0.65165915263E+03  0.65000000000E+04  0.10000000000E+01 0.  0.
</event>
<event>
 4    1  0.2201588E-006  0.1300000E+05  0.7957747E-01  0.1322471E+00
    9000001   -1    0    0    0    0  0.00000000000E+00  0.00000000000E+00  0.64999999231E+04  0.65000000000E+04  0.10000000000E+01 0.  0.
    9000001   -1    0    0    0    0 -0.00000000000E+00 -0.00000000000E+00 -0.64999999231E+04  0.65000000000E+04  0.10000000000E+01 0.  0.
    9000001    1    1    2    0    0  0.28250653956E+04  0.47036794459E+04 -0.34848822334E+04  0.65000000000E+04  0.10000000000E+01 0.  0.
    9000001    1    1    2    0    0 -0.28250653956E+04 -0.47036794459E+04  0.34848822334E+04  0.65000000000E+04  0.10000000000E+01 0.  0.
</event>
<event>
 4    1  0.2201588E-006  0.1300000E+05  0.7957747E-01  0.1322471E+00
    9000001   -1    0    0    0    0  0.00000000000E+00  0.00000000000E+00  0.64999999231E+04  0.65000000000E+04  0.10000000000E+01 0.  0.
    9000001   -1    0    0    0    0 -0.00000000000E+00 -0.00000000000E+00 -0.64999999231E+04  0.65000000000E+04  0.10000000000E+01 0.  0.
    9000001    1    1    2    0    0 -0.24399051291E+04 -0.50892353698E+04 -0.32243674282E+04  0.65000000000E+04  0.10000000000E+01 0.  0.
    9000001    1    1    2    0    0  0.24399051291E+04  0.50892353698E+04  0.32243674282E+04  0.65000000000E+04  0.10000000000E+01 0.  0.
</event>
<event>
 4    1  0.2201588E-006  0.1300000E+05  0.7957747E-01  0.1322471E+00
    9000001   -1    0    0    0    0  0.00000000000E+00  0.00000000000E+00  0.64999999231E+04  0.65000000000E+04  0.10000000000E+01 0.  0.
    9000001   -1    0    0    0    0 -0.00000000000E+00 -0.00000000000E+00 -0.64999999231E+04  0.65000000000E+04  0.10000000000E+01 0.  0.
    9000001    1    1    2    0    0  0.10649213598E+04  0.63410682389E+04  0.95225788877E+03  0.65000000000E+04  0.10000000000E+01 0.  0.
    9000001    1    1    2    0    0 -0.10649213598E+04 -0.63410682389E+04 -0.95225788877E+03  0.65000000000E+04  0.10000000000E+01 0.  0.
</event>
<event>
 4    1  0.2201588E-006  0.1300000E+05  0.7957747E-01  0.1322471E+00
    9000001   -1    0    0    0    0  0.00000000000E+00  0.00000000000E+00  0.64999999231E+04  0.65000000000E+04  0.10000000000E+01 0.  0.
    9000001   -1    0    0    0    0 -0.00000000000E+00 -0.00000000000E+00 -0.64999999231E+04  0.65000000000E+04  0.10000000000E+01 0.  0.
    9000001    1    1    2    0    0  0.10347825026E+04 -0.54726797957E+04 -0.33509700127E+04  0.65000000000E+04  0.10000000000E+01 0.  0.
    9000001    1    1    2    0    0 -0.10347825026E+04  0.54726797957E+04  0.33509700127E+04  0.65000000000E+04  0.10000000000E+01 0.  0.
</event>
<event>
 4    1  0.2201588E-006  0.1300000E+05  0.7957747E-01  0.1322471E+00
    9000001   -1    0    0    0    0  0.00000000000E+00  0.00000000000E+00  0.64999999231E+04  0.65000000000E+04  0.10000000000E+01 0.  0.
    9000001   -1    0    0    0    0 -0.00000000000E+00 -0.00000000000E+00 -0.64999999231E+04  0.65000000000E+04  0.10000000000E+01 0.  0.
    9000001    1    1    2    0    0 -0.18892711674E+04 -0.58201031514E+04 -0.21924992048E+04  0.65000000000E+04  0.10000000000E+01 0.  0.
    9000001    1    1    2    0    0  0.18892711674E+04  0.58201031514E+04  0.21924992048E+04  0.65000000000E+04  0.10000000000E+01 0.  0.
</event>
<event>
 4    1  0.2201588E-006  0.1300000E+05  0.7957747E-01  0.1322471E+00
    9000001   -1    0    0    0    0  0.00000000000E+00  0.00000000000E+00  0.64999999231E+04  0.65000000000E+04  0.10000000000E+01 0.  0.
    9000001   -1    0    0    0    0 -0.00000000000E+00 -0.00000000000E+00 -0.64999999231E+04  0.65000000000E+04  0.10000000000E+01 0.  0.
    9000001    1    1    2    0    0 -0.18070363307E+04 -0.89143623723E+03  0.61798025967E+04  0.65000000000E+04  0.10000000000E+01 0.  0.
    9000001    1    1    2    0    0  0.18070363307E+04  0.89143623723E+03 -0.61798025967E+04  0.65000000000E+04  0.10000000000E+01 0.  0.
</event>
<event>
 4    1  0.2201588E-006  0.1300000E+05  0.7957747E-01  0.1322471E+00
    9000001   -1    0    0    0    0  0.00000000000E+00  0.00000000000E+00  0.64999999231E+04  0.65000000000E+04  0.10000000000E+01 0.  0.
    9000001   -1    0    0    0    0 -0.00000000000E+00 -0.00000000000E+00 -0.64999999231E+04  0.65000000000E+04  0.10000000000E+01 0.  0.
    9000001    1    1    2    0    0 -0.57980883838E+04  0.29206734904E+04 -0.31911824848E+03  0.65000000000E+04  0.10000000000E+01 0.  0.
    9000001    1    1    2    0    0  0.57980883838E+04 -0.29206734904E+04  0.31911824848E+03  0.65000000000E+04  0.10000000000E+01 0.  0.
</event>
<event>
 4    1  0.2201588E-006  0.1300000E+05  0.7957747E-01  0.1322471E+00
    9000001   -1    0    0    0    0  0.00000000000E+00  0.00000000000E+00  0.64999999231E+04  0.65000000000E+04  0.10000000000E+01 0.  0.
    9000001   -1    0    0    0    0 -0.00000000000E+00 -0.00000000000E+00 -0.64999999231E+04  0.65000000000E+04  0.10000000000E+01 0.  0.
    9000001    1    1    2    0    0 -0.45003425493E+04  0.27726260458E+04  0.37827847876E+04  0.65000000000E+04  0.10000000000E+01 0.  0.
    9000001    1    1    2    0    0  0.45003425493E+04 -0.27726260458E+04 -0.37827847876E+04  0.65000000000E+04  0.10000000000E+01 0.  0.
</event>
<event>
 4    1  0.2201588E-006  0.1300000E+05  0.7957747E-01  0.1322471E+00
    9000001   -1    0    0    0    0  0.00000000000E+00  0.00000000000E+00  0.64999999231E+04  0.65000000000E+04  0.10000000000E+01 0.  0.
    9000001   -1    0    0    0    0 -0.00000000000E+00 -0.00000000000E+00 -0.64999999231E+04  0.65000000000E+04  0.10000000000E+01 0.  0.
    9000001    1    1    2    0    0  0.24998435683E+04 -0.34680265558E+04 -0.48962815424E+04  0.65000000000E+04  0.10000000000E+01 0.  0.
    9000001    1    1    2    0    0 -0.24998435683E+04  0.34680265558E+04  0.48962815424E+04  0.65000000000E+04  0.10000000000E+01 0.  0.
</event>
<event>
 4    1  0.2201588E-006  0.1300000E+05  0.7957747E-01  0.1322471E+00
    9000001   -1    0    0    0    0  0.00000000000E+00  0.00000000000E+00  0.64999999231E+04  0.65000000000E+04  0.10000000000E+01 0.  0.
    9000001   -1    0    0    0    0 -0.00000000000E+00 -0.00000000000E+00 -0.64999999231E+04  0.65000000000E+04  0.10000000000E+01 0.  0.
    9000001    1    1    2    0    0  0.15313283387E+04 -0.52662084396E+04 -0.34888509841E+04  0.65000000000E+04  0.10000000000E+01 0.  0.
    9000001    1    1    2    0    0 -0.15313283387E+04  0.52662084396E+04  0.34888509841E+04  0.65000000000E+04  0.10000000000E+01 0.  0.
</event>
<event>
 4    1  0.2201588E-006  0.1300000E+05  0.7957747E-01  0.1322471E+00
    9000001   -1    0    0    0    0  0.00000000000E+00  0.00000000000E+00  0.64999999231E+04  0.65000000000E+04  0.10000000000E+01 0.  0.
    9000001   -1    0    0    0    0 -0.00000000000E+00 -0.00000000000E+00 -0.64999999231E+04  0.65000000000E+04  0.10000000000E+01 0.  0.
    9000001    1    1    2    0    0 -0.14862188694E+04 -0.31601309377E+04  0.54822189785E+04  0.65000000000E+04  0.10000000000E+01 0.  0.
    9000001    1    1    2    0    0  0.14862188694E+04  0.31601309377E+04 -0.54822189785E+04  0.65000000000E+04  0.10000000000E+01 0.  0.
</event>
<event>
 4    1  0.2201588E-006  0.1300000E+05  0.7957747E-01  0.1322471E+00
    9000001   -1    0    0    0    0  0.00000000000E+00  0.00000000000E+00  0.64999999231E+04  0.65000000000E+04  0.10000000000E+01 0.  0.
    9000001   -1    0    0    0    0 -0.00000000000E+00 -0.00000000000E+00 -0.64999999231E+04  0.65000000000E+04  0.10000000000E+01 0.  0.
    9000001    1    1    2    0    0  0.36426968451E+04  0.46701751772E+04  0.26777271163E+04  0.65000000000E+04  0.10000000000E+01 0.  0.
    9000001    1    1    2    0    0 -0.36426968451E+04 -0.46701751772E+04 -0.26777271163E+04  0.65000000000E+04  0.10000000000E+01 0.  0.
</event>
<event>
 4    1  0.2201588E-006  0.1300000E+05  0.7957747E-01  0.1322471E+00
    9000001   -1    0    0    0    0  0.00000000000E+00  0.00000000000E+00  0.64999999231E+04  0.65000000000E+04  0.10000000000E+01 0.  0.
    9000001   -1    0    0    0    0 -0.00000000000E+00 -0.00000000000E+00 -0.64999999231E+04  0.65000000000E+04  0.10000000000E+01 0.  0.
    9000001    1    1    2    0    0 -0.64741394252E+04  0.26592700060E+03  0.51458773176E+03  0.65000000000E+04  0.10000000000E+01 0.  0.
    9000001    1    1    2    0    0  0.64741394252E+04 -0.26592700060E+03 -0.51458773176E+03  0.65000000000E+04  0.10000000000E+01 0.  0.
</event>
<event>
 4    1  0.2201588E-006  0.1300000E+05  0.7957747E-01  0.1322471E+00
    9000001   -1    0    0    0    0  0.00000000000E+00  0.00000000000E+00  0.64999999231E+04  0.65000000000E+04  0.10000000000E+01 0.  0.
    9000001   -1    0    0    0    0 -0.00000000000E+00 -0.00000000000E+00 -0.64999999231E+04  0.65000000000E+04  0.10000000000E+01 0.  0.
    9000001    1    1    2    0    0 -0.34752814392E+04  0.14018424283E+04  0.53110503410E+04  0.65000000000E+04  0.10000000000E+01 0.  0.
    9000001    1    1    2    0    0  0.34752814392E+04 -0.14018424283E+04 -0.53110503410E+04  0.65000000000E+04  0.10000000000E+01 0.  0.
</event>
<event>
 4    1  0.2201588E-006  0.1300000E+05  0.7957747E-01  0.1322471E+00
    9000001   -1    0    0    0    0  0.00000000000E+00  0.00000000000E+00  0.64999999231E+04  0.65000000000E+04  0.10000000000E+01 0.  0.
    9000001   -1    0    0    0    0 -0.00000000000E+00 -0.00000000000E+00 -0.64999999231E+04  0.65000000000E+04  0.10000000000E+01 0.  0.
    9000001    1    1    2    0    0  0.39500821600E+04 -0.50094567147E+04  0.12458705203E+04  0.65000000000E+04  0.10000000000E+01 0.  0.
    9000001    1    1    2    0    0 -0.39500821600E+04  0.50094567147E+04 -0.12458705203E+04  0.65000000000E+04  0.10000000000E+01 0.  0.
</event>
<event>
 4    1  0.2201588E-006  0.1300000E+05  0.7957747E-01  0.1322471E+00
    9000001   -1    0    0    0    0  0.00000000000E+00  0.00000000000E+00  0.64999999231E+04  0.65000000000E+04  0.10000000000E+01 0.  0.
    9000001   -1    0    0    0    0 -0.00000000000E+00 -0.00000000000E+00 -0.64999999231E+04  0.65000000000E+04  0.10000000000E+01 0.  0.
    9000001    1    1    2    0    0 -0.19935338974E+04  0.21375008121E+04 -0.58057653998E+04  0.65000000000E+04  0.10000000000E+01 0.  0.
    9000001    1    1    2    0    0  0.19935338974E+04 -0.21375008121E+04  0.58057653998E+04  0.65000000000E+04  0.10000000000E+01 0.  0.
</event>
<event>
 4    1  0.2201588E-006  0.1300000E+05  0.7957747E-01  0.1322471E+00
    9000001   -1    0    0    0    0  0.00000000000E+00  0.00000000000E+00  0.64999999231E+04  0.65000000000E+04  0.10000000000E+01 0.  0.
    9000001   -1    0    0    0    0 -0.00000000000E+00 -0.00000000000E+00 -0.64999999231E+04  0.65000000000E+04  0.10000000000E+01 0.  0.
    9000001    1    1    2    0    0  0.53750483758E+04  0.23047154656E+04 -0.28367482406E+04  0.65000000000E+04  0.10000000000E+01 0.  0.
    9000001    1    1    2    0    0 -0.53750483758E+04 -0.23047154656E+04  0.28367482406E+04  0.65000000000E+04  0.10000000000E+01 0.  0.
</event>
<event>
 4    1  0.2201588E-006  0.1300000E+05  0.7957747E-01  0.1322471E+00
    9000001   -1    0    0    0    0  0.00000000000E+00  0.00000000000E+00  0.64999999231E+04  0.65000000000E+04  0.10000000000E+01 0.  0.
    9000001   -1    0    0    0    0 -0.00000000000E+00 -0.00000000000E+00 -0.64999999231E+04  0.65000000000E+04  0.10000000000E+01 0.  0.
    9000001    1    1    2    0    0  0.45854802242E+04  0.40277668481E+04 -0.22361718026E+04  0.65000000000E+04  0.10000000000E+01 0.  0.
    9000001    1    1    2    0    0 -0.45854802242E+04 -0.40277668481E+04  0.22361718026E+04  0.65000000000E+04  0.10000000000E+01 0.  0.
</event>
<event>
 4    1  0.2201588E-006  0.1300000E+05  0.7957747E-01  0.1322471E+00
    9000001   -1    0    0    0    0  0.00000000000E+00  0.00000000000E+00  0.64999999231E+04  0.65000000000E+04  0.10000000000E+01 0.  0.
    9000001   -1    0    0    0    0 -0.00000000000E+00 -0.00000000000E+00 -0.64999999231E+04  0.65000000000E+04  0.10000000000E+01 0.  0.
    9000001    1    1    2    0    0 -0.48102322483E+04 -0.25818671778E+03  0.43640582416E+04  0.65000000000E+04  0.10000000000E+01 0.  0.
    9000001    1    1    2    0    0  0.48102322483E+04  0.25818671778E+03 -0.43640582416E+04  0.65000000000E+04  0.10000000000E+01 0.  0.
</event>
<event>
 4    1  0.2201588E-006  0.1300000E+05  0.7957747E-01  0.1322471E+00
    9000001   -1    0    0    0    0  0.00000000000E+00  0.00000000000E+00  0.64999999231E+04  0.65000000000E+04  0.10000000000E+01 0.  0.
    9000001   -1    0    0    0    0 -0.00000000000E+00 -0.00000000000E+00 -0.64999999231E+04  0.65000000000E+04  0.10000000000E+01 0.  0.
    9000001    1    1    2    0    0  0.87194911414E+02  0.35457912659E+04  0.54469955339E+04  0.65000000000E+04  0.10000000000E+01 0.  0.
    9000001    1    1    2    0    0 -0.87194911414E+02 -0.35457912659E+04 -0.54469955339E+04  0.65000000000E+04  0.10000000000E+01 0.  0.
</event>
<event>
 4    1  0.2201588E-006  0.1300000E+05  0.7957747E-01  0.1322471E+00
    9000001   -1    0    0    0    0  0.00000000000E+00  0.00000000000E+00  0.64999999231E+04  0.65000000000E+04  0.10000000000E+01 0.  0.
    9000001   -1    0    0    0    0 -0.00000000000E+00 -0.00000000000E+00 -0.64999999231E+04  0.65000000000E+04  0.10000000000E+01 0.  0.
    9000001    1    1    2    0    0  0.41145646642E+04  0.18341517112E+04  0.46857490462E+04  0.65000000000E+04  0.10000000000E+01 0.  0.
    9000001    1    1    2    0    0 -0.41145646642E+04 -0.18341517112E+04 -0.46857490462E+04  0.65000000000E+04  0.10000000000E+01 0.  0.
</event>
<event>
 4    1  0.2201588E-006  0.1300000E+05  0.7957747E-01  0.1322471E+00
    9000001   -1    0    0    0    0  0.00000000000E+00  0.00000000000E+00  0.64999999231E+04  0.65000000000E+04  0.10000000000E+01 0.  0.
    9000001   -1    0    0    0    0 -0.00000000000E+00 -0.00000000000E+00 -0.64999999231E+04  0.65000000000E+04  0.10000000000E+01 0.  0.
    9000001    1    1    2    0    0  0.31810038776E+04 -0.25536748353E+04  0.50606282383E+04  0.65000000000E+04  0.10000000000E+01 0.  0.
    9000001    1    1    2    0    0 -0.31810038776E+04  0.25536748353E+04 -0.50606282383E+04  0.65000000000E+04  0.10000000000E+01 0.  0.
</event>
<event>
 4    1  0.2201588E-006  0.1300000E+05  0.7957747E-01  0.1322471E+00
    9000001   -1    0    0    0    0  0.00000000000E+00  0.00000000000E+00  0.64999999231E+04  0.65000000000E+04  0.10000000000E+01 0.  0.
    9000001   -1    0    0    0    0 -0.00000000000E+00 -0.00000000000E+00 -0.64999999231E+04  0.65000000000E+04  0.10000000000E+01 0.  0.
    9000001    1    1    2    0    0 -0.42644233382E+04 -0.47365441664E+04  0.12766526358E+04  0.65000000000E+04  0.10000000000E+01 0.  0.
    9000001    1    1    2    0    0  0.42644233382E+04  0.47365441664E+04 -0.12766526358E+04  0.65000000000E+04  0.10000000000E+01 0.  0.
</event>
<event>
 4    1  0.2201588E-006  0.1300000E+05  0.7957747E-01  0.1322471E+00
    9000001   -1    0    0    0    0  0.00000000000E+00  0.00000000000E+00  0.64999999231E+04  0.65000000000E+04  0.10000000000E+01 0.  0.
    9000001   -1    0    0    0    0 -0.00000000000E+00 -0.00000000000E+00 -0.64999999231E+04  0.65000000000E+04  0.10000000000E+01 0.  0.
    9000001    1    1    2    0    0  0.60703107402E+04  0.14006456009E+04 -0.18545938689E+04  0.65000000000E+04  0.10000000000E+01 0.  0.
    9000001    1    1    2    0    0 -0.60703107402E+04 -0.14006456009E+04  0.18545938689E+04  0.65000000000E+04  0.10000000000E+01 0.  0.
</event>
<event>
 4    1  0.2201588E-006  0.1300000E+05  0.7957747E-01  0.1322471E+00
    9000001   -1    0    0    0    0  0.00000000000E+00  0.00000000000E+00  0.64999999231E+04  0.65000000000E+04  0.10000000000E+01 0.  0.
    9000001   -1    0    0    0    0 -0.00000000000E+00 -0.00000000000E+00 -0.64999999231E+04  0.65000000000E+04  0.10000000000E+01 0.  0.
    9000001    1    1    2    0    0 -0.36911033751E+04  0.41633816047E+04 -0.33603583869E+04  0.65000000000E+04  0.10000000000E+01 0.  0.
    9000001    1    1    2    0    0  0.36911033751E+04 -0.41633816047E+04  0.33603583869E+04  0.65000000000E+04  0.10000000000E+01 0.  0.
</event>
<event>
 4    1  0.2201588E-006  0.1300000E+05  0.7957747E-01  0.1322471E+00
    9000001   -1    0    0    0    0  0.00000000000E+00  0.00000000000E+00  0.64999999231E+04  0.65000000000E+04  0.10000000000E+01 0.  0.
    9000001   -1    0    0    0    0 -0.00000000000E+00 -0.00000000000E+00 -0.64999999231E+04  0.65000000000E+04  0.10000000000E+01 0.  0.
    9000001    1    1    2    0    0  0.39848060576E+03 -0.43180017474E+04 -0.48421145294E+04  0.65000000000E+04  0.10000000000E+01 0.  0.
    9000001    1    1    2    0    0 -0.39848060576E+03  0.43180017474E+04  0.48421145294E+04  0.65000000000E+04  0.10000000000E+01 0.  0.
</event>
<event>
 4    1  0.2201588E-006  0.1300000E+05  0.7957747E-01  0.1322471E+00
    9000001   -1    0    0    0    0  0.00000000000E+00  0.00000000000E+00  0.64999999231E+04  0.65000000000E+04  0.10000000000E+01 0.  0.
    9000001   -1    0    0    0    0 -0.00000000000E+00 -0.00000000000E+00 -0.64999999231E+04  0.65000000000E+04  0.10000000000E+01 0.  0.
    9000001    1    1    2    0    0  0.10502538341E+04  0.61940090941E+04  0.16676981821E+04  0.65000000000E+04  0.10000000000E+01 0.  0.
    9000001    1    1    2    0    0 -0.10502538341E+04 -0.61940090941E+04 -0.16676981821E+04  0.65000000000E+04  0.10000000000E+01 0.  0.
</event>
<event>
 4    1  0.2201588E-006  0.1300000E+05  0.7957747E-01  0.1322471E+00
    9000001   -1    0    0    0    0  0.00000000000E+00  0.00000000000E+00  0.64999999231E+04  0.65000000000E+04  0.10000000000E+01 0.  0.
    9000001   -1    0    0    0    0 -0.00000000000E+00 -0.00000000000E+00 -0.64999999231E+04  0.65000000000E+04  0.10000000000E+01 0.  0.
    9000001    1    1    2    0    0  0.23837694351E+04 -0.16753797337E+04 -0.58103997305E+04  0.65000000000E+04  0.10000000000E+01 0.  0.
    9000001    1    1    2    0    0 -0.23837694351E+04  0.16753797337E+04  0.58103997305E+04  0.65000000000E+04  0.10000000000E+01 0.  0.
</event>
<event>
 4    1  0.2201588E-006  0.1300000E+05  0.7957747E-01  0.1322471E+00
    9000001   -1    0    0    0    0  0.00000000000E+00  0.00000000000E+00  0.64999999231E+04  0.65000000000E+04  0.10000000000E+01 0.  0.
    9000001   -1    0    0    0    0 -0.00000000000E+00 -0.00000000000E+00 -0.64999999231E+04  0.65000000000E+04  0.10000000000E+01 0.  0.
    9000001    1    1    2    0    0 -0.57832804589E+04  0.27020321918E+04 -0.12258418204E+04  0.65000000000E+04  0.10000000000E+01 0.  0.
    9000001    1    1    2    0    0  0.57832804589E+04 -0.27020321918E+04  0.12258418204E+04  0.65000000000E+04  0.10000000000E+01 0.  0.
</event>
<event>
 4    1  0.2201588E-006  0.1300000E+05  0.7957747E-01  0.1322471E+00
    9000001   -1    0    0    0    0  0.00000000000E+00  0.00000000000E+00  0.64999999231E+04  0.65000000000E+04  0.10000000000E+01 0.  0.
    9000001   -1    0    0    0    0 -0.00000000000E+00 -0.00000000000E+00 -0.64999999231E+04  0.65000000000E+04  0.10000000000E+01 0.  0.
    9000001    1    1    2    0    0 -0.30379097741E+04 -0.50554937986E+04 -0.27318648680E+04  0.65000000000E+04  0.10000000000E+01 0.  0.
    9000001    1    1    2    0    0  0.30379097741E+04  0.50554937986E+04  0.27318648680E+04  0.65000000000E+04  0.10000000000E+01 0.  0.
</event>
<event>
 4    1  0.2201588E-006  0.1300000E+05  0.7957747E-01  0.1322471E+00
    9000001   -1    0    0    0    0  0.00000000000E+00  0.00000000000E+00  0.64999999231E+04  0.65000000000E+04  0.10000000000E+01 0.  0.
    9000001   -1    0    0    0    0 -0.00000000000E+00 -0.00000000000E+00 -0.64999999231E+04  0.65000000000E+04  0.10000000000E+01 0.  0.
    9000001    1    1    2    0    0 -0.26118449930E+04 -0.92298846480E+03  0.58801664115E+04  0.65000000000E+04  0.10000000000E+01 0.  0.
    9000001    1    1    2    0    0  0.26118449930E+04  0.92298846480E+03 -0.58801664115E+04  0.65000000000E+04  0.10000000000E+01 0.  0.
</event>
<event>
 4    1  0.2201588E-006  0.1300000E+05  0.7957747E-01  0.1322471E+00
    9000001   -1    0    0    0    0  0.00000000000E+00  0.00000000000E+00  0.64999999231E+04  0.65000000000E+04  0.10000000000E+01 0.  0.
    9000001   -1    0    0    0    0 -0.00000000000E+00 -0.00000000000E+00 -0.64999999231E+04  0.65000000000E+04  0.10000000000E+01 0.  0.
    9000001    1    1    2    0    0  0.37652065538E+04  0.44215610453E+04 -0.29194205813E+04  0.65000000000E+04  0.10000000000E+01 0.  0.
    9000001    1    1    2    0    0 -0.37652065538E+04 -0.44215610453E+04  0.29194205813E+04  0.65000000000E+04  0.10000000000E+01 0.  0.
</event>
<event>
 4    1  0.2201588E-006  0.1300000E+05  0.7957747E-01  0.1322471E+00
    9000001   -1    0    0    0    0  0.00000000000E+00  0.00000000000E+00  0.64999999231E+04  0.65000000000E+04  0.10000000000E+01 0.  0.
    9000001   -1    0    0    0    0 -0.00000000000E+00 -0.00000000000E+00 -0.64999999231E+04  0.65000000000E+04  0.10000000000E+01 0.  0.
    9000001    1    1    2    0    0 -0.15090039978E+04 -0.47655433245E+04  0.41548168138E+04  0.65000000000E+04  0.10000000000E+01 0.  0.
    9000001    1    1    2    0    0  0.15090039978E+04  0.47655433245E+04 -0.41548168138E+04  0.65000000000E+04  0.10000000000E+01 0.  0.
</event>
<event>
 4    1  0.2201588E-006  0.1300000E+05  0.7957747E-01  0.1322471E+00
    9000001   -1    0    0    0    0  0.00000000000E+00  0.00000000000E+00  0.64999999231E+04  0.65000000000E+04  0.10000000000E+01 0.  0.
    9000001   -1    0    0    0    0 -0.00000000000E+00 -0.00000000000E+00 -0.64999999231E+04  0.65000000000E+04  0.10000000000E+01 0.  0.
    9000001    1    1    2    0    0  0.37969879679E+04  0.21524469888E+04  0.48166226063E+04  0.65000000000E+04  0.10000000000E+01 0.  0.
    9000001    1    1    2    0    0 -0.37969879679E+04 -0.21524469888E+04 -0.48166226063E+04  0.65000000000E+04  0.10000000000E+01 0.  0.
</event>
<event>
 4    1  0.2201588E-006  0.1300000E+05  0.7957747E-01  0.1322471E+00
    9000001   -1    0    0    0    0  0.00000000000E+00  0.00000000000E+00  0.64999999231E+04  0.65000000000E+04  0.10000000000E+01 0.  0.
    9000001   -1    0    0    0    0 -0.00000000000E+00 -0.00000000000E+00 -0.64999999231E+04  0.65000000000E+04  0.10000000000E+01 0.  0.
    9000001    1    1    2    0    0 -0.33161560975E+04 -0.55299619343E+04  0.82013946529E+03  0.65000000000E+04  0.10000000000E+01 0.  0.
    9000001    1    1    2    0    0  0.33161560975E+04  0.55299619343E+04 -0.82013946529E+03  0.65000000000E+04  0.10000000000E+01 0.  0.
</event>
<event>
 4    1  0.2201588E-006  0.1300000E+05  0.7957747E-01  0.1322471E+00
    9000001   -1    0    0    0    0  0.00000000000E+00  0.00000000000E+00  0.64999999231E+04  0.65000000000E+04  0.10000000000E+01 0.  0.
    9000001   -1    0    0    0    0 -0.00000000000E+00 -0.00000000000E+00 -0.64999999231E+04  0.65000000000E+04  0.10000000000E+01 0.  0.
    9000001    1    1    2    0    0 -0.51356588570E+04  0.37509773075E+04  0.13435685111E+04  0.65000000000E+04  0.10000000000E+01 0.  0.
    9000001    1    1    2    0    0  0.51356588570E+04 -0.37509773075E+04 -0.13435685111E+04  0.65000000000E+04  0.10000000000E+01 0.  0.
</event>
<event>
 4    1  0.2201588E-006  0.1300000E+05  0.7957747E-01  0.1322471E+00
    9000001   -1    0    0    0    0  0.00000000000E+00  0.00000000000E+00  0.64999999231E+04  0.65000000000E+04  0.10000000000E+01 0.  0.
    9000001   -1    0    0    0    0 -0.00000000000E+00 -0.00000000000E+00 -0.64999999231E+04  0.65000000000E+04  0.10000000000E+01 0.  0.
    9000001    1    1    2    0    0 -0.58825466638E+04 -0.17503958374E+04 -0.21405041837E+04  0.65000000000E+04  0.10000000000E+01 0.  0.
    9000001    1    1    2    0    0  0.58825466638E+04  0.17503958374E+04  0.21405041837E+04  0.65000000000E+04  0.10000000000E+01 0.  0.
</event>
<event>
 4    1  0.2201588E-006  0.1300000E+05  0.7957747E-01  0.1322471E+00
    9000001   -1    0    0    0    0  0.00000000000E+00  0.00000000000E+00  0.64999999231E+04  0.65000000000E+04  0.10000000000E+01 0.  0.
    9000001   -1    0    0    0    0 -0.00000000000E+00 -0.00000000000E+00 -0.64999999231E+04  0.65000000000E+04  0.10000000000E+01 0.  0.
    9000001    1    1    2    0    0  0.62716487746E+04  0.67608137281E+03 -0.15682265860E+04  0.65000000000E+04  0.10000000000E+01 0.  0.
    9000001    1    1    2    0    0 -0.62716487746E+04 -0.67608137281E+03  0.15682265860E+04  0.65000000000E+04  0.10000000000E+01 0.  0.
</event>
<event>
 4    1  0.2201588E-006  0.1300000E+05  0.7957747E-01  0.1322471E+00
    9000001   -1    0    0    0    0  0.00000000000E+00  0.00000000000E+00  0.64999999231E+04  0.65000000000E+04  0.10000000000E+01 0.  0.
    9000001   -1    0    0    0    0 -0.00000000000E+00 -0.00000000000E+00 -0.64999999231E+04  0.65000000000E+04  0.10000000000E+01 0.  0.
    9000001    1    1    2    0    0  0.70417167329E+03 -0.49934718204E+04  0.41011437958E+04  0.65000000000E+04  0.10000000000E+01 0.  0.
    9000001    1    1    2    0    0 -0.70417167329E+03  0.49934718204E+04 -0.41011437958E+04  0.65000000000E+04  0.10000000000E+01 0.  0.
</event>
<event>
 4    1  0.2201588E-006  0.1300000E+05  0.7957747E-01  0.1322471E+00
    9000001   -1    0    0    0    0  0.00000000000E+00  0.00000000000E+00  0.64999999231E+04  0.65000000000E+04  0.10000000000E+01 0.  0.
    9000001   -1    0    0    0    0 -0.00000000000E+00 -0.00000000000E+00 -0.64999999231E+04  0.65000000000E+04  0.10000000000E+01 0.  0.
    9000001    1    1    2    0    0 -0.55443389643E+04 -0.16442693603E+04  0.29676055533E+04  0.65000000000E+04  0.10000000000E+01 0.  0.
    9000001    1    1    2    0    0  0.55443389643E+04  0.16442693603E+04 -0.29676055533E+04  0.65000000000E+04  0.10000000000E+01 0.  0.
</event>
<event>
 4    1  0.2201588E-006  0.1300000E+05  0.7957747E-01  0.1322471E+00
    9000001   -1    0    0    0    0  0.00000000000E+00  0.00000000000E+00  0.64999999231E+04  0.65000000000E+04  0.10000000000E+01 0.  0.
    9000001   -1    0    0    0    0 -0.00000000000E+00 -0.00000000000E+00 -0.64999999231E+04  0.65000000000E+04  0.10000000000E+01 0.  0.
    9000001    1    1    2    0    0  0.35003280756E+04  0.52348928215E+04 -0.16104656189E+04  0.65000000000E+04  0.10000000000E+01 0.  0.
    9000001    1    1    2    0    0 -0.35003280756E+04 -0.52348928215E+04  0.16104656189E+04  0.65000000000E+04  0.10000000000E+01 0.  0.
</event>
<event>
 4    1  0.2201588E-006  0.1300000E+05  0.7957747E-01  0.1322471E+00
    9000001   -1    0    0    0    0  0.00000000000E+00  0.00000000000E+00  0.64999999231E+04  0.65000000000E+04  0.10000000000E+01 0.  0.
    9000001   -1    0    0    0    0 -0.00000000000E+00 -0.00000000000E+00 -0.64999999231E+04  0.65000000000E+04  0.10000000000E+01 0.  0.
    9000001    1    1    2    0    0 -0.61801341470E+04  0.18215132755E+04  0.85908690601E+03  0.65000000000E+04  0.10000000000E+01 0.  0.
    9000001    1    1    2    0    0  0.61801341470E+04 -0.18215132755E+04 -0.85908690601E+03  0.65000000000E+04  0.10000000000E+01 0.  0.
</event>
<event>
 4    1  0.2201588E-006  0.1300000E+05  0.7957747E-01  0.1322471E+00
    9000001   -1    0    0    0    0  0.00000000000E+00  0.00000000000E+00  0.64999999231E+04  0.65000000000E+04  0.10000000000E+01 0.  0.
    9000001   -1    0    0    0    0 -0.00000000000E+00 -0.00000000000E+00 -0.64999999231E+04  0.65000000000E+04  0.10000000000E+01 0.  0.
    9000001    1    1    2    0    0  0.37606889374E+04 -0.34971712792E+04 -0.39845966872E+04  0.65000000000E+04  0.10000000000E+01 0.  0.
    9000001    1    1    2    0    0 -0.37606889374E+04  0.34971712792E+04  0.39845966872E+04  0.65000000000E+04  0.10000000000E+01 0.  0.
</event>
<event>
 4    1  0.2201588E-006  0.1300000E+05  0.7957747E-01  0.1322471E+00
    9000001   -1    0    0    0    0  0.00000000000E+00  0.00000000000E+00  0.64999999231E+04  0.65000000000E+04  0.10000000000E+01 0.  0.
    9000001   -1    0    0    0    0 -0.00000000000E+00 -0.00000000000E+00 -0.64999999231E+04  0.65000000000E+04  0.10000000000E+01 0.  0.
    9000001    1    1    2    0    0 -0.31743645980E+04  0.53813599895E+04 -0.17928672741E+04  0.65000000000E+04  0.10000000000E+01 0.  0.
    9000001    1    1    2    0    0  0.31743645980E+04 -0.53813599895E+04  0.17928672741E+04  0.65000000000E+04  0.10000000000E+01 0.  0.
</event>
<event>
 4    1  0.2201588E-006  0.1300000E+05  0.7957747E-01  0.1322471E+00
    9000001   -1    0    0    0    0  0.00000000000E+00  0.00000000000E+00  0.64999999231E+04  0.65000000000E+04  0.10000000000E+01 0.  0.
    9000001   -1    0    0    0    0 -0.00000000000E+00 -0.00000000000E+00 -0.64999999231E+04  0.65000000000E+04  0.10000000000E+01 0.  0.
    9000001    1    1    2    0    0 -0.14400529413E+04 -0.29770643849E+03 -0.63314782952E+04  0.65000000000E+04  0.10000000000E+01 0.  0.
    9000001    1    1    2    0    0  0.14400529413E+04  0.29770643849E+03  0.63314782952E+04  0.65000000000E+04  0.10000000000E+01 0.  0.
</event>
<event>
 4    1  0.2201588E-006  0.1300000E+05  0.7957747E-01  0.1322471E+00
    9000001   -1    0    0    0    0  0.00000000000E+00  0.00000000000E+00  0.64999999231E+04  0.65000000000E+04  0.10000000000E+01 0.  0.
    9000001   -1    0    0    0    0 -0.00000000000E+00 -0.00000000000E+00 -0.64999999231E+04  0.65000000000E+04  0.10000000000E+01 0.  0.
    9000001    1    1    2    0    0 -0.62188895528E+04  0.57770991674E+03 -0.18004618802E+04  0.65000000000E+04  0.10000000000E+01 0.  0.
    9000001    1    1    2    0    0  0.62188895528E+04 -0.57770991674E+03  0.18004618802E+04  0.65000000000E+04  0.10000000000E+01 0.  0.
</event>
<event>
 4    1  0.2201588E-006  0.1300000E+05  0.7957747E-01  0.1322471E+00
    9000001   -1    0    0    0    0  0.00000000000E+00  0.00000000000E+00  0.64999999231E+04  0.65000000000E+04  0.10000000000E+01 0.  0.
    9000001   -1    0    0    0    0 -0.00000000000E+00 -0.00000000000E+00 -0.64999999231E+04  0.65000000000E+04  0.10000000000E+01 0.  0.
    9000001    1    1    2    0    0  0.55374978898E+04  0.28147603051E+04  0.19139593897E+04  0.65000000000E+04  0.10000000000E+01 0.  0.
    9000001    1    1    2    0    0 -0.55374978898E+04 -0.28147603051E+04 -0.19139593897E+04  0.65000000000E+04  0.10000000000E+01 0.  0.
</event>
<event>
 4    1  0.2201588E-006  0.1300000E+05  0.7957747E-01  0.1322471E+00
    9000001   -1    0    0    0    0  0.00000000000E+00  0.00000000000E+00  0.64999999231E+04  0.65000000000E+04  0.10000000000E+01 0.  0.
    9000001   -1    0    0    0    0 -0.00000000000E+00 -0.00000000000E+00 -0.64999999231E+04  0.65000000000E+04  0.10000000000E+01 0.  0.
    9000001    1    1    2    0    0 -0.27184839005E+04 -0.37429486760E+04  0.45661996772E+04  0.65000000000E+04  0.10000000000E+01 0.  0.
    9000001    1    1    2    0    0  0.27184839005E+04  0.37429486760E+04 -0.45661996772E+04  0.65000000000E+04  0.10000000000E+01 0.  0.
</event>
<event>
 4    1  0.2201588E-006  0.1300000E+05  0.7957747E-01  0.1322471E+00
    9000001   -1    0    0    0    0  0.00000000000E+00  0.00000000000E+00  0.64999999231E+04  0.65000000000E+04  0.10000000000E+01 0.  0.
    9000001   -1    0    0    0    0 -0.00000000000E+00 -0.00000000000E+00 -0.64999999231E+04  0.65000000000E+04  0.10000000000E+01 0.  0.
    9000001    1    1    2    0    0 -0.34617685814E+04 -0.53785203017E+04  0.11565797218E+04  0.65000000000E+04  0.10000000000E+01 0.  0.
    9000001    1    1    2    0    0  0.34617685814E+04  0.53785203017E+04 -0.11565797218E+04  0.65000000000E+04  0.10000000000E+01 0.  0.
</event>
<event>
 4    1  0.2201588E-006  0.1300000E+05  0.7957747E-01  0.1322471E+00
    9000001   -1    0    0    0    0  0.00000000000E+00  0.00000000000E+00  0.64999999231E+04  0.65000000000E+04  0.10000000000E+01 0.  0.
    9000001   -1    0    0    0    0 -0.00000000000E+00 -0.00000000000E+00 -0.64999999231E+04  0.65000000000E+04  0.10000000000E+01 0.  0.
    9000001    1    1    2    0    0 -0.39012665812E+04  0.11399547245E+04  0.50725359820E+04  0.65000000000E+04  0.10000000000E+01 0.  0.
    9000001    1    1    2    0    0  0.39012665812E+04 -0.11399547245E+04 -0.50725359820E+04  0.65000000000E+04  0.10000000000E+01 0.  0.
</event>
<event>
 4    1  0.2201588E-006  0.1300000E+05  0.7957747E-01  0.1322471E+00
    9000001   -1    0    0    0    0  0.00000000000E+00  0.00000000000E+00  0.64999999231E+04  0.65000000000E+04  0.10000000000E+01 0.  0.
    9000001   -1    0    0    0    0 -0.00000000000E+00 -0.00000000000E+00 -0.64999999231E+04  0.65000000000E+04  0.10000000000E+01 0.  0.
    9000001    1    1    2    0    0 -0.21762979284E+03  0.55813031426E+04 -0.33244084443E+04  0.65000000000E+04  0.10000000000E+01 0.  0.
    9000001    1    1    2    0    0  0.21762979284E+03 -0.55813031426E+04  0.33244084443E+04  0.65000000000E+04  0.10000000000E+01 0.  0.
</event>
<event>
 4    1  0.2201588E-006  0.1300000E+05  0.7957747E-01  0.1322471E+00
    9000001   -1    0    0    0    0  0.00000000000E+00  0.00000000000E+00  0.64999999231E+04  0.65000000000E+04  0.10000000000E+01 0.  0.
    9000001   -1    0    0    0    0 -0.00000000000E+00 -0.00000000000E+00 -0.64999999231E+04  0.65000000000E+04  0.10000000000E+01 0.  0.
    9000001    1    1    2    0    0 -0.39229273709E+04 -0.45087286502E+04  0.25557789032E+04  0.65000000000E+04  0.10000000000E+01 0.  0.
    9000001    1    1    2    0    0  0.39229273709E+04  0.45087286502E+04 -0.25557789032E+04  0.65000000000E+04  0.10000000000E+01 0.  0.
</event>
<event>
 4    1  0.2201588E-006  0.1300000E+05  0.7957747E-01  0.1322471E+00
    9000001   -1    0    0    0    0  0.00000000000E+00  0.00000000000E+00  0.64999999231E+04  0.65000000000E+04  0.10000000000E+01 0.  0.
    9000001   -1    0    0    0    0 -0.00000000000E+00 -0.00000000000E+00 -0.64999999231E+04  0.65000000000E+04  0.10000000000E+01 0.  0.
    9000001    1    1    2    0    0  0.22134330928E+04  0.44592820537E+04  0.41791765348E+04  0.65000000000E+04  0.10000000000E+01 0.  0.
    9000001    1    1    2    0    0 -0.22134330928E+04 -0.44592820537E+04 -0.41791765348E+04  0.65000000000E+04  0.10000000000E+01 0.  0.
</event>
<event>
 4    1  0.2201588E-006  0.1300000E+05  0.7957747E-01  0.1322471E+00
    9000001   -1    0    0    0    0  0.00000000000E+00  0.00000000000E+00  0.64999999231E+04  0.65000000000E+04  0.10000000000E+01 0.  0.
    9000001   -1    0    0    0    0 -0.00000000000E+00 -0.00000000000E+00 -0.64999999231E+04  0.65000000000E+04  0.10000000000E+01 0.  0.
    9000001    1    1    2    0    0  0.62621524599E+04 -0.14646153574E+04 -0.94358222945E+03  0.65000000000E+04  0.10000000000E+01 0.  0.
    9000001    1    1    2    0    0 -0.62621524599E+04  0.14646153574E+04  0.94358222945E+03  0.65000000000E+04  0.10000000000E+01 0.  0.
</event>
<event>
 4    1  0.2201588E-006  0.1300000E+05  0.7957747E-01  0.1322471E+00
    9000001   -1    0    0    0    0  0.00000000000E+00  0.00000000000E+00  0.64999999231E+04  0.65000000000E+04  0.10000000000E+01 0.  0.
    9000001   -1    0    0    0    0 -0.00000000000E+00 -0.00000000000E+00 -0.64999999231E+04  0.65000000000E+04  0.10000000000E+01 0.  0.
    9000001    1    1    2    0    0 -0.52976732801E+04 -0.15360912240E+04 -0.34387614877E+04  0.65000000000E+04  0.10000000000E+01 0.  0.
    9000001    1    1    2    0    0  0.52976732801E+04  0.15360912240E+04  0.34387614877E+04  0.65000000000E+04  0.10000000000E+01 0.  0.
</event>
<event>
 4    1  0.2201588E-006  0.1300000E+05  0.7957747E-01  0.1322471E+00
    9000001   -1    0    0    0    0  0.00000000000E+00  0.00000000000E+00  0.64999999231E+04  0.65000000000E+04  0.10000000000E+01 0.  0.
    9000001   -1    0    0    0    0 -0.00000000000E+00 -0.00000000000E+00 -0.64999999231E+04  0.65000000000E+04  0.10000000000E+01 0.  0.
    9000001    1    1    2    0    0 -0.62435336881E+04  0.92280866750E+03  0.15545771929E+04  0.65000000000E+04  0.10000000000E+01 0.  0.
    9000001    1    1    2    0    0  0.62435336881E+04 -0.92280866750E+03 -0.15545771929E+04  0.65000000000E+04  0.10000000000E+01 0.  0.
</event>
<event>
 4    1  0.2201588E-006  0.1300000E+05  0.7957747E-01  0.1322471E+00
    9000001   -1    0    0    0    0  0.00000000000E+00  0.00000000000E+00  0.64999999231E+04  0.65000000000E+04  0.10000000000E+01 0.  0.
    9000001   -1    0    0    0    0 -0.00000000000E+00 -0.00000000000E+00 -0.64999999231E+04  0.65000000000E+04  0.10000000000E+01 0.  0.
    9000001    1    1    2    0    0 -0.43394525688E+04  0.75398747870E+03 -0.47802356935E+04  0.65000000000E+04  0.10000000000E+01 0.  0.
    9000001    1    1    2    0    0  0.43394525688E+04 -0.75398747870E+03  0.47802356935E+04  0.65000000000E+04  0.10000000000E+01 0.  0.
</event>
<event>
 4    1  0.2201588E-006  0.1300000E+05  0.7957747E-01  0.1322471E+00
    9000001   -1    0    0    0    0  0.00000000000E+00  0.00000000000E+00  0.64999999231E+04  0.65000000000E+04  0.10000000000E+01 0.  0.
    9000001   -1    0    0    0    0 -0.00000000000E+00 -0.00000000000E+00 -0.64999999231E+04  0.65000000000E+04  0.10000000000E+01 0.  0.
    9000001    1    1    2    0    0 -0.32980860345E+04 -0.43673004739E+04 -0.35070377927E+04  0.65000000000E+04  0.10000000000E+01 0.  0.
    9000001    1    1    2    0    0  0.32980860345E+04  0.43673004739E+04  0.35070377927E+04  0.65000000000E+04  0.10000000000E+01 0.  0.
</event>
<event>
 4    1  0.2201588E-006  0.1300000E+05  0.7957747E-01  0.1322471E+00
    9000001   -1    0    0    0    0  0.00000000000E+00  0.00000000000E+00  0.64999999231E+04  0.65000000000E+04  0.10000000000E+01 0.  0.
    9000001   -1    0    0    0    0 -0.00000000000E+00 -0.00000000000E+00 -0.64999999231E+04  0.65000000000E+04  0.10000000000E+01 0.  0.
    9000001    1    1    2    0    0 -0.43565314935E+04 -0.46036263625E+04 -0.14412691148E+04  0.65000000000E+04  0.10000000000E+01 0.  0.
    9000001    1    1    2    0    0  0.43565314935E+04  0.46036263625E+04  0.14412691148E+04  0.65000000000E+04  0.10000000000E+01 0.  0.
</event>
<event>
 4    1  0.2201588E-006  0.1300000E+05  0.7957747E-01  0.1322471E+00
    9000001   -1    0    0    0    0  0.00000000000E+00  0.00000000000E+00  0.64999999231E+04  0.65000000000E+04  0.10000000000E+01 0.  0.
    9000001   -1    0    0    0    0 -0.00000000000E+00 -0.00000000000E+00 -0.64999999231E+04  0.65000000000E+04  0.10000000000E+01 0.  0.
    9000001    1    1    2    0    0 -0.58255552197E+04 -0.18050517709E+04 -0.22482645500E+04  0.65000000000E+04  0.10000000000E+01 0.  0.
    9000001    1    1    2    0    0  0.58255552197E+04  0.18050517709E+04  0.22482645500E+04  0.65000000000E+04  0.10000000000E+01 0.  0.
</event>
<event>
 4    1  0.2201588E-006  0.1300000E+05  0.7957747E-01  0.1322471E+00
    9000001   -1    0    0    0    0  0.00000000000E+00  0.00000000000E+00  0.64999999231E+04  0.65000000000E+04  0.10000000000E+01 0.  0.
    9000001   -1    0    0    0    0 -0.00000000000E+00 -0.00000000000E+00 -0.64999999231E+04  0.65000000000E+04  0.10000000000E+01 0.  0.
    9000001    1    1    2    0    0 -0.33482781093E+04  0.51135257353E+04 -0.22115350454E+04  0.65000000000E+04  0.10000000000E+01 0.  0.
    9000001    1    1    2    0    0  0.33482781093E+04 -0.51135257353E+04  0.22115350454E+04  0.65000000000E+04  0.10000000000E+01 0.  0.
</event>
<event>
 4    1  0.2201588E-006  0.1300000E+05  0.7957747E-01  0.1322471E+00
    9000001   -1    0    0    0    0  0.00000000000E+00  0.00000000000E+00  0.64999999231E+04  0.65000000000E+04  0.10000000000E+01 0.  0.
    9000001   -1    0    0    0    0 -0.00000000000E+00 -0.00000000000E+00 -0.64999999231E+04  0.65000000000E+04  0.10000000000E+01 0.  0.
    9000001    1    1    2    0    0 -0.11633328052E+04  0.47592681967E+04 -0.42715362595E+04  0.65000000000E+04  0.10000000000E+01 0.  0.
    9000001    1    1    2    0    0  0.11633328052E+04 -0.47592681967E+04  0.42715362595E+04  0.65000000000E+04  0.10000000000E+01 0.  0.
</event>
<event>
 4    1  0.2201588E-006  0.1300000E+05  0.7957747E-01  0.1322471E+00
    9000001   -1    0    0    0    0  0.00000000000E+00  0.00000000000E+00  0.64999999231E+04  0.65000000000E+04  0.10000000000E+01 0.  0.
    9000001   -1    0    0    0    0 -0.00000000000E+00 -0.00000000000E+00 -0.64999999231E+04  0.65000000000E+04  0.10000000000E+01 0.  0.
    9000001    1    1    2    0    0  0.63334784393E+04 -0.38870315696E+03  0.14092408290E+04  0.65000000000E+04  0.10000000000E+01 0.  0.
    9000001    1    1    2    0    0 -0.63334784393E+04  0.38870315696E+03 -0.14092408290E+04  0.65000000000E+04  0.10000000000E+01 0.  0.
</event>
<event>
 4    1  0.2201588E-006  0.1300000E+05  0.7957747E-01  0.1322471E+00
    9000001   -1    0    0    0    0  0.00000000000E+00  0.00000000000E+00  0.64999999231E+04  0.65000000000E+04  0.10000000000E+01 0.  0.
    9000001   -1    0    0    0    0 -0.00000000000E+00 -0.00000000000E+00 -0.64999999231E+04  0.65000000000E+04  0.10000000000E+01 0.  0.
    9000001    1    1    2    0    0  0.25473051876E+04 -0.52290168514E+04 -0.29014854900E+04  0.65000000000E+04  0.10000000000E+01 0.  0.
    9000001    1    1    2    0    0 -0.25473051876E+04  0.52290168514E+04  0.29014854900E+04  0.65000000000E+04  0.10000000000E+01 0.  0.
</event>
<event>
 4    1  0.2201588E-006  0.1300000E+05  0.7957747E-01  0.1322471E+00
    9000001   -1    0    0    0    0  0.00000000000E+00  0.00000000000E+00  0.64999999231E+04  0.65000000000E+04  0.10000000000E+01 0.  0.
    9000001   -1    0    0    0    0 -0.00000000000E+00 -0.00000000000E+00 -0.64999999231E+04  0.65000000000E+04  0.10000000000E+01 0.  0.
    9000001    1    1    2    0    0 -0.43169093600E+04 -0.45028939190E+04  0.18270848179E+04  0.65000000000E+04  0.10000000000E+01 0.  0.
    9000001    1    1    2    0    0  0.43169093600E+04  0.45028939190E+04 -0.18270848179E+04  0.65000000000E+04  0.10000000000E+01 0.  0.
</event>
<event>
 4    1  0.2201588E-006  0.1300000E+05  0.7957747E-01  0.1322471E+00
    9000001   -1    0    0    0    0  0.00000000000E+00  0.00000000000E+00  0.64999999231E+04  0.65000000000E+04  0.10000000000E+01 0.  0.
    9000001   -1    0    0    0    0 -0.00000000000E+00 -0.00000000000E+00 -0.64999999231E+04  0.65000000000E+04  0.10000000000E+01 0.  0.
    9000001    1    1    2    0    0 -0.44401331568E+04  0.38895311965E+04  0.27215369962E+04  0.65000000000E+04  0.10000000000E+01 0.  0.
    9000001    1    1    2    0    0  0.44401331568E+04 -0.38895311965E+04 -0.27215369962E+04  0.65000000000E+04  0.10000000000E+01 0.  0.
</event>
<event>
 4    1  0.2201588E-006  0.1300000E+05  0.7957747E-01  0.1322471E+00
    9000001   -1    0    0    0    0  0.00000000000E+00  0.00000000000E+00  0.64999999231E+04  0.65000000000E+04  0.10000000000E+01 0.  0.
    9000001   -1    0    0    0    0 -0.00000000000E+00 -0.00000000000E+00 -0.64999999231E+04  0.65000000000E+04  0.10000000000E+01 0.  0.
    9000001    1    1    2    0    0  0.26157828646E+04 -0.44557954027E+03 -0.59337288343E+04  0.65000000000E+04  0.10000000000E+01 0.  0.
    9000001    1    1    2    0    0 -0.26157828646E+04  0.44557954027E+03  0.59337288343E+04  0.65000000000E+04  0.10000000000E+01 0.  0.
</event>
<event>
 4    1  0.2201588E-006  0.1300000E+05  0.7957747E-01  0.1322471E+00
    9000001   -1    0    0    0    0  0.00000000000E+00  0.00000000000E+00  0.64999999231E+04  0.65000000000E+04  0.10000000000E+01 0.  0.
    9000001   -1    0    0    0    0 -0.00000000000E+00 -0.00000000000E+00 -0.64999999231E+04  0.65000000000E+04  0.10000000000E+01 0.  0.
    9000001    1    1    2    0    0 -0.17932639586E+03  0.24700249216E+04  0.60097269431E+04  0.65000000000E+04  0.10000000000E+01 0.  0.
    9000001    1    1    2    0    0  0.17932639586E+03 -0.24700249216E+04 -0.60097269431E+04  0.65000000000E+04  0.10000000000E+01 0.  0.
</event>
<event>
 4    1  0.2201588E-006  0.1300000E+05  0.7957747E-01  0.1322471E+00
    9000001   -1    0    0    0    0  0.00000000000E+00  0.00000000000E+00  0.64999999231E+04  0.65000000000E+04  0.10000000000E+01 0.  0.
    9000001   -1    0    0    0    0 -0.00000000000E+00 -0.00000000000E+00 -0.64999999231E+04  0.65000000000E+04  0.10000000000E+01 0.  0.
    9000001    1    1    2    0    0  0.41406071115E+04 -0.39921008057E+04 -0.30279535838E+04  0.65000000000E+04  0.10000000000E+01 0.  0.
    9000001    1    1    2    0    0 -0.41406071115E+04  0.39921008057E+04  0.30279535838E+04  0.65000000000E+04  0.10000000000E+01 0.  0.
</event>
<event>
 4    1  0.2201588E-006  0.1300000E+05  0.7957747E-01  0.1322471E+00
    9000001   -1    0    0    0    0  0.00000000000E+00  0.00000000000E+00  0.64999999231E+04  0.65000000000E+04  0.10000000000E+01 0.  0.
    9000001   -1    0    0    0    0 -0.00000000000E+00 -0.00000000000E+00 -0.64999999231E+04  0.65000000000E+04  0.10000000000E+01 0.  0.
    9000001    1    1    2    0    0 -0.21524471506E+04  0.61184756094E+04  0.42570703620E+03  0.65000000000E+04  0.10000000000E+01 0.  0.
    9000001    1    1    2    0    0  0.21524471506E+04 -0.61184756094E+04 -0.42570703620E+03  0.65000000000E+04  0.10000000000E+01 0.  0.
</event>
<event>
 4    1  0.2201588E-006  0.1300000E+05  0.7957747E-01  0.1322471E+00
    9000001   -1    0    0    0    0  0.00000000000E+00  0.00000000000E+00  0.64999999231E+04  0.65000000000E+04  0.10000000000E+01 0.  0.
    9000001   -1    0    0    0    0 -0.00000000000E+00 -0.00000000000E+00 -0.64999999231E+04  0.65000000000E+04  0.10000000000E+01 0.  0.
    9000001    1    1    2    0    0  0.40672675799E+04 -0.50281521676E+03  0.50452463063E+04  0.65000000000E+04  0.10000000000E+01 0.  0.
    9000001    1    1    2    0    0 -0.40672675799E+04  0.50281521676E+03 -0.50452463063E+04  0.65000000000E+04  0.10000000000E+01 0.  0.
</event>
<event>
 4    1  0.2201588E-006  0.1300000E+05  0.7957747E-01  0.1322471E+00
    9000001   -1    0    0    0    0  0.00000000000E+00  0.00000000000E+00  0.64999999231E+04  0.65000000000E+04  0.10000000000E+01 0.  0.
    9000001   -1    0    0    0    0 -0.00000000000E+00 -0.00000000000E+00 -0.64999999231E+04  0.65000000000E+04  0.10000000000E+01 0.  0.
    9000001    1    1    2    0    0 -0.20425194778E+04  0.33579155227E+04 -0.51771146911E+04  0.65000000000E+04  0.10000000000E+01 0.  0.
    9000001    1    1    2    0    0  0.20425194778E+04 -0.33579155227E+04  0.51771146911E+04  0.65000000000E+04  0.10000000000E+01 0.  0.
</event>
<event>
 4    1  0.2201588E-006  0.1300000E+05  0.7957747E-01  0.1322471E+00
    9000001   -1    0    0    0    0  0.00000000000E+00  0.00000000000E+00  0.64999999231E+04  0.65000000000E+04  0.10000000000E+01 0.  0.
    9000001   -1    0    0    0    0 -0.00000000000E+00 -0.00000000000E+00 -0.64999999231E+04  0.65000000000E+04  0.10000000000E+01 0.  0.
    9000001    1    1    2    0    0  0.61157531251E+04 -0.36843765654E+03  0.21706718791E+04  0.65000000000E+04  0.10000000000E+01 0.  0.
    9000001    1    1    2    0    0 -0.61157531251E+04  0.36843765654E+03 -0.21706718791E+04  0.65000000000E+04  0.10000000000E+01 0.  0.
</event>
<event>
 4    1  0.2201588E-006  0.1300000E+05  0.7957747E-01  0.1322471E+00
    9000001   -1    0    0    0    0  0.00000000000E+00  0.00000000000E+00  0.64999999231E+04  0.65000000000E+04  0.10000000000E+01 0.  0.
    9000001   -1    0    0    0    0 -0.00000000000E+00 -0.00000000000E+00 -0.64999999231E+04  0.65000000000E+04  0.10000000000E+01 0.  0.
    9000001    1    1    2    0    0 -0.11345915786E+04  0.45671285447E+04 -0.44837526477E+04  0.65000000000E+04  0.10000000000E+01 0.  0.
    9000001    1    1    2    0    0  0.11345915786E+04 -0.45671285447E+04  0.44837526477E+04  0.65000000000E+04  0.10000000000E+01 0.  0.
</event>
<event>
 4    1  0.2201588E-006  0.1300000E+05  0.7957747E-01  0.1322471E+00
    9000001   -1    0    0    0    0  0.00000000000E+00  0.00000000000E+00  0.64999999231E+04  0.65000000000E+04  0.10000000000E+01 0.  0.
    9000001   -1    0    0    0    0 -0.00000000000E+00 -0.00000000000E+00 -0.64999999231E+04  0.65000000000E+04  0.10000000000E+01 0.  0.
    9000001    1    1    2    0    0  0.15488018153E+04  0.63126664372E+04 -0.38136461001E+02  0.65000000000E+04  0.10000000000E+01 0.  0.
    9000001    1    1    2    0    0 -0.15488018153E+04 -0.63126664372E+04  0.38136461001E+02  0.65000000000E+04  0.10000000000E+01 0.  0.
</event>
<event>
 4    1  0.2201588E-006  0.1300000E+05  0.7957747E-01  0.1322471E+00
    9000001   -1    0    0    0    0  0.00000000000E+00  0.00000000000E+00  0.64999999231E+04  0.65000000000E+04  0.10000000000E+01 0.  0.
    9000001   -1    0    0    0    0 -0.00000000000E+00 -0.00000000000E+00 -0.64999999231E+04  0.65000000000E+04  0.10000000000E+01 0.  0.
    9000001    1    1    2    0    0  0.44306428050E+04 -0.28595115821E+04  0.38003416750E+04  0.65000000000E+04  0.10000000000E+01 0.  0.
    9000001    1    1    2    0    0 -0.44306428050E+04  0.28595115821E+04 -0.38003416750E+04  0.65000000000E+04  0.10000000000E+01 0.  0.
</event>
<event>
 4    1  0.2201588E-006  0.1300000E+05  0.7957747E-01  0.1322471E+00
    9000001   -1    0    0    0    0  0.00000000000E+00  0.00000000000E+00  0.64999999231E+04  0.65000000000E+04  0.10000000000E+01 0.  0.
    9000001   -1    0    0    0    0 -0.00000000000E+00 -0.00000000000E+00 -0.64999999231E+04  0.65000000000E+04  0.10000000000E+01 0.  0.
    9000001    1    1    2    0    0 -0.59228223055E+04 -0.12664092206E+04  0.23593182540E+04  0.65000000000E+04  0.10000000000E+01 0.  0.
    9000001    1    1    2    0    0  0.59228223055E+04  0.12664092206E+04 -0.23593182540E+04  0.65000000000E+04  0.10000000000E+01 0.  0.
</event>
<event>
 4    1  0.2201588E-006  0.1300000E+05  0.7957747E-01  0.1322471E+00
    9000001   -1    0    0    0    0  0.00000000000E+00  0.00000000000E+00  0.64999999231E+04  0.65000000000E+04  0.10000000000E+01 0.  0.
    9000001   -1    0    0    0    0 -0.00000000000E+00 -0.00000000000E+00 -0.64999999231E+04  0.65000000000E+04  0.10000000000E+01 0.  0.
    9000001    1    1    2    0    0  0.47580496182E+04 -0.29257593327E+04  0.33242886694E+04  0.65000000000E+04  0.10000000000E+01 0.  0.
    9000001    1    1    2    0    0 -0.47580496182E+04  0.29257593327E+04 -0.33242886694E+04  0.65000000000E+04  0.10000000000E+01 0.  0.
</event>
<event>
 4    1  0.2201588E-006  0.1300000E+05  0.7957747E-01  0.1322471E+00
    9000001   -1    0    0    0    0  0.00000000000E+00  0.00000000000E+00  0.64999999231E+04  0.65000000000E+04  0.10000000000E+01 0.  0.
    9000001   -1    0    0    0    0 -0.00000000000E+00 -0.00000000000E+00 -0.64999999231E+04  0.65000000000E+04  0.10000000000E+01 0.  0.
    9000001    1    1    2    0    0 -0.73720642807E+03 -0.63795014323E+04  0.10042346127E+04  0.65000000000E+04  0.10000000000E+01 0.  0.
    9000001    1    1    2    0    0  0.73720642807E+03  0.63795014323E+04 -0.10042346127E+04  0.65000000000E+04  0.10000000000E+01 0.  0.
</event>
<event>
 4    1  0.2201588E-006  0.1300000E+05  0.7957747E-01  0.1322471E+00
    9000001   -1    0    0    0    0  0.00000000000E+00  0.00000000000E+00  0.64999999231E+04  0.65000000000E+04  0.10000000000E+01 0.  0.
    9000001   -1    0    0    0    0 -0.00000000000E+00 -0.00000000000E+00 -0.64999999231E+04  0.65000000000E+04  0.10000000000E+01 0.  0.
    9000001    1    1    2    0    0 -0.22836795473E+04  0.37809709954E+03  0.60738660924E+04  0.65000000000E+04  0.10000000000E+01 0.  0.
    9000001    1    1    2    0    0  0.22836795473E+04 -0.37809709954E+03 -0.60738660924E+04  0.65000000000E+04  0.10000000000E+01 0.  0.
</event>
<event>
 4    1  0.2201588E-006  0.1300000E+05  0.7957747E-01  0.1322471E+00
    9000001   -1    0    0    0    0  0.00000000000E+00  0.00000000000E+00  0.64999999231E+04  0.65000000000E+04  0.10000000000E+01 0.  0.
    9000001   -1    0    0    0    0 -0.00000000000E+00 -0.00000000000E+00 -0.64999999231E+04  0.65000000000E+04  0.10000000000E+01 0.  0.
    9000001    1    1    2    0    0 -0.31733751349E+04 -0.44767185951E+04  0.34840608309E+04  0.65000000000E+04  0.10000000000E+01 0.  0.
    9000001    1    1    2    0    0  0.31733751349E+04  0.44767185951E+04 -0.34840608309E+04  0.65000000000E+04  0.10000000000E+01 0.  0.
</event>
<event>
 4    1  0.2201588E-006  0.1300000E+05  0.7957747E-01  0.1322471E+00
    9000001   -1    0    0    0    0  0.00000000000E+00  0.00000000000E+00  0.64999999231E+04  0.65000000000E+04  0.10000000000E+01 0.  0.
    9000001   -1    0    0    0    0 -0.00000000000E+00 -0.00000000000E+00 -0.64999999231E+04  0.65000000000E+04  0.10000000000E+01 0.  0.
    9000001    1    1    2    0    0  0.10386700446E+04  0.57550766519E+04 -0.28372973529E+04  0.65000000000E+04  0.10000000000E+01 0.  0.
    9000001    1    1    2    0    0 -0.10386700446E+04 -0.57550766519E+04  0.28372973529E+04  0.65000000000E+04  0.10000000000E+01 0.  0.
</event>
<event>
 4    1  0.2201588E-006  0.1300000E+05  0.7957747E-01  0.1322471E+00
    9000001   -1    0    0    0    0  0.00000000000E+00  0.00000000000E+00  0.64999999231E+04  0.65000000000E+04  0.10000000000E+01 0.  0.
    9000001   -1    0    0    0    0 -0.00000000000E+00 -0.00000000000E+00 -0.64999999231E+04  0.65000000000E+04  0.10000000000E+01 0.  0.
    9000001    1    1    2    0    0 -0.34165600613E+04  0.54675194746E+04 -0.82664813734E+03  0.65000000000E+04  0.10000000000E+01 0.  0.
    9000001    1    1    2    0    0  0.34165600613E+04 -0.54675194746E+04  0.82664813734E+03  0.65000000000E+04  0.10000000000E+01 0.  0.
</event>
<event>
 4    1  0.2201588E-006  0.1300000E+05  0.7957747E-01  0.1322471E+00
    9000001   -1    0    0    0    0  0.00000000000E+00  0.00000000000E+00  0.64999999231E+04  0.65000000000E+04  0.10000000000E+01 0.  0.
    9000001   -1    0    0    0    0 -0.00000000000E+00 -0.00000000000E+00 -0.64999999231E+04  0.65000000000E+04  0.10000000000E+01 0.  0.
    9000001    1    1    2    0    0  0.57961366130E+04 -0.29227570267E+04 -0.33509808435E+03  0.65000000000E+04  0.10000000000E+01 0.  0.
    9000001    1    1    2    0    0 -0.57961366130E+04  0.29227570267E+04  0.33509808435E+03  0.65000000000E+04  0.10000000000E+01 0.  0.
</event>
<event>
 4    1  0.2201588E-006  0.1300000E+05  0.7957747E-01  0.1322471E+00
    9000001   -1    0    0    0    0  0.00000000000E+00  0.00000000000E+00  0.64999999231E+04  0.65000000000E+04  0.10000000000E+01 0.  0.
    9000001   -1    0    0    0    0 -0.00000000000E+00 -0.00000000000E+00 -0.64999999231E+04  0.65000000000E+04  0.10000000000E+01 0.  0.
    9000001    1    1    2    0    0 -0.10881494490E+04 -0.29568048559E+04  0.56853526558E+04  0.65000000000E+04  0.10000000000E+01 0.  0.
    9000001    1    1    2    0    0  0.10881494490E+04  0.29568048559E+04 -0.56853526558E+04  0.65000000000E+04  0.10000000000E+01 0.  0.
</event>
<event>
 4    1  0.2201588E-006  0.1300000E+05  0.7957747E-01  0.1322471E+00
    9000001   -1    0    0    0    0  0.00000000000E+00  0.00000000000E+00  0.64999999231E+04  0.65000000000E+04  0.10000000000E+01 0.  0.
    9000001   -1    0    0    0    0 -0.00000000000E+00 -0.00000000000E+00 -0.64999999231E+04  0.65000000000E+04  0.10000000000E+01 0.  0.
    9000001    1    1    2    0    0 -0.41236696778E+04 -0.26772479405E+04  0.42517867836E+04  0.65000000000E+04  0.10000000000E+01 0.  0.
    9000001    1    1    2    0    0  0.41236696778E+04  0.26772479405E+04 -0.42517867836E+04  0.65000000000E+04  0.10000000000E+01 0.  0.
</event>
<event>
 4    1  0.2201588E-006  0.1300000E+05  0.7957747E-01  0.1322471E+00
    9000001   -1    0    0    0    0  0.00000000000E+00  0.00000000000E+00  0.64999999231E+04  0.65000000000E+04  0.10000000000E+01 0.  0.
    9000001   -1    0    0    0    0 -0.00000000000E+00 -0.00000000000E+00 -0.64999999231E+04  0.65000000000E+04  0.10000000000E+01 0.  0.
    9000001    1    1    2    0    0  0.49544956498E+04 -0.14289423146E+04  0.39574102286E+04  0.65000000000E+04  0.10000000000E+01 0.  0.
    9000001    1    1    2    0    0 -0.49544956498E+04  0.14289423146E+04 -0.39574102286E+04  0.65000000000E+04  0.10000000000E+01 0.  0.
</event>
<event>
 4    1  0.2201588E-006  0.1300000E+05  0.7957747E-01  0.1322471E+00
    9000001   -1    0    0    0    0  0.00000000000E+00  0.00000000000E+00  0.64999999231E+04  0.65000000000E+04  0.10000000000E+01 0.  0.
    9000001   -1    0    0    0    0 -0.00000000000E+00 -0.00000000000E+00 -0.64999999231E+04  0.65000000000E+04  0.10000000000E+01 0.  0.
    9000001    1    1    2    0    0  0.46603446740E+04  0.81849149077E+03 -0.44565971547E+04  0.65000000000E+04  0.10000000000E+01 0.  0.
    9000001    1    1    2    0    0 -0.46603446740E+04 -0.81849149077E+03  0.44565971547E+04  0.65000000000E+04  0.10000000000E+01 0.  0.
</event>
<event>
 4    1  0.2201588E-006  0.1300000E+05  0.7957747E-01  0.1322471E+00
    9000001   -1    0    0    0    0  0.00000000000E+00  0.00000000000E+00  0.64999999231E+04  0.65000000000E+04  0.10000000000E+01 0.  0.
    9000001   -1    0    0    0    0 -0.00000000000E+00 -0.00000000000E+00 -0.64999999231E+04  0.65000000000E+04  0.10000000000E+01 0.  0.
    9000001    1    1    2    0    0 -0.11579351010E+04  0.61385266702E+04 -0.17965732996E+04  0.65000000000E+04  0.10000000000E+01 0.  0.
    9000001    1    1    2    0    0  0.11579351010E+04 -0.61385266702E+04  0.17965732996E+04  0.65000000000E+04  0.10000000000E+01 0.  0.
</event>
<event>
 4    1  0.2201588E-006  0.1300000E+05  0.7957747E-01  0.1322471E+00
    9000001   -1    0    0    0    0  0.00000000000E+00  0.00000000000E+00  0.64999999231E+04  0.65000000000E+04  0.10000000000E+01 0.  0.
    9000001   -1    0    0    0    0 -0.00000000000E+00 -0.00000000000E+00 -0.64999999231E+04  0.65000000000E+04  0.10000000000E+01 0.  0.
    9000001    1    1    2    0    0 -0.16082425719E+04  0.62531876160E+04  0.74913247758E+03  0.65000000000E+04  0.10000000000E+01 0.  0.
    9000001    1    1    2    0    0  0.16082425719E+04 -0.62531876160E+04 -0.74913247758E+03  0.65000000000E+04  0.10000000000E+01 0.  0.
</event>
<event>
 4    1  0.2201588E-006  0.1300000E+05  0.7957747E-01  0.1322471E+00
    9000001   -1    0    0    0    0  0.00000000000E+00  0.00000000000E+00  0.64999999231E+04  0.65000000000E+04  0.10000000000E+01 0.  0.
    9000001   -1    0    0    0    0 -0.00000000000E+00 -0.00000000000E+00 -0.64999999231E+04  0.65000000000E+04  0.10000000000E+01 0.  0.
    9000001    1    1    2    0    0 -0.17007464497E+04 -0.54997804882E+04  0.30182569632E+04  0.65000000000E+04  0.10000000000E+01 0.  0.
    9000001    1    1    2    0    0  0.17007464497E+04  0.54997804882E+04 -0.30182569632E+04  0.65000000000E+04  0.10000000000E+01 0.  0.
</event>
<event>
 4    1  0.2201588E-006  0.1300000E+05  0.7957747E-01  0.1322471E+00
    9000001   -1    0    0    0    0  0.00000000000E+00  0.00000000000E+00  0.64999999231E+04  0.65000000000E+04  0.10000000000E+01 0.  0.
    9000001   -1    0    0    0    0 -0.00000000000E+00 -0.00000000000E+00 -0.64999999231E+04  0.65000000000E+04  0.10000000000E+01 0.  0.
    9000001    1    1    2    0    0 -0.27697898179E+04  0.13840193342E+04 -0.57151337558E+04  0.65000000000E+04  0.10000000000E+01 0.  0.
    9000001    1    1    2    0    0  0.27697898179E+04 -0.13840193342E+04  0.57151337558E+04  0.65000000000E+04  0.10000000000E+01 0.  0.
</event>
<event>
 4    1  0.2201588E-006  0.1300000E+05  0.7957747E-01  0.1322471E+00
    9000001   -1    0    0    0    0  0.00000000000E+00  0.00000000000E+00  0.64999999231E+04  0.65000000000E+04  0.10000000000E+01 0.  0.
    9000001   -1    0    0    0    0 -0.00000000000E+00 -0.00000000000E+00 -0.64999999231E+04  0.65000000000E+04  0.10000000000E+01 0.  0.
    9000001    1    1    2    0    0 -0.26608272550E+04 -0.14374151953E+04  0.57535932143E+04  0.65000000000E+04  0.10000000000E+01 0.  0.
    9000001    1    1    2    0    0  0.26608272550E+04  0.14374151953E+04 -0.57535932143E+04  0.65000000000E+04  0.10000000000E+01 0.  0.
</event>
<event>
 4    1  0.2201588E-006  0.1300000E+05  0.7957747E-01  0.1322471E+00
    9000001   -1    0    0    0    0  0.00000000000E+00  0.00000000000E+00  0.64999999231E+04  0.65000000000E+04  0.10000000000E+01 0.  0.
    9000001   -1    0    0    0    0 -0.00000000000E+00 -0.00000000000E+00 -0.64999999231E+04  0.65000000000E+04  0.10000000000E+01 0.  0.
    9000001    1    1    2    0    0 -0.51250203579E+04  0.27520219097E+04  0.29000932294E+04  0.65000000000E+04  0.10000000000E+01 0.  0.
    9000001    1    1    2    0    0  0.51250203579E+04 -0.27520219097E+04 -0.29000932294E+04  0.65000000000E+04  0.10000000000E+01 0.  0.
</event>
<event>
 4    1  0.2201588E-006  0.1300000E+05  0.7957747E-01  0.1322471E+00
    9000001   -1    0    0    0    0  0.00000000000E+00  0.00000000000E+00  0.64999999231E+04  0.65000000000E+04  0.10000000000E+01 0.  0.
    9000001   -1    0    0    0    0 -0.00000000000E+00 -0.00000000000E+00 -0.64999999231E+04  0.65000000000E+04  0.10000000000E+01 0.  0.
    9000001    1    1    2    0    0  0.16042907643E+04 -0.62511875708E+04  0.77388894432E+03  0.65000000000E+04  0.10000000000E+01 0.  0.
    9000001    1    1    2    0    0 -0.16042907643E+04  0.62511875708E+04 -0.77388894432E+03  0.65000000000E+04  0.10000000000E+01 0.  0.
</event>
<event>
 4    1  0.2201588E-006  0.1300000E+05  0.7957747E-01  0.1322471E+00
    9000001   -1    0    0    0    0  0.00000000000E+00  0.00000000000E+00  0.64999999231E+04  0.65000000000E+04  0.10000000000E+01 0.  0.
    9000001   -1    0    0    0    0 -0.00000000000E+00 -0.00000000000E+00 -0.64999999231E+04  0.65000000000E+04  0.10000000000E+01 0.  0.
    9000001    1    1    2    0    0 -0.46980210030E+04 -0.44912113938E+04  0.87280420338E+02  0.65000000000E+04  0.10000000000E+01 0.  0.
    9000001    1    1    2    0    0  0.46980210030E+04  0.44912113938E+04 -0.87280420338E+02  0.65000000000E+04  0.10000000000E+01 0.  0.
</event>
<event>
 4    1  0.2201588E-006  0.1300000E+05  0.7957747E-01  0.1322471E+00
    9000001   -1    0    0    0    0  0.00000000000E+00  0.00000000000E+00  0.64999999231E+04  0.65000000000E+04  0.10000000000E+01 0.  0.
    9000001   -1    0    0    0    0 -0.00000000000E+00 -0.00000000000E+00 -0.64999999231E+04  0.65000000000E+04  0.10000000000E+01 0.  0.
    9000001    1    1    2    0    0  0.55213833196E+04  0.34287581622E+04 -0.89121844367E+02  0.65000000000E+04  0.10000000000E+01 0.  0.
    9000001    1    1    2    0    0 -0.55213833196E+04 -0.34287581622E+04  0.89121844367E+02  0.65000000000E+04  0.10000000000E+01 0.  0.
</event>
<event>
 4    1  0.2201588E-006  0.1300000E+05  0.7957747E-01  0.1322471E+00
    9000001   -1    0    0    0    0  0.00000000000E+00  0.00000000000E+00  0.64999999231E+04  0.65000000000E+04  0.10000000000E+01 0.  0.
    9000001   -1    0    0    0    0 -0.00000000000E+00 -0.00000000000E+00 -0.64999999231E+04  0.65000000000E+04  0.10000000000E+01 0.  0.
    9000001    1    1    2    0    0  0.34779902704E+04  0.40624699619E+04  0.36945798797E+04  0.65000000000E+04  0.10000000000E+01 0.  0.
    9000001    1    1    2    0    0 -0.34779902704E+04 -0.40624699619E+04 -0.36945798797E+04  0.65000000000E+04  0.10000000000E+01 0.  0.
</event>
<event>
 4    1  0.2201588E-006  0.1300000E+05  0.7957747E-01  0.1322471E+00
    9000001   -1    0    0    0    0  0.00000000000E+00  0.00000000000E+00  0.64999999231E+04  0.65000000000E+04  0.10000000000E+01 0.  0.
    9000001   -1    0    0    0    0 -0.00000000000E+00 -0.00000000000E+00 -0.64999999231E+04  0.65000000000E+04  0.10000000000E+01 0.  0.
    9000001    1    1    2    0    0  0.30253829607E+04  0.22872415632E+04 -0.52787861268E+04  0.65000000000E+04  0.10000000000E+01 0.  0.
    9000001    1    1    2    0    0 -0.30253829607E+04 -0.22872415632E+04  0.52787861268E+04  0.65000000000E+04  0.10000000000E+01 0.  0.
</event>
<event>
 4    1  0.2201588E-006  0.1300000E+05  0.7957747E-01  0.1322471E+00
    9000001   -1    0    0    0    0  0.00000000000E+00  0.00000000000E+00  0.64999999231E+04  0.65000000000E+04  0.10000000000E+01 0.  0.
    9000001   -1    0    0    0    0 -0.00000000000E+00 -0.00000000000E+00 -0.64999999231E+04  0.65000000000E+04  0.10000000000E+01 0.  0.
    9000001    1    1    2    0    0  0.11393444020E+04 -0.50894325246E+04 -0.38793775160E+04  0.65000000000E+04  0.10000000000E+01 0.  0.
    9000001    1    1    2    0    0 -0.11393444020E+04  0.50894325246E+04  0.38793775160E+04  0.65000000000E+04  0.10000000000E+01 0.  0.
</event>
<event>
 4    1  0.2201588E-006  0.1300000E+05  0.7957747E-01  0.1322471E+00
    9000001   -1    0    0    0    0  0.00000000000E+00  0.00000000000E+00  0.64999999231E+04  0.65000000000E+04  0.10000000000E+01 0.  0.
    9000001   -1    0    0    0    0 -0.00000000000E+00 -0.00000000000E+00 -0.64999999231E+04  0.65000000000E+04  0.10000000000E+01 0.  0.
    9000001    1    1    2    0    0  0.24101716764E+04 -0.51820015581E+04  0.30964384932E+04  0.65000000000E+04  0.10000000000E+01 0.  0.
    9000001    1    1    2    0    0 -0.24101716764E+04  0.51820015581E+04 -0.30964384932E+04  0.65000000000E+04  0.10000000000E+01 0.  0.
</event>
<event>
 4    1  0.2201588E-006  0.1300000E+05  0.7957747E-01  0.1322471E+00
    9000001   -1    0    0    0    0  0.00000000000E+00  0.00000000000E+00  0.64999999231E+04  0.65000000000E+04  0.10000000000E+01 0.  0.
    9000001   -1    0    0    0    0 -0.00000000000E+00 -0.00000000000E+00 -0.64999999231E+04  0.65000000000E+04  0.10000000000E+01 0.  0.
    9000001    1    1    2    0    0 -0.34698226361E+03 -0.59921399891E+04  0.24947666544E+04  0.65000000000E+04  0.10000000000E+01 0.  0.
    9000001    1    1    2    0    0  0.34698226361E+03  0.59921399891E+04 -0.24947666544E+04  0.65000000000E+04  0.10000000000E+01 0.  0.
</event>
<event>
 4    1  0.2201588E-006  0.1300000E+05  0.7957747E-01  0.1322471E+00
    9000001   -1    0    0    0    0  0.00000000000E+00  0.00000000000E+00  0.64999999231E+04  0.65000000000E+04  0.10000000000E+01 0.  0.
    9000001   -1    0    0    0    0 -0.00000000000E+00 -0.00000000000E+00 -0.64999999231E+04  0.65000000000E+04  0.10000000000E+01 0.  0.
    9000001    1    1    2    0    0  0.57577190230E+04  0.26052791693E+04 -0.15202602085E+04  0.65000000000E+04  0.10000000000E+01 0.  0.
    9000001    1    1    2    0    0 -0.57577190230E+04 -0.26052791693E+04  0.15202602085E+04  0.65000000000E+04  0.10000000000E+01 0.  0.
</event>
<event>
 4    1  0.2201588E-006  0.1300000E+05  0.7957747E-01  0.1322471E+00
    9000001   -1    0    0    0    0  0.00000000000E+00  0.00000000000E+00  0.64999999231E+04  0.65000000000E+04  0.10000000000E+01 0.  0.
    9000001   -1    0    0    0    0 -0.00000000000E+00 -0.00000000000E+00 -0.64999999231E+04  0.65000000000E+04  0.10000000000E+01 0.  0.
    9000001    1    1    2    0    0 -0.22692500889E+04 -0.49690913701E+04  0.35225891031E+04  0.65000000000E+04  0.10000000000E+01 0.  0.
    9000001    1    1    2    0    0  0.22692500889E+04  0.49690913701E+04 -0.35225891031E+04  0.65000000000E+04  0.10000000000E+01 0.  0.
</event>
<event>
 4    1  0.2201588E-006  0.1300000E+05  0.7957747E-01  0.1322471E+00
    9000001   -1    0    0    0    0  0.00000000000E+00  0.00000000000E+00  0.64999999231E+04  0.65000000000E+04  0.10000000000E+01 0.  0.
    9000001   -1    0    0    0    0 -0.00000000000E+00 -0.00000000000E+00 -0.64999999231E+04  0.65000000000E+04  0.10000000000E+01 0.  0.
    9000001    1    1    2    0    0  0.20802495022E+04  0.61184270555E+04 -0.69814853370E+03  0.65000000000E+04  0.10000000000E+01 0.  0.
    9000001    1    1    2    0    0 -0.20802495022E+04 -0.61184270555E+04  0.69814853370E+03  0.65000000000E+04  0.10000000000E+01 0.  0.
</event>
<event>
 4    1  0.2201588E-006  0.1300000E+05  0.7957747E-01  0.1322471E+00
    9000001   -1    0    0    0    0  0.00000000000E+00  0.00000000000E+00  0.64999999231E+04  0.65000000000E+04  0.10000000000E+01 0.  0.
    9000001   -1    0    0    0    0 -0.00000000000E+00 -0.00000000000E+00 -0.64999999231E+04  0.65000000000E+04  0.10000000000E+01 0.  0.
    9000001    1    1    2    0    0 -0.29528721538E+04  0.61925275712E+03 -0.57573493090E+04  0.65000000000E+04  0.10000000000E+01 0.  0.
    9000001    1    1    2    0    0  0.29528721538E+04 -0.61925275712E+03  0.57573493090E+04  0.65000000000E+04  0.10000000000E+01 0.  0.
</event>
<event>
 4    1  0.2201588E-006  0.1300000E+05  0.7957747E-01  0.1322471E+00
    9000001   -1    0    0    0    0  0.00000000000E+00  0.00000000000E+00  0.64999999231E+04  0.65000000000E+04  0.10000000000E+01 0.  0.
    9000001   -1    0    0    0    0 -0.00000000000E+00 -0.00000000000E+00 -0.64999999231E+04  0.65000000000E+04  0.10000000000E+01 0.  0.
    9000001    1    1    2    0    0  0.15187927052E+04  0.29097462327E+04 -0.56104050281E+04  0.65000000000E+04  0.10000000000E+01 0.  0.
    9000001    1    1    2    0    0 -0.15187927052E+04 -0.29097462327E+04  0.56104050281E+04  0.65000000000E+04  0.10000000000E+01 0.  0.
</event>
<event>
 4    1  0.2201588E-006  0.1300000E+05  0.7957747E-01  0.1322471E+00
    9000001   -1    0    0    0    0  0.00000000000E+00  0.00000000000E+00  0.64999999231E+04  0.65000000000E+04  0.10000000000E+01 0.  0.
    9000001   -1    0    0    0    0 -0.00000000000E+00 -0.00000000000E+00 -0.64999999231E+04  0.65000000000E+04  0.10000000000E+01 0.  0.
    9000001    1    1    2    0    0 -0.15976333846E+04 -0.18880581893E+04 -0.60110567159E+04  0.65000000000E+04  0.10000000000E+01 0.  0.
    9000001    1    1    2    0    0  0.15976333846E+04  0.18880581893E+04  0.60110567159E+04  0.65000000000E+04  0.10000000000E+01 0.  0.
</event>
<event>
 4    1  0.2201588E-006  0.1300000E+05  0.7957747E-01  0.1322471E+00
    9000001   -1    0    0    0    0  0.00000000000E+00  0.00000000000E+00  0.64999999231E+04  0.65000000000E+04  0.10000000000E+01 0.  0.
    9000001   -1    0    0    0    0 -0.00000000000E+00 -0.00000000000E+00 -0.64999999231E+04  0.65000000000E+04  0.10000000000E+01 0.  0.
    9000001    1    1    2    0    0  0.24254104491E+04 -0.53730189504E+04 -0.27382568382E+04  0.65000000000E+04  0.10000000000E+01 0.  0.
    9000001    1    1    2    0    0 -0.24254104491E+04  0.53730189504E+04  0.27382568382E+04  0.65000000000E+04  0.10000000000E+01 0.  0.
</event>
<event>
 4    1  0.2201588E-006  0.1300000E+05  0.7957747E-01  0.1322471E+00
    9000001   -1    0    0    0    0  0.00000000000E+00  0.00000000000E+00  0.64999999231E+04  0.65000000000E+04  0.10000000000E+01 0.  0.
    9000001   -1    0    0    0    0 -0.00000000000E+00 -0.00000000000E+00 -0.64999999231E+04  0.65000000000E+04  0.10000000000E+01 0.  0.
    9000001    1    1    2    0    0 -0.47262638817E+04 -0.22386971184E+04  0.38601378127E+04  0.65000000000E+04  0.10000000000E+01 0.  0.
    9000001    1    1    2    0    0  0.47262638817E+04  0.22386971184E+04 -0.38601378127E+04  0.65000000000E+04  0.10000000000E+01 0.  0.
</event>
<event>
 4    1  0.2201588E-006  0.1300000E+05  0.7957747E-01  0.1322471E+00
    9000001   -1    0    0    0    0  0.00000000000E+00  0.00000000000E+00  0.64999999231E+04  0.65000000000E+04  0.10000000000E+01 0.  0.
    9000001   -1    0    0    0    0 -0.00000000000E+00 -0.00000000000E+00 -0.64999999231E+04  0.65000000000E+04  0.10000000000E+01 0.  0.
    9000001    1    1    2    0    0 -0.54556420357E+04  0.32801729041E+04 -0.13139386202E+04  0.65000000000E+04  0.10000000000E+01 0.  0.
    9000001    1    1    2    0    0  0.54556420357E+04 -0.32801729041E+04  0.13139386202E+04  0.65000000000E+04  0.10000000000E+01 0.  0.
</event>
<event>
 4    1  0.2201588E-006  0.1300000E+05  0.7957747E-01  0.1322471E+00
    9000001   -1    0    0    0    0  0.00000000000E+00  0.00000000000E+00  0.64999999231E+04  0.65000000000E+04  0.10000000000E+01 0.  0.
    9000001   -1    0    0    0    0 -0.00000000000E+00 -0.00000000000E+00 -0.64999999231E+04  0.65000000000E+04  0.10000000000E+01 0.  0.
    9000001    1    1    2    0    0 -0.42456695943E+04 -0.11044001375E+04  0.47963099392E+04  0.65000000000E+04  0.10000000000E+01 0.  0.
    9000001    1    1    2    0    0  0.42456695943E+04  0.11044001375E+04 -0.47963099392E+04  0.65000000000E+04  0.10000000000E+01 0.  0.
</event>
<event>
 4    1  0.2201588E-006  0.1300000E+05  0.7957747E-01  0.1322471E+00
    9000001   -1    0    0    0    0  0.00000000000E+00  0.00000000000E+00  0.64999999231E+04  0.65000000000E+04  0.10000000000E+01 0.  0.
    9000001   -1    0    0    0    0 -0.00000000000E+00 -0.00000000000E+00 -0.64999999231E+04  0.65000000000E+04  0.10000000000E+01 0.  0.
    9000001    1    1    2    0    0 -0.10624903248E+04  0.19031432795E+04 -0.61236556866E+04  0.65000000000E+04  0.10000000000E+01 0.  0.
    9000001    1    1    2    0    0  0.10624903248E+04 -0.19031432795E+04  0.61236556866E+04  0.65000000000E+04  0.10000000000E+01 0.  0.
</event>
<event>
 4    1  0.2201588E-006  0.1300000E+05  0.7957747E-01  0.1322471E+00
    9000001   -1    0    0    0    0  0.00000000000E+00  0.00000000000E+00  0.64999999231E+04  0.65000000000E+04  0.10000000000E+01 0.  0.
    9000001   -1    0    0    0    0 -0.00000000000E+00 -0.00000000000E+00 -0.64999999231E+04  0.65000000000E+04  0.10000000000E+01 0.  0.
    9000001    1    1    2    0    0 -0.25911477416E+04  0.57986357923E+04 -0.13826696385E+04  0.65000000000E+04  0.10000000000E+01 0.  0.
    9000001    1    1    2    0    0  0.25911477416E+04 -0.57986357923E+04  0.13826696385E+04  0.65000000000E+04  0.10000000000E+01 0.  0.
</event>
<event>
 4    1  0.2201588E-006  0.1300000E+05  0.7957747E-01  0.1322471E+00
    9000001   -1    0    0    0    0  0.00000000000E+00  0.00000000000E+00  0.64999999231E+04  0.65000000000E+04  0.10000000000E+01 0.  0.
    9000001   -1    0    0    0    0 -0.00000000000E+00 -0.00000000000E+00 -0.64999999231E+04  0.65000000000E+04  0.10000000000E+01 0.  0.
    9000001    1    1    2    0    0 -0.59226878296E+04 -0.26777470040E+04  0.37932246921E+02  0.65000000000E+04  0.10000000000E+01 0.  0.
    9000001    1    1    2    0    0  0.59226878296E+04  0.26777470040E+04 -0.37932246921E+02  0.65000000000E+04  0.10000000000E+01 0.  0.
</event>
<event>
 4    1  0.2201588E-006  0.1300000E+05  0.7957747E-01  0.1322471E+00
    9000001   -1    0    0    0    0  0.00000000000E+00  0.00000000000E+00  0.64999999231E+04  0.65000000000E+04  0.10000000000E+01 0.  0.
    9000001   -1    0    0    0    0 -0.00000000000E+00 -0.00000000000E+00 -0.64999999231E+04  0.65000000000E+04  0.10000000000E+01 0.  0.
    9000001    1    1    2    0    0  0.25469336740E+03 -0.49265015248E+04  0.42325775852E+04  0.65000000000E+04  0.10000000000E+01 0.  0.
    9000001    1    1    2    0    0 -0.25469336740E+03  0.49265015248E+04 -0.42325775852E+04  0.65000000000E+04  0.10000000000E+01 0.  0.
</event>
<event>
 4    1  0.2201588E-006  0.1300000E+05  0.7957747E-01  0.1322471E+00
    9000001   -1    0    0    0    0  0.00000000000E+00  0.00000000000E+00  0.64999999231E+04  0.65000000000E+04  0.10000000000E+01 0.  0.
    9000001   -1    0    0    0    0 -0.00000000000E+00 -0.00000000000E+00 -0.64999999231E+04  0.65000000000E+04  0.10000000000E+01 0.  0.
    9000001    1    1    2    0    0  0.98037476118E+03  0.63811942654E+04  0.75446939949E+03  0.65000000000E+04  0.10000000000E+01 0.  0.
    9000001    1    1    2    0    0 -0.98037476118E+03 -0.63811942654E+04 -0.75446939949E+03  0.65000000000E+04  0.10000000000E+01 0.  0.
</event>
<event>
 4    1  0.2201588E-006  0.1300000E+05  0.7957747E-01  0.1322471E+00
    9000001   -1    0    0    0    0  0.00000000000E+00  0.00000000000E+00  0.64999999231E+04  0.65000000000E+04  0.10000000000E+01 0.  0.
    9000001   -1    0    0    0    0 -0.00000000000E+00 -0.00000000000E+00 -0.64999999231E+04  0.65000000000E+04  0.10000000000E+01 0.  0.
    9000001    1    1    2    0    0  0.20738445693E+04 -0.57339281430E+04 -0.22519404418E+04  0.65000000000E+04  0.10000000000E+01 0.  0.
    9000001    1    1    2    0    0 -0.20738445693E+04  0.57339281430E+04  0.22519404418E+04  0.65000000000E+04  0.10000000000E+01 0.  0.
</event>
<event>
 4    1  0.2201588E-006  0.1300000E+05  0.7957747E-01  0.1322471E+00
    9000001   -1    0    0    0    0  0.00000000000E+00  0.00000000000E+00  0.64999999231E+04  0.65000000000E+04  0.10000000000E+01 0.  0.
    9000001   -1    0    0    0    0 -0.00000000000E+00 -0.00000000000E+00 -0.64999999231E+04  0.65000000000E+04  0.10000000000E+01 0.  0.
    9000001    1    1    2    0    0 -0.26003708826E+04  0.59322298540E+04  0.54471940738E+03  0.65000000000E+04  0.10000000000E+01 0.  0.
    9000001    1    1    2    0    0  0.26003708826E+04 -0.59322298540E+04 -0.54471940738E+03  0.65000000000E+04  0.10000000000E+01 0.  0.
</event>
<event>
 4    1  0.2201588E-006  0.1300000E+05  0.7957747E-01  0.1322471E+00
    9000001   -1    0    0    0    0  0.00000000000E+00  0.00000000000E+00  0.64999999231E+04  0.65000000000E+04  0.10000000000E+01 0.  0.
    9000001   -1    0    0    0    0 -0.00000000000E+00 -0.00000000000E+00 -0.64999999231E+04  0.65000000000E+04  0.10000000000E+01 0.  0.
    9000001    1    1    2    0    0  0.49690030538E+04  0.28401217804E+04 -0.30810251417E+04  0.65000000000E+04  0.10000000000E+01 0.  0.
    9000001    1    1    2    0    0 -0.49690030538E+04 -0.28401217804E+04  0.30810251417E+04  0.65000000000E+04  0.10000000000E+01 0.  0.
</event>
<event>
 4    1  0.2201588E-006  0.1300000E+05  0.7957747E-01  0.1322471E+00
    9000001   -1    0    0    0    0  0.00000000000E+00  0.00000000000E+00  0.64999999231E+04  0.65000000000E+04  0.10000000000E+01 0.  0.
    9000001   -1    0    0    0    0 -0.00000000000E+00 -0.00000000000E+00 -0.64999999231E+04  0.65000000000E+04  0.10000000000E+01 0.  0.
    9000001    1    1    2    0    0  0.33231330604E+03  0.25712060628E+04  0.59605759998E+04  0.65000000000E+04  0.10000000000E+01 0.  0.
    9000001    1    1    2    0    0 -0.33231330604E+03 -0.25712060628E+04 -0.59605759998E+04  0.65000000000E+04  0.10000000000E+01 0.  0.
</event>
<event>
 4    1  0.2201588E-006  0.1300000E+05  0.7957747E-01  0.1322471E+00
    9000001   -1    0    0    0    0  0.00000000000E+00  0.00000000000E+00  0.64999999231E+04  0.65000000000E+04  0.10000000000E+01 0.  0.
    9000001   -1    0    0    0    0 -0.00000000000E+00 -0.00000000000E+00 -0.64999999231E+04  0.65000000000E+04  0.10000000000E+01 0.  0.
    9000001    1    1    2    0    0  0.39657453452E+04  0.39486714438E+04  0.33061846115E+04  0.65000000000E+04  0.10000000000E+01 0.  0.
    9000001    1    1    2    0    0 -0.39657453452E+04 -0.39486714438E+04 -0.33061846115E+04  0.65000000000E+04  0.10000000000E+01 0.  0.
</event>
<event>
 4    1  0.2201588E-006  0.1300000E+05  0.7957747E-01  0.1322471E+00
    9000001   -1    0    0    0    0  0.00000000000E+00  0.00000000000E+00  0.64999999231E+04  0.65000000000E+04  0.10000000000E+01 0.  0.
    9000001   -1    0    0    0    0 -0.00000000000E+00 -0.00000000000E+00 -0.64999999231E+04  0.65000000000E+04  0.10000000000E+01 0.  0.
    9000001    1    1    2    0    0 -0.22727330754E+04  0.14006907809E+03  0.60881084108E+04  0.65000000000E+04  0.10000000000E+01 0.  0.
    9000001    1    1    2    0    0  0.22727330754E+04 -0.14006907809E+03 -0.60881084108E+04  0.65000000000E+04  0.10000000000E+01 0.  0.
</event>
<event>
 4    1  0.2201588E-006  0.1300000E+05  0.7957747E-01  0.1322471E+00
    9000001   -1    0    0    0    0  0.00000000000E+00  0.00000000000E+00  0.64999999231E+04  0.65000000000E+04  0.10000000000E+01 0.  0.
    9000001   -1    0    0    0    0 -0.00000000000E+00 -0.00000000000E+00 -0.64999999231E+04  0.65000000000E+04  0.10000000000E+01 0.  0.
    9000001    1    1    2    0    0  0.49718922956E+04  0.19233257101E+04 -0.37190192543E+04  0.65000000000E+04  0.10000000000E+01 0.  0.
    9000001    1    1    2    0    0 -0.49718922956E+04 -0.19233257101E+04  0.37190192543E+04  0.65000000000E+04  0.10000000000E+01 0.  0.
</event>
<event>
 4    1  0.2201588E-006  0.1300000E+05  0.7957747E-01  0.1322471E+00
    9000001   -1    0    0    0    0  0.00000000000E+00  0.00000000000E+00  0.64999999231E+04  0.65000000000E+04  0.10000000000E+01 0.  0.
    9000001   -1    0    0    0    0 -0.00000000000E+00 -0.00000000000E+00 -0.64999999231E+04  0.65000000000E+04  0.10000000000E+01 0.  0.
    9000001    1    1    2    0    0  0.29216446812E+04  0.33993367774E+04  0.47072816817E+04  0.65000000000E+04  0.10000000000E+01 0.  0.
    9000001    1    1    2    0    0 -0.29216446812E+04 -0.33993367774E+04 -0.47072816817E+04  0.65000000000E+04  0.10000000000E+01 0.  0.
</event>
<event>
 4    1  0.2201588E-006  0.1300000E+05  0.7957747E-01  0.1322471E+00
    9000001   -1    0    0    0    0  0.00000000000E+00  0.00000000000E+00  0.64999999231E+04  0.65000000000E+04  0.10000000000E+01 0.  0.
    9000001   -1    0    0    0    0 -0.00000000000E+00 -0.00000000000E+00 -0.64999999231E+04  0.65000000000E+04  0.10000000000E+01 0.  0.
    9000001    1    1    2    0    0  0.10793345223E+04 -0.52014985594E+03 -0.63886211436E+04  0.65000000000E+04  0.10000000000E+01 0.  0.
    9000001    1    1    2    0    0 -0.10793345223E+04  0.52014985594E+03  0.63886211436E+04  0.65000000000E+04  0.10000000000E+01 0.  0.
</event>
<event>
 4    1  0.2201588E-006  0.1300000E+05  0.7957747E-01  0.1322471E+00
    9000001   -1    0    0    0    0  0.00000000000E+00  0.00000000000E+00  0.64999999231E+04  0.65000000000E+04  0.10000000000E+01 0.  0.
    9000001   -1    0    0    0    0 -0.00000000000E+00 -0.00000000000E+00 -0.64999999231E+04  0.65000000000E+04  0.10000000000E+01 0.  0.
    9000001    1    1    2    0    0 -0.79773392072E+03 -0.49919647997E+04 -0.40858177921E+04  0.65000000000E+04  0.10000000000E+01 0.  0.
    9000001    1    1    2    0    0  0.79773392072E+03  0.49919647997E+04  0.40858177921E+04  0.65000000000E+04  0.10000000000E+01 0.  0.
</event>
<event>
 4    1  0.2201588E-006  0.1300000E+05  0.7957747E-01  0.1322471E+00
    9000001   -1    0    0    0    0  0.00000000000E+00  0.00000000000E+00  0.64999999231E+04  0.65000000000E+04  0.10000000000E+01 0.  0.
    9000001   -1    0    0    0    0 -0.00000000000E+00 -0.00000000000E+00 -0.64999999231E+04  0.65000000000E+04  0.10000000000E+01 0.  0.
    9000001    1    1    2    0    0  0.23543110108E+04  0.37982234314E+04 -0.47202454841E+04  0.65000000000E+04  0.10000000000E+01 0.  0.
    9000001    1    1    2    0    0 -0.23543110108E+04 -0.37982234314E+04  0.47202454841E+04  0.65000000000E+04  0.10000000000E+01 0.  0.
</event>
<event>
 4    1  0.2201588E-006  0.1300000E+05  0.7957747E-01  0.1322471E+00
    9000001   -1    0    0    0    0  0.00000000000E+00  0.00000000000E+00  0.64999999231E+04  0.65000000000E+04  0.10000000000E+01 0.  0.
    9000001   -1    0    0    0    0 -0.00000000000E+00 -0.00000000000E+00 -0.64999999231E+04  0.65000000000E+04  0.10000000000E+01 0.  0.
    9000001    1    1    2    0    0  0.55626250631E+04 -0.15811503429E+04  0.29676868098E+04  0.65000000000E+04  0.10000000000E+01 0.  0.
    9000001    1    1    2    0    0 -0.55626250631E+04  0.15811503429E+04 -0.29676868098E+04  0.65000000000E+04  0.10000000000E+01 0.  0.
</event>
<event>
 4    1  0.2201588E-006  0.1300000E+05  0.7957747E-01  0.1322471E+00
    9000001   -1    0    0    0    0  0.00000000000E+00  0.00000000000E+00  0.64999999231E+04  0.65000000000E+04  0.10000000000E+01 0.  0.
    9000001   -1    0    0    0    0 -0.00000000000E+00 -0.00000000000E+00 -0.64999999231E+04  0.65000000000E+04  0.10000000000E+01 0.  0.
    9000001    1    1    2    0    0  0.16071597414E+04  0.47517458187E+04  0.41337571579E+04  0.65000000000E+04  0.10000000000E+01 0.  0.
    9000001    1    1    2    0    0 -0.16071597414E+04 -0.47517458187E+04 -0.41337571579E+04  0.65000000000E+04  0.10000000000E+01 0.  0.
</event>
<event>
 4    1  0.2201588E-006  0.1300000E+05  0.7957747E-01  0.1322471E+00
    9000001   -1    0    0    0    0  0.00000000000E+00  0.00000000000E+00  0.64999999231E+04  0.65000000000E+04  0.10000000000E+01 0.  0.
    9000001   -1    0    0    0    0 -0.00000000000E+00 -0.00000000000E+00 -0.64999999231E+04  0.65000000000E+04  0.10000000000E+01 0.  0.
    9000001    1    1    2    0    0  0.45635461348E+04  0.46275076086E+04  0.10108910915E+03  0.65000000000E+04  0.10000000000E+01 0.  0.
    9000001    1    1    2    0    0 -0.45635461348E+04 -0.46275076086E+04 -0.10108910915E+03  0.65000000000E+04  0.10000000000E+01 0.  0.
</event>
<event>
 4    1  0.2201588E-006  0.1300000E+05  0.7957747E-01  0.1322471E+00
    9000001   -1    0    0    0    0  0.00000000000E+00  0.00000000000E+00  0.64999999231E+04  0.65000000000E+04  0.10000000000E+01 0.  0.
    9000001   -1    0    0    0    0 -0.00000000000E+00 -0.00000000000E+00 -0.64999999231E+04  0.65000000000E+04  0.10000000000E+01 0.  0.
    9000001    1    1    2    0    0  0.42318894005E+04 -0.28370104502E+04  0.40363947784E+04  0.65000000000E+04  0.10000000000E+01 0.  0.
    9000001    1    1    2    0    0 -0.42318894005E+04  0.28370104502E+04 -0.40363947784E+04  0.65000000000E+04  0.10000000000E+01 0.  0.
</event>
<event>
 4    1  0.2201588E-006  0.1300000E+05  0.7957747E-01  0.1322471E+00
    9000001   -1    0    0    0    0  0.00000000000E+00  0.00000000000E+00  0.64999999231E+04  0.65000000000E+04  0.10000000000E+01 0.  0.
    9000001   -1    0    0    0    0 -0.00000000000E+00 -0.00000000000E+00 -0.64999999231E+04  0.65000000000E+04  0.10000000000E+01 0.  0.
    9000001    1    1    2    0    0  0.12041630279E+04  0.36462326013E+04  0.52445188739E+04  0.65000000000E+04  0.10000000000E+01 0.  0.
    9000001    1    1    2    0    0 -0.12041630279E+04 -0.36462326013E+04 -0.52445188739E+04  0.65000000000E+04  0.10000000000E+01 0.  0.
</event>
<event>
 4    1  0.2201588E-006  0.1300000E+05  0.7957747E-01  0.1322471E+00
    9000001   -1    0    0    0    0  0.00000000000E+00  0.00000000000E+00  0.64999999231E+04  0.65000000000E+04  0.10000000000E+01 0.  0.
    9000001   -1    0    0    0    0 -0.00000000000E+00 -0.00000000000E+00 -0.64999999231E+04  0.65000000000E+04  0.10000000000E+01 0.  0.
    9000001    1    1    2    0    0  0.20294918028E+04  0.18751310129E+04 -0.58834552524E+04  0.65000000000E+04  0.10000000000E+01 0.  0.
    9000001    1    1    2    0    0 -0.20294918028E+04 -0.18751310129E+04  0.58834552524E+04  0.65000000000E+04  0.10000000000E+01 0.  0.
</event>
<event>
 4    1  0.2201588E-006  0.1300000E+05  0.7957747E-01  0.1322471E+00
    9000001   -1    0    0    0    0  0.00000000000E+00  0.00000000000E+00  0.64999999231E+04  0.65000000000E+04  0.10000000000E+01 0.  0.
    9000001   -1    0    0    0    0 -0.00000000000E+00 -0.00000000000E+00 -0.64999999231E+04  0.65000000000E+04  0.10000000000E+01 0.  0.
    9000001    1    1    2    0    0  0.64289207262E+04 -0.76218913661E+03  0.58141638760E+03  0.65000000000E+04  0.10000000000E+01 0.  0.
    9000001    1    1    2    0    0 -0.64289207262E+04  0.76218913661E+03 -0.58141638760E+03  0.65000000000E+04  0.10000000000E+01 0.  0.
</event>
<event>
 4    1  0.2201588E-006  0.1300000E+05  0.7957747E-01  0.1322471E+00
    9000001   -1    0    0    0    0  0.00000000000E+00  0.00000000000E+00  0.64999999231E+04  0.65000000000E+04  0.10000000000E+01 0.  0.
    9000001   -1    0    0    0    0 -0.00000000000E+00 -0.00000000000E+00 -0.64999999231E+04  0.65000000000E+04  0.10000000000E+01 0.  0.
    9000001    1    1    2    0    0 -0.12746008885E+04  0.19259033891E+04 -0.60758775260E+04  0.65000000000E+04  0.10000000000E+01 0.  0.
    9000001    1    1    2    0    0  0.12746008885E+04 -0.19259033891E+04  0.60758775260E+04  0.65000000000E+04  0.10000000000E+01 0.  0.
</event>
<event>
 4    1  0.2201588E-006  0.1300000E+05  0.7957747E-01  0.1322471E+00
    9000001   -1    0    0    0    0  0.00000000000E+00  0.00000000000E+00  0.64999999231E+04  0.65000000000E+04  0.10000000000E+01 0.  0.
    9000001   -1    0    0    0    0 -0.00000000000E+00 -0.00000000000E+00 -0.64999999231E+04  0.65000000000E+04  0.10000000000E+01 0.  0.
    9000001    1    1    2    0    0 -0.61707388422E+04  0.13755968509E+04  0.15098723273E+04  0.65000000000E+04  0.10000000000E+01 0.  0.
    9000001    1    1    2    0    0  0.61707388422E+04 -0.13755968509E+04 -0.15098723273E+04  0.65000000000E+04  0.10000000000E+01 0.  0.
</event>
<event>
 4    1  0.2201588E-006  0.1300000E+05  0.7957747E-01  0.1322471E+00
    9000001   -1    0    0    0    0  0.00000000000E+00  0.00000000000E+00  0.64999999231E+04  0.65000000000E+04  0.10000000000E+01 0.  0.
    9000001   -1    0    0    0    0 -0.00000000000E+00 -0.00000000000E+00 -0.64999999231E+04  0.65000000000E+04  0.10000000000E+01 0.  0.
    9000001    1    1    2    0    0 -0.49259755154E+04  0.20358687133E+04  0.37202154244E+04  0.65000000000E+04  0.10000000000E+01 0.  0.
    9000001    1    1    2    0    0  0.49259755154E+04 -0.20358687133E+04 -0.37202154244E+04  0.65000000000E+04  0.10000000000E+01 0.  0.
</event>
<event>
 4    1  0.2201588E-006  0.1300000E+05  0.7957747E-01  0.1322471E+00
    9000001   -1    0    0    0    0  0.00000000000E+00  0.00000000000E+00  0.64999999231E+04  0.65000000000E+04  0.10000000000E+01 0.  0.
    9000001   -1    0    0    0    0 -0.00000000000E+00 -0.00000000000E+00 -0.64999999231E+04  0.65000000000E+04  0.10000000000E+01 0.  0.
    9000001    1    1    2    0    0  0.56773939012E+04  0.29609984817E+04  0.11178933233E+04  0.65000000000E+04  0.10000000000E+01 0.  0.
    9000001    1    1    2    0    0 -0.56773939012E+04 -0.29609984817E+04 -0.11178933233E+04  0.65000000000E+04  0.10000000000E+01 0.  0.
</event>
<event>
 4    1  0.2201588E-006  0.1300000E+05  0.7957747E-01  0.1322471E+00
    9000001   -1    0    0    0    0  0.00000000000E+00  0.00000000000E+00  0.64999999231E+04  0.65000000000E+04  0.10000000000E+01 0.  0.
    9000001   -1    0    0    0    0 -0.00000000000E+00 -0.00000000000E+00 -0.64999999231E+04  0.65000000000E+04  0.10000000000E+01 0.  0.
    9000001    1    1    2    0    0  0.29743382167E+04  0.52136694996E+04 -0.24941855428E+04  0.65000000000E+04  0.10000000000E+01 0.  0.
    9000001    1    1    2    0    0 -0.29743382167E+04 -0.52136694996E+04  0.24941855428E+04  0.65000000000E+04  0.10000000000E+01 0.  0.
</event>
<event>
 4    1  0.2201588E-006  0.1300000E+05  0.7957747E-01  0.1322471E+00
    9000001   -1    0    0    0    0  0.00000000000E+00  0.00000000000E+00  0.64999999231E+04  0.65000000000E+04  0.10000000000E+01 0.  0.
    9000001   -1    0    0    0    0 -0.00000000000E+00 -0.00000000000E+00 -0.64999999231E+04  0.65000000000E+04  0.10000000000E+01 0.  0.
    9000001    1    1    2    0    0  0.20783479302E+04  0.61506056307E+04 -0.31704771998E+03  0.65000000000E+04  0.10000000000E+01 0.  0.
    9000001    1    1    2    0    0 -0.20783479302E+04 -0.61506056307E+04  0.31704771998E+03  0.65000000000E+04  0.10000000000E+01 0.  0.
</event>
<event>
 4    1  0.2201588E-006  0.1300000E+05  0.7957747E-01  0.1322471E+00
    9000001   -1    0    0    0    0  0.00000000000E+00  0.00000000000E+00  0.64999999231E+04  0.65000000000E+04  0.10000000000E+01 0.  0.
    9000001   -1    0    0    0    0 -0.00000000000E+00 -0.00000000000E+00 -0.64999999231E+04  0.65000000000E+04  0.10000000000E+01 0.  0.
    9000001    1    1    2    0    0 -0.15678520900E+04  0.61145356953E+03 -0.62783726678E+04  0.65000000000E+04  0.10000000000E+01 0.  0.
    9000001    1    1    2    0    0  0.15678520900E+04 -0.61145356953E+03  0.62783726678E+04  0.65000000000E+04  0.10000000000E+01 0.  0.
</event>
<event>
 4    1  0.2201588E-006  0.1300000E+05  0.7957747E-01  0.1322471E+00
    9000001   -1    0    0    0    0  0.00000000000E+00  0.00000000000E+00  0.64999999231E+04  0.65000000000E+04  0.10000000000E+01 0.  0.
    9000001   -1    0    0    0    0 -0.00000000000E+00 -0.00000000000E+00 -0.64999999231E+04  0.65000000000E+04  0.10000000000E+01 0.  0.
    9000001    1    1    2    0    0  0.64706601708E+04 -0.89608953276E+02  0.61034923535E+03  0.65000000000E+04  0.10000000000E+01 0.  0.
    9000001    1    1    2    0    0 -0.64706601708E+04  0.89608953276E+02 -0.61034923535E+03  0.65000000000E+04  0.10000000000E+01 0.  0.
</event>
<event>
 4    1  0.2201588E-006  0.1300000E+05  0.7957747E-01  0.1322471E+00
    9000001   -1    0    0    0    0  0.00000000000E+00  0.00000000000E+00  0.64999999231E+04  0.65000000000E+04  0.10000000000E+01 0.  0.
    9000001   -1    0    0    0    0 -0.00000000000E+00 -0.00000000000E+00 -0.64999999231E+04  0.65000000000E+04  0.10000000000E+01 0.  0.
    9000001    1    1    2    0    0 -0.13723123438E+04  0.58151481605E+04 -0.25594549620E+04  0.65000000000E+04  0.10000000000E+01 0.  0.
    9000001    1    1    2    0    0  0.13723123438E+04 -0.58151481605E+04  0.25594549620E+04  0.65000000000E+04  0.10000000000E+01 0.  0.
</event>
<event>
 4    1  0.2201588E-006  0.1300000E+05  0.7957747E-01  0.1322471E+00
    9000001   -1    0    0    0    0  0.00000000000E+00  0.00000000000E+00  0.64999999231E+04  0.65000000000E+04  0.10000000000E+01 0.  0.
    9000001   -1    0    0    0    0 -0.00000000000E+00 -0.00000000000E+00 -0.64999999231E+04  0.65000000000E+04  0.10000000000E+01 0.  0.
    9000001    1    1    2    0    0  0.53422468667E+04 -0.15062492089E+04 -0.33825450087E+04  0.65000000000E+04  0.10000000000E+01 0.  0.
    9000001    1    1    2    0    0 -0.53422468667E+04  0.15062492089E+04  0.33825450087E+04  0.65000000000E+04  0.10000000000E+01 0.  0.
</event>
<event>
 4    1  0.2201588E-006  0.1300000E+05  0.7957747E-01  0.1322471E+00
    9000001   -1    0    0    0    0  0.00000000000E+00  0.00000000000E+00  0.64999999231E+04  0.65000000000E+04  0.10000000000E+01 0.  0.
    9000001   -1    0    0    0    0 -0.00000000000E+00 -0.00000000000E+00 -0.64999999231E+04  0.65000000000E+04  0.10000000000E+01 0.  0.
    9000001    1    1    2    0    0  0.19933239484E+04 -0.19383147644E+04 -0.58753378210E+04  0.65000000000E+04  0.10000000000E+01 0.  0.
    9000001    1    1    2    0    0 -0.19933239484E+04  0.19383147644E+04  0.58753378210E+04  0.65000000000E+04  0.10000000000E+01 0.  0.
</event>
<event>
 4    1  0.2201588E-006  0.1300000E+05  0.7957747E-01  0.1322471E+00
    9000001   -1    0    0    0    0  0.00000000000E+00  0.00000000000E+00  0.64999999231E+04  0.65000000000E+04  0.10000000000E+01 0.  0.
    9000001   -1    0    0    0    0 -0.00000000000E+00 -0.00000000000E+00 -0.64999999231E+04  0.65000000000E+04  0.10000000000E+01 0.  0.
    9000001    1    1    2    0    0 -0.52676575374E+04 -0.16759446292E+04 -0.34195018159E+04  0.65000000000E+04  0.10000000000E+01 0.  0.
    9000001    1    1    2    0    0  0.52676575374E+04  0.16759446292E+04  0.34195018159E+04  0.65000000000E+04  0.10000000000E+01 0.  0.
</event>
<event>
 4    1  0.2201588E-006  0.1300000E+05  0.7957747E-01  0.1322471E+00
    9000001   -1    0    0    0    0  0.00000000000E+00  0.00000000000E+00  0.64999999231E+04  0.65000000000E+04  0.10000000000E+01 0.  0.
    9000001   -1    0    0    0    0 -0.00000000000E+00 -0.00000000000E+00 -0.64999999231E+04  0.65000000000E+04  0.10000000000E+01 0.  0.
    9000001    1    1    2    0    0 -0.40211849402E+04 -0.51068602639E+04 -0.69943474642E+01  0.65000000000E+04  0.10000000000E+01 0.  0.
    9000001    1    1    2    0    0  0.40211849402E+04  0.51068602639E+04  0.69943474642E+01  0.65000000000E+04  0.10000000000E+01 0.  0.
</event>
<event>
 4    1  0.2201588E-006  0.1300000E+05  0.7957747E-01  0.1322471E+00
    9000001   -1    0    0    0    0  0.00000000000E+00  0.00000000000E+00  0.64999999231E+04  0.65000000000E+04  0.10000000000E+01 0.  0.
    9000001   -1    0    0    0    0 -0.00000000000E+00 -0.00000000000E+00 -0.64999999231E+04  0.65000000000E+04  0.10000000000E+01 0.  0.
    9000001    1    1    2    0    0 -0.17790716488E+04  0.11056463028E+04 -0.61532470551E+04  0.65000000000E+04  0.10000000000E+01 0.  0.
    9000001    1    1    2    0    0  0.17790716488E+04 -0.11056463028E+04  0.61532470551E+04  0.65000000000E+04  0.10000000000E+01 0.  0.
</event>
<event>
 4    1  0.2201588E-006  0.1300000E+05  0.7957747E-01  0.1322471E+00
    9000001   -1    0    0    0    0  0.00000000000E+00  0.00000000000E+00  0.64999999231E+04  0.65000000000E+04  0.10000000000E+01 0.  0.
    9000001   -1    0    0    0    0 -0.00000000000E+00 -0.00000000000E+00 -0.64999999231E+04  0.65000000000E+04  0.10000000000E+01 0.  0.
    9000001    1    1    2    0    0 -0.33970077896E+04  0.41875952714E+04 -0.36296532783E+04  0.65000000000E+04  0.10000000000E+01 0.  0.
    9000001    1    1    2    0    0  0.33970077896E+04 -0.41875952714E+04  0.36296532783E+04  0.65000000000E+04  0.10000000000E+01 0.  0.
</event>
<event>
 4    1  0.2201588E-006  0.1300000E+05  0.7957747E-01  0.1322471E+00
    9000001   -1    0    0    0    0  0.00000000000E+00  0.00000000000E+00  0.64999999231E+04  0.65000000000E+04  0.10000000000E+01 0.  0.
    9000001   -1    0    0    0    0 -0.00000000000E+00 -0.00000000000E+00 -0.64999999231E+04  0.65000000000E+04  0.10000000000E+01 0.  0.
    9000001    1    1    2    0    0 -0.63841351812E+03  0.28277319543E+04  0.58177623855E+04  0.65000000000E+04  0.10000000000E+01 0.  0.
    9000001    1    1    2    0    0  0.63841351812E+03 -0.28277319543E+04 -0.58177623855E+04  0.65000000000E+04  0.10000000000E+01 0.  0.
</event>
<event>
 4    1  0.2201588E-006  0.1300000E+05  0.7957747E-01  0.1322471E+00
    9000001   -1    0    0    0    0  0.00000000000E+00  0.00000000000E+00  0.64999999231E+04  0.65000000000E+04  0.10000000000E+01 0.  0.
    9000001   -1    0    0    0    0 -0.00000000000E+00 -0.00000000000E+00 -0.64999999231E+04  0.65000000000E+04  0.10000000000E+01 0.  0.
    9000001    1    1    2    0    0 -0.26405777420E+04  0.56589291404E+04 -0.18038484340E+04  0.65000000000E+04  0.10000000000E+01 0.  0.
    9000001    1    1    2    0    0  0.26405777420E+04 -0.56589291404E+04  0.18038484340E+04  0.65000000000E+04  0.10000000000E+01 0.  0.
</event>
<event>
 4    1  0.2201588E-006  0.1300000E+05  0.7957747E-01  0.1322471E+00
    9000001   -1    0    0    0    0  0.00000000000E+00  0.00000000000E+00  0.64999999231E+04  0.65000000000E+04  0.10000000000E+01 0.  0.
    9000001   -1    0    0    0    0 -0.00000000000E+00 -0.00000000000E+00 -0.64999999231E+04  0.65000000000E+04  0.10000000000E+01 0.  0.
    9000001    1    1    2    0    0  0.61901177808E+04  0.96966731231E+03 -0.17297936766E+04  0.65000000000E+04  0.10000000000E+01 0.  0.
    9000001    1    1    2    0    0 -0.61901177808E+04 -0.96966731231E+03  0.17297936766E+04  0.65000000000E+04  0.10000000000E+01 0.  0.
</event>
<event>
 4    1  0.2201588E-006  0.1300000E+05  0.7957747E-01  0.1322471E+00
    9000001   -1    0    0    0    0  0.00000000000E+00  0.00000000000E+00  0.64999999231E+04  0.65000000000E+04  0.10000000000E+01 0.  0.
    9000001   -1    0    0    0    0 -0.00000000000E+00 -0.00000000000E+00 -0.64999999231E+04  0.65000000000E+04  0.10000000000E+01 0.  0.
    9000001    1    1    2    0    0  0.22780682408E+04 -0.78349970029E+03 -0.60370963476E+04  0.65000000000E+04  0.10000000000E+01 0.  0.
    9000001    1    1    2    0    0 -0.22780682408E+04  0.78349970029E+03  0.60370963476E+04  0.65000000000E+04  0.10000000000E+01 0.  0.
</event>
<event>
 4    1  0.2201588E-006  0.1300000E+05  0.7957747E-01  0.1322471E+00
    9000001   -1    0    0    0    0  0.00000000000E+00  0.00000000000E+00  0.64999999231E+04  0.65000000000E+04  0.10000000000E+01 0.  0.
    9000001   -1    0    0    0    0 -0.00000000000E+00 -0.00000000000E+00 -0.64999999231E+04  0.65000000000E+04  0.10000000000E+01 0.  0.
    9000001    1    1    2    0    0 -0.33063281452E+04 -0.44871344958E+04 -0.33442214659E+04  0.65000000000E+04  0.10000000000E+01 0.  0.
    9000001    1    1    2    0    0  0.33063281452E+04  0.44871344958E+04  0.33442214659E+04  0.65000000000E+04  0.10000000000E+01 0.  0.
</event>
<event>
 4    1  0.2201588E-006  0.1300000E+05  0.7957747E-01  0.1322471E+00
    9000001   -1    0    0    0    0  0.00000000000E+00  0.00000000000E+00  0.64999999231E+04  0.65000000000E+04  0.10000000000E+01 0.  0.
    9000001   -1    0    0    0    0 -0.00000000000E+00 -0.00000000000E+00 -0.64999999231E+04  0.65000000000E+04  0.10000000000E+01 0.  0.
    9000001    1    1    2    0    0  0.27440203568E+04  0.55351208912E+04  0.20205910031E+04  0.65000000000E+04  0.10000000000E+01 0.  0.
    9000001    1    1    2    0    0 -0.27440203568E+04 -0.55351208912E+04 -0.20205910031E+04  0.65000000000E+04  0.10000000000E+01 0.  0.
</event>
<event>
 4    1  0.2201588E-006  0.1300000E+05  0.7957747E-01  0.1322471E+00
    9000001   -1    0    0    0    0  0.00000000000E+00  0.00000000000E+00  0.64999999231E+04  0.65000000000E+04  0.10000000000E+01 0.  0.
    9000001   -1    0    0    0    0 -0.00000000000E+00 -0.00000000000E+00 -0.64999999231E+04  0.65000000000E+04  0.10000000000E+01 0.  0.
    9000001    1    1    2    0    0 -0.37041008996E+04 -0.51050208554E+04 -0.15711134879E+04  0.65000000000E+04  0.10000000000E+01 0.  0.
    9000001    1    1    2    0    0  0.37041008996E+04  0.51050208554E+04  0.15711134879E+04  0.65000000000E+04  0.10000000000E+01 0.  0.
</event>
<event>
 4    1  0.2201588E-006  0.1300000E+05  0.7957747E-01  0.1322471E+00
    9000001   -1    0    0    0    0  0.00000000000E+00  0.00000000000E+00  0.64999999231E+04  0.65000000000E+04  0.10000000000E+01 0.  0.
    9000001   -1    0    0    0    0 -0.00000000000E+00 -0.00000000000E+00 -0.64999999231E+04  0.65000000000E+04  0.10000000000E+01 0.  0.
    9000001    1    1    2    0    0  0.76933870354E+03 -0.32253151628E+04  0.55906581956E+04  0.65000000000E+04  0.10000000000E+01 0.  0.
    9000001    1    1    2    0    0 -0.76933870354E+03  0.32253151628E+04 -0.55906581956E+04  0.65000000000E+04  0.10000000000E+01 0.  0.
</event>
<event>
 4    1  0.2201588E-006  0.1300000E+05  0.7957747E-01  0.1322471E+00
    9000001   -1    0    0    0    0  0.00000000000E+00  0.00000000000E+00  0.64999999231E+04  0.65000000000E+04  0.10000000000E+01 0.  0.
    9000001   -1    0    0    0    0 -0.00000000000E+00 -0.00000000000E+00 -0.64999999231E+04  0.65000000000E+04  0.10000000000E+01 0.  0.
    9000001    1    1    2    0    0  0.51270283003E+03  0.24490876115E+04  0.59990919879E+04  0.65000000000E+04  0.10000000000E+01 0.  0.
    9000001    1    1    2    0    0 -0.51270283003E+03 -0.24490876115E+04 -0.59990919879E+04  0.65000000000E+04  0.10000000000E+01 0.  0.
</event>
<event>
 4    1  0.2201588E-006  0.1300000E+05  0.7957747E-01  0.1322471E+00
    9000001   -1    0    0    0    0  0.00000000000E+00  0.00000000000E+00  0.64999999231E+04  0.65000000000E+04  0.10000000000E+01 0.  0.
    9000001   -1    0    0    0    0 -0.00000000000E+00 -0.00000000000E+00 -0.64999999231E+04  0.65000000000E+04  0.10000000000E+01 0.  0.
    9000001    1    1    2    0    0  0.57826530584E+04  0.10849054355E+04  0.27629518276E+04  0.65000000000E+04  0.10000000000E+01 0.  0.
    9000001    1    1    2    0    0 -0.57826530584E+04 -0.10849054355E+04 -0.27629518276E+04  0.65000000000E+04  0.10000000000E+01 0.  0.
</event>
<event>
 4    1  0.2201588E-006  0.1300000E+05  0.7957747E-01  0.1322471E+00
    9000001   -1    0    0    0    0  0.00000000000E+00  0.00000000000E+00  0.64999999231E+04  0.65000000000E+04  0.10000000000E+01 0.  0.
    9000001   -1    0    0    0    0 -0.00000000000E+00 -0.00000000000E+00 -0.64999999231E+04  0.65000000000E+04  0.10000000000E+01 0.  0.
    9000001    1    1    2    0    0 -0.53411459421E+04  0.12812105504E+04  0.34757241765E+04  0.65000000000E+04  0.10000000000E+01 0.  0.
    9000001    1    1    2    0    0  0.53411459421E+04 -0.12812105504E+04 -0.34757241765E+04  0.65000000000E+04  0.10000000000E+01 0.  0.
</event>
<event>
 4    1  0.2201588E-006  0.1300000E+05  0.7957747E-01  0.1322471E+00
    9000001   -1    0    0    0    0  0.00000000000E+00  0.00000000000E+00  0.64999999231E+04  0.65000000000E+04  0.10000000000E+01 0.  0.
    9000001   -1    0    0    0    0 -0.00000000000E+00 -0.00000000000E+00 -0.64999999231E+04  0.65000000000E+04  0.10000000000E+01 0.  0.
    9000001    1    1    2    0    0 -0.21633004500E+04 -0.60787672628E+04  0.78658675836E+03  0.65000000000E+04  0.10000000000E+01 0.  0.
    9000001    1    1    2    0    0  0.21633004500E+04  0.60787672628E+04 -0.78658675836E+03  0.65000000000E+04  0.10000000000E+01 0.  0.
</event>
<event>
 4    1  0.2201588E-006  0.1300000E+05  0.7957747E-01  0.1322471E+00
    9000001   -1    0    0    0    0  0.00000000000E+00  0.00000000000E+00  0.64999999231E+04  0.65000000000E+04  0.10000000000E+01 0.  0.
    9000001   -1    0    0    0    0 -0.00000000000E+00 -0.00000000000E+00 -0.64999999231E+04  0.65000000000E+04  0.10000000000E+01 0.  0.
    9000001    1    1    2    0    0 -0.10485495339E+04 -0.53730938395E+04  0.35043409461E+04  0.65000000000E+04  0.10000000000E+01 0.  0.
    9000001    1    1    2    0    0  0.10485495339E+04  0.53730938395E+04 -0.35043409461E+04  0.65000000000E+04  0.10000000000E+01 0.  0.
</event>
<event>
 4    1  0.2201588E-006  0.1300000E+05  0.7957747E-01  0.1322471E+00
    9000001   -1    0    0    0    0  0.00000000000E+00  0.00000000000E+00  0.64999999231E+04  0.65000000000E+04  0.10000000000E+01 0.  0.
    9000001   -1    0    0    0    0 -0.00000000000E+00 -0.00000000000E+00 -0.64999999231E+04  0.65000000000E+04  0.10000000000E+01 0.  0.
    9000001    1    1    2    0    0  0.32414913677E+04 -0.51403527728E+04  0.23064054466E+04  0.65000000000E+04  0.10000000000E+01 0.  0.
    9000001    1    1    2    0    0 -0.32414913677E+04  0.51403527728E+04 -0.23064054466E+04  0.65000000000E+04  0.10000000000E+01 0.  0.
</event>
<event>
 4    1  0.2201588E-006  0.1300000E+05  0.7957747E-01  0.1322471E+00
    9000001   -1    0    0    0    0  0.00000000000E+00  0.00000000000E+00  0.64999999231E+04  0.65000000000E+04  0.10000000000E+01 0.  0.
    9000001   -1    0    0    0    0 -0.00000000000E+00 -0.00000000000E+00 -0.64999999231E+04  0.65000000000E+04  0.10000000000E+01 0.  0.
    9000001    1    1    2    0    0 -0.24084802898E+04  0.57319489979E+04 -0.18957801505E+04  0.65000000000E+04  0.10000000000E+01 0.  0.
    9000001    1    1    2    0    0  0.24084802898E+04 -0.57319489979E+04  0.18957801505E+04  0.65000000000E+04  0.10000000000E+01 0.  0.
</event>
<event>
 4    1  0.2201588E-006  0.1300000E+05  0.7957747E-01  0.1322471E+00
    9000001   -1    0    0    0    0  0.00000000000E+00  0.00000000000E+00  0.64999999231E+04  0.65000000000E+04  0.10000000000E+01 0.  0.
    9000001   -1    0    0    0    0 -0.00000000000E+00 -0.00000000000E+00 -0.64999999231E+04  0.65000000000E+04  0.10000000000E+01 0.  0.
    9000001    1    1    2    0    0  0.41161179408E+04  0.38025857579E+03 -0.50162710765E+04  0.65000000000E+04  0.10000000000E+01 0.  0.
    9000001    1    1    2    0    0 -0.41161179408E+04 -0.38025857579E+03  0.50162710765E+04  0.65000000000E+04  0.10000000000E+01 0.  0.
</event>
<event>
 4    1  0.2201588E-006  0.1300000E+05  0.7957747E-01  0.1322471E+00
    9000001   -1    0    0    0    0  0.00000000000E+00  0.00000000000E+00  0.64999999231E+04  0.65000000000E+04  0.10000000000E+01 0.  0.
    9000001   -1    0    0    0    0 -0.00000000000E+00 -0.00000000000E+00 -0.64999999231E+04  0.65000000000E+04  0.10000000000E+01 0.  0.
    9000001    1    1    2    0    0 -0.62968518635E+04  0.12504200080E+04 -0.10178926332E+04  0.65000000000E+04  0.10000000000E+01 0.  0.
    9000001    1    1    2    0    0  0.62968518635E+04 -0.12504200080E+04  0.10178926332E+04  0.65000000000E+04  0.10000000000E+01 0.  0.
</event>
<event>
 4    1  0.2201588E-006  0.1300000E+05  0.7957747E-01  0.1322471E+00
    9000001   -1    0    0    0    0  0.00000000000E+00  0.00000000000E+00  0.64999999231E+04  0.65000000000E+04  0.10000000000E+01 0.  0.
    9000001   -1    0    0    0    0 -0.00000000000E+00 -0.00000000000E+00 -0.64999999231E+04  0.65000000000E+04  0.10000000000E+01 0.  0.
    9000001    1    1    2    0    0  0.27870535750E+04 -0.39127408367E+04 -0.43786745157E+04  0.65000000000E+04  0.10000000000E+01 0.  0.
    9000001    1    1    2    0    0 -0.27870535750E+04  0.39127408367E+04  0.43786745157E+04  0.65000000000E+04  0.10000000000E+01 0.  0.
</event>
<event>
 4    1  0.2201588E-006  0.1300000E+05  0.7957747E-01  0.1322471E+00
    9000001   -1    0    0    0    0  0.00000000000E+00  0.00000000000E+00  0.64999999231E+04  0.65000000000E+04  0.10000000000E+01 0.  0.
    9000001   -1    0    0    0    0 -0.00000000000E+00 -0.00000000000E+00 -0.64999999231E+04  0.65000000000E+04  0.10000000000E+01 0.  0.
    9000001    1    1    2    0    0  0.64330640229E+04  0.92904193040E+03 -0.50669215559E+02  0.65000000000E+04  0.10000000000E+01 0.  0.
    9000001    1    1    2    0    0 -0.64330640229E+04 -0.92904193040E+03  0.50669215559E+02  0.65000000000E+04  0.10000000000E+01 0.  0.
</event>
<event>
 4    1  0.2201588E-006  0.1300000E+05  0.7957747E-01  0.1322471E+00
    9000001   -1    0    0    0    0  0.00000000000E+00  0.00000000000E+00  0.64999999231E+04  0.65000000000E+04  0.10000000000E+01 0.  0.
    9000001   -1    0    0    0    0 -0.00000000000E+00 -0.00000000000E+00 -0.64999999231E+04  0.65000000000E+04  0.10000000000E+01 0.  0.
    9000001    1    1    2    0    0  0.16586255170E+04 -0.29402374129E+04  0.55546344929E+04  0.65000000000E+04  0.10000000000E+01 0.  0.
    9000001    1    1    2    0    0 -0.16586255170E+04  0.29402374129E+04 -0.55546344929E+04  0.65000000000E+04  0.10000000000E+01 0.  0.
</event>
<event>
 4    1  0.2201588E-006  0.1300000E+05  0.7957747E-01  0.1322471E+00
    9000001   -1    0    0    0    0  0.00000000000E+00  0.00000000000E+00  0.64999999231E+04  0.65000000000E+04  0.10000000000E+01 0.  0.
    9000001   -1    0    0    0    0 -0.00000000000E+00 -0.00000000000E+00 -0.64999999231E+04  0.65000000000E+04  0.10000000000E+01 0.  0.
    9000001    1    1    2    0    0 -0.14908012268E+04 -0.56605184270E+04 -0.28259585701E+04  0.65000000000E+04  0.10000000000E+01 0.  0.
    9000001    1    1    2    0    0  0.14908012268E+04  0.56605184270E+04  0.28259585701E+04  0.65000000000E+04  0.10000000000E+01 0.  0.
</event>
<event>
 4    1  0.2201588E-006  0.1300000E+05  0.7957747E-01  0.1322471E+00
    9000001   -1    0    0    0    0  0.00000000000E+00  0.00000000000E+00  0.64999999231E+04  0.65000000000E+04  0.10000000000E+01 0.  0.
    9000001   -1    0    0    0    0 -0.00000000000E+00 -0.00000000000E+00 -0.64999999231E+04  0.65000000000E+04  0.10000000000E+01 0.  0.
    9000001    1    1    2    0    0 -0.38601508328E+04  0.26892135888E+04  0.44852385468E+04  0.65000000000E+04  0.10000000000E+01 0.  0.
    9000001    1    1    2    0    0  0.38601508328E+04 -0.26892135888E+04 -0.44852385468E+04  0.65000000000E+04  0.10000000000E+01 0.  0.
</event>
<event>
 4    1  0.2201588E-006  0.1300000E+05  0.7957747E-01  0.1322471E+00
    9000001   -1    0    0    0    0  0.00000000000E+00  0.00000000000E+00  0.64999999231E+04  0.65000000000E+04  0.10000000000E+01 0.  0.
    9000001   -1    0    0    0    0 -0.00000000000E+00 -0.00000000000E+00 -0.64999999231E+04  0.65000000000E+04  0.10000000000E+01 0.  0.
    9000001    1    1    2    0    0 -0.26402432728E+04 -0.44170892691E+04  0.39709491119E+04  0.65000000000E+04  0.10000000000E+01 0.  0.
    9000001    1    1    2    0    0  0.26402432728E+04  0.44170892691E+04 -0.39709491119E+04  0.65000000000E+04  0.10000000000E+01 0.  0.
</event>
<event>
 4    1  0.2201588E-006  0.1300000E+05  0.7957747E-01  0.1322471E+00
    9000001   -1    0    0    0    0  0.00000000000E+00  0.00000000000E+00  0.64999999231E+04  0.65000000000E+04  0.10000000000E+01 0.  0.
    9000001   -1    0    0    0    0 -0.00000000000E+00 -0.00000000000E+00 -0.64999999231E+04  0.65000000000E+04  0.10000000000E+01 0.  0.
    9000001    1    1    2    0    0  0.51537294985E+04 -0.19521230919E+04 -0.34464890382E+04  0.65000000000E+04  0.10000000000E+01 0.  0.
    9000001    1    1    2    0    0 -0.51537294985E+04  0.19521230919E+04  0.34464890382E+04  0.65000000000E+04  0.10000000000E+01 0.  0.
</event>
<event>
 4    1  0.2201588E-006  0.1300000E+05  0.7957747E-01  0.1322471E+00
    9000001   -1    0    0    0    0  0.00000000000E+00  0.00000000000E+00  0.64999999231E+04  0.65000000000E+04  0.10000000000E+01 0.  0.
    9000001   -1    0    0    0    0 -0.00000000000E+00 -0.00000000000E+00 -0.64999999231E+04  0.65000000000E+04  0.10000000000E+01 0.  0.
    9000001    1    1    2    0    0  0.63075617181E+03 -0.59172766467E+04  0.26149536781E+04  0.65000000000E+04  0.10000000000E+01 0.  0.
    9000001    1    1    2    0    0 -0.63075617181E+03  0.59172766467E+04 -0.26149536781E+04  0.65000000000E+04  0.10000000000E+01 0.  0.
</event>
<event>
 4    1  0.2201588E-006  0.1300000E+05  0.7957747E-01  0.1322471E+00
    9000001   -1    0    0    0    0  0.00000000000E+00  0.00000000000E+00  0.64999999231E+04  0.65000000000E+04  0.10000000000E+01 0.  0.
    9000001   -1    0    0    0    0 -0.00000000000E+00 -0.00000000000E+00 -0.64999999231E+04  0.65000000000E+04  0.10000000000E+01 0.  0.
    9000001    1    1    2    0    0 -0.52442582171E+04  0.27011271570E+04  0.27297741361E+04  0.65000000000E+04  0.10000000000E+01 0.  0.
    9000001    1    1    2    0    0  0.52442582171E+04 -0.27011271570E+04 -0.27297741361E+04  0.65000000000E+04  0.10000000000E+01 0.  0.
</event>
<event>
 4    1  0.2201588E-006  0.1300000E+05  0.7957747E-01  0.1322471E+00
    9000001   -1    0    0    0    0  0.00000000000E+00  0.00000000000E+00  0.64999999231E+04  0.65000000000E+04  0.10000000000E+01 0.  0.
    9000001   -1    0    0    0    0 -0.00000000000E+00 -0.00000000000E+00 -0.64999999231E+04  0.65000000000E+04  0.10000000000E+01 0.  0.
    9000001    1    1    2    0    0  0.63742842887E+04  0.57038727483E+03 -0.11371706836E+04  0.65000000000E+04  0.10000000000E+01 0.  0.
    9000001    1    1    2    0    0 -0.63742842887E+04 -0.57038727483E+03  0.11371706836E+04  0.65000000000E+04  0.10000000000E+01 0.  0.
</event>
<event>
 4    1  0.2201588E-006  0.1300000E+05  0.7957747E-01  0.1322471E+00
    9000001   -1    0    0    0    0  0.00000000000E+00  0.00000000000E+00  0.64999999231E+04  0.65000000000E+04  0.10000000000E+01 0.  0.
    9000001   -1    0    0    0    0 -0.00000000000E+00 -0.00000000000E+00 -0.64999999231E+04  0.65000000000E+04  0.10000000000E+01 0.  0.
    9000001    1    1    2    0    0  0.29702509358E+04  0.57134077925E+04  0.88576507907E+03  0.65000000000E+04  0.10000000000E+01 0.  0.
    9000001    1    1    2    0    0 -0.29702509358E+04 -0.57134077925E+04 -0.88576507907E+03  0.65000000000E+04  0.10000000000E+01 0.  0.
</event>
<event>
 4    1  0.2201588E-006  0.1300000E+05  0.7957747E-01  0.1322471E+00
    9000001   -1    0    0    0    0  0.00000000000E+00  0.00000000000E+00  0.64999999231E+04  0.65000000000E+04  0.10000000000E+01 0.  0.
    9000001   -1    0    0    0    0 -0.00000000000E+00 -0.00000000000E+00 -0.64999999231E+04  0.65000000000E+04  0.10000000000E+01 0.  0.
    9000001    1    1    2    0    0  0.17787071830E+04  0.50098349497E+04 -0.37400205259E+04  0.65000000000E+04  0.10000000000E+01 0.  0.
    9000001    1    1    2    0    0 -0.17787071830E+04 -0.50098349497E+04  0.37400205259E+04  0.65000000000E+04  0.10000000000E+01 0.  0.
</event>
<event>
 4    1  0.2201588E-006  0.1300000E+05  0.7957747E-01  0.1322471E+00
    9000001   -1    0    0    0    0  0.00000000000E+00  0.00000000000E+00  0.64999999231E+04  0.65000000000E+04  0.10000000000E+01 0.  0.
    9000001   -1    0    0    0    0 -0.00000000000E+00 -0.00000000000E+00 -0.64999999231E+04  0.65000000000E+04  0.10000000000E+01 0.  0.
    9000001    1    1    2    0    0 -0.28356408209E+04 -0.43424203854E+04  0.39182298722E+04  0.65000000000E+04  0.10000000000E+01 0.  0.
    9000001    1    1    2    0    0  0.28356408209E+04  0.43424203854E+04 -0.39182298722E+04  0.65000000000E+04  0.10000000000E+01 0.  0.
</event>
<event>
 4    1  0.2201588E-006  0.1300000E+05  0.7957747E-01  0.1322471E+00
    9000001   -1    0    0    0    0  0.00000000000E+00  0.00000000000E+00  0.64999999231E+04  0.65000000000E+04  0.10000000000E+01 0.  0.
    9000001   -1    0    0    0    0 -0.00000000000E+00 -0.00000000000E+00 -0.64999999231E+04  0.65000000000E+04  0.10000000000E+01 0.  0.
    9000001    1    1    2    0    0 -0.44899365786E+04  0.30647133307E+04 -0.35634254196E+04  0.65000000000E+04  0.10000000000E+01 0.  0.
    9000001    1    1    2    0    0  0.44899365786E+04 -0.30647133307E+04  0.35634254196E+04  0.65000000000E+04  0.10000000000E+01 0.  0.
</event>
<event>
 4    1  0.2201588E-006  0.1300000E+05  0.7957747E-01  0.1322471E+00
    9000001   -1    0    0    0    0  0.00000000000E+00  0.00000000000E+00  0.64999999231E+04  0.65000000000E+04  0.10000000000E+01 0.  0.
    9000001   -1    0    0    0    0 -0.00000000000E+00 -0.00000000000E+00 -0.64999999231E+04  0.65000000000E+04  0.10000000000E+01 0.  0.
    9000001    1    1    2    0    0 -0.49102117507E+04 -0.42584500991E+04 -0.73636379047E+02  0.65000000000E+04  0.10000000000E+01 0.  0.
    9000001    1    1    2    0    0  0.49102117507E+04  0.42584500991E+04  0.73636379047E+02  0.65000000000E+04  0.10000000000E+01 0.  0.
</event>
<event>
 4    1  0.2201588E-006  0.1300000E+05  0.7957747E-01  0.1322471E+00
    9000001   -1    0    0    0    0  0.00000000000E+00  0.00000000000E+00  0.64999999231E+04  0.65000000000E+04  0.10000000000E+01 0.  0.
    9000001   -1    0    0    0    0 -0.00000000000E+00 -0.00000000000E+00 -0.64999999231E+04  0.65000000000E+04  0.10000000000E+01 0.  0.
    9000001    1    1    2    0    0 -0.35230272886E+04 -0.16269904221E+04 -0.52145162662E+04  0.65000000000E+04  0.10000000000E+01 0.  0.
    9000001    1    1    2    0    0  0.35230272886E+04  0.16269904221E+04  0.52145162662E+04  0.65000000000E+04  0.10000000000E+01 0.  0.
</event>
<event>
 4    1  0.2201588E-006  0.1300000E+05  0.7957747E-01  0.1322471E+00
    9000001   -1    0    0    0    0  0.00000000000E+00  0.00000000000E+00  0.64999999231E+04  0.65000000000E+04  0.10000000000E+01 0.  0.
    9000001   -1    0    0    0    0 -0.00000000000E+00 -0.00000000000E+00 -0.64999999231E+04  0.65000000000E+04  0.10000000000E+01 0.  0.
    9000001    1    1    2    0    0 -0.73830562925E+03 -0.64080538070E+04  0.80109313100E+03  0.65000000000E+04  0.10000000000E+01 0.  0.
    9000001    1    1    2    0    0  0.73830562925E+03  0.64080538070E+04 -0.80109313100E+03  0.65000000000E+04  0.10000000000E+01 0.  0.
</event>
<event>
 4    1  0.2201588E-006  0.1300000E+05  0.7957747E-01  0.1322471E+00
    9000001   -1    0    0    0    0  0.00000000000E+00  0.00000000000E+00  0.64999999231E+04  0.65000000000E+04  0.10000000000E+01 0.  0.
    9000001   -1    0    0    0    0 -0.00000000000E+00 -0.00000000000E+00 -0.64999999231E+04  0.65000000000E+04  0.10000000000E+01 0.  0.
    9000001    1    1    2    0    0 -0.39650489896E+04  0.88242473366E+03  0.50744174148E+04  0.65000000000E+04  0.10000000000E+01 0.  0.
    9000001    1    1    2    0    0  0.39650489896E+04 -0.88242473366E+03 -0.50744174148E+04  0.65000000000E+04  0.10000000000E+01 0.  0.
</event>
<event>
 4    1  0.2201588E-006  0.1300000E+05  0.7957747E-01  0.1322471E+00
    9000001   -1    0    0    0    0  0.00000000000E+00  0.00000000000E+00  0.64999999231E+04  0.65000000000E+04  0.10000000000E+01 0.  0.
    9000001   -1    0    0    0    0 -0.00000000000E+00 -0.00000000000E+00 -0.64999999231E+04  0.65000000000E+04  0.10000000000E+01 0.  0.
    9000001    1    1    2    0    0 -0.24829054389E+04  0.58649843272E+04 -0.12988989272E+04  0.65000000000E+04  0.10000000000E+01 0.  0.
    9000001    1    1    2    0    0  0.24829054389E+04 -0.58649843272E+04  0.12988989272E+04  0.65000000000E+04  0.10000000000E+01 0.  0.
</event>
<event>
 4    1  0.2201588E-006  0.1300000E+05  0.7957747E-01  0.1322471E+00
    9000001   -1    0    0    0    0  0.00000000000E+00  0.00000000000E+00  0.64999999231E+04  0.65000000000E+04  0.10000000000E+01 0.  0.
    9000001   -1    0    0    0    0 -0.00000000000E+00 -0.00000000000E+00 -0.64999999231E+04  0.65000000000E+04  0.10000000000E+01 0.  0.
    9000001    1    1    2    0    0 -0.35834715871E+04 -0.42828237524E+04  0.33265824941E+04  0.65000000000E+04  0.10000000000E+01 0.  0.
    9000001    1    1    2    0    0  0.35834715871E+04  0.42828237524E+04 -0.33265824941E+04  0.65000000000E+04  0.10000000000E+01 0.  0.
</event>
<event>
 4    1  0.2201588E-006  0.1300000E+05  0.7957747E-01  0.1322471E+00
    9000001   -1    0    0    0    0  0.00000000000E+00  0.00000000000E+00  0.64999999231E+04  0.65000000000E+04  0.10000000000E+01 0.  0.
    9000001   -1    0    0    0    0 -0.00000000000E+00 -0.00000000000E+00 -0.64999999231E+04  0.65000000000E+04  0.10000000000E+01 0.  0.
    9000001    1    1    2    0    0 -0.29153118241E+04  0.52948129734E+04  0.23907972614E+04  0.65000000000E+04  0.10000000000E+01 0.  0.
    9000001    1    1    2    0    0  0.29153118241E+04 -0.52948129734E+04 -0.23907972614E+04  0.65000000000E+04  0.10000000000E+01 0.  0.
</event>
<event>
 4    1  0.2201588E-006  0.1300000E+05  0.7957747E-01  0.1322471E+00
    9000001   -1    0    0    0    0  0.00000000000E+00  0.00000000000E+00  0.64999999231E+04  0.65000000000E+04  0.10000000000E+01 0.  0.
    9000001   -1    0    0    0    0 -0.00000000000E+00 -0.00000000000E+00 -0.64999999231E+04  0.65000000000E+04  0.10000000000E+01 0.  0.
    9000001    1    1    2    0    0 -0.46303313471E+04 -0.39821513457E+04  0.22254215951E+04  0.65000000000E+04  0.10000000000E+01 0.  0.
    9000001    1    1    2    0    0  0.46303313471E+04  0.39821513457E+04 -0.22254215951E+04  0.65000000000E+04  0.10000000000E+01 0.  0.
</event>
<event>
 4    1  0.2201588E-006  0.1300000E+05  0.7957747E-01  0.1322471E+00
    9000001   -1    0    0    0    0  0.00000000000E+00  0.00000000000E+00  0.64999999231E+04  0.65000000000E+04  0.10000000000E+01 0.  0.
    9000001   -1    0    0    0    0 -0.00000000000E+00 -0.00000000000E+00 -0.64999999231E+04  0.65000000000E+04  0.10000000000E+01 0.  0.
    9000001    1    1    2    0    0  0.27042910864E+04  0.59100988334E+04 -0.86836049641E+02  0.65000000000E+04  0.10000000000E+01 0.  0.
    9000001    1    1    2    0    0 -0.27042910864E+04 -0.59100988334E+04  0.86836049641E+02  0.65000000000E+04  0.10000000000E+01 0.  0.
</event>
<event>
 4    1  0.2201588E-006  0.1300000E+05  0.7957747E-01  0.1322471E+00
    9000001   -1    0    0    0    0  0.00000000000E+00  0.00000000000E+00  0.64999999231E+04  0.65000000000E+04  0.10000000000E+01 0.  0.
    9000001   -1    0    0    0    0 -0.00000000000E+00 -0.00000000000E+00 -0.64999999231E+04  0.65000000000E+04  0.10000000000E+01 0.  0.
    9000001    1    1    2    0    0  0.12015325863E+04 -0.38816785986E+04  0.50733509341E+04  0.65000000000E+04  0.10000000000E+01 0.  0.
    9000001    1    1    2    0    0 -0.12015325863E+04  0.38816785986E+04 -0.50733509341E+04  0.65000000000E+04  0.10000000000E+01 0.  0.
</event>
<event>
 4    1  0.2201588E-006  0.1300000E+05  0.7957747E-01  0.1322471E+00
    9000001   -1    0    0    0    0  0.00000000000E+00  0.00000000000E+00  0.64999999231E+04  0.65000000000E+04  0.10000000000E+01 0.  0.
    9000001   -1    0    0    0    0 -0.00000000000E+00 -0.00000000000E+00 -0.64999999231E+04  0.65000000000E+04  0.10000000000E+01 0.  0.
    9000001    1    1    2    0    0  0.14130567164E+04  0.52510143444E+04  0.35609153417E+04  0.65000000000E+04  0.10000000000E+01 0.  0.
    9000001    1    1    2    0    0 -0.14130567164E+04 -0.52510143444E+04 -0.35609153417E+04  0.65000000000E+04  0.10000000000E+01 0.  0.
</event>
<event>
 4    1  0.2201588E-006  0.1300000E+05  0.7957747E-01  0.1322471E+00
    9000001   -1    0    0    0    0  0.00000000000E+00  0.00000000000E+00  0.64999999231E+04  0.65000000000E+04  0.10000000000E+01 0.  0.
    9000001   -1    0    0    0    0 -0.00000000000E+00 -0.00000000000E+00 -0.64999999231E+04  0.65000000000E+04  0.10000000000E+01 0.  0.
    9000001    1    1    2    0    0  0.17378553878E+04  0.60824110119E+04  0.14947019547E+04  0.65000000000E+04  0.10000000000E+01 0.  0.
    9000001    1    1    2    0    0 -0.17378553878E+04 -0.60824110119E+04 -0.14947019547E+04  0.65000000000E+04  0.10000000000E+01 0.  0.
</event>
<event>
 4    1  0.2201588E-006  0.1300000E+05  0.7957747E-01  0.1322471E+00
    9000001   -1    0    0    0    0  0.00000000000E+00  0.00000000000E+00  0.64999999231E+04  0.65000000000E+04  0.10000000000E+01 0.  0.
    9000001   -1    0    0    0    0 -0.00000000000E+00 -0.00000000000E+00 -0.64999999231E+04  0.65000000000E+04  0.10000000000E+01 0.  0.
    9000001    1    1    2    0    0  0.42949241435E+04  0.48428158039E+04 -0.59225053116E+03  0.65000000000E+04  0.10000000000E+01 0.  0.
    9000001    1    1    2    0    0 -0.42949241435E+04 -0.48428158039E+04  0.59225053116E+03  0.65000000000E+04  0.10000000000E+01 0.  0.
</event>
<event>
 4    1  0.2201588E-006  0.1300000E+05  0.7957747E-01  0.1322471E+00
    9000001   -1    0    0    0    0  0.00000000000E+00  0.00000000000E+00  0.64999999231E+04  0.65000000000E+04  0.10000000000E+01 0.  0.
    9000001   -1    0    0    0    0 -0.00000000000E+00 -0.00000000000E+00 -0.64999999231E+04  0.65000000000E+04  0.10000000000E+01 0.  0.
    9000001    1    1    2    0    0 -0.56388296729E+04  0.16783962121E+04  0.27634371849E+04  0.65000000000E+04  0.10000000000E+01 0.  0.
    9000001    1    1    2    0    0  0.56388296729E+04 -0.16783962121E+04 -0.27634371849E+04  0.65000000000E+04  0.10000000000E+01 0.  0.
</event>
<event>
 4    1  0.2201588E-006  0.1300000E+05  0.7957747E-01  0.1322471E+00
    9000001   -1    0    0    0    0  0.00000000000E+00  0.00000000000E+00  0.64999999231E+04  0.65000000000E+04  0.10000000000E+01 0.  0.
    9000001   -1    0    0    0    0 -0.00000000000E+00 -0.00000000000E+00 -0.64999999231E+04  0.65000000000E+04  0.10000000000E+01 0.  0.
    9000001    1    1    2    0    0  0.12563915674E+04 -0.63014078664E+04  0.98170165027E+03  0.65000000000E+04  0.10000000000E+01 0.  0.
    9000001    1    1    2    0    0 -0.12563915674E+04  0.63014078664E+04 -0.98170165027E+03  0.65000000000E+04  0.10000000000E+01 0.  0.
</event>
<event>
 4    1  0.2201588E-006  0.1300000E+05  0.7957747E-01  0.1322471E+00
    9000001   -1    0    0    0    0  0.00000000000E+00  0.00000000000E+00  0.64999999231E+04  0.65000000000E+04  0.10000000000E+01 0.  0.
    9000001   -1    0    0    0    0 -0.00000000000E+00 -0.00000000000E+00 -0.64999999231E+04  0.65000000000E+04  0.10000000000E+01 0.  0.
    9000001    1    1    2    0    0  0.46704445716E+04 -0.39483243531E+04  0.22017450592E+04  0.65000000000E+04  0.10000000000E+01 0.  0.
    9000001    1    1    2    0    0 -0.46704445716E+04  0.39483243531E+04 -0.22017450592E+04  0.65000000000E+04  0.10000000000E+01 0.  0.
</event>
<event>
 4    1  0.2201588E-006  0.1300000E+05  0.7957747E-01  0.1322471E+00
    9000001   -1    0    0    0    0  0.00000000000E+00  0.00000000000E+00  0.64999999231E+04  0.65000000000E+04  0.10000000000E+01 0.  0.
    9000001   -1    0    0    0    0 -0.00000000000E+00 -0.00000000000E+00 -0.64999999231E+04  0.65000000000E+04  0.10000000000E+01 0.  0.
    9000001    1    1    2    0    0 -0.24269017624E+04  0.54808241048E+04  0.25141030146E+04  0.65000000000E+04  0.10000000000E+01 0.  0.
    9000001    1    1    2    0    0  0.24269017624E+04 -0.54808241048E+04 -0.25141030146E+04  0.65000000000E+04  0.10000000000E+01 0.  0.
</event>
<event>
 4    1  0.2201588E-006  0.1300000E+05  0.7957747E-01  0.1322471E+00
    9000001   -1    0    0    0    0  0.00000000000E+00  0.00000000000E+00  0.64999999231E+04  0.65000000000E+04  0.10000000000E+01 0.  0.
    9000001   -1    0    0    0    0 -0.00000000000E+00 -0.00000000000E+00 -0.64999999231E+04  0.65000000000E+04  0.10000000000E+01 0.  0.
    9000001    1    1    2    0    0 -0.28252478582E+04  0.57693234360E+04  0.99140336389E+03  0.65000000000E+04  0.10000000000E+01 0.  0.
    9000001    1    1    2    0    0  0.28252478582E+04 -0.57693234360E+04 -0.99140336389E+03  0.65000000000E+04  0.10000000000E+01 0.  0.
</event>
<event>
 4    1  0.2201588E-006  0.1300000E+05  0.7957747E-01  0.1322471E+00
    9000001   -1    0    0    0    0  0.00000000000E+00  0.00000000000E+00  0.64999999231E+04  0.65000000000E+04  0.10000000000E+01 0.  0.
    9000001   -1    0    0    0    0 -0.00000000000E+00 -0.00000000000E+00 -0.64999999231E+04  0.65000000000E+04  0.10000000000E+01 0.  0.
    9000001    1    1    2    0    0  0.32130775431E+04  0.74258854651E+03  0.56013118064E+04  0.65000000000E+04  0.10000000000E+01 0.  0.
    9000001    1    1    2    0    0 -0.32130775431E+04 -0.74258854651E+03 -0.56013118064E+04  0.65000000000E+04  0.10000000000E+01 0.  0.
</event>
<event>
 4    1  0.2201588E-006  0.1300000E+05  0.7957747E-01  0.1322471E+00
    9000001   -1    0    0    0    0  0.00000000000E+00  0.00000000000E+00  0.64999999231E+04  0.65000000000E+04  0.10000000000E+01 0.  0.
    9000001   -1    0    0    0    0 -0.00000000000E+00 -0.00000000000E+00 -0.64999999231E+04  0.65000000000E+04  0.10000000000E+01 0.  0.
    9000001    1    1    2    0    0 -0.21744275992E+04  0.50139815789E+04 -0.35187856345E+04  0.65000000000E+04  0.10000000000E+01 0.  0.
    9000001    1    1    2    0    0  0.21744275992E+04 -0.50139815789E+04  0.35187856345E+04  0.65000000000E+04  0.10000000000E+01 0.  0.
</event>
<event>
 4    1  0.2201588E-006  0.1300000E+05  0.7957747E-01  0.1322471E+00
    9000001   -1    0    0    0    0  0.00000000000E+00  0.00000000000E+00  0.64999999231E+04  0.65000000000E+04  0.10000000000E+01 0.  0.
    9000001   -1    0    0    0    0 -0.00000000000E+00 -0.00000000000E+00 -0.64999999231E+04  0.65000000000E+04  0.10000000000E+01 0.  0.
    9000001    1    1    2    0    0  0.58244895708E+04 -0.13110835857E+04  0.25702879353E+04  0.65000000000E+04  0.10000000000E+01 0.  0.
    9000001    1    1    2    0    0 -0.58244895708E+04  0.13110835857E+04 -0.25702879353E+04  0.65000000000E+04  0.10000000000E+01 0.  0.
</event>
<event>
 4    1  0.2201588E-006  0.1300000E+05  0.7957747E-01  0.1322471E+00
    9000001   -1    0    0    0    0  0.00000000000E+00  0.00000000000E+00  0.64999999231E+04  0.65000000000E+04  0.10000000000E+01 0.  0.
    9000001   -1    0    0    0    0 -0.00000000000E+00 -0.00000000000E+00 -0.64999999231E+04  0.65000000000E+04  0.10000000000E+01 0.  0.
    9000001    1    1    2    0    0 -0.64820268583E+04 -0.42357082338E+03  0.23219510311E+03  0.65000000000E+04  0.10000000000E+01 0.  0.
    9000001    1    1    2    0    0  0.64820268583E+04  0.42357082338E+03 -0.23219510311E+03  0.65000000000E+04  0.10000000000E+01 0.  0.
</event>
<event>
 4    1  0.2201588E-006  0.1300000E+05  0.7957747E-01  0.1322471E+00
    9000001   -1    0    0    0    0  0.00000000000E+00  0.00000000000E+00  0.64999999231E+04  0.65000000000E+04  0.10000000000E+01 0.  0.
    9000001   -1    0    0    0    0 -0.00000000000E+00 -0.00000000000E+00 -0.64999999231E+04  0.65000000000E+04  0.10000000000E+01 0.  0.
    9000001    1    1    2    0    0  0.42931360359E+04 -0.32055286762E+04  0.36801586763E+04  0.65000000000E+04  0.10000000000E+01 0.  0.
    9000001    1    1    2    0    0 -0.42931360359E+04  0.32055286762E+04 -0.36801586763E+04  0.65000000000E+04  0.10000000000E+01 0.  0.
</event>
<event>
 4    1  0.2201588E-006  0.1300000E+05  0.7957747E-01  0.1322471E+00
    9000001   -1    0    0    0    0  0.00000000000E+00  0.00000000000E+00  0.64999999231E+04  0.65000000000E+04  0.10000000000E+01 0.  0.
    9000001   -1    0    0    0    0 -0.00000000000E+00 -0.00000000000E+00 -0.64999999231E+04  0.65000000000E+04  0.10000000000E+01 0.  0.
    9000001    1    1    2    0    0  0.33278222133E+04 -0.28010922868E+04  0.48300600739E+04  0.65000000000E+04  0.10000000000E+01 0.  0.
    9000001    1    1    2    0    0 -0.33278222133E+04  0.28010922868E+04 -0.48300600739E+04  0.65000000000E+04  0.10000000000E+01 0.  0.
</event>
<event>
 4    1  0.2201588E-006  0.1300000E+05  0.7957747E-01  0.1322471E+00
    9000001   -1    0    0    0    0  0.00000000000E+00  0.00000000000E+00  0.64999999231E+04  0.65000000000E+04  0.10000000000E+01 0.  0.
    9000001   -1    0    0    0    0 -0.00000000000E+00 -0.00000000000E+00 -0.64999999231E+04  0.65000000000E+04  0.10000000000E+01 0.  0.
    9000001    1    1    2    0    0 -0.18158629756E+04 -0.57143049741E+04  0.25098524492E+04  0.65000000000E+04  0.10000000000E+01 0.  0.
    9000001    1    1    2    0    0  0.18158629756E+04  0.57143049741E+04 -0.25098524492E+04  0.65000000000E+04  0.10000000000E+01 0.  0.
</event>
<event>
 4    1  0.2201588E-006  0.1300000E+05  0.7957747E-01  0.1322471E+00
    9000001   -1    0    0    0    0  0.00000000000E+00  0.00000000000E+00  0.64999999231E+04  0.65000000000E+04  0.10000000000E+01 0.  0.
    9000001   -1    0    0    0    0 -0.00000000000E+00 -0.00000000000E+00 -0.64999999231E+04  0.65000000000E+04  0.10000000000E+01 0.  0.
    9000001    1    1    2    0    0 -0.60181624510E+04 -0.16557051369E+04  0.18139350080E+04  0.65000000000E+04  0.10000000000E+01 0.  0.
    9000001    1    1    2    0    0  0.60181624510E+04  0.16557051369E+04 -0.18139350080E+04  0.65000000000E+04  0.10000000000E+01 0.  0.
</event>
<event>
 4    1  0.2201588E-006  0.1300000E+05  0.7957747E-01  0.1322471E+00
    9000001   -1    0    0    0    0  0.00000000000E+00  0.00000000000E+00  0.64999999231E+04  0.65000000000E+04  0.10000000000E+01 0.  0.
    9000001   -1    0    0    0    0 -0.00000000000E+00 -0.00000000000E+00 -0.64999999231E+04  0.65000000000E+04  0.10000000000E+01 0.  0.
    9000001    1    1    2    0    0 -0.15836892650E+04  0.50269800547E+04 -0.38041291831E+04  0.65000000000E+04  0.10000000000E+01 0.  0.
    9000001    1    1    2    0    0  0.15836892650E+04 -0.50269800547E+04  0.38041291831E+04  0.65000000000E+04  0.10000000000E+01 0.  0.
</event>
<event>
 4    1  0.2201588E-006  0.1300000E+05  0.7957747E-01  0.1322471E+00
    9000001   -1    0    0    0    0  0.00000000000E+00  0.00000000000E+00  0.64999999231E+04  0.65000000000E+04  0.10000000000E+01 0.  0.
    9000001   -1    0    0    0    0 -0.00000000000E+00 -0.00000000000E+00 -0.64999999231E+04  0.65000000000E+04  0.10000000000E+01 0.  0.
    9000001    1    1    2    0    0 -0.56321816016E+04 -0.15407588383E+04 -0.28556245568E+04  0.65000000000E+04  0.10000000000E+01 0.  0.
    9000001    1    1    2    0    0  0.56321816016E+04  0.15407588383E+04  0.28556245568E+04  0.65000000000E+04  0.10000000000E+01 0.  0.
</event>
<event>
 4    1  0.2201588E-006  0.1300000E+05  0.7957747E-01  0.1322471E+00
    9000001   -1    0    0    0    0  0.00000000000E+00  0.00000000000E+00  0.64999999231E+04  0.65000000000E+04  0.10000000000E+01 0.  0.
    9000001   -1    0    0    0    0 -0.00000000000E+00 -0.00000000000E+00 -0.64999999231E+04  0.65000000000E+04  0.10000000000E+01 0.  0.
    9000001    1    1    2    0    0 -0.40337856939E+04 -0.66065635672E+03  0.50539197811E+04  0.65000000000E+04  0.10000000000E+01 0.  0.
    9000001    1    1    2    0    0  0.40337856939E+04  0.66065635672E+03 -0.50539197811E+04  0.65000000000E+04  0.10000000000E+01 0.  0.
</event>
<event>
 4    1  0.2201588E-006  0.1300000E+05  0.7957747E-01  0.1322471E+00
    9000001   -1    0    0    0    0  0.00000000000E+00  0.00000000000E+00  0.64999999231E+04  0.65000000000E+04  0.10000000000E+01 0.  0.
    9000001   -1    0    0    0    0 -0.00000000000E+00 -0.00000000000E+00 -0.64999999231E+04  0.65000000000E+04  0.10000000000E+01 0.  0.
    9000001    1    1    2    0    0  0.79189348985E+03 -0.35685886893E+04 -0.53747631080E+04  0.65000000000E+04  0.10000000000E+01 0.  0.
    9000001    1    1    2    0    0 -0.79189348985E+03  0.35685886893E+04  0.53747631080E+04  0.65000000000E+04  0.10000000000E+01 0.  0.
</event>
<event>
 4    1  0.2201588E-006  0.1300000E+05  0.7957747E-01  0.1322471E+00
    9000001   -1    0    0    0    0  0.00000000000E+00  0.00000000000E+00  0.64999999231E+04  0.65000000000E+04  0.10000000000E+01 0.  0.
    9000001   -1    0    0    0    0 -0.00000000000E+00 -0.00000000000E+00 -0.64999999231E+04  0.65000000000E+04  0.10000000000E+01 0.  0.
    9000001    1    1    2    0    0 -0.18133481754E+04 -0.33687456705E+04  0.52548377713E+04  0.65000000000E+04  0.10000000000E+01 0.  0.
    9000001    1    1    2    0    0  0.18133481754E+04  0.33687456705E+04 -0.52548377713E+04  0.65000000000E+04  0.10000000000E+01 0.  0.
</event>
<event>
 4    1  0.2201588E-006  0.1300000E+05  0.7957747E-01  0.1322471E+00
    9000001   -1    0    0    0    0  0.00000000000E+00  0.00000000000E+00  0.64999999231E+04  0.65000000000E+04  0.10000000000E+01 0.  0.
    9000001   -1    0    0    0    0 -0.00000000000E+00 -0.00000000000E+00 -0.64999999231E+04  0.65000000000E+04  0.10000000000E+01 0.  0.
    9000001    1    1    2    0    0  0.53949304440E+04  0.23630257878E+04  0.27496970070E+04  0.65000000000E+04  0.10000000000E+01 0.  0.
    9000001    1    1    2    0    0 -0.53949304440E+04 -0.23630257878E+04 -0.27496970070E+04  0.65000000000E+04  0.10000000000E+01 0.  0.
</event>
<event>
 4    1  0.2201588E-006  0.1300000E+05  0.7957747E-01  0.1322471E+00
    9000001   -1    0    0    0    0  0.00000000000E+00  0.00000000000E+00  0.64999999231E+04  0.65000000000E+04  0.10000000000E+01 0.  0.
    9000001   -1    0    0    0    0 -0.00000000000E+00 -0.00000000000E+00 -0.64999999231E+04  0.65000000000E+04  0.10000000000E+01 0.  0.
    9000001    1    1    2    0    0 -0.22209995315E+04 -0.52457209653E+04  0.31304267497E+04  0.65000000000E+04  0.10000000000E+01 0.  0.
    9000001    1    1    2    0    0  0.22209995315E+04  0.52457209653E+04 -0.31304267497E+04  0.65000000000E+04  0.10000000000E+01 0.  0.
</event>
<event>
 4    1  0.2201588E-006  0.1300000E+05  0.7957747E-01  0.1322471E+00
    9000001   -1    0    0    0    0  0.00000000000E+00  0.00000000000E+00  0.64999999231E+04  0.65000000000E+04  0.10000000000E+01 0.  0.
    9000001   -1    0    0    0    0 -0.00000000000E+00 -0.00000000000E+00 -0.64999999231E+04  0.65000000000E+04  0.10000000000E+01 0.  0.
    9000001    1    1    2    0    0  0.32975695676E+04  0.51535194563E+04 -0.21948282759E+04  0.65000000000E+04  0.10000000000E+01 0.  0.
    9000001    1    1    2    0    0 -0.32975695676E+04 -0.51535194563E+04  0.21948282759E+04  0.65000000000E+04  0.10000000000E+01 0.  0.
</event>
<event>
 4    1  0.2201588E-006  0.1300000E+05  0.7957747E-01  0.1322471E+00
    9000001   -1    0    0    0    0  0.00000000000E+00  0.00000000000E+00  0.64999999231E+04  0.65000000000E+04  0.10000000000E+01 0.  0.
    9000001   -1    0    0    0    0 -0.00000000000E+00 -0.00000000000E+00 -0.64999999231E+04  0.65000000000E+04  0.10000000000E+01 0.  0.
    9000001    1    1    2    0    0 -0.59556931794E+04 -0.12058643033E+04 -0.23077281111E+04  0.65000000000E+04  0.10000000000E+01 0.  0.
    9000001    1    1    2    0    0  0.59556931794E+04  0.12058643033E+04  0.23077281111E+04  0.65000000000E+04  0.10000000000E+01 0.  0.
</event>
<event>
 4    1  0.2201588E-006  0.1300000E+05  0.7957747E-01  0.1322471E+00
    9000001   -1    0    0    0    0  0.00000000000E+00  0.00000000000E+00  0.64999999231E+04  0.65000000000E+04  0.10000000000E+01 0.  0.
    9000001   -1    0    0    0    0 -0.00000000000E+00 -0.00000000000E+00 -0.64999999231E+04  0.65000000000E+04  0.10000000000E+01 0.  0.
    9000001    1    1    2    0    0  0.63120758375E+04 -0.12093456627E+04  0.97220403677E+03  0.65000000000E+04  0.10000000000E+01 0.  0.
    9000001    1    1    2    0    0 -0.63120758375E+04  0.12093456627E+04 -0.97220403677E+03  0.65000000000E+04  0.10000000000E+01 0.  0.
</event>
<event>
 4    1  0.2201588E-006  0.1300000E+05  0.7957747E-01  0.1322471E+00
    9000001   -1    0    0    0    0  0.00000000000E+00  0.00000000000E+00  0.64999999231E+04  0.65000000000E+04  0.10000000000E+01 0.  0.
    9000001   -1    0    0    0    0 -0.00000000000E+00 -0.00000000000E+00 -0.64999999231E+04  0.65000000000E+04  0.10000000000E+01 0.  0.
    9000001    1    1    2    0    0  0.11729444076E+04  0.39088158334E+04  0.50591856259E+04  0.65000000000E+04  0.10000000000E+01 0.  0.
    9000001    1    1    2    0    0 -0.11729444076E+04 -0.39088158334E+04 -0.50591856259E+04  0.65000000000E+04  0.10000000000E+01 0.  0.
</event>
<event>
 4    1  0.2201588E-006  0.1300000E+05  0.7957747E-01  0.1322471E+00
    9000001   -1    0    0    0    0  0.00000000000E+00  0.00000000000E+00  0.64999999231E+04  0.65000000000E+04  0.10000000000E+01 0.  0.
    9000001   -1    0    0    0    0 -0.00000000000E+00 -0.00000000000E+00 -0.64999999231E+04  0.65000000000E+04  0.10000000000E+01 0.  0.
    9000001    1    1    2    0    0 -0.74730095585E+03  0.59885408052E+04 -0.24143154944E+04  0.65000000000E+04  0.10000000000E+01 0.  0.
    9000001    1    1    2    0    0  0.74730095585E+03 -0.59885408052E+04  0.24143154944E+04  0.65000000000E+04  0.10000000000E+01 0.  0.
</event>
<event>
 4    1  0.2201588E-006  0.1300000E+05  0.7957747E-01  0.1322471E+00
    9000001   -1    0    0    0    0  0.00000000000E+00  0.00000000000E+00  0.64999999231E+04  0.65000000000E+04  0.10000000000E+01 0.  0.
    9000001   -1    0    0    0    0 -0.00000000000E+00 -0.00000000000E+00 -0.64999999231E+04  0.65000000000E+04  0.10000000000E+01 0.  0.
    9000001    1    1    2    0    0 -0.53331279967E+03  0.49037876267E+04  0.42330182341E+04  0.65000000000E+04  0.10000000000E+01 0.  0.
    9000001    1    1    2    0    0  0.53331279967E+03 -0.49037876267E+04 -0.42330182341E+04  0.65000000000E+04  0.10000000000E+01 0.  0.
</event>
<event>
 4    1  0.2201588E-006  0.1300000E+05  0.7957747E-01  0.1322471E+00
    9000001   -1    0    0    0    0  0.00000000000E+00  0.00000000000E+00  0.64999999231E+04  0.65000000000E+04  0.10000000000E+01 0.  0.
    9000001   -1    0    0    0    0 -0.00000000000E+00 -0.00000000000E+00 -0.64999999231E+04  0.65000000000E+04  0.10000000000E+01 0.  0.
    9000001    1    1    2    0    0  0.49049278533E+03 -0.50168257085E+04  0.41037635944E+04  0.65000000000E+04  0.10000000000E+01 0.  0.
    9000001    1    1    2    0    0 -0.49049278533E+03  0.50168257085E+04 -0.41037635944E+04  0.65000000000E+04  0.10000000000E+01 0.  0.
</event>
<event>
 4    1  0.2201588E-006  0.1300000E+05  0.7957747E-01  0.1322471E+00
    9000001   -1    0    0    0    0  0.00000000000E+00  0.00000000000E+00  0.64999999231E+04  0.65000000000E+04  0.10000000000E+01 0.  0.
    9000001   -1    0    0    0    0 -0.00000000000E+00 -0.00000000000E+00 -0.64999999231E+04  0.65000000000E+04  0.10000000000E+01 0.  0.
    9000001    1    1    2    0    0 -0.49878312915E+04 -0.41654447274E+04 -0.14355567167E+03  0.65000000000E+04  0.10000000000E+01 0.  0.
    9000001    1    1    2    0    0  0.49878312915E+04  0.41654447274E+04  0.14355567167E+03  0.65000000000E+04  0.10000000000E+01 0.  0.
</event>
<event>
 4    1  0.2201588E-006  0.1300000E+05  0.7957747E-01  0.1322471E+00
    9000001   -1    0    0    0    0  0.00000000000E+00  0.00000000000E+00  0.64999999231E+04  0.65000000000E+04  0.10000000000E+01 0.  0.
    9000001   -1    0    0    0    0 -0.00000000000E+00 -0.00000000000E+00 -0.64999999231E+04  0.65000000000E+04  0.10000000000E+01 0.  0.
    9000001    1    1    2    0    0  0.45387018804E+03  0.59591823490E+04 -0.25558064449E+04  0.65000000000E+04  0.10000000000E+01 0.  0.
    9000001    1    1    2    0    0 -0.45387018804E+03 -0.59591823490E+04  0.25558064449E+04  0.65000000000E+04  0.10000000000E+01 0.  0.
</event>
<event>
 4    1  0.2201588E-006  0.1300000E+05  0.7957747E-01  0.1322471E+00
    9000001   -1    0    0    0    0  0.00000000000E+00  0.00000000000E+00  0.64999999231E+04  0.65000000000E+04  0.10000000000E+01 0.  0.
    9000001   -1    0    0    0    0 -0.00000000000E+00 -0.00000000000E+00 -0.64999999231E+04  0.65000000000E+04  0.10000000000E+01 0.  0.
    9000001    1    1    2    0    0 -0.42065498050E+04 -0.92415808483E+03  0.48683538873E+04  0.65000000000E+04  0.10000000000E+01 0.  0.
    9000001    1    1    2    0    0  0.42065498050E+04  0.92415808483E+03 -0.48683538873E+04  0.65000000000E+04  0.10000000000E+01 0.  0.
</event>
<event>
 4    1  0.2201588E-006  0.1300000E+05  0.7957747E-01  0.1322471E+00
    9000001   -1    0    0    0    0  0.00000000000E+00  0.00000000000E+00  0.64999999231E+04  0.65000000000E+04  0.10000000000E+01 0.  0.
    9000001   -1    0    0    0    0 -0.00000000000E+00 -0.00000000000E+00 -0.64999999231E+04  0.65000000000E+04  0.10000000000E+01 0.  0.
    9000001    1    1    2    0    0 -0.18993251175E+04 -0.11570314388E+04  0.61076870702E+04  0.65000000000E+04  0.10000000000E+01 0.  0.
    9000001    1    1    2    0    0  0.18993251175E+04  0.11570314388E+04 -0.61076870702E+04  0.65000000000E+04  0.10000000000E+01 0.  0.
</event>
<event>
 4    1  0.2201588E-006  0.1300000E+05  0.7957747E-01  0.1322471E+00
    9000001   -1    0    0    0    0  0.00000000000E+00  0.00000000000E+00  0.64999999231E+04  0.65000000000E+04  0.10000000000E+01 0.  0.
    9000001   -1    0    0    0    0 -0.00000000000E+00 -0.00000000000E+00 -0.64999999231E+04  0.65000000000E+04  0.10000000000E+01 0.  0.
    9000001    1    1    2    0    0  0.76235046681E+03 -0.30478005238E+04 -0.56903192119E+04  0.65000000000E+04  0.10000000000E+01 0.  0.
    9000001    1    1    2    0    0 -0.76235046681E+03  0.30478005238E+04  0.56903192119E+04  0.65000000000E+04  0.10000000000E+01 0.  0.
</event>
<event>
 4    1  0.2201588E-006  0.1300000E+05  0.7957747E-01  0.1322471E+00
    9000001   -1    0    0    0    0  0.00000000000E+00  0.00000000000E+00  0.64999999231E+04  0.65000000000E+04  0.10000000000E+01 0.  0.
    9000001   -1    0    0    0    0 -0.00000000000E+00 -0.00000000000E+00 -0.64999999231E+04  0.65000000000E+04  0.10000000000E+01 0.  0.
    9000001    1    1    2    0    0 -0.54825178415E+04  0.34812268454E+04 -0.27029015516E+03  0.65000000000E+04  0.10000000000E+01 0.  0.
    9000001    1    1    2    0    0  0.54825178415E+04 -0.34812268454E+04  0.27029015516E+03  0.65000000000E+04  0.10000000000E+01 0.  0.
</event>
<event>
 4    1  0.2201588E-006  0.1300000E+05  0.7957747E-01  0.1322471E+00
    9000001   -1    0    0    0    0  0.00000000000E+00  0.00000000000E+00  0.64999999231E+04  0.65000000000E+04  0.10000000000E+01 0.  0.
    9000001   -1    0    0    0    0 -0.00000000000E+00 -0.00000000000E+00 -0.64999999231E+04  0.65000000000E+04  0.10000000000E+01 0.  0.
    9000001    1    1    2    0    0  0.16623042734E+04  0.62543232544E+04 -0.60842758938E+03  0.65000000000E+04  0.10000000000E+01 0.  0.
    9000001    1    1    2    0    0 -0.16623042734E+04 -0.62543232544E+04  0.60842758938E+03  0.65000000000E+04  0.10000000000E+01 0.  0.
</event>
<event>
 4    1  0.2201588E-006  0.1300000E+05  0.7957747E-01  0.1322471E+00
    9000001   -1    0    0    0    0  0.00000000000E+00  0.00000000000E+00  0.64999999231E+04  0.65000000000E+04  0.10000000000E+01 0.  0.
    9000001   -1    0    0    0    0 -0.00000000000E+00 -0.00000000000E+00 -0.64999999231E+04  0.65000000000E+04  0.10000000000E+01 0.  0.
    9000001    1    1    2    0    0 -0.16025527454E+04 -0.37808396446E+04 -0.50385588495E+04  0.65000000000E+04  0.10000000000E+01 0.  0.
    9000001    1    1    2    0    0  0.16025527454E+04  0.37808396446E+04  0.50385588495E+04  0.65000000000E+04  0.10000000000E+01 0.  0.
</event>
<event>
 4    1  0.2201588E-006  0.1300000E+05  0.7957747E-01  0.1322471E+00
    9000001   -1    0    0    0    0  0.00000000000E+00  0.00000000000E+00  0.64999999231E+04  0.65000000000E+04  0.10000000000E+01 0.  0.
    9000001   -1    0    0    0    0 -0.00000000000E+00 -0.00000000000E+00 -0.64999999231E+04  0.65000000000E+04  0.10000000000E+01 0.  0.
    9000001    1    1    2    0    0  0.23305189189E+04  0.60365219790E+04  0.61569713760E+03  0.65000000000E+04  0.10000000000E+01 0.  0.
    9000001    1    1    2    0    0 -0.23305189189E+04 -0.60365219790E+04 -0.61569713760E+03  0.65000000000E+04  0.10000000000E+01 0.  0.
</event>
<event>
 4    1  0.2201588E-006  0.1300000E+05  0.7957747E-01  0.1322471E+00
    9000001   -1    0    0    0    0  0.00000000000E+00  0.00000000000E+00  0.64999999231E+04  0.65000000000E+04  0.10000000000E+01 0.  0.
    9000001   -1    0    0    0    0 -0.00000000000E+00 -0.00000000000E+00 -0.64999999231E+04  0.65000000000E+04  0.10000000000E+01 0.  0.
    9000001    1    1    2    0    0 -0.30466086134E+04  0.10088051343E+03 -0.57409056845E+04  0.65000000000E+04  0.10000000000E+01 0.  0.
    9000001    1    1    2    0    0  0.30466086134E+04 -0.10088051343E+03  0.57409056845E+04  0.65000000000E+04  0.10000000000E+01 0.  0.
</event>
<event>
 4    1  0.2201588E-006  0.1300000E+05  0.7957747E-01  0.1322471E+00
    9000001   -1    0    0    0    0  0.00000000000E+00  0.00000000000E+00  0.64999999231E+04  0.65000000000E+04  0.10000000000E+01 0.  0.
    9000001   -1    0    0    0    0 -0.00000000000E+00 -0.00000000000E+00 -0.64999999231E+04  0.65000000000E+04  0.10000000000E+01 0.  0.
    9000001    1    1    2    0    0 -0.62135105908E+04 -0.46523404408E+03  0.18509031370E+04  0.65000000000E+04  0.10000000000E+01 0.  0.
    9000001    1    1    2    0    0  0.62135105908E+04  0.46523404408E+03 -0.18509031370E+04  0.65000000000E+04  0.10000000000E+01 0.  0.
</event>
<event>
 4    1  0.2201588E-006  0.1300000E+05  0.7957747E-01  0.1322471E+00
    9000001   -1    0    0    0    0  0.00000000000E+00  0.00000000000E+00  0.64999999231E+04  0.65000000000E+04  0.10000000000E+01 0.  0.
    9000001   -1    0    0    0    0 -0.00000000000E+00 -0.00000000000E+00 -0.64999999231E+04  0.65000000000E+04  0.10000000000E+01 0.  0.
    9000001    1    1    2    0    0  0.23047697036E+04  0.97239106805E+03  0.59993742360E+04  0.65000000000E+04  0.10000000000E+01 0.  0.
    9000001    1    1    2    0    0 -0.23047697036E+04 -0.97239106805E+03 -0.59993742360E+04  0.65000000000E+04  0.10000000000E+01 0.  0.
</event>
<event>
 4    1  0.2201588E-006  0.1300000E+05  0.7957747E-01  0.1322471E+00
    9000001   -1    0    0    0    0  0.00000000000E+00  0.00000000000E+00  0.64999999231E+04  0.65000000000E+04  0.10000000000E+01 0.  0.
    9000001   -1    0    0    0    0 -0.00000000000E+00 -0.00000000000E+00 -0.64999999231E+04  0.65000000000E+04  0.10000000000E+01 0.  0.
    9000001    1    1    2    0    0  0.17045053972E+04  0.13456844055E+04  0.61264829904E+04  0.65000000000E+04  0.10000000000E+01 0.  0.
    9000001    1    1    2    0    0 -0.17045053972E+04 -0.13456844055E+04 -0.61264829904E+04  0.65000000000E+04  0.10000000000E+01 0.  0.
</event>
<event>
 4    1  0.2201588E-006  0.1300000E+05  0.7957747E-01  0.1322471E+00
    9000001   -1    0    0    0    0  0.00000000000E+00  0.00000000000E+00  0.64999999231E+04  0.65000000000E+04  0.10000000000E+01 0.  0.
    9000001   -1    0    0    0    0 -0.00000000000E+00 -0.00000000000E+00 -0.64999999231E+04  0.65000000000E+04  0.10000000000E+01 0.  0.
    9000001    1    1    2    0    0 -0.53264796792E+04  0.80337459455E+03 -0.36377468971E+04  0.65000000000E+04  0.10000000000E+01 0.  0.
    9000001    1    1    2    0    0  0.53264796792E+04 -0.80337459455E+03  0.36377468971E+04  0.65000000000E+04  0.10000000000E+01 0.  0.
</event>
<event>
 4    1  0.2201588E-006  0.1300000E+05  0.7957747E-01  0.1322471E+00
    9000001   -1    0    0    0    0  0.00000000000E+00  0.00000000000E+00  0.64999999231E+04  0.65000000000E+04  0.10000000000E+01 0.  0.
    9000001   -1    0    0    0    0 -0.00000000000E+00 -0.00000000000E+00 -0.64999999231E+04  0.65000000000E+04  0.10000000000E+01 0.  0.
    9000001    1    1    2    0    0  0.36734396278E+04  0.28040031099E+04  0.45709306340E+04  0.65000000000E+04  0.10000000000E+01 0.  0.
    9000001    1    1    2    0    0 -0.36734396278E+04 -0.28040031099E+04 -0.45709306340E+04  0.65000000000E+04  0.10000000000E+01 0.  0.
</event>
<event>
 4    1  0.2201588E-006  0.1300000E+05  0.7957747E-01  0.1322471E+00
    9000001   -1    0    0    0    0  0.00000000000E+00  0.00000000000E+00  0.64999999231E+04  0.65000000000E+04  0.10000000000E+01 0.  0.
    9000001   -1    0    0    0    0 -0.00000000000E+00 -0.00000000000E+00 -0.64999999231E+04  0.65000000000E+04  0.10000000000E+01 0.  0.
    9000001    1    1    2    0    0  0.39649668422E+04  0.41061755110E+04 -0.31093985935E+04  0.65000000000E+04  0.10000000000E+01 0.  0.
    9000001    1    1    2    0    0 -0.39649668422E+04 -0.41061755110E+04  0.31093985935E+04  0.65000000000E+04  0.10000000000E+01 0.  0.
</event>
<event>
 4    1  0.2201588E-006  0.1300000E+05  0.7957747E-01  0.1322471E+00
    9000001   -1    0    0    0    0  0.00000000000E+00  0.00000000000E+00  0.64999999231E+04  0.65000000000E+04  0.10000000000E+01 0.  0.
    9000001   -1    0    0    0    0 -0.00000000000E+00 -0.00000000000E+00 -0.64999999231E+04  0.65000000000E+04  0.10000000000E+01 0.  0.
    9000001    1    1    2    0    0 -0.36479492100E+04  0.15912808853E+03  0.53774663004E+04  0.65000000000E+04  0.10000000000E+01 0.  0.
    9000001    1    1    2    0    0  0.36479492100E+04 -0.15912808853E+03 -0.53774663004E+04  0.65000000000E+04  0.10000000000E+01 0.  0.
</event>
<event>
 4    1  0.2201588E-006  0.1300000E+05  0.7957747E-01  0.1322471E+00
    9000001   -1    0    0    0    0  0.00000000000E+00  0.00000000000E+00  0.64999999231E+04  0.65000000000E+04  0.10000000000E+01 0.  0.
    9000001   -1    0    0    0    0 -0.00000000000E+00 -0.00000000000E+00 -0.64999999231E+04  0.65000000000E+04  0.10000000000E+01 0.  0.
    9000001    1    1    2    0    0 -0.43128141249E+04 -0.42690990391E+04 -0.23290398705E+04  0.65000000000E+04  0.10000000000E+01 0.  0.
    9000001    1    1    2    0    0  0.43128141249E+04  0.42690990391E+04  0.23290398705E+04  0.65000000000E+04  0.10000000000E+01 0.  0.
</event>
<event>
 4    1  0.2201588E-006  0.1300000E+05  0.7957747E-01  0.1322471E+00
    9000001   -1    0    0    0    0  0.00000000000E+00  0.00000000000E+00  0.64999999231E+04  0.65000000000E+04  0.10000000000E+01 0.  0.
    9000001   -1    0    0    0    0 -0.00000000000E+00 -0.00000000000E+00 -0.64999999231E+04  0.65000000000E+04  0.10000000000E+01 0.  0.
    9000001    1    1    2    0    0  0.80898257298E+03 -0.43629257429E+04 -0.47497815906E+04  0.65000000000E+04  0.10000000000E+01 0.  0.
    9000001    1    1    2    0    0 -0.80898257298E+03  0.43629257429E+04  0.47497815906E+04  0.65000000000E+04  0.10000000000E+01 0.  0.
</event>
<event>
 4    1  0.2201588E-006  0.1300000E+05  0.7957747E-01  0.1322471E+00
    9000001   -1    0    0    0    0  0.00000000000E+00  0.00000000000E+00  0.64999999231E+04  0.65000000000E+04  0.10000000000E+01 0.  0.
    9000001   -1    0    0    0    0 -0.00000000000E+00 -0.00000000000E+00 -0.64999999231E+04  0.65000000000E+04  0.10000000000E+01 0.  0.
    9000001    1    1    2    0    0  0.36737548611E+03 -0.85503914454E+03  0.64330352333E+04  0.65000000000E+04  0.10000000000E+01 0.  0.
    9000001    1    1    2    0    0 -0.36737548611E+03  0.85503914454E+03 -0.64330352333E+04  0.65000000000E+04  0.10000000000E+01 0.  0.
</event>
<event>
 4    1  0.2201588E-006  0.1300000E+05  0.7957747E-01  0.1322471E+00
    9000001   -1    0    0    0    0  0.00000000000E+00  0.00000000000E+00  0.64999999231E+04  0.65000000000E+04  0.10000000000E+01 0.  0.
    9000001   -1    0    0    0    0 -0.00000000000E+00 -0.00000000000E+00 -0.64999999231E+04  0.65000000000E+04  0.10000000000E+01 0.  0.
    9000001    1    1    2    0    0  0.43285994150E+04 -0.48156432765E+04 -0.56816013406E+03  0.65000000000E+04  0.10000000000E+01 0.  0.
    9000001    1    1    2    0    0 -0.43285994150E+04  0.48156432765E+04  0.56816013406E+03  0.65000000000E+04  0.10000000000E+01 0.  0.
</event>
<event>
 4    1  0.2201588E-006  0.1300000E+05  0.7957747E-01  0.1322471E+00
    9000001   -1    0    0    0    0  0.00000000000E+00  0.00000000000E+00  0.64999999231E+04  0.65000000000E+04  0.10000000000E+01 0.  0.
    9000001   -1    0    0    0    0 -0.00000000000E+00 -0.00000000000E+00 -0.64999999231E+04  0.65000000000E+04  0.10000000000E+01 0.  0.
    9000001    1    1    2    0    0 -0.58781267629E+04  0.19184963481E+04 -0.20042446262E+04  0.65000000000E+04  0.10000000000E+01 0.  0.
    9000001    1    1    2    0    0  0.58781267629E+04 -0.19184963481E+04  0.20042446262E+04  0.65000000000E+04  0.10000000000E+01 0.  0.
</event>
<event>
 4    1  0.2201588E-006  0.1300000E+05  0.7957747E-01  0.1322471E+00
    9000001   -1    0    0    0    0  0.00000000000E+00  0.00000000000E+00  0.64999999231E+04  0.65000000000E+04  0.10000000000E+01 0.  0.
    9000001   -1    0    0    0    0 -0.00000000000E+00 -0.00000000000E+00 -0.64999999231E+04  0.65000000000E+04  0.10000000000E+01 0.  0.
    9000001    1    1    2    0    0  0.64981086611E+04 -0.15605190095E+03  0.15186614188E+02  0.65000000000E+04  0.10000000000E+01 0.  0.
    9000001    1    1    2    0    0 -0.64981086611E+04  0.15605190095E+03 -0.15186614188E+02  0.65000000000E+04  0.10000000000E+01 0.  0.
</event>
<event>
 4    1  0.2201588E-006  0.1300000E+05  0.7957747E-01  0.1322471E+00
    9000001   -1    0    0    0    0  0.00000000000E+00  0.00000000000E+00  0.64999999231E+04  0.65000000000E+04  0.10000000000E+01 0.  0.
    9000001   -1    0    0    0    0 -0.00000000000E+00 -0.00000000000E+00 -0.64999999231E+04  0.65000000000E+04  0.10000000000E+01 0.  0.
    9000001    1    1    2    0    0 -0.27138665402E+03  0.60443591985E+04  0.23753042255E+04  0.65000000000E+04  0.10000000000E+01 0.  0.
    9000001    1    1    2    0    0  0.27138665402E+03 -0.60443591985E+04 -0.23753042255E+04  0.65000000000E+04  0.10000000000E+01 0.  0.
</event>
<event>
 4    1  0.2201588E-006  0.1300000E+05  0.7957747E-01  0.1322471E+00
    9000001   -1    0    0    0    0  0.00000000000E+00  0.00000000000E+00  0.64999999231E+04  0.65000000000E+04  0.10000000000E+01 0.  0.
    9000001   -1    0    0    0    0 -0.00000000000E+00 -0.00000000000E+00 -0.64999999231E+04  0.65000000000E+04  0.10000000000E+01 0.  0.
    9000001    1    1    2    0    0  0.42512297852E+04  0.49160997347E+04  0.94908969590E+02  0.65000000000E+04  0.10000000000E+01 0.  0.
    9000001    1    1    2    0    0 -0.42512297852E+04 -0.49160997347E+04 -0.94908969590E+02  0.65000000000E+04  0.10000000000E+01 0.  0.
</event>
<event>
 4    1  0.2201588E-006  0.1300000E+05  0.7957747E-01  0.1322471E+00
    9000001   -1    0    0    0    0  0.00000000000E+00  0.00000000000E+00  0.64999999231E+04  0.65000000000E+04  0.10000000000E+01 0.  0.
    9000001   -1    0    0    0    0 -0.00000000000E+00 -0.00000000000E+00 -0.64999999231E+04  0.65000000000E+04  0.10000000000E+01 0.  0.
    9000001    1    1    2    0    0  0.54076077340E+04  0.35286201245E+04  0.74606810140E+03  0.65000000000E+04  0.10000000000E+01 0.  0.
    9000001    1    1    2    0    0 -0.54076077340E+04 -0.35286201245E+04 -0.74606810140E+03  0.65000000000E+04  0.10000000000E+01 0.  0.
</event>
<event>
 4    1  0.2201588E-006  0.1300000E+05  0.7957747E-01  0.1322471E+00
    9000001   -1    0    0    0    0  0.00000000000E+00  0.00000000000E+00  0.64999999231E+04  0.65000000000E+04  0.10000000000E+01 0.  0.
    9000001   -1    0    0    0    0 -0.00000000000E+00 -0.00000000000E+00 -0.64999999231E+04  0.65000000000E+04  0.10000000000E+01 0.  0.
    9000001    1    1    2    0    0 -0.60262655748E+04  0.23577441408E+04  0.61250697073E+03  0.65000000000E+04  0.10000000000E+01 0.  0.
    9000001    1    1    2    0    0  0.60262655748E+04 -0.23577441408E+04 -0.61250697073E+03  0.65000000000E+04  0.10000000000E+01 0.  0.
</event>
<event>
 4    1  0.2201588E-006  0.1300000E+05  0.7957747E-01  0.1322471E+00
    9000001   -1    0    0    0    0  0.00000000000E+00  0.00000000000E+00  0.64999999231E+04  0.65000000000E+04  0.10000000000E+01 0.  0.
    9000001   -1    0    0    0    0 -0.00000000000E+00 -0.00000000000E+00 -0.64999999231E+04  0.65000000000E+04  0.10000000000E+01 0.  0.
    9000001    1    1    2    0    0  0.20719478550E+04 -0.52212095638E+04 -0.32704742434E+04  0.65000000000E+04  0.10000000000E+01 0.  0.
    9000001    1    1    2    0    0 -0.20719478550E+04  0.52212095638E+04  0.32704742434E+04  0.65000000000E+04  0.10000000000E+01 0.  0.
</event>
<event>
 4    1  0.2201588E-006  0.1300000E+05  0.7957747E-01  0.1322471E+00
    9000001   -1    0    0    0    0  0.00000000000E+00  0.00000000000E+00  0.64999999231E+04  0.65000000000E+04  0.10000000000E+01 0.  0.
    9000001   -1    0    0    0    0 -0.00000000000E+00 -0.00000000000E+00 -0.64999999231E+04  0.65000000000E+04  0.10000000000E+01 0.  0.
    9000001    1    1    2    0    0 -0.81307542537E+03 -0.16627295958E+04 -0.62309098568E+04  0.65000000000E+04  0.10000000000E+01 0.  0.
    9000001    1    1    2    0    0  0.81307542537E+03  0.16627295958E+04  0.62309098568E+04  0.65000000000E+04  0.10000000000E+01 0.  0.
</event>
<event>
 4    1  0.2201588E-006  0.1300000E+05  0.7957747E-01  0.1322471E+00
    9000001   -1    0    0    0    0  0.00000000000E+00  0.00000000000E+00  0.64999999231E+04  0.65000000000E+04  0.10000000000E+01 0.  0.
    9000001   -1    0    0    0    0 -0.00000000000E+00 -0.00000000000E+00 -0.64999999231E+04  0.65000000000E+04  0.10000000000E+01 0.  0.
    9000001    1    1    2    0    0 -0.90399282277E+03  0.21111151025E+04  0.60807885180E+04  0.65000000000E+04  0.10000000000E+01 0.  0.
    9000001    1    1    2    0    0  0.90399282277E+03 -0.21111151025E+04 -0.60807885180E+04  0.65000000000E+04  0.10000000000E+01 0.  0.
</event>
<event>
 4    1  0.2201588E-006  0.1300000E+05  0.7957747E-01  0.1322471E+00
    9000001   -1    0    0    0    0  0.00000000000E+00  0.00000000000E+00  0.64999999231E+04  0.65000000000E+04  0.10000000000E+01 0.  0.
    9000001   -1    0    0    0    0 -0.00000000000E+00 -0.00000000000E+00 -0.64999999231E+04  0.65000000000E+04  0.10000000000E+01 0.  0.
    9000001    1    1    2    0    0  0.18809266326E+04  0.51396780524E+04  0.35065401068E+04  0.65000000000E+04  0.10000000000E+01 0.  0.
    9000001    1    1    2    0    0 -0.18809266326E+04 -0.51396780524E+04 -0.35065401068E+04  0.65000000000E+04  0.10000000000E+01 0.  0.
</event>
<event>
 4    1  0.2201588E-006  0.1300000E+05  0.7957747E-01  0.1322471E+00
    9000001   -1    0    0    0    0  0.00000000000E+00  0.00000000000E+00  0.64999999231E+04  0.65000000000E+04  0.10000000000E+01 0.  0.
    9000001   -1    0    0    0    0 -0.00000000000E+00 -0.00000000000E+00 -0.64999999231E+04  0.65000000000E+04  0.10000000000E+01 0.  0.
    9000001    1    1    2    0    0 -0.59170595524E+04  0.92891143970E+03 -0.25249809485E+04  0.65000000000E+04  0.10000000000E+01 0.  0.
    9000001    1    1    2    0    0  0.59170595524E+04 -0.92891143970E+03  0.25249809485E+04  0.65000000000E+04  0.10000000000E+01 0.  0.
</event>
<event>
 4    1  0.2201588E-006  0.1300000E+05  0.7957747E-01  0.1322471E+00
    9000001   -1    0    0    0    0  0.00000000000E+00  0.00000000000E+00  0.64999999231E+04  0.65000000000E+04  0.10000000000E+01 0.  0.
    9000001   -1    0    0    0    0 -0.00000000000E+00 -0.00000000000E+00 -0.64999999231E+04  0.65000000000E+04  0.10000000000E+01 0.  0.
    9000001    1    1    2    0    0  0.58201718050E+04 -0.20051532536E+03 -0.28871080279E+04  0.65000000000E+04  0.10000000000E+01 0.  0.
    9000001    1    1    2    0    0 -0.58201718050E+04  0.20051532536E+03  0.28871080279E+04  0.65000000000E+04  0.10000000000E+01 0.  0.
</event>
<event>
 4    1  0.2201588E-006  0.1300000E+05  0.7957747E-01  0.1322471E+00
    9000001   -1    0    0    0    0  0.00000000000E+00  0.00000000000E+00  0.64999999231E+04  0.65000000000E+04  0.10000000000E+01 0.  0.
    9000001   -1    0    0    0    0 -0.00000000000E+00 -0.00000000000E+00 -0.64999999231E+04  0.65000000000E+04  0.10000000000E+01 0.  0.
    9000001    1    1    2    0    0 -0.39858060688E+04 -0.45713384331E+04  0.23379935654E+04  0.65000000000E+04  0.10000000000E+01 0.  0.
    9000001    1    1    2    0    0  0.39858060688E+04  0.45713384331E+04 -0.23379935654E+04  0.65000000000E+04  0.10000000000E+01 0.  0.
</event>
<event>
 4    1  0.2201588E-006  0.1300000E+05  0.7957747E-01  0.1322471E+00
    9000001   -1    0    0    0    0  0.00000000000E+00  0.00000000000E+00  0.64999999231E+04  0.65000000000E+04  0.10000000000E+01 0.  0.
    9000001   -1    0    0    0    0 -0.00000000000E+00 -0.00000000000E+00 -0.64999999231E+04  0.65000000000E+04  0.10000000000E+01 0.  0.
    9000001    1    1    2    0    0  0.31909838426E+04 -0.71538087096E+03  0.56174595082E+04  0.65000000000E+04  0.10000000000E+01 0.  0.
    9000001    1    1    2    0    0 -0.31909838426E+04  0.71538087096E+03 -0.56174595082E+04  0.65000000000E+04  0.10000000000E+01 0.  0.
</event>
<event>
 4    1  0.2201588E-006  0.1300000E+05  0.7957747E-01  0.1322471E+00
    9000001   -1    0    0    0    0  0.00000000000E+00  0.00000000000E+00  0.64999999231E+04  0.65000000000E+04  0.10000000000E+01 0.  0.
    9000001   -1    0    0    0    0 -0.00000000000E+00 -0.00000000000E+00 -0.64999999231E+04  0.65000000000E+04  0.10000000000E+01 0.  0.
    9000001    1    1    2    0    0  0.17501836341E+03  0.56661486394E+04  0.31802715558E+04  0.65000000000E+04  0.10000000000E+01 0.  0.
    9000001    1    1    2    0    0 -0.17501836341E+03 -0.56661486394E+04 -0.31802715558E+04  0.65000000000E+04  0.10000000000E+01 0.  0.
</event>
<event>
 4    1  0.2201588E-006  0.1300000E+05  0.7957747E-01  0.1322471E+00
    9000001   -1    0    0    0    0  0.00000000000E+00  0.00000000000E+00  0.64999999231E+04  0.65000000000E+04  0.10000000000E+01 0.  0.
    9000001   -1    0    0    0    0 -0.00000000000E+00 -0.00000000000E+00 -0.64999999231E+04  0.65000000000E+04  0.10000000000E+01 0.  0.
    9000001    1    1    2    0    0 -0.58365145628E+04 -0.25200605568E+04  0.13543971160E+04  0.65000000000E+04  0.10000000000E+01 0.  0.
    9000001    1    1    2    0    0  0.58365145628E+04  0.25200605568E+04 -0.13543971160E+04  0.65000000000E+04  0.10000000000E+01 0.  0.
</event>
<event>
 4    1  0.2201588E-006  0.1300000E+05  0.7957747E-01  0.1322471E+00
    9000001   -1    0    0    0    0  0.00000000000E+00  0.00000000000E+00  0.64999999231E+04  0.65000000000E+04  0.10000000000E+01 0.  0.
    9000001   -1    0    0    0    0 -0.00000000000E+00 -0.00000000000E+00 -0.64999999231E+04  0.65000000000E+04  0.10000000000E+01 0.  0.
    9000001    1    1    2    0    0 -0.88934656849E+03 -0.64274424733E+04  0.38346438376E+03  0.65000000000E+04  0.10000000000E+01 0.  0.
    9000001    1    1    2    0    0  0.88934656849E+03  0.64274424733E+04 -0.38346438376E+03  0.65000000000E+04  0.10000000000E+01 0.  0.
</event>
<event>
 4    1  0.2201588E-006  0.1300000E+05  0.7957747E-01  0.1322471E+00
    9000001   -1    0    0    0    0  0.00000000000E+00  0.00000000000E+00  0.64999999231E+04  0.65000000000E+04  0.10000000000E+01 0.  0.
    9000001   -1    0    0    0    0 -0.00000000000E+00 -0.00000000000E+00 -0.64999999231E+04  0.65000000000E+04  0.10000000000E+01 0.  0.
    9000001    1    1    2    0    0 -0.34599823729E+04 -0.53856664817E+04  0.11283250980E+04  0.65000000000E+04  0.10000000000E+01 0.  0.
    9000001    1    1    2    0    0  0.34599823729E+04  0.53856664817E+04 -0.11283250980E+04  0.65000000000E+04  0.10000000000E+01 0.  0.
</event>
<event>
 4    1  0.2201588E-006  0.1300000E+05  0.7957747E-01  0.1322471E+00
    9000001   -1    0    0    0    0  0.00000000000E+00  0.00000000000E+00  0.64999999231E+04  0.65000000000E+04  0.10000000000E+01 0.  0.
    9000001   -1    0    0    0    0 -0.00000000000E+00 -0.00000000000E+00 -0.64999999231E+04  0.65000000000E+04  0.10000000000E+01 0.  0.
    9000001    1    1    2    0    0 -0.15053178863E+04 -0.21193383986E+04 -0.59575516627E+04  0.65000000000E+04  0.10000000000E+01 0.  0.
    9000001    1    1    2    0    0  0.15053178863E+04  0.21193383986E+04  0.59575516627E+04  0.65000000000E+04  0.10000000000E+01 0.  0.
</event>
<event>
 4    1  0.2201588E-006  0.1300000E+05  0.7957747E-01  0.1322471E+00
    9000001   -1    0    0    0    0  0.00000000000E+00  0.00000000000E+00  0.64999999231E+04  0.65000000000E+04  0.10000000000E+01 0.  0.
    9000001   -1    0    0    0    0 -0.00000000000E+00 -0.00000000000E+00 -0.64999999231E+04  0.65000000000E+04  0.10000000000E+01 0.  0.
    9000001    1    1    2    0    0 -0.24934482290E+04 -0.45040517755E+04  0.39681522820E+04  0.65000000000E+04  0.10000000000E+01 0.  0.
    9000001    1    1    2    0    0  0.24934482290E+04  0.45040517755E+04 -0.39681522820E+04  0.65000000000E+04  0.10000000000E+01 0.  0.
</event>
<event>
 4    1  0.2201588E-006  0.1300000E+05  0.7957747E-01  0.1322471E+00
    9000001   -1    0    0    0    0  0.00000000000E+00  0.00000000000E+00  0.64999999231E+04  0.65000000000E+04  0.10000000000E+01 0.  0.
    9000001   -1    0    0    0    0 -0.00000000000E+00 -0.00000000000E+00 -0.64999999231E+04  0.65000000000E+04  0.10000000000E+01 0.  0.
    9000001    1    1    2    0    0 -0.19176547967E+04  0.25300393212E+04 -0.56719926052E+04  0.65000000000E+04  0.10000000000E+01 0.  0.
    9000001    1    1    2    0    0  0.19176547967E+04 -0.25300393212E+04  0.56719926052E+04  0.65000000000E+04  0.10000000000E+01 0.  0.
</event>
<event>
 4    1  0.2201588E-006  0.1300000E+05  0.7957747E-01  0.1322471E+00
    9000001   -1    0    0    0    0  0.00000000000E+00  0.00000000000E+00  0.64999999231E+04  0.65000000000E+04  0.10000000000E+01 0.  0.
    9000001   -1    0    0    0    0 -0.00000000000E+00 -0.00000000000E+00 -0.64999999231E+04  0.65000000000E+04  0.10000000000E+01 0.  0.
    9000001    1    1    2    0    0  0.98735010340E+03 -0.48023629947E+04  0.42676045319E+04  0.65000000000E+04  0.10000000000E+01 0.  0.
    9000001    1    1    2    0    0 -0.98735010340E+03  0.48023629947E+04 -0.42676045319E+04  0.65000000000E+04  0.10000000000E+01 0.  0.
</event>
<event>
 4    1  0.2201588E-006  0.1300000E+05  0.7957747E-01  0.1322471E+00
    9000001   -1    0    0    0    0  0.00000000000E+00  0.00000000000E+00  0.64999999231E+04  0.65000000000E+04  0.10000000000E+01 0.  0.
    9000001   -1    0    0    0    0 -0.00000000000E+00 -0.00000000000E+00 -0.64999999231E+04  0.65000000000E+04  0.10000000000E+01 0.  0.
    9000001    1    1    2    0    0 -0.16810901774E+04  0.46010616017E+04  0.42724895498E+04  0.65000000000E+04  0.10000000000E+01 0.  0.
    9000001    1    1    2    0    0  0.16810901774E+04 -0.46010616017E+04 -0.42724895498E+04  0.65000000000E+04  0.10000000000E+01 0.  0.
</event>
<event>
 4    1  0.2201588E-006  0.1300000E+05  0.7957747E-01  0.1322471E+00
    9000001   -1    0    0    0    0  0.00000000000E+00  0.00000000000E+00  0.64999999231E+04  0.65000000000E+04  0.10000000000E+01 0.  0.
    9000001   -1    0    0    0    0 -0.00000000000E+00 -0.00000000000E+00 -0.64999999231E+04  0.65000000000E+04  0.10000000000E+01 0.  0.
    9000001    1    1    2    0    0 -0.30360465304E+03 -0.64928496214E+04 -0.26963099783E+02  0.65000000000E+04  0.10000000000E+01 0.  0.
    9000001    1    1    2    0    0  0.30360465304E+03  0.64928496214E+04  0.26963099783E+02  0.65000000000E+04  0.10000000000E+01 0.  0.
</event>
<event>
 4    1  0.2201588E-006  0.1300000E+05  0.7957747E-01  0.1322471E+00
    9000001   -1    0    0    0    0  0.00000000000E+00  0.00000000000E+00  0.64999999231E+04  0.65000000000E+04  0.10000000000E+01 0.  0.
    9000001   -1    0    0    0    0 -0.00000000000E+00 -0.00000000000E+00 -0.64999999231E+04  0.65000000000E+04  0.10000000000E+01 0.  0.
    9000001    1    1    2    0    0 -0.34279270688E+04 -0.26425658600E+04  0.48493464185E+04  0.65000000000E+04  0.10000000000E+01 0.  0.
    9000001    1    1    2    0    0  0.34279270688E+04  0.26425658600E+04 -0.48493464185E+04  0.65000000000E+04  0.10000000000E+01 0.  0.
</event>
<event>
 4    1  0.2201588E-006  0.1300000E+05  0.7957747E-01  0.1322471E+00
    9000001   -1    0    0    0    0  0.00000000000E+00  0.00000000000E+00  0.64999999231E+04  0.65000000000E+04  0.10000000000E+01 0.  0.
    9000001   -1    0    0    0    0 -0.00000000000E+00 -0.00000000000E+00 -0.64999999231E+04  0.65000000000E+04  0.10000000000E+01 0.  0.
    9000001    1    1    2    0    0  0.51003156428E+04 -0.40294884112E+04  0.15771891208E+01  0.65000000000E+04  0.10000000000E+01 0.  0.
    9000001    1    1    2    0    0 -0.51003156428E+04  0.40294884112E+04 -0.15771891208E+01  0.65000000000E+04  0.10000000000E+01 0.  0.
</event>
<event>
 4    1  0.2201588E-006  0.1300000E+05  0.7957747E-01  0.1322471E+00
    9000001   -1    0    0    0    0  0.00000000000E+00  0.00000000000E+00  0.64999999231E+04  0.65000000000E+04  0.10000000000E+01 0.  0.
    9000001   -1    0    0    0    0 -0.00000000000E+00 -0.00000000000E+00 -0.64999999231E+04  0.65000000000E+04  0.10000000000E+01 0.  0.
    9000001    1    1    2    0    0  0.62277860849E+04 -0.11928515448E+04  0.14289103098E+04  0.65000000000E+04  0.10000000000E+01 0.  0.
    9000001    1    1    2    0    0 -0.62277860849E+04  0.11928515448E+04 -0.14289103098E+04  0.65000000000E+04  0.10000000000E+01 0.  0.
</event>
<event>
 4    1  0.2201588E-006  0.1300000E+05  0.7957747E-01  0.1322471E+00
    9000001   -1    0    0    0    0  0.00000000000E+00  0.00000000000E+00  0.64999999231E+04  0.65000000000E+04  0.10000000000E+01 0.  0.
    9000001   -1    0    0    0    0 -0.00000000000E+00 -0.00000000000E+00 -0.64999999231E+04  0.65000000000E+04  0.10000000000E+01 0.  0.
    9000001    1    1    2    0    0 -0.19784965975E+04  0.60918667559E+04  0.11066660030E+04  0.65000000000E+04  0.10000000000E+01 0.  0.
    9000001    1    1    2    0    0  0.19784965975E+04 -0.60918667559E+04 -0.11066660030E+04  0.65000000000E+04  0.10000000000E+01 0.  0.
</event>
<event>
 4    1  0.2201588E-006  0.1300000E+05  0.7957747E-01  0.1322471E+00
    9000001   -1    0    0    0    0  0.00000000000E+00  0.00000000000E+00  0.64999999231E+04  0.65000000000E+04  0.10000000000E+01 0.  0.
    9000001   -1    0    0    0    0 -0.00000000000E+00 -0.00000000000E+00 -0.64999999231E+04  0.65000000000E+04  0.10000000000E+01 0.  0.
    9000001    1    1    2    0    0 -0.44551899679E+04 -0.45028078073E+04  0.14580820280E+04  0.65000000000E+04  0.10000000000E+01 0.  0.
    9000001    1    1    2    0    0  0.44551899679E+04  0.45028078073E+04 -0.14580820280E+04  0.65000000000E+04  0.10000000000E+01 0.  0.
</event>
<event>
 4    1  0.2201588E-006  0.1300000E+05  0.7957747E-01  0.1322471E+00
    9000001   -1    0    0    0    0  0.00000000000E+00  0.00000000000E+00  0.64999999231E+04  0.65000000000E+04  0.10000000000E+01 0.  0.
    9000001   -1    0    0    0    0 -0.00000000000E+00 -0.00000000000E+00 -0.64999999231E+04  0.65000000000E+04  0.10000000000E+01 0.  0.
    9000001    1    1    2    0    0 -0.53503694316E+04 -0.36598815998E+04 -0.47834362177E+03  0.65000000000E+04  0.10000000000E+01 0.  0.
    9000001    1    1    2    0    0  0.53503694316E+04  0.36598815998E+04  0.47834362177E+03  0.65000000000E+04  0.10000000000E+01 0.  0.
</event>
<event>
 4    1  0.2201588E-006  0.1300000E+05  0.7957747E-01  0.1322471E+00
    9000001   -1    0    0    0    0  0.00000000000E+00  0.00000000000E+00  0.64999999231E+04  0.65000000000E+04  0.10000000000E+01 0.  0.
    9000001   -1    0    0    0    0 -0.00000000000E+00 -0.00000000000E+00 -0.64999999231E+04  0.65000000000E+04  0.10000000000E+01 0.  0.
    9000001    1    1    2    0    0  0.28927811474E+04  0.34738593728E+04 -0.46705585631E+04  0.65000000000E+04  0.10000000000E+01 0.  0.
    9000001    1    1    2    0    0 -0.28927811474E+04 -0.34738593728E+04  0.46705585631E+04  0.65000000000E+04  0.10000000000E+01 0.  0.
</event>
<event>
 4    1  0.2201588E-006  0.1300000E+05  0.7957747E-01  0.1322471E+00
    9000001   -1    0    0    0    0  0.00000000000E+00  0.00000000000E+00  0.64999999231E+04  0.65000000000E+04  0.10000000000E+01 0.  0.
    9000001   -1    0    0    0    0 -0.00000000000E+00 -0.00000000000E+00 -0.64999999231E+04  0.65000000000E+04  0.10000000000E+01 0.  0.
    9000001    1    1    2    0    0 -0.26564361071E+04 -0.43917493199E+04 -0.39882181635E+04  0.65000000000E+04  0.10000000000E+01 0.  0.
    9000001    1    1    2    0    0  0.26564361071E+04  0.43917493199E+04  0.39882181635E+04  0.65000000000E+04  0.10000000000E+01 0.  0.
</event>
<event>
 4    1  0.2201588E-006  0.1300000E+05  0.7957747E-01  0.1322471E+00
    9000001   -1    0    0    0    0  0.00000000000E+00  0.00000000000E+00  0.64999999231E+04  0.65000000000E+04  0.10000000000E+01 0.  0.
    9000001   -1    0    0    0    0 -0.00000000000E+00 -0.00000000000E+00 -0.64999999231E+04  0.65000000000E+04  0.10000000000E+01 0.  0.
    9000001    1    1    2    0    0  0.43115249109E+04 -0.41575069212E+04 -0.25250521070E+04  0.65000000000E+04  0.10000000000E+01 0.  0.
    9000001    1    1    2    0    0 -0.43115249109E+04  0.41575069212E+04  0.25250521070E+04  0.65000000000E+04  0.10000000000E+01 0.  0.
</event>
<event>
 4    1  0.2201588E-006  0.1300000E+05  0.7957747E-01  0.1322471E+00
    9000001   -1    0    0    0    0  0.00000000000E+00  0.00000000000E+00  0.64999999231E+04  0.65000000000E+04  0.10000000000E+01 0.  0.
    9000001   -1    0    0    0    0 -0.00000000000E+00 -0.00000000000E+00 -0.64999999231E+04  0.65000000000E+04  0.10000000000E+01 0.  0.
    9000001    1    1    2    0    0  0.53320355106E+04 -0.33914253441E+04  0.15223765793E+04  0.65000000000E+04  0.10000000000E+01 0.  0.
    9000001    1    1    2    0    0 -0.53320355106E+04  0.33914253441E+04 -0.15223765793E+04  0.65000000000E+04  0.10000000000E+01 0.  0.
</event>
<event>
 4    1  0.2201588E-006  0.1300000E+05  0.7957747E-01  0.1322471E+00
    9000001   -1    0    0    0    0  0.00000000000E+00  0.00000000000E+00  0.64999999231E+04  0.65000000000E+04  0.10000000000E+01 0.  0.
    9000001   -1    0    0    0    0 -0.00000000000E+00 -0.00000000000E+00 -0.64999999231E+04  0.65000000000E+04  0.10000000000E+01 0.  0.
    9000001    1    1    2    0    0  0.14652659077E+04 -0.59412810676E+04  0.21918426257E+04  0.65000000000E+04  0.10000000000E+01 0.  0.
    9000001    1    1    2    0    0 -0.14652659077E+04  0.59412810676E+04 -0.21918426257E+04  0.65000000000E+04  0.10000000000E+01 0.  0.
</event>
<event>
 4    1  0.2201588E-006  0.1300000E+05  0.7957747E-01  0.1322471E+00
    9000001   -1    0    0    0    0  0.00000000000E+00  0.00000000000E+00  0.64999999231E+04  0.65000000000E+04  0.10000000000E+01 0.  0.
    9000001   -1    0    0    0    0 -0.00000000000E+00 -0.00000000000E+00 -0.64999999231E+04  0.65000000000E+04  0.10000000000E+01 0.  0.
    9000001    1    1    2    0    0  0.36191913701E+04 -0.32389176464E+04  0.43198223698E+04  0.65000000000E+04  0.10000000000E+01 0.  0.
    9000001    1    1    2    0    0 -0.36191913701E+04  0.32389176464E+04 -0.43198223698E+04  0.65000000000E+04  0.10000000000E+01 0.  0.
</event>
<event>
 4    1  0.2201588E-006  0.1300000E+05  0.7957747E-01  0.1322471E+00
    9000001   -1    0    0    0    0  0.00000000000E+00  0.00000000000E+00  0.64999999231E+04  0.65000000000E+04  0.10000000000E+01 0.  0.
    9000001   -1    0    0    0    0 -0.00000000000E+00 -0.00000000000E+00 -0.64999999231E+04  0.65000000000E+04  0.10000000000E+01 0.  0.
    9000001    1    1    2    0    0  0.63660890353E+04 -0.10364793973E+04 -0.80536938940E+03  0.65000000000E+04  0.10000000000E+01 0.  0.
    9000001    1    1    2    0    0 -0.63660890353E+04  0.10364793973E+04  0.80536938940E+03  0.65000000000E+04  0.10000000000E+01 0.  0.
</event>
<event>
 4    1  0.2201588E-006  0.1300000E+05  0.7957747E-01  0.1322471E+00
    9000001   -1    0    0    0    0  0.00000000000E+00  0.00000000000E+00  0.64999999231E+04  0.65000000000E+04  0.10000000000E+01 0.  0.
    9000001   -1    0    0    0    0 -0.00000000000E+00 -0.00000000000E+00 -0.64999999231E+04  0.65000000000E+04  0.10000000000E+01 0.  0.
    9000001    1    1    2    0    0 -0.27810830999E+04 -0.58579185102E+04  0.44762318862E+03  0.65000000000E+04  0.10000000000E+01 0.  0.
    9000001    1    1    2    0    0  0.27810830999E+04  0.58579185102E+04 -0.44762318862E+03  0.65000000000E+04  0.10000000000E+01 0.  0.
</event>
<event>
 4    1  0.2201588E-006  0.1300000E+05  0.7957747E-01  0.1322471E+00
    9000001   -1    0    0    0    0  0.00000000000E+00  0.00000000000E+00  0.64999999231E+04  0.65000000000E+04  0.10000000000E+01 0.  0.
    9000001   -1    0    0    0    0 -0.00000000000E+00 -0.00000000000E+00 -0.64999999231E+04  0.65000000000E+04  0.10000000000E+01 0.  0.
    9000001    1    1    2    0    0 -0.47288554560E+04  0.14840879278E+04 -0.42054022517E+04  0.65000000000E+04  0.10000000000E+01 0.  0.
    9000001    1    1    2    0    0  0.47288554560E+04 -0.14840879278E+04  0.42054022517E+04  0.65000000000E+04  0.10000000000E+01 0.  0.
</event>
<event>
 4    1  0.2201588E-006  0.1300000E+05  0.7957747E-01  0.1322471E+00
    9000001   -1    0    0    0    0  0.00000000000E+00  0.00000000000E+00  0.64999999231E+04  0.65000000000E+04  0.10000000000E+01 0.  0.
    9000001   -1    0    0    0    0 -0.00000000000E+00 -0.00000000000E+00 -0.64999999231E+04  0.65000000000E+04  0.10000000000E+01 0.  0.
    9000001    1    1    2    0    0  0.77694439793E+03  0.99676538666E+03  0.63759560198E+04  0.65000000000E+04  0.10000000000E+01 0.  0.
    9000001    1    1    2    0    0 -0.77694439793E+03 -0.99676538666E+03 -0.63759560198E+04  0.65000000000E+04  0.10000000000E+01 0.  0.
</event>
<event>
 4    1  0.2201588E-006  0.1300000E+05  0.7957747E-01  0.1322471E+00
    9000001   -1    0    0    0    0  0.00000000000E+00  0.00000000000E+00  0.64999999231E+04  0.65000000000E+04  0.10000000000E+01 0.  0.
    9000001   -1    0    0    0    0 -0.00000000000E+00 -0.00000000000E+00 -0.64999999231E+04  0.65000000000E+04  0.10000000000E+01 0.  0.
    9000001    1    1    2    0    0 -0.38583491394E+04 -0.32551545385E+04 -0.40947661531E+04  0.65000000000E+04  0.10000000000E+01 0.  0.
    9000001    1    1    2    0    0  0.38583491394E+04  0.32551545385E+04  0.40947661531E+04  0.65000000000E+04  0.10000000000E+01 0.  0.
</event>
<event>
 4    1  0.2201588E-006  0.1300000E+05  0.7957747E-01  0.1322471E+00
    9000001   -1    0    0    0    0  0.00000000000E+00  0.00000000000E+00  0.64999999231E+04  0.65000000000E+04  0.10000000000E+01 0.  0.
    9000001   -1    0    0    0    0 -0.00000000000E+00 -0.00000000000E+00 -0.64999999231E+04  0.65000000000E+04  0.10000000000E+01 0.  0.
    9000001    1    1    2    0    0 -0.39114766368E+04  0.29508822867E+04 -0.42711407434E+04  0.65000000000E+04  0.10000000000E+01 0.  0.
    9000001    1    1    2    0    0  0.39114766368E+04 -0.29508822867E+04  0.42711407434E+04  0.65000000000E+04  0.10000000000E+01 0.  0.
</event>
<event>
 4    1  0.2201588E-006  0.1300000E+05  0.7957747E-01  0.1322471E+00
    9000001   -1    0    0    0    0  0.00000000000E+00  0.00000000000E+00  0.64999999231E+04  0.65000000000E+04  0.10000000000E+01 0.  0.
    9000001   -1    0    0    0    0 -0.00000000000E+00 -0.00000000000E+00 -0.64999999231E+04  0.65000000000E+04  0.10000000000E+01 0.  0.
    9000001    1    1    2    0    0  0.50793904436E+04  0.20971109909E+04 -0.34715871317E+04  0.65000000000E+04  0.10000000000E+01 0.  0.
    9000001    1    1    2    0    0 -0.50793904436E+04 -0.20971109909E+04  0.34715871317E+04  0.65000000000E+04  0.10000000000E+01 0.  0.
</event>
<event>
 4    1  0.2201588E-006  0.1300000E+05  0.7957747E-01  0.1322471E+00
    9000001   -1    0    0    0    0  0.00000000000E+00  0.00000000000E+00  0.64999999231E+04  0.65000000000E+04  0.10000000000E+01 0.  0.
    9000001   -1    0    0    0    0 -0.00000000000E+00 -0.00000000000E+00 -0.64999999231E+04  0.65000000000E+04  0.10000000000E+01 0.  0.
    9000001    1    1    2    0    0  0.39398624530E+03 -0.37175432678E+04 -0.53173908913E+04  0.65000000000E+04  0.10000000000E+01 0.  0.
    9000001    1    1    2    0    0 -0.39398624530E+03  0.37175432678E+04  0.53173908913E+04  0.65000000000E+04  0.10000000000E+01 0.  0.
</event>
<event>
 4    1  0.2201588E-006  0.1300000E+05  0.7957747E-01  0.1322471E+00
    9000001   -1    0    0    0    0  0.00000000000E+00  0.00000000000E+00  0.64999999231E+04  0.65000000000E+04  0.10000000000E+01 0.  0.
    9000001   -1    0    0    0    0 -0.00000000000E+00 -0.00000000000E+00 -0.64999999231E+04  0.65000000000E+04  0.10000000000E+01 0.  0.
    9000001    1    1    2    0    0 -0.54238630132E+04 -0.23760062450E+03  0.35742488661E+04  0.65000000000E+04  0.10000000000E+01 0.  0.
    9000001    1    1    2    0    0  0.54238630132E+04  0.23760062450E+03 -0.35742488661E+04  0.65000000000E+04  0.10000000000E+01 0.  0.
</event>
<event>
 4    1  0.2201588E-006  0.1300000E+05  0.7957747E-01  0.1322471E+00
    9000001   -1    0    0    0    0  0.00000000000E+00  0.00000000000E+00  0.64999999231E+04  0.65000000000E+04  0.10000000000E+01 0.  0.
    9000001   -1    0    0    0    0 -0.00000000000E+00 -0.00000000000E+00 -0.64999999231E+04  0.65000000000E+04  0.10000000000E+01 0.  0.
    9000001    1    1    2    0    0  0.24785904639E+04 -0.14628447633E+04  0.58280934713E+04  0.65000000000E+04  0.10000000000E+01 0.  0.
    9000001    1    1    2    0    0 -0.24785904639E+04  0.14628447633E+04 -0.58280934713E+04  0.65000000000E+04  0.10000000000E+01 0.  0.
</event>
<event>
 4    1  0.2201588E-006  0.1300000E+05  0.7957747E-01  0.1322471E+00
    9000001   -1    0    0    0    0  0.00000000000E+00  0.00000000000E+00  0.64999999231E+04  0.65000000000E+04  0.10000000000E+01 0.  0.
    9000001   -1    0    0    0    0 -0.00000000000E+00 -0.00000000000E+00 -0.64999999231E+04  0.65000000000E+04  0.10000000000E+01 0.  0.
    9000001    1    1    2    0    0 -0.22587992836E+04 -0.43963306582E+04 -0.42213862108E+04  0.65000000000E+04  0.10000000000E+01 0.  0.
    9000001    1    1    2    0    0  0.22587992836E+04  0.43963306582E+04  0.42213862108E+04  0.65000000000E+04  0.10000000000E+01 0.  0.
</event>
<event>
 4    1  0.2201588E-006  0.1300000E+05  0.7957747E-01  0.1322471E+00
    9000001   -1    0    0    0    0  0.00000000000E+00  0.00000000000E+00  0.64999999231E+04  0.65000000000E+04  0.10000000000E+01 0.  0.
    9000001   -1    0    0    0    0 -0.00000000000E+00 -0.00000000000E+00 -0.64999999231E+04  0.65000000000E+04  0.10000000000E+01 0.  0.
    9000001    1    1    2    0    0  0.19972232986E+04  0.39774575255E+04 -0.47371858449E+04  0.65000000000E+04  0.10000000000E+01 0.  0.
    9000001    1    1    2    0    0 -0.19972232986E+04 -0.39774575255E+04  0.47371858449E+04  0.65000000000E+04  0.10000000000E+01 0.  0.
</event>
<event>
 4    1  0.2201588E-006  0.1300000E+05  0.7957747E-01  0.1322471E+00
    9000001   -1    0    0    0    0  0.00000000000E+00  0.00000000000E+00  0.64999999231E+04  0.65000000000E+04  0.10000000000E+01 0.  0.
    9000001   -1    0    0    0    0 -0.00000000000E+00 -0.00000000000E+00 -0.64999999231E+04  0.65000000000E+04  0.10000000000E+01 0.  0.
    9000001    1    1    2    0    0 -0.12144761574E+04  0.60851331746E+04 -0.19355105038E+04  0.65000000000E+04  0.10000000000E+01 0.  0.
    9000001    1    1    2    0    0  0.12144761574E+04 -0.60851331746E+04  0.19355105038E+04  0.65000000000E+04  0.10000000000E+01 0.  0.
</event>
<event>
 4    1  0.2201588E-006  0.1300000E+05  0.7957747E-01  0.1322471E+00
    9000001   -1    0    0    0    0  0.00000000000E+00  0.00000000000E+00  0.64999999231E+04  0.65000000000E+04  0.10000000000E+01 0.  0.
    9000001   -1    0    0    0    0 -0.00000000000E+00 -0.00000000000E+00 -0.64999999231E+04  0.65000000000E+04  0.10000000000E+01 0.  0.
    9000001    1    1    2    0    0 -0.11846999079E+04 -0.45533411276E+04 -0.44848154593E+04  0.65000000000E+04  0.10000000000E+01 0.  0.
    9000001    1    1    2    0    0  0.11846999079E+04  0.45533411276E+04  0.44848154593E+04  0.65000000000E+04  0.10000000000E+01 0.  0.
</event>
<event>
 4    1  0.2201588E-006  0.1300000E+05  0.7957747E-01  0.1322471E+00
    9000001   -1    0    0    0    0  0.00000000000E+00  0.00000000000E+00  0.64999999231E+04  0.65000000000E+04  0.10000000000E+01 0.  0.
    9000001   -1    0    0    0    0 -0.00000000000E+00 -0.00000000000E+00 -0.64999999231E+04  0.65000000000E+04  0.10000000000E+01 0.  0.
    9000001    1    1    2    0    0  0.26561132672E+04  0.51118016698E+04 -0.30107382816E+04  0.65000000000E+04  0.10000000000E+01 0.  0.
    9000001    1    1    2    0    0 -0.26561132672E+04 -0.51118016698E+04  0.30107382816E+04  0.65000000000E+04  0.10000000000E+01 0.  0.
</event>
<event>
 4    1  0.2201588E-006  0.1300000E+05  0.7957747E-01  0.1322471E+00
    9000001   -1    0    0    0    0  0.00000000000E+00  0.00000000000E+00  0.64999999231E+04  0.65000000000E+04  0.10000000000E+01 0.  0.
    9000001   -1    0    0    0    0 -0.00000000000E+00 -0.00000000000E+00 -0.64999999231E+04  0.65000000000E+04  0.10000000000E+01 0.  0.
    9000001    1    1    2    0    0 -0.62255434981E+04  0.18405229582E+04 -0.32416414579E+03  0.65000000000E+04  0.10000000000E+01 0.  0.
    9000001    1    1    2    0    0  0.62255434981E+04 -0.18405229582E+04  0.32416414579E+03  0.65000000000E+04  0.10000000000E+01 0.  0.
</event>
<event>
 4    1  0.2201588E-006  0.1300000E+05  0.7957747E-01  0.1322471E+00
    9000001   -1    0    0    0    0  0.00000000000E+00  0.00000000000E+00  0.64999999231E+04  0.65000000000E+04  0.10000000000E+01 0.  0.
    9000001   -1    0    0    0    0 -0.00000000000E+00 -0.00000000000E+00 -0.64999999231E+04  0.65000000000E+04  0.10000000000E+01 0.  0.
    9000001    1    1    2    0    0 -0.60677684531E+04  0.10086832052E+04 -0.21011290278E+04  0.65000000000E+04  0.10000000000E+01 0.  0.
    9000001    1    1    2    0    0  0.60677684531E+04 -0.10086832052E+04  0.21011290278E+04  0.65000000000E+04  0.10000000000E+01 0.  0.
</event>
<event>
 4    1  0.2201588E-006  0.1300000E+05  0.7957747E-01  0.1322471E+00
    9000001   -1    0    0    0    0  0.00000000000E+00  0.00000000000E+00  0.64999999231E+04  0.65000000000E+04  0.10000000000E+01 0.  0.
    9000001   -1    0    0    0    0 -0.00000000000E+00 -0.00000000000E+00 -0.64999999231E+04  0.65000000000E+04  0.10000000000E+01 0.  0.
    9000001    1    1    2    0    0  0.93937276150E+02 -0.56833621400E+04  0.31528668817E+04  0.65000000000E+04  0.10000000000E+01 0.  0.
    9000001    1    1    2    0    0 -0.93937276150E+02  0.56833621400E+04 -0.31528668817E+04  0.65000000000E+04  0.10000000000E+01 0.  0.
</event>
<event>
 4    1  0.2201588E-006  0.1300000E+05  0.7957747E-01  0.1322471E+00
    9000001   -1    0    0    0    0  0.00000000000E+00  0.00000000000E+00  0.64999999231E+04  0.65000000000E+04  0.10000000000E+01 0.  0.
    9000001   -1    0    0    0    0 -0.00000000000E+00 -0.00000000000E+00 -0.64999999231E+04  0.65000000000E+04  0.10000000000E+01 0.  0.
    9000001    1    1    2    0    0 -0.24232716419E+04  0.13080519251E+04 -0.58878479694E+04  0.65000000000E+04  0.10000000000E+01 0.  0.
    9000001    1    1    2    0    0  0.24232716419E+04 -0.13080519251E+04  0.58878479694E+04  0.65000000000E+04  0.10000000000E+01 0.  0.
</event>
<event>
 4    1  0.2201588E-006  0.1300000E+05  0.7957747E-01  0.1322471E+00
    9000001   -1    0    0    0    0  0.00000000000E+00  0.00000000000E+00  0.64999999231E+04  0.65000000000E+04  0.10000000000E+01 0.  0.
    9000001   -1    0    0    0    0 -0.00000000000E+00 -0.00000000000E+00 -0.64999999231E+04  0.65000000000E+04  0.10000000000E+01 0.  0.
    9000001    1    1    2    0    0 -0.17014895073E+04  0.58768043409E+04  0.21950178121E+04  0.65000000000E+04  0.10000000000E+01 0.  0.
    9000001    1    1    2    0    0  0.17014895073E+04 -0.58768043409E+04 -0.21950178121E+04  0.65000000000E+04  0.10000000000E+01 0.  0.
</event>
<event>
 4    1  0.2201588E-006  0.1300000E+05  0.7957747E-01  0.1322471E+00
    9000001   -1    0    0    0    0  0.00000000000E+00  0.00000000000E+00  0.64999999231E+04  0.65000000000E+04  0.10000000000E+01 0.  0.
    9000001   -1    0    0    0    0 -0.00000000000E+00 -0.00000000000E+00 -0.64999999231E+04  0.65000000000E+04  0.10000000000E+01 0.  0.
    9000001    1    1    2    0    0  0.20091969328E+04  0.30141553100E+04  0.53970357097E+04  0.65000000000E+04  0.10000000000E+01 0.  0.
    9000001    1    1    2    0    0 -0.20091969328E+04 -0.30141553100E+04 -0.53970357097E+04  0.65000000000E+04  0.10000000000E+01 0.  0.
</event>
<event>
 4    1  0.2201588E-006  0.1300000E+05  0.7957747E-01  0.1322471E+00
    9000001   -1    0    0    0    0  0.00000000000E+00  0.00000000000E+00  0.64999999231E+04  0.65000000000E+04  0.10000000000E+01 0.  0.
    9000001   -1    0    0    0    0 -0.00000000000E+00 -0.00000000000E+00 -0.64999999231E+04  0.65000000000E+04  0.10000000000E+01 0.  0.
    9000001    1    1    2    0    0 -0.45578258420E+04 -0.17039934818E+04 -0.43095972907E+04  0.65000000000E+04  0.10000000000E+01 0.  0.
    9000001    1    1    2    0    0  0.45578258420E+04  0.17039934818E+04  0.43095972907E+04  0.65000000000E+04  0.10000000000E+01 0.  0.
</event>
<event>
 4    1  0.2201588E-006  0.1300000E+05  0.7957747E-01  0.1322471E+00
    9000001   -1    0    0    0    0  0.00000000000E+00  0.00000000000E+00  0.64999999231E+04  0.65000000000E+04  0.10000000000E+01 0.  0.
    9000001   -1    0    0    0    0 -0.00000000000E+00 -0.00000000000E+00 -0.64999999231E+04  0.65000000000E+04  0.10000000000E+01 0.  0.
    9000001    1    1    2    0    0  0.36931988230E+04  0.30880338901E+04  0.43674166446E+04  0.65000000000E+04  0.10000000000E+01 0.  0.
    9000001    1    1    2    0    0 -0.36931988230E+04 -0.30880338901E+04 -0.43674166446E+04  0.65000000000E+04  0.10000000000E+01 0.  0.
</event>
<event>
 4    1  0.2201588E-006  0.1300000E+05  0.7957747E-01  0.1322471E+00
    9000001   -1    0    0    0    0  0.00000000000E+00  0.00000000000E+00  0.64999999231E+04  0.65000000000E+04  0.10000000000E+01 0.  0.
    9000001   -1    0    0    0    0 -0.00000000000E+00 -0.00000000000E+00 -0.64999999231E+04  0.65000000000E+04  0.10000000000E+01 0.  0.
    9000001    1    1    2    0    0 -0.23972177407E+04 -0.25211420530E+04  0.54906455770E+04  0.65000000000E+04  0.10000000000E+01 0.  0.
    9000001    1    1    2    0    0  0.23972177407E+04  0.25211420530E+04 -0.54906455770E+04  0.65000000000E+04  0.10000000000E+01 0.  0.
</event>
<event>
 4    1  0.2201588E-006  0.1300000E+05  0.7957747E-01  0.1322471E+00
    9000001   -1    0    0    0    0  0.00000000000E+00  0.00000000000E+00  0.64999999231E+04  0.65000000000E+04  0.10000000000E+01 0.  0.
    9000001   -1    0    0    0    0 -0.00000000000E+00 -0.00000000000E+00 -0.64999999231E+04  0.65000000000E+04  0.10000000000E+01 0.  0.
    9000001    1    1    2    0    0 -0.48292814850E+04 -0.17885617988E+04 -0.39659911789E+04  0.65000000000E+04  0.10000000000E+01 0.  0.
    9000001    1    1    2    0    0  0.48292814850E+04  0.17885617988E+04  0.39659911789E+04  0.65000000000E+04  0.10000000000E+01 0.  0.
</event>
<event>
 4    1  0.2201588E-006  0.1300000E+05  0.7957747E-01  0.1322471E+00
    9000001   -1    0    0    0    0  0.00000000000E+00  0.00000000000E+00  0.64999999231E+04  0.65000000000E+04  0.10000000000E+01 0.  0.
    9000001   -1    0    0    0    0 -0.00000000000E+00 -0.00000000000E+00 -0.64999999231E+04  0.65000000000E+04  0.10000000000E+01 0.  0.
    9000001    1    1    2    0    0 -0.17139127595E+04  0.13086980780E+04 -0.61318685075E+04  0.65000000000E+04  0.10000000000E+01 0.  0.
    9000001    1    1    2    0    0  0.17139127595E+04 -0.13086980780E+04  0.61318685075E+04  0.65000000000E+04  0.10000000000E+01 0.  0.
</event>
<event>
 4    1  0.2201588E-006  0.1300000E+05  0.7957747E-01  0.1322471E+00
    9000001   -1    0    0    0    0  0.00000000000E+00  0.00000000000E+00  0.64999999231E+04  0.65000000000E+04  0.10000000000E+01 0.  0.
    9000001   -1    0    0    0    0 -0.00000000000E+00 -0.00000000000E+00 -0.64999999231E+04  0.65000000000E+04  0.10000000000E+01 0.  0.
    9000001    1    1    2    0    0  0.21060287494E+04 -0.53263939102E+04  0.30731368046E+04  0.65000000000E+04  0.10000000000E+01 0.  0.
    9000001    1    1    2    0    0 -0.21060287494E+04  0.53263939102E+04 -0.30731368046E+04  0.65000000000E+04  0.10000000000E+01 0.  0.
</event>
<event>
 4    1  0.2201588E-006  0.1300000E+05  0.7957747E-01  0.1322471E+00
    9000001   -1    0    0    0    0  0.00000000000E+00  0.00000000000E+00  0.64999999231E+04  0.65000000000E+04  0.10000000000E+01 0.  0.
    9000001   -1    0    0    0    0 -0.00000000000E+00 -0.00000000000E+00 -0.64999999231E+04  0.65000000000E+04  0.10000000000E+01 0.  0.
    9000001    1    1    2    0    0  0.31515759485E+02  0.64435262397E+04 -0.85438595193E+03  0.65000000000E+04  0.10000000000E+01 0.  0.
    9000001    1    1    2    0    0 -0.31515759485E+02 -0.64435262397E+04  0.85438595193E+03  0.65000000000E+04  0.10000000000E+01 0.  0.
</event>
<event>
 4    1  0.2201588E-006  0.1300000E+05  0.7957747E-01  0.1322471E+00
    9000001   -1    0    0    0    0  0.00000000000E+00  0.00000000000E+00  0.64999999231E+04  0.65000000000E+04  0.10000000000E+01 0.  0.
    9000001   -1    0    0    0    0 -0.00000000000E+00 -0.00000000000E+00 -0.64999999231E+04  0.65000000000E+04  0.10000000000E+01 0.  0.
    9000001    1    1    2    0    0 -0.16051184182E+04 -0.49912797296E+04  0.38419683139E+04  0.65000000000E+04  0.10000000000E+01 0.  0.
    9000001    1    1    2    0    0  0.16051184182E+04  0.49912797296E+04 -0.38419683139E+04  0.65000000000E+04  0.10000000000E+01 0.  0.
</event>
<event>
 4    1  0.2201588E-006  0.1300000E+05  0.7957747E-01  0.1322471E+00
    9000001   -1    0    0    0    0  0.00000000000E+00  0.00000000000E+00  0.64999999231E+04  0.65000000000E+04  0.10000000000E+01 0.  0.
    9000001   -1    0    0    0    0 -0.00000000000E+00 -0.00000000000E+00 -0.64999999231E+04  0.65000000000E+04  0.10000000000E+01 0.  0.
    9000001    1    1    2    0    0  0.13551332492E+04  0.39773053414E+04 -0.49592998596E+04  0.65000000000E+04  0.10000000000E+01 0.  0.
    9000001    1    1    2    0    0 -0.13551332492E+04 -0.39773053414E+04  0.49592998596E+04  0.65000000000E+04  0.10000000000E+01 0.  0.
</event>
<event>
 4    1  0.2201588E-006  0.1300000E+05  0.7957747E-01  0.1322471E+00
    9000001   -1    0    0    0    0  0.00000000000E+00  0.00000000000E+00  0.64999999231E+04  0.65000000000E+04  0.10000000000E+01 0.  0.
    9000001   -1    0    0    0    0 -0.00000000000E+00 -0.00000000000E+00 -0.64999999231E+04  0.65000000000E+04  0.10000000000E+01 0.  0.
    9000001    1    1    2    0    0 -0.60691765140E+04  0.21017732318E+03  0.23175247430E+04  0.65000000000E+04  0.10000000000E+01 0.  0.
    9000001    1    1    2    0    0  0.60691765140E+04 -0.21017732318E+03 -0.23175247430E+04  0.65000000000E+04  0.10000000000E+01 0.  0.
</event>
<event>
 4    1  0.2201588E-006  0.1300000E+05  0.7957747E-01  0.1322471E+00
    9000001   -1    0    0    0    0  0.00000000000E+00  0.00000000000E+00  0.64999999231E+04  0.65000000000E+04  0.10000000000E+01 0.  0.
    9000001   -1    0    0    0    0 -0.00000000000E+00 -0.00000000000E+00 -0.64999999231E+04  0.65000000000E+04  0.10000000000E+01 0.  0.
    9000001    1    1    2    0    0  0.62342785409E+04  0.15575098107E+04  0.97874065233E+03  0.65000000000E+04  0.10000000000E+01 0.  0.
    9000001    1    1    2    0    0 -0.62342785409E+04 -0.15575098107E+04 -0.97874065233E+03  0.65000000000E+04  0.10000000000E+01 0.  0.
</event>
<event>
 4    1  0.2201588E-006  0.1300000E+05  0.7957747E-01  0.1322471E+00
    9000001   -1    0    0    0    0  0.00000000000E+00  0.00000000000E+00  0.64999999231E+04  0.65000000000E+04  0.10000000000E+01 0.  0.
    9000001   -1    0    0    0    0 -0.00000000000E+00 -0.00000000000E+00 -0.64999999231E+04  0.65000000000E+04  0.10000000000E+01 0.  0.
    9000001    1    1    2    0    0 -0.62711070971E+04 -0.39452984867E+03 -0.16635988023E+04  0.65000000000E+04  0.10000000000E+01 0.  0.
    9000001    1    1    2    0    0  0.62711070971E+04  0.39452984867E+03  0.16635988023E+04  0.65000000000E+04  0.10000000000E+01 0.  0.
</event>
<event>
 4    1  0.2201588E-006  0.1300000E+05  0.7957747E-01  0.1322471E+00
    9000001   -1    0    0    0    0  0.00000000000E+00  0.00000000000E+00  0.64999999231E+04  0.65000000000E+04  0.10000000000E+01 0.  0.
    9000001   -1    0    0    0    0 -0.00000000000E+00 -0.00000000000E+00 -0.64999999231E+04  0.65000000000E+04  0.10000000000E+01 0.  0.
    9000001    1    1    2    0    0 -0.41686830329E+04 -0.15758557478E+03 -0.49847013509E+04  0.65000000000E+04  0.10000000000E+01 0.  0.
    9000001    1    1    2    0    0  0.41686830329E+04  0.15758557478E+03  0.49847013509E+04  0.65000000000E+04  0.10000000000E+01 0.  0.
</event>
<event>
 4    1  0.2201588E-006  0.1300000E+05  0.7957747E-01  0.1322471E+00
    9000001   -1    0    0    0    0  0.00000000000E+00  0.00000000000E+00  0.64999999231E+04  0.65000000000E+04  0.10000000000E+01 0.  0.
    9000001   -1    0    0    0    0 -0.00000000000E+00 -0.00000000000E+00 -0.64999999231E+04  0.65000000000E+04  0.10000000000E+01 0.  0.
    9000001    1    1    2    0    0  0.31454858429E+04 -0.56880808387E+04 -0.40671671487E+02  0.65000000000E+04  0.10000000000E+01 0.  0.
    9000001    1    1    2    0    0 -0.31454858429E+04  0.56880808387E+04  0.40671671487E+02  0.65000000000E+04  0.10000000000E+01 0.  0.
</event>
<event>
 4    1  0.2201588E-006  0.1300000E+05  0.7957747E-01  0.1322471E+00
    9000001   -1    0    0    0    0  0.00000000000E+00  0.00000000000E+00  0.64999999231E+04  0.65000000000E+04  0.10000000000E+01 0.  0.
    9000001   -1    0    0    0    0 -0.00000000000E+00 -0.00000000000E+00 -0.64999999231E+04  0.65000000000E+04  0.10000000000E+01 0.  0.
    9000001    1    1    2    0    0 -0.44477332254E+04 -0.41784643457E+04 -0.22378793236E+04  0.65000000000E+04  0.10000000000E+01 0.  0.
    9000001    1    1    2    0    0  0.44477332254E+04  0.41784643457E+04  0.22378793236E+04  0.65000000000E+04  0.10000000000E+01 0.  0.
</event>
<event>
 4    1  0.2201588E-006  0.1300000E+05  0.7957747E-01  0.1322471E+00
    9000001   -1    0    0    0    0  0.00000000000E+00  0.00000000000E+00  0.64999999231E+04  0.65000000000E+04  0.10000000000E+01 0.  0.
    9000001   -1    0    0    0    0 -0.00000000000E+00 -0.00000000000E+00 -0.64999999231E+04  0.65000000000E+04  0.10000000000E+01 0.  0.
    9000001    1    1    2    0    0  0.29622155844E+04 -0.41440983937E+04  0.40375396388E+04  0.65000000000E+04  0.10000000000E+01 0.  0.
    9000001    1    1    2    0    0 -0.29622155844E+04  0.41440983937E+04 -0.40375396388E+04  0.65000000000E+04  0.10000000000E+01 0.  0.
</event>
<event>
 4    1  0.2201588E-006  0.1300000E+05  0.7957747E-01  0.1322471E+00
    9000001   -1    0    0    0    0  0.00000000000E+00  0.00000000000E+00  0.64999999231E+04  0.65000000000E+04  0.10000000000E+01 0.  0.
    9000001   -1    0    0    0    0 -0.00000000000E+00 -0.00000000000E+00 -0.64999999231E+04  0.65000000000E+04  0.10000000000E+01 0.  0.
    9000001    1    1    2    0    0 -0.27164313997E+04 -0.58617653647E+04  0.71463715320E+03  0.65000000000E+04  0.10000000000E+01 0.  0.
    9000001    1    1    2    0    0  0.27164313997E+04  0.58617653647E+04 -0.71463715320E+03  0.65000000000E+04  0.10000000000E+01 0.  0.
</event>
<event>
 4    1  0.2201588E-006  0.1300000E+05  0.7957747E-01  0.1322471E+00
    9000001   -1    0    0    0    0  0.00000000000E+00  0.00000000000E+00  0.64999999231E+04  0.65000000000E+04  0.10000000000E+01 0.  0.
    9000001   -1    0    0    0    0 -0.00000000000E+00 -0.00000000000E+00 -0.64999999231E+04  0.65000000000E+04  0.10000000000E+01 0.  0.
    9000001    1    1    2    0    0 -0.15649897671E+04 -0.32390605432E+03  0.63004675142E+04  0.65000000000E+04  0.10000000000E+01 0.  0.
    9000001    1    1    2    0    0  0.15649897671E+04  0.32390605432E+03 -0.63004675142E+04  0.65000000000E+04  0.10000000000E+01 0.  0.
</event>
<event>
 4    1  0.2201588E-006  0.1300000E+05  0.7957747E-01  0.1322471E+00
    9000001   -1    0    0    0    0  0.00000000000E+00  0.00000000000E+00  0.64999999231E+04  0.65000000000E+04  0.10000000000E+01 0.  0.
    9000001   -1    0    0    0    0 -0.00000000000E+00 -0.00000000000E+00 -0.64999999231E+04  0.65000000000E+04  0.10000000000E+01 0.  0.
    9000001    1    1    2    0    0 -0.58486348627E+04  0.64238525236E+03  0.27623921573E+04  0.65000000000E+04  0.10000000000E+01 0.  0.
    9000001    1    1    2    0    0  0.58486348627E+04 -0.64238525236E+03 -0.27623921573E+04  0.65000000000E+04  0.10000000000E+01 0.  0.
</event>
<event>
 4    1  0.2201588E-006  0.1300000E+05  0.7957747E-01  0.1322471E+00
    9000001   -1    0    0    0    0  0.00000000000E+00  0.00000000000E+00  0.64999999231E+04  0.65000000000E+04  0.10000000000E+01 0.  0.
    9000001   -1    0    0    0    0 -0.00000000000E+00 -0.00000000000E+00 -0.64999999231E+04  0.65000000000E+04  0.10000000000E+01 0.  0.
    9000001    1    1    2    0    0  0.19622326896E+04 -0.55606269904E+04  0.27347887205E+04  0.65000000000E+04  0.10000000000E+01 0.  0.
    9000001    1    1    2    0    0 -0.19622326896E+04  0.55606269904E+04 -0.27347887205E+04  0.65000000000E+04  0.10000000000E+01 0.  0.
</event>
<event>
 4    1  0.2201588E-006  0.1300000E+05  0.7957747E-01  0.1322471E+00
    9000001   -1    0    0    0    0  0.00000000000E+00  0.00000000000E+00  0.64999999231E+04  0.65000000000E+04  0.10000000000E+01 0.  0.
    9000001   -1    0    0    0    0 -0.00000000000E+00 -0.00000000000E+00 -0.64999999231E+04  0.65000000000E+04  0.10000000000E+01 0.  0.
    9000001    1    1    2    0    0 -0.41047527268E+04  0.18035741517E+04 -0.47061793773E+04  0.65000000000E+04  0.10000000000E+01 0.  0.
    9000001    1    1    2    0    0  0.41047527268E+04 -0.18035741517E+04  0.47061793773E+04  0.65000000000E+04  0.10000000000E+01 0.  0.
</event>
<event>
 4    1  0.2201588E-006  0.1300000E+05  0.7957747E-01  0.1322471E+00
    9000001   -1    0    0    0    0  0.00000000000E+00  0.00000000000E+00  0.64999999231E+04  0.65000000000E+04  0.10000000000E+01 0.  0.
    9000001   -1    0    0    0    0 -0.00000000000E+00 -0.00000000000E+00 -0.64999999231E+04  0.65000000000E+04  0.10000000000E+01 0.  0.
    9000001    1    1    2    0    0  0.22212132673E+04  0.26424420238E+04  0.55076048126E+04  0.65000000000E+04  0.10000000000E+01 0.  0.
    9000001    1    1    2    0    0 -0.22212132673E+04 -0.26424420238E+04 -0.55076048126E+04  0.65000000000E+04  0.10000000000E+01 0.  0.
</event>
<event>
 4    1  0.2201588E-006  0.1300000E+05  0.7957747E-01  0.1322471E+00
    9000001   -1    0    0    0    0  0.00000000000E+00  0.00000000000E+00  0.64999999231E+04  0.65000000000E+04  0.10000000000E+01 0.  0.
    9000001   -1    0    0    0    0 -0.00000000000E+00 -0.00000000000E+00 -0.64999999231E+04  0.65000000000E+04  0.10000000000E+01 0.  0.
    9000001    1    1    2    0    0 -0.63950173770E+04 -0.32913647607E+03 -0.11159842869E+04  0.65000000000E+04  0.10000000000E+01 0.  0.
    9000001    1    1    2    0    0  0.63950173770E+04  0.32913647607E+03  0.11159842869E+04  0.65000000000E+04  0.10000000000E+01 0.  0.
</event>
<event>
 4    1  0.2201588E-006  0.1300000E+05  0.7957747E-01  0.1322471E+00
    9000001   -1    0    0    0    0  0.00000000000E+00  0.00000000000E+00  0.64999999231E+04  0.65000000000E+04  0.10000000000E+01 0.  0.
    9000001   -1    0    0    0    0 -0.00000000000E+00 -0.00000000000E+00 -0.64999999231E+04  0.65000000000E+04  0.10000000000E+01 0.  0.
    9000001    1    1    2    0    0 -0.60451927951E+04 -0.17790906633E+04 -0.15938881647E+04  0.65000000000E+04  0.10000000000E+01 0.  0.
    9000001    1    1    2    0    0  0.60451927951E+04  0.17790906633E+04  0.15938881647E+04  0.65000000000E+04  0.10000000000E+01 0.  0.
</event>
<event>
 4    1  0.2201588E-006  0.1300000E+05  0.7957747E-01  0.1322471E+00
    9000001   -1    0    0    0    0  0.00000000000E+00  0.00000000000E+00  0.64999999231E+04  0.65000000000E+04  0.10000000000E+01 0.  0.
    9000001   -1    0    0    0    0 -0.00000000000E+00 -0.00000000000E+00 -0.64999999231E+04  0.65000000000E+04  0.10000000000E+01 0.  0.
    9000001    1    1    2    0    0  0.81981486364E+03  0.16922125941E+04  0.62220831822E+04  0.65000000000E+04  0.10000000000E+01 0.  0.
    9000001    1    1    2    0    0 -0.81981486364E+03 -0.16922125941E+04 -0.62220831822E+04  0.65000000000E+04  0.10000000000E+01 0.  0.
</event>
<event>
 4    1  0.2201588E-006  0.1300000E+05  0.7957747E-01  0.1322471E+00
    9000001   -1    0    0    0    0  0.00000000000E+00  0.00000000000E+00  0.64999999231E+04  0.65000000000E+04  0.10000000000E+01 0.  0.
    9000001   -1    0    0    0    0 -0.00000000000E+00 -0.00000000000E+00 -0.64999999231E+04  0.65000000000E+04  0.10000000000E+01 0.  0.
    9000001    1    1    2    0    0 -0.63511130749E+04  0.11296454443E+04  0.79828746718E+03  0.65000000000E+04  0.10000000000E+01 0.  0.
    9000001    1    1    2    0    0  0.63511130749E+04 -0.11296454443E+04 -0.79828746718E+03  0.65000000000E+04  0.10000000000E+01 0.  0.
</event>
<event>
 4    1  0.2201588E-006  0.1300000E+05  0.7957747E-01  0.1322471E+00
    9000001   -1    0    0    0    0  0.00000000000E+00  0.00000000000E+00  0.64999999231E+04  0.65000000000E+04  0.10000000000E+01 0.  0.
    9000001   -1    0    0    0    0 -0.00000000000E+00 -0.00000000000E+00 -0.64999999231E+04  0.65000000000E+04  0.10000000000E+01 0.  0.
    9000001    1    1    2    0    0  0.12809055182E+04 -0.13456701479E+04 -0.62288403340E+04  0.65000000000E+04  0.10000000000E+01 0.  0.
    9000001    1    1    2    0    0 -0.12809055182E+04  0.13456701479E+04  0.62288403340E+04  0.65000000000E+04  0.10000000000E+01 0.  0.
</event>
<event>
 4    1  0.2201588E-006  0.1300000E+05  0.7957747E-01  0.1322471E+00
    9000001   -1    0    0    0    0  0.00000000000E+00  0.00000000000E+00  0.64999999231E+04  0.65000000000E+04  0.10000000000E+01 0.  0.
    9000001   -1    0    0    0    0 -0.00000000000E+00 -0.00000000000E+00 -0.64999999231E+04  0.65000000000E+04  0.10000000000E+01 0.  0.
    9000001    1    1    2    0    0  0.42044264318E+04  0.46743771797E+04 -0.16501501029E+04  0.65000000000E+04  0.10000000000E+01 0.  0.
    9000001    1    1    2    0    0 -0.42044264318E+04 -0.46743771797E+04  0.16501501029E+04  0.65000000000E+04  0.10000000000E+01 0.  0.
</event>
<event>
 4    1  0.2201588E-006  0.1300000E+05  0.7957747E-01  0.1322471E+00
    9000001   -1    0    0    0    0  0.00000000000E+00  0.00000000000E+00  0.64999999231E+04  0.65000000000E+04  0.10000000000E+01 0.  0.
    9000001   -1    0    0    0    0 -0.00000000000E+00 -0.00000000000E+00 -0.64999999231E+04  0.65000000000E+04  0.10000000000E+01 0.  0.
    9000001    1    1    2    0    0  0.47710428256E+03  0.61905449385E+04  0.19234146374E+04  0.65000000000E+04  0.10000000000E+01 0.  0.
    9000001    1    1    2    0    0 -0.47710428256E+03 -0.61905449385E+04 -0.19234146374E+04  0.65000000000E+04  0.10000000000E+01 0.  0.
</event>
<event>
 4    1  0.2201588E-006  0.1300000E+05  0.7957747E-01  0.1322471E+00
    9000001   -1    0    0    0    0  0.00000000000E+00  0.00000000000E+00  0.64999999231E+04  0.65000000000E+04  0.10000000000E+01 0.  0.
    9000001   -1    0    0    0    0 -0.00000000000E+00 -0.00000000000E+00 -0.64999999231E+04  0.65000000000E+04  0.10000000000E+01 0.  0.
    9000001    1    1    2    0    0  0.69809175541E+03  0.64565217112E+04  0.27567062620E+03  0.65000000000E+04  0.10000000000E+01 0.  0.
    9000001    1    1    2    0    0 -0.69809175541E+03 -0.64565217112E+04 -0.27567062620E+03  0.65000000000E+04  0.10000000000E+01 0.  0.
</event>
<event>
 4    1  0.2201588E-006  0.1300000E+05  0.7957747E-01  0.1322471E+00
    9000001   -1    0    0    0    0  0.00000000000E+00  0.00000000000E+00  0.64999999231E+04  0.65000000000E+04  0.10000000000E+01 0.  0.
    9000001   -1    0    0    0    0 -0.00000000000E+00 -0.00000000000E+00 -0.64999999231E+04  0.65000000000E+04  0.10000000000E+01 0.  0.
    9000001    1    1    2    0    0  0.38292414628E+04 -0.37868121902E+04 -0.36396376545E+04  0.65000000000E+04  0.10000000000E+01 0.  0.
    9000001    1    1    2    0    0 -0.38292414628E+04  0.37868121902E+04  0.36396376545E+04  0.65000000000E+04  0.10000000000E+01 0.  0.
</event>
<event>
 4    1  0.2201588E-006  0.1300000E+05  0.7957747E-01  0.1322471E+00
    9000001   -1    0    0    0    0  0.00000000000E+00  0.00000000000E+00  0.64999999231E+04  0.65000000000E+04  0.10000000000E+01 0.  0.
    9000001   -1    0    0    0    0 -0.00000000000E+00 -0.00000000000E+00 -0.64999999231E+04  0.65000000000E+04  0.10000000000E+01 0.  0.
    9000001    1    1    2    0    0 -0.50702641710E+04 -0.23783862622E+04 -0.32993482727E+04  0.65000000000E+04  0.10000000000E+01 0.  0.
    9000001    1    1    2    0    0  0.50702641710E+04  0.23783862622E+04  0.32993482727E+04  0.65000000000E+04  0.10000000000E+01 0.  0.
</event>
<event>
 4    1  0.2201588E-006  0.1300000E+05  0.7957747E-01  0.1322471E+00
    9000001   -1    0    0    0    0  0.00000000000E+00  0.00000000000E+00  0.64999999231E+04  0.65000000000E+04  0.10000000000E+01 0.  0.
    9000001   -1    0    0    0    0 -0.00000000000E+00 -0.00000000000E+00 -0.64999999231E+04  0.65000000000E+04  0.10000000000E+01 0.  0.
    9000001    1    1    2    0    0  0.35930368600E+04  0.12724306180E+04 -0.52650741158E+04  0.65000000000E+04  0.10000000000E+01 0.  0.
    9000001    1    1    2    0    0 -0.35930368600E+04 -0.12724306180E+04  0.52650741158E+04  0.65000000000E+04  0.10000000000E+01 0.  0.
</event>
<event>
 4    1  0.2201588E-006  0.1300000E+05  0.7957747E-01  0.1322471E+00
    9000001   -1    0    0    0    0  0.00000000000E+00  0.00000000000E+00  0.64999999231E+04  0.65000000000E+04  0.10000000000E+01 0.  0.
    9000001   -1    0    0    0    0 -0.00000000000E+00 -0.00000000000E+00 -0.64999999231E+04  0.65000000000E+04  0.10000000000E+01 0.  0.
    9000001    1    1    2    0    0  0.59287666740E+04 -0.15425559249E+04 -0.21726126999E+04  0.65000000000E+04  0.10000000000E+01 0.  0.
    9000001    1    1    2    0    0 -0.59287666740E+04  0.15425559249E+04  0.21726126999E+04  0.65000000000E+04  0.10000000000E+01 0.  0.
</event>
<event>
 4    1  0.2201588E-006  0.1300000E+05  0.7957747E-01  0.1322471E+00
    9000001   -1    0    0    0    0  0.00000000000E+00  0.00000000000E+00  0.64999999231E+04  0.65000000000E+04  0.10000000000E+01 0.  0.
    9000001   -1    0    0    0    0 -0.00000000000E+00 -0.00000000000E+00 -0.64999999231E+04  0.65000000000E+04  0.10000000000E+01 0.  0.
    9000001    1    1    2    0    0  0.69145887252E+03  0.25860892404E+04 -0.59231770249E+04  0.65000000000E+04  0.10000000000E+01 0.  0.
    9000001    1    1    2    0    0 -0.69145887252E+03 -0.25860892404E+04  0.59231770249E+04  0.65000000000E+04  0.10000000000E+01 0.  0.
</event>
<event>
 4    1  0.2201588E-006  0.1300000E+05  0.7957747E-01  0.1322471E+00
    9000001   -1    0    0    0    0  0.00000000000E+00  0.00000000000E+00  0.64999999231E+04  0.65000000000E+04  0.10000000000E+01 0.  0.
    9000001   -1    0    0    0    0 -0.00000000000E+00 -0.00000000000E+00 -0.64999999231E+04  0.65000000000E+04  0.10000000000E+01 0.  0.
    9000001    1    1    2    0    0 -0.58894891607E+04 -0.22776823174E+04  0.15414537577E+04  0.65000000000E+04  0.10000000000E+01 0.  0.
    9000001    1    1    2    0    0  0.58894891607E+04  0.22776823174E+04 -0.15414537577E+04  0.65000000000E+04  0.10000000000E+01 0.  0.
</event>
<event>
 4    1  0.2201588E-006  0.1300000E+05  0.7957747E-01  0.1322471E+00
    9000001   -1    0    0    0    0  0.00000000000E+00  0.00000000000E+00  0.64999999231E+04  0.65000000000E+04  0.10000000000E+01 0.  0.
    9000001   -1    0    0    0    0 -0.00000000000E+00 -0.00000000000E+00 -0.64999999231E+04  0.65000000000E+04  0.10000000000E+01 0.  0.
    9000001    1    1    2    0    0  0.40757188887E+04  0.36469140376E+04 -0.35126247369E+04  0.65000000000E+04  0.10000000000E+01 0.  0.
    9000001    1    1    2    0    0 -0.40757188887E+04 -0.36469140376E+04  0.35126247369E+04  0.65000000000E+04  0.10000000000E+01 0.  0.
</event>
<event>
 4    1  0.2201588E-006  0.1300000E+05  0.7957747E-01  0.1322471E+00
    9000001   -1    0    0    0    0  0.00000000000E+00  0.00000000000E+00  0.64999999231E+04  0.65000000000E+04  0.10000000000E+01 0.  0.
    9000001   -1    0    0    0    0 -0.00000000000E+00 -0.00000000000E+00 -0.64999999231E+04  0.65000000000E+04  0.10000000000E+01 0.  0.
    9000001    1    1    2    0    0  0.61325263357E+04 -0.65666444880E+03 -0.20520505703E+04  0.65000000000E+04  0.10000000000E+01 0.  0.
    9000001    1    1    2    0    0 -0.61325263357E+04  0.65666444880E+03  0.20520505703E+04  0.65000000000E+04  0.10000000000E+01 0.  0.
</event>
<event>
 4    1  0.2201588E-006  0.1300000E+05  0.7957747E-01  0.1322471E+00
    9000001   -1    0    0    0    0  0.00000000000E+00  0.00000000000E+00  0.64999999231E+04  0.65000000000E+04  0.10000000000E+01 0.  0.
    9000001   -1    0    0    0    0 -0.00000000000E+00 -0.00000000000E+00 -0.64999999231E+04  0.65000000000E+04  0.10000000000E+01 0.  0.
    9000001    1    1    2    0    0  0.40294555035E+04  0.95734137461E+02  0.50994433344E+04  0.65000000000E+04  0.10000000000E+01 0.  0.
    9000001    1    1    2    0    0 -0.40294555035E+04 -0.95734137461E+02 -0.50994433344E+04  0.65000000000E+04  0.10000000000E+01 0.  0.
</event>
<event>
 4    1  0.2201588E-006  0.1300000E+05  0.7957747E-01  0.1322471E+00
    9000001   -1    0    0    0    0  0.00000000000E+00  0.00000000000E+00  0.64999999231E+04  0.65000000000E+04  0.10000000000E+01 0.  0.
    9000001   -1    0    0    0    0 -0.00000000000E+00 -0.00000000000E+00 -0.64999999231E+04  0.65000000000E+04  0.10000000000E+01 0.  0.
    9000001    1    1    2    0    0  0.47712425573E+04  0.40399641699E+04 -0.17787447724E+04  0.65000000000E+04  0.10000000000E+01 0.  0.
    9000001    1    1    2    0    0 -0.47712425573E+04 -0.40399641699E+04  0.17787447724E+04  0.65000000000E+04  0.10000000000E+01 0.  0.
</event>
<event>
 4    1  0.2201588E-006  0.1300000E+05  0.7957747E-01  0.1322471E+00
    9000001   -1    0    0    0    0  0.00000000000E+00  0.00000000000E+00  0.64999999231E+04  0.65000000000E+04  0.10000000000E+01 0.  0.
    9000001   -1    0    0    0    0 -0.00000000000E+00 -0.00000000000E+00 -0.64999999231E+04  0.65000000000E+04  0.10000000000E+01 0.  0.
    9000001    1    1    2    0    0 -0.31710439079E+04 -0.53951409669E+03 -0.56483098422E+04  0.65000000000E+04  0.10000000000E+01 0.  0.
    9000001    1    1    2    0    0  0.31710439079E+04  0.53951409669E+03  0.56483098422E+04  0.65000000000E+04  0.10000000000E+01 0.  0.
</event>
<event>
 4    1  0.2201588E-006  0.1300000E+05  0.7957747E-01  0.1322471E+00
    9000001   -1    0    0    0    0  0.00000000000E+00  0.00000000000E+00  0.64999999231E+04  0.65000000000E+04  0.10000000000E+01 0.  0.
    9000001   -1    0    0    0    0 -0.00000000000E+00 -0.00000000000E+00 -0.64999999231E+04  0.65000000000E+04  0.10000000000E+01 0.  0.
    9000001    1    1    2    0    0 -0.18651982516E+04 -0.56829346725E+04  0.25446587177E+04  0.65000000000E+04  0.10000000000E+01 0.  0.
    9000001    1    1    2    0    0  0.18651982516E+04  0.56829346725E+04 -0.25446587177E+04  0.65000000000E+04  0.10000000000E+01 0.  0.
</event>
<event>
 4    1  0.2201588E-006  0.1300000E+05  0.7957747E-01  0.1322471E+00
    9000001   -1    0    0    0    0  0.00000000000E+00  0.00000000000E+00  0.64999999231E+04  0.65000000000E+04  0.10000000000E+01 0.  0.
    9000001   -1    0    0    0    0 -0.00000000000E+00 -0.00000000000E+00 -0.64999999231E+04  0.65000000000E+04  0.10000000000E+01 0.  0.
    9000001    1    1    2    0    0 -0.40627118734E+04  0.32538307370E+04 -0.38931936465E+04  0.65000000000E+04  0.10000000000E+01 0.  0.
    9000001    1    1    2    0    0  0.40627118734E+04 -0.32538307370E+04  0.38931936465E+04  0.65000000000E+04  0.10000000000E+01 0.  0.
</event>
<event>
 4    1  0.2201588E-006  0.1300000E+05  0.7957747E-01  0.1322471E+00
    9000001   -1    0    0    0    0  0.00000000000E+00  0.00000000000E+00  0.64999999231E+04  0.65000000000E+04  0.10000000000E+01 0.  0.
    9000001   -1    0    0    0    0 -0.00000000000E+00 -0.00000000000E+00 -0.64999999231E+04  0.65000000000E+04  0.10000000000E+01 0.  0.
    9000001    1    1    2    0    0 -0.43095116131E+03 -0.15383944251E+04 -0.63006049463E+04  0.65000000000E+04  0.10000000000E+01 0.  0.
    9000001    1    1    2    0    0  0.43095116131E+03  0.15383944251E+04  0.63006049463E+04  0.65000000000E+04  0.10000000000E+01 0.  0.
</event>
<event>
 4    1  0.2201588E-006  0.1300000E+05  0.7957747E-01  0.1322471E+00
    9000001   -1    0    0    0    0  0.00000000000E+00  0.00000000000E+00  0.64999999231E+04  0.65000000000E+04  0.10000000000E+01 0.  0.
    9000001   -1    0    0    0    0 -0.00000000000E+00 -0.00000000000E+00 -0.64999999231E+04  0.65000000000E+04  0.10000000000E+01 0.  0.
    9000001    1    1    2    0    0  0.55350745793E+04 -0.25921759574E+04  0.22121419953E+04  0.65000000000E+04  0.10000000000E+01 0.  0.
    9000001    1    1    2    0    0 -0.55350745793E+04  0.25921759574E+04 -0.22121419953E+04  0.65000000000E+04  0.10000000000E+01 0.  0.
</event>
<event>
 4    1  0.2201588E-006  0.1300000E+05  0.7957747E-01  0.1322471E+00
    9000001   -1    0    0    0    0  0.00000000000E+00  0.00000000000E+00  0.64999999231E+04  0.65000000000E+04  0.10000000000E+01 0.  0.
    9000001   -1    0    0    0    0 -0.00000000000E+00 -0.00000000000E+00 -0.64999999231E+04  0.65000000000E+04  0.10000000000E+01 0.  0.
    9000001    1    1    2    0    0 -0.76637599067E+03 -0.63748188302E+04 -0.10121026245E+04  0.65000000000E+04  0.10000000000E+01 0.  0.
    9000001    1    1    2    0    0  0.76637599067E+03  0.63748188302E+04  0.10121026245E+04  0.65000000000E+04  0.10000000000E+01 0.  0.
</event>
<event>
 4    1  0.2201588E-006  0.1300000E+05  0.7957747E-01  0.1322471E+00
    9000001   -1    0    0    0    0  0.00000000000E+00  0.00000000000E+00  0.64999999231E+04  0.65000000000E+04  0.10000000000E+01 0.  0.
    9000001   -1    0    0    0    0 -0.00000000000E+00 -0.00000000000E+00 -0.64999999231E+04  0.65000000000E+04  0.10000000000E+01 0.  0.
    9000001    1    1    2    0    0 -0.22720140645E+04  0.20276122652E+04 -0.57425377311E+04  0.65000000000E+04  0.10000000000E+01 0.  0.
    9000001    1    1    2    0    0  0.22720140645E+04 -0.20276122652E+04  0.57425377311E+04  0.65000000000E+04  0.10000000000E+01 0.  0.
</event>
<event>
 4    1  0.2201588E-006  0.1300000E+05  0.7957747E-01  0.1322471E+00
    9000001   -1    0    0    0    0  0.00000000000E+00  0.00000000000E+00  0.64999999231E+04  0.65000000000E+04  0.10000000000E+01 0.  0.
    9000001   -1    0    0    0    0 -0.00000000000E+00 -0.00000000000E+00 -0.64999999231E+04  0.65000000000E+04  0.10000000000E+01 0.  0.
    9000001    1    1    2    0    0  0.77040877728E+03 -0.32412876460E+04  0.55812654221E+04  0.65000000000E+04  0.10000000000E+01 0.  0.
    9000001    1    1    2    0    0 -0.77040877728E+03  0.32412876460E+04 -0.55812654221E+04  0.65000000000E+04  0.10000000000E+01 0.  0.
</event>
<event>
 4    1  0.2201588E-006  0.1300000E+05  0.7957747E-01  0.1322471E+00
    9000001   -1    0    0    0    0  0.00000000000E+00  0.00000000000E+00  0.64999999231E+04  0.65000000000E+04  0.10000000000E+01 0.  0.
    9000001   -1    0    0    0    0 -0.00000000000E+00 -0.00000000000E+00 -0.64999999231E+04  0.65000000000E+04  0.10000000000E+01 0.  0.
    9000001    1    1    2    0    0 -0.45061121632E+04  0.39531225951E+04 -0.25135182356E+04  0.65000000000E+04  0.10000000000E+01 0.  0.
    9000001    1    1    2    0    0  0.45061121632E+04 -0.39531225951E+04  0.25135182356E+04  0.65000000000E+04  0.10000000000E+01 0.  0.
</event>
<event>
 4    1  0.2201588E-006  0.1300000E+05  0.7957747E-01  0.1322471E+00
    9000001   -1    0    0    0    0  0.00000000000E+00  0.00000000000E+00  0.64999999231E+04  0.65000000000E+04  0.10000000000E+01 0.  0.
    9000001   -1    0    0    0    0 -0.00000000000E+00 -0.00000000000E+00 -0.64999999231E+04  0.65000000000E+04  0.10000000000E+01 0.  0.
    9000001    1    1    2    0    0  0.43509231583E+04  0.13491553173E+04  0.46367280059E+04  0.65000000000E+04  0.10000000000E+01 0.  0.
    9000001    1    1    2    0    0 -0.43509231583E+04 -0.13491553173E+04 -0.46367280059E+04  0.65000000000E+04  0.10000000000E+01 0.  0.
</event>
<event>
 4    1  0.2201588E-006  0.1300000E+05  0.7957747E-01  0.1322471E+00
    9000001   -1    0    0    0    0  0.00000000000E+00  0.00000000000E+00  0.64999999231E+04  0.65000000000E+04  0.10000000000E+01 0.  0.
    9000001   -1    0    0    0    0 -0.00000000000E+00 -0.00000000000E+00 -0.64999999231E+04  0.65000000000E+04  0.10000000000E+01 0.  0.
    9000001    1    1    2    0    0 -0.13234985243E+04 -0.11943195598E+04 -0.62507560699E+04  0.65000000000E+04  0.10000000000E+01 0.  0.
    9000001    1    1    2    0    0  0.13234985243E+04  0.11943195598E+04  0.62507560699E+04  0.65000000000E+04  0.10000000000E+01 0.  0.
</event>
<event>
 4    1  0.2201588E-006  0.1300000E+05  0.7957747E-01  0.1322471E+00
    9000001   -1    0    0    0    0  0.00000000000E+00  0.00000000000E+00  0.64999999231E+04  0.65000000000E+04  0.10000000000E+01 0.  0.
    9000001   -1    0    0    0    0 -0.00000000000E+00 -0.00000000000E+00 -0.64999999231E+04  0.65000000000E+04  0.10000000000E+01 0.  0.
    9000001    1    1    2    0    0  0.28168432433E+04  0.66702307479E+03  0.58198344788E+04  0.65000000000E+04  0.10000000000E+01 0.  0.
    9000001    1    1    2    0    0 -0.28168432433E+04 -0.66702307479E+03 -0.58198344788E+04  0.65000000000E+04  0.10000000000E+01 0.  0.
</event>
<event>
 4    1  0.2201588E-006  0.1300000E+05  0.7957747E-01  0.1322471E+00
    9000001   -1    0    0    0    0  0.00000000000E+00  0.00000000000E+00  0.64999999231E+04  0.65000000000E+04  0.10000000000E+01 0.  0.
    9000001   -1    0    0    0    0 -0.00000000000E+00 -0.00000000000E+00 -0.64999999231E+04  0.65000000000E+04  0.10000000000E+01 0.  0.
    9000001    1    1    2    0    0 -0.46789437661E+04 -0.45118677744E+04  0.23095882223E+02  0.65000000000E+04  0.10000000000E+01 0.  0.
    9000001    1    1    2    0    0  0.46789437661E+04  0.45118677744E+04 -0.23095882223E+02  0.65000000000E+04  0.10000000000E+01 0.  0.
</event>
<event>
 4    1  0.2201588E-006  0.1300000E+05  0.7957747E-01  0.1322471E+00
    9000001   -1    0    0    0    0  0.00000000000E+00  0.00000000000E+00  0.64999999231E+04  0.65000000000E+04  0.10000000000E+01 0.  0.
    9000001   -1    0    0    0    0 -0.00000000000E+00 -0.00000000000E+00 -0.64999999231E+04  0.65000000000E+04  0.10000000000E+01 0.  0.
    9000001    1    1    2    0    0  0.63998379419E+04  0.77859164741E+03 -0.82817169941E+03  0.65000000000E+04  0.10000000000E+01 0.  0.
    9000001    1    1    2    0    0 -0.63998379419E+04 -0.77859164741E+03  0.82817169941E+03  0.65000000000E+04  0.10000000000E+01 0.  0.
</event>
<event>
 4    1  0.2201588E-006  0.1300000E+05  0.7957747E-01  0.1322471E+00
    9000001   -1    0    0    0    0  0.00000000000E+00  0.00000000000E+00  0.64999999231E+04  0.65000000000E+04  0.10000000000E+01 0.  0.
    9000001   -1    0    0    0    0 -0.00000000000E+00 -0.00000000000E+00 -0.64999999231E+04  0.65000000000E+04  0.10000000000E+01 0.  0.
    9000001    1    1    2    0    0 -0.49999922666E+04  0.19820096098E+04 -0.36498923601E+04  0.65000000000E+04  0.10000000000E+01 0.  0.
    9000001    1    1    2    0    0  0.49999922666E+04 -0.19820096098E+04  0.36498923601E+04  0.65000000000E+04  0.10000000000E+01 0.  0.
</event>
<event>
 4    1  0.2201588E-006  0.1300000E+05  0.7957747E-01  0.1322471E+00
    9000001   -1    0    0    0    0  0.00000000000E+00  0.00000000000E+00  0.64999999231E+04  0.65000000000E+04  0.10000000000E+01 0.  0.
    9000001   -1    0    0    0    0 -0.00000000000E+00 -0.00000000000E+00 -0.64999999231E+04  0.65000000000E+04  0.10000000000E+01 0.  0.
    9000001    1    1    2    0    0  0.46191290275E+04 -0.23795171401E+04  0.39053225484E+04  0.65000000000E+04  0.10000000000E+01 0.  0.
    9000001    1    1    2    0    0 -0.46191290275E+04  0.23795171401E+04 -0.39053225484E+04  0.65000000000E+04  0.10000000000E+01 0.  0.
</event>
<event>
 4    1  0.2201588E-006  0.1300000E+05  0.7957747E-01  0.1322471E+00
    9000001   -1    0    0    0    0  0.00000000000E+00  0.00000000000E+00  0.64999999231E+04  0.65000000000E+04  0.10000000000E+01 0.  0.
    9000001   -1    0    0    0    0 -0.00000000000E+00 -0.00000000000E+00 -0.64999999231E+04  0.65000000000E+04  0.10000000000E+01 0.  0.
    9000001    1    1    2    0    0  0.39561357024E+04  0.33865179836E+04 -0.38897924432E+04  0.65000000000E+04  0.10000000000E+01 0.  0.
    9000001    1    1    2    0    0 -0.39561357024E+04 -0.33865179836E+04  0.38897924432E+04  0.65000000000E+04  0.10000000000E+01 0.  0.
</event>
<event>
 4    1  0.2201588E-006  0.1300000E+05  0.7957747E-01  0.1322471E+00
    9000001   -1    0    0    0    0  0.00000000000E+00  0.00000000000E+00  0.64999999231E+04  0.65000000000E+04  0.10000000000E+01 0.  0.
    9000001   -1    0    0    0    0 -0.00000000000E+00 -0.00000000000E+00 -0.64999999231E+04  0.65000000000E+04  0.10000000000E+01 0.  0.
    9000001    1    1    2    0    0  0.49484875259E+04  0.29409476289E+03  0.42042809702E+04  0.65000000000E+04  0.10000000000E+01 0.  0.
    9000001    1    1    2    0    0 -0.49484875259E+04 -0.29409476289E+03 -0.42042809702E+04  0.65000000000E+04  0.10000000000E+01 0.  0.
</event>
<event>
 4    1  0.2201588E-006  0.1300000E+05  0.7957747E-01  0.1322471E+00
    9000001   -1    0    0    0    0  0.00000000000E+00  0.00000000000E+00  0.64999999231E+04  0.65000000000E+04  0.10000000000E+01 0.  0.
    9000001   -1    0    0    0    0 -0.00000000000E+00 -0.00000000000E+00 -0.64999999231E+04  0.65000000000E+04  0.10000000000E+01 0.  0.
    9000001    1    1    2    0    0  0.48767395901E+04 -0.31438644697E+04 -0.29297655481E+04  0.65000000000E+04  0.10000000000E+01 0.  0.
    9000001    1    1    2    0    0 -0.48767395901E+04  0.31438644697E+04  0.29297655481E+04  0.65000000000E+04  0.10000000000E+01 0.  0.
</event>
<event>
 4    1  0.2201588E-006  0.1300000E+05  0.7957747E-01  0.1322471E+00
    9000001   -1    0    0    0    0  0.00000000000E+00  0.00000000000E+00  0.64999999231E+04  0.65000000000E+04  0.10000000000E+01 0.  0.
    9000001   -1    0    0    0    0 -0.00000000000E+00 -0.00000000000E+00 -0.64999999231E+04  0.65000000000E+04  0.10000000000E+01 0.  0.
    9000001    1    1    2    0    0  0.44259829622E+04 -0.30448147712E+04 -0.36592043982E+04  0.65000000000E+04  0.10000000000E+01 0.  0.
    9000001    1    1    2    0    0 -0.44259829622E+04  0.30448147712E+04  0.36592043982E+04  0.65000000000E+04  0.10000000000E+01 0.  0.
</event>
<event>
 4    1  0.2201588E-006  0.1300000E+05  0.7957747E-01  0.1322471E+00
    9000001   -1    0    0    0    0  0.00000000000E+00  0.00000000000E+00  0.64999999231E+04  0.65000000000E+04  0.10000000000E+01 0.  0.
    9000001   -1    0    0    0    0 -0.00000000000E+00 -0.00000000000E+00 -0.64999999231E+04  0.65000000000E+04  0.10000000000E+01 0.  0.
    9000001    1    1    2    0    0  0.20878431120E+04  0.32214056670E+04  0.52453270316E+04  0.65000000000E+04  0.10000000000E+01 0.  0.
    9000001    1    1    2    0    0 -0.20878431120E+04 -0.32214056670E+04 -0.52453270316E+04  0.65000000000E+04  0.10000000000E+01 0.  0.
</event>
<event>
 4    1  0.2201588E-006  0.1300000E+05  0.7957747E-01  0.1322471E+00
    9000001   -1    0    0    0    0  0.00000000000E+00  0.00000000000E+00  0.64999999231E+04  0.65000000000E+04  0.10000000000E+01 0.  0.
    9000001   -1    0    0    0    0 -0.00000000000E+00 -0.00000000000E+00 -0.64999999231E+04  0.65000000000E+04  0.10000000000E+01 0.  0.
    9000001    1    1    2    0    0  0.49364328627E+04  0.41784399267E+04 -0.64982256881E+03  0.65000000000E+04  0.10000000000E+01 0.  0.
    9000001    1    1    2    0    0 -0.49364328627E+04 -0.41784399267E+04  0.64982256881E+03  0.65000000000E+04  0.10000000000E+01 0.  0.
</event>
<event>
 4    1  0.2201588E-006  0.1300000E+05  0.7957747E-01  0.1322471E+00
    9000001   -1    0    0    0    0  0.00000000000E+00  0.00000000000E+00  0.64999999231E+04  0.65000000000E+04  0.10000000000E+01 0.  0.
    9000001   -1    0    0    0    0 -0.00000000000E+00 -0.00000000000E+00 -0.64999999231E+04  0.65000000000E+04  0.10000000000E+01 0.  0.
    9000001    1    1    2    0    0  0.63813997685E+04 -0.53557624976E+03  0.11139542517E+04  0.65000000000E+04  0.10000000000E+01 0.  0.
    9000001    1    1    2    0    0 -0.63813997685E+04  0.53557624976E+03 -0.11139542517E+04  0.65000000000E+04  0.10000000000E+01 0.  0.
</event>
<event>
 4    1  0.2201588E-006  0.1300000E+05  0.7957747E-01  0.1322471E+00
    9000001   -1    0    0    0    0  0.00000000000E+00  0.00000000000E+00  0.64999999231E+04  0.65000000000E+04  0.10000000000E+01 0.  0.
    9000001   -1    0    0    0    0 -0.00000000000E+00 -0.00000000000E+00 -0.64999999231E+04  0.65000000000E+04  0.10000000000E+01 0.  0.
    9000001    1    1    2    0    0 -0.53349572059E+04  0.36448240740E+03  0.36953190912E+04  0.65000000000E+04  0.10000000000E+01 0.  0.
    9000001    1    1    2    0    0  0.53349572059E+04 -0.36448240740E+03 -0.36953190912E+04  0.65000000000E+04  0.10000000000E+01 0.  0.
</event>
<event>
 4    1  0.2201588E-006  0.1300000E+05  0.7957747E-01  0.1322471E+00
    9000001   -1    0    0    0    0  0.00000000000E+00  0.00000000000E+00  0.64999999231E+04  0.65000000000E+04  0.10000000000E+01 0.  0.
    9000001   -1    0    0    0    0 -0.00000000000E+00 -0.00000000000E+00 -0.64999999231E+04  0.65000000000E+04  0.10000000000E+01 0.  0.
    9000001    1    1    2    0    0 -0.11868639324E+04 -0.57076576131E+03 -0.63651849503E+04  0.65000000000E+04  0.10000000000E+01 0.  0.
    9000001    1    1    2    0    0  0.11868639324E+04  0.57076576131E+03  0.63651849503E+04  0.65000000000E+04  0.10000000000E+01 0.  0.
</event>
<event>
 4    1  0.2201588E-006  0.1300000E+05  0.7957747E-01  0.1322471E+00
    9000001   -1    0    0    0    0  0.00000000000E+00  0.00000000000E+00  0.64999999231E+04  0.65000000000E+04  0.10000000000E+01 0.  0.
    9000001   -1    0    0    0    0 -0.00000000000E+00 -0.00000000000E+00 -0.64999999231E+04  0.65000000000E+04  0.10000000000E+01 0.  0.
    9000001    1    1    2    0    0 -0.44346136950E+04 -0.35200425938E+04  0.31927261884E+04  0.65000000000E+04  0.10000000000E+01 0.  0.
    9000001    1    1    2    0    0  0.44346136950E+04  0.35200425938E+04 -0.31927261884E+04  0.65000000000E+04  0.10000000000E+01 0.  0.
</event>
<event>
 4    1  0.2201588E-006  0.1300000E+05  0.7957747E-01  0.1322471E+00
    9000001   -1    0    0    0    0  0.00000000000E+00  0.00000000000E+00  0.64999999231E+04  0.65000000000E+04  0.10000000000E+01 0.  0.
    9000001   -1    0    0    0    0 -0.00000000000E+00 -0.00000000000E+00 -0.64999999231E+04  0.65000000000E+04  0.10000000000E+01 0.  0.
    9000001    1    1    2    0    0  0.35054866147E+04  0.23721535674E+04  0.49329960518E+04  0.65000000000E+04  0.10000000000E+01 0.  0.
    9000001    1    1    2    0    0 -0.35054866147E+04 -0.23721535674E+04 -0.49329960518E+04  0.65000000000E+04  0.10000000000E+01 0.  0.
</event>
<event>
 4    1  0.2201588E-006  0.1300000E+05  0.7957747E-01  0.1322471E+00
    9000001   -1    0    0    0    0  0.00000000000E+00  0.00000000000E+00  0.64999999231E+04  0.65000000000E+04  0.10000000000E+01 0.  0.
    9000001   -1    0    0    0    0 -0.00000000000E+00 -0.00000000000E+00 -0.64999999231E+04  0.65000000000E+04  0.10000000000E+01 0.  0.
    9000001    1    1    2    0    0 -0.25388723617E+04  0.49597304156E+04 -0.33474169647E+04  0.65000000000E+04  0.10000000000E+01 0.  0.
    9000001    1    1    2    0    0  0.25388723617E+04 -0.49597304156E+04  0.33474169647E+04  0.65000000000E+04  0.10000000000E+01 0.  0.
</event>
<event>
 4    1  0.2201588E-006  0.1300000E+05  0.7957747E-01  0.1322471E+00
    9000001   -1    0    0    0    0  0.00000000000E+00  0.00000000000E+00  0.64999999231E+04  0.65000000000E+04  0.10000000000E+01 0.  0.
    9000001   -1    0    0    0    0 -0.00000000000E+00 -0.00000000000E+00 -0.64999999231E+04  0.65000000000E+04  0.10000000000E+01 0.  0.
    9000001    1    1    2    0    0 -0.25218160936E+04  0.12005162785E+04  0.58693443633E+04  0.65000000000E+04  0.10000000000E+01 0.  0.
    9000001    1    1    2    0    0  0.25218160936E+04 -0.12005162785E+04 -0.58693443633E+04  0.65000000000E+04  0.10000000000E+01 0.  0.
</event>
<event>
 4    1  0.2201588E-006  0.1300000E+05  0.7957747E-01  0.1322471E+00
    9000001   -1    0    0    0    0  0.00000000000E+00  0.00000000000E+00  0.64999999231E+04  0.65000000000E+04  0.10000000000E+01 0.  0.
    9000001   -1    0    0    0    0 -0.00000000000E+00 -0.00000000000E+00 -0.64999999231E+04  0.65000000000E+04  0.10000000000E+01 0.  0.
    9000001    1    1    2    0    0 -0.15688279911E+04  0.52583558496E+04 -0.34840309259E+04  0.65000000000E+04  0.10000000000E+01 0.  0.
    9000001    1    1    2    0    0  0.15688279911E+04 -0.52583558496E+04  0.34840309259E+04  0.65000000000E+04  0.10000000000E+01 0.  0.
</event>
<event>
 4    1  0.2201588E-006  0.1300000E+05  0.7957747E-01  0.1322471E+00
    9000001   -1    0    0    0    0  0.00000000000E+00  0.00000000000E+00  0.64999999231E+04  0.65000000000E+04  0.10000000000E+01 0.  0.
    9000001   -1    0    0    0    0 -0.00000000000E+00 -0.00000000000E+00 -0.64999999231E+04  0.65000000000E+04  0.10000000000E+01 0.  0.
    9000001    1    1    2    0    0 -0.23830328727E+04 -0.48680529740E+04  0.35879260820E+04  0.65000000000E+04  0.10000000000E+01 0.  0.
    9000001    1    1    2    0    0  0.23830328727E+04  0.48680529740E+04 -0.35879260820E+04  0.65000000000E+04  0.10000000000E+01 0.  0.
</event>
<event>
 4    1  0.2201588E-006  0.1300000E+05  0.7957747E-01  0.1322471E+00
    9000001   -1    0    0    0    0  0.00000000000E+00  0.00000000000E+00  0.64999999231E+04  0.65000000000E+04  0.10000000000E+01 0.  0.
    9000001   -1    0    0    0    0 -0.00000000000E+00 -0.00000000000E+00 -0.64999999231E+04  0.65000000000E+04  0.10000000000E+01 0.  0.
    9000001    1    1    2    0    0  0.21262805936E+04  0.61370107180E+04  0.25696164008E+03  0.65000000000E+04  0.10000000000E+01 0.  0.
    9000001    1    1    2    0    0 -0.21262805936E+04 -0.61370107180E+04 -0.25696164008E+03  0.65000000000E+04  0.10000000000E+01 0.  0.
</event>
<event>
 4    1  0.2201588E-006  0.1300000E+05  0.7957747E-01  0.1322471E+00
    9000001   -1    0    0    0    0  0.00000000000E+00  0.00000000000E+00  0.64999999231E+04  0.65000000000E+04  0.10000000000E+01 0.  0.
    9000001   -1    0    0    0    0 -0.00000000000E+00 -0.00000000000E+00 -0.64999999231E+04  0.65000000000E+04  0.10000000000E+01 0.  0.
    9000001    1    1    2    0    0 -0.56000173972E+04  0.32739650268E+04  0.41346965354E+03  0.65000000000E+04  0.10000000000E+01 0.  0.
    9000001    1    1    2    0    0  0.56000173972E+04 -0.32739650268E+04 -0.41346965354E+03  0.65000000000E+04  0.10000000000E+01 0.  0.
</event>
<event>
 4    1  0.2201588E-006  0.1300000E+05  0.7957747E-01  0.1322471E+00
    9000001   -1    0    0    0    0  0.00000000000E+00  0.00000000000E+00  0.64999999231E+04  0.65000000000E+04  0.10000000000E+01 0.  0.
    9000001   -1    0    0    0    0 -0.00000000000E+00 -0.00000000000E+00 -0.64999999231E+04  0.65000000000E+04  0.10000000000E+01 0.  0.
    9000001    1    1    2    0    0  0.21704901755E+04 -0.20151369191E+04 -0.57860344447E+04  0.65000000000E+04  0.10000000000E+01 0.  0.
    9000001    1    1    2    0    0 -0.21704901755E+04  0.20151369191E+04  0.57860344447E+04  0.65000000000E+04  0.10000000000E+01 0.  0.
</event>
<event>
 4    1  0.2201588E-006  0.1300000E+05  0.7957747E-01  0.1322471E+00
    9000001   -1    0    0    0    0  0.00000000000E+00  0.00000000000E+00  0.64999999231E+04  0.65000000000E+04  0.10000000000E+01 0.  0.
    9000001   -1    0    0    0    0 -0.00000000000E+00 -0.00000000000E+00 -0.64999999231E+04  0.65000000000E+04  0.10000000000E+01 0.  0.
    9000001    1    1    2    0    0  0.29273696319E+04 -0.15506936202E+04 -0.55924820370E+04  0.65000000000E+04  0.10000000000E+01 0.  0.
    9000001    1    1    2    0    0 -0.29273696319E+04  0.15506936202E+04  0.55924820370E+04  0.65000000000E+04  0.10000000000E+01 0.  0.
</event>
<event>
 4    1  0.2201588E-006  0.1300000E+05  0.7957747E-01  0.1322471E+00
    9000001   -1    0    0    0    0  0.00000000000E+00  0.00000000000E+00  0.64999999231E+04  0.65000000000E+04  0.10000000000E+01 0.  0.
    9000001   -1    0    0    0    0 -0.00000000000E+00 -0.00000000000E+00 -0.64999999231E+04  0.65000000000E+04  0.10000000000E+01 0.  0.
    9000001    1    1    2    0    0  0.29050675847E+04  0.46045983638E+04  0.35508105042E+04  0.65000000000E+04  0.10000000000E+01 0.  0.
    9000001    1    1    2    0    0 -0.29050675847E+04 -0.46045983638E+04 -0.35508105042E+04  0.65000000000E+04  0.10000000000E+01 0.  0.
</event>
<event>
 4    1  0.2201588E-006  0.1300000E+05  0.7957747E-01  0.1322471E+00
    9000001   -1    0    0    0    0  0.00000000000E+00  0.00000000000E+00  0.64999999231E+04  0.65000000000E+04  0.10000000000E+01 0.  0.
    9000001   -1    0    0    0    0 -0.00000000000E+00 -0.00000000000E+00 -0.64999999231E+04  0.65000000000E+04  0.10000000000E+01 0.  0.
    9000001    1    1    2    0    0 -0.62907356047E+04 -0.54688580393E+02  0.16351310989E+04  0.65000000000E+04  0.10000000000E+01 0.  0.
    9000001    1    1    2    0    0  0.62907356047E+04  0.54688580393E+02 -0.16351310989E+04  0.65000000000E+04  0.10000000000E+01 0.  0.
</event>
<event>
 4    1  0.2201588E-006  0.1300000E+05  0.7957747E-01  0.1322471E+00
    9000001   -1    0    0    0    0  0.00000000000E+00  0.00000000000E+00  0.64999999231E+04  0.65000000000E+04  0.10000000000E+01 0.  0.
    9000001   -1    0    0    0    0 -0.00000000000E+00 -0.00000000000E+00 -0.64999999231E+04  0.65000000000E+04  0.10000000000E+01 0.  0.
    9000001    1    1    2    0    0  0.28768361475E+04  0.42817030252E+04  0.39548491734E+04  0.65000000000E+04  0.10000000000E+01 0.  0.
    9000001    1    1    2    0    0 -0.28768361475E+04 -0.42817030252E+04 -0.39548491734E+04  0.65000000000E+04  0.10000000000E+01 0.  0.
</event>
<event>
 4    1  0.2201588E-006  0.1300000E+05  0.7957747E-01  0.1322471E+00
    9000001   -1    0    0    0    0  0.00000000000E+00  0.00000000000E+00  0.64999999231E+04  0.65000000000E+04  0.10000000000E+01 0.  0.
    9000001   -1    0    0    0    0 -0.00000000000E+00 -0.00000000000E+00 -0.64999999231E+04  0.65000000000E+04  0.10000000000E+01 0.  0.
    9000001    1    1    2    0    0  0.33804389070E+04 -0.49680828745E+04  0.24780606022E+04  0.65000000000E+04  0.10000000000E+01 0.  0.
    9000001    1    1    2    0    0 -0.33804389070E+04  0.49680828745E+04 -0.24780606022E+04  0.65000000000E+04  0.10000000000E+01 0.  0.
</event>
<event>
 4    1  0.2201588E-006  0.1300000E+05  0.7957747E-01  0.1322471E+00
    9000001   -1    0    0    0    0  0.00000000000E+00  0.00000000000E+00  0.64999999231E+04  0.65000000000E+04  0.10000000000E+01 0.  0.
    9000001   -1    0    0    0    0 -0.00000000000E+00 -0.00000000000E+00 -0.64999999231E+04  0.65000000000E+04  0.10000000000E+01 0.  0.
    9000001    1    1    2    0    0 -0.14210323434E+04  0.59419569707E+04  0.22189667500E+04  0.65000000000E+04  0.10000000000E+01 0.  0.
    9000001    1    1    2    0    0  0.14210323434E+04 -0.59419569707E+04 -0.22189667500E+04  0.65000000000E+04  0.10000000000E+01 0.  0.
</event>
<event>
 4    1  0.2201588E-006  0.1300000E+05  0.7957747E-01  0.1322471E+00
    9000001   -1    0    0    0    0  0.00000000000E+00  0.00000000000E+00  0.64999999231E+04  0.65000000000E+04  0.10000000000E+01 0.  0.
    9000001   -1    0    0    0    0 -0.00000000000E+00 -0.00000000000E+00 -0.64999999231E+04  0.65000000000E+04  0.10000000000E+01 0.  0.
    9000001    1    1    2    0    0  0.57494189128E+04 -0.29976497417E+03 -0.30173369260E+04  0.65000000000E+04  0.10000000000E+01 0.  0.
    9000001    1    1    2    0    0 -0.57494189128E+04  0.29976497417E+03  0.30173369260E+04  0.65000000000E+04  0.10000000000E+01 0.  0.
</event>
<event>
 4    1  0.2201588E-006  0.1300000E+05  0.7957747E-01  0.1322471E+00
    9000001   -1    0    0    0    0  0.00000000000E+00  0.00000000000E+00  0.64999999231E+04  0.65000000000E+04  0.10000000000E+01 0.  0.
    9000001   -1    0    0    0    0 -0.00000000000E+00 -0.00000000000E+00 -0.64999999231E+04  0.65000000000E+04  0.10000000000E+01 0.  0.
    9000001    1    1    2    0    0  0.46343711528E+04 -0.24153252603E+04 -0.38650752781E+04  0.65000000000E+04  0.10000000000E+01 0.  0.
    9000001    1    1    2    0    0 -0.46343711528E+04  0.24153252603E+04  0.38650752781E+04  0.65000000000E+04  0.10000000000E+01 0.  0.
</event>
<event>
 4    1  0.2201588E-006  0.1300000E+05  0.7957747E-01  0.1322471E+00
    9000001   -1    0    0    0    0  0.00000000000E+00  0.00000000000E+00  0.64999999231E+04  0.65000000000E+04  0.10000000000E+01 0.  0.
    9000001   -1    0    0    0    0 -0.00000000000E+00 -0.00000000000E+00 -0.64999999231E+04  0.65000000000E+04  0.10000000000E+01 0.  0.
    9000001    1    1    2    0    0 -0.18271201711E+04 -0.20250598786E+04  0.59000646919E+04  0.65000000000E+04  0.10000000000E+01 0.  0.
    9000001    1    1    2    0    0  0.18271201711E+04  0.20250598786E+04 -0.59000646919E+04  0.65000000000E+04  0.10000000000E+01 0.  0.
</event>
<event>
 4    1  0.2201588E-006  0.1300000E+05  0.7957747E-01  0.1322471E+00
    9000001   -1    0    0    0    0  0.00000000000E+00  0.00000000000E+00  0.64999999231E+04  0.65000000000E+04  0.10000000000E+01 0.  0.
    9000001   -1    0    0    0    0 -0.00000000000E+00 -0.00000000000E+00 -0.64999999231E+04  0.65000000000E+04  0.10000000000E+01 0.  0.
    9000001    1    1    2    0    0  0.12604074603E+04 -0.13882503845E+04  0.62236751927E+04  0.65000000000E+04  0.10000000000E+01 0.  0.
    9000001    1    1    2    0    0 -0.12604074603E+04  0.13882503845E+04 -0.62236751927E+04  0.65000000000E+04  0.10000000000E+01 0.  0.
</event>
<event>
 4    1  0.2201588E-006  0.1300000E+05  0.7957747E-01  0.1322471E+00
    9000001   -1    0    0    0    0  0.00000000000E+00  0.00000000000E+00  0.64999999231E+04  0.65000000000E+04  0.10000000000E+01 0.  0.
    9000001   -1    0    0    0    0 -0.00000000000E+00 -0.00000000000E+00 -0.64999999231E+04  0.65000000000E+04  0.10000000000E+01 0.  0.
    9000001    1    1    2    0    0  0.14945176065E+04  0.62546146532E+04  0.94668456392E+03  0.65000000000E+04  0.10000000000E+01 0.  0.
    9000001    1    1    2    0    0 -0.14945176065E+04 -0.62546146532E+04 -0.94668456392E+03  0.65000000000E+04  0.10000000000E+01 0.  0.
</event>
<event>
 4    1  0.2201588E-006  0.1300000E+05  0.7957747E-01  0.1322471E+00
    9000001   -1    0    0    0    0  0.00000000000E+00  0.00000000000E+00  0.64999999231E+04  0.65000000000E+04  0.10000000000E+01 0.  0.
    9000001   -1    0    0    0    0 -0.00000000000E+00 -0.00000000000E+00 -0.64999999231E+04  0.65000000000E+04  0.10000000000E+01 0.  0.
    9000001    1    1    2    0    0 -0.40378452799E+04  0.47907160581E+04 -0.17305618008E+04  0.65000000000E+04  0.10000000000E+01 0.  0.
    9000001    1    1    2    0    0  0.40378452799E+04 -0.47907160581E+04  0.17305618008E+04  0.65000000000E+04  0.10000000000E+01 0.  0.
</event>
<event>
 4    1  0.2201588E-006  0.1300000E+05  0.7957747E-01  0.1322471E+00
    9000001   -1    0    0    0    0  0.00000000000E+00  0.00000000000E+00  0.64999999231E+04  0.65000000000E+04  0.10000000000E+01 0.  0.
    9000001   -1    0    0    0    0 -0.00000000000E+00 -0.00000000000E+00 -0.64999999231E+04  0.65000000000E+04  0.10000000000E+01 0.  0.
    9000001    1    1    2    0    0 -0.33473202585E+04 -0.42111773906E+04 -0.36484833935E+04  0.65000000000E+04  0.10000000000E+01 0.  0.
    9000001    1    1    2    0    0  0.33473202585E+04  0.42111773906E+04  0.36484833935E+04  0.65000000000E+04  0.10000000000E+01 0.  0.
</event>
<event>
 4    1  0.2201588E-006  0.1300000E+05  0.7957747E-01  0.1322471E+00
    9000001   -1    0    0    0    0  0.00000000000E+00  0.00000000000E+00  0.64999999231E+04  0.65000000000E+04  0.10000000000E+01 0.  0.
    9000001   -1    0    0    0    0 -0.00000000000E+00 -0.00000000000E+00 -0.64999999231E+04  0.65000000000E+04  0.10000000000E+01 0.  0.
    9000001    1    1    2    0    0  0.14487095055E+04  0.41833339625E+04 -0.47593021260E+04  0.65000000000E+04  0.10000000000E+01 0.  0.
    9000001    1    1    2    0    0 -0.14487095055E+04 -0.41833339625E+04  0.47593021260E+04  0.65000000000E+04  0.10000000000E+01 0.  0.
</event>
<event>
 4    1  0.2201588E-006  0.1300000E+05  0.7957747E-01  0.1322471E+00
    9000001   -1    0    0    0    0  0.00000000000E+00  0.00000000000E+00  0.64999999231E+04  0.65000000000E+04  0.10000000000E+01 0.  0.
    9000001   -1    0    0    0    0 -0.00000000000E+00 -0.00000000000E+00 -0.64999999231E+04  0.65000000000E+04  0.10000000000E+01 0.  0.
    9000001    1    1    2    0    0 -0.26871390810E+03 -0.30114590277E+04  0.57540339207E+04  0.65000000000E+04  0.10000000000E+01 0.  0.
    9000001    1    1    2    0    0  0.26871390810E+03  0.30114590277E+04 -0.57540339207E+04  0.65000000000E+04  0.10000000000E+01 0.  0.
</event>
<event>
 4    1  0.2201588E-006  0.1300000E+05  0.7957747E-01  0.1322471E+00
    9000001   -1    0    0    0    0  0.00000000000E+00  0.00000000000E+00  0.64999999231E+04  0.65000000000E+04  0.10000000000E+01 0.  0.
    9000001   -1    0    0    0    0 -0.00000000000E+00 -0.00000000000E+00 -0.64999999231E+04  0.65000000000E+04  0.10000000000E+01 0.  0.
    9000001    1    1    2    0    0  0.26501049042E+04  0.52756818093E+04  0.27192139385E+04  0.65000000000E+04  0.10000000000E+01 0.  0.
    9000001    1    1    2    0    0 -0.26501049042E+04 -0.52756818093E+04 -0.27192139385E+04  0.65000000000E+04  0.10000000000E+01 0.  0.
</event>
<event>
 4    1  0.2201588E-006  0.1300000E+05  0.7957747E-01  0.1322471E+00
    9000001   -1    0    0    0    0  0.00000000000E+00  0.00000000000E+00  0.64999999231E+04  0.65000000000E+04  0.10000000000E+01 0.  0.
    9000001   -1    0    0    0    0 -0.00000000000E+00 -0.00000000000E+00 -0.64999999231E+04  0.65000000000E+04  0.10000000000E+01 0.  0.
    9000001    1    1    2    0    0 -0.37518246958E+04 -0.47592814683E+04 -0.23501170945E+04  0.65000000000E+04  0.10000000000E+01 0.  0.
    9000001    1    1    2    0    0  0.37518246958E+04  0.47592814683E+04  0.23501170945E+04  0.65000000000E+04  0.10000000000E+01 0.  0.
</event>
<event>
 4    1  0.2201588E-006  0.1300000E+05  0.7957747E-01  0.1322471E+00
    9000001   -1    0    0    0    0  0.00000000000E+00  0.00000000000E+00  0.64999999231E+04  0.65000000000E+04  0.10000000000E+01 0.  0.
    9000001   -1    0    0    0    0 -0.00000000000E+00 -0.00000000000E+00 -0.64999999231E+04  0.65000000000E+04  0.10000000000E+01 0.  0.
    9000001    1    1    2    0    0  0.92572710718E+03 -0.62200133750E+04 -0.16445248366E+04  0.65000000000E+04  0.10000000000E+01 0.  0.
    9000001    1    1    2    0    0 -0.92572710718E+03  0.62200133750E+04  0.16445248366E+04  0.65000000000E+04  0.10000000000E+01 0.  0.
</event>
<event>
 4    1  0.2201588E-006  0.1300000E+05  0.7957747E-01  0.1322471E+00
    9000001   -1    0    0    0    0  0.00000000000E+00  0.00000000000E+00  0.64999999231E+04  0.65000000000E+04  0.10000000000E+01 0.  0.
    9000001   -1    0    0    0    0 -0.00000000000E+00 -0.00000000000E+00 -0.64999999231E+04  0.65000000000E+04  0.10000000000E+01 0.  0.
    9000001    1    1    2    0    0  0.15522602342E+04  0.28574419081E+04 -0.56281002929E+04  0.65000000000E+04  0.10000000000E+01 0.  0.
    9000001    1    1    2    0    0 -0.15522602342E+04 -0.28574419081E+04  0.56281002929E+04  0.65000000000E+04  0.10000000000E+01 0.  0.
</event>
<event>
 4    1  0.2201588E-006  0.1300000E+05  0.7957747E-01  0.1322471E+00
    9000001   -1    0    0    0    0  0.00000000000E+00  0.00000000000E+00  0.64999999231E+04  0.65000000000E+04  0.10000000000E+01 0.  0.
    9000001   -1    0    0    0    0 -0.00000000000E+00 -0.00000000000E+00 -0.64999999231E+04  0.65000000000E+04  0.10000000000E+01 0.  0.
    9000001    1    1    2    0    0  0.44955711151E+04  0.26886007740E+04 -0.38485406620E+04  0.65000000000E+04  0.10000000000E+01 0.  0.
    9000001    1    1    2    0    0 -0.44955711151E+04 -0.26886007740E+04  0.38485406620E+04  0.65000000000E+04  0.10000000000E+01 0.  0.
</event>
<event>
 4    1  0.2201588E-006  0.1300000E+05  0.7957747E-01  0.1322471E+00
    9000001   -1    0    0    0    0  0.00000000000E+00  0.00000000000E+00  0.64999999231E+04  0.65000000000E+04  0.10000000000E+01 0.  0.
    9000001   -1    0    0    0    0 -0.00000000000E+00 -0.00000000000E+00 -0.64999999231E+04  0.65000000000E+04  0.10000000000E+01 0.  0.
    9000001    1    1    2    0    0  0.27835443576E+04  0.58579132871E+04 -0.43212466934E+03  0.65000000000E+04  0.10000000000E+01 0.  0.
    9000001    1    1    2    0    0 -0.27835443576E+04 -0.58579132871E+04  0.43212466934E+03  0.65000000000E+04  0.10000000000E+01 0.  0.
</event>
<event>
 4    1  0.2201588E-006  0.1300000E+05  0.7957747E-01  0.1322471E+00
    9000001   -1    0    0    0    0  0.00000000000E+00  0.00000000000E+00  0.64999999231E+04  0.65000000000E+04  0.10000000000E+01 0.  0.
    9000001   -1    0    0    0    0 -0.00000000000E+00 -0.00000000000E+00 -0.64999999231E+04  0.65000000000E+04  0.10000000000E+01 0.  0.
    9000001    1    1    2    0    0 -0.30584827421E+04  0.72565623942E+03  0.56893853217E+04  0.65000000000E+04  0.10000000000E+01 0.  0.
    9000001    1    1    2    0    0  0.30584827421E+04 -0.72565623942E+03 -0.56893853217E+04  0.65000000000E+04  0.10000000000E+01 0.  0.
</event>
<event>
 4    1  0.2201588E-006  0.1300000E+05  0.7957747E-01  0.1322471E+00
    9000001   -1    0    0    0    0  0.00000000000E+00  0.00000000000E+00  0.64999999231E+04  0.65000000000E+04  0.10000000000E+01 0.  0.
    9000001   -1    0    0    0    0 -0.00000000000E+00 -0.00000000000E+00 -0.64999999231E+04  0.65000000000E+04  0.10000000000E+01 0.  0.
    9000001    1    1    2    0    0  0.17349677801E+04 -0.51253023539E+04  0.36015498863E+04  0.65000000000E+04  0.10000000000E+01 0.  0.
    9000001    1    1    2    0    0 -0.17349677801E+04  0.51253023539E+04 -0.36015498863E+04  0.65000000000E+04  0.10000000000E+01 0.  0.
</event>
<event>
 4    1  0.2201588E-006  0.1300000E+05  0.7957747E-01  0.1322471E+00
    9000001   -1    0    0    0    0  0.00000000000E+00  0.00000000000E+00  0.64999999231E+04  0.65000000000E+04  0.10000000000E+01 0.  0.
    9000001   -1    0    0    0    0 -0.00000000000E+00 -0.00000000000E+00 -0.64999999231E+04  0.65000000000E+04  0.10000000000E+01 0.  0.
    9000001    1    1    2    0    0  0.42417899968E+04 -0.94881622780E+03  0.48329043431E+04  0.65000000000E+04  0.10000000000E+01 0.  0.
    9000001    1    1    2    0    0 -0.42417899968E+04  0.94881622780E+03 -0.48329043431E+04  0.65000000000E+04  0.10000000000E+01 0.  0.
</event>
<event>
 4    1  0.2201588E-006  0.1300000E+05  0.7957747E-01  0.1322471E+00
    9000001   -1    0    0    0    0  0.00000000000E+00  0.00000000000E+00  0.64999999231E+04  0.65000000000E+04  0.10000000000E+01 0.  0.
    9000001   -1    0    0    0    0 -0.00000000000E+00 -0.00000000000E+00 -0.64999999231E+04  0.65000000000E+04  0.10000000000E+01 0.  0.
    9000001    1    1    2    0    0  0.50660980082E+04 -0.71865674829E+03 -0.40085137457E+04  0.65000000000E+04  0.10000000000E+01 0.  0.
    9000001    1    1    2    0    0 -0.50660980082E+04  0.71865674829E+03  0.40085137457E+04  0.65000000000E+04  0.10000000000E+01 0.  0.
</event>
<event>
 4    1  0.2201588E-006  0.1300000E+05  0.7957747E-01  0.1322471E+00
    9000001   -1    0    0    0    0  0.00000000000E+00  0.00000000000E+00  0.64999999231E+04  0.65000000000E+04  0.10000000000E+01 0.  0.
    9000001   -1    0    0    0    0 -0.00000000000E+00 -0.00000000000E+00 -0.64999999231E+04  0.65000000000E+04  0.10000000000E+01 0.  0.
    9000001    1    1    2    0    0 -0.18548787261E+04  0.58584517950E+04 -0.21184821164E+04  0.65000000000E+04  0.10000000000E+01 0.  0.
    9000001    1    1    2    0    0  0.18548787261E+04 -0.58584517950E+04  0.21184821164E+04  0.65000000000E+04  0.10000000000E+01 0.  0.
</event>
<event>
 4    1  0.2201588E-006  0.1300000E+05  0.7957747E-01  0.1322471E+00
    9000001   -1    0    0    0    0  0.00000000000E+00  0.00000000000E+00  0.64999999231E+04  0.65000000000E+04  0.10000000000E+01 0.  0.
    9000001   -1    0    0    0    0 -0.00000000000E+00 -0.00000000000E+00 -0.64999999231E+04  0.65000000000E+04  0.10000000000E+01 0.  0.
    9000001    1    1    2    0    0 -0.57555669976E+04  0.14987859662E+04  0.26224202874E+04  0.65000000000E+04  0.10000000000E+01 0.  0.
    9000001    1    1    2    0    0  0.57555669976E+04 -0.14987859662E+04 -0.26224202874E+04  0.65000000000E+04  0.10000000000E+01 0.  0.
</event>
<event>
 4    1  0.2201588E-006  0.1300000E+05  0.7957747E-01  0.1322471E+00
    9000001   -1    0    0    0    0  0.00000000000E+00  0.00000000000E+00  0.64999999231E+04  0.65000000000E+04  0.10000000000E+01 0.  0.
    9000001   -1    0    0    0    0 -0.00000000000E+00 -0.00000000000E+00 -0.64999999231E+04  0.65000000000E+04  0.10000000000E+01 0.  0.
    9000001    1    1    2    0    0  0.27491498058E+04 -0.14809064105E+04  0.57007973608E+04  0.65000000000E+04  0.10000000000E+01 0.  0.
    9000001    1    1    2    0    0 -0.27491498058E+04  0.14809064105E+04 -0.57007973608E+04  0.65000000000E+04  0.10000000000E+01 0.  0.
</event>
<event>
 4    1  0.2201588E-006  0.1300000E+05  0.7957747E-01  0.1322471E+00
    9000001   -1    0    0    0    0  0.00000000000E+00  0.00000000000E+00  0.64999999231E+04  0.65000000000E+04  0.10000000000E+01 0.  0.
    9000001   -1    0    0    0    0 -0.00000000000E+00 -0.00000000000E+00 -0.64999999231E+04  0.65000000000E+04  0.10000000000E+01 0.  0.
    9000001    1    1    2    0    0 -0.31766818053E+04 -0.22607628286E+04 -0.52007348654E+04  0.65000000000E+04  0.10000000000E+01 0.  0.
    9000001    1    1    2    0    0  0.31766818053E+04  0.22607628286E+04  0.52007348654E+04  0.65000000000E+04  0.10000000000E+01 0.  0.
</event>
<event>
 4    1  0.2201588E-006  0.1300000E+05  0.7957747E-01  0.1322471E+00
    9000001   -1    0    0    0    0  0.00000000000E+00  0.00000000000E+00  0.64999999231E+04  0.65000000000E+04  0.10000000000E+01 0.  0.
    9000001   -1    0    0    0    0 -0.00000000000E+00 -0.00000000000E+00 -0.64999999231E+04  0.65000000000E+04  0.10000000000E+01 0.  0.
    9000001    1    1    2    0    0 -0.55734126268E+04  0.24970909625E+04 -0.22252207567E+04  0.65000000000E+04  0.10000000000E+01 0.  0.
    9000001    1    1    2    0    0  0.55734126268E+04 -0.24970909625E+04  0.22252207567E+04  0.65000000000E+04  0.10000000000E+01 0.  0.
</event>
<event>
 4    1  0.2201588E-006  0.1300000E+05  0.7957747E-01  0.1322471E+00
    9000001   -1    0    0    0    0  0.00000000000E+00  0.00000000000E+00  0.64999999231E+04  0.65000000000E+04  0.10000000000E+01 0.  0.
    9000001   -1    0    0    0    0 -0.00000000000E+00 -0.00000000000E+00 -0.64999999231E+04  0.65000000000E+04  0.10000000000E+01 0.  0.
    9000001    1    1    2    0    0 -0.27069888798E+04  0.11894260482E+04 -0.57885642331E+04  0.65000000000E+04  0.10000000000E+01 0.  0.
    9000001    1    1    2    0    0  0.27069888798E+04 -0.11894260482E+04  0.57885642331E+04  0.65000000000E+04  0.10000000000E+01 0.  0.
</event>
<event>
 4    1  0.2201588E-006  0.1300000E+05  0.7957747E-01  0.1322471E+00
    9000001   -1    0    0    0    0  0.00000000000E+00  0.00000000000E+00  0.64999999231E+04  0.65000000000E+04  0.10000000000E+01 0.  0.
    9000001   -1    0    0    0    0 -0.00000000000E+00 -0.00000000000E+00 -0.64999999231E+04  0.65000000000E+04  0.10000000000E+01 0.  0.
    9000001    1    1    2    0    0  0.61770964350E+04  0.14240782886E+04 -0.14371776720E+04  0.65000000000E+04  0.10000000000E+01 0.  0.
    9000001    1    1    2    0    0 -0.61770964350E+04 -0.14240782886E+04  0.14371776720E+04  0.65000000000E+04  0.10000000000E+01 0.  0.
</event>
<event>
 4    1  0.2201588E-006  0.1300000E+05  0.7957747E-01  0.1322471E+00
    9000001   -1    0    0    0    0  0.00000000000E+00  0.00000000000E+00  0.64999999231E+04  0.65000000000E+04  0.10000000000E+01 0.  0.
    9000001   -1    0    0    0    0 -0.00000000000E+00 -0.00000000000E+00 -0.64999999231E+04  0.65000000000E+04  0.10000000000E+01 0.  0.
    9000001    1    1    2    0    0  0.56856083148E+04  0.23473707552E+04  0.21008825833E+04  0.65000000000E+04  0.10000000000E+01 0.  0.
    9000001    1    1    2    0    0 -0.56856083148E+04 -0.23473707552E+04 -0.21008825833E+04  0.65000000000E+04  0.10000000000E+01 0.  0.
</event>
<event>
 4    1  0.2201588E-006  0.1300000E+05  0.7957747E-01  0.1322471E+00
    9000001   -1    0    0    0    0  0.00000000000E+00  0.00000000000E+00  0.64999999231E+04  0.65000000000E+04  0.10000000000E+01 0.  0.
    9000001   -1    0    0    0    0 -0.00000000000E+00 -0.00000000000E+00 -0.64999999231E+04  0.65000000000E+04  0.10000000000E+01 0.  0.
    9000001    1    1    2    0    0  0.44670108130E+04 -0.10766314970E+04 -0.45974643029E+04  0.65000000000E+04  0.10000000000E+01 0.  0.
    9000001    1    1    2    0    0 -0.44670108130E+04  0.10766314970E+04  0.45974643029E+04  0.65000000000E+04  0.10000000000E+01 0.  0.
</event>
<event>
 4    1  0.2201588E-006  0.1300000E+05  0.7957747E-01  0.1322471E+00
    9000001   -1    0    0    0    0  0.00000000000E+00  0.00000000000E+00  0.64999999231E+04  0.65000000000E+04  0.10000000000E+01 0.  0.
    9000001   -1    0    0    0    0 -0.00000000000E+00 -0.00000000000E+00 -0.64999999231E+04  0.65000000000E+04  0.10000000000E+01 0.  0.
    9000001    1    1    2    0    0  0.57129023120E+04 -0.12304885262E+04 -0.28458116875E+04  0.65000000000E+04  0.10000000000E+01 0.  0.
    9000001    1    1    2    0    0 -0.57129023120E+04  0.12304885262E+04  0.28458116875E+04  0.65000000000E+04  0.10000000000E+01 0.  0.
</event>
<event>
 4    1  0.2201588E-006  0.1300000E+05  0.7957747E-01  0.1322471E+00
    9000001   -1    0    0    0    0  0.00000000000E+00  0.00000000000E+00  0.64999999231E+04  0.65000000000E+04  0.10000000000E+01 0.  0.
    9000001   -1    0    0    0    0 -0.00000000000E+00 -0.00000000000E+00 -0.64999999231E+04  0.65000000000E+04  0.10000000000E+01 0.  0.
    9000001    1    1    2    0    0 -0.62994607114E+04 -0.15082703482E+04  0.54029094187E+03  0.65000000000E+04  0.10000000000E+01 0.  0.
    9000001    1    1    2    0    0  0.62994607114E+04  0.15082703482E+04 -0.54029094187E+03  0.65000000000E+04  0.10000000000E+01 0.  0.
</event>
<event>
 4    1  0.2201588E-006  0.1300000E+05  0.7957747E-01  0.1322471E+00
    9000001   -1    0    0    0    0  0.00000000000E+00  0.00000000000E+00  0.64999999231E+04  0.65000000000E+04  0.10000000000E+01 0.  0.
    9000001   -1    0    0    0    0 -0.00000000000E+00 -0.00000000000E+00 -0.64999999231E+04  0.65000000000E+04  0.10000000000E+01 0.  0.
    9000001    1    1    2    0    0  0.19055713747E+04 -0.59103260519E+04 -0.19201152822E+04  0.65000000000E+04  0.10000000000E+01 0.  0.
    9000001    1    1    2    0    0 -0.19055713747E+04  0.59103260519E+04  0.19201152822E+04  0.65000000000E+04  0.10000000000E+01 0.  0.
</event>
<event>
 4    1  0.2201588E-006  0.1300000E+05  0.7957747E-01  0.1322471E+00
    9000001   -1    0    0    0    0  0.00000000000E+00  0.00000000000E+00  0.64999999231E+04  0.65000000000E+04  0.10000000000E+01 0.  0.
    9000001   -1    0    0    0    0 -0.00000000000E+00 -0.00000000000E+00 -0.64999999231E+04  0.65000000000E+04  0.10000000000E+01 0.  0.
    9000001    1    1    2    0    0 -0.40369941409E+04  0.30040578586E+04 -0.41144031995E+04  0.65000000000E+04  0.10000000000E+01 0.  0.
    9000001    1    1    2    0    0  0.40369941409E+04 -0.30040578586E+04  0.41144031995E+04  0.65000000000E+04  0.10000000000E+01 0.  0.
</event>
<event>
 4    1  0.2201588E-006  0.1300000E+05  0.7957747E-01  0.1322471E+00
    9000001   -1    0    0    0    0  0.00000000000E+00  0.00000000000E+00  0.64999999231E+04  0.65000000000E+04  0.10000000000E+01 0.  0.
    9000001   -1    0    0    0    0 -0.00000000000E+00 -0.00000000000E+00 -0.64999999231E+04  0.65000000000E+04  0.10000000000E+01 0.  0.
    9000001    1    1    2    0    0 -0.52135524261E+04  0.24792416475E+04  0.29870103706E+04  0.65000000000E+04  0.10000000000E+01 0.  0.
    9000001    1    1    2    0    0  0.52135524261E+04 -0.24792416475E+04 -0.29870103706E+04  0.65000000000E+04  0.10000000000E+01 0.  0.
</event>
<event>
 4    1  0.2201588E-006  0.1300000E+05  0.7957747E-01  0.1322471E+00
    9000001   -1    0    0    0    0  0.00000000000E+00  0.00000000000E+00  0.64999999231E+04  0.65000000000E+04  0.10000000000E+01 0.  0.
    9000001   -1    0    0    0    0 -0.00000000000E+00 -0.00000000000E+00 -0.64999999231E+04  0.65000000000E+04  0.10000000000E+01 0.  0.
    9000001    1    1    2    0    0 -0.54091218562E+04 -0.52471790696E+03  0.35659600197E+04  0.65000000000E+04  0.10000000000E+01 0.  0.
    9000001    1    1    2    0    0  0.54091218562E+04  0.52471790696E+03 -0.35659600197E+04  0.65000000000E+04  0.10000000000E+01 0.  0.
</event>
<event>
 4    1  0.2201588E-006  0.1300000E+05  0.7957747E-01  0.1322471E+00
    9000001   -1    0    0    0    0  0.00000000000E+00  0.00000000000E+00  0.64999999231E+04  0.65000000000E+04  0.10000000000E+01 0.  0.
    9000001   -1    0    0    0    0 -0.00000000000E+00 -0.00000000000E+00 -0.64999999231E+04  0.65000000000E+04  0.10000000000E+01 0.  0.
    9000001    1    1    2    0    0 -0.35046325832E+03  0.38006727962E+04 -0.52613744213E+04  0.65000000000E+04  0.10000000000E+01 0.  0.
    9000001    1    1    2    0    0  0.35046325832E+03 -0.38006727962E+04  0.52613744213E+04  0.65000000000E+04  0.10000000000E+01 0.  0.
</event>
<event>
 4    1  0.2201588E-006  0.1300000E+05  0.7957747E-01  0.1322471E+00
    9000001   -1    0    0    0    0  0.00000000000E+00  0.00000000000E+00  0.64999999231E+04  0.65000000000E+04  0.10000000000E+01 0.  0.
    9000001   -1    0    0    0    0 -0.00000000000E+00 -0.00000000000E+00 -0.64999999231E+04  0.65000000000E+04  0.10000000000E+01 0.  0.
    9000001    1    1    2    0    0 -0.37338370950E+04 -0.21087953594E+04  0.48848174664E+04  0.65000000000E+04  0.10000000000E+01 0.  0.
    9000001    1    1    2    0    0  0.37338370950E+04  0.21087953594E+04 -0.48848174664E+04  0.65000000000E+04  0.10000000000E+01 0.  0.
</event>
<event>
 4    1  0.2201588E-006  0.1300000E+05  0.7957747E-01  0.1322471E+00
    9000001   -1    0    0    0    0  0.00000000000E+00  0.00000000000E+00  0.64999999231E+04  0.65000000000E+04  0.10000000000E+01 0.  0.
    9000001   -1    0    0    0    0 -0.00000000000E+00 -0.00000000000E+00 -0.64999999231E+04  0.65000000000E+04  0.10000000000E+01 0.  0.
    9000001    1    1    2    0    0 -0.52453715676E+04 -0.37432153225E+04 -0.85112582343E+03  0.65000000000E+04  0.10000000000E+01 0.  0.
    9000001    1    1    2    0    0  0.52453715676E+04  0.37432153225E+04  0.85112582343E+03  0.65000000000E+04  0.10000000000E+01 0.  0.
</event>
<event>
 4    1  0.2201588E-006  0.1300000E+05  0.7957747E-01  0.1322471E+00
    9000001   -1    0    0    0    0  0.00000000000E+00  0.00000000000E+00  0.64999999231E+04  0.65000000000E+04  0.10000000000E+01 0.  0.
    9000001   -1    0    0    0    0 -0.00000000000E+00 -0.00000000000E+00 -0.64999999231E+04  0.65000000000E+04  0.10000000000E+01 0.  0.
    9000001    1    1    2    0    0  0.50074206922E+04  0.29855550297E+04  0.28744039688E+04  0.65000000000E+04  0.10000000000E+01 0.  0.
    9000001    1    1    2    0    0 -0.50074206922E+04 -0.29855550297E+04 -0.28744039688E+04  0.65000000000E+04  0.10000000000E+01 0.  0.
</event>
<event>
 4    1  0.2201588E-006  0.1300000E+05  0.7957747E-01  0.1322471E+00
    9000001   -1    0    0    0    0  0.00000000000E+00  0.00000000000E+00  0.64999999231E+04  0.65000000000E+04  0.10000000000E+01 0.  0.
    9000001   -1    0    0    0    0 -0.00000000000E+00 -0.00000000000E+00 -0.64999999231E+04  0.65000000000E+04  0.10000000000E+01 0.  0.
    9000001    1    1    2    0    0 -0.11228245020E+04  0.83223588622E+03 -0.63479640490E+04  0.65000000000E+04  0.10000000000E+01 0.  0.
    9000001    1    1    2    0    0  0.11228245020E+04 -0.83223588622E+03  0.63479640490E+04  0.65000000000E+04  0.10000000000E+01 0.  0.
</event>
<event>
 4    1  0.2201588E-006  0.1300000E+05  0.7957747E-01  0.1322471E+00
    9000001   -1    0    0    0    0  0.00000000000E+00  0.00000000000E+00  0.64999999231E+04  0.65000000000E+04  0.10000000000E+01 0.  0.
    9000001   -1    0    0    0    0 -0.00000000000E+00 -0.00000000000E+00 -0.64999999231E+04  0.65000000000E+04  0.10000000000E+01 0.  0.
    9000001    1    1    2    0    0  0.48157519885E+04  0.91460447994E+03  0.42687270269E+04  0.65000000000E+04  0.10000000000E+01 0.  0.
    9000001    1    1    2    0    0 -0.48157519885E+04 -0.91460447994E+03 -0.42687270269E+04  0.65000000000E+04  0.10000000000E+01 0.  0.
</event>
<event>
 4    1  0.2201588E-006  0.1300000E+05  0.7957747E-01  0.1322471E+00
    9000001   -1    0    0    0    0  0.00000000000E+00  0.00000000000E+00  0.64999999231E+04  0.65000000000E+04  0.10000000000E+01 0.  0.
    9000001   -1    0    0    0    0 -0.00000000000E+00 -0.00000000000E+00 -0.64999999231E+04  0.65000000000E+04  0.10000000000E+01 0.  0.
    9000001    1    1    2    0    0  0.33920977235E+04  0.25523116471E+04  0.49223345366E+04  0.65000000000E+04  0.10000000000E+01 0.  0.
    9000001    1    1    2    0    0 -0.33920977235E+04 -0.25523116471E+04 -0.49223345366E+04  0.65000000000E+04  0.10000000000E+01 0.  0.
</event>
<event>
 4    1  0.2201588E-006  0.1300000E+05  0.7957747E-01  0.1322471E+00
    9000001   -1    0    0    0    0  0.00000000000E+00  0.00000000000E+00  0.64999999231E+04  0.65000000000E+04  0.10000000000E+01 0.  0.
    9000001   -1    0    0    0    0 -0.00000000000E+00 -0.00000000000E+00 -0.64999999231E+04  0.65000000000E+04  0.10000000000E+01 0.  0.
    9000001    1    1    2    0    0  0.10229461287E+04  0.51117392906E+04  0.38824865283E+04  0.65000000000E+04  0.10000000000E+01 0.  0.
    9000001    1    1    2    0    0 -0.10229461287E+04 -0.51117392906E+04 -0.38824865283E+04  0.65000000000E+04  0.10000000000E+01 0.  0.
</event>
<event>
 4    1  0.2201588E-006  0.1300000E+05  0.7957747E-01  0.1322471E+00
    9000001   -1    0    0    0    0  0.00000000000E+00  0.00000000000E+00  0.64999999231E+04  0.65000000000E+04  0.10000000000E+01 0.  0.
    9000001   -1    0    0    0    0 -0.00000000000E+00 -0.00000000000E+00 -0.64999999231E+04  0.65000000000E+04  0.10000000000E+01 0.  0.
    9000001    1    1    2    0    0  0.26053163566E+03 -0.31294784548E+04 -0.56910883729E+04  0.65000000000E+04  0.10000000000E+01 0.  0.
    9000001    1    1    2    0    0 -0.26053163566E+03  0.31294784548E+04  0.56910883729E+04  0.65000000000E+04  0.10000000000E+01 0.  0.
</event>
<event>
 4    1  0.2201588E-006  0.1300000E+05  0.7957747E-01  0.1322471E+00
    9000001   -1    0    0    0    0  0.00000000000E+00  0.00000000000E+00  0.64999999231E+04  0.65000000000E+04  0.10000000000E+01 0.  0.
    9000001   -1    0    0    0    0 -0.00000000000E+00 -0.00000000000E+00 -0.64999999231E+04  0.65000000000E+04  0.10000000000E+01 0.  0.
    9000001    1    1    2    0    0  0.30561526084E+04  0.27352506524E+04 -0.50426514953E+04  0.65000000000E+04  0.10000000000E+01 0.  0.
    9000001    1    1    2    0    0 -0.30561526084E+04 -0.27352506524E+04  0.50426514953E+04  0.65000000000E+04  0.10000000000E+01 0.  0.
</event>
<event>
 4    1  0.2201588E-006  0.1300000E+05  0.7957747E-01  0.1322471E+00
    9000001   -1    0    0    0    0  0.00000000000E+00  0.00000000000E+00  0.64999999231E+04  0.65000000000E+04  0.10000000000E+01 0.  0.
    9000001   -1    0    0    0    0 -0.00000000000E+00 -0.00000000000E+00 -0.64999999231E+04  0.65000000000E+04  0.10000000000E+01 0.  0.
    9000001    1    1    2    0    0  0.56188657976E+04 -0.29101618882E+04  0.14863727437E+04  0.65000000000E+04  0.10000000000E+01 0.  0.
    9000001    1    1    2    0    0 -0.56188657976E+04  0.29101618882E+04 -0.14863727437E+04  0.65000000000E+04  0.10000000000E+01 0.  0.
</event>
<event>
 4    1  0.2201588E-006  0.1300000E+05  0.7957747E-01  0.1322471E+00
    9000001   -1    0    0    0    0  0.00000000000E+00  0.00000000000E+00  0.64999999231E+04  0.65000000000E+04  0.10000000000E+01 0.  0.
    9000001   -1    0    0    0    0 -0.00000000000E+00 -0.00000000000E+00 -0.64999999231E+04  0.65000000000E+04  0.10000000000E+01 0.  0.
    9000001    1    1    2    0    0  0.26756160697E+04  0.56459171529E+04  0.17929576542E+04  0.65000000000E+04  0.10000000000E+01 0.  0.
    9000001    1    1    2    0    0 -0.26756160697E+04 -0.56459171529E+04 -0.17929576542E+04  0.65000000000E+04  0.10000000000E+01 0.  0.
</event>
<event>
 4    1  0.2201588E-006  0.1300000E+05  0.7957747E-01  0.1322471E+00
    9000001   -1    0    0    0    0  0.00000000000E+00  0.00000000000E+00  0.64999999231E+04  0.65000000000E+04  0.10000000000E+01 0.  0.
    9000001   -1    0    0    0    0 -0.00000000000E+00 -0.00000000000E+00 -0.64999999231E+04  0.65000000000E+04  0.10000000000E+01 0.  0.
    9000001    1    1    2    0    0  0.37447242090E+04  0.31659062182E+04 -0.42666236554E+04  0.65000000000E+04  0.10000000000E+01 0.  0.
    9000001    1    1    2    0    0 -0.37447242090E+04 -0.31659062182E+04  0.42666236554E+04  0.65000000000E+04  0.10000000000E+01 0.  0.
</event>
<event>
 4    1  0.2201588E-006  0.1300000E+05  0.7957747E-01  0.1322471E+00
    9000001   -1    0    0    0    0  0.00000000000E+00  0.00000000000E+00  0.64999999231E+04  0.65000000000E+04  0.10000000000E+01 0.  0.
    9000001   -1    0    0    0    0 -0.00000000000E+00 -0.00000000000E+00 -0.64999999231E+04  0.65000000000E+04  0.10000000000E+01 0.  0.
    9000001    1    1    2    0    0  0.53161905462E+04  0.19965097204E+04  0.31626043085E+04  0.65000000000E+04  0.10000000000E+01 0.  0.
    9000001    1    1    2    0    0 -0.53161905462E+04 -0.19965097204E+04 -0.31626043085E+04  0.65000000000E+04  0.10000000000E+01 0.  0.
</event>
<event>
 4    1  0.2201588E-006  0.1300000E+05  0.7957747E-01  0.1322471E+00
    9000001   -1    0    0    0    0  0.00000000000E+00  0.00000000000E+00  0.64999999231E+04  0.65000000000E+04  0.10000000000E+01 0.  0.
    9000001   -1    0    0    0    0 -0.00000000000E+00 -0.00000000000E+00 -0.64999999231E+04  0.65000000000E+04  0.10000000000E+01 0.  0.
    9000001    1    1    2    0    0  0.21990118078E+04  0.58965841437E+04 -0.16262353783E+04  0.65000000000E+04  0.10000000000E+01 0.  0.
    9000001    1    1    2    0    0 -0.21990118078E+04 -0.58965841437E+04  0.16262353783E+04  0.65000000000E+04  0.10000000000E+01 0.  0.
</event>
<event>
 4    1  0.2201588E-006  0.1300000E+05  0.7957747E-01  0.1322471E+00
    9000001   -1    0    0    0    0  0.00000000000E+00  0.00000000000E+00  0.64999999231E+04  0.65000000000E+04  0.10000000000E+01 0.  0.
    9000001   -1    0    0    0    0 -0.00000000000E+00 -0.00000000000E+00 -0.64999999231E+04  0.65000000000E+04  0.10000000000E+01 0.  0.
    9000001    1    1    2    0    0  0.13929605053E+04  0.59117009445E+04 -0.23154809380E+04  0.65000000000E+04  0.10000000000E+01 0.  0.
    9000001    1    1    2    0    0 -0.13929605053E+04 -0.59117009445E+04  0.23154809380E+04  0.65000000000E+04  0.10000000000E+01 0.  0.
</event>
<event>
 4    1  0.2201588E-006  0.1300000E+05  0.7957747E-01  0.1322471E+00
    9000001   -1    0    0    0    0  0.00000000000E+00  0.00000000000E+00  0.64999999231E+04  0.65000000000E+04  0.10000000000E+01 0.  0.
    9000001   -1    0    0    0    0 -0.00000000000E+00 -0.00000000000E+00 -0.64999999231E+04  0.65000000000E+04  0.10000000000E+01 0.  0.
    9000001    1    1    2    0    0  0.45680506765E+04  0.21875560140E+04  0.40740042590E+04  0.65000000000E+04  0.10000000000E+01 0.  0.
    9000001    1    1    2    0    0 -0.45680506765E+04 -0.21875560140E+04 -0.40740042590E+04  0.65000000000E+04  0.10000000000E+01 0.  0.
</event>
<event>
 4    1  0.2201588E-006  0.1300000E+05  0.7957747E-01  0.1322471E+00
    9000001   -1    0    0    0    0  0.00000000000E+00  0.00000000000E+00  0.64999999231E+04  0.65000000000E+04  0.10000000000E+01 0.  0.
    9000001   -1    0    0    0    0 -0.00000000000E+00 -0.00000000000E+00 -0.64999999231E+04  0.65000000000E+04  0.10000000000E+01 0.  0.
    9000001    1    1    2    0    0 -0.30873085241E+04 -0.55238916488E+04 -0.14849734440E+04  0.65000000000E+04  0.10000000000E+01 0.  0.
    9000001    1    1    2    0    0  0.30873085241E+04  0.55238916488E+04  0.14849734440E+04  0.65000000000E+04  0.10000000000E+01 0.  0.
</event>
<event>
 4    1  0.2201588E-006  0.1300000E+05  0.7957747E-01  0.1322471E+00
    9000001   -1    0    0    0    0  0.00000000000E+00  0.00000000000E+00  0.64999999231E+04  0.65000000000E+04  0.10000000000E+01 0.  0.
    9000001   -1    0    0    0    0 -0.00000000000E+00 -0.00000000000E+00 -0.64999999231E+04  0.65000000000E+04  0.10000000000E+01 0.  0.
    9000001    1    1    2    0    0 -0.28111468027E+04 -0.25477613890E+04 -0.52779128980E+04  0.65000000000E+04  0.10000000000E+01 0.  0.
    9000001    1    1    2    0    0  0.28111468027E+04  0.25477613890E+04  0.52779128980E+04  0.65000000000E+04  0.10000000000E+01 0.  0.
</event>
<event>
 4    1  0.2201588E-006  0.1300000E+05  0.7957747E-01  0.1322471E+00
    9000001   -1    0    0    0    0  0.00000000000E+00  0.00000000000E+00  0.64999999231E+04  0.65000000000E+04  0.10000000000E+01 0.  0.
    9000001   -1    0    0    0    0 -0.00000000000E+00 -0.00000000000E+00 -0.64999999231E+04  0.65000000000E+04  0.10000000000E+01 0.  0.
    9000001    1    1    2    0    0 -0.45584631493E+04  0.10370391654E+04 -0.45160782196E+04  0.65000000000E+04  0.10000000000E+01 0.  0.
    9000001    1    1    2    0    0  0.45584631493E+04 -0.10370391654E+04  0.45160782196E+04  0.65000000000E+04  0.10000000000E+01 0.  0.
</event>
<event>
 4    1  0.2201588E-006  0.1300000E+05  0.7957747E-01  0.1322471E+00
    9000001   -1    0    0    0    0  0.00000000000E+00  0.00000000000E+00  0.64999999231E+04  0.65000000000E+04  0.10000000000E+01 0.  0.
    9000001   -1    0    0    0    0 -0.00000000000E+00 -0.00000000000E+00 -0.64999999231E+04  0.65000000000E+04  0.10000000000E+01 0.  0.
    9000001    1    1    2    0    0 -0.10974462699E+04  0.57248833185E+03  0.63810553825E+04  0.65000000000E+04  0.10000000000E+01 0.  0.
    9000001    1    1    2    0    0  0.10974462699E+04 -0.57248833185E+03 -0.63810553825E+04  0.65000000000E+04  0.10000000000E+01 0.  0.
</event>
<event>
 4    1  0.2201588E-006  0.1300000E+05  0.7957747E-01  0.1322471E+00
    9000001   -1    0    0    0    0  0.00000000000E+00  0.00000000000E+00  0.64999999231E+04  0.65000000000E+04  0.10000000000E+01 0.  0.
    9000001   -1    0    0    0    0 -0.00000000000E+00 -0.00000000000E+00 -0.64999999231E+04  0.65000000000E+04  0.10000000000E+01 0.  0.
    9000001    1    1    2    0    0 -0.26406241891E+04 -0.34845226105E+04  0.48099069709E+04  0.65000000000E+04  0.10000000000E+01 0.  0.
    9000001    1    1    2    0    0  0.26406241891E+04  0.34845226105E+04 -0.48099069709E+04  0.65000000000E+04  0.10000000000E+01 0.  0.
</event>
<event>
 4    1  0.2201588E-006  0.1300000E+05  0.7957747E-01  0.1322471E+00
    9000001   -1    0    0    0    0  0.00000000000E+00  0.00000000000E+00  0.64999999231E+04  0.65000000000E+04  0.10000000000E+01 0.  0.
    9000001   -1    0    0    0    0 -0.00000000000E+00 -0.00000000000E+00 -0.64999999231E+04  0.65000000000E+04  0.10000000000E+01 0.  0.
    9000001    1    1    2    0    0 -0.62466058624E+04  0.13879092003E+04  0.11417627824E+04  0.65000000000E+04  0.10000000000E+01 0.  0.
    9000001    1    1    2    0    0  0.62466058624E+04 -0.13879092003E+04 -0.11417627824E+04  0.65000000000E+04  0.10000000000E+01 0.  0.
</event>
<event>
 4    1  0.2201588E-006  0.1300000E+05  0.7957747E-01  0.1322471E+00
    9000001   -1    0    0    0    0  0.00000000000E+00  0.00000000000E+00  0.64999999231E+04  0.65000000000E+04  0.10000000000E+01 0.  0.
    9000001   -1    0    0    0    0 -0.00000000000E+00 -0.00000000000E+00 -0.64999999231E+04  0.65000000000E+04  0.10000000000E+01 0.  0.
    9000001    1    1    2    0    0 -0.49181299473E+04  0.35211370194E+03 -0.42353291209E+04  0.65000000000E+04  0.10000000000E+01 0.  0.
    9000001    1    1    2    0    0  0.49181299473E+04 -0.35211370194E+03  0.42353291209E+04  0.65000000000E+04  0.10000000000E+01 0.  0.
</event>
<event>
 4    1  0.2201588E-006  0.1300000E+05  0.7957747E-01  0.1322471E+00
    9000001   -1    0    0    0    0  0.00000000000E+00  0.00000000000E+00  0.64999999231E+04  0.65000000000E+04  0.10000000000E+01 0.  0.
    9000001   -1    0    0    0    0 -0.00000000000E+00 -0.00000000000E+00 -0.64999999231E+04  0.65000000000E+04  0.10000000000E+01 0.  0.
    9000001    1    1    2    0    0  0.24339481668E+04  0.34245555271E+04  0.49596688159E+04  0.65000000000E+04  0.10000000000E+01 0.  0.
    9000001    1    1    2    0    0 -0.24339481668E+04 -0.34245555271E+04 -0.49596688159E+04  0.65000000000E+04  0.10000000000E+01 0.  0.
</event>
<event>
 4    1  0.2201588E-006  0.1300000E+05  0.7957747E-01  0.1322471E+00
    9000001   -1    0    0    0    0  0.00000000000E+00  0.00000000000E+00  0.64999999231E+04  0.65000000000E+04  0.10000000000E+01 0.  0.
    9000001   -1    0    0    0    0 -0.00000000000E+00 -0.00000000000E+00 -0.64999999231E+04  0.65000000000E+04  0.10000000000E+01 0.  0.
    9000001    1    1    2    0    0 -0.54093132816E+04 -0.27964365590E+04  0.22736031740E+04  0.65000000000E+04  0.10000000000E+01 0.  0.
    9000001    1    1    2    0    0  0.54093132816E+04  0.27964365590E+04 -0.22736031740E+04  0.65000000000E+04  0.10000000000E+01 0.  0.
</event>
<event>
 4    1  0.2201588E-006  0.1300000E+05  0.7957747E-01  0.1322471E+00
    9000001   -1    0    0    0    0  0.00000000000E+00  0.00000000000E+00  0.64999999231E+04  0.65000000000E+04  0.10000000000E+01 0.  0.
    9000001   -1    0    0    0    0 -0.00000000000E+00 -0.00000000000E+00 -0.64999999231E+04  0.65000000000E+04  0.10000000000E+01 0.  0.
    9000001    1    1    2    0    0 -0.56637095512E+04 -0.31333890091E+04 -0.59520285395E+03  0.65000000000E+04  0.10000000000E+01 0.  0.
    9000001    1    1    2    0    0  0.56637095512E+04  0.31333890091E+04  0.59520285395E+03  0.65000000000E+04  0.10000000000E+01 0.  0.
</event>
<event>
 4    1  0.2201588E-006  0.1300000E+05  0.7957747E-01  0.1322471E+00
    9000001   -1    0    0    0    0  0.00000000000E+00  0.00000000000E+00  0.64999999231E+04  0.65000000000E+04  0.10000000000E+01 0.  0.
    9000001   -1    0    0    0    0 -0.00000000000E+00 -0.00000000000E+00 -0.64999999231E+04  0.65000000000E+04  0.10000000000E+01 0.  0.
    9000001    1    1    2    0    0  0.43982270922E+04 -0.32765971301E+04 -0.34884822907E+04  0.65000000000E+04  0.10000000000E+01 0.  0.
    9000001    1    1    2    0    0 -0.43982270922E+04  0.32765971301E+04  0.34884822907E+04  0.65000000000E+04  0.10000000000E+01 0.  0.
</event>
<event>
 4    1  0.2201588E-006  0.1300000E+05  0.7957747E-01  0.1322471E+00
    9000001   -1    0    0    0    0  0.00000000000E+00  0.00000000000E+00  0.64999999231E+04  0.65000000000E+04  0.10000000000E+01 0.  0.
    9000001   -1    0    0    0    0 -0.00000000000E+00 -0.00000000000E+00 -0.64999999231E+04  0.65000000000E+04  0.10000000000E+01 0.  0.
    9000001    1    1    2    0    0  0.87363624836E+03  0.50743081687E+04 -0.39671343959E+04  0.65000000000E+04  0.10000000000E+01 0.  0.
    9000001    1    1    2    0    0 -0.87363624836E+03 -0.50743081687E+04  0.39671343959E+04  0.65000000000E+04  0.10000000000E+01 0.  0.
</event>
<event>
 4    1  0.2201588E-006  0.1300000E+05  0.7957747E-01  0.1322471E+00
    9000001   -1    0    0    0    0  0.00000000000E+00  0.00000000000E+00  0.64999999231E+04  0.65000000000E+04  0.10000000000E+01 0.  0.
    9000001   -1    0    0    0    0 -0.00000000000E+00 -0.00000000000E+00 -0.64999999231E+04  0.65000000000E+04  0.10000000000E+01 0.  0.
    9000001    1    1    2    0    0  0.26811773370E+04  0.53395177397E+04 -0.25594603718E+04  0.65000000000E+04  0.10000000000E+01 0.  0.
    9000001    1    1    2    0    0 -0.26811773370E+04 -0.53395177397E+04  0.25594603718E+04  0.65000000000E+04  0.10000000000E+01 0.  0.
</event>
<event>
 4    1  0.2201588E-006  0.1300000E+05  0.7957747E-01  0.1322471E+00
    9000001   -1    0    0    0    0  0.00000000000E+00  0.00000000000E+00  0.64999999231E+04  0.65000000000E+04  0.10000000000E+01 0.  0.
    9000001   -1    0    0    0    0 -0.00000000000E+00 -0.00000000000E+00 -0.64999999231E+04  0.65000000000E+04  0.10000000000E+01 0.  0.
    9000001    1    1    2    0    0  0.52835537069E+04 -0.99844056177E+03  0.36520098125E+04  0.65000000000E+04  0.10000000000E+01 0.  0.
    9000001    1    1    2    0    0 -0.52835537069E+04  0.99844056177E+03 -0.36520098125E+04  0.65000000000E+04  0.10000000000E+01 0.  0.
</event>
<event>
 4    1  0.2201588E-006  0.1300000E+05  0.7957747E-01  0.1322471E+00
    9000001   -1    0    0    0    0  0.00000000000E+00  0.00000000000E+00  0.64999999231E+04  0.65000000000E+04  0.10000000000E+01 0.  0.
    9000001   -1    0    0    0    0 -0.00000000000E+00 -0.00000000000E+00 -0.64999999231E+04  0.65000000000E+04  0.10000000000E+01 0.  0.
    9000001    1    1    2    0    0  0.56726883782E+04  0.31287177617E+04  0.53078313011E+03  0.65000000000E+04  0.10000000000E+01 0.  0.
    9000001    1    1    2    0    0 -0.56726883782E+04 -0.31287177617E+04 -0.53078313011E+03  0.65000000000E+04  0.10000000000E+01 0.  0.
</event>
<event>
 4    1  0.2201588E-006  0.1300000E+05  0.7957747E-01  0.1322471E+00
    9000001   -1    0    0    0    0  0.00000000000E+00  0.00000000000E+00  0.64999999231E+04  0.65000000000E+04  0.10000000000E+01 0.  0.
    9000001   -1    0    0    0    0 -0.00000000000E+00 -0.00000000000E+00 -0.64999999231E+04  0.65000000000E+04  0.10000000000E+01 0.  0.
    9000001    1    1    2    0    0 -0.42606442328E+04 -0.23473275943E+04 -0.43112600115E+04  0.65000000000E+04  0.10000000000E+01 0.  0.
    9000001    1    1    2    0    0  0.42606442328E+04  0.23473275943E+04  0.43112600115E+04  0.65000000000E+04  0.10000000000E+01 0.  0.
</event>
<event>
 4    1  0.2201588E-006  0.1300000E+05  0.7957747E-01  0.1322471E+00
    9000001   -1    0    0    0    0  0.00000000000E+00  0.00000000000E+00  0.64999999231E+04  0.65000000000E+04  0.10000000000E+01 0.  0.
    9000001   -1    0    0    0    0 -0.00000000000E+00 -0.00000000000E+00 -0.64999999231E+04  0.65000000000E+04  0.10000000000E+01 0.  0.
    9000001    1    1    2    0    0 -0.34355209759E+04  0.88845146973E+02  0.55171823573E+04  0.65000000000E+04  0.10000000000E+01 0.  0.
    9000001    1    1    2    0    0  0.34355209759E+04 -0.88845146973E+02 -0.55171823573E+04  0.65000000000E+04  0.10000000000E+01 0.  0.
</event>
<event>
 4    1  0.2201588E-006  0.1300000E+05  0.7957747E-01  0.1322471E+00
    9000001   -1    0    0    0    0  0.00000000000E+00  0.00000000000E+00  0.64999999231E+04  0.65000000000E+04  0.10000000000E+01 0.  0.
    9000001   -1    0    0    0    0 -0.00000000000E+00 -0.00000000000E+00 -0.64999999231E+04  0.65000000000E+04  0.10000000000E+01 0.  0.
    9000001    1    1    2    0    0 -0.49967156096E+04 -0.18386440215E+04  0.37285681272E+04  0.65000000000E+04  0.10000000000E+01 0.  0.
    9000001    1    1    2    0    0  0.49967156096E+04  0.18386440215E+04 -0.37285681272E+04  0.65000000000E+04  0.10000000000E+01 0.  0.
</event>
<event>
 4    1  0.2201588E-006  0.1300000E+05  0.7957747E-01  0.1322471E+00
    9000001   -1    0    0    0    0  0.00000000000E+00  0.00000000000E+00  0.64999999231E+04  0.65000000000E+04  0.10000000000E+01 0.  0.
    9000001   -1    0    0    0    0 -0.00000000000E+00 -0.00000000000E+00 -0.64999999231E+04  0.65000000000E+04  0.10000000000E+01 0.  0.
    9000001    1    1    2    0    0  0.48322861284E+04 -0.28774745183E+04 -0.32587037561E+04  0.65000000000E+04  0.10000000000E+01 0.  0.
    9000001    1    1    2    0    0 -0.48322861284E+04  0.28774745183E+04  0.32587037561E+04  0.65000000000E+04  0.10000000000E+01 0.  0.
</event>
<event>
 4    1  0.2201588E-006  0.1300000E+05  0.7957747E-01  0.1322471E+00
    9000001   -1    0    0    0    0  0.00000000000E+00  0.00000000000E+00  0.64999999231E+04  0.65000000000E+04  0.10000000000E+01 0.  0.
    9000001   -1    0    0    0    0 -0.00000000000E+00 -0.00000000000E+00 -0.64999999231E+04  0.65000000000E+04  0.10000000000E+01 0.  0.
    9000001    1    1    2    0    0  0.61012913742E+04  0.28852925683E+03  0.22228345496E+04  0.65000000000E+04  0.10000000000E+01 0.  0.
    9000001    1    1    2    0    0 -0.61012913742E+04 -0.28852925683E+03 -0.22228345496E+04  0.65000000000E+04  0.10000000000E+01 0.  0.
</event>
<event>
 4    1  0.2201588E-006  0.1300000E+05  0.7957747E-01  0.1322471E+00
    9000001   -1    0    0    0    0  0.00000000000E+00  0.00000000000E+00  0.64999999231E+04  0.65000000000E+04  0.10000000000E+01 0.  0.
    9000001   -1    0    0    0    0 -0.00000000000E+00 -0.00000000000E+00 -0.64999999231E+04  0.65000000000E+04  0.10000000000E+01 0.  0.
    9000001    1    1    2    0    0 -0.49406468084E+04 -0.20894959543E+04  0.36706967693E+04  0.65000000000E+04  0.10000000000E+01 0.  0.
    9000001    1    1    2    0    0  0.49406468084E+04  0.20894959543E+04 -0.36706967693E+04  0.65000000000E+04  0.10000000000E+01 0.  0.
</event>
<event>
 4    1  0.2201588E-006  0.1300000E+05  0.7957747E-01  0.1322471E+00
    9000001   -1    0    0    0    0  0.00000000000E+00  0.00000000000E+00  0.64999999231E+04  0.65000000000E+04  0.10000000000E+01 0.  0.
    9000001   -1    0    0    0    0 -0.00000000000E+00 -0.00000000000E+00 -0.64999999231E+04  0.65000000000E+04  0.10000000000E+01 0.  0.
    9000001    1    1    2    0    0 -0.39973221915E+04  0.32701940283E+04  0.39468019098E+04  0.65000000000E+04  0.10000000000E+01 0.  0.
    9000001    1    1    2    0    0  0.39973221915E+04 -0.32701940283E+04 -0.39468019098E+04  0.65000000000E+04  0.10000000000E+01 0.  0.
</event>
<event>
 4    1  0.2201588E-006  0.1300000E+05  0.7957747E-01  0.1322471E+00
    9000001   -1    0    0    0    0  0.00000000000E+00  0.00000000000E+00  0.64999999231E+04  0.65000000000E+04  0.10000000000E+01 0.  0.
    9000001   -1    0    0    0    0 -0.00000000000E+00 -0.00000000000E+00 -0.64999999231E+04  0.65000000000E+04  0.10000000000E+01 0.  0.
    9000001    1    1    2    0    0  0.10800614290E+04  0.62125308956E+04  0.15773161320E+04  0.65000000000E+04  0.10000000000E+01 0.  0.
    9000001    1    1    2    0    0 -0.10800614290E+04 -0.62125308956E+04 -0.15773161320E+04  0.65000000000E+04  0.10000000000E+01 0.  0.
</event>
<event>
 4    1  0.2201588E-006  0.1300000E+05  0.7957747E-01  0.1322471E+00
    9000001   -1    0    0    0    0  0.00000000000E+00  0.00000000000E+00  0.64999999231E+04  0.65000000000E+04  0.10000000000E+01 0.  0.
    9000001   -1    0    0    0    0 -0.00000000000E+00 -0.00000000000E+00 -0.64999999231E+04  0.65000000000E+04  0.10000000000E+01 0.  0.
    9000001    1    1    2    0    0 -0.37202773948E+04 -0.53371824914E+03  0.53032706829E+04  0.65000000000E+04  0.10000000000E+01 0.  0.
    9000001    1    1    2    0    0  0.37202773948E+04  0.53371824914E+03 -0.53032706829E+04  0.65000000000E+04  0.10000000000E+01 0.  0.
</event>
<event>
 4    1  0.2201588E-006  0.1300000E+05  0.7957747E-01  0.1322471E+00
    9000001   -1    0    0    0    0  0.00000000000E+00  0.00000000000E+00  0.64999999231E+04  0.65000000000E+04  0.10000000000E+01 0.  0.
    9000001   -1    0    0    0    0 -0.00000000000E+00 -0.00000000000E+00 -0.64999999231E+04  0.65000000000E+04  0.10000000000E+01 0.  0.
    9000001    1    1    2    0    0 -0.51880376340E+04 -0.23235624843E+04  0.31520345636E+04  0.65000000000E+04  0.10000000000E+01 0.  0.
    9000001    1    1    2    0    0  0.51880376340E+04  0.23235624843E+04 -0.31520345636E+04  0.65000000000E+04  0.10000000000E+01 0.  0.
</event>
<event>
 4    1  0.2201588E-006  0.1300000E+05  0.7957747E-01  0.1322471E+00
    9000001   -1    0    0    0    0  0.00000000000E+00  0.00000000000E+00  0.64999999231E+04  0.65000000000E+04  0.10000000000E+01 0.  0.
    9000001   -1    0    0    0    0 -0.00000000000E+00 -0.00000000000E+00 -0.64999999231E+04  0.65000000000E+04  0.10000000000E+01 0.  0.
    9000001    1    1    2    0    0  0.58269532980E+04 -0.26104639883E+04  0.12174120208E+04  0.65000000000E+04  0.10000000000E+01 0.  0.
    9000001    1    1    2    0    0 -0.58269532980E+04  0.26104639883E+04 -0.12174120208E+04  0.65000000000E+04  0.10000000000E+01 0.  0.
</event>
<event>
 4    1  0.2201588E-006  0.1300000E+05  0.7957747E-01  0.1322471E+00
    9000001   -1    0    0    0    0  0.00000000000E+00  0.00000000000E+00  0.64999999231E+04  0.65000000000E+04  0.10000000000E+01 0.  0.
    9000001   -1    0    0    0    0 -0.00000000000E+00 -0.00000000000E+00 -0.64999999231E+04  0.65000000000E+04  0.10000000000E+01 0.  0.
    9000001    1    1    2    0    0 -0.56333762209E+04  0.30384751111E+04 -0.11325812788E+04  0.65000000000E+04  0.10000000000E+01 0.  0.
    9000001    1    1    2    0    0  0.56333762209E+04 -0.30384751111E+04  0.11325812788E+04  0.65000000000E+04  0.10000000000E+01 0.  0.
</event>
<event>
 4    1  0.2201588E-006  0.1300000E+05  0.7957747E-01  0.1322471E+00
    9000001   -1    0    0    0    0  0.00000000000E+00  0.00000000000E+00  0.64999999231E+04  0.65000000000E+04  0.10000000000E+01 0.  0.
    9000001   -1    0    0    0    0 -0.00000000000E+00 -0.00000000000E+00 -0.64999999231E+04  0.65000000000E+04  0.10000000000E+01 0.  0.
    9000001    1    1    2    0    0 -0.51581624152E+04  0.38916721059E+04  0.70586664383E+03  0.65000000000E+04  0.10000000000E+01 0.  0.
    9000001    1    1    2    0    0  0.51581624152E+04 -0.38916721059E+04 -0.70586664383E+03  0.65000000000E+04  0.10000000000E+01 0.  0.
</event>
<event>
 4    1  0.2201588E-006  0.1300000E+05  0.7957747E-01  0.1322471E+00
    9000001   -1    0    0    0    0  0.00000000000E+00  0.00000000000E+00  0.64999999231E+04  0.65000000000E+04  0.10000000000E+01 0.  0.
    9000001   -1    0    0    0    0 -0.00000000000E+00 -0.00000000000E+00 -0.64999999231E+04  0.65000000000E+04  0.10000000000E+01 0.  0.
    9000001    1    1    2    0    0 -0.19743392389E+04  0.11391992825E+04  0.60872168160E+04  0.65000000000E+04  0.10000000000E+01 0.  0.
    9000001    1    1    2    0    0  0.19743392389E+04 -0.11391992825E+04 -0.60872168160E+04  0.65000000000E+04  0.10000000000E+01 0.  0.
</event>
<event>
 4    1  0.2201588E-006  0.1300000E+05  0.7957747E-01  0.1322471E+00
    9000001   -1    0    0    0    0  0.00000000000E+00  0.00000000000E+00  0.64999999231E+04  0.65000000000E+04  0.10000000000E+01 0.  0.
    9000001   -1    0    0    0    0 -0.00000000000E+00 -0.00000000000E+00 -0.64999999231E+04  0.65000000000E+04  0.10000000000E+01 0.  0.
    9000001    1    1    2    0    0 -0.76979800820E+03  0.63537653170E+04  0.11344938618E+04  0.65000000000E+04  0.10000000000E+01 0.  0.
    9000001    1    1    2    0    0  0.76979800820E+03 -0.63537653170E+04 -0.11344938618E+04  0.65000000000E+04  0.10000000000E+01 0.  0.
</event>
<event>
 4    1  0.2201588E-006  0.1300000E+05  0.7957747E-01  0.1322471E+00
    9000001   -1    0    0    0    0  0.00000000000E+00  0.00000000000E+00  0.64999999231E+04  0.65000000000E+04  0.10000000000E+01 0.  0.
    9000001   -1    0    0    0    0 -0.00000000000E+00 -0.00000000000E+00 -0.64999999231E+04  0.65000000000E+04  0.10000000000E+01 0.  0.
    9000001    1    1    2    0    0 -0.41507455618E+04  0.46007277897E+04  0.19633171131E+04  0.65000000000E+04  0.10000000000E+01 0.  0.
    9000001    1    1    2    0    0  0.41507455618E+04 -0.46007277897E+04 -0.19633171131E+04  0.65000000000E+04  0.10000000000E+01 0.  0.
</event>
<event>
 4    1  0.2201588E-006  0.1300000E+05  0.7957747E-01  0.1322471E+00
    9000001   -1    0    0    0    0  0.00000000000E+00  0.00000000000E+00  0.64999999231E+04  0.65000000000E+04  0.10000000000E+01 0.  0.
    9000001   -1    0    0    0    0 -0.00000000000E+00 -0.00000000000E+00 -0.64999999231E+04  0.65000000000E+04  0.10000000000E+01 0.  0.
    9000001    1    1    2    0    0 -0.56120165926E+04 -0.37082243353E+03  0.32584903694E+04  0.65000000000E+04  0.10000000000E+01 0.  0.
    9000001    1    1    2    0    0  0.56120165926E+04  0.37082243353E+03 -0.32584903694E+04  0.65000000000E+04  0.10000000000E+01 0.  0.
</event>
<event>
 4    1  0.2201588E-006  0.1300000E+05  0.7957747E-01  0.1322471E+00
    9000001   -1    0    0    0    0  0.00000000000E+00  0.00000000000E+00  0.64999999231E+04  0.65000000000E+04  0.10000000000E+01 0.  0.
    9000001   -1    0    0    0    0 -0.00000000000E+00 -0.00000000000E+00 -0.64999999231E+04  0.65000000000E+04  0.10000000000E+01 0.  0.
    9000001    1    1    2    0    0  0.29137317317E+04  0.53996845611E+04  0.21455938655E+04  0.65000000000E+04  0.10000000000E+01 0.  0.
    9000001    1    1    2    0    0 -0.29137317317E+04 -0.53996845611E+04 -0.21455938655E+04  0.65000000000E+04  0.10000000000E+01 0.  0.
</event>
<event>
 4    1  0.2201588E-006  0.1300000E+05  0.7957747E-01  0.1322471E+00
    9000001   -1    0    0    0    0  0.00000000000E+00  0.00000000000E+00  0.64999999231E+04  0.65000000000E+04  0.10000000000E+01 0.  0.
    9000001   -1    0    0    0    0 -0.00000000000E+00 -0.00000000000E+00 -0.64999999231E+04  0.65000000000E+04  0.10000000000E+01 0.  0.
    9000001    1    1    2    0    0  0.53973256735E+04  0.34015219903E+04 -0.12443965299E+04  0.65000000000E+04  0.10000000000E+01 0.  0.
    9000001    1    1    2    0    0 -0.53973256735E+04 -0.34015219903E+04  0.12443965299E+04  0.65000000000E+04  0.10000000000E+01 0.  0.
</event>
<event>
 4    1  0.2201588E-006  0.1300000E+05  0.7957747E-01  0.1322471E+00
    9000001   -1    0    0    0    0  0.00000000000E+00  0.00000000000E+00  0.64999999231E+04  0.65000000000E+04  0.10000000000E+01 0.  0.
    9000001   -1    0    0    0    0 -0.00000000000E+00 -0.00000000000E+00 -0.64999999231E+04  0.65000000000E+04  0.10000000000E+01 0.  0.
    9000001    1    1    2    0    0  0.63513933532E+04 -0.57594542032E+02 -0.13807549899E+04  0.65000000000E+04  0.10000000000E+01 0.  0.
    9000001    1    1    2    0    0 -0.63513933532E+04  0.57594542032E+02  0.13807549899E+04  0.65000000000E+04  0.10000000000E+01 0.  0.
</event>
<event>
 4    1  0.2201588E-006  0.1300000E+05  0.7957747E-01  0.1322471E+00
    9000001   -1    0    0    0    0  0.00000000000E+00  0.00000000000E+00  0.64999999231E+04  0.65000000000E+04  0.10000000000E+01 0.  0.
    9000001   -1    0    0    0    0 -0.00000000000E+00 -0.00000000000E+00 -0.64999999231E+04  0.65000000000E+04  0.10000000000E+01 0.  0.
    9000001    1    1    2    0    0  0.13651363326E+03  0.25345110666E+04 -0.59839465807E+04  0.65000000000E+04  0.10000000000E+01 0.  0.
    9000001    1    1    2    0    0 -0.13651363326E+03 -0.25345110666E+04  0.59839465807E+04  0.65000000000E+04  0.10000000000E+01 0.  0.
</event>
<event>
 4    1  0.2201588E-006  0.1300000E+05  0.7957747E-01  0.1322471E+00
    9000001   -1    0    0    0    0  0.00000000000E+00  0.00000000000E+00  0.64999999231E+04  0.65000000000E+04  0.10000000000E+01 0.  0.
    9000001   -1    0    0    0    0 -0.00000000000E+00 -0.00000000000E+00 -0.64999999231E+04  0.65000000000E+04  0.10000000000E+01 0.  0.
    9000001    1    1    2    0    0  0.45048698152E+04 -0.41801658774E+04 -0.21171585167E+04  0.65000000000E+04  0.10000000000E+01 0.  0.
    9000001    1    1    2    0    0 -0.45048698152E+04  0.41801658774E+04  0.21171585167E+04  0.65000000000E+04  0.10000000000E+01 0.  0.
</event>
<event>
 4    1  0.2201588E-006  0.1300000E+05  0.7957747E-01  0.1322471E+00
    9000001   -1    0    0    0    0  0.00000000000E+00  0.00000000000E+00  0.64999999231E+04  0.65000000000E+04  0.10000000000E+01 0.  0.
    9000001   -1    0    0    0    0 -0.00000000000E+00 -0.00000000000E+00 -0.64999999231E+04  0.65000000000E+04  0.10000000000E+01 0.  0.
    9000001    1    1    2    0    0 -0.51990428852E+04  0.38966726010E+04 -0.18945901529E+03  0.65000000000E+04  0.10000000000E+01 0.  0.
    9000001    1    1    2    0    0  0.51990428852E+04 -0.38966726010E+04  0.18945901529E+03  0.65000000000E+04  0.10000000000E+01 0.  0.
</event>
<event>
 4    1  0.2201588E-006  0.1300000E+05  0.7957747E-01  0.1322471E+00
    9000001   -1    0    0    0    0  0.00000000000E+00  0.00000000000E+00  0.64999999231E+04  0.65000000000E+04  0.10000000000E+01 0.  0.
    9000001   -1    0    0    0    0 -0.00000000000E+00 -0.00000000000E+00 -0.64999999231E+04  0.65000000000E+04  0.10000000000E+01 0.  0.
    9000001    1    1    2    0    0 -0.13806888110E+04  0.18774102158E+04  0.60678685128E+04  0.65000000000E+04  0.10000000000E+01 0.  0.
    9000001    1    1    2    0    0  0.13806888110E+04 -0.18774102158E+04 -0.60678685128E+04  0.65000000000E+04  0.10000000000E+01 0.  0.
</event>
<event>
 4    1  0.2201588E-006  0.1300000E+05  0.7957747E-01  0.1322471E+00
    9000001   -1    0    0    0    0  0.00000000000E+00  0.00000000000E+00  0.64999999231E+04  0.65000000000E+04  0.10000000000E+01 0.  0.
    9000001   -1    0    0    0    0 -0.00000000000E+00 -0.00000000000E+00 -0.64999999231E+04  0.65000000000E+04  0.10000000000E+01 0.  0.
    9000001    1    1    2    0    0  0.97024546702E+03 -0.64209292017E+04  0.28335652597E+03  0.65000000000E+04  0.10000000000E+01 0.  0.
    9000001    1    1    2    0    0 -0.97024546702E+03  0.64209292017E+04 -0.28335652597E+03  0.65000000000E+04  0.10000000000E+01 0.  0.
</event>
<event>
 4    1  0.2201588E-006  0.1300000E+05  0.7957747E-01  0.1322471E+00
    9000001   -1    0    0    0    0  0.00000000000E+00  0.00000000000E+00  0.64999999231E+04  0.65000000000E+04  0.10000000000E+01 0.  0.
    9000001   -1    0    0    0    0 -0.00000000000E+00 -0.00000000000E+00 -0.64999999231E+04  0.65000000000E+04  0.10000000000E+01 0.  0.
    9000001    1    1    2    0    0 -0.50076471459E+04 -0.86152637234E+03 -0.40535467646E+04  0.65000000000E+04  0.10000000000E+01 0.  0.
    9000001    1    1    2    0    0  0.50076471459E+04  0.86152637234E+03  0.40535467646E+04  0.65000000000E+04  0.10000000000E+01 0.  0.
</event>
<event>
 4    1  0.2201588E-006  0.1300000E+05  0.7957747E-01  0.1322471E+00
    9000001   -1    0    0    0    0  0.00000000000E+00  0.00000000000E+00  0.64999999231E+04  0.65000000000E+04  0.10000000000E+01 0.  0.
    9000001   -1    0    0    0    0 -0.00000000000E+00 -0.00000000000E+00 -0.64999999231E+04  0.65000000000E+04  0.10000000000E+01 0.  0.
    9000001    1    1    2    0    0  0.29575911249E+04 -0.32165436310E+04 -0.48121201987E+04  0.65000000000E+04  0.10000000000E+01 0.  0.
    9000001    1    1    2    0    0 -0.29575911249E+04  0.32165436310E+04  0.48121201987E+04  0.65000000000E+04  0.10000000000E+01 0.  0.
</event>
<event>
 4    1  0.2201588E-006  0.1300000E+05  0.7957747E-01  0.1322471E+00
    9000001   -1    0    0    0    0  0.00000000000E+00  0.00000000000E+00  0.64999999231E+04  0.65000000000E+04  0.10000000000E+01 0.  0.
    9000001   -1    0    0    0    0 -0.00000000000E+00 -0.00000000000E+00 -0.64999999231E+04  0.65000000000E+04  0.10000000000E+01 0.  0.
    9000001    1    1    2    0    0 -0.44983526562E+04 -0.46370294286E+04  0.71608690733E+03  0.65000000000E+04  0.10000000000E+01 0.  0.
    9000001    1    1    2    0    0  0.44983526562E+04  0.46370294286E+04 -0.71608690733E+03  0.65000000000E+04  0.10000000000E+01 0.  0.
</event>
<event>
 4    1  0.2201588E-006  0.1300000E+05  0.7957747E-01  0.1322471E+00
    9000001   -1    0    0    0    0  0.00000000000E+00  0.00000000000E+00  0.64999999231E+04  0.65000000000E+04  0.10000000000E+01 0.  0.
    9000001   -1    0    0    0    0 -0.00000000000E+00 -0.00000000000E+00 -0.64999999231E+04  0.65000000000E+04  0.10000000000E+01 0.  0.
    9000001    1    1    2    0    0  0.31882020810E+04 -0.53786068482E+04 -0.17765007357E+04  0.65000000000E+04  0.10000000000E+01 0.  0.
    9000001    1    1    2    0    0 -0.31882020810E+04  0.53786068482E+04  0.17765007357E+04  0.65000000000E+04  0.10000000000E+01 0.  0.
</event>
<event>
 4    1  0.2201588E-006  0.1300000E+05  0.7957747E-01  0.1322471E+00
    9000001   -1    0    0    0    0  0.00000000000E+00  0.00000000000E+00  0.64999999231E+04  0.65000000000E+04  0.10000000000E+01 0.  0.
    9000001   -1    0    0    0    0 -0.00000000000E+00 -0.00000000000E+00 -0.64999999231E+04  0.65000000000E+04  0.10000000000E+01 0.  0.
    9000001    1    1    2    0    0  0.58984251991E+04 -0.27240557949E+04 -0.19519015564E+03  0.65000000000E+04  0.10000000000E+01 0.  0.
    9000001    1    1    2    0    0 -0.58984251991E+04  0.27240557949E+04  0.19519015564E+03  0.65000000000E+04  0.10000000000E+01 0.  0.
</event>
<event>
 4    1  0.2201588E-006  0.1300000E+05  0.7957747E-01  0.1322471E+00
    9000001   -1    0    0    0    0  0.00000000000E+00  0.00000000000E+00  0.64999999231E+04  0.65000000000E+04  0.10000000000E+01 0.  0.
    9000001   -1    0    0    0    0 -0.00000000000E+00 -0.00000000000E+00 -0.64999999231E+04  0.65000000000E+04  0.10000000000E+01 0.  0.
    9000001    1    1    2    0    0 -0.39496408076E+04  0.70332795519E+03  0.51142610687E+04  0.65000000000E+04  0.10000000000E+01 0.  0.
    9000001    1    1    2    0    0  0.39496408076E+04 -0.70332795519E+03 -0.51142610687E+04  0.65000000000E+04  0.10000000000E+01 0.  0.
</event>
<event>
 4    1  0.2201588E-006  0.1300000E+05  0.7957747E-01  0.1322471E+00
    9000001   -1    0    0    0    0  0.00000000000E+00  0.00000000000E+00  0.64999999231E+04  0.65000000000E+04  0.10000000000E+01 0.  0.
    9000001   -1    0    0    0    0 -0.00000000000E+00 -0.00000000000E+00 -0.64999999231E+04  0.65000000000E+04  0.10000000000E+01 0.  0.
    9000001    1    1    2    0    0  0.21241056116E+04  0.39400951690E+04 -0.47131544013E+04  0.65000000000E+04  0.10000000000E+01 0.  0.
    9000001    1    1    2    0    0 -0.21241056116E+04 -0.39400951690E+04  0.47131544013E+04  0.65000000000E+04  0.10000000000E+01 0.  0.
</event>
<event>
 4    1  0.2201588E-006  0.1300000E+05  0.7957747E-01  0.1322471E+00
    9000001   -1    0    0    0    0  0.00000000000E+00  0.00000000000E+00  0.64999999231E+04  0.65000000000E+04  0.10000000000E+01 0.  0.
    9000001   -1    0    0    0    0 -0.00000000000E+00 -0.00000000000E+00 -0.64999999231E+04  0.65000000000E+04  0.10000000000E+01 0.  0.
    9000001    1    1    2    0    0 -0.44343920942E+04 -0.38423008056E+04 -0.27969430230E+04  0.65000000000E+04  0.10000000000E+01 0.  0.
    9000001    1    1    2    0    0  0.44343920942E+04  0.38423008056E+04  0.27969430230E+04  0.65000000000E+04  0.10000000000E+01 0.  0.
</event>
<event>
 4    1  0.2201588E-006  0.1300000E+05  0.7957747E-01  0.1322471E+00
    9000001   -1    0    0    0    0  0.00000000000E+00  0.00000000000E+00  0.64999999231E+04  0.65000000000E+04  0.10000000000E+01 0.  0.
    9000001   -1    0    0    0    0 -0.00000000000E+00 -0.00000000000E+00 -0.64999999231E+04  0.65000000000E+04  0.10000000000E+01 0.  0.
    9000001    1    1    2    0    0 -0.11851070085E+04  0.99573429614E+03  0.63130051156E+04  0.65000000000E+04  0.10000000000E+01 0.  0.
    9000001    1    1    2    0    0  0.11851070085E+04 -0.99573429614E+03 -0.63130051156E+04  0.65000000000E+04  0.10000000000E+01 0.  0.
</event>
<event>
 4    1  0.2201588E-006  0.1300000E+05  0.7957747E-01  0.1322471E+00
    9000001   -1    0    0    0    0  0.00000000000E+00  0.00000000000E+00  0.64999999231E+04  0.65000000000E+04  0.10000000000E+01 0.  0.
    9000001   -1    0    0    0    0 -0.00000000000E+00 -0.00000000000E+00 -0.64999999231E+04  0.65000000000E+04  0.10000000000E+01 0.  0.
    9000001    1    1    2    0    0 -0.46878224006E+04 -0.27917669556E+04 -0.35327549315E+04  0.65000000000E+04  0.10000000000E+01 0.  0.
    9000001    1    1    2    0    0  0.46878224006E+04  0.27917669556E+04  0.35327549315E+04  0.65000000000E+04  0.10000000000E+01 0.  0.
</event>
<event>
 4    1  0.2201588E-006  0.1300000E+05  0.7957747E-01  0.1322471E+00
    9000001   -1    0    0    0    0  0.00000000000E+00  0.00000000000E+00  0.64999999231E+04  0.65000000000E+04  0.10000000000E+01 0.  0.
    9000001   -1    0    0    0    0 -0.00000000000E+00 -0.00000000000E+00 -0.64999999231E+04  0.65000000000E+04  0.10000000000E+01 0.  0.
    9000001    1    1    2    0    0  0.19475515168E+04 -0.18833419942E+04 -0.59084740012E+04  0.65000000000E+04  0.10000000000E+01 0.  0.
    9000001    1    1    2    0    0 -0.19475515168E+04  0.18833419942E+04  0.59084740012E+04  0.65000000000E+04  0.10000000000E+01 0.  0.
</event>
<event>
 4    1  0.2201588E-006  0.1300000E+05  0.7957747E-01  0.1322471E+00
    9000001   -1    0    0    0    0  0.00000000000E+00  0.00000000000E+00  0.64999999231E+04  0.65000000000E+04  0.10000000000E+01 0.  0.
    9000001   -1    0    0    0    0 -0.00000000000E+00 -0.00000000000E+00 -0.64999999231E+04  0.65000000000E+04  0.10000000000E+01 0.  0.
    9000001    1    1    2    0    0  0.49194805688E+03  0.63246649029E+04 -0.14165450842E+04  0.65000000000E+04  0.10000000000E+01 0.  0.
    9000001    1    1    2    0    0 -0.49194805688E+03 -0.63246649029E+04  0.14165450842E+04  0.65000000000E+04  0.10000000000E+01 0.  0.
</event>
<event>
 4    1  0.2201588E-006  0.1300000E+05  0.7957747E-01  0.1322471E+00
    9000001   -1    0    0    0    0  0.00000000000E+00  0.00000000000E+00  0.64999999231E+04  0.65000000000E+04  0.10000000000E+01 0.  0.
    9000001   -1    0    0    0    0 -0.00000000000E+00 -0.00000000000E+00 -0.64999999231E+04  0.65000000000E+04  0.10000000000E+01 0.  0.
    9000001    1    1    2    0    0  0.21264877215E+04  0.11914513921E+04 -0.60256528734E+04  0.65000000000E+04  0.10000000000E+01 0.  0.
    9000001    1    1    2    0    0 -0.21264877215E+04 -0.11914513921E+04  0.60256528734E+04  0.65000000000E+04  0.10000000000E+01 0.  0.
</event>
<event>
 4    1  0.2201588E-006  0.1300000E+05  0.7957747E-01  0.1322471E+00
    9000001   -1    0    0    0    0  0.00000000000E+00  0.00000000000E+00  0.64999999231E+04  0.65000000000E+04  0.10000000000E+01 0.  0.
    9000001   -1    0    0    0    0 -0.00000000000E+00 -0.00000000000E+00 -0.64999999231E+04  0.65000000000E+04  0.10000000000E+01 0.  0.
    9000001    1    1    2    0    0  0.57209623469E+04  0.16570172191E+04  0.26028604958E+04  0.65000000000E+04  0.10000000000E+01 0.  0.
    9000001    1    1    2    0    0 -0.57209623469E+04 -0.16570172191E+04 -0.26028604958E+04  0.65000000000E+04  0.10000000000E+01 0.  0.
</event>
<event>
 4    1  0.2201588E-006  0.1300000E+05  0.7957747E-01  0.1322471E+00
    9000001   -1    0    0    0    0  0.00000000000E+00  0.00000000000E+00  0.64999999231E+04  0.65000000000E+04  0.10000000000E+01 0.  0.
    9000001   -1    0    0    0    0 -0.00000000000E+00 -0.00000000000E+00 -0.64999999231E+04  0.65000000000E+04  0.10000000000E+01 0.  0.
    9000001    1    1    2    0    0  0.11732924050E+04 -0.10866530064E+04  0.63002038995E+04  0.65000000000E+04  0.10000000000E+01 0.  0.
    9000001    1    1    2    0    0 -0.11732924050E+04  0.10866530064E+04 -0.63002038995E+04  0.65000000000E+04  0.10000000000E+01 0.  0.
</event>
<event>
 4    1  0.2201588E-006  0.1300000E+05  0.7957747E-01  0.1322471E+00
    9000001   -1    0    0    0    0  0.00000000000E+00  0.00000000000E+00  0.64999999231E+04  0.65000000000E+04  0.10000000000E+01 0.  0.
    9000001   -1    0    0    0    0 -0.00000000000E+00 -0.00000000000E+00 -0.64999999231E+04  0.65000000000E+04  0.10000000000E+01 0.  0.
    9000001    1    1    2    0    0 -0.25856782006E+04 -0.11035192784E+04  0.58605897694E+04  0.65000000000E+04  0.10000000000E+01 0.  0.
    9000001    1    1    2    0    0  0.25856782006E+04  0.11035192784E+04 -0.58605897694E+04  0.65000000000E+04  0.10000000000E+01 0.  0.
</event>
<event>
 4    1  0.2201588E-006  0.1300000E+05  0.7957747E-01  0.1322471E+00
    9000001   -1    0    0    0    0  0.00000000000E+00  0.00000000000E+00  0.64999999231E+04  0.65000000000E+04  0.10000000000E+01 0.  0.
    9000001   -1    0    0    0    0 -0.00000000000E+00 -0.00000000000E+00 -0.64999999231E+04  0.65000000000E+04  0.10000000000E+01 0.  0.
    9000001    1    1    2    0    0  0.17778882071E+04  0.32511845659E+04 -0.53403100510E+04  0.65000000000E+04  0.10000000000E+01 0.  0.
    9000001    1    1    2    0    0 -0.17778882071E+04 -0.32511845659E+04  0.53403100510E+04  0.65000000000E+04  0.10000000000E+01 0.  0.
</event>
<event>
 4    1  0.2201588E-006  0.1300000E+05  0.7957747E-01  0.1322471E+00
    9000001   -1    0    0    0    0  0.00000000000E+00  0.00000000000E+00  0.64999999231E+04  0.65000000000E+04  0.10000000000E+01 0.  0.
    9000001   -1    0    0    0    0 -0.00000000000E+00 -0.00000000000E+00 -0.64999999231E+04  0.65000000000E+04  0.10000000000E+01 0.  0.
    9000001    1    1    2    0    0  0.21581350578E+04 -0.53222598140E+04 -0.30440109304E+04  0.65000000000E+04  0.10000000000E+01 0.  0.
    9000001    1    1    2    0    0 -0.21581350578E+04  0.53222598140E+04  0.30440109304E+04  0.65000000000E+04  0.10000000000E+01 0.  0.
</event>
<event>
 4    1  0.2201588E-006  0.1300000E+05  0.7957747E-01  0.1322471E+00
    9000001   -1    0    0    0    0  0.00000000000E+00  0.00000000000E+00  0.64999999231E+04  0.65000000000E+04  0.10000000000E+01 0.  0.
    9000001   -1    0    0    0    0 -0.00000000000E+00 -0.00000000000E+00 -0.64999999231E+04  0.65000000000E+04  0.10000000000E+01 0.  0.
    9000001    1    1    2    0    0  0.30713850841E+04  0.40918095934E+04  0.40092002839E+04  0.65000000000E+04  0.10000000000E+01 0.  0.
    9000001    1    1    2    0    0 -0.30713850841E+04 -0.40918095934E+04 -0.40092002839E+04  0.65000000000E+04  0.10000000000E+01 0.  0.
</event>
<event>
 4    1  0.2201588E-006  0.1300000E+05  0.7957747E-01  0.1322471E+00
    9000001   -1    0    0    0    0  0.00000000000E+00  0.00000000000E+00  0.64999999231E+04  0.65000000000E+04  0.10000000000E+01 0.  0.
    9000001   -1    0    0    0    0 -0.00000000000E+00 -0.00000000000E+00 -0.64999999231E+04  0.65000000000E+04  0.10000000000E+01 0.  0.
    9000001    1    1    2    0    0 -0.19645625152E+04  0.17990661016E+04  0.59290685850E+04  0.65000000000E+04  0.10000000000E+01 0.  0.
    9000001    1    1    2    0    0  0.19645625152E+04 -0.17990661016E+04 -0.59290685850E+04  0.65000000000E+04  0.10000000000E+01 0.  0.
</event>
<event>
 4    1  0.2201588E-006  0.1300000E+05  0.7957747E-01  0.1322471E+00
    9000001   -1    0    0    0    0  0.00000000000E+00  0.00000000000E+00  0.64999999231E+04  0.65000000000E+04  0.10000000000E+01 0.  0.
    9000001   -1    0    0    0    0 -0.00000000000E+00 -0.00000000000E+00 -0.64999999231E+04  0.65000000000E+04  0.10000000000E+01 0.  0.
    9000001    1    1    2    0    0  0.55197073217E+04  0.29162374442E+04  0.18106322795E+04  0.65000000000E+04  0.10000000000E+01 0.  0.
    9000001    1    1    2    0    0 -0.55197073217E+04 -0.29162374442E+04 -0.18106322795E+04  0.65000000000E+04  0.10000000000E+01 0.  0.
</event>
<event>
 4    1  0.2201588E-006  0.1300000E+05  0.7957747E-01  0.1322471E+00
    9000001   -1    0    0    0    0  0.00000000000E+00  0.00000000000E+00  0.64999999231E+04  0.65000000000E+04  0.10000000000E+01 0.  0.
    9000001   -1    0    0    0    0 -0.00000000000E+00 -0.00000000000E+00 -0.64999999231E+04  0.65000000000E+04  0.10000000000E+01 0.  0.
    9000001    1    1    2    0    0  0.44539625655E+04 -0.17830886681E+04  0.43855229182E+04  0.65000000000E+04  0.10000000000E+01 0.  0.
    9000001    1    1    2    0    0 -0.44539625655E+04  0.17830886681E+04 -0.43855229182E+04  0.65000000000E+04  0.10000000000E+01 0.  0.
</event>
<event>
 4    1  0.2201588E-006  0.1300000E+05  0.7957747E-01  0.1322471E+00
    9000001   -1    0    0    0    0  0.00000000000E+00  0.00000000000E+00  0.64999999231E+04  0.65000000000E+04  0.10000000000E+01 0.  0.
    9000001   -1    0    0    0    0 -0.00000000000E+00 -0.00000000000E+00 -0.64999999231E+04  0.65000000000E+04  0.10000000000E+01 0.  0.
    9000001    1    1    2    0    0 -0.24647996059E+04 -0.81601756762E+03 -0.59589325581E+04  0.65000000000E+04  0.10000000000E+01 0.  0.
    9000001    1    1    2    0    0  0.24647996059E+04  0.81601756762E+03  0.59589325581E+04  0.65000000000E+04  0.10000000000E+01 0.  0.
</event>
<event>
 4    1  0.2201588E-006  0.1300000E+05  0.7957747E-01  0.1322471E+00
    9000001   -1    0    0    0    0  0.00000000000E+00  0.00000000000E+00  0.64999999231E+04  0.65000000000E+04  0.10000000000E+01 0.  0.
    9000001   -1    0    0    0    0 -0.00000000000E+00 -0.00000000000E+00 -0.64999999231E+04  0.65000000000E+04  0.10000000000E+01 0.  0.
    9000001    1    1    2    0    0 -0.45018529735E+04 -0.27129951980E+04 -0.38239999818E+04  0.65000000000E+04  0.10000000000E+01 0.  0.
    9000001    1    1    2    0    0  0.45018529735E+04  0.27129951980E+04  0.38239999818E+04  0.65000000000E+04  0.10000000000E+01 0.  0.
</event>
<event>
 4    1  0.2201588E-006  0.1300000E+05  0.7957747E-01  0.1322471E+00
    9000001   -1    0    0    0    0  0.00000000000E+00  0.00000000000E+00  0.64999999231E+04  0.65000000000E+04  0.10000000000E+01 0.  0.
    9000001   -1    0    0    0    0 -0.00000000000E+00 -0.00000000000E+00 -0.64999999231E+04  0.65000000000E+04  0.10000000000E+01 0.  0.
    9000001    1    1    2    0    0  0.48065344589E+04 -0.43637487893E+04  0.32391665440E+03  0.65000000000E+04  0.10000000000E+01 0.  0.
    9000001    1    1    2    0    0 -0.48065344589E+04  0.43637487893E+04 -0.32391665440E+03  0.65000000000E+04  0.10000000000E+01 0.  0.
</event>
<event>
 4    1  0.2201588E-006  0.1300000E+05  0.7957747E-01  0.1322471E+00
    9000001   -1    0    0    0    0  0.00000000000E+00  0.00000000000E+00  0.64999999231E+04  0.65000000000E+04  0.10000000000E+01 0.  0.
    9000001   -1    0    0    0    0 -0.00000000000E+00 -0.00000000000E+00 -0.64999999231E+04  0.65000000000E+04  0.10000000000E+01 0.  0.
    9000001    1    1    2    0    0  0.25616855402E+04 -0.48836323849E+04 -0.34406250772E+04  0.65000000000E+04  0.10000000000E+01 0.  0.
    9000001    1    1    2    0    0 -0.25616855402E+04  0.48836323849E+04  0.34406250772E+04  0.65000000000E+04  0.10000000000E+01 0.  0.
</event>
<event>
 4    1  0.2201588E-006  0.1300000E+05  0.7957747E-01  0.1322471E+00
    9000001   -1    0    0    0    0  0.00000000000E+00  0.00000000000E+00  0.64999999231E+04  0.65000000000E+04  0.10000000000E+01 0.  0.
    9000001   -1    0    0    0    0 -0.00000000000E+00 -0.00000000000E+00 -0.64999999231E+04  0.65000000000E+04  0.10000000000E+01 0.  0.
    9000001    1    1    2    0    0 -0.15602810281E+04 -0.60103895633E+04  0.19211297224E+04  0.65000000000E+04  0.10000000000E+01 0.  0.
    9000001    1    1    2    0    0  0.15602810281E+04  0.60103895633E+04 -0.19211297224E+04  0.65000000000E+04  0.10000000000E+01 0.  0.
</event>
<event>
 4    1  0.2201588E-006  0.1300000E+05  0.7957747E-01  0.1322471E+00
    9000001   -1    0    0    0    0  0.00000000000E+00  0.00000000000E+00  0.64999999231E+04  0.65000000000E+04  0.10000000000E+01 0.  0.
    9000001   -1    0    0    0    0 -0.00000000000E+00 -0.00000000000E+00 -0.64999999231E+04  0.65000000000E+04  0.10000000000E+01 0.  0.
    9000001    1    1    2    0    0 -0.21913445951E+04  0.61041195669E+04  0.43328071611E+03  0.65000000000E+04  0.10000000000E+01 0.  0.
    9000001    1    1    2    0    0  0.21913445951E+04 -0.61041195669E+04 -0.43328071611E+03  0.65000000000E+04  0.10000000000E+01 0.  0.
</event>
<event>
 4    1  0.2201588E-006  0.1300000E+05  0.7957747E-01  0.1322471E+00
    9000001   -1    0    0    0    0  0.00000000000E+00  0.00000000000E+00  0.64999999231E+04  0.65000000000E+04  0.10000000000E+01 0.  0.
    9000001   -1    0    0    0    0 -0.00000000000E+00 -0.00000000000E+00 -0.64999999231E+04  0.65000000000E+04  0.10000000000E+01 0.  0.
    9000001    1    1    2    0    0  0.54351524610E+04 -0.35094182745E+04  0.62697695311E+03  0.65000000000E+04  0.10000000000E+01 0.  0.
    9000001    1    1    2    0    0 -0.54351524610E+04  0.35094182745E+04 -0.62697695311E+03  0.65000000000E+04  0.10000000000E+01 0.  0.
</event>
<event>
 4    1  0.2201588E-006  0.1300000E+05  0.7957747E-01  0.1322471E+00
    9000001   -1    0    0    0    0  0.00000000000E+00  0.00000000000E+00  0.64999999231E+04  0.65000000000E+04  0.10000000000E+01 0.  0.
    9000001   -1    0    0    0    0 -0.00000000000E+00 -0.00000000000E+00 -0.64999999231E+04  0.65000000000E+04  0.10000000000E+01 0.  0.
    9000001    1    1    2    0    0  0.36613885646E+03 -0.34880585125E+04  0.54726035076E+04  0.65000000000E+04  0.10000000000E+01 0.  0.
    9000001    1    1    2    0    0 -0.36613885646E+03  0.34880585125E+04 -0.54726035076E+04  0.65000000000E+04  0.10000000000E+01 0.  0.
</event>
<event>
 4    1  0.2201588E-006  0.1300000E+05  0.7957747E-01  0.1322471E+00
    9000001   -1    0    0    0    0  0.00000000000E+00  0.00000000000E+00  0.64999999231E+04  0.65000000000E+04  0.10000000000E+01 0.  0.
    9000001   -1    0    0    0    0 -0.00000000000E+00 -0.00000000000E+00 -0.64999999231E+04  0.65000000000E+04  0.10000000000E+01 0.  0.
    9000001    1    1    2    0    0  0.45711211032E+04  0.44142120135E+04  0.13673270127E+04  0.65000000000E+04  0.10000000000E+01 0.  0.
    9000001    1    1    2    0    0 -0.45711211032E+04 -0.44142120135E+04 -0.13673270127E+04  0.65000000000E+04  0.10000000000E+01 0.  0.
</event>
<event>
 4    1  0.2201588E-006  0.1300000E+05  0.7957747E-01  0.1322471E+00
    9000001   -1    0    0    0    0  0.00000000000E+00  0.00000000000E+00  0.64999999231E+04  0.65000000000E+04  0.10000000000E+01 0.  0.
    9000001   -1    0    0    0    0 -0.00000000000E+00 -0.00000000000E+00 -0.64999999231E+04  0.65000000000E+04  0.10000000000E+01 0.  0.
    9000001    1    1    2    0    0 -0.28317645210E+03  0.46834514894E+04 -0.44983432776E+04  0.65000000000E+04  0.10000000000E+01 0.  0.
    9000001    1    1    2    0    0  0.28317645210E+03 -0.46834514894E+04  0.44983432776E+04  0.65000000000E+04  0.10000000000E+01 0.  0.
</event>
<event>
 4    1  0.2201588E-006  0.1300000E+05  0.7957747E-01  0.1322471E+00
    9000001   -1    0    0    0    0  0.00000000000E+00  0.00000000000E+00  0.64999999231E+04  0.65000000000E+04  0.10000000000E+01 0.  0.
    9000001   -1    0    0    0    0 -0.00000000000E+00 -0.00000000000E+00 -0.64999999231E+04  0.65000000000E+04  0.10000000000E+01 0.  0.
    9000001    1    1    2    0    0 -0.60890078872E+04 -0.78430276458E+03  0.21351466279E+04  0.65000000000E+04  0.10000000000E+01 0.  0.
    9000001    1    1    2    0    0  0.60890078872E+04  0.78430276458E+03 -0.21351466279E+04  0.65000000000E+04  0.10000000000E+01 0.  0.
</event>
<event>
 4    1  0.2201588E-006  0.1300000E+05  0.7957747E-01  0.1322471E+00
    9000001   -1    0    0    0    0  0.00000000000E+00  0.00000000000E+00  0.64999999231E+04  0.65000000000E+04  0.10000000000E+01 0.  0.
    9000001   -1    0    0    0    0 -0.00000000000E+00 -0.00000000000E+00 -0.64999999231E+04  0.65000000000E+04  0.10000000000E+01 0.  0.
    9000001    1    1    2    0    0  0.49063328756E+04  0.30603277298E+04 -0.29685503028E+04  0.65000000000E+04  0.10000000000E+01 0.  0.
    9000001    1    1    2    0    0 -0.49063328756E+04 -0.30603277298E+04  0.29685503028E+04  0.65000000000E+04  0.10000000000E+01 0.  0.
</event>
<event>
 4    1  0.2201588E-006  0.1300000E+05  0.7957747E-01  0.1322471E+00
    9000001   -1    0    0    0    0  0.00000000000E+00  0.00000000000E+00  0.64999999231E+04  0.65000000000E+04  0.10000000000E+01 0.  0.
    9000001   -1    0    0    0    0 -0.00000000000E+00 -0.00000000000E+00 -0.64999999231E+04  0.65000000000E+04  0.10000000000E+01 0.  0.
    9000001    1    1    2    0    0  0.37792468067E+04 -0.21455558045E+04  0.48336200578E+04  0.65000000000E+04  0.10000000000E+01 0.  0.
    9000001    1    1    2    0    0 -0.37792468067E+04  0.21455558045E+04 -0.48336200578E+04  0.65000000000E+04  0.10000000000E+01 0.  0.
</event>
<event>
 4    1  0.2201588E-006  0.1300000E+05  0.7957747E-01  0.1322471E+00
    9000001   -1    0    0    0    0  0.00000000000E+00  0.00000000000E+00  0.64999999231E+04  0.65000000000E+04  0.10000000000E+01 0.  0.
    9000001   -1    0    0    0    0 -0.00000000000E+00 -0.00000000000E+00 -0.64999999231E+04  0.65000000000E+04  0.10000000000E+01 0.  0.
    9000001    1    1    2    0    0  0.81868939644E+03 -0.26628772641E+04  0.58727192465E+04  0.65000000000E+04  0.10000000000E+01 0.  0.
    9000001    1    1    2    0    0 -0.81868939644E+03  0.26628772641E+04 -0.58727192465E+04  0.65000000000E+04  0.10000000000E+01 0.  0.
</event>
<event>
 4    1  0.2201588E-006  0.1300000E+05  0.7957747E-01  0.1322471E+00
    9000001   -1    0    0    0    0  0.00000000000E+00  0.00000000000E+00  0.64999999231E+04  0.65000000000E+04  0.10000000000E+01 0.  0.
    9000001   -1    0    0    0    0 -0.00000000000E+00 -0.00000000000E+00 -0.64999999231E+04  0.65000000000E+04  0.10000000000E+01 0.  0.
    9000001    1    1    2    0    0 -0.32963671983E+04 -0.18994150807E+04 -0.52703116270E+04  0.65000000000E+04  0.10000000000E+01 0.  0.
    9000001    1    1    2    0    0  0.32963671983E+04  0.18994150807E+04  0.52703116270E+04  0.65000000000E+04  0.10000000000E+01 0.  0.
</event>
<event>
 4    1  0.2201588E-006  0.1300000E+05  0.7957747E-01  0.1322471E+00
    9000001   -1    0    0    0    0  0.00000000000E+00  0.00000000000E+00  0.64999999231E+04  0.65000000000E+04  0.10000000000E+01 0.  0.
    9000001   -1    0    0    0    0 -0.00000000000E+00 -0.00000000000E+00 -0.64999999231E+04  0.65000000000E+04  0.10000000000E+01 0.  0.
    9000001    1    1    2    0    0  0.56834990018E+04  0.27583160411E+04  0.15295524554E+04  0.65000000000E+04  0.10000000000E+01 0.  0.
    9000001    1    1    2    0    0 -0.56834990018E+04 -0.27583160411E+04 -0.15295524554E+04  0.65000000000E+04  0.10000000000E+01 0.  0.
</event>
<event>
 4    1  0.2201588E-006  0.1300000E+05  0.7957747E-01  0.1322471E+00
    9000001   -1    0    0    0    0  0.00000000000E+00  0.00000000000E+00  0.64999999231E+04  0.65000000000E+04  0.10000000000E+01 0.  0.
    9000001   -1    0    0    0    0 -0.00000000000E+00 -0.00000000000E+00 -0.64999999231E+04  0.65000000000E+04  0.10000000000E+01 0.  0.
    9000001    1    1    2    0    0 -0.20122340323E+04  0.28956019217E+04 -0.54604397909E+04  0.65000000000E+04  0.10000000000E+01 0.  0.
    9000001    1    1    2    0    0  0.20122340323E+04 -0.28956019217E+04  0.54604397909E+04  0.65000000000E+04  0.10000000000E+01 0.  0.
</event>
<event>
 4    1  0.2201588E-006  0.1300000E+05  0.7957747E-01  0.1322471E+00
    9000001   -1    0    0    0    0  0.00000000000E+00  0.00000000000E+00  0.64999999231E+04  0.65000000000E+04  0.10000000000E+01 0.  0.
    9000001   -1    0    0    0    0 -0.00000000000E+00 -0.00000000000E+00 -0.64999999231E+04  0.65000000000E+04  0.10000000000E+01 0.  0.
    9000001    1    1    2    0    0 -0.34017085184E+03  0.37309784045E+04  0.53116930386E+04  0.65000000000E+04  0.10000000000E+01 0.  0.
    9000001    1    1    2    0    0  0.34017085184E+03 -0.37309784045E+04 -0.53116930386E+04  0.65000000000E+04  0.10000000000E+01 0.  0.
</event>
<event>
 4    1  0.2201588E-006  0.1300000E+05  0.7957747E-01  0.1322471E+00
    9000001   -1    0    0    0    0  0.00000000000E+00  0.00000000000E+00  0.64999999231E+04  0.65000000000E+04  0.10000000000E+01 0.  0.
    9000001   -1    0    0    0    0 -0.00000000000E+00 -0.00000000000E+00 -0.64999999231E+04  0.65000000000E+04  0.10000000000E+01 0.  0.
    9000001    1    1    2    0    0  0.36490193520E+04  0.53178708135E+04 -0.80926310903E+03  0.65000000000E+04  0.10000000000E+01 0.  0.
    9000001    1    1    2    0    0 -0.36490193520E+04 -0.53178708135E+04  0.80926310903E+03  0.65000000000E+04  0.10000000000E+01 0.  0.
</event>
<event>
 4    1  0.2201588E-006  0.1300000E+05  0.7957747E-01  0.1322471E+00
    9000001   -1    0    0    0    0  0.00000000000E+00  0.00000000000E+00  0.64999999231E+04  0.65000000000E+04  0.10000000000E+01 0.  0.
    9000001   -1    0    0    0    0 -0.00000000000E+00 -0.00000000000E+00 -0.64999999231E+04  0.65000000000E+04  0.10000000000E+01 0.  0.
    9000001    1    1    2    0    0 -0.45664871341E+04 -0.41876338398E+04 -0.19649216467E+04  0.65000000000E+04  0.10000000000E+01 0.  0.
    9000001    1    1    2    0    0  0.45664871341E+04  0.41876338398E+04  0.19649216467E+04  0.65000000000E+04  0.10000000000E+01 0.  0.
</event>
<event>
 4    1  0.2201588E-006  0.1300000E+05  0.7957747E-01  0.1322471E+00
    9000001   -1    0    0    0    0  0.00000000000E+00  0.00000000000E+00  0.64999999231E+04  0.65000000000E+04  0.10000000000E+01 0.  0.
    9000001   -1    0    0    0    0 -0.00000000000E+00 -0.00000000000E+00 -0.64999999231E+04  0.65000000000E+04  0.10000000000E+01 0.  0.
    9000001    1    1    2    0    0  0.32379959406E+04  0.44516770152E+04  0.34565811203E+04  0.65000000000E+04  0.10000000000E+01 0.  0.
    9000001    1    1    2    0    0 -0.32379959406E+04 -0.44516770152E+04 -0.34565811203E+04  0.65000000000E+04  0.10000000000E+01 0.  0.
</event>
<event>
 4    1  0.2201588E-006  0.1300000E+05  0.7957747E-01  0.1322471E+00
    9000001   -1    0    0    0    0  0.00000000000E+00  0.00000000000E+00  0.64999999231E+04  0.65000000000E+04  0.10000000000E+01 0.  0.
    9000001   -1    0    0    0    0 -0.00000000000E+00 -0.00000000000E+00 -0.64999999231E+04  0.65000000000E+04  0.10000000000E+01 0.  0.
    9000001    1    1    2    0    0  0.33592056383E+04  0.27449976170E+03  0.55579120504E+04  0.65000000000E+04  0.10000000000E+01 0.  0.
    9000001    1    1    2    0    0 -0.33592056383E+04 -0.27449976170E+03 -0.55579120504E+04  0.65000000000E+04  0.10000000000E+01 0.  0.
</event>
<event>
 4    1  0.2201588E-006  0.1300000E+05  0.7957747E-01  0.1322471E+00
    9000001   -1    0    0    0    0  0.00000000000E+00  0.00000000000E+00  0.64999999231E+04  0.65000000000E+04  0.10000000000E+01 0.  0.
    9000001   -1    0    0    0    0 -0.00000000000E+00 -0.00000000000E+00 -0.64999999231E+04  0.65000000000E+04  0.10000000000E+01 0.  0.
    9000001    1    1    2    0    0 -0.28186071685E+04 -0.55140758235E+04  0.19749482125E+04  0.65000000000E+04  0.10000000000E+01 0.  0.
    9000001    1    1    2    0    0  0.28186071685E+04  0.55140758235E+04 -0.19749482125E+04  0.65000000000E+04  0.10000000000E+01 0.  0.
</event>
<event>
 4    1  0.2201588E-006  0.1300000E+05  0.7957747E-01  0.1322471E+00
    9000001   -1    0    0    0    0  0.00000000000E+00  0.00000000000E+00  0.64999999231E+04  0.65000000000E+04  0.10000000000E+01 0.  0.
    9000001   -1    0    0    0    0 -0.00000000000E+00 -0.00000000000E+00 -0.64999999231E+04  0.65000000000E+04  0.10000000000E+01 0.  0.
    9000001    1    1    2    0    0 -0.54566547400E+04  0.48060217123E+03 -0.34991341217E+04  0.65000000000E+04  0.10000000000E+01 0.  0.
    9000001    1    1    2    0    0  0.54566547400E+04 -0.48060217123E+03  0.34991341217E+04  0.65000000000E+04  0.10000000000E+01 0.  0.
</event>
<event>
 4    1  0.2201588E-006  0.1300000E+05  0.7957747E-01  0.1322471E+00
    9000001   -1    0    0    0    0  0.00000000000E+00  0.00000000000E+00  0.64999999231E+04  0.65000000000E+04  0.10000000000E+01 0.  0.
    9000001   -1    0    0    0    0 -0.00000000000E+00 -0.00000000000E+00 -0.64999999231E+04  0.65000000000E+04  0.10000000000E+01 0.  0.
    9000001    1    1    2    0    0 -0.22865639770E+04 -0.42322629006E+04  0.43714499790E+04  0.65000000000E+04  0.10000000000E+01 0.  0.
    9000001    1    1    2    0    0  0.22865639770E+04  0.42322629006E+04 -0.43714499790E+04  0.65000000000E+04  0.10000000000E+01 0.  0.
</event>
<event>
 4    1  0.2201588E-006  0.1300000E+05  0.7957747E-01  0.1322471E+00
    9000001   -1    0    0    0    0  0.00000000000E+00  0.00000000000E+00  0.64999999231E+04  0.65000000000E+04  0.10000000000E+01 0.  0.
    9000001   -1    0    0    0    0 -0.00000000000E+00 -0.00000000000E+00 -0.64999999231E+04  0.65000000000E+04  0.10000000000E+01 0.  0.
    9000001    1    1    2    0    0  0.59401828219E+04 -0.25683479399E+03 -0.26264544410E+04  0.65000000000E+04  0.10000000000E+01 0.  0.
    9000001    1    1    2    0    0 -0.59401828219E+04  0.25683479399E+03  0.26264544410E+04  0.65000000000E+04  0.10000000000E+01 0.  0.
</event>
<event>
 4    1  0.2201588E-006  0.1300000E+05  0.7957747E-01  0.1322471E+00
    9000001   -1    0    0    0    0  0.00000000000E+00  0.00000000000E+00  0.64999999231E+04  0.65000000000E+04  0.10000000000E+01 0.  0.
    9000001   -1    0    0    0    0 -0.00000000000E+00 -0.00000000000E+00 -0.64999999231E+04  0.65000000000E+04  0.10000000000E+01 0.  0.
    9000001    1    1    2    0    0 -0.40738309068E+04  0.40696356115E+04 -0.30152888306E+04  0.65000000000E+04  0.10000000000E+01 0.  0.
    9000001    1    1    2    0    0  0.40738309068E+04 -0.40696356115E+04  0.30152888306E+04  0.65000000000E+04  0.10000000000E+01 0.  0.
</event>
<event>
 4    1  0.2201588E-006  0.1300000E+05  0.7957747E-01  0.1322471E+00
    9000001   -1    0    0    0    0  0.00000000000E+00  0.00000000000E+00  0.64999999231E+04  0.65000000000E+04  0.10000000000E+01 0.  0.
    9000001   -1    0    0    0    0 -0.00000000000E+00 -0.00000000000E+00 -0.64999999231E+04  0.65000000000E+04  0.10000000000E+01 0.  0.
    9000001    1    1    2    0    0 -0.44727523293E+04 -0.43988295924E+04  0.17014064237E+04  0.65000000000E+04  0.10000000000E+01 0.  0.
    9000001    1    1    2    0    0  0.44727523293E+04  0.43988295924E+04 -0.17014064237E+04  0.65000000000E+04  0.10000000000E+01 0.  0.
</event>
<event>
 4    1  0.2201588E-006  0.1300000E+05  0.7957747E-01  0.1322471E+00
    9000001   -1    0    0    0    0  0.00000000000E+00  0.00000000000E+00  0.64999999231E+04  0.65000000000E+04  0.10000000000E+01 0.  0.
    9000001   -1    0    0    0    0 -0.00000000000E+00 -0.00000000000E+00 -0.64999999231E+04  0.65000000000E+04  0.10000000000E+01 0.  0.
    9000001    1    1    2    0    0  0.53741878653E+04 -0.28957598863E+04  0.22321914051E+04  0.65000000000E+04  0.10000000000E+01 0.  0.
    9000001    1    1    2    0    0 -0.53741878653E+04  0.28957598863E+04 -0.22321914051E+04  0.65000000000E+04  0.10000000000E+01 0.  0.
</event>
<event>
 4    1  0.2201588E-006  0.1300000E+05  0.7957747E-01  0.1322471E+00
    9000001   -1    0    0    0    0  0.00000000000E+00  0.00000000000E+00  0.64999999231E+04  0.65000000000E+04  0.10000000000E+01 0.  0.
    9000001   -1    0    0    0    0 -0.00000000000E+00 -0.00000000000E+00 -0.64999999231E+04  0.65000000000E+04  0.10000000000E+01 0.  0.
    9000001    1    1    2    0    0 -0.60847258622E+04  0.19963581698E+04 -0.11138510850E+04  0.65000000000E+04  0.10000000000E+01 0.  0.
    9000001    1    1    2    0    0  0.60847258622E+04 -0.19963581698E+04  0.11138510850E+04  0.65000000000E+04  0.10000000000E+01 0.  0.
</event>
<event>
 4    1  0.2201588E-006  0.1300000E+05  0.7957747E-01  0.1322471E+00
    9000001   -1    0    0    0    0  0.00000000000E+00  0.00000000000E+00  0.64999999231E+04  0.65000000000E+04  0.10000000000E+01 0.  0.
    9000001   -1    0    0    0    0 -0.00000000000E+00 -0.00000000000E+00 -0.64999999231E+04  0.65000000000E+04  0.10000000000E+01 0.  0.
    9000001    1    1    2    0    0 -0.21653851431E+04 -0.61127052821E+04  0.44265146169E+03  0.65000000000E+04  0.10000000000E+01 0.  0.
    9000001    1    1    2    0    0  0.21653851431E+04  0.61127052821E+04 -0.44265146169E+03  0.65000000000E+04  0.10000000000E+01 0.  0.
</event>
<event>
 4    1  0.2201588E-006  0.1300000E+05  0.7957747E-01  0.1322471E+00
    9000001   -1    0    0    0    0  0.00000000000E+00  0.00000000000E+00  0.64999999231E+04  0.65000000000E+04  0.10000000000E+01 0.  0.
    9000001   -1    0    0    0    0 -0.00000000000E+00 -0.00000000000E+00 -0.64999999231E+04  0.65000000000E+04  0.10000000000E+01 0.  0.
    9000001    1    1    2    0    0 -0.51194571317E+04 -0.13043795625E+04 -0.37867864522E+04  0.65000000000E+04  0.10000000000E+01 0.  0.
    9000001    1    1    2    0    0  0.51194571317E+04  0.13043795625E+04  0.37867864522E+04  0.65000000000E+04  0.10000000000E+01 0.  0.
</event>
<event>
 4    1  0.2201588E-006  0.1300000E+05  0.7957747E-01  0.1322471E+00
    9000001   -1    0    0    0    0  0.00000000000E+00  0.00000000000E+00  0.64999999231E+04  0.65000000000E+04  0.10000000000E+01 0.  0.
    9000001   -1    0    0    0    0 -0.00000000000E+00 -0.00000000000E+00 -0.64999999231E+04  0.65000000000E+04  0.10000000000E+01 0.  0.
    9000001    1    1    2    0    0  0.16166605485E+04 -0.49124668801E+04  0.39375216600E+04  0.65000000000E+04  0.10000000000E+01 0.  0.
    9000001    1    1    2    0    0 -0.16166605485E+04  0.49124668801E+04 -0.39375216600E+04  0.65000000000E+04  0.10000000000E+01 0.  0.
</event>
<event>
 4    1  0.2201588E-006  0.1300000E+05  0.7957747E-01  0.1322471E+00
    9000001   -1    0    0    0    0  0.00000000000E+00  0.00000000000E+00  0.64999999231E+04  0.65000000000E+04  0.10000000000E+01 0.  0.
    9000001   -1    0    0    0    0 -0.00000000000E+00 -0.00000000000E+00 -0.64999999231E+04  0.65000000000E+04  0.10000000000E+01 0.  0.
    9000001    1    1    2    0    0 -0.73565617705E+03 -0.13749523161E+04 -0.63101755219E+04  0.65000000000E+04  0.10000000000E+01 0.  0.
    9000001    1    1    2    0    0  0.73565617705E+03  0.13749523161E+04  0.63101755219E+04  0.65000000000E+04  0.10000000000E+01 0.  0.
</event>
<event>
 4    1  0.2201588E-006  0.1300000E+05  0.7957747E-01  0.1322471E+00
    9000001   -1    0    0    0    0  0.00000000000E+00  0.00000000000E+00  0.64999999231E+04  0.65000000000E+04  0.10000000000E+01 0.  0.
    9000001   -1    0    0    0    0 -0.00000000000E+00 -0.00000000000E+00 -0.64999999231E+04  0.65000000000E+04  0.10000000000E+01 0.  0.
    9000001    1    1    2    0    0  0.18974769508E+04 -0.40756201089E+04 -0.46945607834E+04  0.65000000000E+04  0.10000000000E+01 0.  0.
    9000001    1    1    2    0    0 -0.18974769508E+04  0.40756201089E+04  0.46945607834E+04  0.65000000000E+04  0.10000000000E+01 0.  0.
</event>
<event>
 4    1  0.2201588E-006  0.1300000E+05  0.7957747E-01  0.1322471E+00
    9000001   -1    0    0    0    0  0.00000000000E+00  0.00000000000E+00  0.64999999231E+04  0.65000000000E+04  0.10000000000E+01 0.  0.
    9000001   -1    0    0    0    0 -0.00000000000E+00 -0.00000000000E+00 -0.64999999231E+04  0.65000000000E+04  0.10000000000E+01 0.  0.
    9000001    1    1    2    0    0  0.54471088001E+04 -0.20624741734E+04 -0.28853431345E+04  0.65000000000E+04  0.10000000000E+01 0.  0.
    9000001    1    1    2    0    0 -0.54471088001E+04  0.20624741734E+04  0.28853431345E+04  0.65000000000E+04  0.10000000000E+01 0.  0.
</event>
<event>
 4    1  0.2201588E-006  0.1300000E+05  0.7957747E-01  0.1322471E+00
    9000001   -1    0    0    0    0  0.00000000000E+00  0.00000000000E+00  0.64999999231E+04  0.65000000000E+04  0.10000000000E+01 0.  0.
    9000001   -1    0    0    0    0 -0.00000000000E+00 -0.00000000000E+00 -0.64999999231E+04  0.65000000000E+04  0.10000000000E+01 0.  0.
    9000001    1    1    2    0    0 -0.53254955337E+04  0.36781939003E+04 -0.59998829307E+03  0.65000000000E+04  0.10000000000E+01 0.  0.
    9000001    1    1    2    0    0  0.53254955337E+04 -0.36781939003E+04  0.59998829307E+03  0.65000000000E+04  0.10000000000E+01 0.  0.
</event>
<event>
 4    1  0.2201588E-006  0.1300000E+05  0.7957747E-01  0.1322471E+00
    9000001   -1    0    0    0    0  0.00000000000E+00  0.00000000000E+00  0.64999999231E+04  0.65000000000E+04  0.10000000000E+01 0.  0.
    9000001   -1    0    0    0    0 -0.00000000000E+00 -0.00000000000E+00 -0.64999999231E+04  0.65000000000E+04  0.10000000000E+01 0.  0.
    9000001    1    1    2    0    0 -0.39336874509E+03  0.26400140234E+04 -0.59266842321E+04  0.65000000000E+04  0.10000000000E+01 0.  0.
    9000001    1    1    2    0    0  0.39336874509E+03 -0.26400140234E+04  0.59266842321E+04  0.65000000000E+04  0.10000000000E+01 0.  0.
</event>
<event>
 4    1  0.2201588E-006  0.1300000E+05  0.7957747E-01  0.1322471E+00
    9000001   -1    0    0    0    0  0.00000000000E+00  0.00000000000E+00  0.64999999231E+04  0.65000000000E+04  0.10000000000E+01 0.  0.
    9000001   -1    0    0    0    0 -0.00000000000E+00 -0.00000000000E+00 -0.64999999231E+04  0.65000000000E+04  0.10000000000E+01 0.  0.
    9000001    1    1    2    0    0  0.26622276910E+04  0.45923913746E+04 -0.37513309883E+04  0.65000000000E+04  0.10000000000E+01 0.  0.
    9000001    1    1    2    0    0 -0.26622276910E+04 -0.45923913746E+04  0.37513309883E+04  0.65000000000E+04  0.10000000000E+01 0.  0.
</event>
<event>
 4    1  0.2201588E-006  0.1300000E+05  0.7957747E-01  0.1322471E+00
    9000001   -1    0    0    0    0  0.00000000000E+00  0.00000000000E+00  0.64999999231E+04  0.65000000000E+04  0.10000000000E+01 0.  0.
    9000001   -1    0    0    0    0 -0.00000000000E+00 -0.00000000000E+00 -0.64999999231E+04  0.65000000000E+04  0.10000000000E+01 0.  0.
    9000001    1    1    2    0    0 -0.40482702278E+04 -0.27742190355E+04 -0.42620670931E+04  0.65000000000E+04  0.10000000000E+01 0.  0.
    9000001    1    1    2    0    0  0.40482702278E+04  0.27742190355E+04  0.42620670931E+04  0.65000000000E+04  0.10000000000E+01 0.  0.
</event>
<event>
 4    1  0.2201588E-006  0.1300000E+05  0.7957747E-01  0.1322471E+00
    9000001   -1    0    0    0    0  0.00000000000E+00  0.00000000000E+00  0.64999999231E+04  0.65000000000E+04  0.10000000000E+01 0.  0.
    9000001   -1    0    0    0    0 -0.00000000000E+00 -0.00000000000E+00 -0.64999999231E+04  0.65000000000E+04  0.10000000000E+01 0.  0.
    9000001    1    1    2    0    0  0.26770252925E+04 -0.53116168318E+04  0.26211183138E+04  0.65000000000E+04  0.10000000000E+01 0.  0.
    9000001    1    1    2    0    0 -0.26770252925E+04  0.53116168318E+04 -0.26211183138E+04  0.65000000000E+04  0.10000000000E+01 0.  0.
</event>
<event>
 4    1  0.2201588E-006  0.1300000E+05  0.7957747E-01  0.1322471E+00
    9000001   -1    0    0    0    0  0.00000000000E+00  0.00000000000E+00  0.64999999231E+04  0.65000000000E+04  0.10000000000E+01 0.  0.
    9000001   -1    0    0    0    0 -0.00000000000E+00 -0.00000000000E+00 -0.64999999231E+04  0.65000000000E+04  0.10000000000E+01 0.  0.
    9000001    1    1    2    0    0  0.26661645458E+04  0.58672617333E+04  0.84664358973E+03  0.65000000000E+04  0.10000000000E+01 0.  0.
    9000001    1    1    2    0    0 -0.26661645458E+04 -0.58672617333E+04 -0.84664358973E+03  0.65000000000E+04  0.10000000000E+01 0.  0.
</event>
<event>
 4    1  0.2201588E-006  0.1300000E+05  0.7957747E-01  0.1322471E+00
    9000001   -1    0    0    0    0  0.00000000000E+00  0.00000000000E+00  0.64999999231E+04  0.65000000000E+04  0.10000000000E+01 0.  0.
    9000001   -1    0    0    0    0 -0.00000000000E+00 -0.00000000000E+00 -0.64999999231E+04  0.65000000000E+04  0.10000000000E+01 0.  0.
    9000001    1    1    2    0    0 -0.59913803529E+04  0.15046528902E+04 -0.20222215870E+04  0.65000000000E+04  0.10000000000E+01 0.  0.
    9000001    1    1    2    0    0  0.59913803529E+04 -0.15046528902E+04  0.20222215870E+04  0.65000000000E+04  0.10000000000E+01 0.  0.
</event>
<event>
 4    1  0.2201588E-006  0.1300000E+05  0.7957747E-01  0.1322471E+00
    9000001   -1    0    0    0    0  0.00000000000E+00  0.00000000000E+00  0.64999999231E+04  0.65000000000E+04  0.10000000000E+01 0.  0.
    9000001   -1    0    0    0    0 -0.00000000000E+00 -0.00000000000E+00 -0.64999999231E+04  0.65000000000E+04  0.10000000000E+01 0.  0.
    9000001    1    1    2    0    0  0.10758098290E+04 -0.40037138796E+04 -0.50062867858E+04  0.65000000000E+04  0.10000000000E+01 0.  0.
    9000001    1    1    2    0    0 -0.10758098290E+04  0.40037138796E+04  0.50062867858E+04  0.65000000000E+04  0.10000000000E+01 0.  0.
</event>
<event>
 4    1  0.2201588E-006  0.1300000E+05  0.7957747E-01  0.1322471E+00
    9000001   -1    0    0    0    0  0.00000000000E+00  0.00000000000E+00  0.64999999231E+04  0.65000000000E+04  0.10000000000E+01 0.  0.
    9000001   -1    0    0    0    0 -0.00000000000E+00 -0.00000000000E+00 -0.64999999231E+04  0.65000000000E+04  0.10000000000E+01 0.  0.
    9000001    1    1    2    0    0  0.61602721366E+04 -0.16921468296E+04 -0.11990351581E+04  0.65000000000E+04  0.10000000000E+01 0.  0.
    9000001    1    1    2    0    0 -0.61602721366E+04  0.16921468296E+04  0.11990351581E+04  0.65000000000E+04  0.10000000000E+01 0.  0.
</event>
<event>
 4    1  0.2201588E-006  0.1300000E+05  0.7957747E-01  0.1322471E+00
    9000001   -1    0    0    0    0  0.00000000000E+00  0.00000000000E+00  0.64999999231E+04  0.65000000000E+04  0.10000000000E+01 0.  0.
    9000001   -1    0    0    0    0 -0.00000000000E+00 -0.00000000000E+00 -0.64999999231E+04  0.65000000000E+04  0.10000000000E+01 0.  0.
    9000001    1    1    2    0    0 -0.23060504083E+04  0.18737567807E+04 -0.57811042233E+04  0.65000000000E+04  0.10000000000E+01 0.  0.
    9000001    1    1    2    0    0  0.23060504083E+04 -0.18737567807E+04  0.57811042233E+04  0.65000000000E+04  0.10000000000E+01 0.  0.
</event>
<event>
 4    1  0.2201588E-006  0.1300000E+05  0.7957747E-01  0.1322471E+00
    9000001   -1    0    0    0    0  0.00000000000E+00  0.00000000000E+00  0.64999999231E+04  0.65000000000E+04  0.10000000000E+01 0.  0.
    9000001   -1    0    0    0    0 -0.00000000000E+00 -0.00000000000E+00 -0.64999999231E+04  0.65000000000E+04  0.10000000000E+01 0.  0.
    9000001    1    1    2    0    0  0.42772891225E+04  0.41399528834E+04 -0.26106679003E+04  0.65000000000E+04  0.10000000000E+01 0.  0.
    9000001    1    1    2    0    0 -0.42772891225E+04 -0.41399528834E+04  0.26106679003E+04  0.65000000000E+04  0.10000000000E+01 0.  0.
</event>
<event>
 4    1  0.2201588E-006  0.1300000E+05  0.7957747E-01  0.1322471E+00
    9000001   -1    0    0    0    0  0.00000000000E+00  0.00000000000E+00  0.64999999231E+04  0.65000000000E+04  0.10000000000E+01 0.  0.
    9000001   -1    0    0    0    0 -0.00000000000E+00 -0.00000000000E+00 -0.64999999231E+04  0.65000000000E+04  0.10000000000E+01 0.  0.
    9000001    1    1    2    0    0 -0.86659586716E+03  0.63684593592E+04 -0.97043082866E+03  0.65000000000E+04  0.10000000000E+01 0.  0.
    9000001    1    1    2    0    0  0.86659586716E+03 -0.63684593592E+04  0.97043082866E+03  0.65000000000E+04  0.10000000000E+01 0.  0.
</event>
<event>
 4    1  0.2201588E-006  0.1300000E+05  0.7957747E-01  0.1322471E+00
    9000001   -1    0    0    0    0  0.00000000000E+00  0.00000000000E+00  0.64999999231E+04  0.65000000000E+04  0.10000000000E+01 0.  0.
    9000001   -1    0    0    0    0 -0.00000000000E+00 -0.00000000000E+00 -0.64999999231E+04  0.65000000000E+04  0.10000000000E+01 0.  0.
    9000001    1    1    2    0    0  0.25413982073E+04 -0.28696253450E+04  0.52494327819E+04  0.65000000000E+04  0.10000000000E+01 0.  0.
    9000001    1    1    2    0    0 -0.25413982073E+04  0.28696253450E+04 -0.52494327819E+04  0.65000000000E+04  0.10000000000E+01 0.  0.
</event>
<event>
 4    1  0.2201588E-006  0.1300000E+05  0.7957747E-01  0.1322471E+00
    9000001   -1    0    0    0    0  0.00000000000E+00  0.00000000000E+00  0.64999999231E+04  0.65000000000E+04  0.10000000000E+01 0.  0.
    9000001   -1    0    0    0    0 -0.00000000000E+00 -0.00000000000E+00 -0.64999999231E+04  0.65000000000E+04  0.10000000000E+01 0.  0.
    9000001    1    1    2    0    0 -0.20488847239E+04  0.45745592761E+04  0.41382940709E+04  0.65000000000E+04  0.10000000000E+01 0.  0.
    9000001    1    1    2    0    0  0.20488847239E+04 -0.45745592761E+04 -0.41382940709E+04  0.65000000000E+04  0.10000000000E+01 0.  0.
</event>
<event>
 4    1  0.2201588E-006  0.1300000E+05  0.7957747E-01  0.1322471E+00
    9000001   -1    0    0    0    0  0.00000000000E+00  0.00000000000E+00  0.64999999231E+04  0.65000000000E+04  0.10000000000E+01 0.  0.
    9000001   -1    0    0    0    0 -0.00000000000E+00 -0.00000000000E+00 -0.64999999231E+04  0.65000000000E+04  0.10000000000E+01 0.  0.
    9000001    1    1    2    0    0  0.35074565124E+04  0.47493297174E+04 -0.27187524802E+04  0.65000000000E+04  0.10000000000E+01 0.  0.
    9000001    1    1    2    0    0 -0.35074565124E+04 -0.47493297174E+04  0.27187524802E+04  0.65000000000E+04  0.10000000000E+01 0.  0.
</event>
<event>
 4    1  0.2201588E-006  0.1300000E+05  0.7957747E-01  0.1322471E+00
    9000001   -1    0    0    0    0  0.00000000000E+00  0.00000000000E+00  0.64999999231E+04  0.65000000000E+04  0.10000000000E+01 0.  0.
    9000001   -1    0    0    0    0 -0.00000000000E+00 -0.00000000000E+00 -0.64999999231E+04  0.65000000000E+04  0.10000000000E+01 0.  0.
    9000001    1    1    2    0    0  0.11292365867E+03 -0.25668755214E+03 -0.64939478553E+04  0.65000000000E+04  0.10000000000E+01 0.  0.
    9000001    1    1    2    0    0 -0.11292365867E+03  0.25668755214E+03  0.64939478553E+04  0.65000000000E+04  0.10000000000E+01 0.  0.
</event>
<event>
 4    1  0.2201588E-006  0.1300000E+05  0.7957747E-01  0.1322471E+00
    9000001   -1    0    0    0    0  0.00000000000E+00  0.00000000000E+00  0.64999999231E+04  0.65000000000E+04  0.10000000000E+01 0.  0.
    9000001   -1    0    0    0    0 -0.00000000000E+00 -0.00000000000E+00 -0.64999999231E+04  0.65000000000E+04  0.10000000000E+01 0.  0.
    9000001    1    1    2    0    0 -0.42506410049E+04  0.78903119496E+03 -0.48538108555E+04  0.65000000000E+04  0.10000000000E+01 0.  0.
    9000001    1    1    2    0    0  0.42506410049E+04 -0.78903119496E+03  0.48538108555E+04  0.65000000000E+04  0.10000000000E+01 0.  0.
</event>
<event>
 4    1  0.2201588E-006  0.1300000E+05  0.7957747E-01  0.1322471E+00
    9000001   -1    0    0    0    0  0.00000000000E+00  0.00000000000E+00  0.64999999231E+04  0.65000000000E+04  0.10000000000E+01 0.  0.
    9000001   -1    0    0    0    0 -0.00000000000E+00 -0.00000000000E+00 -0.64999999231E+04  0.65000000000E+04  0.10000000000E+01 0.  0.
    9000001    1    1    2    0    0 -0.14201736219E+04 -0.63081960552E+04  0.66315036984E+03  0.65000000000E+04  0.10000000000E+01 0.  0.
    9000001    1    1    2    0    0  0.14201736219E+04  0.63081960552E+04 -0.66315036984E+03  0.65000000000E+04  0.10000000000E+01 0.  0.
</event>
<event>
 4    1  0.2201588E-006  0.1300000E+05  0.7957747E-01  0.1322471E+00
    9000001   -1    0    0    0    0  0.00000000000E+00  0.00000000000E+00  0.64999999231E+04  0.65000000000E+04  0.10000000000E+01 0.  0.
    9000001   -1    0    0    0    0 -0.00000000000E+00 -0.00000000000E+00 -0.64999999231E+04  0.65000000000E+04  0.10000000000E+01 0.  0.
    9000001    1    1    2    0    0  0.79231632293E+03  0.63197904092E+04 -0.12971056350E+04  0.65000000000E+04  0.10000000000E+01 0.  0.
    9000001    1    1    2    0    0 -0.79231632293E+03 -0.63197904092E+04  0.12971056350E+04  0.65000000000E+04  0.10000000000E+01 0.  0.
</event>
<event>
 4    1  0.2201588E-006  0.1300000E+05  0.7957747E-01  0.1322471E+00
    9000001   -1    0    0    0    0  0.00000000000E+00  0.00000000000E+00  0.64999999231E+04  0.65000000000E+04  0.10000000000E+01 0.  0.
    9000001   -1    0    0    0    0 -0.00000000000E+00 -0.00000000000E+00 -0.64999999231E+04  0.65000000000E+04  0.10000000000E+01 0.  0.
    9000001    1    1    2    0    0  0.44369203647E+04 -0.25590825724E+03 -0.47432317719E+04  0.65000000000E+04  0.10000000000E+01 0.  0.
    9000001    1    1    2    0    0 -0.44369203647E+04  0.25590825724E+03  0.47432317719E+04  0.65000000000E+04  0.10000000000E+01 0.  0.
</event>
<event>
 4    1  0.2201588E-006  0.1300000E+05  0.7957747E-01  0.1322471E+00
    9000001   -1    0    0    0    0  0.00000000000E+00  0.00000000000E+00  0.64999999231E+04  0.65000000000E+04  0.10000000000E+01 0.  0.
    9000001   -1    0    0    0    0 -0.00000000000E+00 -0.00000000000E+00 -0.64999999231E+04  0.65000000000E+04  0.10000000000E+01 0.  0.
    9000001    1    1    2    0    0  0.15422931784E+04  0.40496058424E+04  0.48447934190E+04  0.65000000000E+04  0.10000000000E+01 0.  0.
    9000001    1    1    2    0    0 -0.15422931784E+04 -0.40496058424E+04 -0.48447934190E+04  0.65000000000E+04  0.10000000000E+01 0.  0.
</event>
<event>
 4    1  0.2201588E-006  0.1300000E+05  0.7957747E-01  0.1322471E+00
    9000001   -1    0    0    0    0  0.00000000000E+00  0.00000000000E+00  0.64999999231E+04  0.65000000000E+04  0.10000000000E+01 0.  0.
    9000001   -1    0    0    0    0 -0.00000000000E+00 -0.00000000000E+00 -0.64999999231E+04  0.65000000000E+04  0.10000000000E+01 0.  0.
    9000001    1    1    2    0    0 -0.29495699039E+04  0.57813144457E+04  0.35558355210E+03  0.65000000000E+04  0.10000000000E+01 0.  0.
    9000001    1    1    2    0    0  0.29495699039E+04 -0.57813144457E+04 -0.35558355210E+03  0.65000000000E+04  0.10000000000E+01 0.  0.
</event>
<event>
 4    1  0.2201588E-006  0.1300000E+05  0.7957747E-01  0.1322471E+00
    9000001   -1    0    0    0    0  0.00000000000E+00  0.00000000000E+00  0.64999999231E+04  0.65000000000E+04  0.10000000000E+01 0.  0.
    9000001   -1    0    0    0    0 -0.00000000000E+00 -0.00000000000E+00 -0.64999999231E+04  0.65000000000E+04  0.10000000000E+01 0.  0.
    9000001    1    1    2    0    0  0.47731765272E+04 -0.43641304233E+04 -0.64896108408E+03  0.65000000000E+04  0.10000000000E+01 0.  0.
    9000001    1    1    2    0    0 -0.47731765272E+04  0.43641304233E+04  0.64896108408E+03  0.65000000000E+04  0.10000000000E+01 0.  0.
</event>
<event>
 4    1  0.2201588E-006  0.1300000E+05  0.7957747E-01  0.1322471E+00
    9000001   -1    0    0    0    0  0.00000000000E+00  0.00000000000E+00  0.64999999231E+04  0.65000000000E+04  0.10000000000E+01 0.  0.
    9000001   -1    0    0    0    0 -0.00000000000E+00 -0.00000000000E+00 -0.64999999231E+04  0.65000000000E+04  0.10000000000E+01 0.  0.
    9000001    1    1    2    0    0 -0.14068867930E+03  0.46569581024E+04  0.45324327825E+04  0.65000000000E+04  0.10000000000E+01 0.  0.
    9000001    1    1    2    0    0  0.14068867930E+03 -0.46569581024E+04 -0.45324327825E+04  0.65000000000E+04  0.10000000000E+01 0.  0.
</event>
<event>
 4    1  0.2201588E-006  0.1300000E+05  0.7957747E-01  0.1322471E+00
    9000001   -1    0    0    0    0  0.00000000000E+00  0.00000000000E+00  0.64999999231E+04  0.65000000000E+04  0.10000000000E+01 0.  0.
    9000001   -1    0    0    0    0 -0.00000000000E+00 -0.00000000000E+00 -0.64999999231E+04  0.65000000000E+04  0.10000000000E+01 0.  0.
    9000001    1    1    2    0    0 -0.54491962344E+04 -0.17745750669E+04 -0.30671065731E+04  0.65000000000E+04  0.10000000000E+01 0.  0.
    9000001    1    1    2    0    0  0.54491962344E+04  0.17745750669E+04  0.30671065731E+04  0.65000000000E+04  0.10000000000E+01 0.  0.
</event>
<event>
 4    1  0.2201588E-006  0.1300000E+05  0.7957747E-01  0.1322471E+00
    9000001   -1    0    0    0    0  0.00000000000E+00  0.00000000000E+00  0.64999999231E+04  0.65000000000E+04  0.10000000000E+01 0.  0.
    9000001   -1    0    0    0    0 -0.00000000000E+00 -0.00000000000E+00 -0.64999999231E+04  0.65000000000E+04  0.10000000000E+01 0.  0.
    9000001    1    1    2    0    0 -0.10557743325E+04  0.23443832180E+04 -0.59698581965E+04  0.65000000000E+04  0.10000000000E+01 0.  0.
    9000001    1    1    2    0    0  0.10557743325E+04 -0.23443832180E+04  0.59698581965E+04  0.65000000000E+04  0.10000000000E+01 0.  0.
</event>
<event>
 4    1  0.2201588E-006  0.1300000E+05  0.7957747E-01  0.1322471E+00
    9000001   -1    0    0    0    0  0.00000000000E+00  0.00000000000E+00  0.64999999231E+04  0.65000000000E+04  0.10000000000E+01 0.  0.
    9000001   -1    0    0    0    0 -0.00000000000E+00 -0.00000000000E+00 -0.64999999231E+04  0.65000000000E+04  0.10000000000E+01 0.  0.
    9000001    1    1    2    0    0 -0.43488655088E+04 -0.78196647961E+03  0.47671685738E+04  0.65000000000E+04  0.10000000000E+01 0.  0.
    9000001    1    1    2    0    0  0.43488655088E+04  0.78196647961E+03 -0.47671685738E+04  0.65000000000E+04  0.10000000000E+01 0.  0.
</event>
<event>
 4    1  0.2201588E-006  0.1300000E+05  0.7957747E-01  0.1322471E+00
    9000001   -1    0    0    0    0  0.00000000000E+00  0.00000000000E+00  0.64999999231E+04  0.65000000000E+04  0.10000000000E+01 0.  0.
    9000001   -1    0    0    0    0 -0.00000000000E+00 -0.00000000000E+00 -0.64999999231E+04  0.65000000000E+04  0.10000000000E+01 0.  0.
    9000001    1    1    2    0    0 -0.15883642723E+04  0.56690373617E+04 -0.27548345377E+04  0.65000000000E+04  0.10000000000E+01 0.  0.
    9000001    1    1    2    0    0  0.15883642723E+04 -0.56690373617E+04  0.27548345377E+04  0.65000000000E+04  0.10000000000E+01 0.  0.
</event>
<event>
 4    1  0.2201588E-006  0.1300000E+05  0.7957747E-01  0.1322471E+00
    9000001   -1    0    0    0    0  0.00000000000E+00  0.00000000000E+00  0.64999999231E+04  0.65000000000E+04  0.10000000000E+01 0.  0.
    9000001   -1    0    0    0    0 -0.00000000000E+00 -0.00000000000E+00 -0.64999999231E+04  0.65000000000E+04  0.10000000000E+01 0.  0.
    9000001    1    1    2    0    0 -0.64807789246E+04 -0.44783555202E+03  0.22123934868E+03  0.65000000000E+04  0.10000000000E+01 0.  0.
    9000001    1    1    2    0    0  0.64807789246E+04  0.44783555202E+03 -0.22123934868E+03  0.65000000000E+04  0.10000000000E+01 0.  0.
</event>
<event>
 4    1  0.2201588E-006  0.1300000E+05  0.7957747E-01  0.1322471E+00
    9000001   -1    0    0    0    0  0.00000000000E+00  0.00000000000E+00  0.64999999231E+04  0.65000000000E+04  0.10000000000E+01 0.  0.
    9000001   -1    0    0    0    0 -0.00000000000E+00 -0.00000000000E+00 -0.64999999231E+04  0.65000000000E+04  0.10000000000E+01 0.  0.
    9000001    1    1    2    0    0  0.23357472201E+03 -0.54754788923E+04  0.34949352997E+04  0.65000000000E+04  0.10000000000E+01 0.  0.
    9000001    1    1    2    0    0 -0.23357472201E+03  0.54754788923E+04 -0.34949352997E+04  0.65000000000E+04  0.10000000000E+01 0.  0.
</event>
<event>
 4    1  0.2201588E-006  0.1300000E+05  0.7957747E-01  0.1322471E+00
    9000001   -1    0    0    0    0  0.00000000000E+00  0.00000000000E+00  0.64999999231E+04  0.65000000000E+04  0.10000000000E+01 0.  0.
    9000001   -1    0    0    0    0 -0.00000000000E+00 -0.00000000000E+00 -0.64999999231E+04  0.65000000000E+04  0.10000000000E+01 0.  0.
    9000001    1    1    2    0    0  0.34118275316E+04 -0.42543625496E+02  0.55324155606E+04  0.65000000000E+04  0.10000000000E+01 0.  0.
    9000001    1    1    2    0    0 -0.34118275316E+04  0.42543625496E+02 -0.55324155606E+04  0.65000000000E+04  0.10000000000E+01 0.  0.
</event>
<event>
 4    1  0.2201588E-006  0.1300000E+05  0.7957747E-01  0.1322471E+00
    9000001   -1    0    0    0    0  0.00000000000E+00  0.00000000000E+00  0.64999999231E+04  0.65000000000E+04  0.10000000000E+01 0.  0.
    9000001   -1    0    0    0    0 -0.00000000000E+00 -0.00000000000E+00 -0.64999999231E+04  0.65000000000E+04  0.10000000000E+01 0.  0.
    9000001    1    1    2    0    0 -0.95818190085E+03 -0.11783624990E+03  0.64279079850E+04  0.65000000000E+04  0.10000000000E+01 0.  0.
    9000001    1    1    2    0    0  0.95818190085E+03  0.11783624990E+03 -0.64279079850E+04  0.65000000000E+04  0.10000000000E+01 0.  0.
</event>
<event>
 4    1  0.2201588E-006  0.1300000E+05  0.7957747E-01  0.1322471E+00
    9000001   -1    0    0    0    0  0.00000000000E+00  0.00000000000E+00  0.64999999231E+04  0.65000000000E+04  0.10000000000E+01 0.  0.
    9000001   -1    0    0    0    0 -0.00000000000E+00 -0.00000000000E+00 -0.64999999231E+04  0.65000000000E+04  0.10000000000E+01 0.  0.
    9000001    1    1    2    0    0 -0.13068587593E+04 -0.50180786722E+04 -0.39193118813E+04  0.65000000000E+04  0.10000000000E+01 0.  0.
    9000001    1    1    2    0    0  0.13068587593E+04  0.50180786722E+04  0.39193118813E+04  0.65000000000E+04  0.10000000000E+01 0.  0.
</event>
<event>
 4    1  0.2201588E-006  0.1300000E+05  0.7957747E-01  0.1322471E+00
    9000001   -1    0    0    0    0  0.00000000000E+00  0.00000000000E+00  0.64999999231E+04  0.65000000000E+04  0.10000000000E+01 0.  0.
    9000001   -1    0    0    0    0 -0.00000000000E+00 -0.00000000000E+00 -0.64999999231E+04  0.65000000000E+04  0.10000000000E+01 0.  0.
    9000001    1    1    2    0    0  0.41564628856E+04  0.13314336874E+04 -0.48167519779E+04  0.65000000000E+04  0.10000000000E+01 0.  0.
    9000001    1    1    2    0    0 -0.41564628856E+04 -0.13314336874E+04  0.48167519779E+04  0.65000000000E+04  0.10000000000E+01 0.  0.
</event>
<event>
 4    1  0.2201588E-006  0.1300000E+05  0.7957747E-01  0.1322471E+00
    9000001   -1    0    0    0    0  0.00000000000E+00  0.00000000000E+00  0.64999999231E+04  0.65000000000E+04  0.10000000000E+01 0.  0.
    9000001   -1    0    0    0    0 -0.00000000000E+00 -0.00000000000E+00 -0.64999999231E+04  0.65000000000E+04  0.10000000000E+01 0.  0.
    9000001    1    1    2    0    0  0.43239985006E+03  0.64834926881E+04 -0.16538419799E+03  0.65000000000E+04  0.10000000000E+01 0.  0.
    9000001    1    1    2    0    0 -0.43239985006E+03 -0.64834926881E+04  0.16538419799E+03  0.65000000000E+04  0.10000000000E+01 0.  0.
</event>
<event>
 4    1  0.2201588E-006  0.1300000E+05  0.7957747E-01  0.1322471E+00
    9000001   -1    0    0    0    0  0.00000000000E+00  0.00000000000E+00  0.64999999231E+04  0.65000000000E+04  0.10000000000E+01 0.  0.
    9000001   -1    0    0    0    0 -0.00000000000E+00 -0.00000000000E+00 -0.64999999231E+04  0.65000000000E+04  0.10000000000E+01 0.  0.
    9000001    1    1    2    0    0  0.38735166770E+04 -0.49956483317E+04  0.15130648694E+04  0.65000000000E+04  0.10000000000E+01 0.  0.
    9000001    1    1    2    0    0 -0.38735166770E+04  0.49956483317E+04 -0.15130648694E+04  0.65000000000E+04  0.10000000000E+01 0.  0.
</event>
<event>
 4    1  0.2201588E-006  0.1300000E+05  0.7957747E-01  0.1322471E+00
    9000001   -1    0    0    0    0  0.00000000000E+00  0.00000000000E+00  0.64999999231E+04  0.65000000000E+04  0.10000000000E+01 0.  0.
    9000001   -1    0    0    0    0 -0.00000000000E+00 -0.00000000000E+00 -0.64999999231E+04  0.65000000000E+04  0.10000000000E+01 0.  0.
    9000001    1    1    2    0    0  0.43357967335E+04 -0.24050541628E+04  0.42031631136E+04  0.65000000000E+04  0.10000000000E+01 0.  0.
    9000001    1    1    2    0    0 -0.43357967335E+04  0.24050541628E+04 -0.42031631136E+04  0.65000000000E+04  0.10000000000E+01 0.  0.
</event>
<event>
 4    1  0.2201588E-006  0.1300000E+05  0.7957747E-01  0.1322471E+00
    9000001   -1    0    0    0    0  0.00000000000E+00  0.00000000000E+00  0.64999999231E+04  0.65000000000E+04  0.10000000000E+01 0.  0.
    9000001   -1    0    0    0    0 -0.00000000000E+00 -0.00000000000E+00 -0.64999999231E+04  0.65000000000E+04  0.10000000000E+01 0.  0.
    9000001    1    1    2    0    0  0.48438411718E+03  0.33368864116E+04 -0.55570279919E+04  0.65000000000E+04  0.10000000000E+01 0.  0.
    9000001    1    1    2    0    0 -0.48438411718E+03 -0.33368864116E+04  0.55570279919E+04  0.65000000000E+04  0.10000000000E+01 0.  0.
</event>
<event>
 4    1  0.2201588E-006  0.1300000E+05  0.7957747E-01  0.1322471E+00
    9000001   -1    0    0    0    0  0.00000000000E+00  0.00000000000E+00  0.64999999231E+04  0.65000000000E+04  0.10000000000E+01 0.  0.
    9000001   -1    0    0    0    0 -0.00000000000E+00 -0.00000000000E+00 -0.64999999231E+04  0.65000000000E+04  0.10000000000E+01 0.  0.
    9000001    1    1    2    0    0 -0.56932254607E+04 -0.14186910595E+04 -0.27972305109E+04  0.65000000000E+04  0.10000000000E+01 0.  0.
    9000001    1    1    2    0    0  0.56932254607E+04  0.14186910595E+04  0.27972305109E+04  0.65000000000E+04  0.10000000000E+01 0.  0.
</event>
<event>
 4    1  0.2201588E-006  0.1300000E+05  0.7957747E-01  0.1322471E+00
    9000001   -1    0    0    0    0  0.00000000000E+00  0.00000000000E+00  0.64999999231E+04  0.65000000000E+04  0.10000000000E+01 0.  0.
    9000001   -1    0    0    0    0 -0.00000000000E+00 -0.00000000000E+00 -0.64999999231E+04  0.65000000000E+04  0.10000000000E+01 0.  0.
    9000001    1    1    2    0    0  0.41820594647E+04 -0.42154751149E+04 -0.26438886492E+04  0.65000000000E+04  0.10000000000E+01 0.  0.
    9000001    1    1    2    0    0 -0.41820594647E+04  0.42154751149E+04  0.26438886492E+04  0.65000000000E+04  0.10000000000E+01 0.  0.
</event>
<event>
 4    1  0.2201588E-006  0.1300000E+05  0.7957747E-01  0.1322471E+00
    9000001   -1    0    0    0    0  0.00000000000E+00  0.00000000000E+00  0.64999999231E+04  0.65000000000E+04  0.10000000000E+01 0.  0.
    9000001   -1    0    0    0    0 -0.00000000000E+00 -0.00000000000E+00 -0.64999999231E+04  0.65000000000E+04  0.10000000000E+01 0.  0.
    9000001    1    1    2    0    0 -0.54033661142E+04 -0.35798329723E+04  0.48829246012E+03  0.65000000000E+04  0.10000000000E+01 0.  0.
    9000001    1    1    2    0    0  0.54033661142E+04  0.35798329723E+04 -0.48829246012E+03  0.65000000000E+04  0.10000000000E+01 0.  0.
</event>
<event>
 4    1  0.2201588E-006  0.1300000E+05  0.7957747E-01  0.1322471E+00
    9000001   -1    0    0    0    0  0.00000000000E+00  0.00000000000E+00  0.64999999231E+04  0.65000000000E+04  0.10000000000E+01 0.  0.
    9000001   -1    0    0    0    0 -0.00000000000E+00 -0.00000000000E+00 -0.64999999231E+04  0.65000000000E+04  0.10000000000E+01 0.  0.
    9000001    1    1    2    0    0  0.59619293910E+04  0.83232730969E+03  0.24520661057E+04  0.65000000000E+04  0.10000000000E+01 0.  0.
    9000001    1    1    2    0    0 -0.59619293910E+04 -0.83232730969E+03 -0.24520661057E+04  0.65000000000E+04  0.10000000000E+01 0.  0.
</event>
<event>
 4    1  0.2201588E-006  0.1300000E+05  0.7957747E-01  0.1322471E+00
    9000001   -1    0    0    0    0  0.00000000000E+00  0.00000000000E+00  0.64999999231E+04  0.65000000000E+04  0.10000000000E+01 0.  0.
    9000001   -1    0    0    0    0 -0.00000000000E+00 -0.00000000000E+00 -0.64999999231E+04  0.65000000000E+04  0.10000000000E+01 0.  0.
    9000001    1    1    2    0    0  0.38695617972E+02 -0.23191948935E+04 -0.60720537461E+04  0.65000000000E+04  0.10000000000E+01 0.  0.
    9000001    1    1    2    0    0 -0.38695617972E+02  0.23191948935E+04  0.60720537461E+04  0.65000000000E+04  0.10000000000E+01 0.  0.
</event>
<event>
 4    1  0.2201588E-006  0.1300000E+05  0.7957747E-01  0.1322471E+00
    9000001   -1    0    0    0    0  0.00000000000E+00  0.00000000000E+00  0.64999999231E+04  0.65000000000E+04  0.10000000000E+01 0.  0.
    9000001   -1    0    0    0    0 -0.00000000000E+00 -0.00000000000E+00 -0.64999999231E+04  0.65000000000E+04  0.10000000000E+01 0.  0.
    9000001    1    1    2    0    0 -0.30272692329E+04  0.53353419487E+04  0.21493641575E+04  0.65000000000E+04  0.10000000000E+01 0.  0.
    9000001    1    1    2    0    0  0.30272692329E+04 -0.53353419487E+04 -0.21493641575E+04  0.65000000000E+04  0.10000000000E+01 0.  0.
</event>
<event>
 4    1  0.2201588E-006  0.1300000E+05  0.7957747E-01  0.1322471E+00
    9000001   -1    0    0    0    0  0.00000000000E+00  0.00000000000E+00  0.64999999231E+04  0.65000000000E+04  0.10000000000E+01 0.  0.
    9000001   -1    0    0    0    0 -0.00000000000E+00 -0.00000000000E+00 -0.64999999231E+04  0.65000000000E+04  0.10000000000E+01 0.  0.
    9000001    1    1    2    0    0 -0.52674764335E+04 -0.18184366373E+04 -0.33461887601E+04  0.65000000000E+04  0.10000000000E+01 0.  0.
    9000001    1    1    2    0    0  0.52674764335E+04  0.18184366373E+04  0.33461887601E+04  0.65000000000E+04  0.10000000000E+01 0.  0.
</event>
<event>
 4    1  0.2201588E-006  0.1300000E+05  0.7957747E-01  0.1322471E+00
    9000001   -1    0    0    0    0  0.00000000000E+00  0.00000000000E+00  0.64999999231E+04  0.65000000000E+04  0.10000000000E+01 0.  0.
    9000001   -1    0    0    0    0 -0.00000000000E+00 -0.00000000000E+00 -0.64999999231E+04  0.65000000000E+04  0.10000000000E+01 0.  0.
    9000001    1    1    2    0    0  0.27198893639E+04 -0.17110678686E+04  0.56501723511E+04  0.65000000000E+04  0.10000000000E+01 0.  0.
    9000001    1    1    2    0    0 -0.27198893639E+04  0.17110678686E+04 -0.56501723511E+04  0.65000000000E+04  0.10000000000E+01 0.  0.
</event>
<event>
 4    1  0.2201588E-006  0.1300000E+05  0.7957747E-01  0.1322471E+00
    9000001   -1    0    0    0    0  0.00000000000E+00  0.00000000000E+00  0.64999999231E+04  0.65000000000E+04  0.10000000000E+01 0.  0.
    9000001   -1    0    0    0    0 -0.00000000000E+00 -0.00000000000E+00 -0.64999999231E+04  0.65000000000E+04  0.10000000000E+01 0.  0.
    9000001    1    1    2    0    0 -0.29191222360E+04 -0.41533435264E+04 -0.40593671826E+04  0.65000000000E+04  0.10000000000E+01 0.  0.
    9000001    1    1    2    0    0  0.29191222360E+04  0.41533435264E+04  0.40593671826E+04  0.65000000000E+04  0.10000000000E+01 0.  0.
</event>
<event>
 4    1  0.2201588E-006  0.1300000E+05  0.7957747E-01  0.1322471E+00
    9000001   -1    0    0    0    0  0.00000000000E+00  0.00000000000E+00  0.64999999231E+04  0.65000000000E+04  0.10000000000E+01 0.  0.
    9000001   -1    0    0    0    0 -0.00000000000E+00 -0.00000000000E+00 -0.64999999231E+04  0.65000000000E+04  0.10000000000E+01 0.  0.
    9000001    1    1    2    0    0 -0.35343426543E+04 -0.53928773960E+04 -0.82176297924E+03  0.65000000000E+04  0.10000000000E+01 0.  0.
    9000001    1    1    2    0    0  0.35343426543E+04  0.53928773960E+04  0.82176297924E+03  0.65000000000E+04  0.10000000000E+01 0.  0.
</event>
<event>
 4    1  0.2201588E-006  0.1300000E+05  0.7957747E-01  0.1322471E+00
    9000001   -1    0    0    0    0  0.00000000000E+00  0.00000000000E+00  0.64999999231E+04  0.65000000000E+04  0.10000000000E+01 0.  0.
    9000001   -1    0    0    0    0 -0.00000000000E+00 -0.00000000000E+00 -0.64999999231E+04  0.65000000000E+04  0.10000000000E+01 0.  0.
    9000001    1    1    2    0    0  0.59275712411E+04 -0.25626961409E+04  0.73924736814E+03  0.65000000000E+04  0.10000000000E+01 0.  0.
    9000001    1    1    2    0    0 -0.59275712411E+04  0.25626961409E+04 -0.73924736814E+03  0.65000000000E+04  0.10000000000E+01 0.  0.
</event>
<event>
 4    1  0.2201588E-006  0.1300000E+05  0.7957747E-01  0.1322471E+00
    9000001   -1    0    0    0    0  0.00000000000E+00  0.00000000000E+00  0.64999999231E+04  0.65000000000E+04  0.10000000000E+01 0.  0.
    9000001   -1    0    0    0    0 -0.00000000000E+00 -0.00000000000E+00 -0.64999999231E+04  0.65000000000E+04  0.10000000000E+01 0.  0.
    9000001    1    1    2    0    0  0.47667552317E+04 -0.39925045358E+04 -0.18941887691E+04  0.65000000000E+04  0.10000000000E+01 0.  0.
    9000001    1    1    2    0    0 -0.47667552317E+04  0.39925045358E+04  0.18941887691E+04  0.65000000000E+04  0.10000000000E+01 0.  0.
</event>
<event>
 4    1  0.2201588E-006  0.1300000E+05  0.7957747E-01  0.1322471E+00
    9000001   -1    0    0    0    0  0.00000000000E+00  0.00000000000E+00  0.64999999231E+04  0.65000000000E+04  0.10000000000E+01 0.  0.
    9000001   -1    0    0    0    0 -0.00000000000E+00 -0.00000000000E+00 -0.64999999231E+04  0.65000000000E+04  0.10000000000E+01 0.  0.
    9000001    1    1    2    0    0  0.52239869952E+04 -0.23343469707E+03 -0.38607599144E+04  0.65000000000E+04  0.10000000000E+01 0.  0.
    9000001    1    1    2    0    0 -0.52239869952E+04  0.23343469707E+03  0.38607599144E+04  0.65000000000E+04  0.10000000000E+01 0.  0.
</event>
<event>
 4    1  0.2201588E-006  0.1300000E+05  0.7957747E-01  0.1322471E+00
    9000001   -1    0    0    0    0  0.00000000000E+00  0.00000000000E+00  0.64999999231E+04  0.65000000000E+04  0.10000000000E+01 0.  0.
    9000001   -1    0    0    0    0 -0.00000000000E+00 -0.00000000000E+00 -0.64999999231E+04  0.65000000000E+04  0.10000000000E+01 0.  0.
    9000001    1    1    2    0    0 -0.30515174573E+04 -0.37004361217E+04  0.43869138033E+04  0.65000000000E+04  0.10000000000E+01 0.  0.
    9000001    1    1    2    0    0  0.30515174573E+04  0.37004361217E+04 -0.43869138033E+04  0.65000000000E+04  0.10000000000E+01 0.  0.
</event>
<event>
 4    1  0.2201588E-006  0.1300000E+05  0.7957747E-01  0.1322471E+00
    9000001   -1    0    0    0    0  0.00000000000E+00  0.00000000000E+00  0.64999999231E+04  0.65000000000E+04  0.10000000000E+01 0.  0.
    9000001   -1    0    0    0    0 -0.00000000000E+00 -0.00000000000E+00 -0.64999999231E+04  0.65000000000E+04  0.10000000000E+01 0.  0.
    9000001    1    1    2    0    0 -0.54962945789E+04  0.34606452774E+04  0.25432099060E+03  0.65000000000E+04  0.10000000000E+01 0.  0.
    9000001    1    1    2    0    0  0.54962945789E+04 -0.34606452774E+04 -0.25432099060E+03  0.65000000000E+04  0.10000000000E+01 0.  0.
</event>
<event>
 4    1  0.2201588E-006  0.1300000E+05  0.7957747E-01  0.1322471E+00
    9000001   -1    0    0    0    0  0.00000000000E+00  0.00000000000E+00  0.64999999231E+04  0.65000000000E+04  0.10000000000E+01 0.  0.
    9000001   -1    0    0    0    0 -0.00000000000E+00 -0.00000000000E+00 -0.64999999231E+04  0.65000000000E+04  0.10000000000E+01 0.  0.
    9000001    1    1    2    0    0 -0.59306228065E+04 -0.54466015354E+03  0.26040463599E+04  0.65000000000E+04  0.10000000000E+01 0.  0.
    9000001    1    1    2    0    0  0.59306228065E+04  0.54466015354E+03 -0.26040463599E+04  0.65000000000E+04  0.10000000000E+01 0.  0.
</event>
<event>
 4    1  0.2201588E-006  0.1300000E+05  0.7957747E-01  0.1322471E+00
    9000001   -1    0    0    0    0  0.00000000000E+00  0.00000000000E+00  0.64999999231E+04  0.65000000000E+04  0.10000000000E+01 0.  0.
    9000001   -1    0    0    0    0 -0.00000000000E+00 -0.00000000000E+00 -0.64999999231E+04  0.65000000000E+04  0.10000000000E+01 0.  0.
    9000001    1    1    2    0    0 -0.18381294173E+04 -0.53002826971E+04 -0.32830294815E+04  0.65000000000E+04  0.10000000000E+01 0.  0.
    9000001    1    1    2    0    0  0.18381294173E+04  0.53002826971E+04  0.32830294815E+04  0.65000000000E+04  0.10000000000E+01 0.  0.
</event>
<event>
 4    1  0.2201588E-006  0.1300000E+05  0.7957747E-01  0.1322471E+00
    9000001   -1    0    0    0    0  0.00000000000E+00  0.00000000000E+00  0.64999999231E+04  0.65000000000E+04  0.10000000000E+01 0.  0.
    9000001   -1    0    0    0    0 -0.00000000000E+00 -0.00000000000E+00 -0.64999999231E+04  0.65000000000E+04  0.10000000000E+01 0.  0.
    9000001    1    1    2    0    0 -0.18200528065E+04  0.13053554774E+04 -0.61019221446E+04  0.65000000000E+04  0.10000000000E+01 0.  0.
    9000001    1    1    2    0    0  0.18200528065E+04 -0.13053554774E+04  0.61019221446E+04  0.65000000000E+04  0.10000000000E+01 0.  0.
</event>
<event>
 4    1  0.2201588E-006  0.1300000E+05  0.7957747E-01  0.1322471E+00
    9000001   -1    0    0    0    0  0.00000000000E+00  0.00000000000E+00  0.64999999231E+04  0.65000000000E+04  0.10000000000E+01 0.  0.
    9000001   -1    0    0    0    0 -0.00000000000E+00 -0.00000000000E+00 -0.64999999231E+04  0.65000000000E+04  0.10000000000E+01 0.  0.
    9000001    1    1    2    0    0 -0.19977797854E+04 -0.59902999587E+04  0.15411623319E+04  0.65000000000E+04  0.10000000000E+01 0.  0.
    9000001    1    1    2    0    0  0.19977797854E+04  0.59902999587E+04 -0.15411623319E+04  0.65000000000E+04  0.10000000000E+01 0.  0.
</event>
<event>
 4    1  0.2201588E-006  0.1300000E+05  0.7957747E-01  0.1322471E+00
    9000001   -1    0    0    0    0  0.00000000000E+00  0.00000000000E+00  0.64999999231E+04  0.65000000000E+04  0.10000000000E+01 0.  0.
    9000001   -1    0    0    0    0 -0.00000000000E+00 -0.00000000000E+00 -0.64999999231E+04  0.65000000000E+04  0.10000000000E+01 0.  0.
    9000001    1    1    2    0    0 -0.63160850839E+04 -0.14953761815E+04 -0.34773307125E+03  0.65000000000E+04  0.10000000000E+01 0.  0.
    9000001    1    1    2    0    0  0.63160850839E+04  0.14953761815E+04  0.34773307125E+03  0.65000000000E+04  0.10000000000E+01 0.  0.
</event>
<event>
 4    1  0.2201588E-006  0.1300000E+05  0.7957747E-01  0.1322471E+00
    9000001   -1    0    0    0    0  0.00000000000E+00  0.00000000000E+00  0.64999999231E+04  0.65000000000E+04  0.10000000000E+01 0.  0.
    9000001   -1    0    0    0    0 -0.00000000000E+00 -0.00000000000E+00 -0.64999999231E+04  0.65000000000E+04  0.10000000000E+01 0.  0.
    9000001    1    1    2    0    0 -0.34498277803E+04 -0.52783735043E+04  0.15771684866E+04  0.65000000000E+04  0.10000000000E+01 0.  0.
    9000001    1    1    2    0    0  0.34498277803E+04  0.52783735043E+04 -0.15771684866E+04  0.65000000000E+04  0.10000000000E+01 0.  0.
</event>
<event>
 4    1  0.2201588E-006  0.1300000E+05  0.7957747E-01  0.1322471E+00
    9000001   -1    0    0    0    0  0.00000000000E+00  0.00000000000E+00  0.64999999231E+04  0.65000000000E+04  0.10000000000E+01 0.  0.
    9000001   -1    0    0    0    0 -0.00000000000E+00 -0.00000000000E+00 -0.64999999231E+04  0.65000000000E+04  0.10000000000E+01 0.  0.
    9000001    1    1    2    0    0  0.63422360075E+04  0.12985443990E+04  0.58294413855E+03  0.65000000000E+04  0.10000000000E+01 0.  0.
    9000001    1    1    2    0    0 -0.63422360075E+04 -0.12985443990E+04 -0.58294413855E+03  0.65000000000E+04  0.10000000000E+01 0.  0.
</event>
<event>
 4    1  0.2201588E-006  0.1300000E+05  0.7957747E-01  0.1322471E+00
    9000001   -1    0    0    0    0  0.00000000000E+00  0.00000000000E+00  0.64999999231E+04  0.65000000000E+04  0.10000000000E+01 0.  0.
    9000001   -1    0    0    0    0 -0.00000000000E+00 -0.00000000000E+00 -0.64999999231E+04  0.65000000000E+04  0.10000000000E+01 0.  0.
    9000001    1    1    2    0    0 -0.82603083084E+03 -0.63912160158E+04 -0.84854575976E+03  0.65000000000E+04  0.10000000000E+01 0.  0.
    9000001    1    1    2    0    0  0.82603083084E+03  0.63912160158E+04  0.84854575976E+03  0.65000000000E+04  0.10000000000E+01 0.  0.
</event>
<event>
 4    1  0.2201588E-006  0.1300000E+05  0.7957747E-01  0.1322471E+00
    9000001   -1    0    0    0    0  0.00000000000E+00  0.00000000000E+00  0.64999999231E+04  0.65000000000E+04  0.10000000000E+01 0.  0.
    9000001   -1    0    0    0    0 -0.00000000000E+00 -0.00000000000E+00 -0.64999999231E+04  0.65000000000E+04  0.10000000000E+01 0.  0.
    9000001    1    1    2    0    0  0.34713370798E+04 -0.23047062549E+02 -0.54953877671E+04  0.65000000000E+04  0.10000000000E+01 0.  0.
    9000001    1    1    2    0    0 -0.34713370798E+04  0.23047062549E+02  0.54953877671E+04  0.65000000000E+04  0.10000000000E+01 0.  0.
</event>
<event>
 4    1  0.2201588E-006  0.1300000E+05  0.7957747E-01  0.1322471E+00
    9000001   -1    0    0    0    0  0.00000000000E+00  0.00000000000E+00  0.64999999231E+04  0.65000000000E+04  0.10000000000E+01 0.  0.
    9000001   -1    0    0    0    0 -0.00000000000E+00 -0.00000000000E+00 -0.64999999231E+04  0.65000000000E+04  0.10000000000E+01 0.  0.
    9000001    1    1    2    0    0 -0.48371141762E+04 -0.76002299505E+03  0.42748906996E+04  0.65000000000E+04  0.10000000000E+01 0.  0.
    9000001    1    1    2    0    0  0.48371141762E+04  0.76002299505E+03 -0.42748906996E+04  0.65000000000E+04  0.10000000000E+01 0.  0.
</event>
<event>
 4    1  0.2201588E-006  0.1300000E+05  0.7957747E-01  0.1322471E+00
    9000001   -1    0    0    0    0  0.00000000000E+00  0.00000000000E+00  0.64999999231E+04  0.65000000000E+04  0.10000000000E+01 0.  0.
    9000001   -1    0    0    0    0 -0.00000000000E+00 -0.00000000000E+00 -0.64999999231E+04  0.65000000000E+04  0.10000000000E+01 0.  0.
    9000001    1    1    2    0    0 -0.70548826714E+03  0.35683631900E+04  0.53869350701E+04  0.65000000000E+04  0.10000000000E+01 0.  0.
    9000001    1    1    2    0    0  0.70548826714E+03 -0.35683631900E+04 -0.53869350701E+04  0.65000000000E+04  0.10000000000E+01 0.  0.
</event>
<event>
 4    1  0.2201588E-006  0.1300000E+05  0.7957747E-01  0.1322471E+00
    9000001   -1    0    0    0    0  0.00000000000E+00  0.00000000000E+00  0.64999999231E+04  0.65000000000E+04  0.10000000000E+01 0.  0.
    9000001   -1    0    0    0    0 -0.00000000000E+00 -0.00000000000E+00 -0.64999999231E+04  0.65000000000E+04  0.10000000000E+01 0.  0.
    9000001    1    1    2    0    0 -0.36532734869E+04  0.53440026467E+04  0.58756067067E+03  0.65000000000E+04  0.10000000000E+01 0.  0.
    9000001    1    1    2    0    0  0.36532734869E+04 -0.53440026467E+04 -0.58756067067E+03  0.65000000000E+04  0.10000000000E+01 0.  0.
</event>
<event>
 4    1  0.2201588E-006  0.1300000E+05  0.7957747E-01  0.1322471E+00
    9000001   -1    0    0    0    0  0.00000000000E+00  0.00000000000E+00  0.64999999231E+04  0.65000000000E+04  0.10000000000E+01 0.  0.
    9000001   -1    0    0    0    0 -0.00000000000E+00 -0.00000000000E+00 -0.64999999231E+04  0.65000000000E+04  0.10000000000E+01 0.  0.
    9000001    1    1    2    0    0  0.25300819982E+04  0.35574872399E+03 -0.59767990537E+04  0.65000000000E+04  0.10000000000E+01 0.  0.
    9000001    1    1    2    0    0 -0.25300819982E+04 -0.35574872399E+03  0.59767990537E+04  0.65000000000E+04  0.10000000000E+01 0.  0.
</event>
<event>
 4    1  0.2201588E-006  0.1300000E+05  0.7957747E-01  0.1322471E+00
    9000001   -1    0    0    0    0  0.00000000000E+00  0.00000000000E+00  0.64999999231E+04  0.65000000000E+04  0.10000000000E+01 0.  0.
    9000001   -1    0    0    0    0 -0.00000000000E+00 -0.00000000000E+00 -0.64999999231E+04  0.65000000000E+04  0.10000000000E+01 0.  0.
    9000001    1    1    2    0    0  0.10562131540E+03 -0.28182556099E+04 -0.58563024559E+04  0.65000000000E+04  0.10000000000E+01 0.  0.
    9000001    1    1    2    0    0 -0.10562131540E+03  0.28182556099E+04  0.58563024559E+04  0.65000000000E+04  0.10000000000E+01 0.  0.
</event>
<event>
 4    1  0.2201588E-006  0.1300000E+05  0.7957747E-01  0.1322471E+00
    9000001   -1    0    0    0    0  0.00000000000E+00  0.00000000000E+00  0.64999999231E+04  0.65000000000E+04  0.10000000000E+01 0.  0.
    9000001   -1    0    0    0    0 -0.00000000000E+00 -0.00000000000E+00 -0.64999999231E+04  0.65000000000E+04  0.10000000000E+01 0.  0.
    9000001    1    1    2    0    0 -0.26134126823E+04 -0.90902620855E+03  0.58816447108E+04  0.65000000000E+04  0.10000000000E+01 0.  0.
    9000001    1    1    2    0    0  0.26134126823E+04  0.90902620855E+03 -0.58816447108E+04  0.65000000000E+04  0.10000000000E+01 0.  0.
</event>
<event>
 4    1  0.2201588E-006  0.1300000E+05  0.7957747E-01  0.1322471E+00
    9000001   -1    0    0    0    0  0.00000000000E+00  0.00000000000E+00  0.64999999231E+04  0.65000000000E+04  0.10000000000E+01 0.  0.
    9000001   -1    0    0    0    0 -0.00000000000E+00 -0.00000000000E+00 -0.64999999231E+04  0.65000000000E+04  0.10000000000E+01 0.  0.
    9000001    1    1    2    0    0  0.55065535131E+04 -0.26962967282E+04 -0.21582055881E+04  0.65000000000E+04  0.10000000000E+01 0.  0.
    9000001    1    1    2    0    0 -0.55065535131E+04  0.26962967282E+04  0.21582055881E+04  0.65000000000E+04  0.10000000000E+01 0.  0.
</event>
<event>
 4    1  0.2201588E-006  0.1300000E+05  0.7957747E-01  0.1322471E+00
    9000001   -1    0    0    0    0  0.00000000000E+00  0.00000000000E+00  0.64999999231E+04  0.65000000000E+04  0.10000000000E+01 0.  0.
    9000001   -1    0    0    0    0 -0.00000000000E+00 -0.00000000000E+00 -0.64999999231E+04  0.65000000000E+04  0.10000000000E+01 0.  0.
    9000001    1    1    2    0    0 -0.11799501386E+04  0.63918831386E+04 -0.39326995226E+02  0.65000000000E+04  0.10000000000E+01 0.  0.
    9000001    1    1    2    0    0  0.11799501386E+04 -0.63918831386E+04  0.39326995226E+02  0.65000000000E+04  0.10000000000E+01 0.  0.
</event>
<event>
 4    1  0.2201588E-006  0.1300000E+05  0.7957747E-01  0.1322471E+00
    9000001   -1    0    0    0    0  0.00000000000E+00  0.00000000000E+00  0.64999999231E+04  0.65000000000E+04  0.10000000000E+01 0.  0.
    9000001   -1    0    0    0    0 -0.00000000000E+00 -0.00000000000E+00 -0.64999999231E+04  0.65000000000E+04  0.10000000000E+01 0.  0.
    9000001    1    1    2    0    0 -0.49180349601E+04  0.41888268997E+04 -0.71879088426E+03  0.65000000000E+04  0.10000000000E+01 0.  0.
    9000001    1    1    2    0    0  0.49180349601E+04 -0.41888268997E+04  0.71879088426E+03  0.65000000000E+04  0.10000000000E+01 0.  0.
</event>
<event>
 4    1  0.2201588E-006  0.1300000E+05  0.7957747E-01  0.1322471E+00
    9000001   -1    0    0    0    0  0.00000000000E+00  0.00000000000E+00  0.64999999231E+04  0.65000000000E+04  0.10000000000E+01 0.  0.
    9000001   -1    0    0    0    0 -0.00000000000E+00 -0.00000000000E+00 -0.64999999231E+04  0.65000000000E+04  0.10000000000E+01 0.  0.
    9000001    1    1    2    0    0 -0.47592051012E+04  0.94101983470E+03  0.43260198192E+04  0.65000000000E+04  0.10000000000E+01 0.  0.
    9000001    1    1    2    0    0  0.47592051012E+04 -0.94101983470E+03 -0.43260198192E+04  0.65000000000E+04  0.10000000000E+01 0.  0.
</event>
<event>
 4    1  0.2201588E-006  0.1300000E+05  0.7957747E-01  0.1322471E+00
    9000001   -1    0    0    0    0  0.00000000000E+00  0.00000000000E+00  0.64999999231E+04  0.65000000000E+04  0.10000000000E+01 0.  0.
    9000001   -1    0    0    0    0 -0.00000000000E+00 -0.00000000000E+00 -0.64999999231E+04  0.65000000000E+04  0.10000000000E+01 0.  0.
    9000001    1    1    2    0    0  0.13712278035E+04 -0.63338895562E+04 -0.50157392379E+03  0.65000000000E+04  0.10000000000E+01 0.  0.
    9000001    1    1    2    0    0 -0.13712278035E+04  0.63338895562E+04  0.50157392379E+03  0.65000000000E+04  0.10000000000E+01 0.  0.
</event>
<event>
 4    1  0.2201588E-006  0.1300000E+05  0.7957747E-01  0.1322471E+00
    9000001   -1    0    0    0    0  0.00000000000E+00  0.00000000000E+00  0.64999999231E+04  0.65000000000E+04  0.10000000000E+01 0.  0.
    9000001   -1    0    0    0    0 -0.00000000000E+00 -0.00000000000E+00 -0.64999999231E+04  0.65000000000E+04  0.10000000000E+01 0.  0.
    9000001    1    1    2    0    0  0.40724349294E+04  0.46905642112E+04  0.19141264654E+04  0.65000000000E+04  0.10000000000E+01 0.  0.
    9000001    1    1    2    0    0 -0.40724349294E+04 -0.46905642112E+04 -0.19141264654E+04  0.65000000000E+04  0.10000000000E+01 0.  0.
</event>
<event>
 4    1  0.2201588E-006  0.1300000E+05  0.7957747E-01  0.1322471E+00
    9000001   -1    0    0    0    0  0.00000000000E+00  0.00000000000E+00  0.64999999231E+04  0.65000000000E+04  0.10000000000E+01 0.  0.
    9000001   -1    0    0    0    0 -0.00000000000E+00 -0.00000000000E+00 -0.64999999231E+04  0.65000000000E+04  0.10000000000E+01 0.  0.
    9000001    1    1    2    0    0  0.15809268767E+04  0.20078925742E+04 -0.59765405228E+04  0.65000000000E+04  0.10000000000E+01 0.  0.
    9000001    1    1    2    0    0 -0.15809268767E+04 -0.20078925742E+04  0.59765405228E+04  0.65000000000E+04  0.10000000000E+01 0.  0.
</event>
<event>
 4    1  0.2201588E-006  0.1300000E+05  0.7957747E-01  0.1322471E+00
    9000001   -1    0    0    0    0  0.00000000000E+00  0.00000000000E+00  0.64999999231E+04  0.65000000000E+04  0.10000000000E+01 0.  0.
    9000001   -1    0    0    0    0 -0.00000000000E+00 -0.00000000000E+00 -0.64999999231E+04  0.65000000000E+04  0.10000000000E+01 0.  0.
    9000001    1    1    2    0    0  0.61825776775E+04 -0.17640449080E+04  0.95596957313E+03  0.65000000000E+04  0.10000000000E+01 0.  0.
    9000001    1    1    2    0    0 -0.61825776775E+04  0.17640449080E+04 -0.95596957313E+03  0.65000000000E+04  0.10000000000E+01 0.  0.
</event>
<event>
 4    1  0.2201588E-006  0.1300000E+05  0.7957747E-01  0.1322471E+00
    9000001   -1    0    0    0    0  0.00000000000E+00  0.00000000000E+00  0.64999999231E+04  0.65000000000E+04  0.10000000000E+01 0.  0.
    9000001   -1    0    0    0    0 -0.00000000000E+00 -0.00000000000E+00 -0.64999999231E+04  0.65000000000E+04  0.10000000000E+01 0.  0.
    9000001    1    1    2    0    0 -0.63941680771E+04  0.10520133142E+04  0.50782042969E+03  0.65000000000E+04  0.10000000000E+01 0.  0.
    9000001    1    1    2    0    0  0.63941680771E+04 -0.10520133142E+04 -0.50782042969E+03  0.65000000000E+04  0.10000000000E+01 0.  0.
</event>
<event>
 4    1  0.2201588E-006  0.1300000E+05  0.7957747E-01  0.1322471E+00
    9000001   -1    0    0    0    0  0.00000000000E+00  0.00000000000E+00  0.64999999231E+04  0.65000000000E+04  0.10000000000E+01 0.  0.
    9000001   -1    0    0    0    0 -0.00000000000E+00 -0.00000000000E+00 -0.64999999231E+04  0.65000000000E+04  0.10000000000E+01 0.  0.
    9000001    1    1    2    0    0 -0.56823169963E+04 -0.15709572949E+03  0.31522362674E+04  0.65000000000E+04  0.10000000000E+01 0.  0.
    9000001    1    1    2    0    0  0.56823169963E+04  0.15709572949E+03 -0.31522362674E+04  0.65000000000E+04  0.10000000000E+01 0.  0.
</event>
<event>
 4    1  0.2201588E-006  0.1300000E+05  0.7957747E-01  0.1322471E+00
    9000001   -1    0    0    0    0  0.00000000000E+00  0.00000000000E+00  0.64999999231E+04  0.65000000000E+04  0.10000000000E+01 0.  0.
    9000001   -1    0    0    0    0 -0.00000000000E+00 -0.00000000000E+00 -0.64999999231E+04  0.65000000000E+04  0.10000000000E+01 0.  0.
    9000001    1    1    2    0    0 -0.19718744070E+04 -0.29504034517E+04 -0.54458084611E+04  0.65000000000E+04  0.10000000000E+01 0.  0.
    9000001    1    1    2    0    0  0.19718744070E+04  0.29504034517E+04  0.54458084611E+04  0.65000000000E+04  0.10000000000E+01 0.  0.
</event>
<event>
 4    1  0.2201588E-006  0.1300000E+05  0.7957747E-01  0.1322471E+00
    9000001   -1    0    0    0    0  0.00000000000E+00  0.00000000000E+00  0.64999999231E+04  0.65000000000E+04  0.10000000000E+01 0.  0.
    9000001   -1    0    0    0    0 -0.00000000000E+00 -0.00000000000E+00 -0.64999999231E+04  0.65000000000E+04  0.10000000000E+01 0.  0.
    9000001    1    1    2    0    0  0.51720458817E+04 -0.14764564406E+04  0.36496598166E+04  0.65000000000E+04  0.10000000000E+01 0.  0.
    9000001    1    1    2    0    0 -0.51720458817E+04  0.14764564406E+04 -0.36496598166E+04  0.65000000000E+04  0.10000000000E+01 0.  0.
</event>
<event>
 4    1  0.2201588E-006  0.1300000E+05  0.7957747E-01  0.1322471E+00
    9000001   -1    0    0    0    0  0.00000000000E+00  0.00000000000E+00  0.64999999231E+04  0.65000000000E+04  0.10000000000E+01 0.  0.
    9000001   -1    0    0    0    0 -0.00000000000E+00 -0.00000000000E+00 -0.64999999231E+04  0.65000000000E+04  0.10000000000E+01 0.  0.
    9000001    1    1    2    0    0  0.36551700767E+04  0.44224838130E+04  0.30547287333E+04  0.65000000000E+04  0.10000000000E+01 0.  0.
    9000001    1    1    2    0    0 -0.36551700767E+04 -0.44224838130E+04 -0.30547287333E+04  0.65000000000E+04  0.10000000000E+01 0.  0.
</event>
<event>
 4    1  0.2201588E-006  0.1300000E+05  0.7957747E-01  0.1322471E+00
    9000001   -1    0    0    0    0  0.00000000000E+00  0.00000000000E+00  0.64999999231E+04  0.65000000000E+04  0.10000000000E+01 0.  0.
    9000001   -1    0    0    0    0 -0.00000000000E+00 -0.00000000000E+00 -0.64999999231E+04  0.65000000000E+04  0.10000000000E+01 0.  0.
    9000001    1    1    2    0    0  0.32187829322E+03  0.56614296832E+04  0.31772011751E+04  0.65000000000E+04  0.10000000000E+01 0.  0.
    9000001    1    1    2    0    0 -0.32187829322E+03 -0.56614296832E+04 -0.31772011751E+04  0.65000000000E+04  0.10000000000E+01 0.  0.
</event>
<event>
 4    1  0.2201588E-006  0.1300000E+05  0.7957747E-01  0.1322471E+00
    9000001   -1    0    0    0    0  0.00000000000E+00  0.00000000000E+00  0.64999999231E+04  0.65000000000E+04  0.10000000000E+01 0.  0.
    9000001   -1    0    0    0    0 -0.00000000000E+00 -0.00000000000E+00 -0.64999999231E+04  0.65000000000E+04  0.10000000000E+01 0.  0.
    9000001    1    1    2    0    0 -0.56044495417E+04 -0.17758006830E+04  0.27724855759E+04  0.65000000000E+04  0.10000000000E+01 0.  0.
    9000001    1    1    2    0    0  0.56044495417E+04  0.17758006830E+04 -0.27724855759E+04  0.65000000000E+04  0.10000000000E+01 0.  0.
</event>
<event>
 4    1  0.2201588E-006  0.1300000E+05  0.7957747E-01  0.1322471E+00
    9000001   -1    0    0    0    0  0.00000000000E+00  0.00000000000E+00  0.64999999231E+04  0.65000000000E+04  0.10000000000E+01 0.  0.
    9000001   -1    0    0    0    0 -0.00000000000E+00 -0.00000000000E+00 -0.64999999231E+04  0.65000000000E+04  0.10000000000E+01 0.  0.
    9000001    1    1    2    0    0 -0.42386593102E+04  0.40753922780E+04 -0.27703689342E+04  0.65000000000E+04  0.10000000000E+01 0.  0.
    9000001    1    1    2    0    0  0.42386593102E+04 -0.40753922780E+04  0.27703689342E+04  0.65000000000E+04  0.10000000000E+01 0.  0.
</event>
<event>
 4    1  0.2201588E-006  0.1300000E+05  0.7957747E-01  0.1322471E+00
    9000001   -1    0    0    0    0  0.00000000000E+00  0.00000000000E+00  0.64999999231E+04  0.65000000000E+04  0.10000000000E+01 0.  0.
    9000001   -1    0    0    0    0 -0.00000000000E+00 -0.00000000000E+00 -0.64999999231E+04  0.65000000000E+04  0.10000000000E+01 0.  0.
    9000001    1    1    2    0    0  0.37631753409E+04  0.35639336838E+03 -0.52878629068E+04  0.65000000000E+04  0.10000000000E+01 0.  0.
    9000001    1    1    2    0    0 -0.37631753409E+04 -0.35639336838E+03  0.52878629068E+04  0.65000000000E+04  0.10000000000E+01 0.  0.
</event>
<event>
 4    1  0.2201588E-006  0.1300000E+05  0.7957747E-01  0.1322471E+00
    9000001   -1    0    0    0    0  0.00000000000E+00  0.00000000000E+00  0.64999999231E+04  0.65000000000E+04  0.10000000000E+01 0.  0.
    9000001   -1    0    0    0    0 -0.00000000000E+00 -0.00000000000E+00 -0.64999999231E+04  0.65000000000E+04  0.10000000000E+01 0.  0.
    9000001    1    1    2    0    0  0.57363170265E+04 -0.49675878490E+03  0.30162719839E+04  0.65000000000E+04  0.10000000000E+01 0.  0.
    9000001    1    1    2    0    0 -0.57363170265E+04  0.49675878490E+03 -0.30162719839E+04  0.65000000000E+04  0.10000000000E+01 0.  0.
</event>
<event>
 4    1  0.2201588E-006  0.1300000E+05  0.7957747E-01  0.1322471E+00
    9000001   -1    0    0    0    0  0.00000000000E+00  0.00000000000E+00  0.64999999231E+04  0.65000000000E+04  0.10000000000E+01 0.  0.
    9000001   -1    0    0    0    0 -0.00000000000E+00 -0.00000000000E+00 -0.64999999231E+04  0.65000000000E+04  0.10000000000E+01 0.  0.
    9000001    1    1    2    0    0  0.44325669969E+04 -0.36231351492E+04  0.30781878612E+04  0.65000000000E+04  0.10000000000E+01 0.  0.
    9000001    1    1    2    0    0 -0.44325669969E+04  0.36231351492E+04 -0.30781878612E+04  0.65000000000E+04  0.10000000000E+01 0.  0.
</event>
<event>
 4    1  0.2201588E-006  0.1300000E+05  0.7957747E-01  0.1322471E+00
    9000001   -1    0    0    0    0  0.00000000000E+00  0.00000000000E+00  0.64999999231E+04  0.65000000000E+04  0.10000000000E+01 0.  0.
    9000001   -1    0    0    0    0 -0.00000000000E+00 -0.00000000000E+00 -0.64999999231E+04  0.65000000000E+04  0.10000000000E+01 0.  0.
    9000001    1    1    2    0    0 -0.19853613754E+04  0.56327990923E+04  0.25651342255E+04  0.65000000000E+04  0.10000000000E+01 0.  0.
    9000001    1    1    2    0    0  0.19853613754E+04 -0.56327990923E+04 -0.25651342255E+04  0.65000000000E+04  0.10000000000E+01 0.  0.
</event>
<event>
 4    1  0.2201588E-006  0.1300000E+05  0.7957747E-01  0.1322471E+00
    9000001   -1    0    0    0    0  0.00000000000E+00  0.00000000000E+00  0.64999999231E+04  0.65000000000E+04  0.10000000000E+01 0.  0.
    9000001   -1    0    0    0    0 -0.00000000000E+00 -0.00000000000E+00 -0.64999999231E+04  0.65000000000E+04  0.10000000000E+01 0.  0.
    9000001    1    1    2    0    0  0.62429030662E+03  0.30645250784E+03  0.64626888733E+04  0.65000000000E+04  0.10000000000E+01 0.  0.
    9000001    1    1    2    0    0 -0.62429030662E+03 -0.30645250784E+03 -0.64626888733E+04  0.65000000000E+04  0.10000000000E+01 0.  0.
</event>
<event>
 4    1  0.2201588E-006  0.1300000E+05  0.7957747E-01  0.1322471E+00
    9000001   -1    0    0    0    0  0.00000000000E+00  0.00000000000E+00  0.64999999231E+04  0.65000000000E+04  0.10000000000E+01 0.  0.
    9000001   -1    0    0    0    0 -0.00000000000E+00 -0.00000000000E+00 -0.64999999231E+04  0.65000000000E+04  0.10000000000E+01 0.  0.
    9000001    1    1    2    0    0 -0.48237041058E+03  0.13902568458E+04  0.63312323990E+04  0.65000000000E+04  0.10000000000E+01 0.  0.
    9000001    1    1    2    0    0  0.48237041058E+03 -0.13902568458E+04 -0.63312323990E+04  0.65000000000E+04  0.10000000000E+01 0.  0.
</event>
<event>
 4    1  0.2201588E-006  0.1300000E+05  0.7957747E-01  0.1322471E+00
    9000001   -1    0    0    0    0  0.00000000000E+00  0.00000000000E+00  0.64999999231E+04  0.65000000000E+04  0.10000000000E+01 0.  0.
    9000001   -1    0    0    0    0 -0.00000000000E+00 -0.00000000000E+00 -0.64999999231E+04  0.65000000000E+04  0.10000000000E+01 0.  0.
    9000001    1    1    2    0    0  0.24438850451E+04 -0.59945865318E+04 -0.58511297949E+03  0.65000000000E+04  0.10000000000E+01 0.  0.
    9000001    1    1    2    0    0 -0.24438850451E+04  0.59945865318E+04  0.58511297949E+03  0.65000000000E+04  0.10000000000E+01 0.  0.
</event>
<event>
 4    1  0.2201588E-006  0.1300000E+05  0.7957747E-01  0.1322471E+00
    9000001   -1    0    0    0    0  0.00000000000E+00  0.00000000000E+00  0.64999999231E+04  0.65000000000E+04  0.10000000000E+01 0.  0.
    9000001   -1    0    0    0    0 -0.00000000000E+00 -0.00000000000E+00 -0.64999999231E+04  0.65000000000E+04  0.10000000000E+01 0.  0.
    9000001    1    1    2    0    0  0.26809395959E+04 -0.25270457080E+04  0.53550538627E+04  0.65000000000E+04  0.10000000000E+01 0.  0.
    9000001    1    1    2    0    0 -0.26809395959E+04  0.25270457080E+04 -0.53550538627E+04  0.65000000000E+04  0.10000000000E+01 0.  0.
</event>
<event>
 4    1  0.2201588E-006  0.1300000E+05  0.7957747E-01  0.1322471E+00
    9000001   -1    0    0    0    0  0.00000000000E+00  0.00000000000E+00  0.64999999231E+04  0.65000000000E+04  0.10000000000E+01 0.  0.
    9000001   -1    0    0    0    0 -0.00000000000E+00 -0.00000000000E+00 -0.64999999231E+04  0.65000000000E+04  0.10000000000E+01 0.  0.
    9000001    1    1    2    0    0  0.41459069327E+04 -0.37825067112E+04 -0.32793440938E+04  0.65000000000E+04  0.10000000000E+01 0.  0.
    9000001    1    1    2    0    0 -0.41459069327E+04  0.37825067112E+04  0.32793440938E+04  0.65000000000E+04  0.10000000000E+01 0.  0.
</event>
<event>
 4    1  0.2201588E-006  0.1300000E+05  0.7957747E-01  0.1322471E+00
    9000001   -1    0    0    0    0  0.00000000000E+00  0.00000000000E+00  0.64999999231E+04  0.65000000000E+04  0.10000000000E+01 0.  0.
    9000001   -1    0    0    0    0 -0.00000000000E+00 -0.00000000000E+00 -0.64999999231E+04  0.65000000000E+04  0.10000000000E+01 0.  0.
    9000001    1    1    2    0    0  0.16051945485E+04 -0.62789874205E+04  0.49766096328E+03  0.65000000000E+04  0.10000000000E+01 0.  0.
    9000001    1    1    2    0    0 -0.16051945485E+04  0.62789874205E+04 -0.49766096328E+03  0.65000000000E+04  0.10000000000E+01 0.  0.
</event>
<event>
 4    1  0.2201588E-006  0.1300000E+05  0.7957747E-01  0.1322471E+00
    9000001   -1    0    0    0    0  0.00000000000E+00  0.00000000000E+00  0.64999999231E+04  0.65000000000E+04  0.10000000000E+01 0.  0.
    9000001   -1    0    0    0    0 -0.00000000000E+00 -0.00000000000E+00 -0.64999999231E+04  0.65000000000E+04  0.10000000000E+01 0.  0.
    9000001    1    1    2    0    0 -0.19119476454E+04  0.31842654101E+04  0.53343142951E+04  0.65000000000E+04  0.10000000000E+01 0.  0.
    9000001    1    1    2    0    0  0.19119476454E+04 -0.31842654101E+04 -0.53343142951E+04  0.65000000000E+04  0.10000000000E+01 0.  0.
</event>
<event>
 4    1  0.2201588E-006  0.1300000E+05  0.7957747E-01  0.1322471E+00
    9000001   -1    0    0    0    0  0.00000000000E+00  0.00000000000E+00  0.64999999231E+04  0.65000000000E+04  0.10000000000E+01 0.  0.
    9000001   -1    0    0    0    0 -0.00000000000E+00 -0.00000000000E+00 -0.64999999231E+04  0.65000000000E+04  0.10000000000E+01 0.  0.
    9000001    1    1    2    0    0  0.61111387273E+04 -0.19355225306E+04 -0.10759809430E+04  0.65000000000E+04  0.10000000000E+01 0.  0.
    9000001    1    1    2    0    0 -0.61111387273E+04  0.19355225306E+04  0.10759809430E+04  0.65000000000E+04  0.10000000000E+01 0.  0.
</event>
<event>
 4    1  0.2201588E-006  0.1300000E+05  0.7957747E-01  0.1322471E+00
    9000001   -1    0    0    0    0  0.00000000000E+00  0.00000000000E+00  0.64999999231E+04  0.65000000000E+04  0.10000000000E+01 0.  0.
    9000001   -1    0    0    0    0 -0.00000000000E+00 -0.00000000000E+00 -0.64999999231E+04  0.65000000000E+04  0.10000000000E+01 0.  0.
    9000001    1    1    2    0    0  0.31030273209E+03  0.64919531641E+04  0.90858844294E+02  0.65000000000E+04  0.10000000000E+01 0.  0.
    9000001    1    1    2    0    0 -0.31030273209E+03 -0.64919531641E+04 -0.90858844294E+02  0.65000000000E+04  0.10000000000E+01 0.  0.
</event>
<event>
 4    1  0.2201588E-006  0.1300000E+05  0.7957747E-01  0.1322471E+00
    9000001   -1    0    0    0    0  0.00000000000E+00  0.00000000000E+00  0.64999999231E+04  0.65000000000E+04  0.10000000000E+01 0.  0.
    9000001   -1    0    0    0    0 -0.00000000000E+00 -0.00000000000E+00 -0.64999999231E+04  0.65000000000E+04  0.10000000000E+01 0.  0.
    9000001    1    1    2    0    0  0.19569508329E+04 -0.56507974146E+04  0.25473183973E+04  0.65000000000E+04  0.10000000000E+01 0.  0.
    9000001    1    1    2    0    0 -0.19569508329E+04  0.56507974146E+04 -0.25473183973E+04  0.65000000000E+04  0.10000000000E+01 0.  0.
</event>
<event>
 4    1  0.2201588E-006  0.1300000E+05  0.7957747E-01  0.1322471E+00
    9000001   -1    0    0    0    0  0.00000000000E+00  0.00000000000E+00  0.64999999231E+04  0.65000000000E+04  0.10000000000E+01 0.  0.
    9000001   -1    0    0    0    0 -0.00000000000E+00 -0.00000000000E+00 -0.64999999231E+04  0.65000000000E+04  0.10000000000E+01 0.  0.
    9000001    1    1    2    0    0 -0.46589501184E+04  0.45258024344E+04  0.24757851161E+03  0.65000000000E+04  0.10000000000E+01 0.  0.
    9000001    1    1    2    0    0  0.46589501184E+04 -0.45258024344E+04 -0.24757851161E+03  0.65000000000E+04  0.10000000000E+01 0.  0.
</event>
<event>
 4    1  0.2201588E-006  0.1300000E+05  0.7957747E-01  0.1322471E+00
    9000001   -1    0    0    0    0  0.00000000000E+00  0.00000000000E+00  0.64999999231E+04  0.65000000000E+04  0.10000000000E+01 0.  0.
    9000001   -1    0    0    0    0 -0.00000000000E+00 -0.00000000000E+00 -0.64999999231E+04  0.65000000000E+04  0.10000000000E+01 0.  0.
    9000001    1    1    2    0    0 -0.28735187525E+04 -0.41794578867E+04 -0.40650978773E+04  0.65000000000E+04  0.10000000000E+01 0.  0.
    9000001    1    1    2    0    0  0.28735187525E+04  0.41794578867E+04  0.40650978773E+04  0.65000000000E+04  0.10000000000E+01 0.  0.
</event>
<event>
 4    1  0.2201588E-006  0.1300000E+05  0.7957747E-01  0.1322471E+00
    9000001   -1    0    0    0    0  0.00000000000E+00  0.00000000000E+00  0.64999999231E+04  0.65000000000E+04  0.10000000000E+01 0.  0.
    9000001   -1    0    0    0    0 -0.00000000000E+00 -0.00000000000E+00 -0.64999999231E+04  0.65000000000E+04  0.10000000000E+01 0.  0.
    9000001    1    1    2    0    0  0.33166111379E+04  0.54977292993E+04 -0.10124535107E+04  0.65000000000E+04  0.10000000000E+01 0.  0.
    9000001    1    1    2    0    0 -0.33166111379E+04 -0.54977292993E+04  0.10124535107E+04  0.65000000000E+04  0.10000000000E+01 0.  0.
</event>
<event>
 4    1  0.2201588E-006  0.1300000E+05  0.7957747E-01  0.1322471E+00
    9000001   -1    0    0    0    0  0.00000000000E+00  0.00000000000E+00  0.64999999231E+04  0.65000000000E+04  0.10000000000E+01 0.  0.
    9000001   -1    0    0    0    0 -0.00000000000E+00 -0.00000000000E+00 -0.64999999231E+04  0.65000000000E+04  0.10000000000E+01 0.  0.
    9000001    1    1    2    0    0 -0.32702826454E+04 -0.22671426009E+04 -0.51395831394E+04  0.65000000000E+04  0.10000000000E+01 0.  0.
    9000001    1    1    2    0    0  0.32702826454E+04  0.22671426009E+04  0.51395831394E+04  0.65000000000E+04  0.10000000000E+01 0.  0.
</event>
<event>
 4    1  0.2201588E-006  0.1300000E+05  0.7957747E-01  0.1322471E+00
    9000001   -1    0    0    0    0  0.00000000000E+00  0.00000000000E+00  0.64999999231E+04  0.65000000000E+04  0.10000000000E+01 0.  0.
    9000001   -1    0    0    0    0 -0.00000000000E+00 -0.00000000000E+00 -0.64999999231E+04  0.65000000000E+04  0.10000000000E+01 0.  0.
    9000001    1    1    2    0    0 -0.41633806856E+04  0.49901919667E+04  0.11934991503E+03  0.65000000000E+04  0.10000000000E+01 0.  0.
    9000001    1    1    2    0    0  0.41633806856E+04 -0.49901919667E+04 -0.11934991503E+03  0.65000000000E+04  0.10000000000E+01 0.  0.
</event>
<event>
 4    1  0.2201588E-006  0.1300000E+05  0.7957747E-01  0.1322471E+00
    9000001   -1    0    0    0    0  0.00000000000E+00  0.00000000000E+00  0.64999999231E+04  0.65000000000E+04  0.10000000000E+01 0.  0.
    9000001   -1    0    0    0    0 -0.00000000000E+00 -0.00000000000E+00 -0.64999999231E+04  0.65000000000E+04  0.10000000000E+01 0.  0.
    9000001    1    1    2    0    0 -0.34476902795E+04  0.54844403780E+04  0.53323960504E+03  0.65000000000E+04  0.10000000000E+01 0.  0.
    9000001    1    1    2    0    0  0.34476902795E+04 -0.54844403780E+04 -0.53323960504E+03  0.65000000000E+04  0.10000000000E+01 0.  0.
</event>
<event>
 4    1  0.2201588E-006  0.1300000E+05  0.7957747E-01  0.1322471E+00
    9000001   -1    0    0    0    0  0.00000000000E+00  0.00000000000E+00  0.64999999231E+04  0.65000000000E+04  0.10000000000E+01 0.  0.
    9000001   -1    0    0    0    0 -0.00000000000E+00 -0.00000000000E+00 -0.64999999231E+04  0.65000000000E+04  0.10000000000E+01 0.  0.
    9000001    1    1    2    0    0  0.91399158816E+03  0.31323845921E+04  0.56216354510E+04  0.65000000000E+04  0.10000000000E+01 0.  0.
    9000001    1    1    2    0    0 -0.91399158816E+03 -0.31323845921E+04 -0.56216354510E+04  0.65000000000E+04  0.10000000000E+01 0.  0.
</event>
<event>
 4    1  0.2201588E-006  0.1300000E+05  0.7957747E-01  0.1322471E+00
    9000001   -1    0    0    0    0  0.00000000000E+00  0.00000000000E+00  0.64999999231E+04  0.65000000000E+04  0.10000000000E+01 0.  0.
    9000001   -1    0    0    0    0 -0.00000000000E+00 -0.00000000000E+00 -0.64999999231E+04  0.65000000000E+04  0.10000000000E+01 0.  0.
    9000001    1    1    2    0    0  0.43265716056E+04 -0.48866332867E+03  0.48261770889E+04  0.65000000000E+04  0.10000000000E+01 0.  0.
    9000001    1    1    2    0    0 -0.43265716056E+04  0.48866332867E+03 -0.48261770889E+04  0.65000000000E+04  0.10000000000E+01 0.  0.
</event>
<event>
 4    1  0.2201588E-006  0.1300000E+05  0.7957747E-01  0.1322471E+00
    9000001   -1    0    0    0    0  0.00000000000E+00  0.00000000000E+00  0.64999999231E+04  0.65000000000E+04  0.10000000000E+01 0.  0.
    9000001   -1    0    0    0    0 -0.00000000000E+00 -0.00000000000E+00 -0.64999999231E+04  0.65000000000E+04  0.10000000000E+01 0.  0.
    9000001    1    1    2    0    0  0.84636797610E+03 -0.56470485779E+04 -0.31055599507E+04  0.65000000000E+04  0.10000000000E+01 0.  0.
    9000001    1    1    2    0    0 -0.84636797610E+03  0.56470485779E+04  0.31055599507E+04  0.65000000000E+04  0.10000000000E+01 0.  0.
</event>
<event>
 4    1  0.2201588E-006  0.1300000E+05  0.7957747E-01  0.1322471E+00
    9000001   -1    0    0    0    0  0.00000000000E+00  0.00000000000E+00  0.64999999231E+04  0.65000000000E+04  0.10000000000E+01 0.  0.
    9000001   -1    0    0    0    0 -0.00000000000E+00 -0.00000000000E+00 -0.64999999231E+04  0.65000000000E+04  0.10000000000E+01 0.  0.
    9000001    1    1    2    0    0  0.17118979485E+04 -0.62513774101E+03  0.62392793830E+04  0.65000000000E+04  0.10000000000E+01 0.  0.
    9000001    1    1    2    0    0 -0.17118979485E+04  0.62513774101E+03 -0.62392793830E+04  0.65000000000E+04  0.10000000000E+01 0.  0.
</event>
<event>
 4    1  0.2201588E-006  0.1300000E+05  0.7957747E-01  0.1322471E+00
    9000001   -1    0    0    0    0  0.00000000000E+00  0.00000000000E+00  0.64999999231E+04  0.65000000000E+04  0.10000000000E+01 0.  0.
    9000001   -1    0    0    0    0 -0.00000000000E+00 -0.00000000000E+00 -0.64999999231E+04  0.65000000000E+04  0.10000000000E+01 0.  0.
    9000001    1    1    2    0    0 -0.63943664945E+04  0.83570692842E+03 -0.81465947759E+03  0.65000000000E+04  0.10000000000E+01 0.  0.
    9000001    1    1    2    0    0  0.63943664945E+04 -0.83570692842E+03  0.81465947759E+03  0.65000000000E+04  0.10000000000E+01 0.  0.
</event>
<event>
 4    1  0.2201588E-006  0.1300000E+05  0.7957747E-01  0.1322471E+00
    9000001   -1    0    0    0    0  0.00000000000E+00  0.00000000000E+00  0.64999999231E+04  0.65000000000E+04  0.10000000000E+01 0.  0.
    9000001   -1    0    0    0    0 -0.00000000000E+00 -0.00000000000E+00 -0.64999999231E+04  0.65000000000E+04  0.10000000000E+01 0.  0.
    9000001    1    1    2    0    0 -0.76101634534E+03 -0.41928510788E+04  0.49082433673E+04  0.65000000000E+04  0.10000000000E+01 0.  0.
    9000001    1    1    2    0    0  0.76101634534E+03  0.41928510788E+04 -0.49082433673E+04  0.65000000000E+04  0.10000000000E+01 0.  0.
</event>
<event>
 4    1  0.2201588E-006  0.1300000E+05  0.7957747E-01  0.1322471E+00
    9000001   -1    0    0    0    0  0.00000000000E+00  0.00000000000E+00  0.64999999231E+04  0.65000000000E+04  0.10000000000E+01 0.  0.
    9000001   -1    0    0    0    0 -0.00000000000E+00 -0.00000000000E+00 -0.64999999231E+04  0.65000000000E+04  0.10000000000E+01 0.  0.
    9000001    1    1    2    0    0 -0.98889532289E+03 -0.51474285139E+04  0.38439647156E+04  0.65000000000E+04  0.10000000000E+01 0.  0.
    9000001    1    1    2    0    0  0.98889532289E+03  0.51474285139E+04 -0.38439647156E+04  0.65000000000E+04  0.10000000000E+01 0.  0.
</event>
<event>
 4    1  0.2201588E-006  0.1300000E+05  0.7957747E-01  0.1322471E+00
    9000001   -1    0    0    0    0  0.00000000000E+00  0.00000000000E+00  0.64999999231E+04  0.65000000000E+04  0.10000000000E+01 0.  0.
    9000001   -1    0    0    0    0 -0.00000000000E+00 -0.00000000000E+00 -0.64999999231E+04  0.65000000000E+04  0.10000000000E+01 0.  0.
    9000001    1    1    2    0    0 -0.11670576537E+03  0.50616985590E+04  0.40762220820E+04  0.65000000000E+04  0.10000000000E+01 0.  0.
    9000001    1    1    2    0    0  0.11670576537E+03 -0.50616985590E+04 -0.40762220820E+04  0.65000000000E+04  0.10000000000E+01 0.  0.
</event>
<event>
 4    1  0.2201588E-006  0.1300000E+05  0.7957747E-01  0.1322471E+00
    9000001   -1    0    0    0    0  0.00000000000E+00  0.00000000000E+00  0.64999999231E+04  0.65000000000E+04  0.10000000000E+01 0.  0.
    9000001   -1    0    0    0    0 -0.00000000000E+00 -0.00000000000E+00 -0.64999999231E+04  0.65000000000E+04  0.10000000000E+01 0.  0.
    9000001    1    1    2    0    0 -0.22505660079E+04 -0.30231852303E+03 -0.60904478616E+04  0.65000000000E+04  0.10000000000E+01 0.  0.
    9000001    1    1    2    0    0  0.22505660079E+04  0.30231852303E+03  0.60904478616E+04  0.65000000000E+04  0.10000000000E+01 0.  0.
</event>
<event>
 4    1  0.2201588E-006  0.1300000E+05  0.7957747E-01  0.1322471E+00
    9000001   -1    0    0    0    0  0.00000000000E+00  0.00000000000E+00  0.64999999231E+04  0.65000000000E+04  0.10000000000E+01 0.  0.
    9000001   -1    0    0    0    0 -0.00000000000E+00 -0.00000000000E+00 -0.64999999231E+04  0.65000000000E+04  0.10000000000E+01 0.  0.
    9000001    1    1    2    0    0  0.61566715011E+04  0.20451783005E+04 -0.40328742485E+03  0.65000000000E+04  0.10000000000E+01 0.  0.
    9000001    1    1    2    0    0 -0.61566715011E+04 -0.20451783005E+04  0.40328742485E+03  0.65000000000E+04  0.10000000000E+01 0.  0.
</event>
<event>
 4    1  0.2201588E-006  0.1300000E+05  0.7957747E-01  0.1322471E+00
    9000001   -1    0    0    0    0  0.00000000000E+00  0.00000000000E+00  0.64999999231E+04  0.65000000000E+04  0.10000000000E+01 0.  0.
    9000001   -1    0    0    0    0 -0.00000000000E+00 -0.00000000000E+00 -0.64999999231E+04  0.65000000000E+04  0.10000000000E+01 0.  0.
    9000001    1    1    2    0    0 -0.31447093978E+04  0.37293833282E+04  0.42956375307E+04  0.65000000000E+04  0.10000000000E+01 0.  0.
    9000001    1    1    2    0    0  0.31447093978E+04 -0.37293833282E+04 -0.42956375307E+04  0.65000000000E+04  0.10000000000E+01 0.  0.
</event>
<event>
 4    1  0.2201588E-006  0.1300000E+05  0.7957747E-01  0.1322471E+00
    9000001   -1    0    0    0    0  0.00000000000E+00  0.00000000000E+00  0.64999999231E+04  0.65000000000E+04  0.10000000000E+01 0.  0.
    9000001   -1    0    0    0    0 -0.00000000000E+00 -0.00000000000E+00 -0.64999999231E+04  0.65000000000E+04  0.10000000000E+01 0.  0.
    9000001    1    1    2    0    0 -0.17752811475E+04 -0.63303436935E+03  0.62207429890E+04  0.65000000000E+04  0.10000000000E+01 0.  0.
    9000001    1    1    2    0    0  0.17752811475E+04  0.63303436935E+03 -0.62207429890E+04  0.65000000000E+04  0.10000000000E+01 0.  0.
</event>
<event>
 4    1  0.2201588E-006  0.1300000E+05  0.7957747E-01  0.1322471E+00
    9000001   -1    0    0    0    0  0.00000000000E+00  0.00000000000E+00  0.64999999231E+04  0.65000000000E+04  0.10000000000E+01 0.  0.
    9000001   -1    0    0    0    0 -0.00000000000E+00 -0.00000000000E+00 -0.64999999231E+04  0.65000000000E+04  0.10000000000E+01 0.  0.
    9000001    1    1    2    0    0  0.34197142902E+04 -0.26279055762E+04  0.48630921702E+04  0.65000000000E+04  0.10000000000E+01 0.  0.
    9000001    1    1    2    0    0 -0.34197142902E+04  0.26279055762E+04 -0.48630921702E+04  0.65000000000E+04  0.10000000000E+01 0.  0.
</event>
<event>
 4    1  0.2201588E-006  0.1300000E+05  0.7957747E-01  0.1322471E+00
    9000001   -1    0    0    0    0  0.00000000000E+00  0.00000000000E+00  0.64999999231E+04  0.65000000000E+04  0.10000000000E+01 0.  0.
    9000001   -1    0    0    0    0 -0.00000000000E+00 -0.00000000000E+00 -0.64999999231E+04  0.65000000000E+04  0.10000000000E+01 0.  0.
    9000001    1    1    2    0    0 -0.50209062920E+04 -0.18055325987E+04  0.37122164595E+04  0.65000000000E+04  0.10000000000E+01 0.  0.
    9000001    1    1    2    0    0  0.50209062920E+04  0.18055325987E+04 -0.37122164595E+04  0.65000000000E+04  0.10000000000E+01 0.  0.
</event>
<event>
 4    1  0.2201588E-006  0.1300000E+05  0.7957747E-01  0.1322471E+00
    9000001   -1    0    0    0    0  0.00000000000E+00  0.00000000000E+00  0.64999999231E+04  0.65000000000E+04  0.10000000000E+01 0.  0.
    9000001   -1    0    0    0    0 -0.00000000000E+00 -0.00000000000E+00 -0.64999999231E+04  0.65000000000E+04  0.10000000000E+01 0.  0.
    9000001    1    1    2    0    0  0.38943236025E+03  0.54143183969E+04 -0.35754017584E+04  0.65000000000E+04  0.10000000000E+01 0.  0.
    9000001    1    1    2    0    0 -0.38943236025E+03 -0.54143183969E+04  0.35754017584E+04  0.65000000000E+04  0.10000000000E+01 0.  0.
</event>
<event>
 4    1  0.2201588E-006  0.1300000E+05  0.7957747E-01  0.1322471E+00
    9000001   -1    0    0    0    0  0.00000000000E+00  0.00000000000E+00  0.64999999231E+04  0.65000000000E+04  0.10000000000E+01 0.  0.
    9000001   -1    0    0    0    0 -0.00000000000E+00 -0.00000000000E+00 -0.64999999231E+04  0.65000000000E+04  0.10000000000E+01 0.  0.
    9000001    1    1    2    0    0 -0.31955374114E+04  0.98531257622E+03  0.55738405772E+04  0.65000000000E+04  0.10000000000E+01 0.  0.
    9000001    1    1    2    0    0  0.31955374114E+04 -0.98531257622E+03 -0.55738405772E+04  0.65000000000E+04  0.10000000000E+01 0.  0.
</event>
<event>
 4    1  0.2201588E-006  0.1300000E+05  0.7957747E-01  0.1322471E+00
    9000001   -1    0    0    0    0  0.00000000000E+00  0.00000000000E+00  0.64999999231E+04  0.65000000000E+04  0.10000000000E+01 0.  0.
    9000001   -1    0    0    0    0 -0.00000000000E+00 -0.00000000000E+00 -0.64999999231E+04  0.65000000000E+04  0.10000000000E+01 0.  0.
    9000001    1    1    2    0    0  0.13373099941E+04  0.63082971577E+04  0.81669330254E+03  0.65000000000E+04  0.10000000000E+01 0.  0.
    9000001    1    1    2    0    0 -0.13373099941E+04 -0.63082971577E+04 -0.81669330254E+03  0.65000000000E+04  0.10000000000E+01 0.  0.
</event>
<event>
 4    1  0.2201588E-006  0.1300000E+05  0.7957747E-01  0.1322471E+00
    9000001   -1    0    0    0    0  0.00000000000E+00  0.00000000000E+00  0.64999999231E+04  0.65000000000E+04  0.10000000000E+01 0.  0.
    9000001   -1    0    0    0    0 -0.00000000000E+00 -0.00000000000E+00 -0.64999999231E+04  0.65000000000E+04  0.10000000000E+01 0.  0.
    9000001    1    1    2    0    0  0.59413958752E+04  0.69788872946E+03 -0.25421969583E+04  0.65000000000E+04  0.10000000000E+01 0.  0.
    9000001    1    1    2    0    0 -0.59413958752E+04 -0.69788872946E+03  0.25421969583E+04  0.65000000000E+04  0.10000000000E+01 0.  0.
</event>
<event>
 4    1  0.2201588E-006  0.1300000E+05  0.7957747E-01  0.1322471E+00
    9000001   -1    0    0    0    0  0.00000000000E+00  0.00000000000E+00  0.64999999231E+04  0.65000000000E+04  0.10000000000E+01 0.  0.
    9000001   -1    0    0    0    0 -0.00000000000E+00 -0.00000000000E+00 -0.64999999231E+04  0.65000000000E+04  0.10000000000E+01 0.  0.
    9000001    1    1    2    0    0 -0.34113505209E+04  0.52310204034E+04  0.18025293792E+04  0.65000000000E+04  0.10000000000E+01 0.  0.
    9000001    1    1    2    0    0  0.34113505209E+04 -0.52310204034E+04 -0.18025293792E+04  0.65000000000E+04  0.10000000000E+01 0.  0.
</event>
<event>
 4    1  0.2201588E-006  0.1300000E+05  0.7957747E-01  0.1322471E+00
    9000001   -1    0    0    0    0  0.00000000000E+00  0.00000000000E+00  0.64999999231E+04  0.65000000000E+04  0.10000000000E+01 0.  0.
    9000001   -1    0    0    0    0 -0.00000000000E+00 -0.00000000000E+00 -0.64999999231E+04  0.65000000000E+04  0.10000000000E+01 0.  0.
    9000001    1    1    2    0    0  0.86181981842E+02  0.64444448853E+04 -0.84362419728E+03  0.65000000000E+04  0.10000000000E+01 0.  0.
    9000001    1    1    2    0    0 -0.86181981842E+02 -0.64444448853E+04  0.84362419728E+03  0.65000000000E+04  0.10000000000E+01 0.  0.
</event>
<event>
 4    1  0.2201588E-006  0.1300000E+05  0.7957747E-01  0.1322471E+00
    9000001   -1    0    0    0    0  0.00000000000E+00  0.00000000000E+00  0.64999999231E+04  0.65000000000E+04  0.10000000000E+01 0.  0.
    9000001   -1    0    0    0    0 -0.00000000000E+00 -0.00000000000E+00 -0.64999999231E+04  0.65000000000E+04  0.10000000000E+01 0.  0.
    9000001    1    1    2    0    0 -0.12826972430E+04 -0.51006308101E+04 -0.38194570455E+04  0.65000000000E+04  0.10000000000E+01 0.  0.
    9000001    1    1    2    0    0  0.12826972430E+04  0.51006308101E+04  0.38194570455E+04  0.65000000000E+04  0.10000000000E+01 0.  0.
</event>
<event>
 4    1  0.2201588E-006  0.1300000E+05  0.7957747E-01  0.1322471E+00
    9000001   -1    0    0    0    0  0.00000000000E+00  0.00000000000E+00  0.64999999231E+04  0.65000000000E+04  0.10000000000E+01 0.  0.
    9000001   -1    0    0    0    0 -0.00000000000E+00 -0.00000000000E+00 -0.64999999231E+04  0.65000000000E+04  0.10000000000E+01 0.  0.
    9000001    1    1    2    0    0  0.62329970719E+04  0.15709694518E+04  0.96529864941E+03  0.65000000000E+04  0.10000000000E+01 0.  0.
    9000001    1    1    2    0    0 -0.62329970719E+04 -0.15709694518E+04 -0.96529864941E+03  0.65000000000E+04  0.10000000000E+01 0.  0.
</event>
<event>
 4    1  0.2201588E-006  0.1300000E+05  0.7957747E-01  0.1322471E+00
    9000001   -1    0    0    0    0  0.00000000000E+00  0.00000000000E+00  0.64999999231E+04  0.65000000000E+04  0.10000000000E+01 0.  0.
    9000001   -1    0    0    0    0 -0.00000000000E+00 -0.00000000000E+00 -0.64999999231E+04  0.65000000000E+04  0.10000000000E+01 0.  0.
    9000001    1    1    2    0    0 -0.63046461242E+04 -0.55870997801E+03 -0.14796213736E+04  0.65000000000E+04  0.10000000000E+01 0.  0.
    9000001    1    1    2    0    0  0.63046461242E+04  0.55870997801E+03  0.14796213736E+04  0.65000000000E+04  0.10000000000E+01 0.  0.
</event>
<event>
 4    1  0.2201588E-006  0.1300000E+05  0.7957747E-01  0.1322471E+00
    9000001   -1    0    0    0    0  0.00000000000E+00  0.00000000000E+00  0.64999999231E+04  0.65000000000E+04  0.10000000000E+01 0.  0.
    9000001   -1    0    0    0    0 -0.00000000000E+00 -0.00000000000E+00 -0.64999999231E+04  0.65000000000E+04  0.10000000000E+01 0.  0.
    9000001    1    1    2    0    0  0.72022592702E+03 -0.63389353987E+04 -0.12446572319E+04  0.65000000000E+04  0.10000000000E+01 0.  0.
    9000001    1    1    2    0    0 -0.72022592702E+03  0.63389353987E+04  0.12446572319E+04  0.65000000000E+04  0.10000000000E+01 0.  0.
</event>
<event>
 4    1  0.2201588E-006  0.1300000E+05  0.7957747E-01  0.1322471E+00
    9000001   -1    0    0    0    0  0.00000000000E+00  0.00000000000E+00  0.64999999231E+04  0.65000000000E+04  0.10000000000E+01 0.  0.
    9000001   -1    0    0    0    0 -0.00000000000E+00 -0.00000000000E+00 -0.64999999231E+04  0.65000000000E+04  0.10000000000E+01 0.  0.
    9000001    1    1    2    0    0 -0.33640732606E+04  0.17066682058E+04  0.52934198523E+04  0.65000000000E+04  0.10000000000E+01 0.  0.
    9000001    1    1    2    0    0  0.33640732606E+04 -0.17066682058E+04 -0.52934198523E+04  0.65000000000E+04  0.10000000000E+01 0.  0.
</event>
<event>
 4    1  0.2201588E-006  0.1300000E+05  0.7957747E-01  0.1322471E+00
    9000001   -1    0    0    0    0  0.00000000000E+00  0.00000000000E+00  0.64999999231E+04  0.65000000000E+04  0.10000000000E+01 0.  0.
    9000001   -1    0    0    0    0 -0.00000000000E+00 -0.00000000000E+00 -0.64999999231E+04  0.65000000000E+04  0.10000000000E+01 0.  0.
    9000001    1    1    2    0    0  0.12164970831E+04 -0.61172186281E+04 -0.18302377174E+04  0.65000000000E+04  0.10000000000E+01 0.  0.
    9000001    1    1    2    0    0 -0.12164970831E+04  0.61172186281E+04  0.18302377174E+04  0.65000000000E+04  0.10000000000E+01 0.  0.
</event>
<event>
 4    1  0.2201588E-006  0.1300000E+05  0.7957747E-01  0.1322471E+00
    9000001   -1    0    0    0    0  0.00000000000E+00  0.00000000000E+00  0.64999999231E+04  0.65000000000E+04  0.10000000000E+01 0.  0.
    9000001   -1    0    0    0    0 -0.00000000000E+00 -0.00000000000E+00 -0.64999999231E+04  0.65000000000E+04  0.10000000000E+01 0.  0.
    9000001    1    1    2    0    0  0.32336252579E+04 -0.50237355554E+04 -0.25604194503E+04  0.65000000000E+04  0.10000000000E+01 0.  0.
    9000001    1    1    2    0    0 -0.32336252579E+04  0.50237355554E+04  0.25604194503E+04  0.65000000000E+04  0.10000000000E+01 0.  0.
</event>
<event>
 4    1  0.2201588E-006  0.1300000E+05  0.7957747E-01  0.1322471E+00
    9000001   -1    0    0    0    0  0.00000000000E+00  0.00000000000E+00  0.64999999231E+04  0.65000000000E+04  0.10000000000E+01 0.  0.
    9000001   -1    0    0    0    0 -0.00000000000E+00 -0.00000000000E+00 -0.64999999231E+04  0.65000000000E+04  0.10000000000E+01 0.  0.
    9000001    1    1    2    0    0  0.62465974129E+04 -0.14018101327E+04 -0.11246991212E+04  0.65000000000E+04  0.10000000000E+01 0.  0.
    9000001    1    1    2    0    0 -0.62465974129E+04  0.14018101327E+04  0.11246991212E+04  0.65000000000E+04  0.10000000000E+01 0.  0.
</event>
<event>
 4    1  0.2201588E-006  0.1300000E+05  0.7957747E-01  0.1322471E+00
    9000001   -1    0    0    0    0  0.00000000000E+00  0.00000000000E+00  0.64999999231E+04  0.65000000000E+04  0.10000000000E+01 0.  0.
    9000001   -1    0    0    0    0 -0.00000000000E+00 -0.00000000000E+00 -0.64999999231E+04  0.65000000000E+04  0.10000000000E+01 0.  0.
    9000001    1    1    2    0    0 -0.58352941107E+04  0.18686652495E+03 -0.28573453665E+04  0.65000000000E+04  0.10000000000E+01 0.  0.
    9000001    1    1    2    0    0  0.58352941107E+04 -0.18686652495E+03  0.28573453665E+04  0.65000000000E+04  0.10000000000E+01 0.  0.
</event>
<event>
 4    1  0.2201588E-006  0.1300000E+05  0.7957747E-01  0.1322471E+00
    9000001   -1    0    0    0    0  0.00000000000E+00  0.00000000000E+00  0.64999999231E+04  0.65000000000E+04  0.10000000000E+01 0.  0.
    9000001   -1    0    0    0    0 -0.00000000000E+00 -0.00000000000E+00 -0.64999999231E+04  0.65000000000E+04  0.10000000000E+01 0.  0.
    9000001    1    1    2    0    0 -0.46860542506E+04 -0.17317922935E+04 -0.41583398145E+04  0.65000000000E+04  0.10000000000E+01 0.  0.
    9000001    1    1    2    0    0  0.46860542506E+04  0.17317922935E+04  0.41583398145E+04  0.65000000000E+04  0.10000000000E+01 0.  0.
</event>
<event>
 4    1  0.2201588E-006  0.1300000E+05  0.7957747E-01  0.1322471E+00
    9000001   -1    0    0    0    0  0.00000000000E+00  0.00000000000E+00  0.64999999231E+04  0.65000000000E+04  0.10000000000E+01 0.  0.
    9000001   -1    0    0    0    0 -0.00000000000E+00 -0.00000000000E+00 -0.64999999231E+04  0.65000000000E+04  0.10000000000E+01 0.  0.
    9000001    1    1    2    0    0  0.13456997086E+04 -0.33008280697E+04  0.54354048008E+04  0.65000000000E+04  0.10000000000E+01 0.  0.
    9000001    1    1    2    0    0 -0.13456997086E+04  0.33008280697E+04 -0.54354048008E+04  0.65000000000E+04  0.10000000000E+01 0.  0.
</event>
<event>
 4    1  0.2201588E-006  0.1300000E+05  0.7957747E-01  0.1322471E+00
    9000001   -1    0    0    0    0  0.00000000000E+00  0.00000000000E+00  0.64999999231E+04  0.65000000000E+04  0.10000000000E+01 0.  0.
    9000001   -1    0    0    0    0 -0.00000000000E+00 -0.00000000000E+00 -0.64999999231E+04  0.65000000000E+04  0.10000000000E+01 0.  0.
    9000001    1    1    2    0    0 -0.37500750007E+04 -0.43482965409E+04  0.30461867443E+04  0.65000000000E+04  0.10000000000E+01 0.  0.
    9000001    1    1    2    0    0  0.37500750007E+04  0.43482965409E+04 -0.30461867443E+04  0.65000000000E+04  0.10000000000E+01 0.  0.
</event>
<event>
 4    1  0.2201588E-006  0.1300000E+05  0.7957747E-01  0.1322471E+00
    9000001   -1    0    0    0    0  0.00000000000E+00  0.00000000000E+00  0.64999999231E+04  0.65000000000E+04  0.10000000000E+01 0.  0.
    9000001   -1    0    0    0    0 -0.00000000000E+00 -0.00000000000E+00 -0.64999999231E+04  0.65000000000E+04  0.10000000000E+01 0.  0.
    9000001    1    1    2    0    0 -0.62755313536E+04  0.13415327293E+04 -0.10334385158E+04  0.65000000000E+04  0.10000000000E+01 0.  0.
    9000001    1    1    2    0    0  0.62755313536E+04 -0.13415327293E+04  0.10334385158E+04  0.65000000000E+04  0.10000000000E+01 0.  0.
</event>
<event>
 4    1  0.2201588E-006  0.1300000E+05  0.7957747E-01  0.1322471E+00
    9000001   -1    0    0    0    0  0.00000000000E+00  0.00000000000E+00  0.64999999231E+04  0.65000000000E+04  0.10000000000E+01 0.  0.
    9000001   -1    0    0    0    0 -0.00000000000E+00 -0.00000000000E+00 -0.64999999231E+04  0.65000000000E+04  0.10000000000E+01 0.  0.
    9000001    1    1    2    0    0 -0.46925692430E+04  0.32841672640E+04 -0.30731154033E+04  0.65000000000E+04  0.10000000000E+01 0.  0.
    9000001    1    1    2    0    0  0.46925692430E+04 -0.32841672640E+04  0.30731154033E+04  0.65000000000E+04  0.10000000000E+01 0.  0.
</event>
<event>
 4    1  0.2201588E-006  0.1300000E+05  0.7957747E-01  0.1322471E+00
    9000001   -1    0    0    0    0  0.00000000000E+00  0.00000000000E+00  0.64999999231E+04  0.65000000000E+04  0.10000000000E+01 0.  0.
    9000001   -1    0    0    0    0 -0.00000000000E+00 -0.00000000000E+00 -0.64999999231E+04  0.65000000000E+04  0.10000000000E+01 0.  0.
    9000001    1    1    2    0    0 -0.15698409062E+04 -0.31722984757E+04  0.54517997864E+04  0.65000000000E+04  0.10000000000E+01 0.  0.
    9000001    1    1    2    0    0  0.15698409062E+04  0.31722984757E+04 -0.54517997864E+04  0.65000000000E+04  0.10000000000E+01 0.  0.
</event>
<event>
 4    1  0.2201588E-006  0.1300000E+05  0.7957747E-01  0.1322471E+00
    9000001   -1    0    0    0    0  0.00000000000E+00  0.00000000000E+00  0.64999999231E+04  0.65000000000E+04  0.10000000000E+01 0.  0.
    9000001   -1    0    0    0    0 -0.00000000000E+00 -0.00000000000E+00 -0.64999999231E+04  0.65000000000E+04  0.10000000000E+01 0.  0.
    9000001    1    1    2    0    0  0.16398513786E+04  0.61887632726E+04  0.11225398041E+04  0.65000000000E+04  0.10000000000E+01 0.  0.
    9000001    1    1    2    0    0 -0.16398513786E+04 -0.61887632726E+04 -0.11225398041E+04  0.65000000000E+04  0.10000000000E+01 0.  0.
</event>
<event>
 4    1  0.2201588E-006  0.1300000E+05  0.7957747E-01  0.1322471E+00
    9000001   -1    0    0    0    0  0.00000000000E+00  0.00000000000E+00  0.64999999231E+04  0.65000000000E+04  0.10000000000E+01 0.  0.
    9000001   -1    0    0    0    0 -0.00000000000E+00 -0.00000000000E+00 -0.64999999231E+04  0.65000000000E+04  0.10000000000E+01 0.  0.
    9000001    1    1    2    0    0  0.36430336224E+04  0.47132199866E+04  0.26007426601E+04  0.65000000000E+04  0.10000000000E+01 0.  0.
    9000001    1    1    2    0    0 -0.36430336224E+04 -0.47132199866E+04 -0.26007426601E+04  0.65000000000E+04  0.10000000000E+01 0.  0.
</event>
<event>
 4    1  0.2201588E-006  0.1300000E+05  0.7957747E-01  0.1322471E+00
    9000001   -1    0    0    0    0  0.00000000000E+00  0.00000000000E+00  0.64999999231E+04  0.65000000000E+04  0.10000000000E+01 0.  0.
    9000001   -1    0    0    0    0 -0.00000000000E+00 -0.00000000000E+00 -0.64999999231E+04  0.65000000000E+04  0.10000000000E+01 0.  0.
    9000001    1    1    2    0    0 -0.54724497980E+04  0.12215005222E+04 -0.32878912213E+04  0.65000000000E+04  0.10000000000E+01 0.  0.
    9000001    1    1    2    0    0  0.54724497980E+04 -0.12215005222E+04  0.32878912213E+04  0.65000000000E+04  0.10000000000E+01 0.  0.
</event>
<event>
 4    1  0.2201588E-006  0.1300000E+05  0.7957747E-01  0.1322471E+00
    9000001   -1    0    0    0    0  0.00000000000E+00  0.00000000000E+00  0.64999999231E+04  0.65000000000E+04  0.10000000000E+01 0.  0.
    9000001   -1    0    0    0    0 -0.00000000000E+00 -0.00000000000E+00 -0.64999999231E+04  0.65000000000E+04  0.10000000000E+01 0.  0.
    9000001    1    1    2    0    0 -0.58929243174E+04  0.27098831407E+04  0.42423502116E+03  0.65000000000E+04  0.10000000000E+01 0.  0.
    9000001    1    1    2    0    0  0.58929243174E+04 -0.27098831407E+04 -0.42423502116E+03  0.65000000000E+04  0.10000000000E+01 0.  0.
</event>
<event>
 4    1  0.2201588E-006  0.1300000E+05  0.7957747E-01  0.1322471E+00
    9000001   -1    0    0    0    0  0.00000000000E+00  0.00000000000E+00  0.64999999231E+04  0.65000000000E+04  0.10000000000E+01 0.  0.
    9000001   -1    0    0    0    0 -0.00000000000E+00 -0.00000000000E+00 -0.64999999231E+04  0.65000000000E+04  0.10000000000E+01 0.  0.
    9000001    1    1    2    0    0  0.53150957678E+04  0.36500842923E+04 -0.82258169053E+03  0.65000000000E+04  0.10000000000E+01 0.  0.
    9000001    1    1    2    0    0 -0.53150957678E+04 -0.36500842923E+04  0.82258169053E+03  0.65000000000E+04  0.10000000000E+01 0.  0.
</event>
<event>
 4    1  0.2201588E-006  0.1300000E+05  0.7957747E-01  0.1322471E+00
    9000001   -1    0    0    0    0  0.00000000000E+00  0.00000000000E+00  0.64999999231E+04  0.65000000000E+04  0.10000000000E+01 0.  0.
    9000001   -1    0    0    0    0 -0.00000000000E+00 -0.00000000000E+00 -0.64999999231E+04  0.65000000000E+04  0.10000000000E+01 0.  0.
    9000001    1    1    2    0    0 -0.55218585781E+04  0.22564874941E+04  0.25821194844E+04  0.65000000000E+04  0.10000000000E+01 0.  0.
    9000001    1    1    2    0    0  0.55218585781E+04 -0.22564874941E+04 -0.25821194844E+04  0.65000000000E+04  0.10000000000E+01 0.  0.
</event>
<event>
 4    1  0.2201588E-006  0.1300000E+05  0.7957747E-01  0.1322471E+00
    9000001   -1    0    0    0    0  0.00000000000E+00  0.00000000000E+00  0.64999999231E+04  0.65000000000E+04  0.10000000000E+01 0.  0.
    9000001   -1    0    0    0    0 -0.00000000000E+00 -0.00000000000E+00 -0.64999999231E+04  0.65000000000E+04  0.10000000000E+01 0.  0.
    9000001    1    1    2    0    0 -0.62638912593E+04 -0.62463655988E+03 -0.16197204883E+04  0.65000000000E+04  0.10000000000E+01 0.  0.
    9000001    1    1    2    0    0  0.62638912593E+04  0.62463655988E+03  0.16197204883E+04  0.65000000000E+04  0.10000000000E+01 0.  0.
</event>
<event>
 4    1  0.2201588E-006  0.1300000E+05  0.7957747E-01  0.1322471E+00
    9000001   -1    0    0    0    0  0.00000000000E+00  0.00000000000E+00  0.64999999231E+04  0.65000000000E+04  0.10000000000E+01 0.  0.
    9000001   -1    0    0    0    0 -0.00000000000E+00 -0.00000000000E+00 -0.64999999231E+04  0.65000000000E+04  0.10000000000E+01 0.  0.
    9000001    1    1    2    0    0  0.59592174094E+04  0.25680196515E+04 -0.37815596971E+03  0.65000000000E+04  0.10000000000E+01 0.  0.
    9000001    1    1    2    0    0 -0.59592174094E+04 -0.25680196515E+04  0.37815596971E+03  0.65000000000E+04  0.10000000000E+01 0.  0.
</event>
<event>
 4    1  0.2201588E-006  0.1300000E+05  0.7957747E-01  0.1322471E+00
    9000001   -1    0    0    0    0  0.00000000000E+00  0.00000000000E+00  0.64999999231E+04  0.65000000000E+04  0.10000000000E+01 0.  0.
    9000001   -1    0    0    0    0 -0.00000000000E+00 -0.00000000000E+00 -0.64999999231E+04  0.65000000000E+04  0.10000000000E+01 0.  0.
    9000001    1    1    2    0    0 -0.46345804662E+03  0.64723182133E+04  0.37987180026E+03  0.65000000000E+04  0.10000000000E+01 0.  0.
    9000001    1    1    2    0    0  0.46345804662E+03 -0.64723182133E+04 -0.37987180026E+03  0.65000000000E+04  0.10000000000E+01 0.  0.
</event>
<event>
 4    1  0.2201588E-006  0.1300000E+05  0.7957747E-01  0.1322471E+00
    9000001   -1    0    0    0    0  0.00000000000E+00  0.00000000000E+00  0.64999999231E+04  0.65000000000E+04  0.10000000000E+01 0.  0.
    9000001   -1    0    0    0    0 -0.00000000000E+00 -0.00000000000E+00 -0.64999999231E+04  0.65000000000E+04  0.10000000000E+01 0.  0.
    9000001    1    1    2    0    0  0.37499637014E+03 -0.59237290482E+04 -0.26493038493E+04  0.65000000000E+04  0.10000000000E+01 0.  0.
    9000001    1    1    2    0    0 -0.37499637014E+03  0.59237290482E+04  0.26493038493E+04  0.65000000000E+04  0.10000000000E+01 0.  0.
</event>
<event>
 4    1  0.2201588E-006  0.1300000E+05  0.7957747E-01  0.1322471E+00
    9000001   -1    0    0    0    0  0.00000000000E+00  0.00000000000E+00  0.64999999231E+04  0.65000000000E+04  0.10000000000E+01 0.  0.
    9000001   -1    0    0    0    0 -0.00000000000E+00 -0.00000000000E+00 -0.64999999231E+04  0.65000000000E+04  0.10000000000E+01 0.  0.
    9000001    1    1    2    0    0 -0.55492883457E+04  0.23983724383E+04 -0.23881389205E+04  0.65000000000E+04  0.10000000000E+01 0.  0.
    9000001    1    1    2    0    0  0.55492883457E+04 -0.23983724383E+04  0.23881389205E+04  0.65000000000E+04  0.10000000000E+01 0.  0.
</event>
<event>
 4    1  0.2201588E-006  0.1300000E+05  0.7957747E-01  0.1322471E+00
    9000001   -1    0    0    0    0  0.00000000000E+00  0.00000000000E+00  0.64999999231E+04  0.65000000000E+04  0.10000000000E+01 0.  0.
    9000001   -1    0    0    0    0 -0.00000000000E+00 -0.00000000000E+00 -0.64999999231E+04  0.65000000000E+04  0.10000000000E+01 0.  0.
    9000001    1    1    2    0    0 -0.44566750696E+04 -0.18228243736E+04  0.43663895414E+04  0.65000000000E+04  0.10000000000E+01 0.  0.
    9000001    1    1    2    0    0  0.44566750696E+04  0.18228243736E+04 -0.43663895414E+04  0.65000000000E+04  0.10000000000E+01 0.  0.
</event>
<event>
 4    1  0.2201588E-006  0.1300000E+05  0.7957747E-01  0.1322471E+00
    9000001   -1    0    0    0    0  0.00000000000E+00  0.00000000000E+00  0.64999999231E+04  0.65000000000E+04  0.10000000000E+01 0.  0.
    9000001   -1    0    0    0    0 -0.00000000000E+00 -0.00000000000E+00 -0.64999999231E+04  0.65000000000E+04  0.10000000000E+01 0.  0.
    9000001    1    1    2    0    0 -0.39318398651E+04  0.25044520755E+04  0.45297189843E+04  0.65000000000E+04  0.10000000000E+01 0.  0.
    9000001    1    1    2    0    0  0.39318398651E+04 -0.25044520755E+04 -0.45297189843E+04  0.65000000000E+04  0.10000000000E+01 0.  0.
</event>
<event>
 4    1  0.2201588E-006  0.1300000E+05  0.7957747E-01  0.1322471E+00
    9000001   -1    0    0    0    0  0.00000000000E+00  0.00000000000E+00  0.64999999231E+04  0.65000000000E+04  0.10000000000E+01 0.  0.
    9000001   -1    0    0    0    0 -0.00000000000E+00 -0.00000000000E+00 -0.64999999231E+04  0.65000000000E+04  0.10000000000E+01 0.  0.
    9000001    1    1    2    0    0 -0.62713229094E+03  0.20624789779E+04 -0.61321190918E+04  0.65000000000E+04  0.10000000000E+01 0.  0.
    9000001    1    1    2    0    0  0.62713229094E+03 -0.20624789779E+04  0.61321190918E+04  0.65000000000E+04  0.10000000000E+01 0.  0.
</event>
<event>
 4    1  0.2201588E-006  0.1300000E+05  0.7957747E-01  0.1322471E+00
    9000001   -1    0    0    0    0  0.00000000000E+00  0.00000000000E+00  0.64999999231E+04  0.65000000000E+04  0.10000000000E+01 0.  0.
    9000001   -1    0    0    0    0 -0.00000000000E+00 -0.00000000000E+00 -0.64999999231E+04  0.65000000000E+04  0.10000000000E+01 0.  0.
    9000001    1    1    2    0    0 -0.20078521868E+04  0.35299519443E+04  0.50752308191E+04  0.65000000000E+04  0.10000000000E+01 0.  0.
    9000001    1    1    2    0    0  0.20078521868E+04 -0.35299519443E+04 -0.50752308191E+04  0.65000000000E+04  0.10000000000E+01 0.  0.
</event>
<event>
 4    1  0.2201588E-006  0.1300000E+05  0.7957747E-01  0.1322471E+00
    9000001   -1    0    0    0    0  0.00000000000E+00  0.00000000000E+00  0.64999999231E+04  0.65000000000E+04  0.10000000000E+01 0.  0.
    9000001   -1    0    0    0    0 -0.00000000000E+00 -0.00000000000E+00 -0.64999999231E+04  0.65000000000E+04  0.10000000000E+01 0.  0.
    9000001    1    1    2    0    0  0.54853080332E+04 -0.25718619706E+04 -0.23551901803E+04  0.65000000000E+04  0.10000000000E+01 0.  0.
    9000001    1    1    2    0    0 -0.54853080332E+04  0.25718619706E+04  0.23551901803E+04  0.65000000000E+04  0.10000000000E+01 0.  0.
</event>
<event>
 4    1  0.2201588E-006  0.1300000E+05  0.7957747E-01  0.1322471E+00
    9000001   -1    0    0    0    0  0.00000000000E+00  0.00000000000E+00  0.64999999231E+04  0.65000000000E+04  0.10000000000E+01 0.  0.
    9000001   -1    0    0    0    0 -0.00000000000E+00 -0.00000000000E+00 -0.64999999231E+04  0.65000000000E+04  0.10000000000E+01 0.  0.
    9000001    1    1    2    0    0 -0.27089260411E+04  0.58816191676E+04  0.56415837423E+03  0.65000000000E+04  0.10000000000E+01 0.  0.
    9000001    1    1    2    0    0  0.27089260411E+04 -0.58816191676E+04 -0.56415837423E+03  0.65000000000E+04  0.10000000000E+01 0.  0.
</event>
<event>
 4    1  0.2201588E-006  0.1300000E+05  0.7957747E-01  0.1322471E+00
    9000001   -1    0    0    0    0  0.00000000000E+00  0.00000000000E+00  0.64999999231E+04  0.65000000000E+04  0.10000000000E+01 0.  0.
    9000001   -1    0    0    0    0 -0.00000000000E+00 -0.00000000000E+00 -0.64999999231E+04  0.65000000000E+04  0.10000000000E+01 0.  0.
    9000001    1    1    2    0    0 -0.40624925218E+04 -0.44882604800E+04  0.23667850290E+04  0.65000000000E+04  0.10000000000E+01 0.  0.
    9000001    1    1    2    0    0  0.40624925218E+04  0.44882604800E+04 -0.23667850290E+04  0.65000000000E+04  0.10000000000E+01 0.  0.
</event>
<event>
 4    1  0.2201588E-006  0.1300000E+05  0.7957747E-01  0.1322471E+00
    9000001   -1    0    0    0    0  0.00000000000E+00  0.00000000000E+00  0.64999999231E+04  0.65000000000E+04  0.10000000000E+01 0.  0.
    9000001   -1    0    0    0    0 -0.00000000000E+00 -0.00000000000E+00 -0.64999999231E+04  0.65000000000E+04  0.10000000000E+01 0.  0.
    9000001    1    1    2    0    0 -0.44668486186E+04  0.46495786258E+04 -0.82382098860E+03  0.65000000000E+04  0.10000000000E+01 0.  0.
    9000001    1    1    2    0    0  0.44668486186E+04 -0.46495786258E+04  0.82382098860E+03  0.65000000000E+04  0.10000000000E+01 0.  0.
</event>
<event>
 4    1  0.2201588E-006  0.1300000E+05  0.7957747E-01  0.1322471E+00
    9000001   -1    0    0    0    0  0.00000000000E+00  0.00000000000E+00  0.64999999231E+04  0.65000000000E+04  0.10000000000E+01 0.  0.
    9000001   -1    0    0    0    0 -0.00000000000E+00 -0.00000000000E+00 -0.64999999231E+04  0.65000000000E+04  0.10000000000E+01 0.  0.
    9000001    1    1    2    0    0 -0.19697334796E+04 -0.44222367623E+04 -0.43375074683E+04  0.65000000000E+04  0.10000000000E+01 0.  0.
    9000001    1    1    2    0    0  0.19697334796E+04  0.44222367623E+04  0.43375074683E+04  0.65000000000E+04  0.10000000000E+01 0.  0.
</event>
<event>
 4    1  0.2201588E-006  0.1300000E+05  0.7957747E-01  0.1322471E+00
    9000001   -1    0    0    0    0  0.00000000000E+00  0.00000000000E+00  0.64999999231E+04  0.65000000000E+04  0.10000000000E+01 0.  0.
    9000001   -1    0    0    0    0 -0.00000000000E+00 -0.00000000000E+00 -0.64999999231E+04  0.65000000000E+04  0.10000000000E+01 0.  0.
    9000001    1    1    2    0    0  0.55856925922E+04  0.13953043097E+03 -0.33212299715E+04  0.65000000000E+04  0.10000000000E+01 0.  0.
    9000001    1    1    2    0    0 -0.55856925922E+04 -0.13953043097E+03  0.33212299715E+04  0.65000000000E+04  0.10000000000E+01 0.  0.
</event>
<event>
 4    1  0.2201588E-006  0.1300000E+05  0.7957747E-01  0.1322471E+00
    9000001   -1    0    0    0    0  0.00000000000E+00  0.00000000000E+00  0.64999999231E+04  0.65000000000E+04  0.10000000000E+01 0.  0.
    9000001   -1    0    0    0    0 -0.00000000000E+00 -0.00000000000E+00 -0.64999999231E+04  0.65000000000E+04  0.10000000000E+01 0.  0.
    9000001    1    1    2    0    0 -0.53797905878E+04 -0.35895830036E+04  0.65018927378E+03  0.65000000000E+04  0.10000000000E+01 0.  0.
    9000001    1    1    2    0    0  0.53797905878E+04  0.35895830036E+04 -0.65018927378E+03  0.65000000000E+04  0.10000000000E+01 0.  0.
</event>
<event>
 4    1  0.2201588E-006  0.1300000E+05  0.7957747E-01  0.1322471E+00
    9000001   -1    0    0    0    0  0.00000000000E+00  0.00000000000E+00  0.64999999231E+04  0.65000000000E+04  0.10000000000E+01 0.  0.
    9000001   -1    0    0    0    0 -0.00000000000E+00 -0.00000000000E+00 -0.64999999231E+04  0.65000000000E+04  0.10000000000E+01 0.  0.
    9000001    1    1    2    0    0  0.20038416592E+04  0.32579780720E+04  0.52554920310E+04  0.65000000000E+04  0.10000000000E+01 0.  0.
    9000001    1    1    2    0    0 -0.20038416592E+04 -0.32579780720E+04 -0.52554920310E+04  0.65000000000E+04  0.10000000000E+01 0.  0.
</event>
<event>
 4    1  0.2201588E-006  0.1300000E+05  0.7957747E-01  0.1322471E+00
    9000001   -1    0    0    0    0  0.00000000000E+00  0.00000000000E+00  0.64999999231E+04  0.65000000000E+04  0.10000000000E+01 0.  0.
    9000001   -1    0    0    0    0 -0.00000000000E+00 -0.00000000000E+00 -0.64999999231E+04  0.65000000000E+04  0.10000000000E+01 0.  0.
    9000001    1    1    2    0    0  0.18514993955E+04  0.41324055642E+04 -0.46631720150E+04  0.65000000000E+04  0.10000000000E+01 0.  0.
    9000001    1    1    2    0    0 -0.18514993955E+04 -0.41324055642E+04  0.46631720150E+04  0.65000000000E+04  0.10000000000E+01 0.  0.
</event>
<event>
 4    1  0.2201588E-006  0.1300000E+05  0.7957747E-01  0.1322471E+00
    9000001   -1    0    0    0    0  0.00000000000E+00  0.00000000000E+00  0.64999999231E+04  0.65000000000E+04  0.10000000000E+01 0.  0.
    9000001   -1    0    0    0    0 -0.00000000000E+00 -0.00000000000E+00 -0.64999999231E+04  0.65000000000E+04  0.10000000000E+01 0.  0.
    9000001    1    1    2    0    0  0.46944773608E+04 -0.24684093235E+03  0.44889810495E+04  0.65000000000E+04  0.10000000000E+01 0.  0.
    9000001    1    1    2    0    0 -0.46944773608E+04  0.24684093235E+03 -0.44889810495E+04  0.65000000000E+04  0.10000000000E+01 0.  0.
</event>
<event>
 4    1  0.2201588E-006  0.1300000E+05  0.7957747E-01  0.1322471E+00
    9000001   -1    0    0    0    0  0.00000000000E+00  0.00000000000E+00  0.64999999231E+04  0.65000000000E+04  0.10000000000E+01 0.  0.
    9000001   -1    0    0    0    0 -0.00000000000E+00 -0.00000000000E+00 -0.64999999231E+04  0.65000000000E+04  0.10000000000E+01 0.  0.
    9000001    1    1    2    0    0 -0.39648919549E+04  0.50471592086E+04 -0.10275284469E+04  0.65000000000E+04  0.10000000000E+01 0.  0.
    9000001    1    1    2    0    0  0.39648919549E+04 -0.50471592086E+04  0.10275284469E+04  0.65000000000E+04  0.10000000000E+01 0.  0.
</event>
<event>
 4    1  0.2201588E-006  0.1300000E+05  0.7957747E-01  0.1322471E+00
    9000001   -1    0    0    0    0  0.00000000000E+00  0.00000000000E+00  0.64999999231E+04  0.65000000000E+04  0.10000000000E+01 0.  0.
    9000001   -1    0    0    0    0 -0.00000000000E+00 -0.00000000000E+00 -0.64999999231E+04  0.65000000000E+04  0.10000000000E+01 0.  0.
    9000001    1    1    2    0    0  0.47428141141E+04 -0.40274725666E+04 -0.18802069046E+04  0.65000000000E+04  0.10000000000E+01 0.  0.
    9000001    1    1    2    0    0 -0.47428141141E+04  0.40274725666E+04  0.18802069046E+04  0.65000000000E+04  0.10000000000E+01 0.  0.
</event>
<event>
 4    1  0.2201588E-006  0.1300000E+05  0.7957747E-01  0.1322471E+00
    9000001   -1    0    0    0    0  0.00000000000E+00  0.00000000000E+00  0.64999999231E+04  0.65000000000E+04  0.10000000000E+01 0.  0.
    9000001   -1    0    0    0    0 -0.00000000000E+00 -0.00000000000E+00 -0.64999999231E+04  0.65000000000E+04  0.10000000000E+01 0.  0.
    9000001    1    1    2    0    0  0.74684003254E+03 -0.14418459835E+04  0.62939104796E+04  0.65000000000E+04  0.10000000000E+01 0.  0.
    9000001    1    1    2    0    0 -0.74684003254E+03  0.14418459835E+04 -0.62939104796E+04  0.65000000000E+04  0.10000000000E+01 0.  0.
</event>
<event>
 4    1  0.2201588E-006  0.1300000E+05  0.7957747E-01  0.1322471E+00
    9000001   -1    0    0    0    0  0.00000000000E+00  0.00000000000E+00  0.64999999231E+04  0.65000000000E+04  0.10000000000E+01 0.  0.
    9000001   -1    0    0    0    0 -0.00000000000E+00 -0.00000000000E+00 -0.64999999231E+04  0.65000000000E+04  0.10000000000E+01 0.  0.
    9000001    1    1    2    0    0  0.11538930242E+04  0.41227398575E+04  0.48909657488E+04  0.65000000000E+04  0.10000000000E+01 0.  0.
    9000001    1    1    2    0    0 -0.11538930242E+04 -0.41227398575E+04 -0.48909657488E+04  0.65000000000E+04  0.10000000000E+01 0.  0.
</event>
<event>
 4    1  0.2201588E-006  0.1300000E+05  0.7957747E-01  0.1322471E+00
    9000001   -1    0    0    0    0  0.00000000000E+00  0.00000000000E+00  0.64999999231E+04  0.65000000000E+04  0.10000000000E+01 0.  0.
    9000001   -1    0    0    0    0 -0.00000000000E+00 -0.00000000000E+00 -0.64999999231E+04  0.65000000000E+04  0.10000000000E+01 0.  0.
    9000001    1    1    2    0    0  0.11843646196E+04 -0.60180372062E+04  0.21518614343E+04  0.65000000000E+04  0.10000000000E+01 0.  0.
    9000001    1    1    2    0    0 -0.11843646196E+04  0.60180372062E+04 -0.21518614343E+04  0.65000000000E+04  0.10000000000E+01 0.  0.
</event>
<event>
 4    1  0.2201588E-006  0.1300000E+05  0.7957747E-01  0.1322471E+00
    9000001   -1    0    0    0    0  0.00000000000E+00  0.00000000000E+00  0.64999999231E+04  0.65000000000E+04  0.10000000000E+01 0.  0.
    9000001   -1    0    0    0    0 -0.00000000000E+00 -0.00000000000E+00 -0.64999999231E+04  0.65000000000E+04  0.10000000000E+01 0.  0.
    9000001    1    1    2    0    0  0.28862371815E+04  0.54098056784E+03  0.57988769566E+04  0.65000000000E+04  0.10000000000E+01 0.  0.
    9000001    1    1    2    0    0 -0.28862371815E+04 -0.54098056784E+03 -0.57988769566E+04  0.65000000000E+04  0.10000000000E+01 0.  0.
</event>
<event>
 4    1  0.2201588E-006  0.1300000E+05  0.7957747E-01  0.1322471E+00
    9000001   -1    0    0    0    0  0.00000000000E+00  0.00000000000E+00  0.64999999231E+04  0.65000000000E+04  0.10000000000E+01 0.  0.
    9000001   -1    0    0    0    0 -0.00000000000E+00 -0.00000000000E+00 -0.64999999231E+04  0.65000000000E+04  0.10000000000E+01 0.  0.
    9000001    1    1    2    0    0 -0.36563602204E+04  0.50586753099E+04 -0.18140653373E+04  0.65000000000E+04  0.10000000000E+01 0.  0.
    9000001    1    1    2    0    0  0.36563602204E+04 -0.50586753099E+04  0.18140653373E+04  0.65000000000E+04  0.10000000000E+01 0.  0.
</event>
<event>
 4    1  0.2201588E-006  0.1300000E+05  0.7957747E-01  0.1322471E+00
    9000001   -1    0    0    0    0  0.00000000000E+00  0.00000000000E+00  0.64999999231E+04  0.65000000000E+04  0.10000000000E+01 0.  0.
    9000001   -1    0    0    0    0 -0.00000000000E+00 -0.00000000000E+00 -0.64999999231E+04  0.65000000000E+04  0.10000000000E+01 0.  0.
    9000001    1    1    2    0    0 -0.39502319966E+04  0.29091774311E+04  0.42640770218E+04  0.65000000000E+04  0.10000000000E+01 0.  0.
    9000001    1    1    2    0    0  0.39502319966E+04 -0.29091774311E+04 -0.42640770218E+04  0.65000000000E+04  0.10000000000E+01 0.  0.
</event>
<event>
 4    1  0.2201588E-006  0.1300000E+05  0.7957747E-01  0.1322471E+00
    9000001   -1    0    0    0    0  0.00000000000E+00  0.00000000000E+00  0.64999999231E+04  0.65000000000E+04  0.10000000000E+01 0.  0.
    9000001   -1    0    0    0    0 -0.00000000000E+00 -0.00000000000E+00 -0.64999999231E+04  0.65000000000E+04  0.10000000000E+01 0.  0.
    9000001    1    1    2    0    0  0.35648637916E+04  0.11979296277E+04  0.53015761575E+04  0.65000000000E+04  0.10000000000E+01 0.  0.
    9000001    1    1    2    0    0 -0.35648637916E+04 -0.11979296277E+04 -0.53015761575E+04  0.65000000000E+04  0.10000000000E+01 0.  0.
</event>
<event>
 4    1  0.2201588E-006  0.1300000E+05  0.7957747E-01  0.1322471E+00
    9000001   -1    0    0    0    0  0.00000000000E+00  0.00000000000E+00  0.64999999231E+04  0.65000000000E+04  0.10000000000E+01 0.  0.
    9000001   -1    0    0    0    0 -0.00000000000E+00 -0.00000000000E+00 -0.64999999231E+04  0.65000000000E+04  0.10000000000E+01 0.  0.
    9000001    1    1    2    0    0 -0.20358474815E+04 -0.25189852881E+04 -0.56356044175E+04  0.65000000000E+04  0.10000000000E+01 0.  0.
    9000001    1    1    2    0    0  0.20358474815E+04  0.25189852881E+04  0.56356044175E+04  0.65000000000E+04  0.10000000000E+01 0.  0.
</event>
<event>
 4    1  0.2201588E-006  0.1300000E+05  0.7957747E-01  0.1322471E+00
    9000001   -1    0    0    0    0  0.00000000000E+00  0.00000000000E+00  0.64999999231E+04  0.65000000000E+04  0.10000000000E+01 0.  0.
    9000001   -1    0    0    0    0 -0.00000000000E+00 -0.00000000000E+00 -0.64999999231E+04  0.65000000000E+04  0.10000000000E+01 0.  0.
    9000001    1    1    2    0    0 -0.60606369427E+04  0.23491550427E+04 -0.12224332556E+02  0.65000000000E+04  0.10000000000E+01 0.  0.
    9000001    1    1    2    0    0  0.60606369427E+04 -0.23491550427E+04  0.12224332556E+02  0.65000000000E+04  0.10000000000E+01 0.  0.
</event>
<event>
 4    1  0.2201588E-006  0.1300000E+05  0.7957747E-01  0.1322471E+00
    9000001   -1    0    0    0    0  0.00000000000E+00  0.00000000000E+00  0.64999999231E+04  0.65000000000E+04  0.10000000000E+01 0.  0.
    9000001   -1    0    0    0    0 -0.00000000000E+00 -0.00000000000E+00 -0.64999999231E+04  0.65000000000E+04  0.10000000000E+01 0.  0.
    9000001    1    1    2    0    0  0.84708330091E+02  0.55598744809E+04 -0.33660985213E+04  0.65000000000E+04  0.10000000000E+01 0.  0.
    9000001    1    1    2    0    0 -0.84708330091E+02 -0.55598744809E+04  0.33660985213E+04  0.65000000000E+04  0.10000000000E+01 0.  0.
</event>
<event>
 4    1  0.2201588E-006  0.1300000E+05  0.7957747E-01  0.1322471E+00
    9000001   -1    0    0    0    0  0.00000000000E+00  0.00000000000E+00  0.64999999231E+04  0.65000000000E+04  0.10000000000E+01 0.  0.
    9000001   -1    0    0    0    0 -0.00000000000E+00 -0.00000000000E+00 -0.64999999231E+04  0.65000000000E+04  0.10000000000E+01 0.  0.
    9000001    1    1    2    0    0 -0.50844317774E+04 -0.35227642264E+04 -0.19971691731E+04  0.65000000000E+04  0.10000000000E+01 0.  0.
    9000001    1    1    2    0    0  0.50844317774E+04  0.35227642264E+04  0.19971691731E+04  0.65000000000E+04  0.10000000000E+01 0.  0.
</event>
<event>
 4    1  0.2201588E-006  0.1300000E+05  0.7957747E-01  0.1322471E+00
    9000001   -1    0    0    0    0  0.00000000000E+00  0.00000000000E+00  0.64999999231E+04  0.65000000000E+04  0.10000000000E+01 0.  0.
    9000001   -1    0    0    0    0 -0.00000000000E+00 -0.00000000000E+00 -0.64999999231E+04  0.65000000000E+04  0.10000000000E+01 0.  0.
    9000001    1    1    2    0    0 -0.11655102446E+04 -0.29929888498E+04  0.56509824468E+04  0.65000000000E+04  0.10000000000E+01 0.  0.
    9000001    1    1    2    0    0  0.11655102446E+04  0.29929888498E+04 -0.56509824468E+04  0.65000000000E+04  0.10000000000E+01 0.  0.
</event>
<event>
 4    1  0.2201588E-006  0.1300000E+05  0.7957747E-01  0.1322471E+00
    9000001   -1    0    0    0    0  0.00000000000E+00  0.00000000000E+00  0.64999999231E+04  0.65000000000E+04  0.10000000000E+01 0.  0.
    9000001   -1    0    0    0    0 -0.00000000000E+00 -0.00000000000E+00 -0.64999999231E+04  0.65000000000E+04  0.10000000000E+01 0.  0.
    9000001    1    1    2    0    0 -0.27176236867E+04 -0.10592367973E+04 -0.58088327489E+04  0.65000000000E+04  0.10000000000E+01 0.  0.
    9000001    1    1    2    0    0  0.27176236867E+04  0.10592367973E+04  0.58088327489E+04  0.65000000000E+04  0.10000000000E+01 0.  0.
</event>
<event>
 4    1  0.2201588E-006  0.1300000E+05  0.7957747E-01  0.1322471E+00
    9000001   -1    0    0    0    0  0.00000000000E+00  0.00000000000E+00  0.64999999231E+04  0.65000000000E+04  0.10000000000E+01 0.  0.
    9000001   -1    0    0    0    0 -0.00000000000E+00 -0.00000000000E+00 -0.64999999231E+04  0.65000000000E+04  0.10000000000E+01 0.  0.
    9000001    1    1    2    0    0 -0.13527543514E+04 -0.39343122048E+03  0.63454918280E+04  0.65000000000E+04  0.10000000000E+01 0.  0.
    9000001    1    1    2    0    0  0.13527543514E+04  0.39343122048E+03 -0.63454918280E+04  0.65000000000E+04  0.10000000000E+01 0.  0.
</event>
<event>
 4    1  0.2201588E-006  0.1300000E+05  0.7957747E-01  0.1322471E+00
    9000001   -1    0    0    0    0  0.00000000000E+00  0.00000000000E+00  0.64999999231E+04  0.65000000000E+04  0.10000000000E+01 0.  0.
    9000001   -1    0    0    0    0 -0.00000000000E+00 -0.00000000000E+00 -0.64999999231E+04  0.65000000000E+04  0.10000000000E+01 0.  0.
    9000001    1    1    2    0    0  0.30588503998E+04  0.57352780739E+04 -0.43181628536E+01  0.65000000000E+04  0.10000000000E+01 0.  0.
    9000001    1    1    2    0    0 -0.30588503998E+04 -0.57352780739E+04  0.43181628536E+01  0.65000000000E+04  0.10000000000E+01 0.  0.
</event>
<event>
 4    1  0.2201588E-006  0.1300000E+05  0.7957747E-01  0.1322471E+00
    9000001   -1    0    0    0    0  0.00000000000E+00  0.00000000000E+00  0.64999999231E+04  0.65000000000E+04  0.10000000000E+01 0.  0.
    9000001   -1    0    0    0    0 -0.00000000000E+00 -0.00000000000E+00 -0.64999999231E+04  0.65000000000E+04  0.10000000000E+01 0.  0.
    9000001    1    1    2    0    0  0.64368549229E+04  0.24794617291E+03  0.86914923712E+03  0.65000000000E+04  0.10000000000E+01 0.  0.
    9000001    1    1    2    0    0 -0.64368549229E+04 -0.24794617291E+03 -0.86914923712E+03  0.65000000000E+04  0.10000000000E+01 0.  0.
</event>
<event>
 4    1  0.2201588E-006  0.1300000E+05  0.7957747E-01  0.1322471E+00
    9000001   -1    0    0    0    0  0.00000000000E+00  0.00000000000E+00  0.64999999231E+04  0.65000000000E+04  0.10000000000E+01 0.  0.
    9000001   -1    0    0    0    0 -0.00000000000E+00 -0.00000000000E+00 -0.64999999231E+04  0.65000000000E+04  0.10000000000E+01 0.  0.
    9000001    1    1    2    0    0 -0.13539797985E+04 -0.60269824609E+04  0.20229236568E+04  0.65000000000E+04  0.10000000000E+01 0.  0.
    9000001    1    1    2    0    0  0.13539797985E+04  0.60269824609E+04 -0.20229236568E+04  0.65000000000E+04  0.10000000000E+01 0.  0.
</event>
<event>
 4    1  0.2201588E-006  0.1300000E+05  0.7957747E-01  0.1322471E+00
    9000001   -1    0    0    0    0  0.00000000000E+00  0.00000000000E+00  0.64999999231E+04  0.65000000000E+04  0.10000000000E+01 0.  0.
    9000001   -1    0    0    0    0 -0.00000000000E+00 -0.00000000000E+00 -0.64999999231E+04  0.65000000000E+04  0.10000000000E+01 0.  0.
    9000001    1    1    2    0    0 -0.33529031359E+04  0.55219929150E+04 -0.71807646341E+03  0.65000000000E+04  0.10000000000E+01 0.  0.
    9000001    1    1    2    0    0  0.33529031359E+04 -0.55219929150E+04  0.71807646341E+03  0.65000000000E+04  0.10000000000E+01 0.  0.
</event>
<event>
 4    1  0.2201588E-006  0.1300000E+05  0.7957747E-01  0.1322471E+00
    9000001   -1    0    0    0    0  0.00000000000E+00  0.00000000000E+00  0.64999999231E+04  0.65000000000E+04  0.10000000000E+01 0.  0.
    9000001   -1    0    0    0    0 -0.00000000000E+00 -0.00000000000E+00 -0.64999999231E+04  0.65000000000E+04  0.10000000000E+01 0.  0.
    9000001    1    1    2    0    0 -0.28299582750E+03  0.27810958557E+04  0.58681699194E+04  0.65000000000E+04  0.10000000000E+01 0.  0.
    9000001    1    1    2    0    0  0.28299582750E+03 -0.27810958557E+04 -0.58681699194E+04  0.65000000000E+04  0.10000000000E+01 0.  0.
</event>
<event>
 4    1  0.2201588E-006  0.1300000E+05  0.7957747E-01  0.1322471E+00
    9000001   -1    0    0    0    0  0.00000000000E+00  0.00000000000E+00  0.64999999231E+04  0.65000000000E+04  0.10000000000E+01 0.  0.
    9000001   -1    0    0    0    0 -0.00000000000E+00 -0.00000000000E+00 -0.64999999231E+04  0.65000000000E+04  0.10000000000E+01 0.  0.
    9000001    1    1    2    0    0  0.59164770367E+04  0.20061581291E+04 -0.17946108311E+04  0.65000000000E+04  0.10000000000E+01 0.  0.
    9000001    1    1    2    0    0 -0.59164770367E+04 -0.20061581291E+04  0.17946108311E+04  0.65000000000E+04  0.10000000000E+01 0.  0.
</event>
<event>
 4    1  0.2201588E-006  0.1300000E+05  0.7957747E-01  0.1322471E+00
    9000001   -1    0    0    0    0  0.00000000000E+00  0.00000000000E+00  0.64999999231E+04  0.65000000000E+04  0.10000000000E+01 0.  0.
    9000001   -1    0    0    0    0 -0.00000000000E+00 -0.00000000000E+00 -0.64999999231E+04  0.65000000000E+04  0.10000000000E+01 0.  0.
    9000001    1    1    2    0    0  0.58995811964E+04 -0.25869049134E+04  0.86767717253E+03  0.65000000000E+04  0.10000000000E+01 0.  0.
    9000001    1    1    2    0    0 -0.58995811964E+04  0.25869049134E+04 -0.86767717253E+03  0.65000000000E+04  0.10000000000E+01 0.  0.
</event>
<event>
 4    1  0.2201588E-006  0.1300000E+05  0.7957747E-01  0.1322471E+00
    9000001   -1    0    0    0    0  0.00000000000E+00  0.00000000000E+00  0.64999999231E+04  0.65000000000E+04  0.10000000000E+01 0.  0.
    9000001   -1    0    0    0    0 -0.00000000000E+00 -0.00000000000E+00 -0.64999999231E+04  0.65000000000E+04  0.10000000000E+01 0.  0.
    9000001    1    1    2    0    0 -0.59435287076E+04  0.20735778386E+04  0.16201050737E+04  0.65000000000E+04  0.10000000000E+01 0.  0.
    9000001    1    1    2    0    0  0.59435287076E+04 -0.20735778386E+04 -0.16201050737E+04  0.65000000000E+04  0.10000000000E+01 0.  0.
</event>
<event>
 4    1  0.2201588E-006  0.1300000E+05  0.7957747E-01  0.1322471E+00
    9000001   -1    0    0    0    0  0.00000000000E+00  0.00000000000E+00  0.64999999231E+04  0.65000000000E+04  0.10000000000E+01 0.  0.
    9000001   -1    0    0    0    0 -0.00000000000E+00 -0.00000000000E+00 -0.64999999231E+04  0.65000000000E+04  0.10000000000E+01 0.  0.
    9000001    1    1    2    0    0 -0.56315521615E+04  0.30527141146E+04  0.11029758777E+04  0.65000000000E+04  0.10000000000E+01 0.  0.
    9000001    1    1    2    0    0  0.56315521615E+04 -0.30527141146E+04 -0.11029758777E+04  0.65000000000E+04  0.10000000000E+01 0.  0.
</event>
<event>
 4    1  0.2201588E-006  0.1300000E+05  0.7957747E-01  0.1322471E+00
    9000001   -1    0    0    0    0  0.00000000000E+00  0.00000000000E+00  0.64999999231E+04  0.65000000000E+04  0.10000000000E+01 0.  0.
    9000001   -1    0    0    0    0 -0.00000000000E+00 -0.00000000000E+00 -0.64999999231E+04  0.65000000000E+04  0.10000000000E+01 0.  0.
    9000001    1    1    2    0    0  0.87312298773E+02 -0.56037395983E+04  0.32924881285E+04  0.65000000000E+04  0.10000000000E+01 0.  0.
    9000001    1    1    2    0    0 -0.87312298773E+02  0.56037395983E+04 -0.32924881285E+04  0.65000000000E+04  0.10000000000E+01 0.  0.
</event>
<event>
 4    1  0.2201588E-006  0.1300000E+05  0.7957747E-01  0.1322471E+00
    9000001   -1    0    0    0    0  0.00000000000E+00  0.00000000000E+00  0.64999999231E+04  0.65000000000E+04  0.10000000000E+01 0.  0.
    9000001   -1    0    0    0    0 -0.00000000000E+00 -0.00000000000E+00 -0.64999999231E+04  0.65000000000E+04  0.10000000000E+01 0.  0.
    9000001    1    1    2    0    0  0.23440057217E+04  0.52079189402E+04  0.31037423361E+04  0.65000000000E+04  0.10000000000E+01 0.  0.
    9000001    1    1    2    0    0 -0.23440057217E+04 -0.52079189402E+04 -0.31037423361E+04  0.65000000000E+04  0.10000000000E+01 0.  0.
</event>
<event>
 4    1  0.2201588E-006  0.1300000E+05  0.7957747E-01  0.1322471E+00
    9000001   -1    0    0    0    0  0.00000000000E+00  0.00000000000E+00  0.64999999231E+04  0.65000000000E+04  0.10000000000E+01 0.  0.
    9000001   -1    0    0    0    0 -0.00000000000E+00 -0.00000000000E+00 -0.64999999231E+04  0.65000000000E+04  0.10000000000E+01 0.  0.
    9000001    1    1    2    0    0 -0.74560079142E+03  0.60066504229E+04 -0.23694364641E+04  0.65000000000E+04  0.10000000000E+01 0.  0.
    9000001    1    1    2    0    0  0.74560079142E+03 -0.60066504229E+04  0.23694364641E+04  0.65000000000E+04  0.10000000000E+01 0.  0.
</event>
<event>
 4    1  0.2201588E-006  0.1300000E+05  0.7957747E-01  0.1322471E+00
    9000001   -1    0    0    0    0  0.00000000000E+00  0.00000000000E+00  0.64999999231E+04  0.65000000000E+04  0.10000000000E+01 0.  0.
    9000001   -1    0    0    0    0 -0.00000000000E+00 -0.00000000000E+00 -0.64999999231E+04  0.65000000000E+04  0.10000000000E+01 0.  0.
    9000001    1    1    2    0    0  0.27822636044E+04  0.58042741150E+04  0.90521281130E+03  0.65000000000E+04  0.10000000000E+01 0.  0.
    9000001    1    1    2    0    0 -0.27822636044E+04 -0.58042741150E+04 -0.90521281130E+03  0.65000000000E+04  0.10000000000E+01 0.  0.
</event>
<event>
 4    1  0.2201588E-006  0.1300000E+05  0.7957747E-01  0.1322471E+00
    9000001   -1    0    0    0    0  0.00000000000E+00  0.00000000000E+00  0.64999999231E+04  0.65000000000E+04  0.10000000000E+01 0.  0.
    9000001   -1    0    0    0    0 -0.00000000000E+00 -0.00000000000E+00 -0.64999999231E+04  0.65000000000E+04  0.10000000000E+01 0.  0.
    9000001    1    1    2    0    0 -0.17049734409E+04 -0.60949792860E+04 -0.14813143046E+04  0.65000000000E+04  0.10000000000E+01 0.  0.
    9000001    1    1    2    0    0  0.17049734409E+04  0.60949792860E+04  0.14813143046E+04  0.65000000000E+04  0.10000000000E+01 0.  0.
</event>
<event>
 4    1  0.2201588E-006  0.1300000E+05  0.7957747E-01  0.1322471E+00
    9000001   -1    0    0    0    0  0.00000000000E+00  0.00000000000E+00  0.64999999231E+04  0.65000000000E+04  0.10000000000E+01 0.  0.
    9000001   -1    0    0    0    0 -0.00000000000E+00 -0.00000000000E+00 -0.64999999231E+04  0.65000000000E+04  0.10000000000E+01 0.  0.
    9000001    1    1    2    0    0  0.38105370448E+04  0.12727030067E+04  0.51097977931E+04  0.65000000000E+04  0.10000000000E+01 0.  0.
    9000001    1    1    2    0    0 -0.38105370448E+04 -0.12727030067E+04 -0.51097977931E+04  0.65000000000E+04  0.10000000000E+01 0.  0.
</event>
<event>
 4    1  0.2201588E-006  0.1300000E+05  0.7957747E-01  0.1322471E+00
    9000001   -1    0    0    0    0  0.00000000000E+00  0.00000000000E+00  0.64999999231E+04  0.65000000000E+04  0.10000000000E+01 0.  0.
    9000001   -1    0    0    0    0 -0.00000000000E+00 -0.00000000000E+00 -0.64999999231E+04  0.65000000000E+04  0.10000000000E+01 0.  0.
    9000001    1    1    2    0    0 -0.31825905867E+04  0.10215983210E+04 -0.55747155109E+04  0.65000000000E+04  0.10000000000E+01 0.  0.
    9000001    1    1    2    0    0  0.31825905867E+04 -0.10215983210E+04  0.55747155109E+04  0.65000000000E+04  0.10000000000E+01 0.  0.
</event>
<event>
 4    1  0.2201588E-006  0.1300000E+05  0.7957747E-01  0.1322471E+00
    9000001   -1    0    0    0    0  0.00000000000E+00  0.00000000000E+00  0.64999999231E+04  0.65000000000E+04  0.10000000000E+01 0.  0.
    9000001   -1    0    0    0    0 -0.00000000000E+00 -0.00000000000E+00 -0.64999999231E+04  0.65000000000E+04  0.10000000000E+01 0.  0.
    9000001    1    1    2    0    0 -0.46740044890E+02  0.58321945593E+04  0.28693764115E+04  0.65000000000E+04  0.10000000000E+01 0.  0.
    9000001    1    1    2    0    0  0.46740044890E+02 -0.58321945593E+04 -0.28693764115E+04  0.65000000000E+04  0.10000000000E+01 0.  0.
</event>
<event>
 4    1  0.2201588E-006  0.1300000E+05  0.7957747E-01  0.1322471E+00
    9000001   -1    0    0    0    0  0.00000000000E+00  0.00000000000E+00  0.64999999231E+04  0.65000000000E+04  0.10000000000E+01 0.  0.
    9000001   -1    0    0    0    0 -0.00000000000E+00 -0.00000000000E+00 -0.64999999231E+04  0.65000000000E+04  0.10000000000E+01 0.  0.
    9000001    1    1    2    0    0  0.53823372152E+04 -0.23219389830E+04 -0.28087442855E+04  0.65000000000E+04  0.10000000000E+01 0.  0.
    9000001    1    1    2    0    0 -0.53823372152E+04  0.23219389830E+04  0.28087442855E+04  0.65000000000E+04  0.10000000000E+01 0.  0.
</event>
<event>
 4    1  0.2201588E-006  0.1300000E+05  0.7957747E-01  0.1322471E+00
    9000001   -1    0    0    0    0  0.00000000000E+00  0.00000000000E+00  0.64999999231E+04  0.65000000000E+04  0.10000000000E+01 0.  0.
    9000001   -1    0    0    0    0 -0.00000000000E+00 -0.00000000000E+00 -0.64999999231E+04  0.65000000000E+04  0.10000000000E+01 0.  0.
    9000001    1    1    2    0    0  0.55504211326E+04 -0.13232052396E+04 -0.31131900271E+04  0.65000000000E+04  0.10000000000E+01 0.  0.
    9000001    1    1    2    0    0 -0.55504211326E+04  0.13232052396E+04  0.31131900271E+04  0.65000000000E+04  0.10000000000E+01 0.  0.
</event>
<event>
 4    1  0.2201588E-006  0.1300000E+05  0.7957747E-01  0.1322471E+00
    9000001   -1    0    0    0    0  0.00000000000E+00  0.00000000000E+00  0.64999999231E+04  0.65000000000E+04  0.10000000000E+01 0.  0.
    9000001   -1    0    0    0    0 -0.00000000000E+00 -0.00000000000E+00 -0.64999999231E+04  0.65000000000E+04  0.10000000000E+01 0.  0.
    9000001    1    1    2    0    0  0.54887212394E+03  0.22234122381E+04  0.60831880138E+04  0.65000000000E+04  0.10000000000E+01 0.  0.
    9000001    1    1    2    0    0 -0.54887212394E+03 -0.22234122381E+04 -0.60831880138E+04  0.65000000000E+04  0.10000000000E+01 0.  0.
</event>
<event>
 4    1  0.2201588E-006  0.1300000E+05  0.7957747E-01  0.1322471E+00
    9000001   -1    0    0    0    0  0.00000000000E+00  0.00000000000E+00  0.64999999231E+04  0.65000000000E+04  0.10000000000E+01 0.  0.
    9000001   -1    0    0    0    0 -0.00000000000E+00 -0.00000000000E+00 -0.64999999231E+04  0.65000000000E+04  0.10000000000E+01 0.  0.
    9000001    1    1    2    0    0 -0.19166222457E+04  0.58028155585E+03  0.61838363079E+04  0.65000000000E+04  0.10000000000E+01 0.  0.
    9000001    1    1    2    0    0  0.19166222457E+04 -0.58028155585E+03 -0.61838363079E+04  0.65000000000E+04  0.10000000000E+01 0.  0.
</event>
<event>
 4    1  0.2201588E-006  0.1300000E+05  0.7957747E-01  0.1322471E+00
    9000001   -1    0    0    0    0  0.00000000000E+00  0.00000000000E+00  0.64999999231E+04  0.65000000000E+04  0.10000000000E+01 0.  0.
    9000001   -1    0    0    0    0 -0.00000000000E+00 -0.00000000000E+00 -0.64999999231E+04  0.65000000000E+04  0.10000000000E+01 0.  0.
    9000001    1    1    2    0    0 -0.42098884630E+04  0.47016379112E+04 -0.15560973879E+04  0.65000000000E+04  0.10000000000E+01 0.  0.
    9000001    1    1    2    0    0  0.42098884630E+04 -0.47016379112E+04  0.15560973879E+04  0.65000000000E+04  0.10000000000E+01 0.  0.
</event>
<event>
 4    1  0.2201588E-006  0.1300000E+05  0.7957747E-01  0.1322471E+00
    9000001   -1    0    0    0    0  0.00000000000E+00  0.00000000000E+00  0.64999999231E+04  0.65000000000E+04  0.10000000000E+01 0.  0.
    9000001   -1    0    0    0    0 -0.00000000000E+00 -0.00000000000E+00 -0.64999999231E+04  0.65000000000E+04  0.10000000000E+01 0.  0.
    9000001    1    1    2    0    0  0.50828690421E+04  0.35795408170E+04 -0.18977167440E+04  0.65000000000E+04  0.10000000000E+01 0.  0.
    9000001    1    1    2    0    0 -0.50828690421E+04 -0.35795408170E+04  0.18977167440E+04  0.65000000000E+04  0.10000000000E+01 0.  0.
</event>
<event>
 4    1  0.2201588E-006  0.1300000E+05  0.7957747E-01  0.1322471E+00
    9000001   -1    0    0    0    0  0.00000000000E+00  0.00000000000E+00  0.64999999231E+04  0.65000000000E+04  0.10000000000E+01 0.  0.
    9000001   -1    0    0    0    0 -0.00000000000E+00 -0.00000000000E+00 -0.64999999231E+04  0.65000000000E+04  0.10000000000E+01 0.  0.
    9000001    1    1    2    0    0  0.55808647122E+04  0.19479339357E+04  0.27036089669E+04  0.65000000000E+04  0.10000000000E+01 0.  0.
    9000001    1    1    2    0    0 -0.55808647122E+04 -0.19479339357E+04 -0.27036089669E+04  0.65000000000E+04  0.10000000000E+01 0.  0.
</event>
<event>
 4    1  0.2201588E-006  0.1300000E+05  0.7957747E-01  0.1322471E+00
    9000001   -1    0    0    0    0  0.00000000000E+00  0.00000000000E+00  0.64999999231E+04  0.65000000000E+04  0.10000000000E+01 0.  0.
    9000001   -1    0    0    0    0 -0.00000000000E+00 -0.00000000000E+00 -0.64999999231E+04  0.65000000000E+04  0.10000000000E+01 0.  0.
    9000001    1    1    2    0    0  0.48396572856E+04 -0.39255842520E+04 -0.18486494093E+04  0.65000000000E+04  0.10000000000E+01 0.  0.
    9000001    1    1    2    0    0 -0.48396572856E+04  0.39255842520E+04  0.18486494093E+04  0.65000000000E+04  0.10000000000E+01 0.  0.
</event>
<event>
 4    1  0.2201588E-006  0.1300000E+05  0.7957747E-01  0.1322471E+00
    9000001   -1    0    0    0    0  0.00000000000E+00  0.00000000000E+00  0.64999999231E+04  0.65000000000E+04  0.10000000000E+01 0.  0.
    9000001   -1    0    0    0    0 -0.00000000000E+00 -0.00000000000E+00 -0.64999999231E+04  0.65000000000E+04  0.10000000000E+01 0.  0.
    9000001    1    1    2    0    0  0.45604925962E+04 -0.40695163363E+04  0.22115476636E+04  0.65000000000E+04  0.10000000000E+01 0.  0.
    9000001    1    1    2    0    0 -0.45604925962E+04  0.40695163363E+04 -0.22115476636E+04  0.65000000000E+04  0.10000000000E+01 0.  0.
</event>
<event>
 4    1  0.2201588E-006  0.1300000E+05  0.7957747E-01  0.1322471E+00
    9000001   -1    0    0    0    0  0.00000000000E+00  0.00000000000E+00  0.64999999231E+04  0.65000000000E+04  0.10000000000E+01 0.  0.
    9000001   -1    0    0    0    0 -0.00000000000E+00 -0.00000000000E+00 -0.64999999231E+04  0.65000000000E+04  0.10000000000E+01 0.  0.
    9000001    1    1    2    0    0 -0.41923433947E+04 -0.49586726298E+04  0.29295325915E+03  0.65000000000E+04  0.10000000000E+01 0.  0.
    9000001    1    1    2    0    0  0.41923433947E+04  0.49586726298E+04 -0.29295325915E+03  0.65000000000E+04  0.10000000000E+01 0.  0.
</event>
<event>
 4    1  0.2201588E-006  0.1300000E+05  0.7957747E-01  0.1322471E+00
    9000001   -1    0    0    0    0  0.00000000000E+00  0.00000000000E+00  0.64999999231E+04  0.65000000000E+04  0.10000000000E+01 0.  0.
    9000001   -1    0    0    0    0 -0.00000000000E+00 -0.00000000000E+00 -0.64999999231E+04  0.65000000000E+04  0.10000000000E+01 0.  0.
    9000001    1    1    2    0    0 -0.54930242121E+04 -0.34408834554E+04 -0.48683164649E+03  0.65000000000E+04  0.10000000000E+01 0.  0.
    9000001    1    1    2    0    0  0.54930242121E+04  0.34408834554E+04  0.48683164649E+03  0.65000000000E+04  0.10000000000E+01 0.  0.
</event>
<event>
 4    1  0.2201588E-006  0.1300000E+05  0.7957747E-01  0.1322471E+00
    9000001   -1    0    0    0    0  0.00000000000E+00  0.00000000000E+00  0.64999999231E+04  0.65000000000E+04  0.10000000000E+01 0.  0.
    9000001   -1    0    0    0    0 -0.00000000000E+00 -0.00000000000E+00 -0.64999999231E+04  0.65000000000E+04  0.10000000000E+01 0.  0.
    9000001    1    1    2    0    0 -0.63971384572E+04  0.15156645548E+03 -0.11417732564E+04  0.65000000000E+04  0.10000000000E+01 0.  0.
    9000001    1    1    2    0    0  0.63971384572E+04 -0.15156645548E+03  0.11417732564E+04  0.65000000000E+04  0.10000000000E+01 0.  0.
</event>
<event>
 4    1  0.2201588E-006  0.1300000E+05  0.7957747E-01  0.1322471E+00
    9000001   -1    0    0    0    0  0.00000000000E+00  0.00000000000E+00  0.64999999231E+04  0.65000000000E+04  0.10000000000E+01 0.  0.
    9000001   -1    0    0    0    0 -0.00000000000E+00 -0.00000000000E+00 -0.64999999231E+04  0.65000000000E+04  0.10000000000E+01 0.  0.
    9000001    1    1    2    0    0  0.30050002996E+04 -0.45062116965E+04  0.35936093758E+04  0.65000000000E+04  0.10000000000E+01 0.  0.
    9000001    1    1    2    0    0 -0.30050002996E+04  0.45062116965E+04 -0.35936093758E+04  0.65000000000E+04  0.10000000000E+01 0.  0.
</event>
<event>
 4    1  0.2201588E-006  0.1300000E+05  0.7957747E-01  0.1322471E+00
    9000001   -1    0    0    0    0  0.00000000000E+00  0.00000000000E+00  0.64999999231E+04  0.65000000000E+04  0.10000000000E+01 0.  0.
    9000001   -1    0    0    0    0 -0.00000000000E+00 -0.00000000000E+00 -0.64999999231E+04  0.65000000000E+04  0.10000000000E+01 0.  0.
    9000001    1    1    2    0    0 -0.62878885586E+03 -0.58766413097E+04 -0.27054963486E+04  0.65000000000E+04  0.10000000000E+01 0.  0.
    9000001    1    1    2    0    0  0.62878885586E+03  0.58766413097E+04  0.27054963486E+04  0.65000000000E+04  0.10000000000E+01 0.  0.
</event>
<event>
 4    1  0.2201588E-006  0.1300000E+05  0.7957747E-01  0.1322471E+00
    9000001   -1    0    0    0    0  0.00000000000E+00  0.00000000000E+00  0.64999999231E+04  0.65000000000E+04  0.10000000000E+01 0.  0.
    9000001   -1    0    0    0    0 -0.00000000000E+00 -0.00000000000E+00 -0.64999999231E+04  0.65000000000E+04  0.10000000000E+01 0.  0.
    9000001    1    1    2    0    0  0.19537252108E+03  0.63911809414E+04  0.11681758226E+04  0.65000000000E+04  0.10000000000E+01 0.  0.
    9000001    1    1    2    0    0 -0.19537252108E+03 -0.63911809414E+04 -0.11681758226E+04  0.65000000000E+04  0.10000000000E+01 0.  0.
</event>
<event>
 4    1  0.2201588E-006  0.1300000E+05  0.7957747E-01  0.1322471E+00
    9000001   -1    0    0    0    0  0.00000000000E+00  0.00000000000E+00  0.64999999231E+04  0.65000000000E+04  0.10000000000E+01 0.  0.
    9000001   -1    0    0    0    0 -0.00000000000E+00 -0.00000000000E+00 -0.64999999231E+04  0.65000000000E+04  0.10000000000E+01 0.  0.
    9000001    1    1    2    0    0 -0.13445360299E+04  0.51863304010E+04 -0.36802443989E+04  0.65000000000E+04  0.10000000000E+01 0.  0.
    9000001    1    1    2    0    0  0.13445360299E+04 -0.51863304010E+04  0.36802443989E+04  0.65000000000E+04  0.10000000000E+01 0.  0.
</event>
<event>
 4    1  0.2201588E-006  0.1300000E+05  0.7957747E-01  0.1322471E+00
    9000001   -1    0    0    0    0  0.00000000000E+00  0.00000000000E+00  0.64999999231E+04  0.65000000000E+04  0.10000000000E+01 0.  0.
    9000001   -1    0    0    0    0 -0.00000000000E+00 -0.00000000000E+00 -0.64999999231E+04  0.65000000000E+04  0.10000000000E+01 0.  0.
    9000001    1    1    2    0    0  0.23823990576E+04  0.45281445580E+03 -0.60306826147E+04  0.65000000000E+04  0.10000000000E+01 0.  0.
    9000001    1    1    2    0    0 -0.23823990576E+04 -0.45281445580E+03  0.60306826147E+04  0.65000000000E+04  0.10000000000E+01 0.  0.
</event>
<event>
 4    1  0.2201588E-006  0.1300000E+05  0.7957747E-01  0.1322471E+00
    9000001   -1    0    0    0    0  0.00000000000E+00  0.00000000000E+00  0.64999999231E+04  0.65000000000E+04  0.10000000000E+01 0.  0.
    9000001   -1    0    0    0    0 -0.00000000000E+00 -0.00000000000E+00 -0.64999999231E+04  0.65000000000E+04  0.10000000000E+01 0.  0.
    9000001    1    1    2    0    0 -0.23209528564E+03  0.18450657820E+04  0.62283114115E+04  0.65000000000E+04  0.10000000000E+01 0.  0.
    9000001    1    1    2    0    0  0.23209528564E+03 -0.18450657820E+04 -0.62283114115E+04  0.65000000000E+04  0.10000000000E+01 0.  0.
</event>
<event>
 4    1  0.2201588E-006  0.1300000E+05  0.7957747E-01  0.1322471E+00
    9000001   -1    0    0    0    0  0.00000000000E+00  0.00000000000E+00  0.64999999231E+04  0.65000000000E+04  0.10000000000E+01 0.  0.
    9000001   -1    0    0    0    0 -0.00000000000E+00 -0.00000000000E+00 -0.64999999231E+04  0.65000000000E+04  0.10000000000E+01 0.  0.
    9000001    1    1    2    0    0  0.23682273477E+04  0.59359487350E+04 -0.11857532816E+04  0.65000000000E+04  0.10000000000E+01 0.  0.
    9000001    1    1    2    0    0 -0.23682273477E+04 -0.59359487350E+04  0.11857532816E+04  0.65000000000E+04  0.10000000000E+01 0.  0.
</event>
<event>
 4    1  0.2201588E-006  0.1300000E+05  0.7957747E-01  0.1322471E+00
    9000001   -1    0    0    0    0  0.00000000000E+00  0.00000000000E+00  0.64999999231E+04  0.65000000000E+04  0.10000000000E+01 0.  0.
    9000001   -1    0    0    0    0 -0.00000000000E+00 -0.00000000000E+00 -0.64999999231E+04  0.65000000000E+04  0.10000000000E+01 0.  0.
    9000001    1    1    2    0    0 -0.61514743563E+03 -0.33805192341E+04 -0.55175793914E+04  0.65000000000E+04  0.10000000000E+01 0.  0.
    9000001    1    1    2    0    0  0.61514743563E+03  0.33805192341E+04  0.55175793914E+04  0.65000000000E+04  0.10000000000E+01 0.  0.
</event>
<event>
 4    1  0.2201588E-006  0.1300000E+05  0.7957747E-01  0.1322471E+00
    9000001   -1    0    0    0    0  0.00000000000E+00  0.00000000000E+00  0.64999999231E+04  0.65000000000E+04  0.10000000000E+01 0.  0.
    9000001   -1    0    0    0    0 -0.00000000000E+00 -0.00000000000E+00 -0.64999999231E+04  0.65000000000E+04  0.10000000000E+01 0.  0.
    9000001    1    1    2    0    0 -0.60217677687E+04 -0.23691074508E+04  0.61289626086E+03  0.65000000000E+04  0.10000000000E+01 0.  0.
    9000001    1    1    2    0    0  0.60217677687E+04  0.23691074508E+04 -0.61289626086E+03  0.65000000000E+04  0.10000000000E+01 0.  0.
</event>
<event>
 4    1  0.2201588E-006  0.1300000E+05  0.7957747E-01  0.1322471E+00
    9000001   -1    0    0    0    0  0.00000000000E+00  0.00000000000E+00  0.64999999231E+04  0.65000000000E+04  0.10000000000E+01 0.  0.
    9000001   -1    0    0    0    0 -0.00000000000E+00 -0.00000000000E+00 -0.64999999231E+04  0.65000000000E+04  0.10000000000E+01 0.  0.
    9000001    1    1    2    0    0 -0.60572562457E+04  0.22928804382E+04 -0.54985913600E+03  0.65000000000E+04  0.10000000000E+01 0.  0.
    9000001    1    1    2    0    0  0.60572562457E+04 -0.22928804382E+04  0.54985913600E+03  0.65000000000E+04  0.10000000000E+01 0.  0.
</event>
<event>
 4    1  0.2201588E-006  0.1300000E+05  0.7957747E-01  0.1322471E+00
    9000001   -1    0    0    0    0  0.00000000000E+00  0.00000000000E+00  0.64999999231E+04  0.65000000000E+04  0.10000000000E+01 0.  0.
    9000001   -1    0    0    0    0 -0.00000000000E+00 -0.00000000000E+00 -0.64999999231E+04  0.65000000000E+04  0.10000000000E+01 0.  0.
    9000001    1    1    2    0    0  0.26800556881E+04 -0.40430863822E+04 -0.43267485500E+04  0.65000000000E+04  0.10000000000E+01 0.  0.
    9000001    1    1    2    0    0 -0.26800556881E+04  0.40430863822E+04  0.43267485500E+04  0.65000000000E+04  0.10000000000E+01 0.  0.
</event>
<event>
 4    1  0.2201588E-006  0.1300000E+05  0.7957747E-01  0.1322471E+00
    9000001   -1    0    0    0    0  0.00000000000E+00  0.00000000000E+00  0.64999999231E+04  0.65000000000E+04  0.10000000000E+01 0.  0.
    9000001   -1    0    0    0    0 -0.00000000000E+00 -0.00000000000E+00 -0.64999999231E+04  0.65000000000E+04  0.10000000000E+01 0.  0.
    9000001    1    1    2    0    0  0.15068070656E+04 -0.16473674519E+04  0.61045648449E+04  0.65000000000E+04  0.10000000000E+01 0.  0.
    9000001    1    1    2    0    0 -0.15068070656E+04  0.16473674519E+04 -0.61045648449E+04  0.65000000000E+04  0.10000000000E+01 0.  0.
</event>
<event>
 4    1  0.2201588E-006  0.1300000E+05  0.7957747E-01  0.1322471E+00
    9000001   -1    0    0    0    0  0.00000000000E+00  0.00000000000E+00  0.64999999231E+04  0.65000000000E+04  0.10000000000E+01 0.  0.
    9000001   -1    0    0    0    0 -0.00000000000E+00 -0.00000000000E+00 -0.64999999231E+04  0.65000000000E+04  0.10000000000E+01 0.  0.
    9000001    1    1    2    0    0  0.11026151795E+04 -0.20508431212E+04 -0.60686309212E+04  0.65000000000E+04  0.10000000000E+01 0.  0.
    9000001    1    1    2    0    0 -0.11026151795E+04  0.20508431212E+04  0.60686309212E+04  0.65000000000E+04  0.10000000000E+01 0.  0.
</event>
<event>
 4    1  0.2201588E-006  0.1300000E+05  0.7957747E-01  0.1322471E+00
    9000001   -1    0    0    0    0  0.00000000000E+00  0.00000000000E+00  0.64999999231E+04  0.65000000000E+04  0.10000000000E+01 0.  0.
    9000001   -1    0    0    0    0 -0.00000000000E+00 -0.00000000000E+00 -0.64999999231E+04  0.65000000000E+04  0.10000000000E+01 0.  0.
    9000001    1    1    2    0    0 -0.35799338350E+04  0.54161923752E+04 -0.31453599474E+03  0.65000000000E+04  0.10000000000E+01 0.  0.
    9000001    1    1    2    0    0  0.35799338350E+04 -0.54161923752E+04  0.31453599474E+03  0.65000000000E+04  0.10000000000E+01 0.  0.
</event>
<event>
 4    1  0.2201588E-006  0.1300000E+05  0.7957747E-01  0.1322471E+00
    9000001   -1    0    0    0    0  0.00000000000E+00  0.00000000000E+00  0.64999999231E+04  0.65000000000E+04  0.10000000000E+01 0.  0.
    9000001   -1    0    0    0    0 -0.00000000000E+00 -0.00000000000E+00 -0.64999999231E+04  0.65000000000E+04  0.10000000000E+01 0.  0.
    9000001    1    1    2    0    0  0.47347127398E+04 -0.29650555657E+04 -0.33227909600E+04  0.65000000000E+04  0.10000000000E+01 0.  0.
    9000001    1    1    2    0    0 -0.47347127398E+04  0.29650555657E+04  0.33227909600E+04  0.65000000000E+04  0.10000000000E+01 0.  0.
</event>
<event>
 4    1  0.2201588E-006  0.1300000E+05  0.7957747E-01  0.1322471E+00
    9000001   -1    0    0    0    0  0.00000000000E+00  0.00000000000E+00  0.64999999231E+04  0.65000000000E+04  0.10000000000E+01 0.  0.
    9000001   -1    0    0    0    0 -0.00000000000E+00 -0.00000000000E+00 -0.64999999231E+04  0.65000000000E+04  0.10000000000E+01 0.  0.
    9000001    1    1    2    0    0  0.45187901090E+04 -0.19504927199E+04 -0.42457170302E+04  0.65000000000E+04  0.10000000000E+01 0.  0.
    9000001    1    1    2    0    0 -0.45187901090E+04  0.19504927199E+04  0.42457170302E+04  0.65000000000E+04  0.10000000000E+01 0.  0.
</event>
