<event>
 5    1  0.3236337E-002  0.1249995E+03  0.7818608E-02  0.1235070E+00
          4   -1    0    0  501    0  0.00000000000E+00  0.00000000000E+00  0.22087718585E+02  0.22124199698E+02  0.12700000000E+01 0.  1.
         -4   -1    0    0    0  501 -0.00000000000E+00 -0.00000000000E+00 -0.17666551002E+03  0.17667007480E+03  0.12700000000E+01 0.  1.
         25    2    1    2    0    0  0.00000000000E+00  0.00000000000E+00 -0.15457779143E+03  0.19879427450E+03  0.12499947988E+03 0.  0.
    9000005    1    3    3    0    0  0.32351183037E+02 -0.46966547716E+02 -0.11792134917E+03  0.13099198539E+03  0.10000000000E+01 0.  0.
    9000005    1    3    3    0    0 -0.32351183037E+02  0.46966547716E+02 -0.36656442269E+02  0.67802289107E+02  0.10000000000E+01 0.  0.
<mgrwt>
<rscale>  0 0.12499948E+03</rscale>
<asrwt>0</asrwt>
<pdfrwt beam="1">  1        4 0.34012680E-02 0.12499948E+03</pdfrwt>
<pdfrwt beam="2">  1       -4 0.27182466E-01 0.12499948E+03</pdfrwt>
<totfact> 0.90340307E+03</totfact>
</mgrwt>
</event>
<event>
 5    1  0.3236337E-002  0.1249999E+03  0.7818608E-02  0.1235069E+00
          4   -1    0    0  501    0  0.00000000000E+00  0.00000000000E+00  0.14719744435E+02  0.14774429811E+02  0.12700000000E+01 0. -1.
         -4   -1    0    0    0  501 -0.00000000000E+00 -0.00000000000E+00 -0.26482605425E+03  0.26482909944E+03  0.12700000000E+01 0. -1.
         25    2    1    2    0    0  0.00000000000E+00  0.00000000000E+00 -0.25010630981E+03  0.27960352925E+03  0.12499986944E+03 0.  0.
    9000005    1    3    3    0    0 -0.57008409813E+02 -0.24259994443E+02 -0.10678005345E+03  0.12345641310E+03  0.10000000000E+01 0.  0.
    9000005    1    3    3    0    0  0.57008409813E+02  0.24259994443E+02 -0.14332625636E+03  0.15614711615E+03  0.10000000000E+01 0.  0.
<mgrwt>
<rscale>  0 0.12499987E+03</rscale>
<asrwt>0</asrwt>
<pdfrwt beam="1">  1        4 0.22690171E-02 0.12499987E+03</pdfrwt>
<pdfrwt beam="2">  1       -4 0.40746907E-01 0.12499987E+03</pdfrwt>
<totfact> 0.78230932E+03</totfact>
</mgrwt>
</event>
<event>
 5    1  0.3236337E-002  0.1250058E+03  0.7818608E-02  0.1235060E+00
          4   -1    0    0  501    0  0.00000000000E+00  0.00000000000E+00  0.96828998255E+02  0.96837326497E+02  0.12700000000E+01 0. -1.
         -4   -1    0    0    0  501 -0.00000000000E+00 -0.00000000000E+00 -0.40325445592E+02  0.40345439175E+02  0.12700000000E+01 0. -1.
         25    2    1    2    0    0  0.00000000000E+00  0.00000000000E+00  0.56503552662E+02  0.13718276567E+03  0.12500583880E+03 0.  0.
    9000005    1    3    3    0    0 -0.34653296055E+02 -0.16379928426E+02 -0.25917005908E+02  0.46280062424E+02  0.10000000000E+01 0.  0.
    9000005    1    3    3    0    0  0.34653296055E+02  0.16379928426E+02  0.82420558571E+02  0.90902703248E+02  0.10000000000E+01 0.  0.
<mgrwt>
<rscale>  0 0.12500584E+03</rscale>
<asrwt>0</asrwt>
<pdfrwt beam="1">  1        4 0.14898947E-01 0.12500584E+03</pdfrwt>
<pdfrwt beam="2">  1       -4 0.62060934E-02 0.12500584E+03</pdfrwt>
<totfact> 0.10190924E+04</totfact>
</mgrwt>
</event>
<event>
 5    1  0.3236337E-002  0.1249909E+03  0.7818608E-02  0.1235083E+00
         -4   -1    0    0    0  501 -0.00000000000E+00  0.00000000000E+00  0.26568977385E+01  0.29448269207E+01  0.12700000000E+01 0.  1.
          4   -1    0    0  501    0  0.00000000000E+00 -0.00000000000E+00 -0.13941694274E+04  0.13941700058E+04  0.12700000000E+01 0.  1.
         25    2    1    2    0    0  0.00000000000E+00  0.00000000000E+00 -0.13915125297E+04  0.13971148328E+04  0.12499094258E+03 0.  0.
    9000005    1    3    3    0    0 -0.54391372129E+02 -0.26746040657E+02 -0.86561062430E+03  0.86773067536E+03  0.10000000000E+01 0.  0.
    9000005    1    3    3    0    0  0.54391372129E+02  0.26746040657E+02 -0.52590190535E+03  0.52938415740E+03  0.10000000000E+01 0.  0.
<mgrwt>
<rscale>  0 0.12499094E+03</rscale>
<asrwt>0</asrwt>
<pdfrwt beam="2">  1        4 0.21450924E+00 0.12499094E+03</pdfrwt>
<pdfrwt beam="1">  1       -4 0.43094751E-03 0.12499094E+03</pdfrwt>
<totfact> 0.20046966E+03</totfact>
</mgrwt>
</event>
<event>
 5    1  0.3236337E-002  0.1249976E+03  0.7818608E-02  0.1235073E+00
         -4   -1    0    0    0  501 -0.00000000000E+00  0.00000000000E+00  0.91002059332E+02  0.91010920788E+02  0.12700000000E+01 0. -1.
          4   -1    0    0  501    0  0.00000000000E+00 -0.00000000000E+00 -0.42902841820E+02  0.42921634827E+02  0.12700000000E+01 0. -1.
         25    2    1    2    0    0  0.00000000000E+00  0.00000000000E+00  0.48099217513E+02  0.13393255562E+03  0.12499757889E+03 0.  0.
    9000005    1    3    3    0    0 -0.43535760861E+02 -0.28604557582E+02 -0.12936138857E+02  0.53683581072E+02  0.10000000000E+01 0.  0.
    9000005    1    3    3    0    0  0.43535760861E+02  0.28604557582E+02  0.61035356369E+02  0.80248974544E+02  0.10000000000E+01 0.  0.
<mgrwt>
<rscale>  0 0.12499758E+03</rscale>
<asrwt>0</asrwt>
<pdfrwt beam="2">  1        4 0.66025645E-02 0.12499758E+03</pdfrwt>
<pdfrwt beam="1">  1       -4 0.14002444E-01 0.12499758E+03</pdfrwt>
<totfact> 0.10261179E+04</totfact>
</mgrwt>
</event>
<event>
 5    1  0.3236337E-002  0.1249983E+03  0.7818608E-02  0.1235072E+00
          4   -1    0    0  501    0  0.00000000000E+00  0.00000000000E+00  0.31395595673E+01  0.33866996142E+01  0.12700000000E+01 0. -1.
         -4   -1    0    0    0  501 -0.00000000000E+00 -0.00000000000E+00 -0.11968074275E+04  0.11968081013E+04  0.12700000000E+01 0. -1.
         25    2    1    2    0    0  0.00000000000E+00  0.00000000000E+00 -0.11936678679E+04  0.12001948009E+04  0.12499832514E+03 0.  0.
    9000005    1    3    3    0    0  0.59200946316E+01  0.59781564549E+02 -0.43156707508E+03  0.43572930045E+03  0.10000000000E+01 0.  0.
    9000005    1    3    3    0    0 -0.59200946316E+01 -0.59781564549E+02 -0.76210079284E+03  0.76446550048E+03  0.10000000000E+01 0.  0.
<mgrwt>
<rscale>  0 0.12499833E+03</rscale>
<asrwt>0</asrwt>
<pdfrwt beam="1">  1        4 0.50207273E-03 0.12499833E+03</pdfrwt>
<pdfrwt beam="2">  1       -4 0.18414293E+00 0.12499833E+03</pdfrwt>
<totfact> 0.24708611E+03</totfact>
</mgrwt>
</event>
<event>
 5    1  0.3236337E-002  0.1249987E+03  0.7818608E-02  0.1235071E+00
         -4   -1    0    0    0  501 -0.00000000000E+00  0.00000000000E+00  0.58376090252E+03  0.58376228399E+03  0.12700000000E+01 0.  1.
          4   -1    0    0  501    0  0.00000000000E+00 -0.00000000000E+00 -0.66297240866E+01  0.67502697327E+01  0.12700000000E+01 0.  1.
         25    2    1    2    0    0  0.00000000000E+00  0.00000000000E+00  0.57713117844E+03  0.59051255373E+03  0.12499871594E+03 0.  0.
    9000005    1    3    3    0    0  0.41581873218E+02  0.23417343721E+02  0.97968244817E+02  0.10897798475E+03  0.10000000000E+01 0.  0.
    9000005    1    3    3    0    0 -0.41581873218E+02 -0.23417343721E+02  0.47916293362E+03  0.48153456898E+03  0.10000000000E+01 0.  0.
<mgrwt>
<rscale>  0 0.12499872E+03</rscale>
<asrwt>0</asrwt>
<pdfrwt beam="2">  1        4 0.10293364E-02 0.12499872E+03</pdfrwt>
<pdfrwt beam="1">  1       -4 0.89818764E-01 0.12499872E+03</pdfrwt>
<totfact> 0.49473401E+03</totfact>
</mgrwt>
</event>
<event>
 5    1  0.3236337E-002  0.1250001E+03  0.7818608E-02  0.1235069E+00
          4   -1    0    0  501    0  0.00000000000E+00  0.00000000000E+00  0.46361936950E+02  0.46379328345E+02  0.12700000000E+01 0. -1.
         -4   -1    0    0    0  501 -0.00000000000E+00 -0.00000000000E+00 -0.84217634025E+02  0.84227209266E+02  0.12700000000E+01 0. -1.
         25    2    1    2    0    0  0.00000000000E+00  0.00000000000E+00 -0.37855697074E+02  0.13060653761E+03  0.12500005546E+03 0.  0.
    9000005    1    3    3    0    0  0.56041364744E+02  0.20520039561E+02 -0.38294195818E+02  0.70916514432E+02  0.10000000000E+01 0.  0.
    9000005    1    3    3    0    0 -0.56041364744E+02 -0.20520039561E+02  0.43849874344E+00  0.59690023179E+02  0.10000000000E+01 0.  0.
<mgrwt>
<rscale>  0 0.12500006E+03</rscale>
<asrwt>0</asrwt>
<pdfrwt beam="1">  1        4 0.71346801E-02 0.12500006E+03</pdfrwt>
<pdfrwt beam="2">  1       -4 0.12958633E-01 0.12500006E+03</pdfrwt>
<totfact> 0.10331519E+04</totfact>
</mgrwt>
</event>
<event>
 5    1  0.3236337E-002  0.1250137E+03  0.7818608E-02  0.1235048E+00
          4   -1    0    0  501    0  0.00000000000E+00  0.00000000000E+00  0.49677178420E+01  0.51274867681E+01  0.12700000000E+01 0.  1.
         -4   -1    0    0    0  501 -0.00000000000E+00 -0.00000000000E+00 -0.77389182031E+03  0.77389286238E+03  0.12700000000E+01 0.  1.
         25    2    1    2    0    0  0.00000000000E+00  0.00000000000E+00 -0.76892410247E+03  0.77902034915E+03  0.12501371537E+03 0.  0.
    9000005    1    3    3    0    0 -0.54129744343E+02 -0.31203982860E+02 -0.37482944884E+03  0.38000241247E+03  0.10000000000E+01 0.  0.
    9000005    1    3    3    0    0  0.54129744343E+02  0.31203982860E+02 -0.39409465363E+03  0.39901793668E+03  0.10000000000E+01 0.  0.
<mgrwt>
<rscale>  0 0.12501372E+03</rscale>
<asrwt>0</asrwt>
<pdfrwt beam="1">  1        4 0.77663498E-03 0.12501372E+03</pdfrwt>
<pdfrwt beam="2">  1       -4 0.11907256E+00 0.12501372E+03</pdfrwt>
<totfact> 0.39206914E+03</totfact>
</mgrwt>
</event>
<event>
 5    1  0.3236337E-002  0.1250035E+03  0.7818608E-02  0.1235064E+00
         -4   -1    0    0    0  501 -0.00000000000E+00  0.00000000000E+00  0.15928326810E+02  0.15978876524E+02  0.12700000000E+01 0.  1.
          4   -1    0    0  501    0  0.00000000000E+00 -0.00000000000E+00 -0.24481216521E+03  0.24481545935E+03  0.12700000000E+01 0.  1.
         25    2    1    2    0    0  0.00000000000E+00  0.00000000000E+00 -0.22888383840E+03  0.26079433587E+03  0.12500349652E+03 0.  0.
    9000005    1    3    3    0    0 -0.13465204126E+02  0.56086960991E+02 -0.64266183666E+02  0.86360878170E+02  0.10000000000E+01 0.  0.
    9000005    1    3    3    0    0  0.13465204126E+02 -0.56086960991E+02 -0.16461765474E+03  0.17443345770E+03  0.10000000000E+01 0.  0.
<mgrwt>
<rscale>  0 0.12500350E+03</rscale>
<asrwt>0</asrwt>
<pdfrwt beam="2">  1        4 0.37667549E-01 0.12500350E+03</pdfrwt>
<pdfrwt beam="1">  1       -4 0.24546538E-02 0.12500350E+03</pdfrwt>
<totfact> 0.80788430E+03</totfact>
</mgrwt>
</event>
<event>
 5    1  0.3236337E-002  0.1250031E+03  0.7818608E-02  0.1235064E+00
          4   -1    0    0  501    0  0.00000000000E+00  0.00000000000E+00  0.12369766009E+02  0.12434790353E+02  0.12700000000E+01 0. -1.
         -4   -1    0    0    0  501 -0.00000000000E+00 -0.00000000000E+00 -0.31491157282E+03  0.31491413369E+03  0.12700000000E+01 0. -1.
         25    2    1    2    0    0  0.00000000000E+00  0.00000000000E+00 -0.30254180681E+03  0.32734892404E+03  0.12500309277E+03 0.  0.
    9000005    1    3    3    0    0 -0.56926066951E+02 -0.20852511969E+02 -0.19098922104E+03  0.20038285083E+03  0.10000000000E+01 0.  0.
    9000005    1    3    3    0    0  0.56926066951E+02  0.20852511969E+02 -0.11155258577E+03  0.12696607321E+03  0.10000000000E+01 0.  0.
<mgrwt>
<rscale>  0 0.12500309E+03</rscale>
<asrwt>0</asrwt>
<pdfrwt beam="1">  1        4 0.19082400E-02 0.12500309E+03</pdfrwt>
<pdfrwt beam="2">  1       -4 0.48453127E-01 0.12500309E+03</pdfrwt>
<totfact> 0.72285559E+03</totfact>
</mgrwt>
</event>
<event>
 5    1  0.3236337E-002  0.1249968E+03  0.7818608E-02  0.1235074E+00
          4   -1    0    0  501    0  0.00000000000E+00  0.00000000000E+00  0.11879440025E+03  0.11880118868E+03  0.12700000000E+01 0. -1.
         -4   -1    0    0    0  501 -0.00000000000E+00 -0.00000000000E+00 -0.32860747703E+02  0.32885279984E+02  0.12700000000E+01 0. -1.
         25    2    1    2    0    0  0.00000000000E+00  0.00000000000E+00  0.85933652550E+02  0.15168646866E+03  0.12499676850E+03 0.  0.
    9000005    1    3    3    0    0 -0.54545631492E+02 -0.30492333680E+02  0.43208635772E+02  0.75980224621E+02  0.10000000000E+01 0.  0.
    9000005    1    3    3    0    0  0.54545631492E+02  0.30492333680E+02  0.42725016778E+02  0.75706244041E+02  0.10000000000E+01 0.  0.
<mgrwt>
<rscale>  0 0.12499677E+03</rscale>
<asrwt>0</asrwt>
<pdfrwt beam="1">  1        4 0.18278471E-01 0.12499677E+03</pdfrwt>
<pdfrwt beam="2">  1       -4 0.50579089E-02 0.12499677E+03</pdfrwt>
<totfact> 0.98975779E+03</totfact>
</mgrwt>
</event>
<event>
 5    1  0.3236337E-002  0.1249946E+03  0.7818608E-02  0.1235078E+00
         -4   -1    0    0    0  501 -0.00000000000E+00  0.00000000000E+00  0.27345974308E+03  0.27346269213E+03  0.12700000000E+01 0. -1.
          4   -1    0    0  501    0  0.00000000000E+00 -0.00000000000E+00 -0.14252044006E+02  0.14308516986E+02  0.12700000000E+01 0. -1.
         25    2    1    2    0    0  0.00000000000E+00  0.00000000000E+00  0.25920769907E+03  0.28777120911E+03  0.12499455002E+03 0.  0.
    9000005    1    3    3    0    0 -0.19174147207E+02 -0.20379833190E+02  0.25824129815E+03  0.25975479512E+03  0.10000000000E+01 0.  0.
    9000005    1    3    3    0    0  0.19174147207E+02  0.20379833190E+02  0.96640092651E+00  0.28016413988E+02  0.10000000000E+01 0.  0.
<mgrwt>
<rscale>  0 0.12499455E+03</rscale>
<asrwt>0</asrwt>
<pdfrwt beam="2">  1        4 0.21971930E-02 0.12499455E+03</pdfrwt>
<pdfrwt beam="1">  1       -4 0.42075302E-01 0.12499455E+03</pdfrwt>
<totfact> 0.77168196E+03</totfact>
</mgrwt>
</event>
<event>
 5    1  0.3236337E-002  0.1249989E+03  0.7818608E-02  0.1235071E+00
         -4   -1    0    0    0  501 -0.00000000000E+00  0.00000000000E+00  0.17206905731E+02  0.17253709886E+02  0.12700000000E+01 0. -1.
          4   -1    0    0  501    0  0.00000000000E+00 -0.00000000000E+00 -0.22665539503E+03  0.22665895305E+03  0.12700000000E+01 0. -1.
         25    2    1    2    0    0  0.00000000000E+00  0.00000000000E+00 -0.20944848930E+03  0.24391266294E+03  0.12499886987E+03 0.  0.
    9000005    1    3    3    0    0  0.57467028716E+00  0.58864362499E+02 -0.14564782499E+03  0.15709752494E+03  0.10000000000E+01 0.  0.
    9000005    1    3    3    0    0 -0.57467028716E+00 -0.58864362499E+02 -0.63800664313E+02  0.86815137995E+02  0.10000000000E+01 0.  0.
<mgrwt>
<rscale>  0 0.12499887E+03</rscale>
<asrwt>0</asrwt>
<pdfrwt beam="2">  1        4 0.34873933E-01 0.12499887E+03</pdfrwt>
<pdfrwt beam="1">  1       -4 0.26510904E-02 0.12499887E+03</pdfrwt>
<totfact> 0.83220172E+03</totfact>
</mgrwt>
</event>
<event>
 5    1  0.3236337E-002  0.1250025E+03  0.7818608E-02  0.1235065E+00
         -4   -1    0    0    0  501 -0.00000000000E+00  0.00000000000E+00  0.20657017265E+02  0.20696020446E+02  0.12700000000E+01 0. -1.
          4   -1    0    0  501    0  0.00000000000E+00 -0.00000000000E+00 -0.18888844217E+03  0.18889271157E+03  0.12700000000E+01 0. -1.
         25    2    1    2    0    0  0.00000000000E+00  0.00000000000E+00 -0.16823142490E+03  0.20958873201E+03  0.12500249703E+03 0.  0.
    9000005    1    3    3    0    0 -0.57838615527E+02 -0.14932208017E+02 -0.53330099663E+02  0.80083555193E+02  0.10000000000E+01 0.  0.
    9000005    1    3    3    0    0  0.57838615527E+02  0.14932208017E+02 -0.11490132524E+03  0.12950517682E+03  0.10000000000E+01 0.  0.
<mgrwt>
<rscale>  0 0.12500250E+03</rscale>
<asrwt>0</asrwt>
<pdfrwt beam="2">  1        4 0.29063088E-01 0.12500250E+03</pdfrwt>
<pdfrwt beam="1">  1       -4 0.31813314E-02 0.12500250E+03</pdfrwt>
<totfact> 0.88538148E+03</totfact>
</mgrwt>
</event>
<event>
 5    1  0.3236337E-002  0.1250023E+03  0.7818608E-02  0.1235066E+00
          4   -1    0    0  501    0  0.00000000000E+00  0.00000000000E+00  0.30014244671E+02  0.30041101564E+02  0.12700000000E+01 0. -1.
         -4   -1    0    0    0  501 -0.00000000000E+00 -0.00000000000E+00 -0.13006325926E+03  0.13006945956E+03  0.12700000000E+01 0. -1.
         25    2    1    2    0    0  0.00000000000E+00  0.00000000000E+00 -0.10004901459E+03  0.16011056112E+03  0.12500234583E+03 0.  0.
    9000005    1    3    3    0    0  0.58057123034E+02  0.21669409222E+02 -0.60367309485E+02  0.86518234410E+02  0.10000000000E+01 0.  0.
    9000005    1    3    3    0    0 -0.58057123034E+02 -0.21669409222E+02 -0.39681705108E+02  0.73592326715E+02  0.10000000000E+01 0.  0.
<mgrwt>
<rscale>  0 0.12500235E+03</rscale>
<asrwt>0</asrwt>
<pdfrwt beam="1">  1        4 0.46201190E-02 0.12500235E+03</pdfrwt>
<pdfrwt beam="2">  1       -4 0.20012275E-01 0.12500235E+03</pdfrwt>
<totfact> 0.97316343E+03</totfact>
</mgrwt>
</event>
<event>
 5    1  0.3236337E-002  0.1250016E+03  0.7818608E-02  0.1235067E+00
          4   -1    0    0  501    0  0.00000000000E+00  0.00000000000E+00  0.89367973645E+02  0.89376997116E+02  0.12700000000E+01 0. -1.
         -4   -1    0    0    0  501 -0.00000000000E+00 -0.00000000000E+00 -0.43690358209E+02  0.43708812618E+02  0.12700000000E+01 0. -1.
         25    2    1    2    0    0  0.00000000000E+00  0.00000000000E+00  0.45677615436E+02  0.13308580973E+03  0.12500155279E+03 0.  0.
    9000005    1    3    3    0    0  0.40177335867E+02  0.39339053906E+02  0.51870781543E+02  0.76507237942E+02  0.10000000000E+01 0.  0.
    9000005    1    3    3    0    0 -0.40177335867E+02 -0.39339053906E+02 -0.61931661074E+01  0.56578571792E+02  0.10000000000E+01 0.  0.
<mgrwt>
<rscale>  0 0.12500155E+03</rscale>
<asrwt>0</asrwt>
<pdfrwt beam="1">  1        4 0.13751033E-01 0.12500155E+03</pdfrwt>
<pdfrwt beam="2">  1       -4 0.67237073E-02 0.12500155E+03</pdfrwt>
<totfact> 0.10278217E+04</totfact>
</mgrwt>
</event>
<event>
 5    1  0.3236337E-002  0.1250118E+03  0.7818608E-02  0.1235051E+00
         -4   -1    0    0    0  501 -0.00000000000E+00  0.00000000000E+00  0.54019766431E+02  0.54034693163E+02  0.12700000000E+01 0. -1.
          4   -1    0    0  501    0  0.00000000000E+00 -0.00000000000E+00 -0.72294597582E+02  0.72305751774E+02  0.12700000000E+01 0. -1.
         25    2    1    2    0    0  0.00000000000E+00  0.00000000000E+00 -0.18274831152E+02  0.12634044494E+03  0.12501175374E+03 0.  0.
    9000005    1    3    3    0    0  0.20729096261E+02  0.60506150084E+01 -0.68409544818E+02  0.71743788554E+02  0.10000000000E+01 0.  0.
    9000005    1    3    3    0    0 -0.20729096261E+02 -0.60506150084E+01  0.50134713667E+02  0.54596656383E+02  0.10000000000E+01 0.  0.
<mgrwt>
<rscale>  0 0.12501175E+03</rscale>
<asrwt>0</asrwt>
<pdfrwt beam="2">  1        4 0.11124252E-01 0.12501175E+03</pdfrwt>
<pdfrwt beam="1">  1       -4 0.83127395E-02 0.12501175E+03</pdfrwt>
<totfact> 0.10420745E+04</totfact>
</mgrwt>
</event>
<event>
 5    1  0.3236337E-002  0.1250010E+03  0.7818608E-02  0.1235068E+00
         -4   -1    0    0    0  501 -0.00000000000E+00  0.00000000000E+00  0.40259307569E+02  0.40279333981E+02  0.12700000000E+01 0. -1.
          4   -1    0    0  501    0  0.00000000000E+00 -0.00000000000E+00 -0.96980523135E+02  0.96988838365E+02  0.12700000000E+01 0. -1.
         25    2    1    2    0    0  0.00000000000E+00  0.00000000000E+00 -0.56721215566E+02  0.13726817235E+03  0.12500101937E+03 0.  0.
    9000005    1    3    3    0    0 -0.47797747996E+02  0.40222017372E+02 -0.26497553417E+02  0.67864244872E+02  0.10000000000E+01 0.  0.
    9000005    1    3    3    0    0  0.47797747996E+02 -0.40222017372E+02 -0.30223662149E+02  0.69403927473E+02  0.10000000000E+01 0.  0.
<mgrwt>
<rscale>  0 0.12500102E+03</rscale>
<asrwt>0</asrwt>
<pdfrwt beam="2">  1        4 0.14922261E-01 0.12500102E+03</pdfrwt>
<pdfrwt beam="1">  1       -4 0.61959198E-02 0.12500102E+03</pdfrwt>
<totfact> 0.10190247E+04</totfact>
</mgrwt>
</event>
<event>
 5    1  0.3236337E-002  0.1250001E+03  0.7818608E-02  0.1235069E+00
         -4   -1    0    0    0  501 -0.00000000000E+00  0.00000000000E+00  0.66885604966E+02  0.66897661033E+02  0.12700000000E+01 0. -1.
          4   -1    0    0  501    0  0.00000000000E+00 -0.00000000000E+00 -0.58377783872E+02  0.58391596569E+02  0.12700000000E+01 0. -1.
         25    2    1    2    0    0  0.00000000000E+00  0.00000000000E+00  0.85078210935E+01  0.12528925760E+03  0.12500006020E+03 0.  0.
    9000005    1    3    3    0    0  0.29738131147E+02  0.54828331927E+02  0.81035432989E+01  0.62906039774E+02  0.10000000000E+01 0.  0.
    9000005    1    3    3    0    0 -0.29738131147E+02 -0.54828331927E+02  0.40427779456E+00  0.62383217828E+02  0.10000000000E+01 0.  0.
<mgrwt>
<rscale>  0 0.12500006E+03</rscale>
<asrwt>0</asrwt>
<pdfrwt beam="2">  1        4 0.89831874E-02 0.12500006E+03</pdfrwt>
<pdfrwt beam="1">  1       -4 0.10292083E-01 0.12500006E+03</pdfrwt>
<totfact> 0.10446569E+04</totfact>
</mgrwt>
</event>
<event>
 5    1  0.3236337E-002  0.1249993E+03  0.7818608E-02  0.1235070E+00
          4   -1    0    0  501    0  0.00000000000E+00  0.00000000000E+00  0.87635059774E+03  0.87635151798E+03  0.12700000000E+01 0. -1.
         -4   -1    0    0    0  501 -0.00000000000E+00 -0.00000000000E+00 -0.43659501823E+01  0.45469133480E+01  0.12700000000E+01 0. -1.
         25    2    1    2    0    0  0.00000000000E+00  0.00000000000E+00  0.87198464756E+03  0.88089843133E+03  0.12499928293E+03 0.  0.
    9000005    1    3    3    0    0  0.36723462506E+02  0.26311844633E+02  0.74027260267E+03  0.74165049190E+03  0.10000000000E+01 0.  0.
    9000005    1    3    3    0    0 -0.36723462506E+02 -0.26311844633E+02  0.13171204489E+03  0.13924793943E+03  0.10000000000E+01 0.  0.
<mgrwt>
<rscale>  0 0.12499928E+03</rscale>
<asrwt>0</asrwt>
<pdfrwt beam="1">  1        4 0.13483707E+00 0.12499928E+03</pdfrwt>
<pdfrwt beam="2">  1       -4 0.68567612E-03 0.12499928E+03</pdfrwt>
<totfact> 0.34895761E+03</totfact>
</mgrwt>
</event>
<event>
 5    1  0.3236337E-002  0.1249982E+03  0.7818608E-02  0.1235072E+00
          4   -1    0    0  501    0  0.00000000000E+00  0.00000000000E+00  0.40294198957E+01  0.42248224455E+01  0.12700000000E+01 0. -1.
         -4   -1    0    0    0  501 -0.00000000000E+00 -0.00000000000E+00 -0.94626065046E+03  0.94626150271E+03  0.12700000000E+01 0. -1.
         25    2    1    2    0    0  0.00000000000E+00  0.00000000000E+00 -0.94223123056E+03  0.95048632515E+03  0.12499824981E+03 0.  0.
    9000005    1    3    3    0    0  0.57554287595E+02 -0.19268683664E+02 -0.35798142034E+03  0.36309155251E+03  0.10000000000E+01 0.  0.
    9000005    1    3    3    0    0 -0.57554287595E+02  0.19268683664E+02 -0.58424981022E+03  0.58739477265E+03  0.10000000000E+01 0.  0.
<mgrwt>
<rscale>  0 0.12499825E+03</rscale>
<asrwt>0</asrwt>
<pdfrwt beam="1">  1        4 0.63500803E-03 0.12499825E+03</pdfrwt>
<pdfrwt beam="2">  1       -4 0.14559349E+00 0.12499825E+03</pdfrwt>
<totfact> 0.32299981E+03</totfact>
</mgrwt>
</event>
<event>
 5    1  0.3236337E-002  0.1250019E+03  0.7818608E-02  0.1235066E+00
         -4   -1    0    0    0  501 -0.00000000000E+00  0.00000000000E+00  0.10087988148E+04  0.10087996142E+04  0.12700000000E+01 0. -1.
          4   -1    0    0  501    0  0.00000000000E+00 -0.00000000000E+00 -0.37673427381E+01  0.39756472814E+01  0.12700000000E+01 0. -1.
         25    2    1    2    0    0  0.00000000000E+00  0.00000000000E+00  0.10050314721E+04  0.10127752615E+04  0.12500188185E+03 0.  0.
    9000005    1    3    3    0    0  0.27361424031E+01 -0.41577191350E+01 -0.21986293615E+01  0.55323661054E+01  0.10000000000E+01 0.  0.
    9000005    1    3    3    0    0 -0.27361424031E+01  0.41577191350E+01  0.10072301014E+04  0.10072428954E+04  0.10000000000E+01 0.  0.
<mgrwt>
<rscale>  0 0.12500188E+03</rscale>
<asrwt>0</asrwt>
<pdfrwt beam="2">  1        4 0.59567577E-03 0.12500188E+03</pdfrwt>
<pdfrwt beam="1">  1       -4 0.15521599E+00 0.12500188E+03</pdfrwt>
<totfact> 0.30184823E+03</totfact>
</mgrwt>
</event>
<event>
 5    1  0.3236337E-002  0.1250005E+03  0.7818608E-02  0.1235068E+00
         -4   -1    0    0    0  501 -0.00000000000E+00  0.00000000000E+00  0.44317118235E+03  0.44317300208E+03  0.12700000000E+01 0. -1.
          4   -1    0    0  501    0  0.00000000000E+00 -0.00000000000E+00 -0.87667966615E+01  0.88583081740E+01  0.12700000000E+01 0. -1.
         25    2    1    2    0    0  0.00000000000E+00  0.00000000000E+00  0.43440438569E+03  0.45203131025E+03  0.12500054055E+03 0.  0.
    9000005    1    3    3    0    0 -0.46905919677E+00 -0.31701242178E+02  0.22458796589E+02  0.38866261930E+02  0.10000000000E+01 0.  0.
    9000005    1    3    3    0    0  0.46905919677E+00  0.31701242178E+02  0.41194558910E+03  0.41316504832E+03  0.10000000000E+01 0.  0.
<mgrwt>
<rscale>  0 0.12500054E+03</rscale>
<asrwt>0</asrwt>
<pdfrwt beam="2">  1        4 0.13559174E-02 0.12500054E+03</pdfrwt>
<pdfrwt beam="1">  1       -4 0.68187353E-01 0.12500054E+03</pdfrwt>
<totfact> 0.59787516E+03</totfact>
</mgrwt>
</event>
<event>
 5    1  0.3236337E-002  0.1250129E+03  0.7818608E-02  0.1235049E+00
         -4   -1    0    0    0  501 -0.00000000000E+00  0.00000000000E+00  0.35232858946E+02  0.35255740661E+02  0.12700000000E+01 0.  1.
          4   -1    0    0  501    0  0.00000000000E+00 -0.00000000000E+00 -0.11082992473E+03  0.11083720095E+03  0.12700000000E+01 0.  1.
         25    2    1    2    0    0  0.00000000000E+00  0.00000000000E+00 -0.75597065782E+02  0.14609294161E+03  0.12501292427E+03 0.  0.
    9000005    1    3    3    0    0 -0.34700311446E+02 -0.48668431421E+02 -0.16462606424E+02  0.62006009723E+02  0.10000000000E+01 0.  0.
    9000005    1    3    3    0    0  0.34700311446E+02  0.48668431421E+02 -0.59134459358E+02  0.84086931892E+02  0.10000000000E+01 0.  0.
<mgrwt>
<rscale>  0 0.12501292E+03</rscale>
<asrwt>0</asrwt>
<pdfrwt beam="2">  1        4 0.17053077E-01 0.12501292E+03</pdfrwt>
<pdfrwt beam="1">  1       -4 0.54227597E-02 0.12501292E+03</pdfrwt>
<totfact> 0.10005917E+04</totfact>
</mgrwt>
</event>
<event>
 5    1  0.3236337E-002  0.1250013E+03  0.7818608E-02  0.1235067E+00
         -4   -1    0    0    0  501 -0.00000000000E+00  0.00000000000E+00  0.22396760379E+03  0.22397120450E+03  0.12700000000E+01 0.  1.
          4   -1    0    0  501    0  0.00000000000E+00 -0.00000000000E+00 -0.17414634209E+02  0.17460881553E+02  0.12700000000E+01 0.  1.
         25    2    1    2    0    0  0.00000000000E+00  0.00000000000E+00  0.20655296958E+03  0.24143208606E+03  0.12500129174E+03 0.  0.
    9000005    1    3    3    0    0  0.77141093920E+01  0.71899868395E+01  0.22224620419E+03  0.22249849139E+03  0.10000000000E+01 0.  0.
    9000005    1    3    3    0    0 -0.77141093920E+01 -0.71899868395E+01 -0.15693234610E+02  0.18933594666E+02  0.10000000000E+01 0.  0.
<mgrwt>
<rscale>  0 0.12500129E+03</rscale>
<asrwt>0</asrwt>
<pdfrwt beam="2">  1        4 0.26830089E-02 0.12500129E+03</pdfrwt>
<pdfrwt beam="1">  1       -4 0.34460389E-01 0.12500129E+03</pdfrwt>
<totfact> 0.83582137E+03</totfact>
</mgrwt>
</event>
<event>
 4    1  0.3236337E-002  0.1248161E+03  0.7818608E-02  0.1235357E+00
         -4   -1    0    0    0  501 -0.00000000000E+00  0.00000000000E+00  0.15535440900E+03  0.15535959994E+03  0.12700000000E+01 0.  1.
          4   -1    0    0  501    0  0.00000000000E+00 -0.00000000000E+00 -0.25048507070E+02  0.25080681937E+02  0.12700000000E+01 0.  1.
    9000005    1    1    2    0    0  0.25173460756E+02 -0.39064786066E+02  0.12535178653E+03  0.13369304778E+03  0.10000000000E+01 0.  0.
    9000005    1    1    2    0    0 -0.25173460756E+02  0.39064786066E+02  0.49541153917E+01  0.46747234102E+02  0.10000000000E+01 0.  0.
<mgrwt>
<rscale>  0 0.12481613E+03</rscale>
<asrwt>0</asrwt>
<pdfrwt beam="2">  1        4 0.38564908E-02 0.12481613E+03</pdfrwt>
<pdfrwt beam="1">  1       -4 0.23903553E-01 0.12481613E+03</pdfrwt>
<totfact> 0.93924463E+03</totfact>
</mgrwt>
</event>
<event>
 5    1  0.3236337E-002  0.1250007E+03  0.7818608E-02  0.1235068E+00
         -4   -1    0    0    0  501 -0.00000000000E+00  0.00000000000E+00  0.33764046282E+02  0.33787922714E+02  0.12700000000E+01 0.  1.
          4   -1    0    0  501    0  0.00000000000E+00 -0.00000000000E+00 -0.11562569148E+03  0.11563266593E+03  0.12700000000E+01 0.  1.
         25    2    1    2    0    0  0.00000000000E+00  0.00000000000E+00 -0.81861645199E+02  0.14942058865E+03  0.12500073342E+03 0.  0.
    9000005    1    3    3    0    0  0.82722244220E+01 -0.30367794712E+02 -0.10546534044E+03  0.11006621047E+03  0.10000000000E+01 0.  0.
    9000005    1    3    3    0    0 -0.82722244220E+01  0.30367794712E+02  0.23603695243E+02  0.39354378177E+02  0.10000000000E+01 0.  0.
<mgrwt>
<rscale>  0 0.12500073E+03</rscale>
<asrwt>0</asrwt>
<pdfrwt beam="2">  1        4 0.17790941E-01 0.12500073E+03</pdfrwt>
<pdfrwt beam="1">  1       -4 0.51968418E-02 0.12500073E+03</pdfrwt>
<totfact> 0.99417679E+03</totfact>
</mgrwt>
</event>
<event>
 5    1  0.3236337E-002  0.1250045E+03  0.7818608E-02  0.1235062E+00
         -4   -1    0    0    0  501 -0.00000000000E+00  0.00000000000E+00  0.42263217373E+02  0.42282294672E+02  0.12700000000E+01 0.  1.
          4   -1    0    0  501    0  0.00000000000E+00 -0.00000000000E+00 -0.92389115478E+02  0.92397843908E+02  0.12700000000E+01 0.  1.
         25    2    1    2    0    0  0.00000000000E+00  0.00000000000E+00 -0.50125898105E+02  0.13468013858E+03  0.12500453619E+03 0.  0.
    9000005    1    3    3    0    0  0.20520245014E+02 -0.35780496609E+01  0.38418347422E+02  0.43713296758E+02  0.10000000000E+01 0.  0.
    9000005    1    3    3    0    0 -0.20520245014E+02  0.35780496609E+01 -0.88544245528E+02  0.90966841821E+02  0.10000000000E+01 0.  0.
<mgrwt>
<rscale>  0 0.12500454E+03</rscale>
<asrwt>0</asrwt>
<pdfrwt beam="2">  1        4 0.14215849E-01 0.12500454E+03</pdfrwt>
<pdfrwt beam="1">  1       -4 0.65041724E-02 0.12500454E+03</pdfrwt>
<totfact> 0.10243769E+04</totfact>
</mgrwt>
</event>
<event>
 5    1  0.3236337E-002  0.1250014E+03  0.7818608E-02  0.1235067E+00
         -4   -1    0    0    0  501 -0.00000000000E+00  0.00000000000E+00  0.53744322030E+02  0.53759325242E+02  0.12700000000E+01 0.  1.
          4   -1    0    0  501    0  0.00000000000E+00 -0.00000000000E+00 -0.72653002671E+02  0.72664101846E+02  0.12700000000E+01 0.  1.
         25    2    1    2    0    0  0.00000000000E+00  0.00000000000E+00 -0.18908680641E+02  0.12642342709E+03  0.12500137885E+03 0.  0.
    9000005    1    3    3    0    0  0.12463482506E+02  0.51036539095E+02  0.24772483176E+02  0.58092535163E+02  0.10000000000E+01 0.  0.
    9000005    1    3    3    0    0 -0.12463482506E+02 -0.51036539095E+02 -0.43681163817E+02  0.68330891926E+02  0.10000000000E+01 0.  0.
<mgrwt>
<rscale>  0 0.12500138E+03</rscale>
<asrwt>0</asrwt>
<pdfrwt beam="2">  1        4 0.11179393E-01 0.12500138E+03</pdfrwt>
<pdfrwt beam="1">  1       -4 0.82703652E-02 0.12500138E+03</pdfrwt>
<totfact> 0.10421374E+04</totfact>
</mgrwt>
</event>
<event>
 5    1  0.3236337E-002  0.1249986E+03  0.7818608E-02  0.1235072E+00
          4   -1    0    0  501    0  0.00000000000E+00  0.00000000000E+00  0.47938037945E+02  0.47954857752E+02  0.12700000000E+01 0. -1.
         -4   -1    0    0    0  501 -0.00000000000E+00 -0.00000000000E+00 -0.81447471799E+02  0.81457372671E+02  0.12700000000E+01 0. -1.
         25    2    1    2    0    0  0.00000000000E+00  0.00000000000E+00 -0.33509433854E+02  0.12941223042E+03  0.12499857290E+03 0.  0.
    9000005    1    3    3    0    0 -0.39569682402E+02  0.48320930325E+02 -0.18948189374E+02  0.65274083321E+02  0.10000000000E+01 0.  0.
    9000005    1    3    3    0    0  0.39569682402E+02 -0.48320930325E+02 -0.14561244480E+02  0.64138147102E+02  0.10000000000E+01 0.  0.
<mgrwt>
<rscale>  0 0.12499857E+03</rscale>
<asrwt>0</asrwt>
<pdfrwt beam="1">  1        4 0.73771382E-02 0.12499857E+03</pdfrwt>
<pdfrwt beam="2">  1       -4 0.12532436E-01 0.12499857E+03</pdfrwt>
<totfact> 0.10357431E+04</totfact>
</mgrwt>
</event>
<event>
 5    1  0.3236337E-002  0.1249967E+03  0.7818608E-02  0.1235074E+00
          4   -1    0    0  501    0  0.00000000000E+00  0.00000000000E+00  0.66226219886E+02  0.66238395968E+02  0.12700000000E+01 0. -1.
         -4   -1    0    0    0  501 -0.00000000000E+00 -0.00000000000E+00 -0.58955897598E+02  0.58969574880E+02  0.12700000000E+01 0. -1.
         25    2    1    2    0    0  0.00000000000E+00  0.00000000000E+00  0.72703222878E+01  0.12520797085E+03  0.12499671347E+03 0.  0.
    9000005    1    3    3    0    0 -0.31453121243E+02  0.16742098023E+02  0.55058539093E+02  0.65589933749E+02  0.10000000000E+01 0.  0.
    9000005    1    3    3    0    0  0.31453121243E+02 -0.16742098023E+02 -0.47788216805E+02  0.59618037099E+02  0.10000000000E+01 0.  0.
<mgrwt>
<rscale>  0 0.12499671E+03</rscale>
<asrwt>0</asrwt>
<pdfrwt beam="1">  1        4 0.10190638E-01 0.12499671E+03</pdfrwt>
<pdfrwt beam="2">  1       -4 0.90721268E-02 0.12499671E+03</pdfrwt>
<totfact> 0.10449123E+04</totfact>
</mgrwt>
</event>
<event>
 5    1  0.3236337E-002  0.1250029E+03  0.7818608E-02  0.1235065E+00
         -4   -1    0    0    0  501 -0.00000000000E+00  0.00000000000E+00  0.55958227209E+02  0.55972636997E+02  0.12700000000E+01 0. -1.
          4   -1    0    0  501    0  0.00000000000E+00 -0.00000000000E+00 -0.69780653701E+02  0.69792209672E+02  0.12700000000E+01 0. -1.
         25    2    1    2    0    0  0.00000000000E+00  0.00000000000E+00 -0.13822426492E+02  0.12576484667E+03  0.12500294870E+03 0.  0.
    9000005    1    3    3    0    0  0.21708706404E+02 -0.36561201163E+02 -0.52988223480E+02  0.67946605447E+02  0.10000000000E+01 0.  0.
    9000005    1    3    3    0    0 -0.21708706404E+02  0.36561201163E+02  0.39165796989E+02  0.57818241222E+02  0.10000000000E+01 0.  0.
<mgrwt>
<rscale>  0 0.12500295E+03</rscale>
<asrwt>0</asrwt>
<pdfrwt beam="2">  1        4 0.10737483E-01 0.12500295E+03</pdfrwt>
<pdfrwt beam="1">  1       -4 0.86109554E-02 0.12500295E+03</pdfrwt>
<totfact> 0.10435424E+04</totfact>
</mgrwt>
</event>
<event>
 5    1  0.3236337E-002  0.1249999E+03  0.7818608E-02  0.1235070E+00
          4   -1    0    0  501    0  0.00000000000E+00  0.00000000000E+00  0.13442957058E+02  0.13502814316E+02  0.12700000000E+01 0. -1.
         -4   -1    0    0    0  501 -0.00000000000E+00 -0.00000000000E+00 -0.28987224045E+03  0.28987502253E+03  0.12700000000E+01 0. -1.
         25    2    1    2    0    0  0.00000000000E+00  0.00000000000E+00 -0.27642928339E+03  0.30337783684E+03  0.12499985268E+03 0.  0.
    9000005    1    3    3    0    0 -0.11470878918E+02 -0.47532616879E+02 -0.43769036634E+02  0.65632760863E+02  0.10000000000E+01 0.  0.
    9000005    1    3    3    0    0  0.11470878918E+02  0.47532616879E+02 -0.23266024676E+03  0.23774507598E+03  0.10000000000E+01 0.  0.
<mgrwt>
<rscale>  0 0.12499985E+03</rscale>
<asrwt>0</asrwt>
<pdfrwt beam="1">  1        4 0.20729659E-02 0.12499985E+03</pdfrwt>
<pdfrwt beam="2">  1       -4 0.44600543E-01 0.12499985E+03</pdfrwt>
<totfact> 0.75177321E+03</totfact>
</mgrwt>
</event>
<event>
 5    1  0.3236337E-002  0.1250008E+03  0.7818608E-02  0.1235068E+00
         -4   -1    0    0    0  501 -0.00000000000E+00  0.00000000000E+00  0.60265033746E+02  0.60278413984E+02  0.12700000000E+01 0. -1.
          4   -1    0    0  501    0  0.00000000000E+00 -0.00000000000E+00 -0.64791883354E+02  0.64804328934E+02  0.12700000000E+01 0. -1.
         25    2    1    2    0    0  0.00000000000E+00  0.00000000000E+00 -0.45268496081E+01  0.12508274292E+03  0.12500080083E+03 0.  0.
    9000005    1    3    3    0    0 -0.46668044592E+02  0.19719356129E+02 -0.38873480102E+02  0.63866320134E+02  0.10000000000E+01 0.  0.
    9000005    1    3    3    0    0  0.46668044592E+02 -0.19719356129E+02  0.34346630494E+02  0.61216422784E+02  0.10000000000E+01 0.  0.
<mgrwt>
<rscale>  0 0.12500080E+03</rscale>
<asrwt>0</asrwt>
<pdfrwt beam="2">  1        4 0.99699687E-02 0.12500080E+03</pdfrwt>
<pdfrwt beam="1">  1       -4 0.92735303E-02 0.12500080E+03</pdfrwt>
<totfact> 0.10450877E+04</totfact>
</mgrwt>
</event>
<event>
 5    1  0.3236337E-002  0.1249975E+03  0.7818608E-02  0.1235073E+00
          4   -1    0    0  501    0  0.00000000000E+00  0.00000000000E+00  0.23719362249E+03  0.23719702243E+03  0.12700000000E+01 0. -1.
         -4   -1    0    0    0  501 -0.00000000000E+00 -0.00000000000E+00 -0.16439939685E+02  0.16488921034E+02  0.12700000000E+01 0. -1.
         25    2    1    2    0    0  0.00000000000E+00  0.00000000000E+00  0.22075368281E+03  0.25368594347E+03  0.12499747773E+03 0.  0.
    9000005    1    3    3    0    0  0.57555248566E+02 -0.21352602638E+02  0.86660684275E+02  0.10620552940E+03  0.10000000000E+01 0.  0.
    9000005    1    3    3    0    0 -0.57555248566E+02  0.21352602638E+02  0.13409299853E+03  0.14748041406E+03  0.10000000000E+01 0.  0.
<mgrwt>
<rscale>  0 0.12499748E+03</rscale>
<asrwt>0</asrwt>
<pdfrwt beam="1">  1        4 0.36495356E-01 0.12499748E+03</pdfrwt>
<pdfrwt beam="2">  1       -4 0.25332508E-02 0.12499748E+03</pdfrwt>
<totfact> 0.81804990E+03</totfact>
</mgrwt>
</event>
<event>
 5    1  0.3236337E-002  0.1250005E+03  0.7818608E-02  0.1235068E+00
         -4   -1    0    0    0  501 -0.00000000000E+00  0.00000000000E+00  0.94853268483E+02  0.94861770181E+02  0.12700000000E+01 0.  1.
          4   -1    0    0  501    0  0.00000000000E+00 -0.00000000000E+00 -0.41162228399E+02  0.41181815729E+02  0.12700000000E+01 0.  1.
         25    2    1    2    0    0  0.00000000000E+00  0.00000000000E+00  0.53691040084E+02  0.13604358591E+03  0.12500051793E+03 0.  0.
    9000005    1    3    3    0    0 -0.37652747100E+02  0.48571080792E+02  0.14512937195E+02  0.63154608695E+02  0.10000000000E+01 0.  0.
    9000005    1    3    3    0    0  0.37652747100E+02 -0.48571080792E+02  0.39178102889E+02  0.72888977215E+02  0.10000000000E+01 0.  0.
<mgrwt>
<rscale>  0 0.12500052E+03</rscale>
<asrwt>0</asrwt>
<pdfrwt beam="2">  1        4 0.63348113E-02 0.12500052E+03</pdfrwt>
<pdfrwt beam="1">  1       -4 0.14594971E-01 0.12500052E+03</pdfrwt>
<totfact> 0.10216002E+04</totfact>
</mgrwt>
</event>
<event>
 5    1  0.3236337E-002  0.1250082E+03  0.7818608E-02  0.1235056E+00
         -4   -1    0    0    0  501 -0.00000000000E+00  0.00000000000E+00  0.64222249148E+01  0.65465924615E+01  0.12700000000E+01 0.  1.
          4   -1    0    0  501    0  0.00000000000E+00 -0.00000000000E+00 -0.60236061596E+03  0.60236195477E+03  0.12700000000E+01 0.  1.
         25    2    1    2    0    0  0.00000000000E+00  0.00000000000E+00 -0.59593839104E+03  0.60890854723E+03  0.12500821163E+03 0.  0.
    9000005    1    3    3    0    0 -0.40006094565E+02  0.35238658023E+02 -0.13912006120E+03  0.14898873128E+03  0.10000000000E+01 0.  0.
    9000005    1    3    3    0    0  0.40006094565E+02 -0.35238658023E+02 -0.45681832984E+03  0.45991981595E+03  0.10000000000E+01 0.  0.
<mgrwt>
<rscale>  0 0.12500821E+03</rscale>
<asrwt>0</asrwt>
<pdfrwt beam="2">  1        4 0.92680490E-01 0.12500821E+03</pdfrwt>
<pdfrwt beam="1">  1       -4 0.99770479E-03 0.12500821E+03</pdfrwt>
<totfact> 0.48301384E+03</totfact>
</mgrwt>
</event>
<event>
 5    1  0.3236337E-002  0.1250006E+03  0.7818608E-02  0.1235068E+00
          4   -1    0    0  501    0  0.00000000000E+00  0.00000000000E+00  0.33981576184E+03  0.33981813503E+03  0.12700000000E+01 0. -1.
         -4   -1    0    0    0  501 -0.00000000000E+00 -0.00000000000E+00 -0.11457816060E+02  0.11527985465E+02  0.12700000000E+01 0. -1.
         25    2    1    2    0    0  0.00000000000E+00  0.00000000000E+00  0.32835794578E+03  0.35134612050E+03  0.12500062332E+03 0.  0.
    9000005    1    3    3    0    0  0.45710114861E+02  0.32734951606E+02  0.24086146273E+03  0.24733830250E+03  0.10000000000E+01 0.  0.
    9000005    1    3    3    0    0 -0.45710114861E+02 -0.32734951606E+02  0.87496483057E+02  0.10400781800E+03  0.10000000000E+01 0.  0.
<mgrwt>
<rscale>  0 0.12500062E+03</rscale>
<asrwt>0</asrwt>
<pdfrwt beam="1">  1        4 0.52284923E-01 0.12500062E+03</pdfrwt>
<pdfrwt beam="2">  1       -4 0.17683213E-02 0.12500062E+03</pdfrwt>
<totfact> 0.69575762E+03</totfact>
</mgrwt>
</event>
<event>
 5    1  0.3236337E-002  0.1249968E+03  0.7818608E-02  0.1235074E+00
         -4   -1    0    0    0  501 -0.00000000000E+00  0.00000000000E+00  0.11697253632E+02  0.11765995178E+02  0.12700000000E+01 0. -1.
          4   -1    0    0  501    0  0.00000000000E+00 -0.00000000000E+00 -0.33288051906E+03  0.33288294169E+03  0.12700000000E+01 0. -1.
         25    2    1    2    0    0  0.00000000000E+00  0.00000000000E+00 -0.32118326542E+03  0.34464893687E+03  0.12499679874E+03 0.  0.
    9000005    1    3    3    0    0  0.50330123035E+02 -0.17064360763E+02 -0.69947873560E+02  0.87852255000E+02  0.10000000000E+01 0.  0.
    9000005    1    3    3    0    0 -0.50330123035E+02  0.17064360763E+02 -0.25123539186E+03  0.25679668187E+03  0.10000000000E+01 0.  0.
<mgrwt>
<rscale>  0 0.12499680E+03</rscale>
<asrwt>0</asrwt>
<pdfrwt beam="2">  1        4 0.51217854E-01 0.12499680E+03</pdfrwt>
<pdfrwt beam="1">  1       -4 0.18050519E-02 0.12499680E+03</pdfrwt>
<totfact> 0.70322264E+03</totfact>
</mgrwt>
</event>
<event>
 5    1  0.3236337E-002  0.1249994E+03  0.7818608E-02  0.1235070E+00
         -4   -1    0    0    0  501 -0.00000000000E+00  0.00000000000E+00  0.99548399785E+01  0.10035523853E+02  0.12700000000E+01 0.  1.
          4   -1    0    0  501    0  0.00000000000E+00 -0.00000000000E+00 -0.39072807034E+03  0.39073013430E+03  0.12700000000E+01 0.  1.
         25    2    1    2    0    0  0.00000000000E+00  0.00000000000E+00 -0.38077323036E+03  0.40076565815E+03  0.12499943918E+03 0.  0.
    9000005    1    3    3    0    0 -0.19043427626E+02  0.40726147670E+02 -0.51225982002E+02  0.68164304969E+02  0.10000000000E+01 0.  0.
    9000005    1    3    3    0    0  0.19043427626E+02 -0.40726147670E+02 -0.32954724836E+03  0.33260135318E+03  0.10000000000E+01 0.  0.
<mgrwt>
<rscale>  0 0.12499944E+03</rscale>
<asrwt>0</asrwt>
<pdfrwt beam="2">  1        4 0.60118364E-01 0.12499944E+03</pdfrwt>
<pdfrwt beam="1">  1       -4 0.15378794E-02 0.12499944E+03</pdfrwt>
<totfact> 0.64479194E+03</totfact>
</mgrwt>
</event>
<event>
 5    1  0.3236337E-002  0.1249958E+03  0.7818608E-02  0.1235076E+00
          4   -1    0    0  501    0  0.00000000000E+00  0.00000000000E+00  0.27437481851E+03  0.27437775772E+03  0.12700000000E+01 0. -1.
         -4   -1    0    0    0  501 -0.00000000000E+00 -0.00000000000E+00 -0.14204609809E+02  0.14261270625E+02  0.12700000000E+01 0. -1.
         25    2    1    2    0    0  0.00000000000E+00  0.00000000000E+00  0.26017020870E+03  0.28863902835E+03  0.12499580469E+03 0.  0.
    9000005    1    3    3    0    0  0.44734330524E+02 -0.35445314042E+02  0.18884285253E+03  0.19728191394E+03  0.10000000000E+01 0.  0.
    9000005    1    3    3    0    0 -0.44734330524E+02  0.35445314042E+02  0.71327356175E+02  0.91357114413E+02  0.10000000000E+01 0.  0.
<mgrwt>
<rscale>  0 0.12499580E+03</rscale>
<asrwt>0</asrwt>
<pdfrwt beam="1">  1        4 0.42216093E-01 0.12499580E+03</pdfrwt>
<pdfrwt beam="2">  1       -4 0.21899093E-02 0.12499580E+03</pdfrwt>
<totfact> 0.77053583E+03</totfact>
</mgrwt>
</event>
<event>
 5    1  0.3236337E-002  0.1250032E+03  0.7818608E-02  0.1235064E+00
          4   -1    0    0  501    0  0.00000000000E+00  0.00000000000E+00  0.53010198894E+01  0.54510285147E+01  0.12700000000E+01 0. -1.
         -4   -1    0    0    0  501 -0.00000000000E+00 -0.00000000000E+00 -0.72649284617E+03  0.72649395623E+03  0.12700000000E+01 0. -1.
         25    2    1    2    0    0  0.00000000000E+00  0.00000000000E+00 -0.72119182628E+03  0.73194498474E+03  0.12500324154E+03 0.  0.
    9000005    1    3    3    0    0 -0.27502744781E+02  0.21099641353E+02 -0.66506906627E+03  0.66597256606E+03  0.10000000000E+01 0.  0.
    9000005    1    3    3    0    0  0.27502744781E+02 -0.21099641353E+02 -0.56122760017E+02  0.65972418689E+02  0.10000000000E+01 0.  0.
<mgrwt>
<rscale>  0 0.12500324E+03</rscale>
<asrwt>0</asrwt>
<pdfrwt beam="1">  1        4 0.82716661E-03 0.12500324E+03</pdfrwt>
<pdfrwt beam="2">  1       -4 0.11177968E+00 0.12500324E+03</pdfrwt>
<totfact> 0.41450040E+03</totfact>
</mgrwt>
</event>
<event>
 5    1  0.3236337E-002  0.1250015E+03  0.7818608E-02  0.1235067E+00
          4   -1    0    0  501    0  0.00000000000E+00  0.00000000000E+00  0.44360949380E+03  0.44361131172E+03  0.12700000000E+01 0.  1.
         -4   -1    0    0    0  501 -0.00000000000E+00 -0.00000000000E+00 -0.87581858889E+01  0.88497864417E+01  0.12700000000E+01 0.  1.
         25    2    1    2    0    0  0.00000000000E+00  0.00000000000E+00  0.43485130791E+03  0.45246109817E+03  0.12500154144E+03 0.  0.
    9000005    1    3    3    0    0 -0.47034192560E+01  0.61439417488E+02  0.17973575985E+03  0.19000754602E+03  0.10000000000E+01 0.  0.
    9000005    1    3    3    0    0  0.47034192560E+01 -0.61439417488E+02  0.25511554806E+03  0.26245355215E+03  0.10000000000E+01 0.  0.
<mgrwt>
<rscale>  0 0.12500154E+03</rscale>
<asrwt>0</asrwt>
<pdfrwt beam="1">  1        4 0.68254795E-01 0.12500154E+03</pdfrwt>
<pdfrwt beam="2">  1       -4 0.13545994E-02 0.12500154E+03</pdfrwt>
<totfact> 0.59749154E+03</totfact>
</mgrwt>
</event>
<event>
 5    1  0.3236337E-002  0.1250004E+03  0.7818608E-02  0.1235069E+00
         -4   -1    0    0    0  501 -0.00000000000E+00  0.00000000000E+00  0.55069790322E+03  0.55069936763E+03  0.12700000000E+01 0. -1.
          4   -1    0    0  501    0  0.00000000000E+00 -0.00000000000E+00 -0.70349882595E+01  0.71487033658E+01  0.12700000000E+01 0. -1.
         25    2    1    2    0    0  0.00000000000E+00  0.00000000000E+00  0.54366291496E+03  0.55784807100E+03  0.12500042085E+03 0.  0.
    9000005    1    3    3    0    0 -0.14229218868E+02  0.28364994537E+02  0.51208571248E+03  0.51306902120E+03  0.10000000000E+01 0.  0.
    9000005    1    3    3    0    0  0.14229218868E+02 -0.28364994537E+02  0.31577202480E+02  0.44779049802E+02  0.10000000000E+01 0.  0.
<mgrwt>
<rscale>  0 0.12500042E+03</rscale>
<asrwt>0</asrwt>
<pdfrwt beam="2">  1        4 0.10911658E-02 0.12500042E+03</pdfrwt>
<pdfrwt beam="1">  1       -4 0.84731621E-01 0.12500042E+03</pdfrwt>
<totfact> 0.51640777E+03</totfact>
</mgrwt>
</event>
<event>
 5    1  0.3236337E-002  0.1249993E+03  0.7818608E-02  0.1235070E+00
          4   -1    0    0  501    0  0.00000000000E+00  0.00000000000E+00  0.13021732029E+04  0.13021738222E+04  0.12700000000E+01 0. -1.
         -4   -1    0    0    0  501 -0.00000000000E+00 -0.00000000000E+00 -0.28646926610E+01  0.31335864503E+01  0.12700000000E+01 0. -1.
         25    2    1    2    0    0  0.00000000000E+00  0.00000000000E+00  0.12993085102E+04  0.13053074086E+04  0.12499930530E+03 0.  0.
    9000005    1    3    3    0    0  0.69869552375E+01  0.24722833286E+02  0.54781653538E+02  0.60515003045E+02  0.10000000000E+01 0.  0.
    9000005    1    3    3    0    0 -0.69869552375E+01 -0.24722833286E+02  0.12445268567E+04  0.12447924056E+04  0.10000000000E+01 0.  0.
<mgrwt>
<rscale>  0 0.12499931E+03</rscale>
<asrwt>0</asrwt>
<pdfrwt beam="1">  1        4 0.20035455E+00 0.12499931E+03</pdfrwt>
<pdfrwt beam="2">  1       -4 0.46145492E-03 0.12499931E+03</pdfrwt>
<totfact> 0.22104010E+03</totfact>
</mgrwt>
</event>
<event>
 5    1  0.3236337E-002  0.1249985E+03  0.7818608E-02  0.1235072E+00
         -4   -1    0    0    0  501 -0.00000000000E+00  0.00000000000E+00  0.38567472357E+02  0.38588376800E+02  0.12700000000E+01 0. -1.
          4   -1    0    0  501    0  0.00000000000E+00 -0.00000000000E+00 -0.10122883653E+03  0.10123680282E+03  0.12700000000E+01 0. -1.
         25    2    1    2    0    0  0.00000000000E+00  0.00000000000E+00 -0.62661364177E+02  0.13982517962E+03  0.12499853718E+03 0.  0.
    9000005    1    3    3    0    0 -0.67022096594E+01  0.31241203077E+02 -0.91405866602E+02  0.96834729479E+02  0.10000000000E+01 0.  0.
    9000005    1    3    3    0    0  0.67022096594E+01 -0.31241203077E+02  0.28744502425E+02  0.42990450145E+02  0.10000000000E+01 0.  0.
<mgrwt>
<rscale>  0 0.12499854E+03</rscale>
<asrwt>0</asrwt>
<pdfrwt beam="2">  1        4 0.15575888E-01 0.12499854E+03</pdfrwt>
<pdfrwt beam="1">  1       -4 0.59356782E-02 0.12499854E+03</pdfrwt>
<totfact> 0.10137544E+04</totfact>
</mgrwt>
</event>
<event>
 5    1  0.3236337E-002  0.1249980E+03  0.7818608E-02  0.1235072E+00
          4   -1    0    0  501    0  0.00000000000E+00  0.00000000000E+00  0.41970546697E+01  0.43849934892E+01  0.12700000000E+01 0.  1.
         -4   -1    0    0    0  501 -0.00000000000E+00 -0.00000000000E+00 -0.91011334587E+03  0.91011423196E+03  0.12700000000E+01 0.  1.
         25    2    1    2    0    0  0.00000000000E+00  0.00000000000E+00 -0.90591629120E+03  0.91449922545E+03  0.12499802678E+03 0.  0.
    9000005    1    3    3    0    0  0.59930508502E+02 -0.58845130724E+01 -0.57512475723E+03  0.57826964274E+03  0.10000000000E+01 0.  0.
    9000005    1    3    3    0    0 -0.59930508502E+02  0.58845130724E+01 -0.33079153397E+03  0.33622958271E+03  0.10000000000E+01 0.  0.
<mgrwt>
<rscale>  0 0.12499803E+03</rscale>
<asrwt>0</asrwt>
<pdfrwt beam="1">  1        4 0.66022643E-03 0.12499803E+03</pdfrwt>
<pdfrwt beam="2">  1       -4 0.14003181E+00 0.12499803E+03</pdfrwt>
<totfact> 0.33612265E+03</totfact>
</mgrwt>
</event>
<event>
 5    1  0.3236337E-002  0.1250005E+03  0.7818608E-02  0.1235068E+00
          4   -1    0    0  501    0  0.00000000000E+00  0.00000000000E+00  0.92315367041E+02  0.92324102443E+02  0.12700000000E+01 0. -1.
         -4   -1    0    0    0  501 -0.00000000000E+00 -0.00000000000E+00 -0.42294266443E+02  0.42313329743E+02  0.12700000000E+01 0. -1.
         25    2    1    2    0    0  0.00000000000E+00  0.00000000000E+00  0.50021100598E+02  0.13463743219E+03  0.12500051056E+03 0.  0.
    9000005    1    3    3    0    0 -0.34164799722E+02  0.79832491904E+01  0.80711218218E+02  0.88012877205E+02  0.10000000000E+01 0.  0.
    9000005    1    3    3    0    0  0.34164799722E+02 -0.79832491904E+01 -0.30690117620E+02  0.46624554981E+02  0.10000000000E+01 0.  0.
<mgrwt>
<rscale>  0 0.12500051E+03</rscale>
<asrwt>0</asrwt>
<pdfrwt beam="1">  1        4 0.14204503E-01 0.12500051E+03</pdfrwt>
<pdfrwt beam="2">  1       -4 0.65089485E-02 0.12500051E+03</pdfrwt>
<totfact> 0.10245601E+04</totfact>
</mgrwt>
</event>
<event>
 5    1  0.3236337E-002  0.1249975E+03  0.7818608E-02  0.1235073E+00
          4   -1    0    0  501    0  0.00000000000E+00  0.00000000000E+00  0.35639837346E+03  0.35640063623E+03  0.12700000000E+01 0. -1.
         -4   -1    0    0    0  501 -0.00000000000E+00 -0.00000000000E+00 -0.10920811475E+02  0.10994408727E+02  0.12700000000E+01 0. -1.
         25    2    1    2    0    0  0.00000000000E+00  0.00000000000E+00  0.34547756198E+03  0.36739504495E+03  0.12499749287E+03 0.  0.
    9000005    1    3    3    0    0  0.56865745278E+02 -0.11484339461E+02  0.24100782155E+03  0.24789387465E+03  0.10000000000E+01 0.  0.
    9000005    1    3    3    0    0 -0.56865745278E+02  0.11484339461E+02  0.10446974043E+03  0.11950117031E+03  0.10000000000E+01 0.  0.
<mgrwt>
<rscale>  0 0.12499749E+03</rscale>
<asrwt>0</asrwt>
<pdfrwt beam="1">  1        4 0.54836354E-01 0.12499749E+03</pdfrwt>
<pdfrwt beam="2">  1       -4 0.16859602E-02 0.12499749E+03</pdfrwt>
<totfact> 0.67856107E+03</totfact>
</mgrwt>
</event>
<event>
 5    1  0.3236337E-002  0.1250171E+03  0.7818608E-02  0.1235043E+00
          4   -1    0    0  501    0  0.00000000000E+00  0.00000000000E+00  0.10231779796E+02  0.10310296688E+02  0.12700000000E+01 0.  1.
         -4   -1    0    0    0  501 -0.00000000000E+00 -0.00000000000E+00 -0.38034162026E+03  0.38034374058E+03  0.12700000000E+01 0.  1.
         25    2    1    2    0    0  0.00000000000E+00  0.00000000000E+00 -0.37010984046E+03  0.39065403727E+03  0.12501713014E+03 0.  0.
    9000005    1    3    3    0    0 -0.44230564794E+02  0.39625868780E+02 -0.12415984290E+03  0.13763436681E+03  0.10000000000E+01 0.  0.
    9000005    1    3    3    0    0  0.44230564794E+02 -0.39625868780E+02 -0.24594999757E+03  0.25301967046E+03  0.10000000000E+01 0.  0.
<mgrwt>
<rscale>  0 0.12501713E+03</rscale>
<asrwt>0</asrwt>
<pdfrwt beam="1">  1        4 0.15803231E-02 0.12501713E+03</pdfrwt>
<pdfrwt beam="2">  1       -4 0.58520288E-01 0.12501713E+03</pdfrwt>
<totfact> 0.65447271E+03</totfact>
</mgrwt>
</event>
<event>
 5    1  0.3236337E-002  0.1250152E+03  0.7818608E-02  0.1235045E+00
         -4   -1    0    0    0  501 -0.00000000000E+00  0.00000000000E+00  0.32145905001E+01  0.34563697839E+01  0.12700000000E+01 0. -1.
          4   -1    0    0  501    0  0.00000000000E+00 -0.00000000000E+00 -0.11711639051E+04  0.11711645937E+04  0.12700000000E+01 0. -1.
         25    2    1    2    0    0  0.00000000000E+00  0.00000000000E+00 -0.11679493146E+04  0.11746209635E+04  0.12501522449E+03 0.  0.
    9000005    1    3    3    0    0  0.28616486706E+01 -0.26837378602E+02 -0.11136331169E+04  0.11139605707E+04  0.10000000000E+01 0.  0.
    9000005    1    3    3    0    0 -0.28616486706E+01  0.26837378602E+02 -0.54316197658E+02  0.60660392773E+02  0.10000000000E+01 0.  0.
<mgrwt>
<rscale>  0 0.12501522E+03</rscale>
<asrwt>0</asrwt>
<pdfrwt beam="2">  1        4 0.18019739E+00 0.12501522E+03</pdfrwt>
<pdfrwt beam="1">  1       -4 0.51320469E-03 0.12501522E+03</pdfrwt>
<totfact> 0.25378504E+03</totfact>
</mgrwt>
</event>
<event>
 5    1  0.3236337E-002  0.1250018E+03  0.7818608E-02  0.1235066E+00
         -4   -1    0    0    0  501 -0.00000000000E+00  0.00000000000E+00  0.19798020672E+03  0.19798428006E+03  0.12700000000E+01 0. -1.
          4   -1    0    0  501    0  0.00000000000E+00 -0.00000000000E+00 -0.19706363422E+02  0.19747244347E+02  0.12700000000E+01 0. -1.
         25    2    1    2    0    0  0.00000000000E+00  0.00000000000E+00  0.17827384330E+03  0.21773152441E+03  0.12500181406E+03 0.  0.
    9000005    1    3    3    0    0  0.12472525822E+02  0.16100031151E+02  0.19204615027E+03  0.19312560352E+03  0.10000000000E+01 0.  0.
    9000005    1    3    3    0    0 -0.12472525822E+02 -0.16100031151E+02 -0.13772306971E+02  0.24605920888E+02  0.10000000000E+01 0.  0.
<mgrwt>
<rscale>  0 0.12500181E+03</rscale>
<asrwt>0</asrwt>
<pdfrwt beam="2">  1        4 0.30352062E-02 0.12500181E+03</pdfrwt>
<pdfrwt beam="1">  1       -4 0.30461952E-01 0.12500181E+03</pdfrwt>
<totfact> 0.87225047E+03</totfact>
</mgrwt>
</event>
<event>
 5    1  0.3236337E-002  0.1249731E+03  0.7818608E-02  0.1235111E+00
         -4   -1    0    0    0  501 -0.00000000000E+00  0.00000000000E+00  0.18162223288E+03  0.18162667309E+03  0.12700000000E+01 0.  1.
          4   -1    0    0  501    0  0.00000000000E+00 -0.00000000000E+00 -0.21474831400E+02  0.21512351886E+02  0.12700000000E+01 0.  1.
         25    2    1    2    0    0  0.00000000000E+00  0.00000000000E+00  0.16014740148E+03  0.20313902498E+03  0.12497309017E+03 0.  0.
    9000005    1    3    3    0    0 -0.61916523804E+02  0.60411845095E+01  0.70677392699E+02  0.94161805787E+02  0.10000000000E+01 0.  0.
    9000005    1    3    3    0    0  0.61916523804E+02 -0.60411845095E+01  0.89470008785E+02  0.10897721919E+03  0.10000000000E+01 0.  0.
<mgrwt>
<rscale>  0 0.12497309E+03</rscale>
<asrwt>0</asrwt>
<pdfrwt beam="2">  1        4 0.33070480E-02 0.12497309E+03</pdfrwt>
<pdfrwt beam="1">  1       -4 0.27945110E-01 0.12497309E+03</pdfrwt>
<totfact> 0.89662737E+03</totfact>
</mgrwt>
</event>
<event>
 5    1  0.3236337E-002  0.1249994E+03  0.7818608E-02  0.1235070E+00
         -4   -1    0    0    0  501 -0.00000000000E+00  0.00000000000E+00  0.21397995642E+01  0.24883010620E+01  0.12700000000E+01 0.  1.
          4   -1    0    0  501    0  0.00000000000E+00 -0.00000000000E+00 -0.16876933764E+04  0.16876938543E+04  0.12700000000E+01 0.  1.
         25    2    1    2    0    0  0.00000000000E+00  0.00000000000E+00 -0.16855535769E+04  0.16901821553E+04  0.12499943089E+03 0.  0.
    9000005    1    3    3    0    0  0.50188865008E+02  0.37099382650E+02 -0.80017205780E+03  0.80260302046E+03  0.10000000000E+01 0.  0.
    9000005    1    3    3    0    0 -0.50188865008E+02 -0.37099382650E+02 -0.88538151907E+03  0.88757913488E+03  0.10000000000E+01 0.  0.
<mgrwt>
<rscale>  0 0.12499943E+03</rscale>
<asrwt>0</asrwt>
<pdfrwt beam="2">  1        4 0.25967099E+00 0.12499943E+03</pdfrwt>
<pdfrwt beam="1">  1       -4 0.35604585E-03 0.12499943E+03</pdfrwt>
<totfact> 0.14472663E+03</totfact>
</mgrwt>
</event>
<event>
 5    1  0.3236337E-002  0.1250003E+03  0.7818608E-02  0.1235069E+00
         -4   -1    0    0    0  501 -0.00000000000E+00  0.00000000000E+00  0.42611860632E+02  0.42630781913E+02  0.12700000000E+01 0. -1.
          4   -1    0    0  501    0  0.00000000000E+00 -0.00000000000E+00 -0.91627211232E+02  0.91636012234E+02  0.12700000000E+01 0. -1.
         25    2    1    2    0    0  0.00000000000E+00  0.00000000000E+00 -0.49015350600E+02  0.13426679415E+03  0.12500026966E+03 0.  0.
    9000005    1    3    3    0    0 -0.20004648059E+02 -0.51134860920E+02 -0.56557638953E+02  0.78833536450E+02  0.10000000000E+01 0.  0.
    9000005    1    3    3    0    0  0.20004648059E+02  0.51134860920E+02  0.75422883534E+01  0.55433257697E+02  0.10000000000E+01 0.  0.
<mgrwt>
<rscale>  0 0.12500027E+03</rscale>
<asrwt>0</asrwt>
<pdfrwt beam="2">  1        4 0.14098626E-01 0.12500027E+03</pdfrwt>
<pdfrwt beam="1">  1       -4 0.65578034E-02 0.12500027E+03</pdfrwt>
<totfact> 0.10253486E+04</totfact>
</mgrwt>
</event>
<event>
 5    1  0.3236337E-002  0.1249986E+03  0.7818608E-02  0.1235071E+00
          4   -1    0    0  501    0  0.00000000000E+00  0.00000000000E+00  0.32489234532E+03  0.32489482751E+03  0.12700000000E+01 0. -1.
         -4   -1    0    0    0  501 -0.00000000000E+00 -0.00000000000E+00 -0.11986869569E+02  0.12053959601E+02  0.12700000000E+01 0. -1.
         25    2    1    2    0    0  0.00000000000E+00  0.00000000000E+00  0.31290547575E+03  0.33694878711E+03  0.12499859353E+03 0.  0.
    9000005    1    3    3    0    0 -0.54321860842E+02 -0.13544500463E+02  0.81611315978E+02  0.98973354767E+02  0.10000000000E+01 0.  0.
    9000005    1    3    3    0    0  0.54321860842E+02  0.13544500463E+02  0.23129415977E+03  0.23797543235E+03  0.10000000000E+01 0.  0.
<mgrwt>
<rscale>  0 0.12499859E+03</rscale>
<asrwt>0</asrwt>
<pdfrwt beam="1">  1        4 0.49988789E-01 0.12499859E+03</pdfrwt>
<pdfrwt beam="2">  1       -4 0.18494855E-02 0.12499859E+03</pdfrwt>
<totfact> 0.71186839E+03</totfact>
</mgrwt>
</event>
<event>
 5    1  0.3236337E-002  0.1249999E+03  0.7818608E-02  0.1235069E+00
         -4   -1    0    0    0  501 -0.00000000000E+00  0.00000000000E+00  0.48034771102E+02  0.48051557049E+02  0.12700000000E+01 0.  1.
          4   -1    0    0  501    0  0.00000000000E+00 -0.00000000000E+00 -0.81285195244E+02  0.81295115880E+02  0.12700000000E+01 0.  1.
         25    2    1    2    0    0  0.00000000000E+00  0.00000000000E+00 -0.33250424142E+02  0.12934667293E+03  0.12499988437E+03 0.  0.
    9000005    1    3    3    0    0 -0.58315928776E+02  0.14839021821E+02 -0.34072705918E+02  0.69158465904E+02  0.10000000000E+01 0.  0.
    9000005    1    3    3    0    0  0.58315928776E+02 -0.14839021821E+02  0.82228177597E+00  0.60188207025E+02  0.10000000000E+01 0.  0.
<mgrwt>
<rscale>  0 0.12499988E+03</rscale>
<asrwt>0</asrwt>
<pdfrwt beam="2">  1        4 0.12507469E-01 0.12499988E+03</pdfrwt>
<pdfrwt beam="1">  1       -4 0.73920192E-02 0.12499988E+03</pdfrwt>
<totfact> 0.10358530E+04</totfact>
</mgrwt>
</event>
<event>
 5    1  0.3236337E-002  0.1250004E+03  0.7818608E-02  0.1235069E+00
         -4   -1    0    0    0  501 -0.00000000000E+00  0.00000000000E+00  0.34112873849E+02  0.34136506298E+02  0.12700000000E+01 0. -1.
          4   -1    0    0  501    0  0.00000000000E+00 -0.00000000000E+00 -0.11444344490E+03  0.11445049139E+03  0.12700000000E+01 0. -1.
         25    2    1    2    0    0  0.00000000000E+00  0.00000000000E+00 -0.80330571048E+02  0.14858699769E+03  0.12500038095E+03 0.  0.
    9000005    1    3    3    0    0 -0.61285336914E+02  0.12216360045E+02 -0.40612960462E+02  0.74535525294E+02  0.10000000000E+01 0.  0.
    9000005    1    3    3    0    0  0.61285336914E+02 -0.12216360045E+02 -0.39717610585E+02  0.74051472396E+02  0.10000000000E+01 0.  0.
<mgrwt>
<rscale>  0 0.12500038E+03</rscale>
<asrwt>0</asrwt>
<pdfrwt beam="2">  1        4 0.17609044E-01 0.12500038E+03</pdfrwt>
<pdfrwt beam="1">  1       -4 0.52504944E-02 0.12500038E+03</pdfrwt>
<totfact> 0.99585254E+03</totfact>
</mgrwt>
</event>
<event>
 5    1  0.3236337E-002  0.1250041E+03  0.7818608E-02  0.1235063E+00
          4   -1    0    0  501    0  0.00000000000E+00  0.00000000000E+00  0.87489988307E+02  0.87499205448E+02  0.12700000000E+01 0.  1.
         -4   -1    0    0    0  501 -0.00000000000E+00 -0.00000000000E+00 -0.44630286519E+02  0.44648352430E+02  0.12700000000E+01 0.  1.
         25    2    1    2    0    0  0.00000000000E+00  0.00000000000E+00  0.42859701788E+02  0.13214755788E+03  0.12500409200E+03 0.  0.
    9000005    1    3    3    0    0 -0.26262962481E+02 -0.54987771717E+02  0.67775073920E+01  0.61321552843E+02  0.10000000000E+01 0.  0.
    9000005    1    3    3    0    0  0.26262962481E+02  0.54987771717E+02  0.36082194397E+02  0.70826005035E+02  0.10000000000E+01 0.  0.
<mgrwt>
<rscale>  0 0.12500409E+03</rscale>
<asrwt>0</asrwt>
<pdfrwt beam="1">  1        4 0.13462097E-01 0.12500409E+03</pdfrwt>
<pdfrwt beam="2">  1       -4 0.68682967E-02 0.12500409E+03</pdfrwt>
<totfact> 0.10297599E+04</totfact>
</mgrwt>
</event>
<event>
 5    1  0.3236337E-002  0.1249992E+03  0.7818608E-02  0.1235070E+00
         -4   -1    0    0    0  501 -0.00000000000E+00  0.00000000000E+00  0.19580149034E+03  0.19580560901E+03  0.12700000000E+01 0.  1.
          4   -1    0    0  501    0  0.00000000000E+00 -0.00000000000E+00 -0.19925266218E+02  0.19965698933E+02  0.12700000000E+01 0.  1.
         25    2    1    2    0    0  0.00000000000E+00  0.00000000000E+00  0.17587622412E+03  0.21577130794E+03  0.12499924447E+03 0.  0.
    9000005    1    3    3    0    0  0.36897194899E+02 -0.23035256747E+02  0.16538915273E+03  0.17101636731E+03  0.10000000000E+01 0.  0.
    9000005    1    3    3    0    0 -0.36897194899E+02  0.23035256747E+02  0.10487071386E+02  0.44754940633E+02  0.10000000000E+01 0.  0.
<mgrwt>
<rscale>  0 0.12499924E+03</rscale>
<asrwt>0</asrwt>
<pdfrwt beam="2">  1        4 0.30688525E-02 0.12499924E+03</pdfrwt>
<pdfrwt beam="1">  1       -4 0.30126734E-01 0.12499924E+03</pdfrwt>
<totfact> 0.87543416E+03</totfact>
</mgrwt>
</event>
<event>
 4    1  0.3236337E-002  0.1250824E+03  0.7818608E-02  0.1234941E+00
          4   -1    0    0  501    0  0.00000000000E+00  0.00000000000E+00  0.26331374672E+03  0.26331680940E+03  0.12700000000E+01 0.  1.
         -4   -1    0    0    0  501 -0.00000000000E+00 -0.00000000000E+00 -0.14824232539E+02  0.14878533879E+02  0.12700000000E+01 0.  1.
    9000005    1    1    2    0    0 -0.43179043581E+02 -0.36385896962E+02  0.64481533417E+02  0.85715992989E+02  0.10000000000E+01 0.  0.
    9000005    1    1    2    0    0  0.43179043581E+02  0.36385896962E+02  0.18400798076E+03  0.19247935029E+03  0.10000000000E+01 0.  0.
<mgrwt>
<rscale>  0 0.12508241E+03</rscale>
<asrwt>0</asrwt>
<pdfrwt beam="1">  1        4 0.40514223E-01 0.12508241E+03</pdfrwt>
<pdfrwt beam="2">  1       -4 0.22850636E-02 0.12508241E+03</pdfrwt>
<totfact> 0.78274495E+03</totfact>
</mgrwt>
</event>
<event>
 5    1  0.3236337E-002  0.1249970E+03  0.7818608E-02  0.1235074E+00
         -4   -1    0    0    0  501 -0.00000000000E+00  0.00000000000E+00  0.11668490494E+04  0.11668497405E+04  0.12700000000E+01 0. -1.
          4   -1    0    0  501    0  0.00000000000E+00 -0.00000000000E+00 -0.32263608100E+01  0.34673194367E+01  0.12700000000E+01 0. -1.
         25    2    1    2    0    0  0.00000000000E+00  0.00000000000E+00  0.11636226886E+04  0.11703170600E+04  0.12499703780E+03 0.  0.
    9000005    1    3    3    0    0 -0.41814715932E+02 -0.22689558213E+01  0.10160905787E+04  0.10169536286E+04  0.10000000000E+01 0.  0.
    9000005    1    3    3    0    0  0.41814715932E+02  0.22689558213E+01  0.14753210989E+03  0.15336343136E+03  0.10000000000E+01 0.  0.
<mgrwt>
<rscale>  0 0.12499704E+03</rscale>
<asrwt>0</asrwt>
<pdfrwt beam="2">  1        4 0.51495131E-03 0.12499704E+03</pdfrwt>
<pdfrwt beam="1">  1       -4 0.17953394E+00 0.12499704E+03</pdfrwt>
<totfact> 0.25504813E+03</totfact>
</mgrwt>
</event>
<event>
 5    1  0.3236337E-002  0.1250007E+03  0.7818608E-02  0.1235068E+00
          4   -1    0    0  501    0  0.00000000000E+00  0.00000000000E+00  0.87776354812E+01  0.88690351584E+01  0.12700000000E+01 0.  1.
         -4   -1    0    0    0  501 -0.00000000000E+00 -0.00000000000E+00 -0.44263064431E+03  0.44263246626E+03  0.12700000000E+01 0.  1.
         25    2    1    2    0    0  0.00000000000E+00  0.00000000000E+00 -0.43385300883E+03  0.45150150142E+03  0.12500069003E+03 0.  0.
    9000005    1    3    3    0    0  0.20716913409E+02 -0.52663125649E+02 -0.12117819989E+03  0.13374509873E+03  0.10000000000E+01 0.  0.
    9000005    1    3    3    0    0 -0.20716913409E+02  0.52663125649E+02 -0.31267480894E+03  0.31775640269E+03  0.10000000000E+01 0.  0.
<mgrwt>
<rscale>  0 0.12500069E+03</rscale>
<asrwt>0</asrwt>
<pdfrwt beam="1">  1        4 0.13575767E-02 0.12500069E+03</pdfrwt>
<pdfrwt beam="2">  1       -4 0.68104176E-01 0.12500069E+03</pdfrwt>
<totfact> 0.59833038E+03</totfact>
</mgrwt>
</event>
<event>
 5    1  0.3236337E-002  0.1249982E+03  0.7818608E-02  0.1235072E+00
          4   -1    0    0  501    0  0.00000000000E+00  0.00000000000E+00  0.22239681368E+02  0.22275913615E+02  0.12700000000E+01 0. -1.
         -4   -1    0    0    0  501 -0.00000000000E+00 -0.00000000000E+00 -0.17545664427E+03  0.17546124051E+03  0.12700000000E+01 0. -1.
         25    2    1    2    0    0  0.00000000000E+00  0.00000000000E+00 -0.15321696290E+03  0.19773715412E+03  0.12499817758E+03 0.  0.
    9000005    1    3    3    0    0  0.54875950484E+02 -0.16831798215E+02 -0.37523308323E+02  0.68583365623E+02  0.10000000000E+01 0.  0.
    9000005    1    3    3    0    0 -0.54875950484E+02  0.16831798215E+02 -0.11569365458E+03  0.12915378850E+03  0.10000000000E+01 0.  0.
<mgrwt>
<rscale>  0 0.12499818E+03</rscale>
<asrwt>0</asrwt>
<pdfrwt beam="1">  1        4 0.34246302E-02 0.12499818E+03</pdfrwt>
<pdfrwt beam="2">  1       -4 0.26996470E-01 0.12499818E+03</pdfrwt>
<totfact> 0.90521923E+03</totfact>
</mgrwt>
</event>
<event>
 5    1  0.3236337E-002  0.1249963E+03  0.7818608E-02  0.1235075E+00
         -4   -1    0    0    0  501 -0.00000000000E+00  0.00000000000E+00  0.15271299689E+03  0.15271827762E+03  0.12700000000E+01 0.  1.
          4   -1    0    0  501    0  0.00000000000E+00 -0.00000000000E+00 -0.25556008126E+02  0.25587544848E+02  0.12700000000E+01 0.  1.
         25    2    1    2    0    0  0.00000000000E+00  0.00000000000E+00  0.12715698877E+03  0.17830582247E+03  0.12499626608E+03 0.  0.
    9000005    1    3    3    0    0  0.11400743869E+02 -0.50029397142E+02  0.12700620210E+02  0.52869871315E+02  0.10000000000E+01 0.  0.
    9000005    1    3    3    0    0 -0.11400743869E+02  0.50029397142E+02  0.11445636856E+03  0.12543595116E+03  0.10000000000E+01 0.  0.
<mgrwt>
<rscale>  0 0.12499627E+03</rscale>
<asrwt>0</asrwt>
<pdfrwt beam="2">  1        4 0.39345256E-02 0.12499627E+03</pdfrwt>
<pdfrwt beam="1">  1       -4 0.23497140E-01 0.12499627E+03</pdfrwt>
<totfact> 0.93930717E+03</totfact>
</mgrwt>
</event>
<event>
 5    1  0.3236337E-002  0.1249998E+03  0.7818608E-02  0.1235070E+00
         -4   -1    0    0    0  501 -0.00000000000E+00  0.00000000000E+00  0.36086167135E+02  0.36108508118E+02  0.12700000000E+01 0.  1.
          4   -1    0    0  501    0  0.00000000000E+00 -0.00000000000E+00 -0.10818797838E+03  0.10819543228E+03  0.12700000000E+01 0.  1.
         25    2    1    2    0    0  0.00000000000E+00  0.00000000000E+00 -0.72101811243E+02  0.14430394039E+03  0.12499982412E+03 0.  0.
    9000005    1    3    3    0    0 -0.34242234332E+02 -0.31676295002E+02 -0.84058126115E+02  0.96138893499E+02  0.10000000000E+01 0.  0.
    9000005    1    3    3    0    0  0.34242234332E+02  0.31676295002E+02  0.11956314872E+02  0.48165046896E+02  0.10000000000E+01 0.  0.
<mgrwt>
<rscale>  0 0.12499982E+03</rscale>
<asrwt>0</asrwt>
<pdfrwt beam="2">  1        4 0.16646596E-01 0.12499982E+03</pdfrwt>
<pdfrwt beam="1">  1       -4 0.55540100E-02 0.12499982E+03</pdfrwt>
<totfact> 0.10045190E+04</totfact>
</mgrwt>
</event>
<event>
 5    1  0.3236337E-002  0.1250039E+03  0.7818608E-02  0.1235063E+00
          4   -1    0    0  501    0  0.00000000000E+00  0.00000000000E+00  0.27024574778E+03  0.27024873190E+03  0.12700000000E+01 0. -1.
         -4   -1    0    0    0  501 -0.00000000000E+00 -0.00000000000E+00 -0.14424372650E+02  0.14480173560E+02  0.12700000000E+01 0. -1.
         25    2    1    2    0    0  0.00000000000E+00  0.00000000000E+00  0.25582137513E+03  0.28472890546E+03  0.12500389446E+03 0.  0.
    9000005    1    3    3    0    0  0.33100638254E+02 -0.47139334581E+02  0.72690886833E+02  0.92750925311E+02  0.10000000000E+01 0.  0.
    9000005    1    3    3    0    0 -0.33100638254E+02  0.47139334581E+02  0.18313048830E+03  0.19197798015E+03  0.10000000000E+01 0.  0.
<mgrwt>
<rscale>  0 0.12500389E+03</rscale>
<asrwt>0</asrwt>
<pdfrwt beam="1">  1        4 0.41580790E-01 0.12500389E+03</pdfrwt>
<pdfrwt beam="2">  1       -4 0.22236562E-02 0.12500389E+03</pdfrwt>
<totfact> 0.77548524E+03</totfact>
</mgrwt>
</event>
<event>
 5    1  0.3236337E-002  0.1249978E+03  0.7818608E-02  0.1235073E+00
         -4   -1    0    0    0  501 -0.00000000000E+00  0.00000000000E+00  0.22743320506E+02  0.22778751670E+02  0.12700000000E+01 0. -1.
          4   -1    0    0  501    0  0.00000000000E+00 -0.00000000000E+00 -0.17157612491E+03  0.17158082509E+03  0.12700000000E+01 0. -1.
         25    2    1    2    0    0  0.00000000000E+00  0.00000000000E+00 -0.14883280440E+03  0.19435957676E+03  0.12499776563E+03 0.  0.
    9000005    1    3    3    0    0  0.45326439662E+02  0.37855587310E+01 -0.77856410227E+01  0.46156611590E+02  0.10000000000E+01 0.  0.
    9000005    1    3    3    0    0 -0.45326439662E+02 -0.37855587310E+01 -0.14104716338E+03  0.14820296517E+03  0.10000000000E+01 0.  0.
<mgrwt>
<rscale>  0 0.12499777E+03</rscale>
<asrwt>0</asrwt>
<pdfrwt beam="2">  1        4 0.26399413E-01 0.12499777E+03</pdfrwt>
<pdfrwt beam="1">  1       -4 0.35020595E-02 0.12499777E+03</pdfrwt>
<totfact> 0.91098805E+03</totfact>
</mgrwt>
</event>
<event>
 5    1  0.3236337E-002  0.1249999E+03  0.7818608E-02  0.1235069E+00
         -4   -1    0    0    0  501 -0.00000000000E+00  0.00000000000E+00  0.38684378953E+02  0.38705220255E+02  0.12700000000E+01 0.  1.
          4   -1    0    0  501    0  0.00000000000E+00 -0.00000000000E+00 -0.10092525297E+03  0.10093324322E+03  0.12700000000E+01 0.  1.
         25    2    1    2    0    0  0.00000000000E+00  0.00000000000E+00 -0.62240874021E+02  0.13963846348E+03  0.12499989634E+03 0.  0.
    9000005    1    3    3    0    0 -0.26341914904E+02 -0.42735567815E+02  0.10453692233E+02  0.51288448198E+02  0.10000000000E+01 0.  0.
    9000005    1    3    3    0    0  0.26341914904E+02  0.42735567815E+02 -0.72694566254E+02  0.88350015281E+02  0.10000000000E+01 0.  0.
<mgrwt>
<rscale>  0 0.12499990E+03</rscale>
<asrwt>0</asrwt>
<pdfrwt beam="2">  1        4 0.15529180E-01 0.12499990E+03</pdfrwt>
<pdfrwt beam="1">  1       -4 0.59536607E-02 0.12499990E+03</pdfrwt>
<totfact> 0.10141108E+04</totfact>
</mgrwt>
</event>
<event>
 5    1  0.3236337E-002  0.1249981E+03  0.7818608E-02  0.1235072E+00
         -4   -1    0    0    0  501 -0.00000000000E+00  0.00000000000E+00  0.33188031067E+02  0.33212321600E+02  0.12700000000E+01 0.  1.
          4   -1    0    0  501    0  0.00000000000E+00 -0.00000000000E+00 -0.11762620882E+03  0.11763306466E+03  0.12700000000E+01 0.  1.
         25    2    1    2    0    0  0.00000000000E+00  0.00000000000E+00 -0.84438177750E+02  0.15084538626E+03  0.12499809876E+03 0.  0.
    9000005    1    3    3    0    0  0.17042340224E+02 -0.60021446600E+01  0.29972913962E+02  0.35012036105E+02  0.10000000000E+01 0.  0.
    9000005    1    3    3    0    0 -0.17042340224E+02  0.60021446600E+01 -0.11441109171E+03  0.11583335015E+03  0.10000000000E+01 0.  0.
<mgrwt>
<rscale>  0 0.12499810E+03</rscale>
<asrwt>0</asrwt>
<pdfrwt beam="2">  1        4 0.18098735E-01 0.12499810E+03</pdfrwt>
<pdfrwt beam="1">  1       -4 0.51082469E-02 0.12499810E+03</pdfrwt>
<totfact> 0.99139691E+03</totfact>
</mgrwt>
</event>
<event>
 5    1  0.3236337E-002  0.1249993E+03  0.7818608E-02  0.1235070E+00
         -4   -1    0    0    0  501 -0.00000000000E+00  0.00000000000E+00  0.20040311593E+03  0.20040714002E+03  0.12700000000E+01 0.  1.
          4   -1    0    0  501    0  0.00000000000E+00 -0.00000000000E+00 -0.19466828999E+02  0.19508211893E+02  0.12700000000E+01 0.  1.
         25    2    1    2    0    0  0.00000000000E+00  0.00000000000E+00  0.18093628693E+03  0.21991535192E+03  0.12499928833E+03 0.  0.
    9000005    1    3    3    0    0  0.15135995222E+02  0.43862335026E+02  0.16411262081E+03  0.17054898152E+03  0.10000000000E+01 0.  0.
    9000005    1    3    3    0    0 -0.15135995222E+02 -0.43862335026E+02  0.16823666112E+02  0.49366370402E+02  0.10000000000E+01 0.  0.
<mgrwt>
<rscale>  0 0.12499929E+03</rscale>
<asrwt>0</asrwt>
<pdfrwt beam="2">  1        4 0.29983895E-02 0.12499929E+03</pdfrwt>
<pdfrwt beam="1">  1       -4 0.30834742E-01 0.12499929E+03</pdfrwt>
<totfact> 0.86883125E+03</totfact>
</mgrwt>
</event>
<event>
 5    1  0.3236337E-002  0.1250060E+03  0.7818608E-02  0.1235060E+00
          4   -1    0    0  501    0  0.00000000000E+00  0.00000000000E+00  0.32900513938E+03  0.32900759055E+03  0.12700000000E+01 0. -1.
         -4   -1    0    0    0  501 -0.00000000000E+00 -0.00000000000E+00 -0.11837587400E+02  0.11905518697E+02  0.12700000000E+01 0. -1.
         25    2    1    2    0    0  0.00000000000E+00  0.00000000000E+00  0.31716755198E+03  0.34091310925E+03  0.12500596796E+03 0.  0.
    9000005    1    3    3    0    0 -0.13527659150E+02 -0.59113117523E+02  0.11738043720E+03  0.13212314431E+03  0.10000000000E+01 0.  0.
    9000005    1    3    3    0    0  0.13527659150E+02  0.59113117523E+02  0.19978711478E+03  0.20878996493E+03  0.10000000000E+01 0.  0.
<mgrwt>
<rscale>  0 0.12500597E+03</rscale>
<asrwt>0</asrwt>
<pdfrwt beam="1">  1        4 0.50621594E-01 0.12500597E+03</pdfrwt>
<pdfrwt beam="2">  1       -4 0.18265812E-02 0.12500597E+03</pdfrwt>
<totfact> 0.70726580E+03</totfact>
</mgrwt>
</event>
<event>
 5    1  0.3236337E-002  0.1249822E+03  0.7818608E-02  0.1235097E+00
         -4   -1    0    0    0  501 -0.00000000000E+00  0.00000000000E+00  0.32274438632E+03  0.32274688504E+03  0.12700000000E+01 0.  1.
          4   -1    0    0  501    0  0.00000000000E+00 -0.00000000000E+00 -0.12063902814E+02  0.12130566809E+02  0.12700000000E+01 0.  1.
         25    2    1    2    0    0  0.00000000000E+00  0.00000000000E+00  0.31068048351E+03  0.33487745185E+03  0.12498217842E+03 0.  0.
    9000005    1    3    3    0    0 -0.27818019282E+02 -0.24137696449E+02  0.20099036790E+02  0.41969534981E+02  0.10000000000E+01 0.  0.
    9000005    1    3    3    0    0  0.27818019282E+02  0.24137696449E+02  0.29058144672E+03  0.29290791687E+03  0.10000000000E+01 0.  0.
<mgrwt>
<rscale>  0 0.12498218E+03</rscale>
<asrwt>0</asrwt>
<pdfrwt beam="2">  1        4 0.18613053E-02 0.12498218E+03</pdfrwt>
<pdfrwt beam="1">  1       -4 0.49658303E-01 0.12498218E+03</pdfrwt>
<totfact> 0.71449098E+03</totfact>
</mgrwt>
</event>
<event>
 5    1  0.3236337E-002  0.1250083E+03  0.7818608E-02  0.1235056E+00
         -4   -1    0    0    0  501 -0.00000000000E+00  0.00000000000E+00  0.17893023069E+02  0.17938037088E+02  0.12700000000E+01 0.  1.
          4   -1    0    0  501    0  0.00000000000E+00 -0.00000000000E+00 -0.21801914870E+03  0.21802284766E+03  0.12700000000E+01 0.  1.
         25    2    1    2    0    0  0.00000000000E+00  0.00000000000E+00 -0.20012612563E+03  0.23596088475E+03  0.12500829160E+03 0.  0.
    9000005    1    3    3    0    0  0.61428546113E+02 -0.53091856398E+01 -0.80803038511E+02  0.10164538731E+03  0.10000000000E+01 0.  0.
    9000005    1    3    3    0    0 -0.61428546113E+02  0.53091856398E+01 -0.11932308712E+03  0.13431549743E+03  0.10000000000E+01 0.  0.
<mgrwt>
<rscale>  0 0.12500829E+03</rscale>
<asrwt>0</asrwt>
<pdfrwt beam="2">  1        4 0.33545153E-01 0.12500829E+03</pdfrwt>
<pdfrwt beam="1">  1       -4 0.27565201E-02 0.12500829E+03</pdfrwt>
<totfact> 0.84387019E+03</totfact>
</mgrwt>
</event>
<event>
 5    1  0.3236337E-002  0.1250021E+03  0.7818608E-02  0.1235066E+00
          4   -1    0    0  501    0  0.00000000000E+00  0.00000000000E+00  0.36201048811E+03  0.36201271580E+03  0.12700000000E+01 0.  1.
         -4   -1    0    0    0  501 -0.00000000000E+00 -0.00000000000E+00 -0.10751163858E+02  0.10825914479E+02  0.12700000000E+01 0.  1.
         25    2    1    2    0    0  0.00000000000E+00  0.00000000000E+00  0.35125932425E+03  0.37283863028E+03  0.12500212540E+03 0.  0.
    9000005    1    3    3    0    0 -0.36295892435E+02  0.50205753708E+02  0.20011169626E+03  0.20948436814E+03  0.10000000000E+01 0.  0.
    9000005    1    3    3    0    0  0.36295892435E+02 -0.50205753708E+02  0.15114762799E+03  0.16335426214E+03  0.10000000000E+01 0.  0.
<mgrwt>
<rscale>  0 0.12500213E+03</rscale>
<asrwt>0</asrwt>
<pdfrwt beam="1">  1        4 0.55699837E-01 0.12500213E+03</pdfrwt>
<pdfrwt beam="2">  1       -4 0.16599468E-02 0.12500213E+03</pdfrwt>
<totfact> 0.67279846E+03</totfact>
</mgrwt>
</event>
<event>
 5    1  0.3236337E-002  0.1250010E+03  0.7818608E-02  0.1235068E+00
          4   -1    0    0  501    0  0.00000000000E+00  0.00000000000E+00  0.14899544370E+04  0.14899549782E+04  0.12700000000E+01 0. -1.
         -4   -1    0    0    0  501 -0.00000000000E+00 -0.00000000000E+00 -0.24673953445E+01  0.27750567177E+01  0.12700000000E+01 0. -1.
         25    2    1    2    0    0  0.00000000000E+00  0.00000000000E+00  0.14874870416E+04  0.14927300349E+04  0.12500103290E+03 0.  0.
    9000005    1    3    3    0    0  0.49297641011E+02  0.21423351467E+02  0.11244018072E+04  0.11256862979E+04  0.10000000000E+01 0.  0.
    9000005    1    3    3    0    0 -0.49297641011E+02 -0.21423351467E+02  0.36308523446E+03  0.36704373701E+03  0.10000000000E+01 0.  0.
<mgrwt>
<rscale>  0 0.12500103E+03</rscale>
<asrwt>0</asrwt>
<pdfrwt beam="1">  1        4 0.22924767E+00 0.12500103E+03</pdfrwt>
<pdfrwt beam="2">  1       -4 0.40330682E-03 0.12500103E+03</pdfrwt>
<totfact> 0.18073396E+03</totfact>
</mgrwt>
</event>
<event>
 5    1  0.3236337E-002  0.1249913E+03  0.7818608E-02  0.1235083E+00
         -4   -1    0    0    0  501 -0.00000000000E+00  0.00000000000E+00  0.16402457050E+02  0.16451549996E+02  0.12700000000E+01 0. -1.
          4   -1    0    0  501    0  0.00000000000E+00 -0.00000000000E+00 -0.23771050649E+03  0.23771389904E+03  0.12700000000E+01 0. -1.
         25    2    1    2    0    0  0.00000000000E+00  0.00000000000E+00 -0.22130804944E+03  0.25416544903E+03  0.12499129064E+03 0.  0.
    9000005    1    3    3    0    0  0.26276784212E+02 -0.87545410361E+01 -0.22455702250E+03  0.22626084004E+03  0.10000000000E+01 0.  0.
    9000005    1    3    3    0    0 -0.26276784212E+02  0.87545410361E+01  0.32489730667E+01  0.27904608997E+02  0.10000000000E+01 0.  0.
<mgrwt>
<rscale>  0 0.12499129E+03</rscale>
<asrwt>0</asrwt>
<pdfrwt beam="2">  1        4 0.36574882E-01 0.12499129E+03</pdfrwt>
<pdfrwt beam="1">  1       -4 0.25274924E-02 0.12499129E+03</pdfrwt>
<totfact> 0.81747749E+03</totfact>
</mgrwt>
</event>
<event>
 5    1  0.3236337E-002  0.1249991E+03  0.7818608E-02  0.1235071E+00
         -4   -1    0    0    0  501 -0.00000000000E+00  0.00000000000E+00  0.76053476756E+02  0.76064079740E+02  0.12700000000E+01 0.  1.
          4   -1    0    0  501    0  0.00000000000E+00 -0.00000000000E+00 -0.51339101153E+02  0.51354807051E+02  0.12700000000E+01 0.  1.
         25    2    1    2    0    0  0.00000000000E+00  0.00000000000E+00  0.24714375602E+02  0.12741888679E+03  0.12499908939E+03 0.  0.
    9000005    1    3    3    0    0 -0.60712222595E+02  0.31381757999E+01  0.27106955733E+02  0.66570332498E+02  0.10000000000E+01 0.  0.
    9000005    1    3    3    0    0  0.60712222595E+02 -0.31381757999E+01 -0.23925801309E+01  0.60848554292E+02  0.10000000000E+01 0.  0.
<mgrwt>
<rscale>  0 0.12499909E+03</rscale>
<asrwt>0</asrwt>
<pdfrwt beam="2">  1        4 0.79003471E-02 0.12499909E+03</pdfrwt>
<pdfrwt beam="1">  1       -4 0.11702559E-01 0.12499909E+03</pdfrwt>
<totfact> 0.10400271E+04</totfact>
</mgrwt>
</event>
<event>
 5    1  0.3236337E-002  0.1249987E+03  0.7818608E-02  0.1235071E+00
         -4   -1    0    0    0  501 -0.00000000000E+00  0.00000000000E+00  0.65648384344E+02  0.65660667580E+02  0.12700000000E+01 0.  1.
          4   -1    0    0  501    0  0.00000000000E+00 -0.00000000000E+00 -0.59476696932E+02  0.59490254478E+02  0.12700000000E+01 0.  1.
         25    2    1    2    0    0  0.00000000000E+00  0.00000000000E+00  0.61716874126E+01  0.12515092206E+03  0.12499865426E+03 0.  0.
    9000005    1    3    3    0    0  0.25979987135E+02 -0.82384602678E+01 -0.53217291678E+02  0.59798930531E+02  0.10000000000E+01 0.  0.
    9000005    1    3    3    0    0 -0.25979987135E+02  0.82384602678E+01  0.59388979091E+02  0.65351991527E+02  0.10000000000E+01 0.  0.
<mgrwt>
<rscale>  0 0.12499865E+03</rscale>
<asrwt>0</asrwt>
<pdfrwt beam="2">  1        4 0.91522488E-02 0.12499865E+03</pdfrwt>
<pdfrwt beam="1">  1       -4 0.10101739E-01 0.12499865E+03</pdfrwt>
<totfact> 0.10449903E+04</totfact>
</mgrwt>
</event>
<event>
 5    1  0.3236337E-002  0.1249991E+03  0.7818608E-02  0.1235071E+00
          4   -1    0    0  501    0  0.00000000000E+00  0.00000000000E+00  0.37801159541E+01  0.39877533307E+01  0.12700000000E+01 0. -1.
         -4   -1    0    0    0  501 -0.00000000000E+00 -0.00000000000E+00 -0.10055228404E+04  0.10055236425E+04  0.12700000000E+01 0. -1.
         25    2    1    2    0    0  0.00000000000E+00  0.00000000000E+00 -0.10017427245E+04  0.10095113958E+04  0.12499908868E+03 0.  0.
    9000005    1    3    3    0    0  0.59786222415E+02  0.12392259154E+02 -0.39335460910E+03  0.39806633741E+03  0.10000000000E+01 0.  0.
    9000005    1    3    3    0    0 -0.59786222415E+02 -0.12392259154E+02 -0.60838811538E+03  0.61144505837E+03  0.10000000000E+01 0.  0.
<mgrwt>
<rscale>  0 0.12499909E+03</rscale>
<asrwt>0</asrwt>
<pdfrwt beam="1">  1        4 0.59759090E-03 0.12499909E+03</pdfrwt>
<pdfrwt beam="2">  1       -4 0.15471165E+00 0.12499909E+03</pdfrwt>
<totfact> 0.30293123E+03</totfact>
</mgrwt>
</event>
<event>
 5    1  0.3236337E-002  0.1250003E+03  0.7818608E-02  0.1235069E+00
         -4   -1    0    0    0  501 -0.00000000000E+00  0.00000000000E+00  0.50257205726E+02  0.50273249621E+02  0.12700000000E+01 0. -1.
          4   -1    0    0  501    0  0.00000000000E+00 -0.00000000000E+00 -0.77691913052E+02  0.77702292461E+02  0.12700000000E+01 0. -1.
         25    2    1    2    0    0  0.00000000000E+00  0.00000000000E+00 -0.27434707326E+02  0.12797554208E+03  0.12500030482E+03 0.  0.
    9000005    1    3    3    0    0 -0.52250522545E+02 -0.33711593747E+02 -0.20084742033E+02  0.65352777459E+02  0.10000000000E+01 0.  0.
    9000005    1    3    3    0    0  0.52250522545E+02  0.33711593747E+02 -0.73499652932E+01  0.62622764622E+02  0.10000000000E+01 0.  0.
<mgrwt>
<rscale>  0 0.12500030E+03</rscale>
<asrwt>0</asrwt>
<pdfrwt beam="2">  1        4 0.11954635E-01 0.12500030E+03</pdfrwt>
<pdfrwt beam="1">  1       -4 0.77339103E-02 0.12500030E+03</pdfrwt>
<totfact> 0.10387944E+04</totfact>
</mgrwt>
</event>
<event>
 5    1  0.3236337E-002  0.1250010E+03  0.7818608E-02  0.1235068E+00
         -4   -1    0    0    0  501 -0.00000000000E+00  0.00000000000E+00  0.17486904569E+03  0.17487365737E+03  0.12700000000E+01 0.  1.
          4   -1    0    0  501    0  0.00000000000E+00 -0.00000000000E+00 -0.22315556739E+02  0.22351665991E+02  0.12700000000E+01 0.  1.
         25    2    1    2    0    0  0.00000000000E+00  0.00000000000E+00  0.15255348896E+03  0.19722532336E+03  0.12500104472E+03 0.  0.
    9000005    1    3    3    0    0  0.56321599806E+02 -0.25210741029E+02  0.91865050441E+02  0.11067019274E+03  0.10000000000E+01 0.  0.
    9000005    1    3    3    0    0 -0.56321599806E+02  0.25210741029E+02  0.60688438515E+02  0.86555130624E+02  0.10000000000E+01 0.  0.
<mgrwt>
<rscale>  0 0.12500104E+03</rscale>
<asrwt>0</asrwt>
<pdfrwt beam="2">  1        4 0.34362950E-02 0.12500104E+03</pdfrwt>
<pdfrwt beam="1">  1       -4 0.26906062E-01 0.12500104E+03</pdfrwt>
<totfact> 0.90602989E+03</totfact>
</mgrwt>
</event>
<event>
 5    1  0.3236337E-002  0.1250023E+03  0.7818608E-02  0.1235066E+00
          4   -1    0    0  501    0  0.00000000000E+00  0.00000000000E+00  0.29669501066E+01  0.32273352685E+01  0.12700000000E+01 0.  1.
         -4   -1    0    0    0  501 -0.00000000000E+00 -0.00000000000E+00 -0.12610286529E+04  0.12610292924E+04  0.12700000000E+01 0.  1.
         25    2    1    2    0    0  0.00000000000E+00  0.00000000000E+00 -0.12580617028E+04  0.12642566277E+04  0.12500229043E+03 0.  0.
    9000005    1    3    3    0    0 -0.50633343087E+02  0.33211065361E+02 -0.47277802439E+03  0.47664113402E+03  0.10000000000E+01 0.  0.
    9000005    1    3    3    0    0  0.50633343087E+02 -0.33211065361E+02 -0.78528367842E+03  0.78761549368E+03  0.10000000000E+01 0.  0.
<mgrwt>
<rscale>  0 0.12500229E+03</rscale>
<asrwt>0</asrwt>
<pdfrwt beam="1">  1        4 0.47653369E-03 0.12500229E+03</pdfrwt>
<pdfrwt beam="2">  1       -4 0.19402408E+00 0.12500229E+03</pdfrwt>
<totfact> 0.23087066E+03</totfact>
</mgrwt>
</event>
<event>
 5    1  0.3236337E-002  0.1249971E+03  0.7818608E-02  0.1235074E+00
          4   -1    0    0  501    0  0.00000000000E+00  0.00000000000E+00  0.13450811588E+03  0.13451411130E+03  0.12700000000E+01 0.  1.
         -4   -1    0    0    0  501 -0.00000000000E+00 -0.00000000000E+00 -0.29019124190E+02  0.29046901190E+02  0.12700000000E+01 0.  1.
         25    2    1    2    0    0  0.00000000000E+00  0.00000000000E+00  0.10548899169E+03  0.16356101249E+03  0.12499710972E+03 0.  0.
    9000005    1    3    3    0    0 -0.52593064867E+02 -0.14418510675E+00  0.96906129592E+02  0.11026263743E+03  0.10000000000E+01 0.  0.
    9000005    1    3    3    0    0  0.52593064867E+02  0.14418510675E+00  0.85828620991E+01  0.53298375053E+02  0.10000000000E+01 0.  0.
<mgrwt>
<rscale>  0 0.12499711E+03</rscale>
<asrwt>0</asrwt>
<pdfrwt beam="1">  1        4 0.20696154E-01 0.12499711E+03</pdfrwt>
<pdfrwt beam="2">  1       -4 0.44670786E-02 0.12499711E+03</pdfrwt>
<totfact> 0.96666887E+03</totfact>
</mgrwt>
</event>
<event>
 4    1  0.3236337E-002  0.1249285E+03  0.7818608E-02  0.1235181E+00
         -4   -1    0    0    0  501 -0.00000000000E+00  0.00000000000E+00  0.21117238568E+02  0.21155393278E+02  0.12700000000E+01 0.  1.
          4   -1    0    0  501    0  0.00000000000E+00 -0.00000000000E+00 -0.18456040882E+03  0.18456477834E+03  0.12700000000E+01 0.  1.
    9000005    1    1    2    0    0  0.29135217846E+02 -0.33418193059E+02 -0.15416052121E+03  0.16041229019E+03  0.10000000000E+01 0.  0.
    9000005    1    1    2    0    0 -0.29135217846E+02  0.33418193059E+02 -0.92826490490E+01  0.45307881429E+02  0.10000000000E+01 0.  0.
<mgrwt>
<rscale>  0 0.12492846E+03</rscale>
<asrwt>0</asrwt>
<pdfrwt beam="2">  1        4 0.28397179E-01 0.12492846E+03</pdfrwt>
<pdfrwt beam="1">  1       -4 0.32520771E-02 0.12492846E+03</pdfrwt>
<totfact> 0.89322486E+03</totfact>
</mgrwt>
</event>
<event>
 5    1  0.3236337E-002  0.1249940E+03  0.7818608E-02  0.1235079E+00
          4   -1    0    0  501    0  0.00000000000E+00  0.00000000000E+00  0.14158422128E+01  0.19019750712E+01  0.12700000000E+01 0. -1.
         -4   -1    0    0    0  501 -0.00000000000E+00 -0.00000000000E+00 -0.23539993536E+04  0.23539996962E+04  0.12700000000E+01 0. -1.
         25    2    1    2    0    0  0.00000000000E+00  0.00000000000E+00 -0.23525835114E+04  0.23559016713E+04  0.12499402621E+03 0.  0.
    9000005    1    3    3    0    0 -0.50263624022E+02 -0.30620398779E+02 -0.15720285148E+04  0.15731302209E+04  0.10000000000E+01 0.  0.
    9000005    1    3    3    0    0  0.50263624022E+02  0.30620398779E+02 -0.78055499663E+03  0.78277145035E+03  0.10000000000E+01 0.  0.
<mgrwt>
<rscale>  0 0.12499403E+03</rscale>
<asrwt>0</asrwt>
<pdfrwt beam="1">  1        4 0.25524495E-03 0.12499403E+03</pdfrwt>
<pdfrwt beam="2">  1       -4 0.36218849E+00 0.12499403E+03</pdfrwt>
<totfact> 0.59032562E+02</totfact>
</mgrwt>
</event>
<event>
 5    1  0.3236337E-002  0.1250009E+03  0.7818608E-02  0.1235068E+00
         -4   -1    0    0    0  501 -0.00000000000E+00  0.00000000000E+00  0.13393385841E+02  0.13453463654E+02  0.12700000000E+01 0. -1.
          4   -1    0    0  501    0  0.00000000000E+00 -0.00000000000E+00 -0.29094516820E+03  0.29094794002E+03  0.12700000000E+01 0. -1.
         25    2    1    2    0    0  0.00000000000E+00  0.00000000000E+00 -0.27755178236E+03  0.30440140367E+03  0.12500089066E+03 0.  0.
    9000005    1    3    3    0    0  0.28871926372E+02  0.53919051823E+02 -0.17000466635E+03  0.18067495361E+03  0.10000000000E+01 0.  0.
    9000005    1    3    3    0    0 -0.28871926372E+02 -0.53919051823E+02 -0.10754711601E+03  0.12372645006E+03  0.10000000000E+01 0.  0.
<mgrwt>
<rscale>  0 0.12500089E+03</rscale>
<asrwt>0</asrwt>
<pdfrwt beam="2">  1        4 0.44765625E-01 0.12500089E+03</pdfrwt>
<pdfrwt beam="1">  1       -4 0.20653557E-02 0.12500089E+03</pdfrwt>
<totfact> 0.75048549E+03</totfact>
</mgrwt>
</event>
<event>
 5    1  0.3236337E-002  0.1250001E+03  0.7818608E-02  0.1235069E+00
          4   -1    0    0  501    0  0.00000000000E+00  0.00000000000E+00  0.23798134437E+03  0.23798473305E+03  0.12700000000E+01 0. -1.
         -4   -1    0    0    0  501 -0.00000000000E+00 -0.00000000000E+00 -0.16386059026E+02  0.16435200954E+02  0.12700000000E+01 0. -1.
         25    2    1    2    0    0  0.00000000000E+00  0.00000000000E+00  0.22159528534E+03  0.25441993401E+03  0.12500012934E+03 0.  0.
    9000005    1    3    3    0    0  0.44912180953E+01 -0.41349865303E+02  0.20572640656E+03  0.20989124983E+03  0.10000000000E+01 0.  0.
    9000005    1    3    3    0    0 -0.44912180953E+01  0.41349865303E+02  0.15868878782E+02  0.44528684175E+02  0.10000000000E+01 0.  0.
<mgrwt>
<rscale>  0 0.12500013E+03</rscale>
<asrwt>0</asrwt>
<pdfrwt beam="1">  1        4 0.36616555E-01 0.12500013E+03</pdfrwt>
<pdfrwt beam="2">  1       -4 0.25249730E-02 0.12500013E+03</pdfrwt>
<totfact> 0.81695341E+03</totfact>
</mgrwt>
</event>
<event>
 5    1  0.3236337E-002  0.1250028E+03  0.7818608E-02  0.1235065E+00
          4   -1    0    0  501    0  0.00000000000E+00  0.00000000000E+00  0.32850389746E+03  0.32850635237E+03  0.12700000000E+01 0. -1.
         -4   -1    0    0    0  501 -0.00000000000E+00 -0.00000000000E+00 -0.11855142743E+02  0.11922974019E+02  0.12700000000E+01 0. -1.
         25    2    1    2    0    0  0.00000000000E+00  0.00000000000E+00  0.31664875472E+03  0.34042932639E+03  0.12500276957E+03 0.  0.
    9000005    1    3    3    0    0  0.22413178732E+02  0.21805806352E+02  0.30567828798E+03  0.30727521787E+03  0.10000000000E+01 0.  0.
    9000005    1    3    3    0    0 -0.22413178732E+02 -0.21805806352E+02  0.10970466738E+02  0.33154108523E+02  0.10000000000E+01 0.  0.
<mgrwt>
<rscale>  0 0.12500277E+03</rscale>
<asrwt>0</asrwt>
<pdfrwt beam="1">  1        4 0.50544463E-01 0.12500277E+03</pdfrwt>
<pdfrwt beam="2">  1       -4 0.18292749E-02 0.12500277E+03</pdfrwt>
<totfact> 0.70786101E+03</totfact>
</mgrwt>
</event>
<event>
 5    1  0.3236337E-002  0.1250025E+03  0.7818608E-02  0.1235065E+00
          4   -1    0    0  501    0  0.00000000000E+00  0.00000000000E+00  0.15307229721E+04  0.15307234989E+04  0.12700000000E+01 0. -1.
         -4   -1    0    0    0  501 -0.00000000000E+00 -0.00000000000E+00 -0.23934365574E+01  0.27095089139E+01  0.12700000000E+01 0. -1.
         25    2    1    2    0    0  0.00000000000E+00  0.00000000000E+00  0.15283295355E+04  0.15334330078E+04  0.12500248146E+03 0.  0.
    9000005    1    3    3    0    0  0.34660929603E+02 -0.50418698084E+02  0.60803821034E+03  0.61110955678E+03  0.10000000000E+01 0.  0.
    9000005    1    3    3    0    0 -0.34660929603E+02  0.50418698084E+02  0.92029132519E+03  0.92232345106E+03  0.10000000000E+01 0.  0.
<mgrwt>
<rscale>  0 0.12500248E+03</rscale>
<asrwt>0</asrwt>
<pdfrwt beam="1">  1        4 0.23552001E+00 0.12500248E+03</pdfrwt>
<pdfrwt beam="2">  1       -4 0.39257510E-03 0.12500248E+03</pdfrwt>
<totfact> 0.17281566E+03</totfact>
</mgrwt>
</event>
<event>
 5    1  0.3236337E-002  0.1249822E+03  0.7818608E-02  0.1235097E+00
         -4   -1    0    0    0  501 -0.00000000000E+00  0.00000000000E+00  0.95055859483E+01  0.95900502720E+01  0.12700000000E+01 0.  1.
          4   -1    0    0  501    0  0.00000000000E+00 -0.00000000000E+00 -0.40892273063E+03  0.40892470276E+03  0.12700000000E+01 0.  1.
         25    2    1    2    0    0  0.00000000000E+00  0.00000000000E+00 -0.39941714468E+03  0.41851475303E+03  0.12498217088E+03 0.  0.
    9000005    1    3    3    0    0  0.32786081634E+02  0.41621088730E+02 -0.31061199669E+03  0.31510007088E+03  0.10000000000E+01 0.  0.
    9000005    1    3    3    0    0 -0.32786081634E+02 -0.41621088730E+02 -0.88805147991E+02  0.10341468216E+03  0.10000000000E+01 0.  0.
<mgrwt>
<rscale>  0 0.12498217E+03</rscale>
<asrwt>0</asrwt>
<pdfrwt beam="2">  1        4 0.62917825E-01 0.12498217E+03</pdfrwt>
<pdfrwt beam="1">  1       -4 0.14690471E-02 0.12498217E+03</pdfrwt>
<totfact> 0.62815746E+03</totfact>
</mgrwt>
</event>
<event>
 5    1  0.3236337E-002  0.1250026E+03  0.7818608E-02  0.1235065E+00
         -4   -1    0    0    0  501 -0.00000000000E+00  0.00000000000E+00  0.68606751187E+02  0.68618504855E+02  0.12700000000E+01 0.  1.
          4   -1    0    0  501    0  0.00000000000E+00 -0.00000000000E+00 -0.56915466650E+02  0.56929634145E+02  0.12700000000E+01 0.  1.
         25    2    1    2    0    0  0.00000000000E+00  0.00000000000E+00  0.11691284538E+02  0.12554813900E+03  0.12500259626E+03 0.  0.
    9000005    1    3    3    0    0  0.13641142236E+02 -0.52662832513E+02  0.36736294394E+02  0.65650666528E+02  0.10000000000E+01 0.  0.
    9000005    1    3    3    0    0 -0.13641142236E+02  0.52662832513E+02 -0.25045009856E+02  0.59897472472E+02  0.10000000000E+01 0.  0.
<mgrwt>
<rscale>  0 0.12500260E+03</rscale>
<asrwt>0</asrwt>
<pdfrwt beam="2">  1        4 0.87582195E-02 0.12500260E+03</pdfrwt>
<pdfrwt beam="1">  1       -4 0.10556879E-01 0.12500260E+03</pdfrwt>
<totfact> 0.10440280E+04</totfact>
</mgrwt>
</event>
<event>
 5    1  0.3236337E-002  0.1250017E+03  0.7818608E-02  0.1235067E+00
         -4   -1    0    0    0  501 -0.00000000000E+00  0.00000000000E+00  0.10354752175E+02  0.10432343582E+02  0.12700000000E+01 0.  1.
          4   -1    0    0  501    0  0.00000000000E+00 -0.00000000000E+00 -0.37576579967E+03  0.37576794581E+03  0.12700000000E+01 0.  1.
         25    2    1    2    0    0  0.00000000000E+00  0.00000000000E+00 -0.36541104749E+03  0.38620028939E+03  0.12500171958E+03 0.  0.
    9000005    1    3    3    0    0 -0.10362863856E+02 -0.15569983226E+02  0.15199344364E+01  0.18791581245E+02  0.10000000000E+01 0.  0.
    9000005    1    3    3    0    0  0.10362863856E+02  0.15569983226E+02 -0.36693098193E+03  0.36740870815E+03  0.10000000000E+01 0.  0.
<mgrwt>
<rscale>  0 0.12500172E+03</rscale>
<asrwt>0</asrwt>
<pdfrwt beam="2">  1        4 0.57816246E-01 0.12500172E+03</pdfrwt>
<pdfrwt beam="1">  1       -4 0.15991727E-02 0.12500172E+03</pdfrwt>
<totfact> 0.65914933E+03</totfact>
</mgrwt>
</event>
<event>
 5    1  0.3236337E-002  0.1250075E+03  0.7818608E-02  0.1235058E+00
          4   -1    0    0  501    0  0.00000000000E+00  0.00000000000E+00  0.87882495090E+02  0.87891671069E+02  0.12700000000E+01 0.  1.
         -4   -1    0    0    0  501 -0.00000000000E+00 -0.00000000000E+00 -0.44433304351E+02  0.44451450320E+02  0.12700000000E+01 0.  1.
         25    2    1    2    0    0  0.00000000000E+00  0.00000000000E+00  0.43449190739E+02  0.13234312139E+03  0.12500747819E+03 0.  0.
    9000005    1    3    3    0    0  0.12609247001E+02  0.32822883075E+02 -0.32973322534E+02  0.48213844093E+02  0.10000000000E+01 0.  0.
    9000005    1    3    3    0    0 -0.12609247001E+02 -0.32822883075E+02  0.76422513273E+02  0.84129277295E+02  0.10000000000E+01 0.  0.
<mgrwt>
<rscale>  0 0.12500748E+03</rscale>
<asrwt>0</asrwt>
<pdfrwt beam="1">  1        4 0.13522485E-01 0.12500748E+03</pdfrwt>
<pdfrwt beam="2">  1       -4 0.68379948E-02 0.12500748E+03</pdfrwt>
<totfact> 0.10292644E+04</totfact>
</mgrwt>
</event>
<event>
 5    1  0.3236337E-002  0.1250018E+03  0.7818608E-02  0.1235066E+00
         -4   -1    0    0    0  501 -0.00000000000E+00  0.00000000000E+00  0.56307937220E+02  0.56322257537E+02  0.12700000000E+01 0. -1.
          4   -1    0    0  501    0  0.00000000000E+00 -0.00000000000E+00 -0.69346054557E+02  0.69357682939E+02  0.12700000000E+01 0. -1.
         25    2    1    2    0    0  0.00000000000E+00  0.00000000000E+00 -0.13038117337E+02  0.12567994048E+03  0.12500181972E+03 0.  0.
    9000005    1    3    3    0    0 -0.99095928602E+01 -0.14939347391E+02  0.53672057335E+02  0.56595705400E+02  0.10000000000E+01 0.  0.
    9000005    1    3    3    0    0  0.99095928602E+01  0.14939347391E+02 -0.66710174672E+02  0.69084235075E+02  0.10000000000E+01 0.  0.
<mgrwt>
<rscale>  0 0.12500182E+03</rscale>
<asrwt>0</asrwt>
<pdfrwt beam="2">  1        4 0.10670620E-01 0.12500182E+03</pdfrwt>
<pdfrwt beam="1">  1       -4 0.86647556E-02 0.12500182E+03</pdfrwt>
<totfact> 0.10437557E+04</totfact>
</mgrwt>
</event>
<event>
 5    1  0.3236337E-002  0.1250012E+03  0.7818608E-02  0.1235067E+00
          4   -1    0    0  501    0  0.00000000000E+00  0.00000000000E+00  0.75781939838E+02  0.75792580809E+02  0.12700000000E+01 0. -1.
         -4   -1    0    0    0  501 -0.00000000000E+00 -0.00000000000E+00 -0.51524850557E+02  0.51540499851E+02  0.12700000000E+01 0. -1.
         25    2    1    2    0    0  0.00000000000E+00  0.00000000000E+00  0.24257089282E+02  0.12733308066E+03  0.12500122819E+03 0.  0.
    9000005    1    3    3    0    0 -0.14379477428E+02 -0.51716852527E+02 -0.20467202902E+02  0.57457015246E+02  0.10000000000E+01 0.  0.
    9000005    1    3    3    0    0  0.14379477428E+02  0.51716852527E+02  0.44724292183E+02  0.69876065414E+02  0.10000000000E+01 0.  0.
<mgrwt>
<rscale>  0 0.12500123E+03</rscale>
<asrwt>0</asrwt>
<pdfrwt beam="1">  1        4 0.11660782E-01 0.12500123E+03</pdfrwt>
<pdfrwt beam="2">  1       -4 0.79289225E-02 0.12500123E+03</pdfrwt>
<totfact> 0.10401629E+04</totfact>
</mgrwt>
</event>
<event>
 5    1  0.3236337E-002  0.1249931E+03  0.7818608E-02  0.1235080E+00
          4   -1    0    0  501    0  0.00000000000E+00  0.00000000000E+00  0.61715282347E+02  0.61728348230E+02  0.12700000000E+01 0.  1.
         -4   -1    0    0    0  501 -0.00000000000E+00 -0.00000000000E+00 -0.63261518872E+02  0.63274265464E+02  0.12700000000E+01 0.  1.
         25    2    1    2    0    0  0.00000000000E+00  0.00000000000E+00 -0.15462365253E+01  0.12500261369E+03  0.12499305014E+03 0.  0.
    9000005    1    3    3    0    0  0.57015551163E+02  0.18030334866E+02 -0.18911473631E+02  0.62725671656E+02  0.10000000000E+01 0.  0.
    9000005    1    3    3    0    0 -0.57015551163E+02 -0.18030334866E+02  0.17365237105E+02  0.62276942038E+02  0.10000000000E+01 0.  0.
<mgrwt>
<rscale>  0 0.12499305E+03</rscale>
<asrwt>0</asrwt>
<pdfrwt beam="1">  1        4 0.94966444E-02 0.12499305E+03</pdfrwt>
<pdfrwt beam="2">  1       -4 0.97345269E-02 0.12499305E+03</pdfrwt>
<totfact> 0.10454448E+04</totfact>
</mgrwt>
</event>
<event>
 5    1  0.3236337E-002  0.1250002E+03  0.7818608E-02  0.1235069E+00
          4   -1    0    0  501    0  0.00000000000E+00  0.00000000000E+00  0.62732533421E+01  0.64005161897E+01  0.12700000000E+01 0.  1.
         -4   -1    0    0    0  501 -0.00000000000E+00 -0.00000000000E+00 -0.61630448733E+03  0.61630579585E+03  0.12700000000E+01 0.  1.
         25    2    1    2    0    0  0.00000000000E+00  0.00000000000E+00 -0.61003123398E+03  0.62270631204E+03  0.12500017847E+03 0.  0.
    9000005    1    3    3    0    0  0.23000740124E+02  0.12490798154E+02 -0.22322955638E+02  0.34414654338E+02  0.10000000000E+01 0.  0.
    9000005    1    3    3    0    0 -0.23000740124E+02 -0.12490798154E+02 -0.58770827835E+03  0.58829165770E+03  0.10000000000E+01 0.  0.
<mgrwt>
<rscale>  0 0.12500018E+03</rscale>
<asrwt>0</asrwt>
<pdfrwt beam="1">  1        4 0.97500649E-03 0.12500018E+03</pdfrwt>
<pdfrwt beam="2">  1       -4 0.94825918E-01 0.12500018E+03</pdfrwt>
<totfact> 0.47464822E+03</totfact>
</mgrwt>
</event>
<event>
 5    1  0.3236337E-002  0.1249992E+03  0.7818608E-02  0.1235071E+00
          4   -1    0    0  501    0  0.00000000000E+00  0.00000000000E+00  0.10557184203E+03  0.10557948063E+03  0.12700000000E+01 0.  1.
         -4   -1    0    0    0  501 -0.00000000000E+00 -0.00000000000E+00 -0.36980517349E+02  0.37002318352E+02  0.12700000000E+01 0.  1.
         25    2    1    2    0    0  0.00000000000E+00  0.00000000000E+00  0.68591324685E+02  0.14258179898E+03  0.12499919832E+03 0.  0.
    9000005    1    3    3    0    0 -0.51061263911E+02 -0.15939020602E+02 -0.25583891901E+01  0.53561650509E+02  0.10000000000E+01 0.  0.
    9000005    1    3    3    0    0  0.51061263911E+02  0.15939020602E+02  0.71149713875E+02  0.89020148475E+02  0.10000000000E+01 0.  0.
<mgrwt>
<rscale>  0 0.12499920E+03</rscale>
<asrwt>0</asrwt>
<pdfrwt beam="1">  1        4 0.16244087E-01 0.12499920E+03</pdfrwt>
<pdfrwt beam="2">  1       -4 0.56915749E-02 0.12499920E+03</pdfrwt>
<totfact> 0.10080536E+04</totfact>
</mgrwt>
</event>
<event>
 5    1  0.3236337E-002  0.1249998E+03  0.7818608E-02  0.1235070E+00
          4   -1    0    0  501    0  0.00000000000E+00  0.00000000000E+00  0.26181911616E+02  0.26212695319E+02  0.12700000000E+01 0. -1.
         -4   -1    0    0    0  501 -0.00000000000E+00 -0.00000000000E+00 -0.14907498066E+03  0.14908039026E+03  0.12700000000E+01 0. -1.
         25    2    1    2    0    0  0.00000000000E+00  0.00000000000E+00 -0.12289306904E+03  0.17529308557E+03  0.12499983773E+03 0.  0.
    9000005    1    3    3    0    0  0.47413756351E+02 -0.39163491248E+02 -0.45868710550E+02  0.76725367028E+02  0.10000000000E+01 0.  0.
    9000005    1    3    3    0    0 -0.47413756351E+02  0.39163491248E+02 -0.77024358494E+02  0.98567718546E+02  0.10000000000E+01 0.  0.
<mgrwt>
<rscale>  0 0.12499984E+03</rscale>
<asrwt>0</asrwt>
<pdfrwt beam="1">  1        4 0.40307706E-02 0.12499984E+03</pdfrwt>
<pdfrwt beam="2">  1       -4 0.22937396E-01 0.12499984E+03</pdfrwt>
<totfact> 0.94471534E+03</totfact>
</mgrwt>
</event>
<event>
 5    1  0.3236337E-002  0.1250042E+03  0.7818608E-02  0.1235063E+00
          4   -1    0    0  501    0  0.00000000000E+00  0.00000000000E+00  0.29059176280E+03  0.29059453799E+03  0.12700000000E+01 0. -1.
         -4   -1    0    0    0  501 -0.00000000000E+00 -0.00000000000E+00 -0.13410457601E+02  0.13470459275E+02  0.12700000000E+01 0. -1.
         25    2    1    2    0    0  0.00000000000E+00  0.00000000000E+00  0.27718130520E+03  0.30406499726E+03  0.12500418636E+03 0.  0.
    9000005    1    3    3    0    0 -0.23204323487E+02 -0.19029229231E+02  0.27193087638E+03  0.27358354067E+03  0.10000000000E+01 0.  0.
    9000005    1    3    3    0    0  0.23204323487E+02  0.19029229231E+02  0.52504288212E+01  0.30481456599E+02  0.10000000000E+01 0.  0.
<mgrwt>
<rscale>  0 0.12500419E+03</rscale>
<asrwt>0</asrwt>
<pdfrwt beam="1">  1        4 0.44711258E-01 0.12500419E+03</pdfrwt>
<pdfrwt beam="2">  1       -4 0.20679761E-02 0.12500419E+03</pdfrwt>
<totfact> 0.75084765E+03</totfact>
</mgrwt>
</event>
<event>
 5    1  0.3236337E-002  0.1250001E+03  0.7818608E-02  0.1235069E+00
         -4   -1    0    0    0  501 -0.00000000000E+00  0.00000000000E+00  0.27406454198E+03  0.27406748452E+03  0.12700000000E+01 0.  1.
          4   -1    0    0  501    0  0.00000000000E+00 -0.00000000000E+00 -0.14221733801E+02  0.14278326664E+02  0.12700000000E+01 0.  1.
         25    2    1    2    0    0  0.00000000000E+00  0.00000000000E+00  0.25984280818E+03  0.28834581119E+03  0.12500008746E+03 0.  0.
    9000005    1    3    3    0    0  0.30464136690E+01 -0.62278043638E+02  0.12029356587E+03  0.13549677983E+03  0.10000000000E+01 0.  0.
    9000005    1    3    3    0    0 -0.30464136690E+01  0.62278043638E+02  0.13954924231E+03  0.15284903136E+03  0.10000000000E+01 0.  0.
<mgrwt>
<rscale>  0 0.12500009E+03</rscale>
<asrwt>0</asrwt>
<pdfrwt beam="2">  1        4 0.21925388E-02 0.12500009E+03</pdfrwt>
<pdfrwt beam="1">  1       -4 0.42168353E-01 0.12500009E+03</pdfrwt>
<totfact> 0.77084217E+03</totfact>
</mgrwt>
</event>
<event>
 5    1  0.3236337E-002  0.1250002E+03  0.7818608E-02  0.1235069E+00
          4   -1    0    0  501    0  0.00000000000E+00  0.00000000000E+00  0.51580764728E+03  0.51580921075E+03  0.12700000000E+01 0. -1.
         -4   -1    0    0    0  501 -0.00000000000E+00 -0.00000000000E+00 -0.75182728683E+01  0.76247837295E+01  0.12700000000E+01 0. -1.
         25    2    1    2    0    0  0.00000000000E+00  0.00000000000E+00  0.50828937442E+03  0.52343399448E+03  0.12500023374E+03 0.  0.
    9000005    1    3    3    0    0 -0.44150191973E+02 -0.43626394842E+02  0.28456160069E+03  0.29125385211E+03  0.10000000000E+01 0.  0.
    9000005    1    3    3    0    0  0.44150191973E+02  0.43626394842E+02  0.22372777372E+03  0.23218014237E+03  0.10000000000E+01 0.  0.
<mgrwt>
<rscale>  0 0.12500023E+03</rscale>
<asrwt>0</asrwt>
<pdfrwt beam="1">  1        4 0.79363341E-01 0.12500023E+03</pdfrwt>
<pdfrwt beam="2">  1       -4 0.11649707E-02 0.12500023E+03</pdfrwt>
<totfact> 0.54090658E+03</totfact>
</mgrwt>
</event>
<event>
 5    1  0.3236337E-002  0.1249974E+03  0.7818608E-02  0.1235073E+00
         -4   -1    0    0    0  501 -0.00000000000E+00  0.00000000000E+00  0.94135666439E+02  0.94144232941E+02  0.12700000000E+01 0. -1.
          4   -1    0    0  501    0  0.00000000000E+00 -0.00000000000E+00 -0.41474041436E+02  0.41493481573E+02  0.12700000000E+01 0. -1.
         25    2    1    2    0    0  0.00000000000E+00  0.00000000000E+00  0.52661625004E+02  0.13563771451E+03  0.12499737137E+03 0.  0.
    9000005    1    3    3    0    0  0.25686624987E+02  0.56957329825E+02  0.25169380166E+02  0.67367928735E+02  0.10000000000E+01 0.  0.
    9000005    1    3    3    0    0 -0.25686624987E+02 -0.56957329825E+02  0.27492244837E+02  0.68269785779E+02  0.10000000000E+01 0.  0.
<mgrwt>
<rscale>  0 0.12499737E+03</rscale>
<asrwt>0</asrwt>
<pdfrwt beam="2">  1        4 0.63827762E-02 0.12499737E+03</pdfrwt>
<pdfrwt beam="1">  1       -4 0.14484564E-01 0.12499737E+03</pdfrwt>
<totfact> 0.10225253E+04</totfact>
</mgrwt>
</event>
<event>
 5    1  0.3236337E-002  0.1250004E+03  0.7818608E-02  0.1235069E+00
         -4   -1    0    0    0  501 -0.00000000000E+00  0.00000000000E+00  0.10247112377E+03  0.10247899349E+03  0.12700000000E+01 0. -1.
          4   -1    0    0  501    0  0.00000000000E+00 -0.00000000000E+00 -0.38100812950E+02  0.38121973289E+02  0.12700000000E+01 0. -1.
         25    2    1    2    0    0  0.00000000000E+00  0.00000000000E+00  0.64370310816E+02  0.14060096677E+03  0.12500037977E+03 0.  0.
    9000005    1    3    3    0    0 -0.11138172778E+02 -0.81908451368E-01 -0.36980781817E+02  0.38634748939E+02  0.10000000000E+01 0.  0.
    9000005    1    3    3    0    0  0.11138172778E+02  0.81908451368E-01  0.10135109263E+03  0.10196621784E+03  0.10000000000E+01 0.  0.
<mgrwt>
<rscale>  0 0.12500038E+03</rscale>
<asrwt>0</asrwt>
<pdfrwt beam="2">  1        4 0.58638967E-02 0.12500038E+03</pdfrwt>
<pdfrwt beam="1">  1       -4 0.15767021E-01 0.12500038E+03</pdfrwt>
<totfact> 0.10121059E+04</totfact>
</mgrwt>
</event>
<event>
 5    1  0.3236337E-002  0.1249997E+03  0.7818608E-02  0.1235070E+00
         -4   -1    0    0    0  501 -0.00000000000E+00  0.00000000000E+00  0.81875692055E+01  0.82854806436E+01  0.12700000000E+01 0.  1.
          4   -1    0    0  501    0  0.00000000000E+00 -0.00000000000E+00 -0.47415827176E+03  0.47415997256E+03  0.12700000000E+01 0.  1.
         25    2    1    2    0    0  0.00000000000E+00  0.00000000000E+00 -0.46597070255E+03  0.48244545320E+03  0.12499967871E+03 0.  0.
    9000005    1    3    3    0    0  0.55234591087E+02  0.28565171719E+02 -0.25690251274E+03  0.26432315476E+03  0.10000000000E+01 0.  0.
    9000005    1    3    3    0    0 -0.55234591087E+02 -0.28565171719E+02 -0.20906818981E+03  0.21812229844E+03  0.10000000000E+01 0.  0.
<mgrwt>
<rscale>  0 0.12499968E+03</rscale>
<asrwt>0</asrwt>
<pdfrwt beam="2">  1        4 0.72955067E-01 0.12499968E+03</pdfrwt>
<pdfrwt beam="1">  1       -4 0.12672889E-02 0.12499968E+03</pdfrwt>
<totfact> 0.57252994E+03</totfact>
</mgrwt>
</event>
<event>
 5    1  0.3236337E-002  0.1250019E+03  0.7818608E-02  0.1235066E+00
         -4   -1    0    0    0  501 -0.00000000000E+00  0.00000000000E+00  0.38886926666E+03  0.38887134048E+03  0.12700000000E+01 0. -1.
          4   -1    0    0  501    0  0.00000000000E+00 -0.00000000000E+00 -0.10003198713E+02  0.10083495648E+02  0.12700000000E+01 0. -1.
         25    2    1    2    0    0  0.00000000000E+00  0.00000000000E+00  0.37886606794E+03  0.39895483613E+03  0.12500185532E+03 0.  0.
    9000005    1    3    3    0    0  0.61879084148E+02 -0.84822044679E-02  0.16154633584E+03  0.17299491249E+03  0.10000000000E+01 0.  0.
    9000005    1    3    3    0    0 -0.61879084148E+02  0.84822044679E-02  0.21731973211E+03  0.22595992364E+03  0.10000000000E+01 0.  0.
<mgrwt>
<rscale>  0 0.12500186E+03</rscale>
<asrwt>0</asrwt>
<pdfrwt beam="2">  1        4 0.15452900E-02 0.12500186E+03</pdfrwt>
<pdfrwt beam="1">  1       -4 0.59832371E-01 0.12500186E+03</pdfrwt>
<totfact> 0.64651922E+03</totfact>
</mgrwt>
</event>
<event>
 5    1  0.3236337E-002  0.1249673E+03  0.7818608E-02  0.1235120E+00
          4   -1    0    0  501    0  0.00000000000E+00  0.00000000000E+00  0.15485217114E+03  0.15485737893E+03  0.12700000000E+01 0.  1.
         -4   -1    0    0    0  501 -0.00000000000E+00 -0.00000000000E+00 -0.25190833987E+02  0.25222827299E+02  0.12700000000E+01 0.  1.
         25    2    1    2    0    0  0.00000000000E+00  0.00000000000E+00  0.12966133716E+03  0.18008020623E+03  0.12496726900E+03 0.  0.
    9000005    1    3    3    0    0 -0.59402151692E+02  0.79287513178E+01  0.39388465134E+02  0.71721209615E+02  0.10000000000E+01 0.  0.
    9000005    1    3    3    0    0  0.59402151692E+02 -0.79287513178E+01  0.90272872024E+02  0.10835899661E+03  0.10000000000E+01 0.  0.
<mgrwt>
<rscale>  0 0.12496727E+03</rscale>
<asrwt>0</asrwt>
<pdfrwt beam="1">  1        4 0.23826273E-01 0.12496727E+03</pdfrwt>
<pdfrwt beam="2">  1       -4 0.38783745E-02 0.12496727E+03</pdfrwt>
<totfact> 0.93671294E+03</totfact>
</mgrwt>
</event>
<event>
 5    1  0.3236337E-002  0.1249998E+03  0.7818608E-02  0.1235070E+00
         -4   -1    0    0    0  501 -0.00000000000E+00  0.00000000000E+00  0.92773395691E+01  0.93638629572E+01  0.12700000000E+01 0. -1.
          4   -1    0    0  501    0  0.00000000000E+00 -0.00000000000E+00 -0.41900948384E+03  0.41901140849E+03  0.12700000000E+01 0. -1.
         25    2    1    2    0    0  0.00000000000E+00  0.00000000000E+00 -0.40973214427E+03  0.42837527145E+03  0.12499977257E+03 0.  0.
    9000005    1    3    3    0    0  0.40034815080E+02 -0.47605644959E+02 -0.18426067718E+03  0.19447899888E+03  0.10000000000E+01 0.  0.
    9000005    1    3    3    0    0 -0.40034815080E+02  0.47605644959E+02 -0.22547146709E+03  0.23389627257E+03  0.10000000000E+01 0.  0.
<mgrwt>
<rscale>  0 0.12499977E+03</rscale>
<asrwt>0</asrwt>
<pdfrwt beam="2">  1        4 0.64469786E-01 0.12499977E+03</pdfrwt>
<pdfrwt beam="1">  1       -4 0.14340870E-02 0.12499977E+03</pdfrwt>
<totfact> 0.61883857E+03</totfact>
</mgrwt>
</event>
<event>
 5    1  0.3236337E-002  0.1249912E+03  0.7818608E-02  0.1235083E+00
          4   -1    0    0  501    0  0.00000000000E+00  0.00000000000E+00  0.84942432212E+02  0.84951925759E+02  0.12700000000E+01 0. -1.
         -4   -1    0    0    0  501 -0.00000000000E+00 -0.00000000000E+00 -0.45959748419E+02  0.45977291947E+02  0.12700000000E+01 0. -1.
         25    2    1    2    0    0  0.00000000000E+00  0.00000000000E+00  0.38982683793E+02  0.13092921771E+03  0.12499124135E+03 0.  0.
    9000005    1    3    3    0    0 -0.53795170024E+02  0.12304373711E+02  0.50199289693E+02  0.74607550664E+02  0.10000000000E+01 0.  0.
    9000005    1    3    3    0    0  0.53795170024E+02 -0.12304373711E+02 -0.11216605901E+02  0.56321667041E+02  0.10000000000E+01 0.  0.
<mgrwt>
<rscale>  0 0.12499124E+03</rscale>
<asrwt>0</asrwt>
<pdfrwt beam="1">  1        4 0.13070146E-01 0.12499124E+03</pdfrwt>
<pdfrwt beam="2">  1       -4 0.70728104E-02 0.12499124E+03</pdfrwt>
<totfact> 0.10326647E+04</totfact>
</mgrwt>
</event>
<event>
 5    1  0.3236337E-002  0.1250014E+03  0.7818608E-02  0.1235067E+00
         -4   -1    0    0    0  501 -0.00000000000E+00  0.00000000000E+00  0.20474596343E+03  0.20474990217E+03  0.12700000000E+01 0.  1.
          4   -1    0    0  501    0  0.00000000000E+00 -0.00000000000E+00 -0.19053700237E+02  0.19095978444E+02  0.12700000000E+01 0.  1.
         25    2    1    2    0    0  0.00000000000E+00  0.00000000000E+00  0.18569226319E+03  0.22384588062E+03  0.12500144663E+03 0.  0.
    9000005    1    3    3    0    0  0.57745113997E+02 -0.86696884370E+01  0.52977235783E+02  0.78849535188E+02  0.10000000000E+01 0.  0.
    9000005    1    3    3    0    0 -0.57745113997E+02  0.86696884370E+01  0.13271502741E+03  0.14499634543E+03  0.10000000000E+01 0.  0.
<mgrwt>
<rscale>  0 0.12500145E+03</rscale>
<asrwt>0</asrwt>
<pdfrwt beam="2">  1        4 0.29348936E-02 0.12500145E+03</pdfrwt>
<pdfrwt beam="1">  1       -4 0.31502935E-01 0.12500145E+03</pdfrwt>
<totfact> 0.86260636E+03</totfact>
</mgrwt>
</event>
<event>
 5    1  0.3236337E-002  0.1249952E+03  0.7818608E-02  0.1235077E+00
         -4   -1    0    0    0  501 -0.00000000000E+00  0.00000000000E+00  0.33391220248E+02  0.33415363078E+02  0.12700000000E+01 0. -1.
          4   -1    0    0  501    0  0.00000000000E+00 -0.00000000000E+00 -0.11690556822E+03  0.11691246632E+03  0.12700000000E+01 0. -1.
         25    2    1    2    0    0  0.00000000000E+00  0.00000000000E+00 -0.83514347974E+02  0.15032782940E+03  0.12499523981E+03 0.  0.
    9000005    1    3    3    0    0 -0.32705007512E+02 -0.24742022182E+02  0.14949214267E+02  0.43660785439E+02  0.10000000000E+01 0.  0.
    9000005    1    3    3    0    0  0.32705007512E+02  0.24742022182E+02 -0.98463562241E+02  0.10666704396E+03  0.10000000000E+01 0.  0.
<mgrwt>
<rscale>  0 0.12499524E+03</rscale>
<asrwt>0</asrwt>
<pdfrwt beam="2">  1        4 0.17987859E-01 0.12499524E+03</pdfrwt>
<pdfrwt beam="1">  1       -4 0.51394987E-02 0.12499524E+03</pdfrwt>
<totfact> 0.99249022E+03</totfact>
</mgrwt>
</event>
<event>
 5    1  0.3236337E-002  0.1250064E+03  0.7818608E-02  0.1235059E+00
         -4   -1    0    0    0  501 -0.00000000000E+00  0.00000000000E+00  0.21431952292E+02  0.21469547714E+02  0.12700000000E+01 0. -1.
          4   -1    0    0  501    0  0.00000000000E+00 -0.00000000000E+00 -0.18208213034E+03  0.18208655933E+03  0.12700000000E+01 0. -1.
         25    2    1    2    0    0  0.00000000000E+00  0.00000000000E+00 -0.16065017804E+03  0.20355610704E+03  0.12500643587E+03 0.  0.
    9000005    1    3    3    0    0 -0.50605064490E+02 -0.16669083403E+02 -0.13351361664E+03  0.14375540589E+03  0.10000000000E+01 0.  0.
    9000005    1    3    3    0    0  0.50605064490E+02  0.16669083403E+02 -0.27136561403E+02  0.59800701153E+02  0.10000000000E+01 0.  0.
<mgrwt>
<rscale>  0 0.12500644E+03</rscale>
<asrwt>0</asrwt>
<pdfrwt beam="2">  1        4 0.28015867E-01 0.12500644E+03</pdfrwt>
<pdfrwt beam="1">  1       -4 0.33004562E-02 0.12500644E+03</pdfrwt>
<totfact> 0.89526297E+03</totfact>
</mgrwt>
</event>
<event>
 5    1  0.3236337E-002  0.1249979E+03  0.7818608E-02  0.1235073E+00
          4   -1    0    0  501    0  0.00000000000E+00  0.00000000000E+00  0.20509866466E+03  0.20510259663E+03  0.12700000000E+01 0. -1.
         -4   -1    0    0    0  501 -0.00000000000E+00 -0.00000000000E+00 -0.19019772242E+02  0.19062125699E+02  0.12700000000E+01 0. -1.
         25    2    1    2    0    0  0.00000000000E+00  0.00000000000E+00  0.18607889241E+03  0.22416472233E+03  0.12499787412E+03 0.  0.
    9000005    1    3    3    0    0 -0.31398018071E+02 -0.37061677973E+02  0.16354594631E+03  0.17060973028E+03  0.10000000000E+01 0.  0.
    9000005    1    3    3    0    0  0.31398018071E+02  0.37061677973E+02  0.22532946108E+02  0.53554992048E+02  0.10000000000E+01 0.  0.
<mgrwt>
<rscale>  0 0.12499787E+03</rscale>
<asrwt>0</asrwt>
<pdfrwt beam="1">  1        4 0.31557202E-01 0.12499787E+03</pdfrwt>
<pdfrwt beam="2">  1       -4 0.29296792E-02 0.12499787E+03</pdfrwt>
<totfact> 0.86217688E+03</totfact>
</mgrwt>
</event>
<event>
 5    1  0.3236337E-002  0.1249994E+03  0.7818608E-02  0.1235070E+00
         -4   -1    0    0    0  501 -0.00000000000E+00  0.00000000000E+00  0.20372096002E+02  0.20411643626E+02  0.12700000000E+01 0.  1.
          4   -1    0    0  501    0  0.00000000000E+00 -0.00000000000E+00 -0.19151582132E+03  0.19152003215E+03  0.12700000000E+01 0.  1.
         25    2    1    2    0    0  0.00000000000E+00  0.00000000000E+00 -0.17114372532E+03  0.21193167578E+03  0.12499944193E+03 0.  0.
    9000005    1    3    3    0    0  0.14662226379E+02  0.36644698162E+02 -0.16771690905E+03  0.17230141139E+03  0.10000000000E+01 0.  0.
    9000005    1    3    3    0    0 -0.14662226379E+02 -0.36644698162E+02 -0.34268162670E+01  0.39630264389E+02  0.10000000000E+01 0.  0.
<mgrwt>
<rscale>  0 0.12499944E+03</rscale>
<asrwt>0</asrwt>
<pdfrwt beam="2">  1        4 0.29467337E-01 0.12499944E+03</pdfrwt>
<pdfrwt beam="1">  1       -4 0.31375348E-02 0.12499944E+03</pdfrwt>
<totfact> 0.88162482E+03</totfact>
</mgrwt>
</event>
<event>
 5    1  0.3236337E-002  0.1249945E+03  0.7818608E-02  0.1235078E+00
          4   -1    0    0  501    0  0.00000000000E+00  0.00000000000E+00  0.29633952376E+02  0.29661153609E+02  0.12700000000E+01 0. -1.
         -4   -1    0    0    0  501 -0.00000000000E+00 -0.00000000000E+00 -0.13171443042E+03  0.13172055300E+03  0.12700000000E+01 0. -1.
         25    2    1    2    0    0  0.00000000000E+00  0.00000000000E+00 -0.10208047805E+03  0.16138170661E+03  0.12499452479E+03 0.  0.
    9000005    1    3    3    0    0  0.34888615630E+02 -0.36475519750E+02 -0.98605495390E+02  0.11077780808E+03  0.10000000000E+01 0.  0.
    9000005    1    3    3    0    0 -0.34888615630E+02  0.36475519750E+02 -0.34749826576E+01  0.50603898527E+02  0.10000000000E+01 0.  0.
<mgrwt>
<rscale>  0 0.12499452E+03</rscale>
<asrwt>0</asrwt>
<pdfrwt beam="1">  1        4 0.45616330E-02 0.12499452E+03</pdfrwt>
<pdfrwt beam="2">  1       -4 0.20266322E-01 0.12499452E+03</pdfrwt>
<totfact> 0.97089009E+03</totfact>
</mgrwt>
</event>
<event>
 5    1  0.3236337E-002  0.1249979E+03  0.7818608E-02  0.1235073E+00
         -4   -1    0    0    0  501 -0.00000000000E+00  0.00000000000E+00  0.47833365929E+02  0.47850222530E+02  0.12700000000E+01 0. -1.
          4   -1    0    0  501    0  0.00000000000E+00 -0.00000000000E+00 -0.81624763775E+02  0.81634643144E+02  0.12700000000E+01 0. -1.
         25    2    1    2    0    0  0.00000000000E+00  0.00000000000E+00 -0.33791397845E+02  0.12948486567E+03  0.12499788746E+03 0.  0.
    9000005    1    3    3    0    0  0.56567540667E+01 -0.61912804906E+02 -0.10350367034E+02  0.63034311098E+02  0.10000000000E+01 0.  0.
    9000005    1    3    3    0    0 -0.56567540667E+01  0.61912804906E+02 -0.23441030811E+02  0.66450554575E+02  0.10000000000E+01 0.  0.
<mgrwt>
<rscale>  0 0.12499789E+03</rscale>
<asrwt>0</asrwt>
<pdfrwt beam="2">  1        4 0.12559713E-01 0.12499789E+03</pdfrwt>
<pdfrwt beam="1">  1       -4 0.73610360E-02 0.12499789E+03</pdfrwt>
<totfact> 0.10356033E+04</totfact>
</mgrwt>
</event>
<event>
 5    1  0.3236337E-002  0.1249970E+03  0.7818608E-02  0.1235074E+00
         -4   -1    0    0    0  501 -0.00000000000E+00  0.00000000000E+00  0.62465143398E+01  0.63743110527E+01  0.12700000000E+01 0. -1.
          4   -1    0    0  501    0  0.00000000000E+00 -0.00000000000E+00 -0.61885852257E+03  0.61885982569E+03  0.12700000000E+01 0. -1.
         25    2    1    2    0    0  0.00000000000E+00  0.00000000000E+00 -0.61261200823E+03  0.62523413675E+03  0.12499701246E+03 0.  0.
    9000005    1    3    3    0    0  0.55935551770E+02  0.14834605886E+02 -0.18833829470E+03  0.19703087254E+03  0.10000000000E+01 0.  0.
    9000005    1    3    3    0    0 -0.55935551770E+02 -0.14834605886E+02 -0.42427371353E+03  0.42820326421E+03  0.10000000000E+01 0.  0.
<mgrwt>
<rscale>  0 0.12499701E+03</rscale>
<asrwt>0</asrwt>
<pdfrwt beam="2">  1        4 0.95218886E-01 0.12499701E+03</pdfrwt>
<pdfrwt beam="1">  1       -4 0.97093346E-03 0.12499701E+03</pdfrwt>
<totfact> 0.47315656E+03</totfact>
</mgrwt>
</event>
<event>
 5    1  0.3236337E-002  0.1250015E+03  0.7818608E-02  0.1235067E+00
          4   -1    0    0  501    0  0.00000000000E+00  0.00000000000E+00  0.28751269775E+03  0.28751550265E+03  0.12700000000E+01 0. -1.
         -4   -1    0    0    0  501 -0.00000000000E+00 -0.00000000000E+00 -0.13554123478E+02  0.13613491957E+02  0.12700000000E+01 0. -1.
         25    2    1    2    0    0  0.00000000000E+00  0.00000000000E+00  0.27395857427E+03  0.30112899461E+03  0.12500148391E+03 0.  0.
    9000005    1    3    3    0    0  0.35338478457E+02 -0.19591949288E+02  0.25182307967E+03  0.25504610562E+03  0.10000000000E+01 0.  0.
    9000005    1    3    3    0    0 -0.35338478457E+02  0.19591949288E+02  0.22135494596E+02  0.46082888989E+02  0.10000000000E+01 0.  0.
<mgrwt>
<rscale>  0 0.12500148E+03</rscale>
<asrwt>0</asrwt>
<pdfrwt beam="1">  1        4 0.44237507E-01 0.12500148E+03</pdfrwt>
<pdfrwt beam="2">  1       -4 0.20900322E-02 0.12500148E+03</pdfrwt>
<totfact> 0.75454949E+03</totfact>
</mgrwt>
</event>
<event>
 5    1  0.3236337E-002  0.1250013E+03  0.7818608E-02  0.1235067E+00
          4   -1    0    0  501    0  0.00000000000E+00  0.00000000000E+00  0.35969524358E+03  0.35969748561E+03  0.12700000000E+01 0.  1.
         -4   -1    0    0    0  501 -0.00000000000E+00 -0.00000000000E+00 -0.10820699396E+02  0.10894972942E+02  0.12700000000E+01 0.  1.
         25    2    1    2    0    0  0.00000000000E+00  0.00000000000E+00  0.34887454418E+03  0.37059245855E+03  0.12500129102E+03 0.  0.
    9000005    1    3    3    0    0 -0.17089166047E+02  0.57143667660E+02  0.11913989761E+03  0.13323945944E+03  0.10000000000E+01 0.  0.
    9000005    1    3    3    0    0  0.17089166047E+02 -0.57143667660E+02  0.22973464657E+03  0.23735299911E+03  0.10000000000E+01 0.  0.
<mgrwt>
<rscale>  0 0.12500129E+03</rscale>
<asrwt>0</asrwt>
<pdfrwt beam="1">  1        4 0.55343606E-01 0.12500129E+03</pdfrwt>
<pdfrwt beam="2">  1       -4 0.16706091E-02 0.12500129E+03</pdfrwt>
<totfact> 0.67515078E+03</totfact>
</mgrwt>
</event>
<event>
 5    1  0.3236337E-002  0.1250091E+03  0.7818608E-02  0.1235055E+00
         -4   -1    0    0    0  501 -0.00000000000E+00  0.00000000000E+00  0.58988527637E+01  0.60340172297E+01  0.12700000000E+01 0. -1.
          4   -1    0    0  501    0  0.00000000000E+00 -0.00000000000E+00 -0.65466397858E+03  0.65466521043E+03  0.12700000000E+01 0. -1.
         25    2    1    2    0    0  0.00000000000E+00  0.00000000000E+00 -0.64876512582E+03  0.66069922766E+03  0.12500912350E+03 0.  0.
    9000005    1    3    3    0    0  0.49067082965E+01 -0.52973167586E+02 -0.15104804500E+03  0.16014600891E+03  0.10000000000E+01 0.  0.
    9000005    1    3    3    0    0 -0.49067082965E+01  0.52973167586E+02 -0.49771708081E+03  0.50055321875E+03  0.10000000000E+01 0.  0.
<mgrwt>
<rscale>  0 0.12500912E+03</rscale>
<asrwt>0</asrwt>
<pdfrwt beam="2">  1        4 0.10072797E+00 0.12500912E+03</pdfrwt>
<pdfrwt beam="1">  1       -4 0.91800835E-03 0.12500912E+03</pdfrwt>
<totfact> 0.45234942E+03</totfact>
</mgrwt>
</event>
<event>
 4    1  0.3236337E-002  0.1246914E+03  0.7818608E-02  0.1235552E+00
         -4   -1    0    0    0  501 -0.00000000000E+00  0.00000000000E+00  0.49939836617E+02  0.49955982438E+02  0.12700000000E+01 0.  1.
          4   -1    0    0  501    0  0.00000000000E+00 -0.00000000000E+00 -0.77799415055E+02  0.77809780124E+02  0.12700000000E+01 0.  1.
    9000005    1    1    2    0    0 -0.46778854723E+02  0.27116908021E+02 -0.45717184987E+02  0.70814186100E+02  0.10000000000E+01 0.  0.
    9000005    1    1    2    0    0  0.46778854723E+02 -0.27116908021E+02  0.17857606549E+02  0.56951576462E+02  0.10000000000E+01 0.  0.
<mgrwt>
<rscale>  0 0.12469135E+03</rscale>
<asrwt>0</asrwt>
<pdfrwt beam="2">  1        4 0.11971180E-01 0.12469135E+03</pdfrwt>
<pdfrwt beam="1">  1       -4 0.76850911E-02 0.12469135E+03</pdfrwt>
<totfact> 0.10465294E+04</totfact>
</mgrwt>
</event>
<event>
 5    1  0.3236337E-002  0.1250041E+03  0.7818608E-02  0.1235063E+00
          4   -1    0    0  501    0  0.00000000000E+00  0.00000000000E+00  0.21935701196E+02  0.21972434707E+02  0.12700000000E+01 0.  1.
         -4   -1    0    0    0  501 -0.00000000000E+00 -0.00000000000E+00 -0.17790102321E+03  0.17790555629E+03  0.12700000000E+01 0.  1.
         25    2    1    2    0    0  0.00000000000E+00  0.00000000000E+00 -0.15596532201E+03  0.19987799100E+03  0.12500411839E+03 0.  0.
    9000005    1    3    3    0    0  0.30822099210E+02  0.39871871333E+02 -0.18891219281E+02  0.53829788121E+02  0.10000000000E+01 0.  0.
    9000005    1    3    3    0    0 -0.30822099210E+02 -0.39871871333E+02 -0.13707410273E+03  0.14604820288E+03  0.10000000000E+01 0.  0.
<mgrwt>
<rscale>  0 0.12500412E+03</rscale>
<asrwt>0</asrwt>
<pdfrwt beam="1">  1        4 0.33778977E-02 0.12500412E+03</pdfrwt>
<pdfrwt beam="2">  1       -4 0.27372562E-01 0.12500412E+03</pdfrwt>
<totfact> 0.90147780E+03</totfact>
</mgrwt>
</event>
<event>
 5    1  0.3236337E-002  0.1249979E+03  0.7818608E-02  0.1235073E+00
          4   -1    0    0  501    0  0.00000000000E+00  0.00000000000E+00  0.27010481679E+01  0.29847212944E+01  0.12700000000E+01 0.  1.
         -4   -1    0    0    0  501 -0.00000000000E+00 -0.00000000000E+00 -0.13737148693E+04  0.13737154563E+04  0.12700000000E+01 0.  1.
         25    2    1    2    0    0  0.00000000000E+00  0.00000000000E+00 -0.13710138211E+04  0.13767001776E+04  0.12499792563E+03 0.  0.
    9000005    1    3    3    0    0  0.64443726949E+01  0.25331738918E+02 -0.13106682994E+04  0.13109292956E+04  0.10000000000E+01 0.  0.
    9000005    1    3    3    0    0 -0.64443726949E+01 -0.25331738918E+02 -0.60345521691E+02  0.65770882039E+02  0.10000000000E+01 0.  0.
<mgrwt>
<rscale>  0 0.12499793E+03</rscale>
<asrwt>0</asrwt>
<pdfrwt beam="1">  1        4 0.43741314E-03 0.12499793E+03</pdfrwt>
<pdfrwt beam="2">  1       -4 0.21136208E+00 0.12499793E+03</pdfrwt>
<totfact> 0.20487504E+03</totfact>
</mgrwt>
</event>
<event>
 5    1  0.3236337E-002  0.1249920E+03  0.7818608E-02  0.1235082E+00
          4   -1    0    0  501    0  0.00000000000E+00  0.00000000000E+00  0.81651336206E+02  0.81661212361E+02  0.12700000000E+01 0. -1.
         -4   -1    0    0    0  501 -0.00000000000E+00 -0.00000000000E+00 -0.47813284805E+02  0.47830148482E+02  0.12700000000E+01 0. -1.
         25    2    1    2    0    0  0.00000000000E+00  0.00000000000E+00  0.33838051401E+02  0.12949136084E+03  0.12499199499E+03 0.  0.
    9000005    1    3    3    0    0 -0.40736069015E+01 -0.62328943428E+02  0.18789062549E+02  0.65234349338E+02  0.10000000000E+01 0.  0.
    9000005    1    3    3    0    0  0.40736069015E+01  0.62328943428E+02  0.15048988852E+02  0.64257011505E+02  0.10000000000E+01 0.  0.
<mgrwt>
<rscale>  0 0.12499199E+03</rscale>
<asrwt>0</asrwt>
<pdfrwt beam="1">  1        4 0.12563801E-01 0.12499199E+03</pdfrwt>
<pdfrwt beam="2">  1       -4 0.73579469E-02 0.12499199E+03</pdfrwt>
<totfact> 0.10357272E+04</totfact>
</mgrwt>
</event>
<event>
 4    1  0.3236337E-002  0.1250778E+03  0.7818608E-02  0.1234948E+00
         -4   -1    0    0    0  501 -0.00000000000E+00  0.00000000000E+00  0.22623358566E+03  0.22623715031E+03  0.12700000000E+01 0. -1.
          4   -1    0    0  501    0  0.00000000000E+00 -0.00000000000E+00 -0.17260927871E+02  0.17307585937E+02  0.12700000000E+01 0. -1.
    9000005    1    1    2    0    0 -0.20496176080E+02 -0.40504594441E+02  0.18822266303E+03  0.19362201910E+03  0.10000000000E+01 0.  0.
    9000005    1    1    2    0    0  0.20496176080E+02  0.40504594441E+02  0.20749994768E+02  0.49922717150E+02  0.10000000000E+01 0.  0.
<mgrwt>
<rscale>  0 0.12507784E+03</rscale>
<asrwt>0</asrwt>
<pdfrwt beam="2">  1        4 0.26593909E-02 0.12507784E+03</pdfrwt>
<pdfrwt beam="1">  1       -4 0.34809028E-01 0.12507784E+03</pdfrwt>
<totfact> 0.83127954E+03</totfact>
</mgrwt>
</event>
<event>
 5    1  0.3236337E-002  0.1249998E+03  0.7818608E-02  0.1235070E+00
         -4   -1    0    0    0  501 -0.00000000000E+00  0.00000000000E+00  0.23996457835E+02  0.24030041378E+02  0.12700000000E+01 0. -1.
          4   -1    0    0  501    0  0.00000000000E+00 -0.00000000000E+00 -0.16263407991E+03  0.16263903852E+03  0.12700000000E+01 0. -1.
         25    2    1    2    0    0  0.00000000000E+00  0.00000000000E+00 -0.13863762208E+03  0.18666907989E+03  0.12499982053E+03 0.  0.
    9000005    1    3    3    0    0 -0.27438516823E+02 -0.40856345437E+02 -0.11807672518E+02  0.50621480601E+02  0.10000000000E+01 0.  0.
    9000005    1    3    3    0    0  0.27438516823E+02  0.40856345437E+02 -0.12682994956E+03  0.13604759929E+03  0.10000000000E+01 0.  0.
<mgrwt>
<rscale>  0 0.12499982E+03</rscale>
<asrwt>0</asrwt>
<pdfrwt beam="2">  1        4 0.25023592E-01 0.12499982E+03</pdfrwt>
<pdfrwt beam="1">  1       -4 0.36947276E-02 0.12499982E+03</pdfrwt>
<totfact> 0.92430507E+03</totfact>
</mgrwt>
</event>
<event>
 5    1  0.3236337E-002  0.1249967E+03  0.7818608E-02  0.1235074E+00
          4   -1    0    0  501    0  0.00000000000E+00  0.00000000000E+00  0.23555311531E+03  0.23555653893E+03  0.12700000000E+01 0.  1.
         -4   -1    0    0    0  501 -0.00000000000E+00 -0.00000000000E+00 -0.16554571380E+02  0.16603214555E+02  0.12700000000E+01 0.  1.
         25    2    1    2    0    0  0.00000000000E+00  0.00000000000E+00  0.21899854393E+03  0.25215975348E+03  0.12499671609E+03 0.  0.
    9000005    1    3    3    0    0 -0.57942520772E+02  0.23400403868E+02  0.11022703312E+03  0.12671193095E+03  0.10000000000E+01 0.  0.
    9000005    1    3    3    0    0  0.57942520772E+02 -0.23400403868E+02  0.10877151081E+03  0.12544782254E+03  0.10000000000E+01 0.  0.
<mgrwt>
<rscale>  0 0.12499672E+03</rscale>
<asrwt>0</asrwt>
<pdfrwt beam="1">  1        4 0.36242945E-01 0.12499672E+03</pdfrwt>
<pdfrwt beam="2">  1       -4 0.25508624E-02 0.12499672E+03</pdfrwt>
<totfact> 0.82025074E+03</totfact>
</mgrwt>
</event>
<event>
 5    1  0.3236337E-002  0.1249984E+03  0.7818608E-02  0.1235072E+00
         -4   -1    0    0    0  501 -0.00000000000E+00  0.00000000000E+00  0.25143934109E+01  0.28169263791E+01  0.12700000000E+01 0.  1.
          4   -1    0    0  501    0  0.00000000000E+00 -0.00000000000E+00 -0.14650575442E+04  0.14650580946E+04  0.12700000000E+01 0.  1.
         25    2    1    2    0    0  0.00000000000E+00  0.00000000000E+00 -0.14625431508E+04  0.14678750210E+04  0.12499843783E+03 0.  0.
    9000005    1    3    3    0    0  0.12874775333E+02  0.21171376177E+02 -0.14049604045E+04  0.14051792502E+04  0.10000000000E+01 0.  0.
    9000005    1    3    3    0    0 -0.12874775333E+02 -0.21171376177E+02 -0.57582746288E+02  0.62695770824E+02  0.10000000000E+01 0.  0.
<mgrwt>
<rscale>  0 0.12499844E+03</rscale>
<asrwt>0</asrwt>
<pdfrwt beam="2">  1        4 0.22541614E+00 0.12499844E+03</pdfrwt>
<pdfrwt beam="1">  1       -4 0.41014504E-03 0.12499844E+03</pdfrwt>
<totfact> 0.18570290E+03</totfact>
</mgrwt>
</event>
<event>
 5    1  0.3236337E-002  0.1249916E+03  0.7818608E-02  0.1235082E+00
         -4   -1    0    0    0  501 -0.00000000000E+00  0.00000000000E+00  0.58911368752E+03  0.58911505644E+03  0.12700000000E+01 0. -1.
          4   -1    0    0  501    0  0.00000000000E+00 -0.00000000000E+00 -0.65676214057E+01  0.66892862795E+01  0.12700000000E+01 0. -1.
         25    2    1    2    0    0  0.00000000000E+00  0.00000000000E+00  0.58254606611E+03  0.59580434272E+03  0.12499158235E+03 0.  0.
    9000005    1    3    3    0    0  0.57997655106E+02 -0.69265036670E+01  0.39711427584E+03  0.40138815693E+03  0.10000000000E+01 0.  0.
    9000005    1    3    3    0    0 -0.57997655106E+02  0.69265036670E+01  0.18543179027E+03  0.19441618579E+03  0.10000000000E+01 0.  0.
<mgrwt>
<rscale>  0 0.12499158E+03</rscale>
<asrwt>0</asrwt>
<pdfrwt beam="2">  1        4 0.10198675E-02 0.12499158E+03</pdfrwt>
<pdfrwt beam="1">  1       -4 0.90642332E-01 0.12499158E+03</pdfrwt>
<totfact> 0.49142601E+03</totfact>
</mgrwt>
</event>
<event>
 5    1  0.3236337E-002  0.1249919E+03  0.7818608E-02  0.1235082E+00
         -4   -1    0    0    0  501 -0.00000000000E+00  0.00000000000E+00  0.47289714924E+02  0.47306765241E+02  0.12700000000E+01 0. -1.
          4   -1    0    0  501    0  0.00000000000E+00 -0.00000000000E+00 -0.82555019478E+02  0.82564787537E+02  0.12700000000E+01 0. -1.
         25    2    1    2    0    0  0.00000000000E+00  0.00000000000E+00 -0.35265304554E+02  0.12987155278E+03  0.12499191380E+03 0.  0.
    9000005    1    3    3    0    0  0.34563602886E+02  0.50734563749E+02 -0.29754554918E+02  0.68227356256E+02  0.10000000000E+01 0.  0.
    9000005    1    3    3    0    0 -0.34563602886E+02 -0.50734563749E+02 -0.55107496356E+01  0.61644196522E+02  0.10000000000E+01 0.  0.
<mgrwt>
<rscale>  0 0.12499191E+03</rscale>
<asrwt>0</asrwt>
<pdfrwt beam="2">  1        4 0.12702835E-01 0.12499191E+03</pdfrwt>
<pdfrwt beam="1">  1       -4 0.72774037E-02 0.12499191E+03</pdfrwt>
<totfact> 0.10349145E+04</totfact>
</mgrwt>
</event>
<event>
 5    1  0.3236337E-002  0.1249996E+03  0.7818608E-02  0.1235070E+00
         -4   -1    0    0    0  501 -0.00000000000E+00  0.00000000000E+00  0.58287971966E+01  0.59655491583E+01  0.12700000000E+01 0. -1.
          4   -1    0    0  501    0  0.00000000000E+00 -0.00000000000E+00 -0.66225150617E+03  0.66225272391E+03  0.12700000000E+01 0. -1.
         25    2    1    2    0    0  0.00000000000E+00  0.00000000000E+00 -0.65642270897E+03  0.66821827307E+03  0.12499955042E+03 0.  0.
    9000005    1    3    3    0    0 -0.53215733547E+02  0.32341941994E+02 -0.35614592885E+03  0.36155060247E+03  0.10000000000E+01 0.  0.
    9000005    1    3    3    0    0  0.53215733547E+02 -0.32341941994E+02 -0.30027678012E+03  0.30666767060E+03  0.10000000000E+01 0.  0.
<mgrwt>
<rscale>  0 0.12499955E+03</rscale>
<asrwt>0</asrwt>
<pdfrwt beam="2">  1        4 0.10189540E+00 0.12499955E+03</pdfrwt>
<pdfrwt beam="1">  1       -4 0.90735161E-03 0.12499955E+03</pdfrwt>
<totfact> 0.44818773E+03</totfact>
</mgrwt>
</event>
<event>
 5    1  0.3236337E-002  0.1250083E+03  0.7818608E-02  0.1235056E+00
          4   -1    0    0  501    0  0.00000000000E+00  0.00000000000E+00  0.38227419640E+01  0.40281827321E+01  0.12700000000E+01 0.  1.
         -4   -1    0    0    0  501 -0.00000000000E+00 -0.00000000000E+00 -0.99503254137E+03  0.99503335185E+03  0.12700000000E+01 0.  1.
         25    2    1    2    0    0  0.00000000000E+00  0.00000000000E+00 -0.99120979941E+03  0.99906153458E+03  0.12500833346E+03 0.  0.
    9000005    1    3    3    0    0 -0.61211117861E+02  0.62094018222E+00 -0.59624786525E+03  0.59938276863E+03  0.10000000000E+01 0.  0.
    9000005    1    3    3    0    0  0.61211117861E+02 -0.62094018222E+00 -0.39496193416E+03  0.39967876595E+03  0.10000000000E+01 0.  0.
<mgrwt>
<rscale>  0 0.12500833E+03</rscale>
<asrwt>0</asrwt>
<pdfrwt beam="1">  1        4 0.60398042E-03 0.12500833E+03</pdfrwt>
<pdfrwt beam="2">  1       -4 0.15309759E+00 0.12500833E+03</pdfrwt>
<totfact> 0.30629963E+03</totfact>
</mgrwt>
</event>
<event>
 5    1  0.3236337E-002  0.1250019E+03  0.7818608E-02  0.1235066E+00
         -4   -1    0    0    0  501 -0.00000000000E+00  0.00000000000E+00  0.22805101435E+03  0.22805455059E+03  0.12700000000E+01 0.  1.
          4   -1    0    0  501    0  0.00000000000E+00 -0.00000000000E+00 -0.17102138247E+02  0.17149228339E+02  0.12700000000E+01 0.  1.
         25    2    1    2    0    0  0.00000000000E+00  0.00000000000E+00  0.21094887610E+03  0.24520377893E+03  0.12500185948E+03 0.  0.
    9000005    1    3    3    0    0 -0.53965983626E+02  0.22070561070E+02  0.61352402241E+02  0.84643690347E+02  0.10000000000E+01 0.  0.
    9000005    1    3    3    0    0  0.53965983626E+02 -0.22070561070E+02  0.14959647386E+03  0.16056008859E+03  0.10000000000E+01 0.  0.
<mgrwt>
<rscale>  0 0.12500186E+03</rscale>
<asrwt>0</asrwt>
<pdfrwt beam="2">  1        4 0.26349925E-02 0.12500186E+03</pdfrwt>
<pdfrwt beam="1">  1       -4 0.35088666E-01 0.12500186E+03</pdfrwt>
<totfact> 0.83024969E+03</totfact>
</mgrwt>
</event>
<event>
 5    1  0.3236337E-002  0.1250001E+03  0.7818608E-02  0.1235069E+00
          4   -1    0    0  501    0  0.00000000000E+00  0.00000000000E+00  0.19516071889E+03  0.19516485108E+03  0.12700000000E+01 0.  1.
         -4   -1    0    0    0  501 -0.00000000000E+00 -0.00000000000E+00 -0.19991087934E+02  0.20031387790E+02  0.12700000000E+01 0.  1.
         25    2    1    2    0    0  0.00000000000E+00  0.00000000000E+00  0.17516963096E+03  0.21519623888E+03  0.12500008646E+03 0.  0.
    9000005    1    3    3    0    0  0.44330488024E+01 -0.58257906720E+02  0.49413331845E+02  0.76526550824E+02  0.10000000000E+01 0.  0.
    9000005    1    3    3    0    0 -0.44330488024E+01  0.58257906720E+02  0.12575629911E+03  0.13866968805E+03  0.10000000000E+01 0.  0.
<mgrwt>
<rscale>  0 0.12500009E+03</rscale>
<asrwt>0</asrwt>
<pdfrwt beam="1">  1        4 0.30028144E-01 0.12500009E+03</pdfrwt>
<pdfrwt beam="2">  1       -4 0.30789698E-02 0.12500009E+03</pdfrwt>
<totfact> 0.87634066E+03</totfact>
</mgrwt>
</event>
<event>
 5    1  0.3236337E-002  0.1249970E+03  0.7818608E-02  0.1235074E+00
         -4   -1    0    0    0  501 -0.00000000000E+00  0.00000000000E+00  0.73292711771E+02  0.73303714086E+02  0.12700000000E+01 0.  1.
          4   -1    0    0  501    0  0.00000000000E+00 -0.00000000000E+00 -0.53271436375E+02  0.53286572732E+02  0.12700000000E+01 0.  1.
         25    2    1    2    0    0  0.00000000000E+00  0.00000000000E+00  0.20021275396E+02  0.12659028682E+03  0.12499699696E+03 0.  0.
    9000005    1    3    3    0    0  0.33278938962E+02  0.17081833580E+02  0.60706527501E+02  0.71313107478E+02  0.10000000000E+01 0.  0.
    9000005    1    3    3    0    0 -0.33278938962E+02 -0.17081833580E+02 -0.40685252105E+02  0.55277179340E+02  0.10000000000E+01 0.  0.
<mgrwt>
<rscale>  0 0.12499700E+03</rscale>
<asrwt>0</asrwt>
<pdfrwt beam="2">  1        4 0.81976163E-02 0.12499700E+03</pdfrwt>
<pdfrwt beam="1">  1       -4 0.11277812E-01 0.12499700E+03</pdfrwt>
<totfact> 0.10418766E+04</totfact>
</mgrwt>
</event>
<event>
 5    1  0.3236337E-002  0.1250006E+03  0.7818608E-02  0.1235068E+00
         -4   -1    0    0    0  501 -0.00000000000E+00  0.00000000000E+00  0.71236350904E+02  0.71247670770E+02  0.12700000000E+01 0.  1.
          4   -1    0    0  501    0  0.00000000000E+00 -0.00000000000E+00 -0.54812594533E+02  0.54827305418E+02  0.12700000000E+01 0.  1.
         25    2    1    2    0    0  0.00000000000E+00  0.00000000000E+00  0.16423756371E+02  0.12607497619E+03  0.12500063939E+03 0.  0.
    9000005    1    3    3    0    0  0.43734559553E+02  0.44391289146E+02  0.34820412734E+01  0.62421333394E+02  0.10000000000E+01 0.  0.
    9000005    1    3    3    0    0 -0.43734559553E+02 -0.44391289146E+02  0.12941715098E+02  0.63653642794E+02  0.10000000000E+01 0.  0.
<mgrwt>
<rscale>  0 0.12500064E+03</rscale>
<asrwt>0</asrwt>
<pdfrwt beam="2">  1        4 0.84347092E-02 0.12500064E+03</pdfrwt>
<pdfrwt beam="1">  1       -4 0.10961441E-01 0.12500064E+03</pdfrwt>
<totfact> 0.10429164E+04</totfact>
</mgrwt>
</event>
<event>
 5    1  0.3236337E-002  0.1249913E+03  0.7818608E-02  0.1235083E+00
          4   -1    0    0  501    0  0.00000000000E+00  0.00000000000E+00  0.56418646582E+02  0.56432938805E+02  0.12700000000E+01 0.  1.
         -4   -1    0    0    0  501 -0.00000000000E+00 -0.00000000000E+00 -0.69198294769E+02  0.69209947976E+02  0.12700000000E+01 0.  1.
         25    2    1    2    0    0  0.00000000000E+00  0.00000000000E+00 -0.12779648187E+02  0.12564288678E+03  0.12499126206E+03 0.  0.
    9000005    1    3    3    0    0  0.33480961433E+02 -0.29198391714E+02  0.37784506030E+02  0.58328292904E+02  0.10000000000E+01 0.  0.
    9000005    1    3    3    0    0 -0.33480961433E+02  0.29198391714E+02 -0.50564154217E+02  0.67314593877E+02  0.10000000000E+01 0.  0.
<mgrwt>
<rscale>  0 0.12499126E+03</rscale>
<asrwt>0</asrwt>
<pdfrwt beam="1">  1        4 0.86817876E-02 0.12499126E+03</pdfrwt>
<pdfrwt beam="2">  1       -4 0.10647887E-01 0.12499126E+03</pdfrwt>
<totfact> 0.10440860E+04</totfact>
</mgrwt>
</event>
<event>
 5    1  0.3236337E-002  0.1250055E+03  0.7818608E-02  0.1235061E+00
         -4   -1    0    0    0  501 -0.00000000000E+00  0.00000000000E+00  0.24968883570E+03  0.24969206550E+03  0.12700000000E+01 0. -1.
          4   -1    0    0  501    0  0.00000000000E+00 -0.00000000000E+00 -0.15616751954E+02  0.15668306915E+02  0.12700000000E+01 0. -1.
         25    2    1    2    0    0  0.00000000000E+00  0.00000000000E+00  0.23407208374E+03  0.26536037241E+03  0.12500554731E+03 0.  0.
    9000005    1    3    3    0    0 -0.52020764563E+02  0.21733282152E+02  0.59795436588E+02  0.82188744580E+02  0.10000000000E+01 0.  0.
    9000005    1    3    3    0    0  0.52020764563E+02 -0.21733282152E+02  0.17427664716E+03  0.18317162783E+03  0.10000000000E+01 0.  0.
<mgrwt>
<rscale>  0 0.12500555E+03</rscale>
<asrwt>0</asrwt>
<pdfrwt beam="2">  1        4 0.24067913E-02 0.12500555E+03</pdfrwt>
<pdfrwt beam="1">  1       -4 0.38417883E-01 0.12500555E+03</pdfrwt>
<totfact> 0.80149748E+03</totfact>
</mgrwt>
</event>
<event>
 5    1  0.3236337E-002  0.1250104E+03  0.7818608E-02  0.1235053E+00
          4   -1    0    0  501    0  0.00000000000E+00  0.00000000000E+00  0.16687152309E+02  0.16735410129E+02  0.12700000000E+01 0. -1.
         -4   -1    0    0    0  501 -0.00000000000E+00 -0.00000000000E+00 -0.23373813590E+03  0.23374158611E+03  0.12700000000E+01 0. -1.
         25    2    1    2    0    0  0.00000000000E+00  0.00000000000E+00 -0.21705098360E+03  0.25047699624E+03  0.12501038422E+03 0.  0.
    9000005    1    3    3    0    0  0.30199293757E+02  0.53764667644E+02 -0.88164803007E+02  0.10759493166E+03  0.10000000000E+01 0.  0.
    9000005    1    3    3    0    0 -0.30199293757E+02 -0.53764667644E+02 -0.12888618059E+03  0.14288206457E+03  0.10000000000E+01 0.  0.
<mgrwt>
<rscale>  0 0.12501038E+03</rscale>
<asrwt>0</asrwt>
<pdfrwt beam="1">  1        4 0.25712319E-02 0.12501038E+03</pdfrwt>
<pdfrwt beam="2">  1       -4 0.35963688E-01 0.12501038E+03</pdfrwt>
<totfact> 0.82242312E+03</totfact>
</mgrwt>
</event>
<event>
 5    1  0.3236337E-002  0.1249793E+03  0.7818608E-02  0.1235102E+00
         -4   -1    0    0    0  501 -0.00000000000E+00  0.00000000000E+00  0.42443084246E+03  0.42443274253E+03  0.12700000000E+01 0.  1.
          4   -1    0    0  501    0  0.00000000000E+00 -0.00000000000E+00 -0.91546971045E+01  0.92423686940E+01  0.12700000000E+01 0.  1.
         25    2    1    2    0    0  0.00000000000E+00  0.00000000000E+00  0.41527614536E+03  0.43367511123E+03  0.12497929906E+03 0.  0.
    9000005    1    3    3    0    0  0.27411940931E+02  0.56073050135E+02  0.19760819775E+03  0.20723320505E+03  0.10000000000E+01 0.  0.
    9000005    1    3    3    0    0 -0.27411940931E+02 -0.56073050135E+02  0.21766794761E+03  0.22644190618E+03  0.10000000000E+01 0.  0.
<mgrwt>
<rscale>  0 0.12497930E+03</rscale>
<asrwt>0</asrwt>
<pdfrwt beam="2">  1        4 0.14153051E-02 0.12497930E+03</pdfrwt>
<pdfrwt beam="1">  1       -4 0.65303943E-01 0.12497930E+03</pdfrwt>
<totfact> 0.61432301E+03</totfact>
</mgrwt>
</event>
<event>
 5    1  0.3236337E-002  0.1249937E+03  0.7818608E-02  0.1235079E+00
          4   -1    0    0  501    0  0.00000000000E+00  0.00000000000E+00  0.10197297885E+03  0.10198088701E+03  0.12700000000E+01 0.  1.
         -4   -1    0    0    0  501 -0.00000000000E+00 -0.00000000000E+00 -0.38282941157E+02  0.38304000882E+02  0.12700000000E+01 0.  1.
         25    2    1    2    0    0  0.00000000000E+00  0.00000000000E+00  0.63690037692E+02  0.14028488789E+03  0.12499371532E+03 0.  0.
    9000005    1    3    3    0    0 -0.32167054204E+02  0.52999391957E+02  0.40625262355E+02  0.74128718223E+02  0.10000000000E+01 0.  0.
    9000005    1    3    3    0    0  0.32167054204E+02 -0.52999391957E+02  0.23064775337E+02  0.66156169669E+02  0.10000000000E+01 0.  0.
<mgrwt>
<rscale>  0 0.12499372E+03</rscale>
<asrwt>0</asrwt>
<pdfrwt beam="1">  1        4 0.15690379E-01 0.12499372E+03</pdfrwt>
<pdfrwt beam="2">  1       -4 0.58919116E-02 0.12499372E+03</pdfrwt>
<totfact> 0.10129119E+04</totfact>
</mgrwt>
</event>
<event>
 5    1  0.3236337E-002  0.1250011E+03  0.7818608E-02  0.1235068E+00
          4   -1    0    0  501    0  0.00000000000E+00  0.00000000000E+00  0.91290982176E+02  0.91299815589E+02  0.12700000000E+01 0.  1.
         -4   -1    0    0    0  501 -0.00000000000E+00 -0.00000000000E+00 -0.42769409759E+02  0.42788261371E+02  0.12700000000E+01 0.  1.
         25    2    1    2    0    0  0.00000000000E+00  0.00000000000E+00  0.48521572417E+02  0.13408807696E+03  0.12500107757E+03 0.  0.
    9000005    1    3    3    0    0  0.42978318179E+02 -0.12491190027E+02  0.71044961571E+02  0.83973520984E+02  0.10000000000E+01 0.  0.
    9000005    1    3    3    0    0 -0.42978318179E+02  0.12491190027E+02 -0.22523389154E+02  0.50114555977E+02  0.10000000000E+01 0.  0.
<mgrwt>
<rscale>  0 0.12500108E+03</rscale>
<asrwt>0</asrwt>
<pdfrwt beam="1">  1        4 0.14046896E-01 0.12500108E+03</pdfrwt>
<pdfrwt beam="2">  1       -4 0.65820389E-02 0.12500108E+03</pdfrwt>
<totfact> 0.10257079E+04</totfact>
</mgrwt>
</event>
<event>
 5    1  0.3236337E-002  0.1250008E+03  0.7818608E-02  0.1235068E+00
          4   -1    0    0  501    0  0.00000000000E+00  0.00000000000E+00  0.25501818644E+01  0.28489169067E+01  0.12700000000E+01 0. -1.
         -4   -1    0    0    0  501 -0.00000000000E+00 -0.00000000000E+00 -0.14467200672E+04  0.14467206246E+04  0.12700000000E+01 0. -1.
         25    2    1    2    0    0  0.00000000000E+00  0.00000000000E+00 -0.14441698853E+04  0.14495695415E+04  0.12500079220E+03 0.  0.
    9000005    1    3    3    0    0 -0.36784859945E+01  0.59971344237E+02 -0.52283923661E+03  0.52628125630E+03  0.10000000000E+01 0.  0.
    9000005    1    3    3    0    0  0.36784859945E+01 -0.59971344237E+02 -0.92133064869E+03  0.92328828521E+03  0.10000000000E+01 0.  0.
<mgrwt>
<rscale>  0 0.12500079E+03</rscale>
<asrwt>0</asrwt>
<pdfrwt beam="1">  1        4 0.41535932E-03 0.12500079E+03</pdfrwt>
<pdfrwt beam="2">  1       -4 0.22259472E+00 0.12500079E+03</pdfrwt>
<totfact> 0.18941303E+03</totfact>
</mgrwt>
</event>
<event>
 5    1  0.3236337E-002  0.1249991E+03  0.7818608E-02  0.1235071E+00
          4   -1    0    0  501    0  0.00000000000E+00  0.00000000000E+00  0.14298613644E+03  0.14299177639E+03  0.12700000000E+01 0.  1.
         -4   -1    0    0    0  501 -0.00000000000E+00 -0.00000000000E+00 -0.27297762627E+02  0.27327289372E+02  0.12700000000E+01 0.  1.
         25    2    1    2    0    0  0.00000000000E+00  0.00000000000E+00  0.11568837381E+03  0.17031906576E+03  0.12499913730E+03 0.  0.
    9000005    1    3    3    0    0 -0.52044106148E+02 -0.24875425332E+02  0.25091068708E+02  0.62912141110E+02  0.10000000000E+01 0.  0.
    9000005    1    3    3    0    0  0.52044106148E+02  0.24875425332E+02  0.90597305105E+02  0.10740692465E+03  0.10000000000E+01 0.  0.
<mgrwt>
<rscale>  0 0.12499914E+03</rscale>
<asrwt>0</asrwt>
<pdfrwt beam="1">  1        4 0.22000572E-01 0.12499914E+03</pdfrwt>
<pdfrwt beam="2">  1       -4 0.42023609E-02 0.12499914E+03</pdfrwt>
<totfact> 0.95391047E+03</totfact>
</mgrwt>
</event>
<event>
 5    1  0.3236337E-002  0.1249986E+03  0.7818608E-02  0.1235071E+00
         -4   -1    0    0    0  501 -0.00000000000E+00  0.00000000000E+00  0.98568574557E+02  0.98576755831E+02  0.12700000000E+01 0.  1.
          4   -1    0    0  501    0  0.00000000000E+00 -0.00000000000E+00 -0.39608895606E+02  0.39629250701E+02  0.12700000000E+01 0.  1.
         25    2    1    2    0    0  0.00000000000E+00  0.00000000000E+00  0.58959678951E+02  0.13820600653E+03  0.12499862599E+03 0.  0.
    9000005    1    3    3    0    0 -0.49136085281E+02 -0.43441096794E+01 -0.12939747113E+02  0.51006501752E+02  0.10000000000E+01 0.  0.
    9000005    1    3    3    0    0  0.49136085281E+02  0.43441096794E+01  0.71899426064E+02  0.87199504780E+02  0.10000000000E+01 0.  0.
<mgrwt>
<rscale>  0 0.12499863E+03</rscale>
<asrwt>0</asrwt>
<pdfrwt beam="2">  1        4 0.60958714E-02 0.12499863E+03</pdfrwt>
<pdfrwt beam="1">  1       -4 0.15166591E-01 0.12499863E+03</pdfrwt>
<totfact> 0.10171218E+04</totfact>
</mgrwt>
</event>
<event>
 5    1  0.3236337E-002  0.1250125E+03  0.7818608E-02  0.1235050E+00
         -4   -1    0    0    0  501 -0.00000000000E+00  0.00000000000E+00  0.12676300112E+02  0.12739759987E+02  0.12700000000E+01 0. -1.
          4   -1    0    0  501    0  0.00000000000E+00 -0.00000000000E+00 -0.30738133026E+03  0.30738395387E+03  0.12700000000E+01 0. -1.
         25    2    1    2    0    0  0.00000000000E+00  0.00000000000E+00 -0.29470503015E+03  0.32012371385E+03  0.12501254887E+03 0.  0.
    9000005    1    3    3    0    0 -0.28962743366E+02  0.54960255145E+02 -0.16482643277E+03  0.17614829857E+03  0.10000000000E+01 0.  0.
    9000005    1    3    3    0    0  0.28962743366E+02 -0.54960255145E+02 -0.12987859738E+03  0.14397541528E+03  0.10000000000E+01 0.  0.
<mgrwt>
<rscale>  0 0.12501255E+03</rscale>
<asrwt>0</asrwt>
<pdfrwt beam="2">  1        4 0.47294513E-01 0.12501255E+03</pdfrwt>
<pdfrwt beam="1">  1       -4 0.19552836E-02 0.12501255E+03</pdfrwt>
<totfact> 0.73121073E+03</totfact>
</mgrwt>
</event>
<event>
 5    1  0.3236337E-002  0.1249971E+03  0.7818608E-02  0.1235074E+00
          4   -1    0    0  501    0  0.00000000000E+00  0.00000000000E+00  0.64355568283E+01  0.65596716145E+01  0.12700000000E+01 0. -1.
         -4   -1    0    0    0  501 -0.00000000000E+00 -0.00000000000E+00 -0.60102937672E+03  0.60103071850E+03  0.12700000000E+01 0. -1.
         25    2    1    2    0    0  0.00000000000E+00  0.00000000000E+00 -0.59459381989E+03  0.60759039012E+03  0.12499708599E+03 0.  0.
    9000005    1    3    3    0    0 -0.54604738836E+02  0.29107122809E+02 -0.33971889047E+03  0.34530975463E+03  0.10000000000E+01 0.  0.
    9000005    1    3    3    0    0  0.54604738836E+02 -0.29107122809E+02 -0.25487492942E+03  0.26228063548E+03  0.10000000000E+01 0.  0.
<mgrwt>
<rscale>  0 0.12499709E+03</rscale>
<asrwt>0</asrwt>
<pdfrwt beam="1">  1        4 0.99973664E-03 0.12499709E+03</pdfrwt>
<pdfrwt beam="2">  1       -4 0.92475665E-01 0.12499709E+03</pdfrwt>
<totfact> 0.48395070E+03</totfact>
</mgrwt>
</event>
<event>
 5    1  0.3236337E-002  0.1250005E+03  0.7818608E-02  0.1235068E+00
          4   -1    0    0  501    0  0.00000000000E+00  0.00000000000E+00  0.17821088554E+03  0.17821541074E+03  0.12700000000E+01 0.  1.
         -4   -1    0    0    0  501 -0.00000000000E+00 -0.00000000000E+00 -0.21896238209E+02  0.21933037813E+02  0.12700000000E+01 0.  1.
         25    2    1    2    0    0  0.00000000000E+00  0.00000000000E+00  0.15631464733E+03  0.20014844855E+03  0.12500052995E+03 0.  0.
    9000005    1    3    3    0    0  0.90319561102E+01 -0.61538219433E+02  0.87864552697E+02  0.10765550754E+03  0.10000000000E+01 0.  0.
    9000005    1    3    3    0    0 -0.90319561102E+01  0.61538219433E+02  0.68450094632E+02  0.92492941013E+02  0.10000000000E+01 0.  0.
<mgrwt>
<rscale>  0 0.12500053E+03</rscale>
<asrwt>0</asrwt>
<pdfrwt beam="1">  1        4 0.27420238E-01 0.12500053E+03</pdfrwt>
<pdfrwt beam="2">  1       -4 0.33718309E-02 0.12500053E+03</pdfrwt>
<totfact> 0.90109406E+03</totfact>
</mgrwt>
</event>
<event>
 5    1  0.3236337E-002  0.1249959E+03  0.7818608E-02  0.1235076E+00
          4   -1    0    0  501    0  0.00000000000E+00  0.00000000000E+00  0.16286413713E+03  0.16286908873E+03  0.12700000000E+01 0.  1.
         -4   -1    0    0    0  501 -0.00000000000E+00 -0.00000000000E+00 -0.23960994029E+02  0.23994627208E+02  0.12700000000E+01 0.  1.
         25    2    1    2    0    0  0.00000000000E+00  0.00000000000E+00  0.13890314310E+03  0.18686371594E+03  0.12499586061E+03 0.  0.
    9000005    1    3    3    0    0  0.21736511368E+02  0.54515084143E+02  0.10153650931E+03  0.11728185303E+03  0.10000000000E+01 0.  0.
    9000005    1    3    3    0    0 -0.21736511368E+02 -0.54515084143E+02  0.37366633790E+02  0.69581862912E+02  0.10000000000E+01 0.  0.
<mgrwt>
<rscale>  0 0.12499586E+03</rscale>
<asrwt>0</asrwt>
<pdfrwt beam="1">  1        4 0.25058990E-01 0.12499586E+03</pdfrwt>
<pdfrwt beam="2">  1       -4 0.36892748E-02 0.12499586E+03</pdfrwt>
<totfact> 0.92404469E+03</totfact>
</mgrwt>
</event>
<event>
 5    1  0.3236337E-002  0.1250014E+03  0.7818608E-02  0.1235067E+00
         -4   -1    0    0    0  501 -0.00000000000E+00  0.00000000000E+00  0.35101513914E+02  0.35124481193E+02  0.12700000000E+01 0. -1.
          4   -1    0    0  501    0  0.00000000000E+00 -0.00000000000E+00 -0.11122395743E+03  0.11123120788E+03  0.12700000000E+01 0. -1.
         25    2    1    2    0    0  0.00000000000E+00  0.00000000000E+00 -0.76122443520E+02  0.14635568908E+03  0.12500144526E+03 0.  0.
    9000005    1    3    3    0    0 -0.11996441812E+02 -0.58390664050E+02 -0.16095837698E+02  0.61753220609E+02  0.10000000000E+01 0.  0.
    9000005    1    3    3    0    0  0.11996441812E+02  0.58390664050E+02 -0.60026605822E+02  0.84602468468E+02  0.10000000000E+01 0.  0.
<mgrwt>
<rscale>  0 0.12500145E+03</rscale>
<asrwt>0</asrwt>
<pdfrwt beam="2">  1        4 0.17113702E-01 0.12500145E+03</pdfrwt>
<pdfrwt beam="1">  1       -4 0.54025574E-02 0.12500145E+03</pdfrwt>
<totfact> 0.10003191E+04</totfact>
</mgrwt>
</event>
<event>
 5    1  0.3236337E-002  0.1250011E+03  0.7818608E-02  0.1235068E+00
         -4   -1    0    0    0  501 -0.00000000000E+00  0.00000000000E+00  0.22738502165E+02  0.22773940825E+02  0.12700000000E+01 0. -1.
          4   -1    0    0  501    0  0.00000000000E+00 -0.00000000000E+00 -0.17162158509E+03  0.17162628402E+03  0.12700000000E+01 0. -1.
         25    2    1    2    0    0  0.00000000000E+00  0.00000000000E+00 -0.14888308292E+03  0.19440022485E+03  0.12500110016E+03 0.  0.
    9000005    1    3    3    0    0  0.40415586571E+01 -0.56594711153E+02 -0.33707984112E+02  0.66003967455E+02  0.10000000000E+01 0.  0.
    9000005    1    3    3    0    0 -0.40415586571E+01  0.56594711153E+02 -0.11517509881E+03  0.12839625739E+03  0.10000000000E+01 0.  0.
<mgrwt>
<rscale>  0 0.12500110E+03</rscale>
<asrwt>0</asrwt>
<pdfrwt beam="2">  1        4 0.26406407E-01 0.12500110E+03</pdfrwt>
<pdfrwt beam="1">  1       -4 0.35013187E-02 0.12500110E+03</pdfrwt>
<totfact> 0.91085034E+03</totfact>
</mgrwt>
</event>
<event>
 5    1  0.3236337E-002  0.1249995E+03  0.7818608E-02  0.1235070E+00
          4   -1    0    0  501    0  0.00000000000E+00  0.00000000000E+00  0.22870375716E+03  0.22870728331E+03  0.12700000000E+01 0.  1.
         -4   -1    0    0    0  501 -0.00000000000E+00 -0.00000000000E+00 -0.17052560032E+02  0.17099786655E+02  0.12700000000E+01 0.  1.
         25    2    1    2    0    0  0.00000000000E+00  0.00000000000E+00  0.21165119713E+03  0.24580706997E+03  0.12499954559E+03 0.  0.
    9000005    1    3    3    0    0 -0.50597972712E+02  0.33766211044E+02  0.13397487567E+03  0.14714135776E+03  0.10000000000E+01 0.  0.
    9000005    1    3    3    0    0  0.50597972712E+02 -0.33766211044E+02  0.77676321456E+02  0.98665712209E+02  0.10000000000E+01 0.  0.
<mgrwt>
<rscale>  0 0.12499955E+03</rscale>
<asrwt>0</asrwt>
<pdfrwt beam="1">  1        4 0.35189095E-01 0.12499955E+03</pdfrwt>
<pdfrwt beam="2">  1       -4 0.26273750E-02 0.12499955E+03</pdfrwt>
<totfact> 0.82940880E+03</totfact>
</mgrwt>
</event>
<event>
 5    1  0.3236337E-002  0.1249943E+03  0.7818608E-02  0.1235078E+00
          4   -1    0    0  501    0  0.00000000000E+00  0.00000000000E+00  0.15879960621E+03  0.15880468454E+03  0.12700000000E+01 0. -1.
         -4   -1    0    0    0  501 -0.00000000000E+00 -0.00000000000E+00 -0.24574503644E+02  0.24607298295E+02  0.12700000000E+01 0. -1.
         25    2    1    2    0    0  0.00000000000E+00  0.00000000000E+00  0.13422510257E+03  0.18341198284E+03  0.12499430903E+03 0.  0.
    9000005    1    3    3    0    0  0.60003778264E+02 -0.10915783076E+02  0.87086294738E+02  0.10632323574E+03  0.10000000000E+01 0.  0.
    9000005    1    3    3    0    0 -0.60003778264E+02  0.10915783076E+02  0.47138807828E+02  0.77088747101E+02  0.10000000000E+01 0.  0.
<mgrwt>
<rscale>  0 0.12499431E+03</rscale>
<asrwt>0</asrwt>
<pdfrwt beam="1">  1        4 0.24433622E-01 0.12499431E+03</pdfrwt>
<pdfrwt beam="2">  1       -4 0.37836062E-02 0.12499431E+03</pdfrwt>
<totfact> 0.93018280E+03</totfact>
</mgrwt>
</event>
<event>
 5    1  0.3236337E-002  0.1250019E+03  0.7818608E-02  0.1235066E+00
         -4   -1    0    0    0  501 -0.00000000000E+00  0.00000000000E+00  0.32254711031E+02  0.32279703898E+02  0.12700000000E+01 0. -1.
          4   -1    0    0  501    0  0.00000000000E+00 -0.00000000000E+00 -0.12103470349E+03  0.12104136627E+03  0.12700000000E+01 0. -1.
         25    2    1    2    0    0  0.00000000000E+00  0.00000000000E+00 -0.88779992457E+02  0.15332107017E+03  0.12500185397E+03 0.  0.
    9000005    1    3    3    0    0 -0.30398417620E+02  0.11400390489E+02 -0.10988518094E+03  0.11458527692E+03  0.10000000000E+01 0.  0.
    9000005    1    3    3    0    0  0.30398417620E+02 -0.11400390489E+02  0.21105188486E+02  0.38735793243E+02  0.10000000000E+01 0.  0.
<mgrwt>
<rscale>  0 0.12500185E+03</rscale>
<asrwt>0</asrwt>
<pdfrwt beam="2">  1        4 0.18623158E-01 0.12500185E+03</pdfrwt>
<pdfrwt beam="1">  1       -4 0.49646984E-02 0.12500185E+03</pdfrwt>
<totfact> 0.98641650E+03</totfact>
</mgrwt>
</event>
<event>
 5    1  0.3236337E-002  0.1250012E+03  0.7818608E-02  0.1235067E+00
          4   -1    0    0  501    0  0.00000000000E+00  0.00000000000E+00  0.63739930873E+02  0.63752581812E+02  0.12700000000E+01 0.  1.
         -4   -1    0    0    0  501 -0.00000000000E+00 -0.00000000000E+00 -0.61260098512E+02  0.61273261458E+02  0.12700000000E+01 0.  1.
         25    2    1    2    0    0  0.00000000000E+00  0.00000000000E+00  0.24798323607E+01  0.12502584327E+03  0.12500124766E+03 0.  0.
    9000005    1    3    3    0    0  0.25019865399E+02  0.11250735130E+02 -0.54920533304E+02  0.61399003933E+02  0.10000000000E+01 0.  0.
    9000005    1    3    3    0    0 -0.25019865399E+02 -0.11250735130E+02  0.57400365665E+02  0.63626839337E+02  0.10000000000E+01 0.  0.
<mgrwt>
<rscale>  0 0.12500125E+03</rscale>
<asrwt>0</asrwt>
<pdfrwt beam="1">  1        4 0.98081290E-02 0.12500125E+03</pdfrwt>
<pdfrwt beam="2">  1       -4 0.94266161E-02 0.12500125E+03</pdfrwt>
<totfact> 0.10452007E+04</totfact>
</mgrwt>
</event>
<event>
 5    1  0.3236337E-002  0.1249935E+03  0.7818608E-02  0.1235079E+00
          4   -1    0    0  501    0  0.00000000000E+00  0.00000000000E+00  0.48604794664E+02  0.48621383817E+02  0.12700000000E+01 0.  1.
         -4   -1    0    0    0  501 -0.00000000000E+00 -0.00000000000E+00 -0.80323936312E+02  0.80333975656E+02  0.12700000000E+01 0.  1.
         25    2    1    2    0    0  0.00000000000E+00  0.00000000000E+00 -0.31719141648E+02  0.12895535947E+03  0.12499352299E+03 0.  0.
    9000005    1    3    3    0    0 -0.72275162077E+01 -0.72272178297E+01 -0.79460746532E+02  0.80121656920E+02  0.10000000000E+01 0.  0.
    9000005    1    3    3    0    0  0.72275162077E+01  0.72272178297E+01  0.47741604884E+02  0.48833702553E+02  0.10000000000E+01 0.  0.
<mgrwt>
<rscale>  0 0.12499352E+03</rscale>
<asrwt>0</asrwt>
<pdfrwt beam="1">  1        4 0.74797091E-02 0.12499352E+03</pdfrwt>
<pdfrwt beam="2">  1       -4 0.12359577E-01 0.12499352E+03</pdfrwt>
<totfact> 0.10368422E+04</totfact>
</mgrwt>
</event>
<event>
 5    1  0.3236337E-002  0.1249991E+03  0.7818608E-02  0.1235071E+00
         -4   -1    0    0    0  501 -0.00000000000E+00  0.00000000000E+00  0.89365003715E+01  0.90262915359E+01  0.12700000000E+01 0.  1.
          4   -1    0    0  501    0  0.00000000000E+00 -0.00000000000E+00 -0.43482964073E+03  0.43483149537E+03  0.12700000000E+01 0.  1.
         25    2    1    2    0    0  0.00000000000E+00  0.00000000000E+00 -0.42589314036E+03  0.44385778690E+03  0.12499907193E+03 0.  0.
    9000005    1    3    3    0    0  0.48218657824E+02 -0.38774909412E+02 -0.24403650837E+03  0.25176050123E+03  0.10000000000E+01 0.  0.
    9000005    1    3    3    0    0 -0.48218657824E+02  0.38774909412E+02 -0.18185663199E+03  0.19209728567E+03  0.10000000000E+01 0.  0.
<mgrwt>
<rscale>  0 0.12499907E+03</rscale>
<asrwt>0</asrwt>
<pdfrwt beam="2">  1        4 0.66903901E-01 0.12499907E+03</pdfrwt>
<pdfrwt beam="1">  1       -4 0.13818962E-02 0.12499907E+03</pdfrwt>
<totfact> 0.60500857E+03</totfact>
</mgrwt>
</event>
<event>
 5    1  0.3236337E-002  0.1250041E+03  0.7818608E-02  0.1235063E+00
         -4   -1    0    0    0  501 -0.00000000000E+00  0.00000000000E+00  0.74288648597E+02  0.74299503433E+02  0.12700000000E+01 0. -1.
          4   -1    0    0  501    0  0.00000000000E+00 -0.00000000000E+00 -0.52563165122E+02  0.52578505377E+02  0.12700000000E+01 0. -1.
         25    2    1    2    0    0  0.00000000000E+00  0.00000000000E+00  0.21725483475E+02  0.12687800881E+03  0.12500412988E+03 0.  0.
    9000005    1    3    3    0    0 -0.41148298182E+02 -0.30462423344E+02  0.47238032028E+02  0.69667591814E+02  0.10000000000E+01 0.  0.
    9000005    1    3    3    0    0  0.41148298182E+02  0.30462423344E+02 -0.25512548552E+02  0.57210416996E+02  0.10000000000E+01 0.  0.
<mgrwt>
<rscale>  0 0.12500413E+03</rscale>
<asrwt>0</asrwt>
<pdfrwt beam="2">  1        4 0.80886558E-02 0.12500413E+03</pdfrwt>
<pdfrwt beam="1">  1       -4 0.11431038E-01 0.12500413E+03</pdfrwt>
<totfact> 0.10410827E+04</totfact>
</mgrwt>
</event>
<event>
 5    1  0.3236337E-002  0.1249992E+03  0.7818608E-02  0.1235071E+00
          4   -1    0    0  501    0  0.00000000000E+00  0.00000000000E+00  0.74249403068E+02  0.74260263641E+02  0.12700000000E+01 0.  1.
         -4   -1    0    0    0  501 -0.00000000000E+00 -0.00000000000E+00 -0.52586802245E+02  0.52602135606E+02  0.12700000000E+01 0.  1.
         25    2    1    2    0    0  0.00000000000E+00  0.00000000000E+00  0.21662600823E+02  0.12686239925E+03  0.12499920027E+03 0.  0.
    9000005    1    3    3    0    0  0.46727975899E+02 -0.11823082293E+02 -0.29534792043E+02  0.56538420101E+02  0.10000000000E+01 0.  0.
    9000005    1    3    3    0    0 -0.46727975899E+02  0.11823082293E+02  0.51197392867E+02  0.70323979145E+02  0.10000000000E+01 0.  0.
<mgrwt>
<rscale>  0 0.12499920E+03</rscale>
<asrwt>0</asrwt>
<pdfrwt beam="1">  1        4 0.11425000E-01 0.12499920E+03</pdfrwt>
<pdfrwt beam="2">  1       -4 0.80922922E-02 0.12499920E+03</pdfrwt>
<totfact> 0.10412324E+04</totfact>
</mgrwt>
</event>
<event>
 5    1  0.3236337E-002  0.1249964E+03  0.7818608E-02  0.1235075E+00
          4   -1    0    0  501    0  0.00000000000E+00  0.00000000000E+00  0.42074290856E+02  0.42093453778E+02  0.12700000000E+01 0.  1.
         -4   -1    0    0    0  501 -0.00000000000E+00 -0.00000000000E+00 -0.92791707980E+02  0.92800398543E+02  0.12700000000E+01 0.  1.
         25    2    1    2    0    0  0.00000000000E+00  0.00000000000E+00 -0.50717417124E+02  0.13489385232E+03  0.12499637993E+03 0.  0.
    9000005    1    3    3    0    0 -0.57310908041E+02  0.57420239054E+01 -0.51516637916E+02  0.77281789583E+02  0.10000000000E+01 0.  0.
    9000005    1    3    3    0    0  0.57310908041E+02 -0.57420239054E+01  0.79922079189E+00  0.57612062738E+02  0.10000000000E+01 0.  0.
<mgrwt>
<rscale>  0 0.12499638E+03</rscale>
<asrwt>0</asrwt>
<pdfrwt beam="1">  1        4 0.64751104E-02 0.12499638E+03</pdfrwt>
<pdfrwt beam="2">  1       -4 0.14277790E-01 0.12499638E+03</pdfrwt>
<totfact> 0.10241145E+04</totfact>
</mgrwt>
</event>
<event>
 5    1  0.3236337E-002  0.1250013E+03  0.7818608E-02  0.1235067E+00
          4   -1    0    0  501    0  0.00000000000E+00  0.00000000000E+00  0.10205363314E+02  0.10284081893E+02  0.12700000000E+01 0.  1.
         -4   -1    0    0    0  501 -0.00000000000E+00 -0.00000000000E+00 -0.38122190172E+03  0.38122401714E+03  0.12700000000E+01 0.  1.
         25    2    1    2    0    0  0.00000000000E+00  0.00000000000E+00 -0.37101653840E+03  0.39150809904E+03  0.12500127937E+03 0.  0.
    9000005    1    3    3    0    0  0.11162296600E+02 -0.32168932945E+02 -0.34963075482E+03  0.35128635303E+03  0.10000000000E+01 0.  0.
    9000005    1    3    3    0    0 -0.11162296600E+02  0.32168932945E+02 -0.21385783583E+02  0.40221746004E+02  0.10000000000E+01 0.  0.
<mgrwt>
<rscale>  0 0.12500128E+03</rscale>
<asrwt>0</asrwt>
<pdfrwt beam="1">  1        4 0.15762742E-02 0.12500128E+03</pdfrwt>
<pdfrwt beam="2">  1       -4 0.58655731E-01 0.12500128E+03</pdfrwt>
<totfact> 0.65385324E+03</totfact>
</mgrwt>
</event>
<event>
 5    1  0.3236337E-002  0.1249986E+03  0.7818608E-02  0.1235071E+00
          4   -1    0    0  501    0  0.00000000000E+00  0.00000000000E+00  0.28678731214E+03  0.28679012414E+03  0.12700000000E+01 0. -1.
         -4   -1    0    0    0  501 -0.00000000000E+00 -0.00000000000E+00 -0.13587936784E+02  0.13647158167E+02  0.12700000000E+01 0. -1.
         25    2    1    2    0    0  0.00000000000E+00  0.00000000000E+00  0.27319937536E+03  0.30043728231E+03  0.12499864762E+03 0.  0.
    9000005    1    3    3    0    0 -0.85957775049E+01 -0.11695185376E+02  0.28269167217E+03  0.28306579847E+03  0.10000000000E+01 0.  0.
    9000005    1    3    3    0    0  0.85957775049E+01  0.11695185376E+02 -0.94922968113E+01  0.17371483836E+02  0.10000000000E+01 0.  0.
<mgrwt>
<rscale>  0 0.12499865E+03</rscale>
<asrwt>0</asrwt>
<pdfrwt beam="1">  1        4 0.44125893E-01 0.12499865E+03</pdfrwt>
<pdfrwt beam="2">  1       -4 0.20952238E-02 0.12499865E+03</pdfrwt>
<totfact> 0.75546289E+03</totfact>
</mgrwt>
</event>
<event>
 5    1  0.3236337E-002  0.1250030E+03  0.7818608E-02  0.1235065E+00
          4   -1    0    0  501    0  0.00000000000E+00  0.00000000000E+00  0.23810923878E+02  0.23844768733E+02  0.12700000000E+01 0.  1.
         -4   -1    0    0    0  501 -0.00000000000E+00 -0.00000000000E+00 -0.16390780471E+03  0.16391272478E+03  0.12700000000E+01 0.  1.
         25    2    1    2    0    0  0.00000000000E+00  0.00000000000E+00 -0.14009688084E+03  0.18775749352E+03  0.12500296137E+03 0.  0.
    9000005    1    3    3    0    0 -0.56961708221E+02  0.91075111693E+01 -0.10615493565E+03  0.12081992106E+03  0.10000000000E+01 0.  0.
    9000005    1    3    3    0    0  0.56961708221E+02 -0.91075111693E+01 -0.33941945190E+02  0.66937572457E+02  0.10000000000E+01 0.  0.
<mgrwt>
<rscale>  0 0.12500296E+03</rscale>
<asrwt>0</asrwt>
<pdfrwt beam="1">  1        4 0.36662011E-02 0.12500296E+03</pdfrwt>
<pdfrwt beam="2">  1       -4 0.25219566E-01 0.12500296E+03</pdfrwt>
<totfact> 0.92232854E+03</totfact>
</mgrwt>
</event>
<event>
 5    1  0.3236337E-002  0.1250436E+03  0.7818608E-02  0.1235001E+00
         -4   -1    0    0    0  501 -0.00000000000E+00  0.00000000000E+00  0.21609827713E+03  0.21610200897E+03  0.12700000000E+01 0.  1.
          4   -1    0    0  501    0  0.00000000000E+00 -0.00000000000E+00 -0.18062707921E+02  0.18107300114E+02  0.12700000000E+01 0.  1.
         25    2    1    2    0    0  0.00000000000E+00  0.00000000000E+00  0.19803556921E+03  0.23420930908E+03  0.12504364753E+03 0.  0.
    9000005    1    3    3    0    0 -0.14302767161E+02  0.29618609610E+02 -0.55483051528E+00  0.32911077476E+02  0.10000000000E+01 0.  0.
    9000005    1    3    3    0    0  0.14302767161E+02 -0.29618609610E+02  0.19859039973E+03  0.20129823161E+03  0.10000000000E+01 0.  0.
<mgrwt>
<rscale>  0 0.12504365E+03</rscale>
<asrwt>0</asrwt>
<pdfrwt beam="2">  1        4 0.27825953E-02 0.12504365E+03</pdfrwt>
<pdfrwt beam="1">  1       -4 0.33249607E-01 0.12504365E+03</pdfrwt>
<totfact> 0.84585043E+03</totfact>
</mgrwt>
</event>
<event>
 5    1  0.3236337E-002  0.1250001E+03  0.7818608E-02  0.1235069E+00
          4   -1    0    0  501    0  0.00000000000E+00  0.00000000000E+00  0.11843696492E+02  0.11911592950E+02  0.12700000000E+01 0. -1.
         -4   -1    0    0    0  501 -0.00000000000E+00 -0.00000000000E+00 -0.32880560991E+03  0.32880806256E+03  0.12700000000E+01 0. -1.
         25    2    1    2    0    0  0.00000000000E+00  0.00000000000E+00 -0.31696191342E+03  0.34071965551E+03  0.12500011639E+03 0.  0.
    9000005    1    3    3    0    0 -0.42869042912E+02 -0.13003303247E-01 -0.28242046465E+03  0.28565726642E+03  0.10000000000E+01 0.  0.
    9000005    1    3    3    0    0  0.42869042912E+02  0.13003303247E-01 -0.34541448770E+02  0.55062389091E+02  0.10000000000E+01 0.  0.
<mgrwt>
<rscale>  0 0.12500012E+03</rscale>
<asrwt>0</asrwt>
<pdfrwt beam="1">  1        4 0.18275189E-02 0.12500012E+03</pdfrwt>
<pdfrwt beam="2">  1       -4 0.50590883E-01 0.12500012E+03</pdfrwt>
<totfact> 0.70757540E+03</totfact>
</mgrwt>
</event>
<event>
 5    1  0.3236337E-002  0.1249965E+03  0.7818608E-02  0.1235075E+00
          4   -1    0    0  501    0  0.00000000000E+00  0.00000000000E+00  0.24525970534E+02  0.24558829993E+02  0.12700000000E+01 0.  1.
         -4   -1    0    0    0  501 -0.00000000000E+00 -0.00000000000E+00 -0.15911905931E+03  0.15912412745E+03  0.12700000000E+01 0.  1.
         25    2    1    2    0    0  0.00000000000E+00  0.00000000000E+00 -0.13459308878E+03  0.18368295744E+03  0.12499651718E+03 0.  0.
    9000005    1    3    3    0    0 -0.24873010781E+02 -0.57079257994E+02 -0.59475801608E+02  0.86110854922E+02  0.10000000000E+01 0.  0.
    9000005    1    3    3    0    0  0.24873010781E+02  0.57079257994E+02 -0.75117287172E+02  0.97572102522E+02  0.10000000000E+01 0.  0.
<mgrwt>
<rscale>  0 0.12499652E+03</rscale>
<asrwt>0</asrwt>
<pdfrwt beam="1">  1        4 0.37761438E-02 0.12499652E+03</pdfrwt>
<pdfrwt beam="2">  1       -4 0.24482772E-01 0.12499652E+03</pdfrwt>
<totfact> 0.92965486E+03</totfact>
</mgrwt>
</event>
<event>
 5    1  0.3236337E-002  0.1250000E+03  0.7818608E-02  0.1235069E+00
          4   -1    0    0  501    0  0.00000000000E+00  0.00000000000E+00  0.21681944977E+03  0.21682316919E+03  0.12700000000E+01 0.  1.
         -4   -1    0    0    0  501 -0.00000000000E+00 -0.00000000000E+00 -0.17989878245E+02  0.18034650517E+02  0.12700000000E+01 0.  1.
         25    2    1    2    0    0  0.00000000000E+00  0.00000000000E+00  0.19882957153E+03  0.23485781971E+03  0.12499998786E+03 0.  0.
    9000005    1    3    3    0    0  0.27352697020E+02 -0.55304259515E+02  0.11806367796E+03  0.13321697792E+03  0.10000000000E+01 0.  0.
    9000005    1    3    3    0    0 -0.27352697020E+02  0.55304259515E+02  0.80765893570E+02  0.10164084179E+03  0.10000000000E+01 0.  0.
<mgrwt>
<rscale>  0 0.12499999E+03</rscale>
<asrwt>0</asrwt>
<pdfrwt beam="1">  1        4 0.33360567E-01 0.12499999E+03</pdfrwt>
<pdfrwt beam="2">  1       -4 0.27714038E-02 0.12499999E+03</pdfrwt>
<totfact> 0.84569237E+03</totfact>
</mgrwt>
</event>
<event>
 5    1  0.3236337E-002  0.1250005E+03  0.7818608E-02  0.1235069E+00
         -4   -1    0    0    0  501 -0.00000000000E+00  0.00000000000E+00  0.18234723798E+02  0.18278896356E+02  0.12700000000E+01 0.  1.
          4   -1    0    0  501    0  0.00000000000E+00 -0.00000000000E+00 -0.21391677272E+03  0.21392054261E+03  0.12700000000E+01 0.  1.
         25    2    1    2    0    0  0.00000000000E+00  0.00000000000E+00 -0.19568204892E+03  0.23219943897E+03  0.12500046074E+03 0.  0.
    9000005    1    3    3    0    0 -0.32006829530E+02  0.48558786293E+02 -0.14031794576E+03  0.15189640800E+03  0.10000000000E+01 0.  0.
    9000005    1    3    3    0    0  0.32006829530E+02 -0.48558786293E+02 -0.55364103167E+02  0.80303030966E+02  0.10000000000E+01 0.  0.
<mgrwt>
<rscale>  0 0.12500046E+03</rscale>
<asrwt>0</asrwt>
<pdfrwt beam="2">  1        4 0.32913959E-01 0.12500046E+03</pdfrwt>
<pdfrwt beam="1">  1       -4 0.28090302E-02 0.12500046E+03</pdfrwt>
<totfact> 0.84972139E+03</totfact>
</mgrwt>
</event>
<event>
 5    1  0.3236337E-002  0.1249980E+03  0.7818608E-02  0.1235072E+00
         -4   -1    0    0    0  501 -0.00000000000E+00  0.00000000000E+00  0.56466178811E+01  0.57876760013E+01  0.12700000000E+01 0. -1.
          4   -1    0    0  501    0  0.00000000000E+00 -0.00000000000E+00 -0.68308778797E+03  0.68308896857E+03  0.12700000000E+01 0. -1.
         25    2    1    2    0    0  0.00000000000E+00  0.00000000000E+00 -0.67744117009E+03  0.68887664457E+03  0.12499796997E+03 0.  0.
    9000005    1    3    3    0    0  0.34408746530E+02  0.19833018835E+02 -0.60461701903E+03  0.60592082831E+03  0.10000000000E+01 0.  0.
    9000005    1    3    3    0    0 -0.34408746530E+02 -0.19833018835E+02 -0.72824151060E+02  0.82955816260E+02  0.10000000000E+01 0.  0.
<mgrwt>
<rscale>  0 0.12499797E+03</rscale>
<asrwt>0</asrwt>
<pdfrwt beam="2">  1        4 0.10510131E+00 0.12499797E+03</pdfrwt>
<pdfrwt beam="1">  1       -4 0.87965242E-03 0.12499797E+03</pdfrwt>
<totfact> 0.43682380E+03</totfact>
</mgrwt>
</event>
<event>
 5    1  0.3236337E-002  0.1250015E+03  0.7818608E-02  0.1235067E+00
          4   -1    0    0  501    0  0.00000000000E+00  0.00000000000E+00  0.11691249877E+04  0.11691256775E+04  0.12700000000E+01 0. -1.
         -4   -1    0    0    0  501 -0.00000000000E+00 -0.00000000000E+00 -0.32198572755E+01  0.34612686800E+01  0.12700000000E+01 0. -1.
         25    2    1    2    0    0  0.00000000000E+00  0.00000000000E+00  0.11659051304E+04  0.11725869462E+04  0.12500149270E+03 0.  0.
    9000005    1    3    3    0    0  0.31765881256E+02  0.21661758811E+02  0.12081811067E+03  0.12679242435E+03  0.10000000000E+01 0.  0.
    9000005    1    3    3    0    0 -0.31765881256E+02 -0.21661758811E+02  0.10450870198E+04  0.10457945218E+04  0.10000000000E+01 0.  0.
<mgrwt>
<rscale>  0 0.12500149E+03</rscale>
<asrwt>0</asrwt>
<pdfrwt beam="1">  1        4 0.17988386E+00 0.12500149E+03</pdfrwt>
<pdfrwt beam="2">  1       -4 0.51398624E-03 0.12500149E+03</pdfrwt>
<totfact> 0.25440967E+03</totfact>
</mgrwt>
</event>
<event>
 5    1  0.3236337E-002  0.1249874E+03  0.7818608E-02  0.1235089E+00
          4   -1    0    0  501    0  0.00000000000E+00  0.00000000000E+00  0.63266832878E+01  0.64528924851E+01  0.12700000000E+01 0.  1.
         -4   -1    0    0    0  501 -0.00000000000E+00 -0.00000000000E+00 -0.61107720009E+03  0.61107851980E+03  0.12700000000E+01 0.  1.
         25    2    1    2    0    0  0.00000000000E+00  0.00000000000E+00 -0.60475051680E+03  0.61753141229E+03  0.12498742975E+03 0.  0.
    9000005    1    3    3    0    0  0.82224323180E+01  0.17925747970E+02 -0.94291565057E+01  0.21882637544E+02  0.10000000000E+01 0.  0.
    9000005    1    3    3    0    0 -0.82224323180E+01 -0.17925747970E+02 -0.59532136029E+03  0.59564877474E+03  0.10000000000E+01 0.  0.
<mgrwt>
<rscale>  0 0.12498743E+03</rscale>
<asrwt>0</asrwt>
<pdfrwt beam="1">  1        4 0.98314629E-03 0.12498743E+03</pdfrwt>
<pdfrwt beam="2">  1       -4 0.94021641E-01 0.12498743E+03</pdfrwt>
<totfact> 0.47792536E+03</totfact>
</mgrwt>
</event>
<event>
 5    1  0.3236337E-002  0.1249997E+03  0.7818608E-02  0.1235070E+00
          4   -1    0    0  501    0  0.00000000000E+00  0.00000000000E+00  0.55048841874E+02  0.55063489643E+02  0.12700000000E+01 0. -1.
         -4   -1    0    0    0  501 -0.00000000000E+00 -0.00000000000E+00 -0.70929639292E+02  0.70941008098E+02  0.12700000000E+01 0. -1.
         25    2    1    2    0    0  0.00000000000E+00  0.00000000000E+00 -0.15880797418E+02  0.12600449774E+03  0.12499973490E+03 0.  0.
    9000005    1    3    3    0    0 -0.12454398299E+01 -0.36090039228E+02  0.43471436715E+02  0.56522631414E+02  0.10000000000E+01 0.  0.
    9000005    1    3    3    0    0  0.12454398299E+01  0.36090039228E+02 -0.59352234133E+02  0.69481866328E+02  0.10000000000E+01 0.  0.
<mgrwt>
<rscale>  0 0.12499973E+03</rscale>
<asrwt>0</asrwt>
<pdfrwt beam="1">  1        4 0.84710538E-02 0.12499973E+03</pdfrwt>
<pdfrwt beam="2">  1       -4 0.10914254E-01 0.12499973E+03</pdfrwt>
<totfact> 0.10430921E+04</totfact>
</mgrwt>
</event>
<event>
 5    1  0.3236337E-002  0.1250003E+03  0.7818608E-02  0.1235069E+00
          4   -1    0    0  501    0  0.00000000000E+00  0.00000000000E+00  0.15414797061E+03  0.15415320218E+03  0.12700000000E+01 0.  1.
         -4   -1    0    0    0  501 -0.00000000000E+00 -0.00000000000E+00 -0.25319437792E+02  0.25351268806E+02  0.12700000000E+01 0.  1.
         25    2    1    2    0    0  0.00000000000E+00  0.00000000000E+00  0.12882853282E+03  0.17950447099E+03  0.12500025695E+03 0.  0.
    9000005    1    3    3    0    0  0.42604244716E+02  0.43884943831E+02  0.46009720223E+02  0.76543479917E+02  0.10000000000E+01 0.  0.
    9000005    1    3    3    0    0 -0.42604244716E+02 -0.43884943831E+02  0.82818812596E+02  0.10296099107E+03  0.10000000000E+01 0.  0.
<mgrwt>
<rscale>  0 0.12500026E+03</rscale>
<asrwt>0</asrwt>
<pdfrwt beam="1">  1        4 0.23717924E-01 0.12500026E+03</pdfrwt>
<pdfrwt beam="2">  1       -4 0.38981490E-02 0.12500026E+03</pdfrwt>
<totfact> 0.93705736E+03</totfact>
</mgrwt>
</event>
<event>
 5    1  0.3236337E-002  0.1249998E+03  0.7818608E-02  0.1235070E+00
         -4   -1    0    0    0  501 -0.00000000000E+00  0.00000000000E+00  0.19799329677E+02  0.19840019044E+02  0.12700000000E+01 0. -1.
          4   -1    0    0  501    0  0.00000000000E+00 -0.00000000000E+00 -0.19704608819E+03  0.19705018085E+03  0.12700000000E+01 0. -1.
         25    2    1    2    0    0  0.00000000000E+00  0.00000000000E+00 -0.17724675851E+03  0.21689019989E+03  0.12499978162E+03 0.  0.
    9000005    1    3    3    0    0  0.12446804026E+02 -0.59206746002E+02 -0.11577542693E+03  0.13063426497E+03  0.10000000000E+01 0.  0.
    9000005    1    3    3    0    0 -0.12446804026E+02  0.59206746002E+02 -0.61471331579E+02  0.86255934919E+02  0.10000000000E+01 0.  0.
<mgrwt>
<rscale>  0 0.12499978E+03</rscale>
<asrwt>0</asrwt>
<pdfrwt beam="2">  1        4 0.30318226E-01 0.12499978E+03</pdfrwt>
<pdfrwt beam="1">  1       -4 0.30494956E-02 0.12499978E+03</pdfrwt>
<totfact> 0.87363266E+03</totfact>
</mgrwt>
</event>
<event>
 5    1  0.3236337E-002  0.1250007E+03  0.7818608E-02  0.1235068E+00
         -4   -1    0    0    0  501 -0.00000000000E+00  0.00000000000E+00  0.13285035273E+02  0.13345600856E+02  0.12700000000E+01 0.  1.
          4   -1    0    0  501    0  0.00000000000E+00 -0.00000000000E+00 -0.29330665380E+03  0.29330940330E+03  0.12700000000E+01 0.  1.
         25    2    1    2    0    0  0.00000000000E+00  0.00000000000E+00 -0.28002161853E+03  0.30665500416E+03  0.12500073892E+03 0.  0.
    9000005    1    3    3    0    0 -0.22863364183E+02  0.64579038770E+01  0.17860134963E+01  0.23845917647E+02  0.10000000000E+01 0.  0.
    9000005    1    3    3    0    0  0.22863364183E+02 -0.64579038770E+01 -0.28180763203E+03  0.28280908651E+03  0.10000000000E+01 0.  0.
<mgrwt>
<rscale>  0 0.12500074E+03</rscale>
<asrwt>0</asrwt>
<pdfrwt beam="2">  1        4 0.45128966E-01 0.12500074E+03</pdfrwt>
<pdfrwt beam="1">  1       -4 0.20487222E-02 0.12500074E+03</pdfrwt>
<totfact> 0.74770335E+03</totfact>
</mgrwt>
</event>
<event>
 5    1  0.3236337E-002  0.1250024E+03  0.7818608E-02  0.1235066E+00
         -4   -1    0    0    0  501 -0.00000000000E+00  0.00000000000E+00  0.14738009337E+02  0.14792627192E+02  0.12700000000E+01 0. -1.
          4   -1    0    0  501    0  0.00000000000E+00 -0.00000000000E+00 -0.26450961639E+03  0.26451266522E+03  0.12700000000E+01 0. -1.
         25    2    1    2    0    0  0.00000000000E+00  0.00000000000E+00 -0.24977160705E+03  0.27930529241E+03  0.12500236270E+03 0.  0.
    9000005    1    3    3    0    0 -0.48557526526E+02  0.23928408345E+02 -0.19465476567E+03  0.20204425235E+03  0.10000000000E+01 0.  0.
    9000005    1    3    3    0    0  0.48557526526E+02 -0.23928408345E+02 -0.55116841383E+02  0.77261040067E+02  0.10000000000E+01 0.  0.
<mgrwt>
<rscale>  0 0.12500236E+03</rscale>
<asrwt>0</asrwt>
<pdfrwt beam="2">  1        4 0.40698220E-01 0.12500236E+03</pdfrwt>
<pdfrwt beam="1">  1       -4 0.22718221E-02 0.12500236E+03</pdfrwt>
<totfact> 0.78266199E+03</totfact>
</mgrwt>
</event>
<event>
 5    1  0.3236337E-002  0.1249994E+03  0.7818608E-02  0.1235070E+00
          4   -1    0    0  501    0  0.00000000000E+00  0.00000000000E+00  0.87386692004E+02  0.87395920038E+02  0.12700000000E+01 0.  1.
         -4   -1    0    0    0  501 -0.00000000000E+00 -0.00000000000E+00 -0.44679700856E+02  0.44697746796E+02  0.12700000000E+01 0.  1.
         25    2    1    2    0    0  0.00000000000E+00  0.00000000000E+00  0.42706991148E+02  0.13209366683E+03  0.12499939890E+03 0.  0.
    9000005    1    3    3    0    0  0.46112912617E+02 -0.29463934834E+02  0.53243820318E+02  0.76357243062E+02  0.10000000000E+01 0.  0.
    9000005    1    3    3    0    0 -0.46112912617E+02  0.29463934834E+02 -0.10536829170E+02  0.55736423772E+02  0.10000000000E+01 0.  0.
<mgrwt>
<rscale>  0 0.12499940E+03</rscale>
<asrwt>0</asrwt>
<pdfrwt beam="1">  1        4 0.13446204E-01 0.12499940E+03</pdfrwt>
<pdfrwt beam="2">  1       -4 0.68758982E-02 0.12499940E+03</pdfrwt>
<totfact> 0.10299839E+04</totfact>
</mgrwt>
</event>
<event>
 5    1  0.3236337E-002  0.1250025E+03  0.7818608E-02  0.1235065E+00
         -4   -1    0    0    0  501 -0.00000000000E+00  0.00000000000E+00  0.40909158998E+02  0.40928867441E+02  0.12700000000E+01 0. -1.
          4   -1    0    0  501    0  0.00000000000E+00 -0.00000000000E+00 -0.95442789840E+02  0.95451239030E+02  0.12700000000E+01 0. -1.
         25    2    1    2    0    0  0.00000000000E+00  0.00000000000E+00 -0.54533630841E+02  0.13638010647E+03  0.12500246617E+03 0.  0.
    9000005    1    3    3    0    0  0.42211537843E+02 -0.13602199930E+01  0.22988097761E+02  0.48094872535E+02  0.10000000000E+01 0.  0.
    9000005    1    3    3    0    0 -0.42211537843E+02  0.13602199930E+01 -0.77521728603E+02  0.88285233936E+02  0.10000000000E+01 0.  0.
<mgrwt>
<rscale>  0 0.12500247E+03</rscale>
<asrwt>0</asrwt>
<pdfrwt beam="2">  1        4 0.14685672E-01 0.12500247E+03</pdfrwt>
<pdfrwt beam="1">  1       -4 0.62958828E-02 0.12500247E+03</pdfrwt>
<totfact> 0.10208495E+04</totfact>
</mgrwt>
</event>
<event>
 5    1  0.3236337E-002  0.1249960E+03  0.7818608E-02  0.1235076E+00
         -4   -1    0    0    0  501 -0.00000000000E+00  0.00000000000E+00  0.72643494664E+03  0.72643605678E+03  0.12700000000E+01 0.  1.
          4   -1    0    0  501    0  0.00000000000E+00 -0.00000000000E+00 -0.53008188328E+01  0.54508329912E+01  0.12700000000E+01 0.  1.
         25    2    1    2    0    0  0.00000000000E+00  0.00000000000E+00  0.72113412780E+03  0.73188688977E+03  0.12499595650E+03 0.  0.
    9000005    1    3    3    0    0 -0.16377248572E+02  0.24895225026E+02  0.68218216685E+03  0.68283343157E+03  0.10000000000E+01 0.  0.
    9000005    1    3    3    0    0  0.16377248572E+02 -0.24895225026E+02  0.38951960957E+02  0.49053458209E+02  0.10000000000E+01 0.  0.
<mgrwt>
<rscale>  0 0.12499596E+03</rscale>
<asrwt>0</asrwt>
<pdfrwt beam="2">  1        4 0.82713546E-03 0.12499596E+03</pdfrwt>
<pdfrwt beam="1">  1       -4 0.11177086E+00 0.12499596E+03</pdfrwt>
<totfact> 0.41459494E+03</totfact>
</mgrwt>
</event>
<event>
 5    1  0.3236337E-002  0.1250007E+03  0.7818608E-02  0.1235068E+00
          4   -1    0    0  501    0  0.00000000000E+00  0.00000000000E+00  0.17706073461E+02  0.17751561549E+02  0.12700000000E+01 0. -1.
         -4   -1    0    0    0  501 -0.00000000000E+00 -0.00000000000E+00 -0.22028845699E+03  0.22029211785E+03  0.12700000000E+01 0. -1.
         25    2    1    2    0    0  0.00000000000E+00  0.00000000000E+00 -0.20258238353E+03  0.23804367940E+03  0.12500068473E+03 0.  0.
    9000005    1    3    3    0    0  0.58198141288E+01  0.30891988040E+02 -0.20414502676E+03  0.20655356959E+03  0.10000000000E+01 0.  0.
    9000005    1    3    3    0    0 -0.58198141288E+01 -0.30891988040E+02  0.15626432241E+01  0.31490109803E+02  0.10000000000E+01 0.  0.
<mgrwt>
<rscale>  0 0.12500068E+03</rscale>
<asrwt>0</asrwt>
<pdfrwt beam="1">  1        4 0.27277921E-02 0.12500068E+03</pdfrwt>
<pdfrwt beam="2">  1       -4 0.33894311E-01 0.12500068E+03</pdfrwt>
<totfact> 0.84088309E+03</totfact>
</mgrwt>
</event>
<event>
 5    1  0.3236337E-002  0.1250040E+03  0.7818608E-02  0.1235063E+00
          4   -1    0    0  501    0  0.00000000000E+00  0.00000000000E+00  0.90975756497E+02  0.90984620515E+02  0.12700000000E+01 0.  1.
         -4   -1    0    0    0  501 -0.00000000000E+00 -0.00000000000E+00 -0.42919669315E+02  0.42938454957E+02  0.12700000000E+01 0.  1.
         25    2    1    2    0    0  0.00000000000E+00  0.00000000000E+00  0.48056087183E+02  0.13392307547E+03  0.12500401045E+03 0.  0.
    9000005    1    3    3    0    0 -0.59233859099E+01  0.60565499616E+02  0.39263623758E+02  0.72428574437E+02  0.10000000000E+01 0.  0.
    9000005    1    3    3    0    0  0.59233859099E+01 -0.60565499616E+02  0.87924634245E+01  0.61494501034E+02  0.10000000000E+01 0.  0.
<mgrwt>
<rscale>  0 0.12500401E+03</rscale>
<asrwt>0</asrwt>
<pdfrwt beam="1">  1        4 0.13998397E-01 0.12500401E+03</pdfrwt>
<pdfrwt beam="2">  1       -4 0.66051530E-02 0.12500401E+03</pdfrwt>
<totfact> 0.10259892E+04</totfact>
</mgrwt>
</event>
<event>
 5    1  0.3236337E-002  0.1250022E+03  0.7818608E-02  0.1235066E+00
          4   -1    0    0  501    0  0.00000000000E+00  0.00000000000E+00  0.27980399068E+02  0.28009206201E+02  0.12700000000E+01 0.  1.
         -4   -1    0    0    0  501 -0.00000000000E+00 -0.00000000000E+00 -0.13950799203E+03  0.13951377258E+03  0.12700000000E+01 0.  1.
         25    2    1    2    0    0  0.00000000000E+00  0.00000000000E+00 -0.11152759296E+03  0.16752297878E+03  0.12500217769E+03 0.  0.
    9000005    1    3    3    0    0  0.34755626508E+02  0.39590750180E+02 -0.10081402483E+03  0.11375345567E+03  0.10000000000E+01 0.  0.
    9000005    1    3    3    0    0 -0.34755626508E+02 -0.39590750180E+02 -0.10713568129E+02  0.53769523113E+02  0.10000000000E+01 0.  0.
<mgrwt>
<rscale>  0 0.12500218E+03</rscale>
<asrwt>0</asrwt>
<pdfrwt beam="1">  1        4 0.43073374E-02 0.12500218E+03</pdfrwt>
<pdfrwt beam="2">  1       -4 0.21465428E-01 0.12500218E+03</pdfrwt>
<totfact> 0.95907012E+03</totfact>
</mgrwt>
</event>
<event>
 5    1  0.3236337E-002  0.1250023E+03  0.7818608E-02  0.1235066E+00
          4   -1    0    0  501    0  0.00000000000E+00  0.00000000000E+00  0.20089226071E+02  0.20129329451E+02  0.12700000000E+01 0.  1.
         -4   -1    0    0    0  501 -0.00000000000E+00 -0.00000000000E+00 -0.19421605877E+03  0.19422021106E+03  0.12700000000E+01 0.  1.
         25    2    1    2    0    0  0.00000000000E+00  0.00000000000E+00 -0.17412683270E+03  0.21434954051E+03  0.12500228659E+03 0.  0.
    9000005    1    3    3    0    0 -0.25102861668E+02 -0.22373173225E+02 -0.17738906318E+03  0.18055080249E+03  0.10000000000E+01 0.  0.
    9000005    1    3    3    0    0  0.25102861668E+02  0.22373173225E+02  0.32622304815E+01  0.33798738021E+02  0.10000000000E+01 0.  0.
<mgrwt>
<rscale>  0 0.12500229E+03</rscale>
<asrwt>0</asrwt>
<pdfrwt beam="1">  1        4 0.30940546E-02 0.12500229E+03</pdfrwt>
<pdfrwt beam="2">  1       -4 0.29882797E-01 0.12500229E+03</pdfrwt>
<totfact> 0.87765950E+03</totfact>
</mgrwt>
</event>
<event>
 5    1  0.3236337E-002  0.1250039E+03  0.7818608E-02  0.1235063E+00
         -4   -1    0    0    0  501 -0.00000000000E+00  0.00000000000E+00  0.25106453830E+01  0.28135813901E+01  0.12700000000E+01 0. -1.
          4   -1    0    0  501    0  0.00000000000E+00 -0.00000000000E+00 -0.14671379095E+04  0.14671384592E+04  0.12700000000E+01 0. -1.
         25    2    1    2    0    0  0.00000000000E+00  0.00000000000E+00 -0.14646272641E+04  0.14699520406E+04  0.12500391501E+03 0.  0.
    9000005    1    3    3    0    0 -0.20737326369E+02  0.53549455788E+02 -0.10222485630E+04  0.10238606865E+04  0.10000000000E+01 0.  0.
    9000005    1    3    3    0    0  0.20737326369E+02 -0.53549455788E+02 -0.44237870116E+03  0.44609135405E+03  0.10000000000E+01 0.  0.
<mgrwt>
<rscale>  0 0.12500392E+03</rscale>
<asrwt>0</asrwt>
<pdfrwt beam="2">  1        4 0.22573622E+00 0.12500392E+03</pdfrwt>
<pdfrwt beam="1">  1       -4 0.40959936E-03 0.12500392E+03</pdfrwt>
<totfact> 0.18526252E+03</totfact>
</mgrwt>
</event>
<event>
 5    1  0.3236337E-002  0.1249997E+03  0.7818608E-02  0.1235070E+00
          4   -1    0    0  501    0  0.00000000000E+00  0.00000000000E+00  0.28331864841E+03  0.28332149484E+03  0.12700000000E+01 0. -1.
         -4   -1    0    0    0  501 -0.00000000000E+00 -0.00000000000E+00 -0.13755241914E+02  0.13813746057E+02  0.12700000000E+01 0. -1.
         25    2    1    2    0    0  0.00000000000E+00  0.00000000000E+00  0.26956340650E+03  0.29713524090E+03  0.12499968504E+03 0.  0.
    9000005    1    3    3    0    0  0.19373394424E+02 -0.10269960073E+02 -0.43222202820E+01  0.22371456805E+02  0.10000000000E+01 0.  0.
    9000005    1    3    3    0    0 -0.19373394424E+02  0.10269960073E+02  0.27388562678E+03  0.27476378409E+03  0.10000000000E+01 0.  0.
<mgrwt>
<rscale>  0 0.12499969E+03</rscale>
<asrwt>0</asrwt>
<pdfrwt beam="1">  1        4 0.43592205E-01 0.12499969E+03</pdfrwt>
<pdfrwt beam="2">  1       -4 0.21209103E-02 0.12499969E+03</pdfrwt>
<totfact> 0.75960129E+03</totfact>
</mgrwt>
</event>
<event>
 5    1  0.3236337E-002  0.1249997E+03  0.7818608E-02  0.1235070E+00
          4   -1    0    0  501    0  0.00000000000E+00  0.00000000000E+00  0.62587674390E+01  0.63863189597E+01  0.12700000000E+01 0. -1.
         -4   -1    0    0    0  501 -0.00000000000E+00 -0.00000000000E+00 -0.61769753050E+03  0.61769883607E+03  0.12700000000E+01 0. -1.
         25    2    1    2    0    0  0.00000000000E+00  0.00000000000E+00 -0.61143876306E+03  0.62408515503E+03  0.12499967903E+03 0.  0.
    9000005    1    3    3    0    0 -0.24021775219E+02  0.17325579339E+02 -0.30984689457E+02  0.42875078599E+02  0.10000000000E+01 0.  0.
    9000005    1    3    3    0    0  0.24021775219E+02 -0.17325579339E+02 -0.58045407361E+03  0.58121007643E+03  0.10000000000E+01 0.  0.
<mgrwt>
<rscale>  0 0.12499968E+03</rscale>
<asrwt>0</asrwt>
<pdfrwt beam="1">  1        4 0.97279987E-03 0.12499968E+03</pdfrwt>
<pdfrwt beam="2">  1       -4 0.95040253E-01 0.12499968E+03</pdfrwt>
<totfact> 0.47382095E+03</totfact>
</mgrwt>
</event>
<event>
 5    1  0.3236337E-002  0.1250013E+03  0.7818608E-02  0.1235067E+00
         -4   -1    0    0    0  501 -0.00000000000E+00  0.00000000000E+00  0.77386230140E+02  0.77396650543E+02  0.12700000000E+01 0. -1.
          4   -1    0    0  501    0  0.00000000000E+00 -0.00000000000E+00 -0.50456575783E+02  0.50472556303E+02  0.12700000000E+01 0. -1.
         25    2    1    2    0    0  0.00000000000E+00  0.00000000000E+00  0.26929654357E+02  0.12786920685E+03  0.12500131110E+03 0.  0.
    9000005    1    3    3    0    0  0.59454045926E+02  0.11589783723E+02  0.29187073262E+02  0.67245757556E+02  0.10000000000E+01 0.  0.
    9000005    1    3    3    0    0 -0.59454045926E+02 -0.11589783723E+02 -0.22574189046E+01  0.60623449290E+02  0.10000000000E+01 0.  0.
<mgrwt>
<rscale>  0 0.12500131E+03</rscale>
<asrwt>0</asrwt>
<pdfrwt beam="2">  1        4 0.77645810E-02 0.12500131E+03</pdfrwt>
<pdfrwt beam="1">  1       -4 0.11907605E-01 0.12500131E+03</pdfrwt>
<totfact> 0.10390006E+04</totfact>
</mgrwt>
</event>
<event>
 5    1  0.3236337E-002  0.1250274E+03  0.7818608E-02  0.1235027E+00
         -4   -1    0    0    0  501 -0.00000000000E+00  0.00000000000E+00  0.61609041340E+02  0.61622129750E+02  0.12700000000E+01 0.  1.
          4   -1    0    0  501    0  0.00000000000E+00 -0.00000000000E+00 -0.63405418978E+02  0.63418136647E+02  0.12700000000E+01 0.  1.
         25    2    1    2    0    0  0.00000000000E+00  0.00000000000E+00 -0.17963776376E+01  0.12504026640E+03  0.12502736200E+03 0.  0.
    9000005    1    3    3    0    0 -0.14829061670E+02  0.13635573616E+02 -0.60074646410E+02  0.63370285459E+02  0.10000000000E+01 0.  0.
    9000005    1    3    3    0    0  0.14829061670E+02 -0.13635573616E+02  0.58278268772E+02  0.61669980938E+02  0.10000000000E+01 0.  0.
<mgrwt>
<rscale>  0 0.12502736E+03</rscale>
<asrwt>0</asrwt>
<pdfrwt beam="2">  1        4 0.97566650E-02 0.12502736E+03</pdfrwt>
<pdfrwt beam="1">  1       -4 0.94802991E-02 0.12502736E+03</pdfrwt>
<totfact> 0.10445527E+04</totfact>
</mgrwt>
</event>
<event>
 5    1  0.3236337E-002  0.1249915E+03  0.7818608E-02  0.1235083E+00
          4   -1    0    0  501    0  0.00000000000E+00  0.00000000000E+00  0.23762788075E+02  0.23796701391E+02  0.12700000000E+01 0.  1.
         -4   -1    0    0    0  501 -0.00000000000E+00 -0.00000000000E+00 -0.16420922691E+03  0.16421413795E+03  0.12700000000E+01 0.  1.
         25    2    1    2    0    0  0.00000000000E+00  0.00000000000E+00 -0.14044643884E+03  0.18801083934E+03  0.12499149382E+03 0.  0.
    9000005    1    3    3    0    0  0.48973400809E+02  0.33313738936E+02 -0.10017582010E+03  0.11638038547E+03  0.10000000000E+01 0.  0.
    9000005    1    3    3    0    0 -0.48973400809E+02 -0.33313738936E+02 -0.40270618735E+02  0.71630453873E+02  0.10000000000E+01 0.  0.
<mgrwt>
<rscale>  0 0.12499149E+03</rscale>
<asrwt>0</asrwt>
<pdfrwt beam="1">  1        4 0.36588001E-02 0.12499149E+03</pdfrwt>
<pdfrwt beam="2">  1       -4 0.25265944E-01 0.12499149E+03</pdfrwt>
<totfact> 0.92212150E+03</totfact>
</mgrwt>
</event>
<event>
 5    1  0.3236337E-002  0.1249950E+03  0.7818608E-02  0.1235077E+00
          4   -1    0    0  501    0  0.00000000000E+00  0.00000000000E+00  0.24713582040E+02  0.24746192379E+02  0.12700000000E+01 0. -1.
         -4   -1    0    0    0  501 -0.00000000000E+00 -0.00000000000E+00 -0.15790896622E+03  0.15791407320E+03  0.12700000000E+01 0. -1.
         25    2    1    2    0    0  0.00000000000E+00  0.00000000000E+00 -0.13319538418E+03  0.18266026558E+03  0.12499504891E+03 0.  0.
    9000005    1    3    3    0    0  0.58275596526E+02  0.38489621491E+01 -0.99080256480E+02  0.11501633312E+03  0.10000000000E+01 0.  0.
    9000005    1    3    3    0    0 -0.58275596526E+02 -0.38489621491E+01 -0.34115127704E+02  0.67643932458E+02  0.10000000000E+01 0.  0.
<mgrwt>
<rscale>  0 0.12499505E+03</rscale>
<asrwt>0</asrwt>
<pdfrwt beam="1">  1        4 0.38049910E-02 0.12499505E+03</pdfrwt>
<pdfrwt beam="2">  1       -4 0.24296588E-01 0.12499505E+03</pdfrwt>
<totfact> 0.93150665E+03</totfact>
</mgrwt>
</event>
<event>
 5    1  0.3236337E-002  0.1249985E+03  0.7818608E-02  0.1235072E+00
          4   -1    0    0  501    0  0.00000000000E+00  0.00000000000E+00  0.52085678699E+03  0.52085833531E+03  0.12700000000E+01 0.  1.
         -4   -1    0    0    0  501 -0.00000000000E+00 -0.00000000000E+00 -0.74441499684E+01  0.75517063470E+01  0.12700000000E+01 0.  1.
         25    2    1    2    0    0  0.00000000000E+00  0.00000000000E+00  0.51341263703E+03  0.52841004165E+03  0.12499854504E+03 0.  0.
    9000005    1    3    3    0    0 -0.19218219213E+02  0.31111288482E+02  0.42488428816E+02  0.56067091988E+02  0.10000000000E+01 0.  0.
    9000005    1    3    3    0    0  0.19218219213E+02 -0.31111288482E+02  0.47092420821E+03  0.47234294966E+03  0.10000000000E+01 0.  0.
<mgrwt>
<rscale>  0 0.12499855E+03</rscale>
<asrwt>0</asrwt>
<pdfrwt beam="1">  1        4 0.80140203E-01 0.12499855E+03</pdfrwt>
<pdfrwt beam="2">  1       -4 0.11536465E-02 0.12499855E+03</pdfrwt>
<totfact> 0.53727279E+03</totfact>
</mgrwt>
</event>
<event>
 5    1  0.3236337E-002  0.1250015E+03  0.7818608E-02  0.1235067E+00
          4   -1    0    0  501    0  0.00000000000E+00  0.00000000000E+00  0.65469645583E+01  0.66690062924E+01  0.12700000000E+01 0.  1.
         -4   -1    0    0    0  501 -0.00000000000E+00 -0.00000000000E+00 -0.59103184028E+03  0.59103320476E+03  0.12700000000E+01 0.  1.
         25    2    1    2    0    0  0.00000000000E+00  0.00000000000E+00 -0.58448487573E+03  0.59770221105E+03  0.12500145257E+03 0.  0.
    9000005    1    3    3    0    0  0.43979996972E+02  0.43222854936E+02 -0.24374187120E+03  0.25142305999E+03  0.10000000000E+01 0.  0.
    9000005    1    3    3    0    0 -0.43979996972E+02 -0.43222854936E+02 -0.34074300453E+03  0.34627915106E+03  0.10000000000E+01 0.  0.
<mgrwt>
<rscale>  0 0.12500145E+03</rscale>
<asrwt>0</asrwt>
<pdfrwt beam="1">  1        4 0.10167186E-02 0.12500145E+03</pdfrwt>
<pdfrwt beam="2">  1       -4 0.90937426E-01 0.12500145E+03</pdfrwt>
<totfact> 0.49011431E+03</totfact>
</mgrwt>
</event>
<event>
 5    1  0.3236337E-002  0.1249877E+03  0.7818608E-02  0.1235089E+00
          4   -1    0    0  501    0  0.00000000000E+00  0.00000000000E+00  0.27433495869E+03  0.27433789833E+03  0.12700000000E+01 0.  1.
         -4   -1    0    0    0  501 -0.00000000000E+00 -0.00000000000E+00 -0.14204824954E+02  0.14261484914E+02  0.12700000000E+01 0.  1.
         25    2    1    2    0    0  0.00000000000E+00  0.00000000000E+00  0.26013013373E+03  0.28859938324E+03  0.12498766951E+03 0.  0.
    9000005    1    3    3    0    0 -0.12002877804E+02 -0.61115019498E+02  0.11843604778E+03  0.13381783176E+03  0.10000000000E+01 0.  0.
    9000005    1    3    3    0    0  0.12002877804E+02  0.61115019498E+02  0.14169408596E+03  0.15478155148E+03  0.10000000000E+01 0.  0.
<mgrwt>
<rscale>  0 0.12498767E+03</rscale>
<asrwt>0</asrwt>
<pdfrwt beam="1">  1        4 0.42209960E-01 0.12498767E+03</pdfrwt>
<pdfrwt beam="2">  1       -4 0.21899424E-02 0.12498767E+03</pdfrwt>
<totfact> 0.77072644E+03</totfact>
</mgrwt>
</event>
<event>
 5    1  0.3236337E-002  0.1249850E+03  0.7818608E-02  0.1235093E+00
         -4   -1    0    0    0  501 -0.00000000000E+00  0.00000000000E+00  0.99333048044E+01  0.10014162188E+02  0.12700000000E+01 0.  1.
          4   -1    0    0  501    0  0.00000000000E+00 -0.00000000000E+00 -0.39147802167E+03  0.39148008168E+03  0.12700000000E+01 0.  1.
         25    2    1    2    0    0  0.00000000000E+00  0.00000000000E+00 -0.38154471686E+03  0.40149424387E+03  0.12498502666E+03 0.  0.
    9000005    1    3    3    0    0  0.19546460669E+01 -0.45289122171E+02 -0.32891745377E+03  0.33202803590E+03  0.10000000000E+01 0.  0.
    9000005    1    3    3    0    0 -0.19546460669E+01  0.45289122171E+02 -0.52627263090E+02  0.69466207962E+02  0.10000000000E+01 0.  0.
<mgrwt>
<rscale>  0 0.12498503E+03</rscale>
<asrwt>0</asrwt>
<pdfrwt beam="2">  1        4 0.60233755E-01 0.12498503E+03</pdfrwt>
<pdfrwt beam="1">  1       -4 0.15345793E-02 0.12498503E+03</pdfrwt>
<totfact> 0.64429019E+03</totfact>
</mgrwt>
</event>
<event>
 5    1  0.3236337E-002  0.1250007E+03  0.7818608E-02  0.1235068E+00
          4   -1    0    0  501    0  0.00000000000E+00  0.00000000000E+00  0.75487554659E+02  0.75498237122E+02  0.12700000000E+01 0. -1.
         -4   -1    0    0    0  501 -0.00000000000E+00 -0.00000000000E+00 -0.51725364715E+02  0.51740953363E+02  0.12700000000E+01 0. -1.
         25    2    1    2    0    0  0.00000000000E+00  0.00000000000E+00  0.23762189945E+02  0.12723919048E+03  0.12500067969E+03 0.  0.
    9000005    1    3    3    0    0 -0.36475272862E+02 -0.36698900608E+02  0.47552019277E+02  0.70281216364E+02  0.10000000000E+01 0.  0.
    9000005    1    3    3    0    0  0.36475272862E+02  0.36698900608E+02 -0.23789829333E+02  0.56957974120E+02  0.10000000000E+01 0.  0.
<mgrwt>
<rscale>  0 0.12500068E+03</rscale>
<asrwt>0</asrwt>
<pdfrwt beam="1">  1        4 0.11615491E-01 0.12500068E+03</pdfrwt>
<pdfrwt beam="2">  1       -4 0.79597693E-02 0.12500068E+03</pdfrwt>
<totfact> 0.10403794E+04</totfact>
</mgrwt>
</event>
<event>
 5    1  0.3236337E-002  0.1249977E+03  0.7818608E-02  0.1235073E+00
          4   -1    0    0  501    0  0.00000000000E+00  0.00000000000E+00  0.24718370239E+03  0.24718696492E+03  0.12700000000E+01 0. -1.
         -4   -1    0    0    0  501 -0.00000000000E+00 -0.00000000000E+00 -0.15773545909E+02  0.15824590059E+02  0.12700000000E+01 0. -1.
         25    2    1    2    0    0  0.00000000000E+00  0.00000000000E+00  0.23141015648E+03  0.26301155498E+03  0.12499767010E+03 0.  0.
    9000005    1    3    3    0    0 -0.89326371450E+01  0.31130156705E+02  0.32525630310E+01  0.32564671488E+02  0.10000000000E+01 0.  0.
    9000005    1    3    3    0    0  0.89326371450E+01 -0.31130156705E+02  0.22815759345E+03  0.23044688349E+03  0.10000000000E+01 0.  0.
<mgrwt>
<rscale>  0 0.12499767E+03</rscale>
<asrwt>0</asrwt>
<pdfrwt beam="1">  1        4 0.38032438E-01 0.12499767E+03</pdfrwt>
<pdfrwt beam="2">  1       -4 0.24308769E-02 0.12499767E+03</pdfrwt>
<totfact> 0.80489455E+03</totfact>
</mgrwt>
</event>
<event>
 5    1  0.3236337E-002  0.1249901E+03  0.7818608E-02  0.1235085E+00
         -4   -1    0    0    0  501 -0.00000000000E+00  0.00000000000E+00  0.44799167319E+01  0.46564529338E+01  0.12700000000E+01 0. -1.
          4   -1    0    0  501    0  0.00000000000E+00 -0.00000000000E+00 -0.85478647026E+03  0.85478741371E+03  0.12700000000E+01 0. -1.
         25    2    1    2    0    0  0.00000000000E+00  0.00000000000E+00 -0.85030655353E+03  0.85944386664E+03  0.12499009937E+03 0.  0.
    9000005    1    3    3    0    0 -0.39484967134E+02 -0.35264162551E+02 -0.19689098798E+03  0.20388645109E+03  0.10000000000E+01 0.  0.
    9000005    1    3    3    0    0  0.39484967134E+02  0.35264162551E+02 -0.65341556554E+03  0.65555741555E+03  0.10000000000E+01 0.  0.
<mgrwt>
<rscale>  0 0.12499010E+03</rscale>
<asrwt>0</asrwt>
<pdfrwt beam="2">  1        4 0.13151914E+00 0.12499010E+03</pdfrwt>
<pdfrwt beam="1">  1       -4 0.70287092E-03 0.12499010E+03</pdfrwt>
<totfact> 0.35751719E+03</totfact>
</mgrwt>
</event>
<event>
 5    1  0.3236337E-002  0.1249994E+03  0.7818608E-02  0.1235070E+00
         -4   -1    0    0    0  501 -0.00000000000E+00  0.00000000000E+00  0.39927032053E+03  0.39927234033E+03  0.12700000000E+01 0. -1.
          4   -1    0    0  501    0  0.00000000000E+00 -0.00000000000E+00 -0.97401141829E+01  0.98225620027E+01  0.12700000000E+01 0. -1.
         25    2    1    2    0    0  0.00000000000E+00  0.00000000000E+00  0.38953020634E+03  0.40909490233E+03  0.12499942984E+03 0.  0.
    9000005    1    3    3    0    0 -0.38816247094E+02  0.20176715776E+02  0.48716719257E+02  0.65483735638E+02  0.10000000000E+01 0.  0.
    9000005    1    3    3    0    0  0.38816247094E+02 -0.20176715776E+02  0.34081348709E+03  0.34361116670E+03  0.10000000000E+01 0.  0.
<mgrwt>
<rscale>  0 0.12499943E+03</rscale>
<asrwt>0</asrwt>
<pdfrwt beam="2">  1        4 0.15049769E-02 0.12499943E+03</pdfrwt>
<pdfrwt beam="1">  1       -4 0.61432688E-01 0.12499943E+03</pdfrwt>
<totfact> 0.63678546E+03</totfact>
</mgrwt>
</event>
<event>
 5    1  0.3236337E-002  0.1249994E+03  0.7818608E-02  0.1235070E+00
          4   -1    0    0  501    0  0.00000000000E+00  0.00000000000E+00  0.23718625771E+02  0.23752602140E+02  0.12700000000E+01 0.  1.
         -4   -1    0    0    0  501 -0.00000000000E+00 -0.00000000000E+00 -0.16453529531E+03  0.16454019662E+03  0.12700000000E+01 0.  1.
         25    2    1    2    0    0  0.00000000000E+00  0.00000000000E+00 -0.14081666954E+03  0.18829279876E+03  0.12499937457E+03 0.  0.
    9000005    1    3    3    0    0  0.31708285248E+02  0.36264822343E+02 -0.13037275988E+03  0.13899139977E+03  0.10000000000E+01 0.  0.
    9000005    1    3    3    0    0 -0.31708285248E+02 -0.36264822343E+02 -0.10443909664E+02  0.49301398986E+02  0.10000000000E+01 0.  0.
<mgrwt>
<rscale>  0 0.12499937E+03</rscale>
<asrwt>0</asrwt>
<pdfrwt beam="1">  1        4 0.36520100E-02 0.12499937E+03</pdfrwt>
<pdfrwt beam="2">  1       -4 0.25316112E-01 0.12499937E+03</pdfrwt>
<totfact> 0.92146504E+03</totfact>
</mgrwt>
</event>
<event>
 5    1  0.3236337E-002  0.1250011E+03  0.7818608E-02  0.1235068E+00
         -4   -1    0    0    0  501 -0.00000000000E+00  0.00000000000E+00  0.17189367546E+01  0.21372046150E+01  0.12700000000E+01 0.  1.
          4   -1    0    0  501    0  0.00000000000E+00 -0.00000000000E+00 -0.20256070955E+04  0.20256074936E+04  0.12700000000E+01 0.  1.
         25    2    1    2    0    0  0.00000000000E+00  0.00000000000E+00 -0.20238881587E+04  0.20277446982E+04  0.12500112856E+03 0.  0.
    9000005    1    3    3    0    0 -0.41550946962E+02 -0.65689647022E+01 -0.26227732968E+03  0.26563138022E+03  0.10000000000E+01 0.  0.
    9000005    1    3    3    0    0  0.41550946962E+02  0.65689647022E+01 -0.17616108290E+04  0.17621133180E+04  0.10000000000E+01 0.  0.
<mgrwt>
<rscale>  0 0.12500113E+03</rscale>
<asrwt>0</asrwt>
<pdfrwt beam="2">  1        4 0.31166236E+00 0.12500113E+03</pdfrwt>
<pdfrwt beam="1">  1       -4 0.29665850E-03 0.12500113E+03</pdfrwt>
<totfact> 0.95032939E+02</totfact>
</mgrwt>
</event>
<event>
 5    1  0.3236337E-002  0.1249977E+03  0.7818608E-02  0.1235073E+00
          4   -1    0    0  501    0  0.00000000000E+00  0.00000000000E+00  0.16182122711E+03  0.16182621062E+03  0.12700000000E+01 0.  1.
         -4   -1    0    0    0  501 -0.00000000000E+00 -0.00000000000E+00 -0.24116327745E+02  0.24149744593E+02  0.12700000000E+01 0.  1.
         25    2    1    2    0    0  0.00000000000E+00  0.00000000000E+00  0.13770489936E+03  0.18597595521E+03  0.12499766641E+03 0.  0.
    9000005    1    3    3    0    0  0.22270410361E+02 -0.15169482929E+02 -0.15035872174E+02  0.30873319258E+02  0.10000000000E+01 0.  0.
    9000005    1    3    3    0    0 -0.22270410361E+02  0.15169482929E+02  0.15274077154E+03  0.15510263595E+03  0.10000000000E+01 0.  0.
<mgrwt>
<rscale>  0 0.12499767E+03</rscale>
<asrwt>0</asrwt>
<pdfrwt beam="1">  1        4 0.24898527E-01 0.12499767E+03</pdfrwt>
<pdfrwt beam="2">  1       -4 0.37131582E-02 0.12499767E+03</pdfrwt>
<totfact> 0.92557078E+03</totfact>
</mgrwt>
</event>
<event>
 4    1  0.3236337E-002  0.1248439E+03  0.7818608E-02  0.1235314E+00
          4   -1    0    0  501    0  0.00000000000E+00  0.00000000000E+00  0.22435447064E+02  0.22471363664E+02  0.12700000000E+01 0. -1.
         -4   -1    0    0    0  501 -0.00000000000E+00 -0.00000000000E+00 -0.17349878269E+03  0.17350343079E+03  0.12700000000E+01 0. -1.
    9000005    1    1    2    0    0 -0.20369895099E+02 -0.45882125276E+02 -0.13374826002E+03  0.14286251819E+03  0.10000000000E+01 0.  0.
    9000005    1    1    2    0    0  0.20369895099E+02  0.45882125276E+02 -0.17315075609E+02  0.53112276260E+02  0.10000000000E+01 0.  0.
<mgrwt>
<rscale>  0 0.12484386E+03</rscale>
<asrwt>0</asrwt>
<pdfrwt beam="1">  1        4 0.34547277E-02 0.12484386E+03</pdfrwt>
<pdfrwt beam="2">  1       -4 0.26695240E-01 0.12484386E+03</pdfrwt>
<totfact> 0.91136179E+03</totfact>
</mgrwt>
</event>
<event>
 5    1  0.3236337E-002  0.1250093E+03  0.7818608E-02  0.1235055E+00
          4   -1    0    0  501    0  0.00000000000E+00  0.00000000000E+00  0.18308879295E+03  0.18309319759E+03  0.12700000000E+01 0.  1.
         -4   -1    0    0    0  501 -0.00000000000E+00 -0.00000000000E+00 -0.21314892629E+02  0.21352694157E+02  0.12700000000E+01 0.  1.
         25    2    1    2    0    0  0.00000000000E+00  0.00000000000E+00  0.16177390033E+03  0.20444589175E+03  0.12500931096E+03 0.  0.
    9000005    1    3    3    0    0  0.47426924995E+02 -0.36999564410E+02  0.53154167415E+02  0.80278555634E+02  0.10000000000E+01 0.  0.
    9000005    1    3    3    0    0 -0.47426924995E+02  0.36999564410E+02  0.10861973291E+03  0.12416733612E+03  0.10000000000E+01 0.  0.
<mgrwt>
<rscale>  0 0.12500931E+03</rscale>
<asrwt>0</asrwt>
<pdfrwt beam="1">  1        4 0.28170754E-01 0.12500931E+03</pdfrwt>
<pdfrwt beam="2">  1       -4 0.32824608E-02 0.12500931E+03</pdfrwt>
<totfact> 0.89372434E+03</totfact>
</mgrwt>
</event>
<event>
 5    1  0.3236337E-002  0.1250002E+03  0.7818608E-02  0.1235069E+00
         -4   -1    0    0    0  501 -0.00000000000E+00  0.00000000000E+00  0.10514786835E+03  0.10515553774E+03  0.12700000000E+01 0.  1.
          4   -1    0    0  501    0  0.00000000000E+00 -0.00000000000E+00 -0.37130284403E+02  0.37151997522E+02  0.12700000000E+01 0.  1.
         25    2    1    2    0    0  0.00000000000E+00  0.00000000000E+00  0.68017583944E+02  0.14230753526E+03  0.12500017147E+03 0.  0.
    9000005    1    3    3    0    0  0.58198222811E+02 -0.17353365202E+02  0.17234836276E+02  0.63136455425E+02  0.10000000000E+01 0.  0.
    9000005    1    3    3    0    0 -0.58198222811E+02  0.17353365202E+02  0.50782747668E+02  0.79171079839E+02  0.10000000000E+01 0.  0.
<mgrwt>
<rscale>  0 0.12500017E+03</rscale>
<asrwt>0</asrwt>
<pdfrwt beam="2">  1        4 0.57146117E-02 0.12500017E+03</pdfrwt>
<pdfrwt beam="1">  1       -4 0.16178855E-01 0.12500017E+03</pdfrwt>
<totfact> 0.10085944E+04</totfact>
</mgrwt>
</event>
<event>
 5    1  0.3236337E-002  0.1250123E+03  0.7818608E-02  0.1235050E+00
         -4   -1    0    0    0  501 -0.00000000000E+00  0.00000000000E+00  0.27784721653E+02  0.27813731453E+02  0.12700000000E+01 0. -1.
          4   -1    0    0  501    0  0.00000000000E+00 -0.00000000000E+00 -0.14051219374E+03  0.14051793298E+03  0.12700000000E+01 0. -1.
         25    2    1    2    0    0  0.00000000000E+00  0.00000000000E+00 -0.11272747208E+03  0.16833166443E+03  0.12501226455E+03 0.  0.
    9000005    1    3    3    0    0  0.44308201307E+02  0.59722267872E+01  0.24398233506E+01  0.44786570910E+02  0.10000000000E+01 0.  0.
    9000005    1    3    3    0    0 -0.44308201307E+02 -0.59722267872E+01 -0.11516729543E+03  0.12354509352E+03  0.10000000000E+01 0.  0.
<mgrwt>
<rscale>  0 0.12501226E+03</rscale>
<asrwt>0</asrwt>
<pdfrwt beam="2">  1        4 0.21619933E-01 0.12501226E+03</pdfrwt>
<pdfrwt beam="1">  1       -4 0.42772456E-02 0.12501226E+03</pdfrwt>
<totfact> 0.95733753E+03</totfact>
</mgrwt>
</event>
<event>
 5    1  0.3236337E-002  0.1249999E+03  0.7818608E-02  0.1235070E+00
         -4   -1    0    0    0  501 -0.00000000000E+00  0.00000000000E+00  0.21208893192E+02  0.21246883311E+02  0.12700000000E+01 0.  1.
          4   -1    0    0  501    0  0.00000000000E+00 -0.00000000000E+00 -0.18397438267E+03  0.18397876611E+03  0.12700000000E+01 0.  1.
         25    2    1    2    0    0  0.00000000000E+00  0.00000000000E+00 -0.16276548948E+03  0.20522564942E+03  0.12499985046E+03 0.  0.
    9000005    1    3    3    0    0  0.25523246822E+02 -0.52865009682E+02 -0.11656094019E+03  0.13051282755E+03  0.10000000000E+01 0.  0.
    9000005    1    3    3    0    0 -0.25523246822E+02  0.52865009682E+02 -0.46204549290E+02  0.74712821872E+02  0.10000000000E+01 0.  0.
<mgrwt>
<rscale>  0 0.12499985E+03</rscale>
<asrwt>0</asrwt>
<pdfrwt beam="2">  1        4 0.28307010E-01 0.12499985E+03</pdfrwt>
<pdfrwt beam="1">  1       -4 0.32661663E-02 0.12499985E+03</pdfrwt>
<totfact> 0.89261878E+03</totfact>
</mgrwt>
</event>
<event>
 5    1  0.3236337E-002  0.1250041E+03  0.7818608E-02  0.1235063E+00
          4   -1    0    0  501    0  0.00000000000E+00  0.00000000000E+00  0.86183486920E+02  0.86192843774E+02  0.12700000000E+01 0.  1.
         -4   -1    0    0    0  501 -0.00000000000E+00 -0.00000000000E+00 -0.45307094021E+02  0.45324890167E+02  0.12700000000E+01 0.  1.
         25    2    1    2    0    0  0.00000000000E+00  0.00000000000E+00  0.40876392899E+02  0.13151773394E+03  0.12500413931E+03 0.  0.
    9000005    1    3    3    0    0  0.19666904170E+02 -0.46136933710E+02  0.59665071886E+02  0.77950783030E+02  0.10000000000E+01 0.  0.
    9000005    1    3    3    0    0 -0.19666904170E+02  0.46136933710E+02 -0.18788678987E+02  0.53566950911E+02  0.10000000000E+01 0.  0.
<mgrwt>
<rscale>  0 0.12500414E+03</rscale>
<asrwt>0</asrwt>
<pdfrwt beam="1">  1        4 0.13261087E-01 0.12500414E+03</pdfrwt>
<pdfrwt beam="2">  1       -4 0.69724108E-02 0.12500414E+03</pdfrwt>
<totfact> 0.10311040E+04</totfact>
</mgrwt>
</event>
<event>
 5    1  0.3236337E-002  0.1250021E+03  0.7818608E-02  0.1235066E+00
          4   -1    0    0  501    0  0.00000000000E+00  0.00000000000E+00  0.14868962712E+03  0.14869505073E+03  0.12700000000E+01 0.  1.
         -4   -1    0    0    0  501 -0.00000000000E+00 -0.00000000000E+00 -0.26250787120E+02  0.26281490148E+02  0.12700000000E+01 0.  1.
         25    2    1    2    0    0  0.00000000000E+00  0.00000000000E+00  0.12243884000E+03  0.17497654088E+03  0.12500208126E+03 0.  0.
    9000005    1    3    3    0    0 -0.46790446629E+02  0.38574450528E+02  0.82357900465E+02  0.10227980201E+03  0.10000000000E+01 0.  0.
    9000005    1    3    3    0    0  0.46790446629E+02 -0.38574450528E+02  0.40080939534E+02  0.72696738876E+02  0.10000000000E+01 0.  0.
<mgrwt>
<rscale>  0 0.12500208E+03</rscale>
<asrwt>0</asrwt>
<pdfrwt beam="1">  1        4 0.22878106E-01 0.12500208E+03</pdfrwt>
<pdfrwt beam="2">  1       -4 0.40413617E-02 0.12500208E+03</pdfrwt>
<totfact> 0.94524724E+03</totfact>
</mgrwt>
</event>
<event>
 5    1  0.3236337E-002  0.1250022E+03  0.7818608E-02  0.1235066E+00
         -4   -1    0    0    0  501 -0.00000000000E+00  0.00000000000E+00  0.53401959378E+02  0.53417058749E+02  0.12700000000E+01 0. -1.
          4   -1    0    0  501    0  0.00000000000E+00 -0.00000000000E+00 -0.73119728427E+02  0.73130756766E+02  0.12700000000E+01 0. -1.
         25    2    1    2    0    0  0.00000000000E+00  0.00000000000E+00 -0.19717769049E+02  0.12654781552E+03  0.12500223676E+03 0.  0.
    9000005    1    3    3    0    0 -0.51729687101E+02  0.14409743761E+02 -0.42219545649E+02  0.68316112870E+02  0.10000000000E+01 0.  0.
    9000005    1    3    3    0    0  0.51729687101E+02 -0.14409743761E+02  0.22501776600E+02  0.58231702645E+02  0.10000000000E+01 0.  0.
<mgrwt>
<rscale>  0 0.12500224E+03</rscale>
<asrwt>0</asrwt>
<pdfrwt beam="2">  1        4 0.11251199E-01 0.12500224E+03</pdfrwt>
<pdfrwt beam="1">  1       -4 0.82176959E-02 0.12500224E+03</pdfrwt>
<totfact> 0.10418460E+04</totfact>
</mgrwt>
</event>
<event>
 5    1  0.3236337E-002  0.1250006E+03  0.7818608E-02  0.1235068E+00
          4   -1    0    0  501    0  0.00000000000E+00  0.00000000000E+00  0.81615893231E+02  0.81625773674E+02  0.12700000000E+01 0.  1.
         -4   -1    0    0    0  501 -0.00000000000E+00 -0.00000000000E+00 -0.47840652932E+02  0.47857506965E+02  0.12700000000E+01 0.  1.
         25    2    1    2    0    0  0.00000000000E+00  0.00000000000E+00  0.33775240300E+02  0.12948328064E+03  0.12500061243E+03 0.  0.
    9000005    1    3    3    0    0 -0.19147421769E+02 -0.54261056667E+02 -0.83670542933E+01  0.58154050835E+02  0.10000000000E+01 0.  0.
    9000005    1    3    3    0    0  0.19147421769E+02  0.54261056667E+02  0.42142294593E+02  0.71329229805E+02  0.10000000000E+01 0.  0.
<mgrwt>
<rscale>  0 0.12500061E+03</rscale>
<asrwt>0</asrwt>
<pdfrwt beam="1">  1        4 0.12558348E-01 0.12500061E+03</pdfrwt>
<pdfrwt beam="2">  1       -4 0.73621569E-02 0.12500061E+03</pdfrwt>
<totfact> 0.10355430E+04</totfact>
</mgrwt>
</event>
<event>
 5    1  0.3236337E-002  0.1250017E+03  0.7818608E-02  0.1235067E+00
         -4   -1    0    0    0  501 -0.00000000000E+00  0.00000000000E+00  0.26030757863E+03  0.26031067667E+03  0.12700000000E+01 0. -1.
          4   -1    0    0  501    0  0.00000000000E+00 -0.00000000000E+00 -0.14976624226E+02  0.15030375019E+02  0.12700000000E+01 0. -1.
         25    2    1    2    0    0  0.00000000000E+00  0.00000000000E+00  0.24533095440E+03  0.27534105169E+03  0.12500167023E+03 0.  0.
    9000005    1    3    3    0    0  0.22631213138E+02 -0.24745352665E+02  0.65088639842E+01  0.34174107113E+02  0.10000000000E+01 0.  0.
    9000005    1    3    3    0    0 -0.22631213138E+02  0.24745352665E+02  0.23882209042E+03  0.24116694458E+03  0.10000000000E+01 0.  0.
<mgrwt>
<rscale>  0 0.12500167E+03</rscale>
<asrwt>0</asrwt>
<pdfrwt beam="2">  1        4 0.23084690E-02 0.12500167E+03</pdfrwt>
<pdfrwt beam="1">  1       -4 0.40051694E-01 0.12500167E+03</pdfrwt>
<totfact> 0.78797002E+03</totfact>
</mgrwt>
</event>
<event>
 5    1  0.3236337E-002  0.1250013E+03  0.7818608E-02  0.1235067E+00
          4   -1    0    0  501    0  0.00000000000E+00  0.00000000000E+00  0.11528476784E+03  0.11529176291E+03  0.12700000000E+01 0. -1.
         -4   -1    0    0    0  501 -0.00000000000E+00 -0.00000000000E+00 -0.33864242728E+02  0.33888048565E+02  0.12700000000E+01 0. -1.
         25    2    1    2    0    0  0.00000000000E+00  0.00000000000E+00  0.81420525109E+02  0.14917981148E+03  0.12500125697E+03 0.  0.
    9000005    1    3    3    0    0  0.21492310024E+01 -0.56679165954E+02  0.72017675016E+02  0.91677110348E+02  0.10000000000E+01 0.  0.
    9000005    1    3    3    0    0 -0.21492310024E+01  0.56679165954E+02  0.94028500934E+01  0.57502701128E+02  0.10000000000E+01 0.  0.
<mgrwt>
<rscale>  0 0.12500126E+03</rscale>
<asrwt>0</asrwt>
<pdfrwt beam="1">  1        4 0.17738487E-01 0.12500126E+03</pdfrwt>
<pdfrwt beam="2">  1       -4 0.52122529E-02 0.12500126E+03</pdfrwt>
<totfact> 0.99464628E+03</totfact>
</mgrwt>
</event>
<event>
 5    1  0.3236337E-002  0.1250076E+03  0.7818608E-02  0.1235057E+00
          4   -1    0    0  501    0  0.00000000000E+00  0.00000000000E+00  0.41162440448E+02  0.41182027677E+02  0.12700000000E+01 0.  1.
         -4   -1    0    0    0  501 -0.00000000000E+00 -0.00000000000E+00 -0.94863478043E+02  0.94871978826E+02  0.12700000000E+01 0.  1.
         25    2    1    2    0    0  0.00000000000E+00  0.00000000000E+00 -0.53701037595E+02  0.13605400650E+03  0.12500756476E+03 0.  0.
    9000005    1    3    3    0    0  0.33718827683E+02 -0.51453134758E+02 -0.14861761635E+02  0.63294994870E+02  0.10000000000E+01 0.  0.
    9000005    1    3    3    0    0 -0.33718827683E+02  0.51453134758E+02 -0.38839275960E+02  0.72759011633E+02  0.10000000000E+01 0.  0.
<mgrwt>
<rscale>  0 0.12500756E+03</rscale>
<asrwt>0</asrwt>
<pdfrwt beam="1">  1        4 0.63348438E-02 0.12500756E+03</pdfrwt>
<pdfrwt beam="2">  1       -4 0.14596542E-01 0.12500756E+03</pdfrwt>
<totfact> 0.10214160E+04</totfact>
</mgrwt>
</event>
<event>
 5    1  0.3236337E-002  0.1250007E+03  0.7818608E-02  0.1235068E+00
         -4   -1    0    0    0  501 -0.00000000000E+00  0.00000000000E+00  0.21532486667E+01  0.24998759611E+01  0.12700000000E+01 0. -1.
          4   -1    0    0  501    0  0.00000000000E+00 -0.00000000000E+00 -0.16786500403E+04  0.16786505207E+04  0.12700000000E+01 0. -1.
         25    2    1    2    0    0  0.00000000000E+00  0.00000000000E+00 -0.16764967916E+04  0.16811503967E+04  0.12500065556E+03 0.  0.
    9000005    1    3    3    0    0 -0.10438767397E+02 -0.61539787954E+02 -0.79750483459E+03  0.79994441967E+03  0.10000000000E+01 0.  0.
    9000005    1    3    3    0    0  0.10438767397E+02  0.61539787954E+02 -0.87899195704E+03  0.88120597700E+03  0.10000000000E+01 0.  0.
<mgrwt>
<rscale>  0 0.12500066E+03</rscale>
<asrwt>0</asrwt>
<pdfrwt beam="2">  1        4 0.25827958E+00 0.12500066E+03</pdfrwt>
<pdfrwt beam="1">  1       -4 0.35797096E-03 0.12500066E+03</pdfrwt>
<totfact> 0.14624733E+03</totfact>
</mgrwt>
</event>
<event>
 5    1  0.3236337E-002  0.1249957E+03  0.7818608E-02  0.1235076E+00
         -4   -1    0    0    0  501 -0.00000000000E+00  0.00000000000E+00  0.11435338358E+03  0.11436043562E+03  0.12700000000E+01 0. -1.
          4   -1    0    0  501    0  0.00000000000E+00 -0.00000000000E+00 -0.34137192417E+02  0.34160808042E+02  0.12700000000E+01 0. -1.
         25    2    1    2    0    0  0.00000000000E+00  0.00000000000E+00  0.80216191159E+02  0.14852124366E+03  0.12499568991E+03 0.  0.
    9000005    1    3    3    0    0  0.53217951827E+02 -0.19503108010E+02  0.71375409429E+02  0.91148070138E+02  0.10000000000E+01 0.  0.
    9000005    1    3    3    0    0 -0.53217951827E+02  0.19503108010E+02  0.88407817297E+01  0.57373173525E+02  0.10000000000E+01 0.  0.
<mgrwt>
<rscale>  0 0.12499569E+03</rscale>
<asrwt>0</asrwt>
<pdfrwt beam="2">  1        4 0.52542349E-02 0.12499569E+03</pdfrwt>
<pdfrwt beam="1">  1       -4 0.17595187E-01 0.12499569E+03</pdfrwt>
<totfact> 0.99608950E+03</totfact>
</mgrwt>
</event>
<event>
 5    1  0.3236337E-002  0.1249894E+03  0.7818608E-02  0.1235086E+00
          4   -1    0    0  501    0  0.00000000000E+00  0.00000000000E+00  0.27025170056E+03  0.27025468461E+03  0.12700000000E+01 0.  1.
         -4   -1    0    0    0  501 -0.00000000000E+00 -0.00000000000E+00 -0.14420687273E+02  0.14476502389E+02  0.12700000000E+01 0.  1.
         25    2    1    2    0    0  0.00000000000E+00  0.00000000000E+00  0.25583101328E+03  0.28473118700E+03  0.12498936552E+03 0.  0.
    9000005    1    3    3    0    0  0.50612156895E+02 -0.14789302233E+02  0.51532355069E+02  0.73735320607E+02  0.10000000000E+01 0.  0.
    9000005    1    3    3    0    0 -0.50612156895E+02  0.14789302233E+02  0.20429865821E+03  0.21099586639E+03  0.10000000000E+01 0.  0.
<mgrwt>
<rscale>  0 0.12498937E+03</rscale>
<asrwt>0</asrwt>
<pdfrwt beam="1">  1        4 0.41581707E-01 0.12498937E+03</pdfrwt>
<pdfrwt beam="2">  1       -4 0.22230903E-02 0.12498937E+03</pdfrwt>
<totfact> 0.77573267E+03</totfact>
</mgrwt>
</event>
<event>
 5    1  0.3236337E-002  0.1250017E+03  0.7818608E-02  0.1235067E+00
         -4   -1    0    0    0  501 -0.00000000000E+00  0.00000000000E+00  0.64323046134E+03  0.64323171509E+03  0.12700000000E+01 0. -1.
          4   -1    0    0  501    0  0.00000000000E+00 -0.00000000000E+00 -0.60053584787E+01  0.61381781058E+01  0.12700000000E+01 0. -1.
         25    2    1    2    0    0  0.00000000000E+00  0.00000000000E+00  0.63722510287E+03  0.64936989320E+03  0.12500170587E+03 0.  0.
    9000005    1    3    3    0    0 -0.42009782015E+01 -0.51783173372E+02  0.49903389643E+03  0.50173197531E+03  0.10000000000E+01 0.  0.
    9000005    1    3    3    0    0  0.42009782015E+01  0.51783173372E+02  0.13819120643E+03  0.14763791788E+03  0.10000000000E+01 0.  0.
<mgrwt>
<rscale>  0 0.12500171E+03</rscale>
<asrwt>0</asrwt>
<pdfrwt beam="2">  1        4 0.93421450E-03 0.12500171E+03</pdfrwt>
<pdfrwt beam="1">  1       -4 0.98968861E-01 0.12500171E+03</pdfrwt>
<totfact> 0.45890619E+03</totfact>
</mgrwt>
</event>
<event>
 5    1  0.3236337E-002  0.1249548E+03  0.7818608E-02  0.1235140E+00
         -4   -1    0    0    0  501 -0.00000000000E+00  0.00000000000E+00  0.10822798193E+04  0.10822805645E+04  0.12700000000E+01 0.  1.
          4   -1    0    0  501    0  0.00000000000E+00 -0.00000000000E+00 -0.34941008417E+01  0.37177467224E+01  0.12700000000E+01 0.  1.
         25    2    1    2    0    0  0.00000000000E+00  0.00000000000E+00  0.10787857185E+04  0.10859983112E+04  0.12495481382E+03 0.  0.
    9000005    1    3    3    0    0 -0.40914679463E+02 -0.46630402663E+02  0.60327172140E+03  0.60645377012E+03  0.10000000000E+01 0.  0.
    9000005    1    3    3    0    0  0.40914679463E+02  0.46630402663E+02  0.47551399707E+03  0.47954454105E+03  0.10000000000E+01 0.  0.
<mgrwt>
<rscale>  0 0.12495481E+03</rscale>
<asrwt>0</asrwt>
<pdfrwt beam="2">  1        4 0.55481474E-03 0.12495481E+03</pdfrwt>
<pdfrwt beam="1">  1       -4 0.16652187E+00 0.12495481E+03</pdfrwt>
<totfact> 0.27924337E+03</totfact>
</mgrwt>
</event>
<event>
 5    1  0.3236337E-002  0.1249963E+03  0.7818608E-02  0.1235075E+00
          4   -1    0    0  501    0  0.00000000000E+00  0.00000000000E+00  0.92382567364E+01  0.93251427618E+01  0.12700000000E+01 0. -1.
         -4   -1    0    0    0  501 -0.00000000000E+00 -0.00000000000E+00 -0.42074200994E+03  0.42074392666E+03  0.12700000000E+01 0. -1.
         25    2    1    2    0    0  0.00000000000E+00  0.00000000000E+00 -0.41150375320E+03  0.43006906943E+03  0.12499626226E+03 0.  0.
    9000005    1    3    3    0    0 -0.44280964293E+02  0.43588790495E+02 -0.22863415973E+03  0.23692903041E+03  0.10000000000E+01 0.  0.
    9000005    1    3    3    0    0  0.44280964293E+02 -0.43588790495E+02 -0.18286959347E+03  0.19314003901E+03  0.10000000000E+01 0.  0.
<mgrwt>
<rscale>  0 0.12499626E+03</rscale>
<asrwt>0</asrwt>
<pdfrwt beam="1">  1        4 0.14281016E-02 0.12499626E+03</pdfrwt>
<pdfrwt beam="2">  1       -4 0.64736356E-01 0.12499626E+03</pdfrwt>
<totfact> 0.61734825E+03</totfact>
</mgrwt>
</event>
<event>
 5    1  0.3236337E-002  0.1249998E+03  0.7818608E-02  0.1235070E+00
         -4   -1    0    0    0  501 -0.00000000000E+00  0.00000000000E+00  0.24993250472E+01  0.28034845624E+01  0.12700000000E+01 0. -1.
          4   -1    0    0  501    0  0.00000000000E+00 -0.00000000000E+00 -0.14729672695E+04  0.14729678170E+04  0.12700000000E+01 0. -1.
         25    2    1    2    0    0  0.00000000000E+00  0.00000000000E+00 -0.14704679445E+04  0.14757713016E+04  0.12499983541E+03 0.  0.
    9000005    1    3    3    0    0 -0.23368069550E+02 -0.53365731732E+02 -0.46828054362E+03  0.47189155060E+03  0.10000000000E+01 0.  0.
    9000005    1    3    3    0    0  0.23368069550E+02  0.53365731732E+02 -0.10021874009E+04  0.10038797510E+04  0.10000000000E+01 0.  0.
<mgrwt>
<rscale>  0 0.12499984E+03</rscale>
<asrwt>0</asrwt>
<pdfrwt beam="2">  1        4 0.22663313E+00 0.12499984E+03</pdfrwt>
<pdfrwt beam="1">  1       -4 0.40795172E-03 0.12499984E+03</pdfrwt>
<totfact> 0.18411146E+03</totfact>
</mgrwt>
</event>
<event>
 5    1  0.3236337E-002  0.1250033E+03  0.7818608E-02  0.1235064E+00
         -4   -1    0    0    0  501 -0.00000000000E+00  0.00000000000E+00  0.42955237882E+02  0.42974007975E+02  0.12700000000E+01 0. -1.
          4   -1    0    0  501    0  0.00000000000E+00 -0.00000000000E+00 -0.90899386433E+02  0.90908257897E+02  0.12700000000E+01 0. -1.
         25    2    1    2    0    0  0.00000000000E+00  0.00000000000E+00 -0.47944148552E+02  0.13388226587E+03  0.12500327890E+03 0.  0.
    9000005    1    3    3    0    0 -0.35876007621E+02 -0.97600080078E+01  0.29826365070E+02  0.47675546482E+02  0.10000000000E+01 0.  0.
    9000005    1    3    3    0    0  0.35876007621E+02  0.97600080078E+01 -0.77770513621E+02  0.86206719390E+02  0.10000000000E+01 0.  0.
<mgrwt>
<rscale>  0 0.12500328E+03</rscale>
<asrwt>0</asrwt>
<pdfrwt beam="2">  1        4 0.13986647E-01 0.12500328E+03</pdfrwt>
<pdfrwt beam="1">  1       -4 0.66106245E-02 0.12500328E+03</pdfrwt>
<totfact> 0.10260925E+04</totfact>
</mgrwt>
</event>
<event>
 5    1  0.3236337E-002  0.1249911E+03  0.7818608E-02  0.1235083E+00
          4   -1    0    0  501    0  0.00000000000E+00  0.00000000000E+00  0.32084684709E+02  0.32109809917E+02  0.12700000000E+01 0. -1.
         -4   -1    0    0    0  501 -0.00000000000E+00 -0.00000000000E+00 -0.12165461052E+03  0.12166123936E+03  0.12700000000E+01 0. -1.
         25    2    1    2    0    0  0.00000000000E+00  0.00000000000E+00 -0.89569925816E+02  0.15377104927E+03  0.12499105562E+03 0.  0.
    9000005    1    3    3    0    0 -0.36149803436E+02  0.61452278836E+01 -0.10703300676E+03  0.11314431780E+03  0.10000000000E+01 0.  0.
    9000005    1    3    3    0    0  0.36149803436E+02 -0.61452278836E+01  0.17463080945E+02  0.40626731474E+02  0.10000000000E+01 0.  0.
<mgrwt>
<rscale>  0 0.12499106E+03</rscale>
<asrwt>0</asrwt>
<pdfrwt beam="1">  1        4 0.49385480E-02 0.12499106E+03</pdfrwt>
<pdfrwt beam="2">  1       -4 0.18718536E-01 0.12499106E+03</pdfrwt>
<totfact> 0.98577071E+03</totfact>
</mgrwt>
</event>
<event>
 5    1  0.3236337E-002  0.1250014E+03  0.7818608E-02  0.1235067E+00
         -4   -1    0    0    0  501 -0.00000000000E+00  0.00000000000E+00  0.59276924673E+02  0.59290527900E+02  0.12700000000E+01 0. -1.
          4   -1    0    0  501    0  0.00000000000E+00 -0.00000000000E+00 -0.65872471163E+02  0.65884712621E+02  0.12700000000E+01 0. -1.
         25    2    1    2    0    0  0.00000000000E+00  0.00000000000E+00 -0.65955464899E+01  0.12517524052E+03  0.12500135842E+03 0.  0.
    9000005    1    3    3    0    0  0.60336820421E+02  0.14800977448E+02  0.34743308640E+01  0.62230794683E+02  0.10000000000E+01 0.  0.
    9000005    1    3    3    0    0 -0.60336820421E+02 -0.14800977448E+02 -0.10069877354E+02  0.62944445838E+02  0.10000000000E+01 0.  0.
<mgrwt>
<rscale>  0 0.12500136E+03</rscale>
<asrwt>0</asrwt>
<pdfrwt beam="2">  1        4 0.10136214E-01 0.12500136E+03</pdfrwt>
<pdfrwt beam="1">  1       -4 0.91215150E-02 0.12500136E+03</pdfrwt>
<totfact> 0.10448737E+04</totfact>
</mgrwt>
</event>
<event>
 5    1  0.3236337E-002  0.1249981E+03  0.7818608E-02  0.1235072E+00
          4   -1    0    0  501    0  0.00000000000E+00  0.00000000000E+00  0.28499137893E+02  0.28527421206E+02  0.12700000000E+01 0.  1.
         -4   -1    0    0    0  501 -0.00000000000E+00 -0.00000000000E+00 -0.13696208435E+03  0.13696797235E+03  0.12700000000E+01 0.  1.
         25    2    1    2    0    0  0.00000000000E+00  0.00000000000E+00 -0.10846294646E+03  0.16549539356E+03  0.12499805812E+03 0.  0.
    9000005    1    3    3    0    0 -0.84082850105E+01  0.17391511698E+02  0.24453322352E+02  0.31178981863E+02  0.10000000000E+01 0.  0.
    9000005    1    3    3    0    0  0.84082850105E+01 -0.17391511698E+02 -0.13291626881E+03  0.13431641170E+03  0.10000000000E+01 0.  0.
<mgrwt>
<rscale>  0 0.12499806E+03</rscale>
<asrwt>0</asrwt>
<pdfrwt beam="1">  1        4 0.43871114E-02 0.12499806E+03</pdfrwt>
<pdfrwt beam="2">  1       -4 0.21073718E-01 0.12499806E+03</pdfrwt>
<totfact> 0.96297856E+03</totfact>
</mgrwt>
</event>
<event>
 5    1  0.3236337E-002  0.1250019E+03  0.7818608E-02  0.1235066E+00
          4   -1    0    0  501    0  0.00000000000E+00  0.00000000000E+00  0.16064344811E+03  0.16064846815E+03  0.12700000000E+01 0.  1.
         -4   -1    0    0    0  501 -0.00000000000E+00 -0.00000000000E+00 -0.24295028315E+02  0.24328199704E+02  0.12700000000E+01 0.  1.
         25    2    1    2    0    0  0.00000000000E+00  0.00000000000E+00  0.13634841979E+03  0.18497666786E+03  0.12500190427E+03 0.  0.
    9000005    1    3    3    0    0  0.61812209048E+02 -0.91935022197E+01  0.67707788161E+02  0.92144529127E+02  0.10000000000E+01 0.  0.
    9000005    1    3    3    0    0 -0.61812209048E+02  0.91935022197E+01  0.68640631632E+02  0.92832138730E+02  0.10000000000E+01 0.  0.
<mgrwt>
<rscale>  0 0.12500190E+03</rscale>
<asrwt>0</asrwt>
<pdfrwt beam="1">  1        4 0.24717315E-01 0.12500190E+03</pdfrwt>
<pdfrwt beam="2">  1       -4 0.37406344E-02 0.12500190E+03</pdfrwt>
<totfact> 0.92724822E+03</totfact>
</mgrwt>
</event>
<event>
 5    1  0.3236337E-002  0.1249932E+03  0.7818608E-02  0.1235080E+00
         -4   -1    0    0    0  501 -0.00000000000E+00  0.00000000000E+00  0.72963058854E+02  0.72974110871E+02  0.12700000000E+01 0. -1.
          4   -1    0    0  501    0  0.00000000000E+00 -0.00000000000E+00 -0.53508914449E+02  0.53523983648E+02  0.12700000000E+01 0. -1.
         25    2    1    2    0    0  0.00000000000E+00  0.00000000000E+00  0.19454144405E+02  0.12649809452E+03  0.12499321654E+03 0.  0.
    9000005    1    3    3    0    0 -0.15637668107E+02 -0.29927673408E+02  0.62939804172E+02  0.71432634339E+02  0.10000000000E+01 0.  0.
    9000005    1    3    3    0    0  0.15637668107E+02  0.29927673408E+02 -0.43485659767E+02  0.55065460179E+02  0.10000000000E+01 0.  0.
<mgrwt>
<rscale>  0 0.12499322E+03</rscale>
<asrwt>0</asrwt>
<pdfrwt beam="2">  1        4 0.82341500E-02 0.12499322E+03</pdfrwt>
<pdfrwt beam="1">  1       -4 0.11227095E-01 0.12499322E+03</pdfrwt>
<totfact> 0.10421665E+04</totfact>
</mgrwt>
</event>
<event>
 5    1  0.3236337E-002  0.1249996E+03  0.7818608E-02  0.1235070E+00
          4   -1    0    0  501    0  0.00000000000E+00  0.00000000000E+00  0.25300803863E+02  0.25332658292E+02  0.12700000000E+01 0. -1.
         -4   -1    0    0    0  501 -0.00000000000E+00 -0.00000000000E+00 -0.15425978035E+03  0.15426500813E+03  0.12700000000E+01 0. -1.
         25    2    1    2    0    0  0.00000000000E+00  0.00000000000E+00 -0.12895897649E+03  0.17959766642E+03  0.12499961667E+03 0.  0.
    9000005    1    3    3    0    0  0.19090759372E+02  0.52650930334E+02 -0.10431366954E+03  0.11840151693E+03  0.10000000000E+01 0.  0.
    9000005    1    3    3    0    0 -0.19090759372E+02 -0.52650930334E+02 -0.24645306949E+02  0.61196149495E+02  0.10000000000E+01 0.  0.
<mgrwt>
<rscale>  0 0.12499962E+03</rscale>
<asrwt>0</asrwt>
<pdfrwt beam="1">  1        4 0.38952839E-02 0.12499962E+03</pdfrwt>
<pdfrwt beam="2">  1       -4 0.23735126E-01 0.12499962E+03</pdfrwt>
<totfact> 0.93690280E+03</totfact>
</mgrwt>
</event>
<event>
 5    1  0.3236337E-002  0.1250018E+03  0.7818608E-02  0.1235066E+00
          4   -1    0    0  501    0  0.00000000000E+00  0.00000000000E+00  0.29115072015E+03  0.29115349001E+03  0.12700000000E+01 0.  1.
         -4   -1    0    0    0  501 -0.00000000000E+00 -0.00000000000E+00 -0.13384091444E+02  0.13444210790E+02  0.12700000000E+01 0.  1.
         25    2    1    2    0    0  0.00000000000E+00  0.00000000000E+00  0.27776662871E+03  0.30459770080E+03  0.12500183722E+03 0.  0.
    9000005    1    3    3    0    0  0.54663983835E+01  0.16971928181E+02  0.28483273131E+03  0.28539203332E+03  0.10000000000E+01 0.  0.
    9000005    1    3    3    0    0 -0.54663983835E+01 -0.16971928181E+02 -0.70661025995E+01  0.19205667482E+02  0.10000000000E+01 0.  0.
<mgrwt>
<rscale>  0 0.12500184E+03</rscale>
<asrwt>0</asrwt>
<pdfrwt beam="1">  1        4 0.44797255E-01 0.12500184E+03</pdfrwt>
<pdfrwt beam="2">  1       -4 0.20639287E-02 0.12500184E+03</pdfrwt>
<totfact> 0.75022648E+03</totfact>
</mgrwt>
</event>
<event>
 5    1  0.3236337E-002  0.1249966E+03  0.7818608E-02  0.1235075E+00
          4   -1    0    0  501    0  0.00000000000E+00  0.00000000000E+00  0.13511755927E+02  0.13571309747E+02  0.12700000000E+01 0.  1.
         -4   -1    0    0    0  501 -0.00000000000E+00 -0.00000000000E+00 -0.28838765198E+03  0.28839044838E+03  0.12700000000E+01 0.  1.
         25    2    1    2    0    0  0.00000000000E+00  0.00000000000E+00 -0.27487589606E+03  0.30196175813E+03  0.12499658050E+03 0.  0.
    9000005    1    3    3    0    0 -0.57193547026E+02 -0.15218288213E+02 -0.18589415654E+03  0.19509058294E+03  0.10000000000E+01 0.  0.
    9000005    1    3    3    0    0  0.57193547026E+02  0.15218288213E+02 -0.88981739518E+02  0.10687117518E+03  0.10000000000E+01 0.  0.
<mgrwt>
<rscale>  0 0.12499658E+03</rscale>
<asrwt>0</asrwt>
<pdfrwt beam="1">  1        4 0.20835281E-02 0.12499658E+03</pdfrwt>
<pdfrwt beam="2">  1       -4 0.44372123E-01 0.12499658E+03</pdfrwt>
<totfact> 0.75359138E+03</totfact>
</mgrwt>
</event>
<event>
 5    1  0.3236337E-002  0.1250028E+03  0.7818608E-02  0.1235065E+00
          4   -1    0    0  501    0  0.00000000000E+00  0.00000000000E+00  0.13019959685E+03  0.13020579066E+03  0.12700000000E+01 0.  1.
         -4   -1    0    0    0  501 -0.00000000000E+00 -0.00000000000E+00 -0.29982989084E+02  0.30009873948E+02  0.12700000000E+01 0.  1.
         25    2    1    2    0    0  0.00000000000E+00  0.00000000000E+00  0.10021660777E+03  0.16021566460E+03  0.12500276282E+03 0.  0.
    9000005    1    3    3    0    0 -0.36105733909E+02  0.40350639502E+02  0.10115567403E+02  0.55091948896E+02  0.10000000000E+01 0.  0.
    9000005    1    3    3    0    0  0.36105733909E+02 -0.40350639502E+02  0.90101040364E+02  0.10512371571E+03  0.10000000000E+01 0.  0.
<mgrwt>
<rscale>  0 0.12500276E+03</rscale>
<asrwt>0</asrwt>
<pdfrwt beam="1">  1        4 0.20033251E-01 0.12500276E+03</pdfrwt>
<pdfrwt beam="2">  1       -4 0.46153121E-02 0.12500276E+03</pdfrwt>
<totfact> 0.97295181E+03</totfact>
</mgrwt>
</event>
<event>
 5    1  0.3236337E-002  0.1249992E+03  0.7818608E-02  0.1235070E+00
         -4   -1    0    0    0  501 -0.00000000000E+00  0.00000000000E+00  0.34367407968E+01  0.36638896414E+01  0.12700000000E+01 0.  1.
          4   -1    0    0  501    0  0.00000000000E+00 -0.00000000000E+00 -0.11000131622E+04  0.11000138954E+04  0.12700000000E+01 0.  1.
         25    2    1    2    0    0  0.00000000000E+00  0.00000000000E+00 -0.10965764214E+04  0.11036777850E+04  0.12499922022E+03 0.  0.
    9000005    1    3    3    0    0  0.57576512722E+02  0.19102798336E+02 -0.41577850947E+03  0.42018179478E+03  0.10000000000E+01 0.  0.
    9000005    1    3    3    0    0 -0.57576512722E+02 -0.19102798336E+02 -0.68079791197E+03  0.68349599024E+03  0.10000000000E+01 0.  0.
<mgrwt>
<rscale>  0 0.12499922E+03</rscale>
<asrwt>0</asrwt>
<pdfrwt beam="2">  1        4 0.16925005E+00 0.12499922E+03</pdfrwt>
<pdfrwt beam="1">  1       -4 0.54625961E-03 0.12499922E+03</pdfrwt>
<totfact> 0.27376518E+03</totfact>
</mgrwt>
</event>
<event>
 5    1  0.3236337E-002  0.1250009E+03  0.7818608E-02  0.1235068E+00
          4   -1    0    0  501    0  0.00000000000E+00  0.00000000000E+00  0.20660886702E+03  0.20661277026E+03  0.12700000000E+01 0.  1.
         -4   -1    0    0    0  501 -0.00000000000E+00 -0.00000000000E+00 -0.18881349087E+02  0.18924012348E+02  0.12700000000E+01 0.  1.
         25    2    1    2    0    0  0.00000000000E+00  0.00000000000E+00  0.18772751794E+03  0.22553678260E+03  0.12500087726E+03 0.  0.
    9000005    1    3    3    0    0  0.17044036682E+02  0.22300968066E+02 -0.68770961589E+01  0.28915857495E+02  0.10000000000E+01 0.  0.
    9000005    1    3    3    0    0 -0.17044036682E+02 -0.22300968066E+02  0.19460461410E+03  0.19662092511E+03  0.10000000000E+01 0.  0.
<mgrwt>
<rscale>  0 0.12500088E+03</rscale>
<asrwt>0</asrwt>
<pdfrwt beam="1">  1        4 0.31789559E-01 0.12500088E+03</pdfrwt>
<pdfrwt beam="2">  1       -4 0.29084052E-02 0.12500088E+03</pdfrwt>
<totfact> 0.85997991E+03</totfact>
</mgrwt>
</event>
<event>
 5    1  0.3236337E-002  0.1249949E+03  0.7818608E-02  0.1235077E+00
          4   -1    0    0  501    0  0.00000000000E+00  0.00000000000E+00  0.42047005489E+02  0.42066180841E+02  0.12700000000E+01 0.  1.
         -4   -1    0    0    0  501 -0.00000000000E+00 -0.00000000000E+00 -0.92849688903E+02  0.92858374040E+02  0.12700000000E+01 0.  1.
         25    2    1    2    0    0  0.00000000000E+00  0.00000000000E+00 -0.50802683414E+02  0.13492455488E+03  0.12499489137E+03 0.  0.
    9000005    1    3    3    0    0  0.99301745649E+01 -0.59551648990E+02 -0.42804235276E+02  0.74014929723E+02  0.10000000000E+01 0.  0.
    9000005    1    3    3    0    0 -0.99301745649E+01  0.59551648990E+02 -0.79984481381E+01  0.60909625158E+02  0.10000000000E+01 0.  0.
<mgrwt>
<rscale>  0 0.12499489E+03</rscale>
<asrwt>0</asrwt>
<pdfrwt beam="1">  1        4 0.64709132E-02 0.12499489E+03</pdfrwt>
<pdfrwt beam="2">  1       -4 0.14286711E-01 0.12499489E+03</pdfrwt>
<totfact> 0.10240841E+04</totfact>
</mgrwt>
</event>
<event>
 5    1  0.3236337E-002  0.1250019E+03  0.7818608E-02  0.1235066E+00
          4   -1    0    0  501    0  0.00000000000E+00  0.00000000000E+00  0.45055297563E+01  0.46811001255E+01  0.12700000000E+01 0.  1.
         -4   -1    0    0    0  501 -0.00000000000E+00 -0.00000000000E+00 -0.85027085614E+03  0.85027180460E+03  0.12700000000E+01 0.  1.
         25    2    1    2    0    0  0.00000000000E+00  0.00000000000E+00 -0.84576532638E+03  0.85495290473E+03  0.12500192794E+03 0.  0.
    9000005    1    3    3    0    0  0.20376855091E+02 -0.32127474330E+02 -0.76197238331E+03  0.76292221343E+03  0.10000000000E+01 0.  0.
    9000005    1    3    3    0    0 -0.20376855091E+02  0.32127474330E+02 -0.83792943076E+02  0.92030691292E+02  0.10000000000E+01 0.  0.
<mgrwt>
<rscale>  0 0.12500193E+03</rscale>
<asrwt>0</asrwt>
<pdfrwt beam="1">  1        4 0.70673747E-03 0.12500193E+03</pdfrwt>
<pdfrwt beam="2">  1       -4 0.13082435E+00 0.12500193E+03</pdfrwt>
<totfact> 0.35924018E+03</totfact>
</mgrwt>
</event>
<event>
 5    1  0.3236337E-002  0.1250038E+03  0.7818608E-02  0.1235063E+00
          4   -1    0    0  501    0  0.00000000000E+00  0.00000000000E+00  0.11253774281E+03  0.11254490862E+03  0.12700000000E+01 0. -1.
         -4   -1    0    0    0  501 -0.00000000000E+00 -0.00000000000E+00 -0.34692808813E+02  0.34716046482E+02  0.12700000000E+01 0. -1.
         25    2    1    2    0    0  0.00000000000E+00  0.00000000000E+00  0.77844933999E+02  0.14726095511E+03  0.12500382054E+03 0.  0.
    9000005    1    3    3    0    0  0.57473927400E+02 -0.10794246497E+02  0.64885631913E+02  0.87355098975E+02  0.10000000000E+01 0.  0.
    9000005    1    3    3    0    0 -0.57473927400E+02  0.10794246497E+02  0.12959302086E+02  0.59905856131E+02  0.10000000000E+01 0.  0.
<mgrwt>
<rscale>  0 0.12500382E+03</rscale>
<asrwt>0</asrwt>
<pdfrwt beam="1">  1        4 0.17315838E-01 0.12500382E+03</pdfrwt>
<pdfrwt beam="2">  1       -4 0.53396939E-02 0.12500382E+03</pdfrwt>
<totfact> 0.99843926E+03</totfact>
</mgrwt>
</event>
<event>
 5    1  0.3236337E-002  0.1249999E+03  0.7818608E-02  0.1235069E+00
          4   -1    0    0  501    0  0.00000000000E+00  0.00000000000E+00  0.22285679952E+04  0.22285683571E+04  0.12700000000E+01 0. -1.
         -4   -1    0    0    0  501 -0.00000000000E+00 -0.00000000000E+00 -0.15223495095E+01  0.19825357573E+01  0.12700000000E+01 0. -1.
         25    2    1    2    0    0  0.00000000000E+00  0.00000000000E+00  0.22270456457E+04  0.22305508928E+04  0.12499991000E+03 0.  0.
    9000005    1    3    3    0    0  0.18503584779E+02  0.32365218869E+02  0.20084795200E+04  0.20088257446E+04  0.10000000000E+01 0.  0.
    9000005    1    3    3    0    0 -0.18503584779E+02 -0.32365218869E+02  0.21856612571E+03  0.22172514822E+03  0.10000000000E+01 0.  0.
<mgrwt>
<rscale>  0 0.12499991E+03</rscale>
<asrwt>0</asrwt>
<pdfrwt beam="1">  1        4 0.34289100E+00 0.12499991E+03</pdfrwt>
<pdfrwt beam="2">  1       -4 0.26963522E-03 0.12499991E+03</pdfrwt>
<totfact> 0.71442649E+02</totfact>
</mgrwt>
</event>
<event>
 5    1  0.3236337E-002  0.1250045E+03  0.7818608E-02  0.1235062E+00
          4   -1    0    0  501    0  0.00000000000E+00  0.00000000000E+00  0.51001616205E+01  0.52559060641E+01  0.12700000000E+01 0.  1.
         -4   -1    0    0    0  501 -0.00000000000E+00 -0.00000000000E+00 -0.75428708601E+03  0.75428815517E+03  0.12700000000E+01 0.  1.
         25    2    1    2    0    0  0.00000000000E+00  0.00000000000E+00 -0.74918692439E+03  0.75954406123E+03  0.12500453300E+03 0.  0.
    9000005    1    3    3    0    0  0.97595032411E+00 -0.58137271591E+02 -0.51376719811E+03  0.51704799457E+03  0.10000000000E+01 0.  0.
    9000005    1    3    3    0    0 -0.97595032411E+00  0.58137271591E+02 -0.23541972628E+03  0.24249606667E+03  0.10000000000E+01 0.  0.
<mgrwt>
<rscale>  0 0.12500453E+03</rscale>
<asrwt>0</asrwt>
<pdfrwt beam="1">  1        4 0.79670343E-03 0.12500453E+03</pdfrwt>
<pdfrwt beam="2">  1       -4 0.11605614E+00 0.12500453E+03</pdfrwt>
<totfact> 0.40117804E+03</totfact>
</mgrwt>
</event>
<event>
 5    1  0.3236337E-002  0.1250003E+03  0.7818608E-02  0.1235069E+00
         -4   -1    0    0    0  501 -0.00000000000E+00  0.00000000000E+00  0.46438992104E+01  0.48144262251E+01  0.12700000000E+01 0.  1.
          4   -1    0    0  501    0  0.00000000000E+00 -0.00000000000E+00 -0.82582431703E+03  0.82582529357E+03  0.12700000000E+01 0.  1.
         25    2    1    2    0    0  0.00000000000E+00  0.00000000000E+00 -0.82118041782E+03  0.83063971979E+03  0.12500026196E+03 0.  0.
    9000005    1    3    3    0    0  0.53355183217E+02  0.26022509083E+02 -0.28082852897E+03  0.28703590235E+03  0.10000000000E+01 0.  0.
    9000005    1    3    3    0    0 -0.53355183217E+02 -0.26022509083E+02 -0.54035188885E+03  0.54360381744E+03  0.10000000000E+01 0.  0.
<mgrwt>
<rscale>  0 0.12500026E+03</rscale>
<asrwt>0</asrwt>
<pdfrwt beam="2">  1        4 0.12706297E+00 0.12500026E+03</pdfrwt>
<pdfrwt beam="1">  1       -4 0.72763927E-03 0.12500026E+03</pdfrwt>
<totfact> 0.36932738E+03</totfact>
</mgrwt>
</event>
<event>
 5    1  0.3236337E-002  0.1250012E+03  0.7818608E-02  0.1235067E+00
          4   -1    0    0  501    0  0.00000000000E+00  0.00000000000E+00  0.65100656908E+02  0.65113043470E+02  0.12700000000E+01 0.  1.
         -4   -1    0    0    0  501 -0.00000000000E+00 -0.00000000000E+00 -0.59979561828E+02  0.59993005734E+02  0.12700000000E+01 0.  1.
         25    2    1    2    0    0  0.00000000000E+00  0.00000000000E+00  0.51210950805E+01  0.12510604920E+03  0.12500119173E+03 0.  0.
    9000005    1    3    3    0    0  0.43924092553E+02  0.43516115517E+02 -0.65215489960E+01  0.62181257768E+02  0.10000000000E+01 0.  0.
    9000005    1    3    3    0    0 -0.43924092553E+02 -0.43516115517E+02  0.11642644077E+02  0.62924791437E+02  0.10000000000E+01 0.  0.
<mgrwt>
<rscale>  0 0.12500119E+03</rscale>
<asrwt>0</asrwt>
<pdfrwt beam="1">  1        4 0.10017473E-01 0.12500119E+03</pdfrwt>
<pdfrwt beam="2">  1       -4 0.92296119E-02 0.12500119E+03</pdfrwt>
<totfact> 0.10450278E+04</totfact>
</mgrwt>
</event>
<event>
 5    1  0.3236337E-002  0.1250056E+03  0.7818608E-02  0.1235061E+00
         -4   -1    0    0    0  501 -0.00000000000E+00  0.00000000000E+00  0.52295704234E+02  0.52311122922E+02  0.12700000000E+01 0.  1.
          4   -1    0    0  501    0  0.00000000000E+00 -0.00000000000E+00 -0.74670280669E+02  0.74681080035E+02  0.12700000000E+01 0.  1.
         25    2    1    2    0    0  0.00000000000E+00  0.00000000000E+00 -0.22374576434E+02  0.12699220296E+03  0.12500559164E+03 0.  0.
    9000005    1    3    3    0    0 -0.13301759540E+00  0.62189390720E+02 -0.49198448840E+01  0.62391849511E+02  0.10000000000E+01 0.  0.
    9000005    1    3    3    0    0  0.13301759540E+00 -0.62189390720E+02 -0.17454731550E+02  0.64600353445E+02  0.10000000000E+01 0.  0.
<mgrwt>
<rscale>  0 0.12500559E+03</rscale>
<asrwt>0</asrwt>
<pdfrwt beam="2">  1        4 0.11489752E-01 0.12500559E+03</pdfrwt>
<pdfrwt beam="1">  1       -4 0.80475098E-02 0.12500559E+03</pdfrwt>
<totfact> 0.10408001E+04</totfact>
</mgrwt>
</event>
<event>
 5    1  0.3236337E-002  0.1249996E+03  0.7818608E-02  0.1235070E+00
         -4   -1    0    0    0  501 -0.00000000000E+00  0.00000000000E+00  0.39239099463E+03  0.39239304985E+03  0.12700000000E+01 0. -1.
          4   -1    0    0  501    0  0.00000000000E+00 -0.00000000000E+00 -0.99123357638E+01  0.99933628122E+01  0.12700000000E+01 0. -1.
         25    2    1    2    0    0  0.00000000000E+00  0.00000000000E+00  0.38247865887E+03  0.40238641266E+03  0.12499960241E+03 0.  0.
    9000005    1    3    3    0    0 -0.61923720389E+02 -0.63134953590E+01  0.20910977387E+03  0.21817952447E+03  0.10000000000E+01 0.  0.
    9000005    1    3    3    0    0  0.61923720389E+02  0.63134953590E+01  0.17336888500E+03  0.18420688819E+03  0.10000000000E+01 0.  0.
<mgrwt>
<rscale>  0 0.12499960E+03</rscale>
<asrwt>0</asrwt>
<pdfrwt beam="2">  1        4 0.15313656E-02 0.12499960E+03</pdfrwt>
<pdfrwt beam="1">  1       -4 0.60374241E-01 0.12499960E+03</pdfrwt>
<totfact> 0.64321910E+03</totfact>
</mgrwt>
</event>
<event>
 5    1  0.3236337E-002  0.1249998E+03  0.7818608E-02  0.1235070E+00
          4   -1    0    0  501    0  0.00000000000E+00  0.00000000000E+00  0.80410334277E+02  0.80420362835E+02  0.12700000000E+01 0. -1.
         -4   -1    0    0    0  501 -0.00000000000E+00 -0.00000000000E+00 -0.48557434074E+02  0.48574039402E+02  0.12700000000E+01 0. -1.
         25    2    1    2    0    0  0.00000000000E+00  0.00000000000E+00  0.31852900203E+02  0.12899440224E+03  0.12499979423E+03 0.  0.
    9000005    1    3    3    0    0  0.33797732826E+02 -0.27390721493E+02  0.62223248292E+02  0.75929381639E+02  0.10000000000E+01 0.  0.
    9000005    1    3    3    0    0 -0.33797732826E+02  0.27390721493E+02 -0.30370348088E+02  0.53065020598E+02  0.10000000000E+01 0.  0.
<mgrwt>
<rscale>  0 0.12499979E+03</rscale>
<asrwt>0</asrwt>
<pdfrwt beam="1">  1        4 0.12372869E-01 0.12499979E+03</pdfrwt>
<pdfrwt beam="2">  1       -4 0.74724233E-02 0.12499979E+03</pdfrwt>
<totfact> 0.10366115E+04</totfact>
</mgrwt>
</event>
<event>
 5    1  0.3236337E-002  0.1250149E+03  0.7818608E-02  0.1235046E+00
         -4   -1    0    0    0  501 -0.00000000000E+00  0.00000000000E+00  0.67734623373E+02  0.67746528350E+02  0.12700000000E+01 0. -1.
          4   -1    0    0  501    0  0.00000000000E+00 -0.00000000000E+00 -0.57659729715E+02  0.57673714384E+02  0.12700000000E+01 0. -1.
         25    2    1    2    0    0  0.00000000000E+00  0.00000000000E+00  0.10074893658E+02  0.12542024273E+03  0.12501493433E+03 0.  0.
    9000005    1    3    3    0    0  0.14302649734E+02 -0.40121538668E+02  0.50922802528E+02  0.66396050122E+02  0.10000000000E+01 0.  0.
    9000005    1    3    3    0    0 -0.14302649734E+02  0.40121538668E+02 -0.40847908870E+02  0.59024192612E+02  0.10000000000E+01 0.  0.
<mgrwt>
<rscale>  0 0.12501493E+03</rscale>
<asrwt>0</asrwt>
<pdfrwt beam="2">  1        4 0.88727191E-02 0.12501493E+03</pdfrwt>
<pdfrwt beam="1">  1       -4 0.10422703E-01 0.12501493E+03</pdfrwt>
<totfact> 0.10440202E+04</totfact>
</mgrwt>
</event>
<event>
 5    1  0.3236337E-002  0.1250176E+03  0.7818608E-02  0.1235042E+00
         -4   -1    0    0    0  501 -0.00000000000E+00  0.00000000000E+00  0.21960932119E+02  0.21997623497E+02  0.12700000000E+01 0. -1.
          4   -1    0    0  501    0  0.00000000000E+00 -0.00000000000E+00 -0.17773544164E+03  0.17773997895E+03  0.12700000000E+01 0. -1.
         25    2    1    2    0    0  0.00000000000E+00  0.00000000000E+00 -0.15577450952E+03  0.19973760244E+03  0.12501764680E+03 0.  0.
    9000005    1    3    3    0    0  0.21585946071E+02 -0.31454773338E+02 -0.15698423756E+03  0.16155620284E+03  0.10000000000E+01 0.  0.
    9000005    1    3    3    0    0 -0.21585946071E+02  0.31454773338E+02  0.12097280395E+01  0.38181399601E+02  0.10000000000E+01 0.  0.
<mgrwt>
<rscale>  0 0.12501765E+03</rscale>
<asrwt>0</asrwt>
<pdfrwt beam="2">  1        4 0.27347085E-01 0.12501765E+03</pdfrwt>
<pdfrwt beam="1">  1       -4 0.33817765E-02 0.12501765E+03</pdfrwt>
<totfact> 0.90144179E+03</totfact>
</mgrwt>
</event>
<event>
 5    1  0.3236337E-002  0.1249998E+03  0.7818608E-02  0.1235070E+00
         -4   -1    0    0    0  501 -0.00000000000E+00  0.00000000000E+00  0.14282381925E+02  0.14338735421E+02  0.12700000000E+01 0. -1.
          4   -1    0    0  501    0  0.00000000000E+00 -0.00000000000E+00 -0.27290401995E+03  0.27290697501E+03  0.12700000000E+01 0. -1.
         25    2    1    2    0    0  0.00000000000E+00  0.00000000000E+00 -0.25862163803E+03  0.28724571043E+03  0.12499978601E+03 0.  0.
    9000005    1    3    3    0    0 -0.26546903457E+02 -0.55496189719E+02 -0.10406749265E+03  0.12089502960E+03  0.10000000000E+01 0.  0.
    9000005    1    3    3    0    0  0.26546903457E+02  0.55496189719E+02 -0.15455414538E+03  0.16635068082E+03  0.10000000000E+01 0.  0.
<mgrwt>
<rscale>  0 0.12499979E+03</rscale>
<asrwt>0</asrwt>
<pdfrwt beam="2">  1        4 0.41989792E-01 0.12499979E+03</pdfrwt>
<pdfrwt beam="1">  1       -4 0.22018519E-02 0.12499979E+03</pdfrwt>
<totfact> 0.77227451E+03</totfact>
</mgrwt>
</event>
<event>
 5    1  0.3236337E-002  0.1249971E+03  0.7818608E-02  0.1235074E+00
         -4   -1    0    0    0  501 -0.00000000000E+00  0.00000000000E+00  0.30134411402E+02  0.30161161293E+02  0.12700000000E+01 0.  1.
          4   -1    0    0  501    0  0.00000000000E+00 -0.00000000000E+00 -0.12953416413E+03  0.12954038975E+03  0.12700000000E+01 0.  1.
         25    2    1    2    0    0  0.00000000000E+00  0.00000000000E+00 -0.99399752724E+02  0.15970155104E+03  0.12499709822E+03 0.  0.
    9000005    1    3    3    0    0 -0.16442510170E+02 -0.38365283018E+02 -0.10911802918E+03  0.11683319466E+03  0.10000000000E+01 0.  0.
    9000005    1    3    3    0    0  0.16442510170E+02  0.38365283018E+02  0.97182764556E+01  0.42868356383E+02  0.10000000000E+01 0.  0.
<mgrwt>
<rscale>  0 0.12499710E+03</rscale>
<asrwt>0</asrwt>
<pdfrwt beam="2">  1        4 0.19930869E-01 0.12499710E+03</pdfrwt>
<pdfrwt beam="1">  1       -4 0.46385999E-02 0.12499710E+03</pdfrwt>
<totfact> 0.97406708E+03</totfact>
</mgrwt>
</event>
<event>
 5    1  0.3236337E-002  0.1249973E+03  0.7818608E-02  0.1235073E+00
          4   -1    0    0  501    0  0.00000000000E+00  0.00000000000E+00  0.47100484128E+02  0.47117602922E+02  0.12700000000E+01 0. -1.
         -4   -1    0    0    0  501 -0.00000000000E+00 -0.00000000000E+00 -0.82893805633E+02  0.82903533775E+02  0.12700000000E+01 0. -1.
         25    2    1    2    0    0  0.00000000000E+00  0.00000000000E+00 -0.35793321505E+02  0.13002113670E+03  0.12499733647E+03 0.  0.
    9000005    1    3    3    0    0  0.73795512618E+01  0.38760556524E+02 -0.68302970507E+02  0.78886844905E+02  0.10000000000E+01 0.  0.
    9000005    1    3    3    0    0 -0.73795512618E+01 -0.38760556524E+02  0.32509649002E+02  0.51134291792E+02  0.10000000000E+01 0.  0.
<mgrwt>
<rscale>  0 0.12499734E+03</rscale>
<asrwt>0</asrwt>
<pdfrwt beam="1">  1        4 0.72482935E-02 0.12499734E+03</pdfrwt>
<pdfrwt beam="2">  1       -4 0.12754958E-01 0.12499734E+03</pdfrwt>
<totfact> 0.10344677E+04</totfact>
</mgrwt>
</event>
<event>
 5    1  0.3236337E-002  0.1250016E+03  0.7818608E-02  0.1235067E+00
         -4   -1    0    0    0  501 -0.00000000000E+00  0.00000000000E+00  0.10293742182E+02  0.10371790014E+02  0.12700000000E+01 0.  1.
          4   -1    0    0  501    0  0.00000000000E+00 -0.00000000000E+00 -0.37797527515E+03  0.37797740875E+03  0.12700000000E+01 0.  1.
         25    2    1    2    0    0  0.00000000000E+00  0.00000000000E+00 -0.36768153296E+03  0.38834919876E+03  0.12500156197E+03 0.  0.
    9000005    1    3    3    0    0 -0.50410402076E+02  0.19650569319E+02 -0.86683543364E+02  0.10218801398E+03  0.10000000000E+01 0.  0.
    9000005    1    3    3    0    0  0.50410402076E+02 -0.19650569319E+02 -0.28099798960E+03  0.28616118477E+03  0.10000000000E+01 0.  0.
<mgrwt>
<rscale>  0 0.12500156E+03</rscale>
<asrwt>0</asrwt>
<pdfrwt beam="2">  1        4 0.58156200E-01 0.12500156E+03</pdfrwt>
<pdfrwt beam="1">  1       -4 0.15898207E-02 0.12500156E+03</pdfrwt>
<totfact> 0.65699666E+03</totfact>
</mgrwt>
</event>
<event>
 5    1  0.3236337E-002  0.1250217E+03  0.7818608E-02  0.1235035E+00
          4   -1    0    0  501    0  0.00000000000E+00  0.00000000000E+00  0.46491579414E+02  0.46508922331E+02  0.12700000000E+01 0.  1.
         -4   -1    0    0    0  501 -0.00000000000E+00 -0.00000000000E+00 -0.84012014408E+02  0.84021613082E+02  0.12700000000E+01 0.  1.
         25    2    1    2    0    0  0.00000000000E+00  0.00000000000E+00 -0.37520434994E+02  0.13053053541E+03  0.12502174864E+03 0.  0.
    9000005    1    3    3    0    0 -0.92816546179E+01  0.11057300515E+02  0.44732152189E+02  0.47014662039E+02  0.10000000000E+01 0.  0.
    9000005    1    3    3    0    0  0.92816546179E+01 -0.11057300515E+02 -0.82252587183E+02  0.83515873374E+02  0.10000000000E+01 0.  0.
<mgrwt>
<rscale>  0 0.12502175E+03</rscale>
<asrwt>0</asrwt>
<pdfrwt beam="1">  1        4 0.71546231E-02 0.12502175E+03</pdfrwt>
<pdfrwt beam="2">  1       -4 0.12926998E-01 0.12502175E+03</pdfrwt>
<totfact> 0.10328096E+04</totfact>
</mgrwt>
</event>
<event>
 5    1  0.3236337E-002  0.1249991E+03  0.7818608E-02  0.1235071E+00
          4   -1    0    0  501    0  0.00000000000E+00  0.00000000000E+00  0.14060593857E+04  0.14060599592E+04  0.12700000000E+01 0.  1.
         -4   -1    0    0    0  501 -0.00000000000E+00 -0.00000000000E+00 -0.26323658663E+01  0.29227127902E+01  0.12700000000E+01 0.  1.
         25    2    1    2    0    0  0.00000000000E+00  0.00000000000E+00  0.14034270198E+04  0.14089826720E+04  0.12499908047E+03 0.  0.
    9000005    1    3    3    0    0 -0.52661971652E+02 -0.28359553263E+01  0.32383149553E+03  0.32809931941E+03  0.10000000000E+01 0.  0.
    9000005    1    3    3    0    0  0.52661971652E+02  0.28359553263E+01  0.10795955243E+04  0.10808833526E+04  0.10000000000E+01 0.  0.
<mgrwt>
<rscale>  0 0.12499908E+03</rscale>
<asrwt>0</asrwt>
<pdfrwt beam="1">  1        4 0.21633938E+00 0.12499908E+03</pdfrwt>
<pdfrwt beam="2">  1       -4 0.42735753E-03 0.12499908E+03</pdfrwt>
<totfact> 0.19789352E+03</totfact>
</mgrwt>
</event>
<event>
 5    1  0.3236337E-002  0.1250013E+03  0.7818608E-02  0.1235067E+00
         -4   -1    0    0    0  501 -0.00000000000E+00  0.00000000000E+00  0.44737104866E+01  0.46504822887E+01  0.12700000000E+01 0.  1.
          4   -1    0    0  501    0  0.00000000000E+00 -0.00000000000E+00 -0.85608125734E+03  0.85608219936E+03  0.12700000000E+01 0.  1.
         25    2    1    2    0    0  0.00000000000E+00  0.00000000000E+00 -0.85160754685E+03  0.86073268165E+03  0.12500134163E+03 0.  0.
    9000005    1    3    3    0    0  0.56364480368E+02  0.20291832021E+02 -0.30327916840E+03  0.30914069140E+03  0.10000000000E+01 0.  0.
    9000005    1    3    3    0    0 -0.56364480368E+02 -0.20291832021E+02 -0.54832837845E+03  0.55159199025E+03  0.10000000000E+01 0.  0.
<mgrwt>
<rscale>  0 0.12500134E+03</rscale>
<asrwt>0</asrwt>
<pdfrwt beam="2">  1        4 0.13171835E+00 0.12500134E+03</pdfrwt>
<pdfrwt beam="1">  1       -4 0.70193412E-03 0.12500134E+03</pdfrwt>
<totfact> 0.35691100E+03</totfact>
</mgrwt>
</event>
<event>
 5    1  0.3236337E-002  0.1250031E+03  0.7818608E-02  0.1235064E+00
         -4   -1    0    0    0  501 -0.00000000000E+00  0.00000000000E+00  0.12675156392E+04  0.12675162754E+04  0.12700000000E+01 0. -1.
          4   -1    0    0  501    0  0.00000000000E+00 -0.00000000000E+00 -0.29504713501E+01  0.32121925826E+01  0.12700000000E+01 0. -1.
         25    2    1    2    0    0  0.00000000000E+00  0.00000000000E+00  0.12645651678E+04  0.12707284680E+04  0.12500310282E+03 0.  0.
    9000005    1    3    3    0    0  0.37044005283E+02 -0.39634953543E+02  0.31694386896E+03  0.32155497810E+03  0.10000000000E+01 0.  0.
    9000005    1    3    3    0    0 -0.37044005283E+02  0.39634953543E+02  0.94762129887E+03  0.94917348991E+03  0.10000000000E+01 0.  0.
<mgrwt>
<rscale>  0 0.12500310E+03</rscale>
<asrwt>0</asrwt>
<pdfrwt beam="2">  1        4 0.47410011E-03 0.12500310E+03</pdfrwt>
<pdfrwt beam="1">  1       -4 0.19502255E+00 0.12500310E+03</pdfrwt>
<totfact> 0.22928546E+03</totfact>
</mgrwt>
</event>
<event>
 5    1  0.3236337E-002  0.1250014E+03  0.7818608E-02  0.1235067E+00
          4   -1    0    0  501    0  0.00000000000E+00  0.00000000000E+00  0.23448349963E+03  0.23448693887E+03  0.12700000000E+01 0. -1.
         -4   -1    0    0    0  501 -0.00000000000E+00 -0.00000000000E+00 -0.16631543765E+02  0.16679962470E+02  0.12700000000E+01 0. -1.
         25    2    1    2    0    0  0.00000000000E+00  0.00000000000E+00  0.21785195587E+03  0.25116690134E+03  0.12500135060E+03 0.  0.
    9000005    1    3    3    0    0 -0.36594631200E+02  0.48896891170E+02  0.13552654275E+03  0.14865569881E+03  0.10000000000E+01 0.  0.
    9000005    1    3    3    0    0  0.36594631200E+02 -0.48896891170E+02  0.82325413112E+02  0.10251120252E+03  0.10000000000E+01 0.  0.
<mgrwt>
<rscale>  0 0.12500135E+03</rscale>
<asrwt>0</asrwt>
<pdfrwt beam="1">  1        4 0.36078374E-01 0.12500135E+03</pdfrwt>
<pdfrwt beam="2">  1       -4 0.25626881E-02 0.12500135E+03</pdfrwt>
<totfact> 0.82159394E+03</totfact>
</mgrwt>
</event>
<event>
 5    1  0.3236337E-002  0.1250008E+03  0.7818608E-02  0.1235068E+00
          4   -1    0    0  501    0  0.00000000000E+00  0.00000000000E+00  0.39769253701E+03  0.39769456483E+03  0.12700000000E+01 0. -1.
         -4   -1    0    0    0  501 -0.00000000000E+00 -0.00000000000E+00 -0.97793061214E+01  0.98614262770E+01  0.12700000000E+01 0. -1.
         25    2    1    2    0    0  0.00000000000E+00  0.00000000000E+00  0.38791323089E+03  0.40755599111E+03  0.12500084474E+03 0.  0.
    9000005    1    3    3    0    0 -0.18375202095E+02 -0.49792323756E+02  0.86393231086E+02  0.10139878665E+03  0.10000000000E+01 0.  0.
    9000005    1    3    3    0    0  0.18375202095E+02  0.49792323756E+02  0.30151999980E+03  0.30615720445E+03  0.10000000000E+01 0.  0.
<mgrwt>
<rscale>  0 0.12500084E+03</rscale>
<asrwt>0</asrwt>
<pdfrwt beam="1">  1        4 0.61189943E-01 0.12500084E+03</pdfrwt>
<pdfrwt beam="2">  1       -4 0.15109815E-02 0.12500084E+03</pdfrwt>
<totfact> 0.63823285E+03</totfact>
</mgrwt>
</event>
<event>
 4    1  0.3236337E-002  0.1251893E+03  0.7818608E-02  0.1234774E+00
          4   -1    0    0  501    0  0.00000000000E+00  0.00000000000E+00  0.12858126995E+03  0.12858754171E+03  0.12700000000E+01 0.  1.
         -4   -1    0    0    0  501 -0.00000000000E+00 -0.00000000000E+00 -0.30451472994E+02  0.30477944607E+02  0.12700000000E+01 0.  1.
    9000005    1    1    2    0    0 -0.56629680240E+02 -0.26251073875E+02  0.54894915128E+02  0.83129364671E+02  0.10000000000E+01 0.  0.
    9000005    1    1    2    0    0  0.56629680240E+02  0.26251073875E+02  0.43234881832E+02  0.75936121647E+02  0.10000000000E+01 0.  0.
<mgrwt>
<rscale>  0 0.12518934E+03</rscale>
<asrwt>0</asrwt>
<pdfrwt beam="1">  1        4 0.19784253E-01 0.12518934E+03</pdfrwt>
<pdfrwt beam="2">  1       -4 0.46873607E-02 0.12518934E+03</pdfrwt>
<totfact> 0.97109315E+03</totfact>
</mgrwt>
</event>
<event>
 5    1  0.3236337E-002  0.1249987E+03  0.7818608E-02  0.1235071E+00
         -4   -1    0    0    0  501 -0.00000000000E+00  0.00000000000E+00  0.67351440083E+02  0.67363412780E+02  0.12700000000E+01 0. -1.
          4   -1    0    0  501    0  0.00000000000E+00 -0.00000000000E+00 -0.57972730756E+02  0.57986639938E+02  0.12700000000E+01 0. -1.
         25    2    1    2    0    0  0.00000000000E+00  0.00000000000E+00  0.93787093275E+01  0.12535005272E+03  0.12499870210E+03 0.  0.
    9000005    1    3    3    0    0 -0.52278329081E+02  0.82290258644E+01 -0.28636997959E+02  0.60181543768E+02  0.10000000000E+01 0.  0.
    9000005    1    3    3    0    0  0.52278329081E+02 -0.82290258644E+01  0.38015707287E+02  0.65168508949E+02  0.10000000000E+01 0.  0.
<mgrwt>
<rscale>  0 0.12499870E+03</rscale>
<asrwt>0</asrwt>
<pdfrwt beam="2">  1        4 0.89208726E-02 0.12499870E+03</pdfrwt>
<pdfrwt beam="1">  1       -4 0.10363751E-01 0.12499870E+03</pdfrwt>
<totfact> 0.10445570E+04</totfact>
</mgrwt>
</event>
<event>
 5    1  0.3236337E-002  0.1250006E+03  0.7818608E-02  0.1235068E+00
          4   -1    0    0  501    0  0.00000000000E+00  0.00000000000E+00  0.15094334144E+03  0.15094868408E+03  0.12700000000E+01 0.  1.
         -4   -1    0    0    0  501 -0.00000000000E+00 -0.00000000000E+00 -0.25857785411E+02  0.25888954525E+02  0.12700000000E+01 0.  1.
         25    2    1    2    0    0  0.00000000000E+00  0.00000000000E+00  0.12508555603E+03  0.17683763860E+03  0.12500061640E+03 0.  0.
    9000005    1    3    3    0    0  0.19720523330E+02 -0.40292223547E+02  0.12409296749E+03  0.13195615522E+03  0.10000000000E+01 0.  0.
    9000005    1    3    3    0    0 -0.19720523330E+02  0.40292223547E+02  0.99258853455E+00  0.44881483384E+02  0.10000000000E+01 0.  0.
<mgrwt>
<rscale>  0 0.12500062E+03</rscale>
<asrwt>0</asrwt>
<pdfrwt beam="1">  1        4 0.23224862E-01 0.12500062E+03</pdfrwt>
<pdfrwt beam="2">  1       -4 0.39809294E-02 0.12500062E+03</pdfrwt>
<totfact> 0.94188053E+03</totfact>
</mgrwt>
</event>
<event>
 5    1  0.3236337E-002  0.1249647E+03  0.7818608E-02  0.1235124E+00
         -4   -1    0    0    0  501 -0.00000000000E+00  0.00000000000E+00  0.72945594681E+01  0.74042891511E+01  0.12700000000E+01 0. -1.
          4   -1    0    0  501    0  0.00000000000E+00 -0.00000000000E+00 -0.53109355657E+03  0.53109507503E+03  0.12700000000E+01 0. -1.
         25    2    1    2    0    0  0.00000000000E+00  0.00000000000E+00 -0.52379899710E+03  0.53849936418E+03  0.12496469849E+03 0.  0.
    9000005    1    3    3    0    0  0.52014928368E+00 -0.56694059532E+02 -0.14882418359E+03  0.15926118348E+03  0.10000000000E+01 0.  0.
    9000005    1    3    3    0    0 -0.52014928368E+00  0.56694059532E+02 -0.37497481351E+03  0.37923818071E+03  0.10000000000E+01 0.  0.
<mgrwt>
<rscale>  0 0.12496470E+03</rscale>
<asrwt>0</asrwt>
<pdfrwt beam="2">  1        4 0.81715229E-01 0.12496470E+03</pdfrwt>
<pdfrwt beam="1">  1       -4 0.11307979E-02 0.12496470E+03</pdfrwt>
<totfact> 0.53037433E+03</totfact>
</mgrwt>
</event>
<event>
 5    1  0.3236337E-002  0.1250011E+03  0.7818608E-02  0.1235068E+00
         -4   -1    0    0    0  501 -0.00000000000E+00  0.00000000000E+00  0.36259752028E+02  0.36281986124E+02  0.12700000000E+01 0.  1.
          4   -1    0    0  501    0  0.00000000000E+00 -0.00000000000E+00 -0.10767249254E+03  0.10767998212E+03  0.12700000000E+01 0.  1.
         25    2    1    2    0    0  0.00000000000E+00  0.00000000000E+00 -0.71412740510E+02  0.14396196824E+03  0.12500107517E+03 0.  0.
    9000005    1    3    3    0    0  0.41608101871E+02  0.43715252707E+02 -0.54385696988E+02  0.81246916848E+02  0.10000000000E+01 0.  0.
    9000005    1    3    3    0    0 -0.41608101871E+02 -0.43715252707E+02 -0.17027043523E+02  0.62715051396E+02  0.10000000000E+01 0.  0.
<mgrwt>
<rscale>  0 0.12500108E+03</rscale>
<asrwt>0</asrwt>
<pdfrwt beam="2">  1        4 0.16567285E-01 0.12500108E+03</pdfrwt>
<pdfrwt beam="1">  1       -4 0.55807099E-02 0.12500108E+03</pdfrwt>
<totfact> 0.10051878E+04</totfact>
</mgrwt>
</event>
<event>
 5    1  0.3236337E-002  0.1250073E+03  0.7818608E-02  0.1235058E+00
         -4   -1    0    0    0  501 -0.00000000000E+00  0.00000000000E+00  0.70382048893E+02  0.70393506138E+02  0.12700000000E+01 0. -1.
          4   -1    0    0  501    0  0.00000000000E+00 -0.00000000000E+00 -0.55483896288E+02  0.55498429233E+02  0.12700000000E+01 0. -1.
         25    2    1    2    0    0  0.00000000000E+00  0.00000000000E+00  0.14898152605E+02  0.12589193537E+03  0.12500729755E+03 0.  0.
    9000005    1    3    3    0    0  0.41343357766E+02 -0.22993610187E+02  0.48575883339E+02  0.67812947016E+02  0.10000000000E+01 0.  0.
    9000005    1    3    3    0    0 -0.41343357766E+02  0.22993610187E+02 -0.33677730735E+02  0.58078988354E+02  0.10000000000E+01 0.  0.
<mgrwt>
<rscale>  0 0.12500730E+03</rscale>
<asrwt>0</asrwt>
<pdfrwt beam="2">  1        4 0.85379833E-02 0.12500730E+03</pdfrwt>
<pdfrwt beam="1">  1       -4 0.10830007E-01 0.12500730E+03</pdfrwt>
<totfact> 0.10431609E+04</totfact>
</mgrwt>
</event>
<event>
 5    1  0.3236337E-002  0.1249946E+03  0.7818608E-02  0.1235078E+00
         -4   -1    0    0    0  501 -0.00000000000E+00  0.00000000000E+00  0.88346879788E+03  0.88346971070E+03  0.12700000000E+01 0. -1.
          4   -1    0    0  501    0  0.00000000000E+00 -0.00000000000E+00 -0.43289702016E+01  0.45114169622E+01  0.12700000000E+01 0. -1.
         25    2    1    2    0    0  0.00000000000E+00  0.00000000000E+00  0.87913982768E+03  0.88798112766E+03  0.12499458579E+03 0.  0.
    9000005    1    3    3    0    0 -0.53245022619E+02 -0.21866863248E+02  0.26675927865E+03  0.27290054028E+03  0.10000000000E+01 0.  0.
    9000005    1    3    3    0    0  0.53245022619E+02  0.21866863248E+02  0.61238054903E+03  0.61508058738E+03  0.10000000000E+01 0.  0.
<mgrwt>
<rscale>  0 0.12499459E+03</rscale>
<asrwt>0</asrwt>
<pdfrwt beam="2">  1        4 0.68010014E-03 0.12499459E+03</pdfrwt>
<pdfrwt beam="1">  1       -4 0.13593235E+00 0.12499459E+03</pdfrwt>
<totfact> 0.34625528E+03</totfact>
</mgrwt>
</event>
<event>
 5    1  0.3236337E-002  0.1249926E+03  0.7818608E-02  0.1235081E+00
          4   -1    0    0  501    0  0.00000000000E+00  0.00000000000E+00  0.16913298046E+02  0.16960912440E+02  0.12700000000E+01 0. -1.
         -4   -1    0    0    0  501 -0.00000000000E+00 -0.00000000000E+00 -0.23055599954E+03  0.23055949736E+03  0.12700000000E+01 0. -1.
         25    2    1    2    0    0  0.00000000000E+00  0.00000000000E+00 -0.21364270149E+03  0.24752040980E+03  0.12499259725E+03 0.  0.
    9000005    1    3    3    0    0  0.54344744137E+02  0.14611726249E+02 -0.53027162249E+02  0.77328737837E+02  0.10000000000E+01 0.  0.
    9000005    1    3    3    0    0 -0.54344744137E+02 -0.14611726249E+02 -0.16061553924E+03  0.17019167196E+03  0.10000000000E+01 0.  0.
<mgrwt>
<rscale>  0 0.12499260E+03</rscale>
<asrwt>0</asrwt>
<pdfrwt beam="1">  1        4 0.26059777E-02 0.12499260E+03</pdfrwt>
<pdfrwt beam="2">  1       -4 0.35474083E-01 0.12499260E+03</pdfrwt>
<totfact> 0.82703573E+03</totfact>
</mgrwt>
</event>
<event>
 5    1  0.3236337E-002  0.1250011E+03  0.7818608E-02  0.1235068E+00
          4   -1    0    0  501    0  0.00000000000E+00  0.00000000000E+00  0.12166071151E+03  0.12166734001E+03  0.12700000000E+01 0.  1.
         -4   -1    0    0    0  501 -0.00000000000E+00 -0.00000000000E+00 -0.32088230169E+02  0.32113352602E+02  0.12700000000E+01 0.  1.
         25    2    1    2    0    0  0.00000000000E+00  0.00000000000E+00  0.89572481340E+02  0.15378069261E+03  0.12500108802E+03 0.  0.
    9000005    1    3    3    0    0 -0.27567424144E+02  0.48707294433E+02  0.10583176788E+02  0.56968122980E+02  0.10000000000E+01 0.  0.
    9000005    1    3    3    0    0  0.27567424144E+02 -0.48707294433E+02  0.78989304552E+02  0.96812569631E+02  0.10000000000E+01 0.  0.
<mgrwt>
<rscale>  0 0.12500109E+03</rscale>
<asrwt>0</asrwt>
<pdfrwt beam="1">  1        4 0.18719475E-01 0.12500109E+03</pdfrwt>
<pdfrwt beam="2">  1       -4 0.49390930E-02 0.12500109E+03</pdfrwt>
<totfact> 0.98552929E+03</totfact>
</mgrwt>
</event>
<event>
 5    1  0.3236337E-002  0.1249997E+03  0.7818608E-02  0.1235070E+00
         -4   -1    0    0    0  501 -0.00000000000E+00  0.00000000000E+00  0.42586611738E+03  0.42586801105E+03  0.12700000000E+01 0. -1.
          4   -1    0    0  501    0  0.00000000000E+00 -0.00000000000E+00 -0.91265600685E+01  0.92144993724E+01  0.12700000000E+01 0. -1.
         25    2    1    2    0    0  0.00000000000E+00  0.00000000000E+00  0.41673955732E+03  0.43508251042E+03  0.12499972898E+03 0.  0.
    9000005    1    3    3    0    0  0.71724847290E+01 -0.68402964156E+01  0.42313004221E+03  0.42324728802E+03  0.10000000000E+01 0.  0.
    9000005    1    3    3    0    0 -0.71724847290E+01  0.68402964156E+01 -0.63904848941E+01  0.11835222407E+02  0.10000000000E+01 0.  0.
<mgrwt>
<rscale>  0 0.12499973E+03</rscale>
<asrwt>0</asrwt>
<pdfrwt beam="2">  1        4 0.14109965E-02 0.12499973E+03</pdfrwt>
<pdfrwt beam="1">  1       -4 0.65524768E-01 0.12499973E+03</pdfrwt>
<totfact> 0.61278348E+03</totfact>
</mgrwt>
</event>
<event>
 5    1  0.3236337E-002  0.1250043E+03  0.7818608E-02  0.1235063E+00
         -4   -1    0    0    0  501 -0.00000000000E+00  0.00000000000E+00  0.80033529582E+01  0.81034905179E+01  0.12700000000E+01 0. -1.
          4   -1    0    0  501    0  0.00000000000E+00 -0.00000000000E+00 -0.48497443800E+03  0.48497610087E+03  0.12700000000E+01 0. -1.
         25    2    1    2    0    0  0.00000000000E+00  0.00000000000E+00 -0.47697108504E+03  0.49307959138E+03  0.12500426983E+03 0.  0.
    9000005    1    3    3    0    0 -0.40092720824E+02 -0.37347302297E+02 -0.11993572745E+03  0.13186290597E+03  0.10000000000E+01 0.  0.
    9000005    1    3    3    0    0  0.40092720824E+02  0.37347302297E+02 -0.35703535759E+03  0.36121668542E+03  0.10000000000E+01 0.  0.
<mgrwt>
<rscale>  0 0.12500427E+03</rscale>
<asrwt>0</asrwt>
<pdfrwt beam="2">  1        4 0.74619260E-01 0.12500427E+03</pdfrwt>
<pdfrwt beam="1">  1       -4 0.12391163E-02 0.12500427E+03</pdfrwt>
<totfact> 0.56400044E+03</totfact>
</mgrwt>
</event>
<event>
 5    1  0.3236337E-002  0.1250023E+03  0.7818608E-02  0.1235066E+00
          4   -1    0    0  501    0  0.00000000000E+00  0.00000000000E+00  0.54702429390E+02  0.54717169893E+02  0.12700000000E+01 0. -1.
         -4   -1    0    0    0  501 -0.00000000000E+00 -0.00000000000E+00 -0.71381723329E+02  0.71393020145E+02  0.12700000000E+01 0. -1.
         25    2    1    2    0    0  0.00000000000E+00  0.00000000000E+00 -0.16679293939E+02  0.12611019004E+03  0.12500232472E+03 0.  0.
    9000005    1    3    3    0    0 -0.65337067035E+01  0.52323789614E+02  0.25497540945E+02  0.58579799223E+02  0.10000000000E+01 0.  0.
    9000005    1    3    3    0    0  0.65337067035E+01 -0.52323789614E+02 -0.42176834884E+02  0.67530390815E+02  0.10000000000E+01 0.  0.
<mgrwt>
<rscale>  0 0.12500232E+03</rscale>
<asrwt>0</asrwt>
<pdfrwt beam="1">  1        4 0.84177613E-02 0.12500232E+03</pdfrwt>
<pdfrwt beam="2">  1       -4 0.10983806E-01 0.12500232E+03</pdfrwt>
<totfact> 0.10427997E+04</totfact>
</mgrwt>
</event>
<event>
 5    1  0.3236337E-002  0.1250060E+03  0.7818608E-02  0.1235060E+00
          4   -1    0    0  501    0  0.00000000000E+00  0.00000000000E+00  0.90363293013E+02  0.90372217103E+02  0.12700000000E+01 0. -1.
         -4   -1    0    0    0  501 -0.00000000000E+00 -0.00000000000E+00 -0.43212076430E+02  0.43230735009E+02  0.12700000000E+01 0. -1.
         25    2    1    2    0    0  0.00000000000E+00  0.00000000000E+00  0.47151216583E+02  0.13360295211E+03  0.12500604621E+03 0.  0.
    9000005    1    3    3    0    0 -0.35433021196E+02 -0.75321547263E+01  0.78003237324E+02  0.86010100447E+02  0.10000000000E+01 0.  0.
    9000005    1    3    3    0    0  0.35433021196E+02  0.75321547263E+01 -0.30852020741E+02  0.47592851666E+02  0.10000000000E+01 0.  0.
<mgrwt>
<rscale>  0 0.12500605E+03</rscale>
<asrwt>0</asrwt>
<pdfrwt beam="1">  1        4 0.13904167E-01 0.12500605E+03</pdfrwt>
<pdfrwt beam="2">  1       -4 0.66501336E-02 0.12500605E+03</pdfrwt>
<totfact> 0.10266202E+04</totfact>
</mgrwt>
</event>
<event>
 5    1  0.3236337E-002  0.1250394E+03  0.7818608E-02  0.1235008E+00
         -4   -1    0    0    0  501 -0.00000000000E+00  0.00000000000E+00  0.66258593415E+02  0.66270763549E+02  0.12700000000E+01 0.  1.
          4   -1    0    0  501    0  0.00000000000E+00 -0.00000000000E+00 -0.58967342347E+02  0.58981016976E+02  0.12700000000E+01 0.  1.
         25    2    1    2    0    0  0.00000000000E+00  0.00000000000E+00  0.72912510679E+01  0.12525178052E+03  0.12503937853E+03 0.  0.
    9000005    1    3    3    0    0 -0.42297546442E+02 -0.41733097461E+02 -0.15803269143E+02  0.61493716544E+02  0.10000000000E+01 0.  0.
    9000005    1    3    3    0    0  0.42297546442E+02  0.41733097461E+02  0.23094520211E+02  0.63758063981E+02  0.10000000000E+01 0.  0.
<mgrwt>
<rscale>  0 0.12503938E+03</rscale>
<asrwt>0</asrwt>
<pdfrwt beam="2">  1        4 0.90738869E-02 0.12503938E+03</pdfrwt>
<pdfrwt beam="1">  1       -4 0.10195618E-01 0.12503938E+03</pdfrwt>
<totfact> 0.10438104E+04</totfact>
</mgrwt>
</event>
<event>
 5    1  0.3236337E-002  0.1250019E+03  0.7818608E-02  0.1235066E+00
         -4   -1    0    0    0  501 -0.00000000000E+00  0.00000000000E+00  0.24095901765E+03  0.24096236446E+03  0.12700000000E+01 0. -1.
          4   -1    0    0  501    0  0.00000000000E+00 -0.00000000000E+00 -0.16183421415E+02  0.16233176790E+02  0.12700000000E+01 0. -1.
         25    2    1    2    0    0  0.00000000000E+00  0.00000000000E+00  0.22477559623E+03  0.25719554125E+03  0.12500191109E+03 0.  0.
    9000005    1    3    3    0    0 -0.37313849104E+01 -0.61436935629E+02  0.13463858223E+03  0.14804380472E+03  0.10000000000E+01 0.  0.
    9000005    1    3    3    0    0  0.37313849104E+01  0.61436935629E+02  0.90137014004E+02  0.10915173652E+03  0.10000000000E+01 0.  0.
<mgrwt>
<rscale>  0 0.12500191E+03</rscale>
<asrwt>0</asrwt>
<pdfrwt beam="2">  1        4 0.24938421E-02 0.12500191E+03</pdfrwt>
<pdfrwt beam="1">  1       -4 0.37074700E-01 0.12500191E+03</pdfrwt>
<totfact> 0.81297787E+03</totfact>
</mgrwt>
</event>
<event>
 5    1  0.3236337E-002  0.1250029E+03  0.7818608E-02  0.1235065E+00
          4   -1    0    0  501    0  0.00000000000E+00  0.00000000000E+00  0.22344301866E+02  0.22380364739E+02  0.12700000000E+01 0.  1.
         -4   -1    0    0    0  501 -0.00000000000E+00 -0.00000000000E+00 -0.17464961031E+03  0.17465422778E+03  0.12700000000E+01 0.  1.
         25    2    1    2    0    0  0.00000000000E+00  0.00000000000E+00 -0.15230530845E+03  0.19703459252E+03  0.12500289464E+03 0.  0.
    9000005    1    3    3    0    0  0.30387473063E+02 -0.51276347142E+02 -0.10575781230E+03  0.12140171810E+03  0.10000000000E+01 0.  0.
    9000005    1    3    3    0    0 -0.30387473063E+02  0.51276347142E+02 -0.46547496145E+02  0.75632874418E+02  0.10000000000E+01 0.  0.
<mgrwt>
<rscale>  0 0.12500289E+03</rscale>
<asrwt>0</asrwt>
<pdfrwt beam="1">  1        4 0.34407143E-02 0.12500289E+03</pdfrwt>
<pdfrwt beam="2">  1       -4 0.26872299E-01 0.12500289E+03</pdfrwt>
<totfact> 0.90631648E+03</totfact>
</mgrwt>
</event>
<event>
 5    1  0.3236337E-002  0.1250014E+03  0.7818608E-02  0.1235067E+00
         -4   -1    0    0    0  501 -0.00000000000E+00  0.00000000000E+00  0.66811741685E+02  0.66823811078E+02  0.12700000000E+01 0.  1.
          4   -1    0    0  501    0  0.00000000000E+00 -0.00000000000E+00 -0.58443625987E+02  0.58457423125E+02  0.12700000000E+01 0.  1.
         25    2    1    2    0    0  0.00000000000E+00  0.00000000000E+00  0.83681156981E+01  0.12528123420E+03  0.12500144912E+03 0.  0.
    9000005    1    3    3    0    0 -0.19211374668E+02  0.58450930212E+02  0.15151695894E+02  0.63373196603E+02  0.10000000000E+01 0.  0.
    9000005    1    3    3    0    0  0.19211374668E+02 -0.58450930212E+02 -0.67835801960E+01  0.61908037600E+02  0.10000000000E+01 0.  0.
<mgrwt>
<rscale>  0 0.12500145E+03</rscale>
<asrwt>0</asrwt>
<pdfrwt beam="2">  1        4 0.89933168E-02 0.12500145E+03</pdfrwt>
<pdfrwt beam="1">  1       -4 0.10280719E-01 0.12500145E+03</pdfrwt>
<totfact> 0.10446415E+04</totfact>
</mgrwt>
</event>
<event>
 5    1  0.3236337E-002  0.1250003E+03  0.7818608E-02  0.1235069E+00
         -4   -1    0    0    0  501 -0.00000000000E+00  0.00000000000E+00  0.42015831857E+03  0.42016023797E+03  0.12700000000E+01 0.  1.
          4   -1    0    0  501    0  0.00000000000E+00 -0.00000000000E+00 -0.92518180285E+01  0.93385778806E+01  0.12700000000E+01 0.  1.
         25    2    1    2    0    0  0.00000000000E+00  0.00000000000E+00  0.41090650055E+03  0.42949881585E+03  0.12500032249E+03 0.  0.
    9000005    1    3    3    0    0 -0.58954653776E+02  0.20221382679E+02  0.22109154862E+03  0.22971074940E+03  0.10000000000E+01 0.  0.
    9000005    1    3    3    0    0  0.58954653776E+02 -0.20221382679E+02  0.18981495193E+03  0.19978806645E+03  0.10000000000E+01 0.  0.
<mgrwt>
<rscale>  0 0.12500032E+03</rscale>
<asrwt>0</asrwt>
<pdfrwt beam="2">  1        4 0.14301782E-02 0.12500032E+03</pdfrwt>
<pdfrwt beam="1">  1       -4 0.64646557E-01 0.12500032E+03</pdfrwt>
<totfact> 0.61781009E+03</totfact>
</mgrwt>
</event>
<event>
 5    1  0.3236337E-002  0.1249948E+03  0.7818608E-02  0.1235077E+00
          4   -1    0    0  501    0  0.00000000000E+00  0.00000000000E+00  0.12997560712E+02  0.13059459578E+02  0.12700000000E+01 0. -1.
         -4   -1    0    0    0  501 -0.00000000000E+00 -0.00000000000E+00 -0.29973492865E+03  0.29973761918E+03  0.12700000000E+01 0. -1.
         25    2    1    2    0    0  0.00000000000E+00  0.00000000000E+00 -0.28673736793E+03  0.31279707876E+03  0.12499477713E+03 0.  0.
    9000005    1    3    3    0    0 -0.26152420388E+02  0.40126187180E+02 -0.24380718078E+03  0.24846931679E+03  0.10000000000E+01 0.  0.
    9000005    1    3    3    0    0  0.26152420388E+02 -0.40126187180E+02 -0.42930187158E+02  0.64327761963E+02  0.10000000000E+01 0.  0.
<mgrwt>
<rscale>  0 0.12499478E+03</rscale>
<asrwt>0</asrwt>
<pdfrwt beam="1">  1        4 0.20045934E-02 0.12499478E+03</pdfrwt>
<pdfrwt beam="2">  1       -4 0.46118029E-01 0.12499478E+03</pdfrwt>
<totfact> 0.74029663E+03</totfact>
</mgrwt>
</event>
<event>
 5    1  0.3236337E-002  0.1249988E+03  0.7818608E-02  0.1235071E+00
          4   -1    0    0  501    0  0.00000000000E+00  0.00000000000E+00  0.28454982786E+01  0.31160488529E+01  0.12700000000E+01 0.  1.
         -4   -1    0    0    0  501 -0.00000000000E+00 -0.00000000000E+00 -0.13101868162E+04  0.13101874317E+04  0.12700000000E+01 0.  1.
         25    2    1    2    0    0  0.00000000000E+00  0.00000000000E+00 -0.13073413179E+04  0.13133034806E+04  0.12499884219E+03 0.  0.
    9000005    1    3    3    0    0  0.17231772633E+02  0.42402706179E+02 -0.11006926430E+04  0.11016443245E+04  0.10000000000E+01 0.  0.
    9000005    1    3    3    0    0 -0.17231772633E+02 -0.42402706179E+02 -0.20664867498E+03  0.21165915608E+03  0.10000000000E+01 0.  0.
<mgrwt>
<rscale>  0 0.12499884E+03</rscale>
<asrwt>0</asrwt>
<pdfrwt beam="1">  1        4 0.45862894E-03 0.12499884E+03</pdfrwt>
<pdfrwt beam="2">  1       -4 0.20158760E+00 0.12499884E+03</pdfrwt>
<totfact> 0.21917317E+03</totfact>
</mgrwt>
</event>
<event>
 5    1  0.3236337E-002  0.1250099E+03  0.7818608E-02  0.1235054E+00
          4   -1    0    0  501    0  0.00000000000E+00  0.00000000000E+00  0.43345627187E+03  0.43345813238E+03  0.12700000000E+01 0. -1.
         -4   -1    0    0    0  501 -0.00000000000E+00 -0.00000000000E+00 -0.89666653049E+01  0.90561573910E+01  0.12700000000E+01 0. -1.
         25    2    1    2    0    0  0.00000000000E+00  0.00000000000E+00  0.42448960657E+03  0.44251428977E+03  0.12500988188E+03 0.  0.
    9000005    1    3    3    0    0  0.38453687089E+02 -0.26511783184E+01  0.38102472818E+02  0.54208055048E+02  0.10000000000E+01 0.  0.
    9000005    1    3    3    0    0 -0.38453687089E+02  0.26511783184E+01  0.38638713375E+03  0.38830623472E+03  0.10000000000E+01 0.  0.
<mgrwt>
<rscale>  0 0.12500988E+03</rscale>
<asrwt>0</asrwt>
<pdfrwt beam="1">  1        4 0.66692590E-01 0.12500988E+03</pdfrwt>
<pdfrwt beam="2">  1       -4 0.13865145E-02 0.12500988E+03</pdfrwt>
<totfact> 0.60604608E+03</totfact>
</mgrwt>
</event>
<event>
 5    1  0.3236337E-002  0.1250034E+03  0.7818608E-02  0.1235064E+00
         -4   -1    0    0    0  501 -0.00000000000E+00  0.00000000000E+00  0.19600103553E+02  0.19641205647E+02  0.12700000000E+01 0.  1.
          4   -1    0    0  501    0  0.00000000000E+00 -0.00000000000E+00 -0.19905650550E+03  0.19906055682E+03  0.12700000000E+01 0.  1.
         25    2    1    2    0    0  0.00000000000E+00  0.00000000000E+00 -0.17945640195E+03  0.21870176247E+03  0.12500344278E+03 0.  0.
    9000005    1    3    3    0    0  0.94894535746E+01 -0.59455289062E+02 -0.60427069333E+02  0.85307747800E+02  0.10000000000E+01 0.  0.
    9000005    1    3    3    0    0 -0.94894535746E+01  0.59455289062E+02 -0.11902933261E+03  0.13339401467E+03  0.10000000000E+01 0.  0.
<mgrwt>
<rscale>  0 0.12500344E+03</rscale>
<asrwt>0</asrwt>
<pdfrwt beam="2">  1        4 0.30627550E-01 0.12500344E+03</pdfrwt>
<pdfrwt beam="1">  1       -4 0.30188740E-02 0.12500344E+03</pdfrwt>
<totfact> 0.87067501E+03</totfact>
</mgrwt>
</event>
<event>
 5    1  0.3236337E-002  0.1249939E+03  0.7818608E-02  0.1235079E+00
          4   -1    0    0  501    0  0.00000000000E+00  0.00000000000E+00  0.50923368623E+02  0.50939202702E+02  0.12700000000E+01 0. -1.
         -4   -1    0    0    0  501 -0.00000000000E+00 -0.00000000000E+00 -0.76667884485E+02  0.76678402509E+02  0.12700000000E+01 0. -1.
         25    2    1    2    0    0  0.00000000000E+00  0.00000000000E+00 -0.25744515862E+02  0.12761760521E+03  0.12499389210E+03 0.  0.
    9000005    1    3    3    0    0  0.10485507428E+02  0.51979648668E+02 -0.46627368401E+02  0.70618278269E+02  0.10000000000E+01 0.  0.
    9000005    1    3    3    0    0 -0.10485507428E+02 -0.51979648668E+02  0.20882852539E+02  0.56999326942E+02  0.10000000000E+01 0.  0.
<mgrwt>
<rscale>  0 0.12499389E+03</rscale>
<asrwt>0</asrwt>
<pdfrwt beam="1">  1        4 0.78363915E-02 0.12499389E+03</pdfrwt>
<pdfrwt beam="2">  1       -4 0.11797086E-01 0.12499389E+03</pdfrwt>
<totfact> 0.10397188E+04</totfact>
</mgrwt>
</event>
<event>
 5    1  0.3236337E-002  0.1249726E+03  0.7818608E-02  0.1235112E+00
         -4   -1    0    0    0  501 -0.00000000000E+00  0.00000000000E+00  0.37156570593E+02  0.37178268360E+02  0.12700000000E+01 0.  1.
          4   -1    0    0  501    0  0.00000000000E+00 -0.00000000000E+00 -0.10502715121E+03  0.10503482942E+03  0.12700000000E+01 0.  1.
         25    2    1    2    0    0  0.00000000000E+00  0.00000000000E+00 -0.67870580615E+02  0.14221309778E+03  0.12497259486E+03 0.  0.
    9000005    1    3    3    0    0 -0.53651418922E+02 -0.29197696418E+02 -0.48883572025E+02  0.78240551138E+02  0.10000000000E+01 0.  0.
    9000005    1    3    3    0    0  0.53651418922E+02  0.29197696418E+02 -0.18987008590E+02  0.63972546640E+02  0.10000000000E+01 0.  0.
<mgrwt>
<rscale>  0 0.12497259E+03</rscale>
<asrwt>0</asrwt>
<pdfrwt beam="2">  1        4 0.16160283E-01 0.12497259E+03</pdfrwt>
<pdfrwt beam="1">  1       -4 0.57186552E-02 0.12497259E+03</pdfrwt>
<totfact> 0.10094152E+04</totfact>
</mgrwt>
</event>
<event>
 5    1  0.3236337E-002  0.1249970E+03  0.7818608E-02  0.1235074E+00
          4   -1    0    0  501    0  0.00000000000E+00  0.00000000000E+00  0.27073769941E+03  0.27074067811E+03  0.12700000000E+01 0. -1.
         -4   -1    0    0    0  501 -0.00000000000E+00 -0.00000000000E+00 -0.14396472512E+02  0.14452381146E+02  0.12700000000E+01 0. -1.
         25    2    1    2    0    0  0.00000000000E+00  0.00000000000E+00  0.25634122690E+03  0.28519305926E+03  0.12499702572E+03 0.  0.
    9000005    1    3    3    0    0 -0.25245651683E+02  0.21293179839E+01 -0.21641494243E+01  0.25447209409E+02  0.10000000000E+01 0.  0.
    9000005    1    3    3    0    0  0.25245651683E+02 -0.21293179839E+01  0.25850537633E+03  0.25974584985E+03  0.10000000000E+01 0.  0.
<mgrwt>
<rscale>  0 0.12499703E+03</rscale>
<asrwt>0</asrwt>
<pdfrwt beam="1">  1        4 0.41656482E-01 0.12499703E+03</pdfrwt>
<pdfrwt beam="2">  1       -4 0.22193718E-02 0.12499703E+03</pdfrwt>
<totfact> 0.77499665E+03</totfact>
</mgrwt>
</event>
<event>
 5    1  0.3236337E-002  0.1250024E+03  0.7818608E-02  0.1235065E+00
          4   -1    0    0  501    0  0.00000000000E+00  0.00000000000E+00  0.29247649937E+02  0.29275210107E+02  0.12700000000E+01 0.  1.
         -4   -1    0    0    0  501 -0.00000000000E+00 -0.00000000000E+00 -0.13346945476E+03  0.13347549683E+03  0.12700000000E+01 0.  1.
         25    2    1    2    0    0  0.00000000000E+00  0.00000000000E+00 -0.10422180482E+03  0.16275070693E+03  0.12500243201E+03 0.  0.
    9000005    1    3    3    0    0  0.56229678286E+02  0.13860263103E+02 -0.82687166417E+02  0.10095568881E+03  0.10000000000E+01 0.  0.
    9000005    1    3    3    0    0 -0.56229678286E+02 -0.13860263103E+02 -0.21534638402E+02  0.61795018120E+02  0.10000000000E+01 0.  0.
<mgrwt>
<rscale>  0 0.12500243E+03</rscale>
<asrwt>0</asrwt>
<pdfrwt beam="1">  1        4 0.45022233E-02 0.12500243E+03</pdfrwt>
<pdfrwt beam="2">  1       -4 0.20536347E-01 0.12500243E+03</pdfrwt>
<totfact> 0.96809786E+03</totfact>
</mgrwt>
</event>
<event>
 5    1  0.3236337E-002  0.1250014E+03  0.7818608E-02  0.1235067E+00
         -4   -1    0    0    0  501 -0.00000000000E+00  0.00000000000E+00  0.13218793278E+04  0.13218799379E+04  0.12700000000E+01 0.  1.
          4   -1    0    0  501    0  0.00000000000E+00 -0.00000000000E+00 -0.28180510614E+01  0.30910049797E+01  0.12700000000E+01 0.  1.
         25    2    1    2    0    0  0.00000000000E+00  0.00000000000E+00  0.13190612768E+04  0.13249709429E+04  0.12500139050E+03 0.  0.
    9000005    1    3    3    0    0  0.45005897016E+02  0.42747081870E+02  0.58273390390E+03  0.58603126753E+03  0.10000000000E+01 0.  0.
    9000005    1    3    3    0    0 -0.45005897016E+02 -0.42747081870E+02  0.73632737289E+03  0.73893967537E+03  0.10000000000E+01 0.  0.
<mgrwt>
<rscale>  0 0.12500139E+03</rscale>
<asrwt>0</asrwt>
<pdfrwt beam="2">  1        4 0.45459011E-03 0.12500139E+03</pdfrwt>
<pdfrwt beam="1">  1       -4 0.20338691E+00 0.12500139E+03</pdfrwt>
<totfact> 0.21646098E+03</totfact>
</mgrwt>
</event>
<event>
 5    1  0.3236337E-002  0.1249989E+03  0.7818608E-02  0.1235071E+00
         -4   -1    0    0    0  501 -0.00000000000E+00  0.00000000000E+00  0.65145400683E+03  0.65145524475E+03  0.12700000000E+01 0.  1.
          4   -1    0    0  501    0  0.00000000000E+00 -0.00000000000E+00 -0.59275937516E+01  0.60621174258E+01  0.12700000000E+01 0.  1.
         25    2    1    2    0    0  0.00000000000E+00  0.00000000000E+00  0.64552641307E+03  0.65751736217E+03  0.12499892633E+03 0.  0.
    9000005    1    3    3    0    0 -0.56934078949E+02  0.12496963830E+02  0.20426076845E+03  0.21241733681E+03  0.10000000000E+01 0.  0.
    9000005    1    3    3    0    0  0.56934078949E+02 -0.12496963830E+02  0.44126564462E+03  0.44510002536E+03  0.10000000000E+01 0.  0.
<mgrwt>
<rscale>  0 0.12499893E+03</rscale>
<asrwt>0</asrwt>
<pdfrwt beam="2">  1        4 0.92238024E-03 0.12499893E+03</pdfrwt>
<pdfrwt beam="1">  1       -4 0.10023419E+00 0.12499893E+03</pdfrwt>
<totfact> 0.45426983E+03</totfact>
</mgrwt>
</event>
<event>
 5    1  0.3236337E-002  0.1249935E+03  0.7818608E-02  0.1235079E+00
         -4   -1    0    0    0  501 -0.00000000000E+00  0.00000000000E+00  0.32972890332E+03  0.32973134911E+03  0.12700000000E+01 0.  1.
          4   -1    0    0  501    0  0.00000000000E+00 -0.00000000000E+00 -0.11809086246E+02  0.11877180556E+02  0.12700000000E+01 0.  1.
         25    2    1    2    0    0  0.00000000000E+00  0.00000000000E+00  0.31791981708E+03  0.34160852967E+03  0.12499350964E+03 0.  0.
    9000005    1    3    3    0    0  0.15183943320E+02  0.41556256514E+02  0.27956494819E+03  0.28304599422E+03  0.10000000000E+01 0.  0.
    9000005    1    3    3    0    0 -0.15183943320E+02 -0.41556256514E+02  0.38354868890E+02  0.58562535446E+02  0.10000000000E+01 0.  0.
<mgrwt>
<rscale>  0 0.12499351E+03</rscale>
<asrwt>0</asrwt>
<pdfrwt beam="2">  1        4 0.18222087E-02 0.12499351E+03</pdfrwt>
<pdfrwt beam="1">  1       -4 0.50732949E-01 0.12499351E+03</pdfrwt>
<totfact> 0.70667847E+03</totfact>
</mgrwt>
</event>
<event>
 5    1  0.3236337E-002  0.1249990E+03  0.7818608E-02  0.1235071E+00
          4   -1    0    0  501    0  0.00000000000E+00  0.00000000000E+00  0.35048741449E+02  0.35071743287E+02  0.12700000000E+01 0. -1.
         -4   -1    0    0    0  501 -0.00000000000E+00 -0.00000000000E+00 -0.11138701123E+03  0.11139425106E+03  0.12700000000E+01 0. -1.
         25    2    1    2    0    0  0.00000000000E+00  0.00000000000E+00 -0.76338269778E+02  0.14646599435E+03  0.12499902427E+03 0.  0.
    9000005    1    3    3    0    0  0.19399236515E+02 -0.31450762254E+02  0.20881162808E+02  0.42455903994E+02  0.10000000000E+01 0.  0.
    9000005    1    3    3    0    0 -0.19399236515E+02  0.31450762254E+02 -0.97219432586E+02  0.10401009036E+03  0.10000000000E+01 0.  0.
<mgrwt>
<rscale>  0 0.12499902E+03</rscale>
<asrwt>0</asrwt>
<pdfrwt beam="1">  1        4 0.53944404E-02 0.12499902E+03</pdfrwt>
<pdfrwt beam="2">  1       -4 0.17138789E-01 0.12499902E+03</pdfrwt>
<totfact> 0.10001507E+04</totfact>
</mgrwt>
</event>
<event>
 5    1  0.3236337E-002  0.1250050E+03  0.7818608E-02  0.1235062E+00
         -4   -1    0    0    0  501 -0.00000000000E+00  0.00000000000E+00  0.36740951403E+03  0.36741170898E+03  0.12700000000E+01 0.  1.
          4   -1    0    0  501    0  0.00000000000E+00 -0.00000000000E+00 -0.10592557906E+02  0.10668419892E+02  0.12700000000E+01 0.  1.
         25    2    1    2    0    0  0.00000000000E+00  0.00000000000E+00  0.35681695612E+03  0.37808012888E+03  0.12500497460E+03 0.  0.
    9000005    1    3    3    0    0  0.22364297628E+02 -0.55945248075E+02  0.12820432041E+03  0.14165938148E+03  0.10000000000E+01 0.  0.
    9000005    1    3    3    0    0 -0.22364297628E+02  0.55945248075E+02  0.22861263571E+03  0.23642074739E+03  0.10000000000E+01 0.  0.
<mgrwt>
<rscale>  0 0.12500497E+03</rscale>
<asrwt>0</asrwt>
<pdfrwt beam="2">  1        4 0.16356288E-02 0.12500497E+03</pdfrwt>
<pdfrwt beam="1">  1       -4 0.56530539E-01 0.12500497E+03</pdfrwt>
<totfact> 0.66734657E+03</totfact>
</mgrwt>
</event>
<event>
 5    1  0.3236337E-002  0.1249983E+03  0.7818608E-02  0.1235072E+00
         -4   -1    0    0    0  501 -0.00000000000E+00  0.00000000000E+00  0.79390388943E+02  0.79400546324E+02  0.12700000000E+01 0. -1.
          4   -1    0    0  501    0  0.00000000000E+00 -0.00000000000E+00 -0.49180182403E+02  0.49196577536E+02  0.12700000000E+01 0. -1.
         25    2    1    2    0    0  0.00000000000E+00  0.00000000000E+00  0.30210206540E+02  0.12859712386E+03  0.12499825473E+03 0.  0.
    9000005    1    3    3    0    0 -0.60287008965E+02 -0.16361371825E+02  0.16864000592E+02  0.64711764417E+02  0.10000000000E+01 0.  0.
    9000005    1    3    3    0    0  0.60287008965E+02  0.16361371825E+02  0.13346205948E+02  0.63885359443E+02  0.10000000000E+01 0.  0.
<mgrwt>
<rscale>  0 0.12499825E+03</rscale>
<asrwt>0</asrwt>
<pdfrwt beam="2">  1        4 0.75682244E-02 0.12499825E+03</pdfrwt>
<pdfrwt beam="1">  1       -4 0.12215948E-01 0.12499825E+03</pdfrwt>
<totfact> 0.10375021E+04</totfact>
</mgrwt>
</event>
<event>
 5    1  0.3236337E-002  0.1249997E+03  0.7818608E-02  0.1235070E+00
          4   -1    0    0  501    0  0.00000000000E+00  0.00000000000E+00  0.45147617605E+02  0.45165476588E+02  0.12700000000E+01 0. -1.
         -4   -1    0    0    0  501 -0.00000000000E+00 -0.00000000000E+00 -0.86481665634E+02  0.86490990229E+02  0.12700000000E+01 0. -1.
         25    2    1    2    0    0  0.00000000000E+00  0.00000000000E+00 -0.41334048029E+02  0.13165646682E+03  0.12499968691E+03 0.  0.
    9000005    1    3    3    0    0 -0.19447930847E+02 -0.43006725148E+02  0.22470525919E+02  0.52285035692E+02  0.10000000000E+01 0.  0.
    9000005    1    3    3    0    0  0.19447930847E+02  0.43006725148E+02 -0.63804573947E+02  0.79371431125E+02  0.10000000000E+01 0.  0.
<mgrwt>
<rscale>  0 0.12499969E+03</rscale>
<asrwt>0</asrwt>
<pdfrwt beam="1">  1        4 0.69478784E-02 0.12499969E+03</pdfrwt>
<pdfrwt beam="2">  1       -4 0.13306963E-01 0.12499969E+03</pdfrwt>
<totfact> 0.10309109E+04</totfact>
</mgrwt>
</event>
<event>
 5    1  0.3236337E-002  0.1250002E+03  0.7818608E-02  0.1235069E+00
         -4   -1    0    0    0  501 -0.00000000000E+00  0.00000000000E+00  0.76108646036E+01  0.77160974602E+01  0.12700000000E+01 0. -1.
          4   -1    0    0  501    0  0.00000000000E+00 -0.00000000000E+00 -0.50961862981E+03  0.50962021226E+03  0.12700000000E+01 0. -1.
         25    2    1    2    0    0  0.00000000000E+00  0.00000000000E+00 -0.50200776520E+03  0.51733630972E+03  0.12500024413E+03 0.  0.
    9000005    1    3    3    0    0  0.16459025347E+02 -0.55864870912E+02 -0.15722076048E+03  0.16766380302E+03  0.10000000000E+01 0.  0.
    9000005    1    3    3    0    0 -0.16459025347E+02  0.55864870912E+02 -0.34478700472E+03  0.34967250670E+03  0.10000000000E+01 0.  0.
<mgrwt>
<rscale>  0 0.12500024E+03</rscale>
<asrwt>0</asrwt>
<pdfrwt beam="2">  1        4 0.78411056E-01 0.12500024E+03</pdfrwt>
<pdfrwt beam="1">  1       -4 0.11791192E-02 0.12500024E+03</pdfrwt>
<totfact> 0.54543650E+03</totfact>
</mgrwt>
</event>
<event>
 5    1  0.3236337E-002  0.1249987E+03  0.7818608E-02  0.1235071E+00
         -4   -1    0    0    0  501 -0.00000000000E+00  0.00000000000E+00  0.10300665455E+04  0.10300673285E+04  0.12700000000E+01 0.  1.
          4   -1    0    0  501    0  0.00000000000E+00 -0.00000000000E+00 -0.36850164226E+01  0.38977231860E+01  0.12700000000E+01 0.  1.
         25    2    1    2    0    0  0.00000000000E+00  0.00000000000E+00  0.10263815291E+04  0.10339650516E+04  0.12499873876E+03 0.  0.
    9000005    1    3    3    0    0  0.14938038475E+02 -0.16044597853E+00  0.10151196003E+04  0.10152300102E+04  0.10000000000E+01 0.  0.
    9000005    1    3    3    0    0 -0.14938038475E+02  0.16044597853E+00  0.11261928830E+02  0.18735041430E+02  0.10000000000E+01 0.  0.
<mgrwt>
<rscale>  0 0.12499874E+03</rscale>
<asrwt>0</asrwt>
<pdfrwt beam="2">  1        4 0.58334805E-03 0.12499874E+03</pdfrwt>
<pdfrwt beam="1">  1       -4 0.15848815E+00 0.12499874E+03</pdfrwt>
<totfact> 0.29501589E+03</totfact>
</mgrwt>
</event>
<event>
 5    1  0.3236337E-002  0.1249985E+03  0.7818608E-02  0.1235072E+00
          4   -1    0    0  501    0  0.00000000000E+00  0.00000000000E+00  0.63149375013E+03  0.63149502718E+03  0.12700000000E+01 0. -1.
         -4   -1    0    0    0  501 -0.00000000000E+00 -0.00000000000E+00 -0.61190926559E+01  0.62494955742E+01  0.12700000000E+01 0. -1.
         25    2    1    2    0    0  0.00000000000E+00  0.00000000000E+00  0.62537465747E+03  0.63774452275E+03  0.12499845636E+03 0.  0.
    9000005    1    3    3    0    0 -0.58558536680E+02 -0.33422372377E+01  0.42269244175E+03  0.42674368546E+03  0.10000000000E+01 0.  0.
    9000005    1    3    3    0    0  0.58558536680E+02  0.33422372377E+01  0.20268221572E+03  0.21100083729E+03  0.10000000000E+01 0.  0.
<mgrwt>
<rscale>  0 0.12499846E+03</rscale>
<asrwt>0</asrwt>
<pdfrwt beam="1">  1        4 0.97162971E-01 0.12499846E+03</pdfrwt>
<pdfrwt beam="2">  1       -4 0.95152852E-03 0.12499846E+03</pdfrwt>
<totfact> 0.46570137E+03</totfact>
</mgrwt>
</event>
<event>
 5    1  0.3236337E-002  0.1250001E+03  0.7818608E-02  0.1235069E+00
         -4   -1    0    0    0  501 -0.00000000000E+00  0.00000000000E+00  0.43049957489E+02  0.43068686302E+02  0.12700000000E+01 0.  1.
          4   -1    0    0  501    0  0.00000000000E+00 -0.00000000000E+00 -0.90694841968E+02  0.90703733438E+02  0.12700000000E+01 0.  1.
         25    2    1    2    0    0  0.00000000000E+00  0.00000000000E+00 -0.47644884479E+02  0.13377241974E+03  0.12500010106E+03 0.  0.
    9000005    1    3    3    0    0  0.16571599223E+02  0.34396841109E+02 -0.76766495996E+02  0.85742961732E+02  0.10000000000E+01 0.  0.
    9000005    1    3    3    0    0 -0.16571599223E+02 -0.34396841109E+02  0.29121611518E+02  0.48029458007E+02  0.10000000000E+01 0.  0.
<mgrwt>
<rscale>  0 0.12500010E+03</rscale>
<asrwt>0</asrwt>
<pdfrwt beam="2">  1        4 0.13955177E-01 0.12500010E+03</pdfrwt>
<pdfrwt beam="1">  1       -4 0.66251950E-02 0.12500010E+03</pdfrwt>
<totfact> 0.10263987E+04</totfact>
</mgrwt>
</event>
<event>
 5    1  0.3236337E-002  0.1249972E+03  0.7818608E-02  0.1235074E+00
          4   -1    0    0  501    0  0.00000000000E+00  0.00000000000E+00  0.46451323160E+01  0.48156156650E+01  0.12700000000E+01 0.  1.
         -4   -1    0    0    0  501 -0.00000000000E+00 -0.00000000000E+00 -0.82557253033E+03  0.82557350716E+03  0.12700000000E+01 0.  1.
         25    2    1    2    0    0  0.00000000000E+00  0.00000000000E+00 -0.82092739801E+03  0.83038912283E+03  0.12499721000E+03 0.  0.
    9000005    1    3    3    0    0  0.55252822796E+00  0.81791277307E+01 -0.82201747171E+03  0.82205895605E+03  0.10000000000E+01 0.  0.
    9000005    1    3    3    0    0 -0.55252822796E+00 -0.81791277307E+01  0.10900737037E+01  0.83301667785E+01  0.10000000000E+01 0.  0.
<mgrwt>
<rscale>  0 0.12499721E+03</rscale>
<asrwt>0</asrwt>
<pdfrwt beam="1">  1        4 0.72782564E-03 0.12499721E+03</pdfrwt>
<pdfrwt beam="2">  1       -4 0.12702423E+00 0.12499721E+03</pdfrwt>
<totfact> 0.36945806E+03</totfact>
</mgrwt>
</event>
<event>
 5    1  0.3236337E-002  0.1250034E+03  0.7818608E-02  0.1235064E+00
          4   -1    0    0  501    0  0.00000000000E+00  0.00000000000E+00  0.92142167005E+02  0.92150918826E+02  0.12700000000E+01 0. -1.
         -4   -1    0    0    0  501 -0.00000000000E+00 -0.00000000000E+00 -0.42375786738E+02  0.42394813382E+02  0.12700000000E+01 0. -1.
         25    2    1    2    0    0  0.00000000000E+00  0.00000000000E+00  0.49766380267E+02  0.13454573221E+03  0.12500344575E+03 0.  0.
    9000005    1    3    3    0    0  0.36330442524E+02  0.39561652267E+02 -0.94996441717E+01  0.54555188786E+02  0.10000000000E+01 0.  0.
    9000005    1    3    3    0    0 -0.36330442524E+02 -0.39561652267E+02  0.59266024439E+02  0.79990543422E+02  0.10000000000E+01 0.  0.
<mgrwt>
<rscale>  0 0.12500345E+03</rscale>
<asrwt>0</asrwt>
<pdfrwt beam="1">  1        4 0.14177854E-01 0.12500345E+03</pdfrwt>
<pdfrwt beam="2">  1       -4 0.65214888E-02 0.12500345E+03</pdfrwt>
<totfact> 0.10246858E+04</totfact>
</mgrwt>
</event>
<event>
 5    1  0.3236337E-002  0.1250011E+03  0.7818608E-02  0.1235068E+00
          4   -1    0    0  501    0  0.00000000000E+00  0.00000000000E+00  0.29965861114E+03  0.29966130235E+03  0.12700000000E+01 0.  1.
         -4   -1    0    0    0  501 -0.00000000000E+00 -0.00000000000E+00 -0.13002215225E+02  0.13064092037E+02  0.12700000000E+01 0.  1.
         25    2    1    2    0    0  0.00000000000E+00  0.00000000000E+00  0.28665639591E+03  0.31272539439E+03  0.12500113191E+03 0.  0.
    9000005    1    3    3    0    0 -0.16451110191E+02  0.22580638076E+02  0.28317742591E+03  0.28455399977E+03  0.10000000000E+01 0.  0.
    9000005    1    3    3    0    0  0.16451110191E+02 -0.22580638076E+02  0.34789700026E+01  0.28171394618E+02  0.10000000000E+01 0.  0.
<mgrwt>
<rscale>  0 0.12500113E+03</rscale>
<asrwt>0</asrwt>
<pdfrwt beam="1">  1        4 0.46106292E-01 0.12500113E+03</pdfrwt>
<pdfrwt beam="2">  1       -4 0.20053075E-02 0.12500113E+03</pdfrwt>
<totfact> 0.74027919E+03</totfact>
</mgrwt>
</event>
<event>
 5    1  0.3236337E-002  0.1250019E+03  0.7818608E-02  0.1235066E+00
         -4   -1    0    0    0  501 -0.00000000000E+00  0.00000000000E+00  0.13858393682E+03  0.13858975591E+03  0.12700000000E+01 0.  1.
          4   -1    0    0  501    0  0.00000000000E+00 -0.00000000000E+00 -0.28167037505E+02  0.28195653952E+02  0.12700000000E+01 0.  1.
         25    2    1    2    0    0  0.00000000000E+00  0.00000000000E+00  0.11041689931E+03  0.16678540987E+03  0.12500192514E+03 0.  0.
    9000005    1    3    3    0    0  0.49238972455E+02 -0.33630969954E+02  0.80164933399E+02  0.99914639045E+02  0.10000000000E+01 0.  0.
    9000005    1    3    3    0    0 -0.49238972455E+02  0.33630969954E+02  0.30251965915E+02  0.66870770821E+02  0.10000000000E+01 0.  0.
<mgrwt>
<rscale>  0 0.12500193E+03</rscale>
<asrwt>0</asrwt>
<pdfrwt beam="2">  1        4 0.43360393E-02 0.12500193E+03</pdfrwt>
<pdfrwt beam="1">  1       -4 0.21323254E-01 0.12500193E+03</pdfrwt>
<totfact> 0.96046176E+03</totfact>
</mgrwt>
</event>
<event>
 5    1  0.3236337E-002  0.1249964E+03  0.7818608E-02  0.1235075E+00
         -4   -1    0    0    0  501 -0.00000000000E+00  0.00000000000E+00  0.40425094798E+01  0.42373084493E+01  0.12700000000E+01 0. -1.
          4   -1    0    0  501    0  0.00000000000E+00 -0.00000000000E+00 -0.94330959625E+03  0.94331045116E+03  0.12700000000E+01 0. -1.
         25    2    1    2    0    0  0.00000000000E+00  0.00000000000E+00 -0.93926708677E+03  0.94754775961E+03  0.12499638579E+03 0.  0.
    9000005    1    3    3    0    0 -0.15970262169E+02 -0.59225011844E+02 -0.56008533778E+03  0.56343521092E+03  0.10000000000E+01 0.  0.
    9000005    1    3    3    0    0  0.15970262169E+02  0.59225011844E+02 -0.37918174899E+03  0.38411254870E+03  0.10000000000E+01 0.  0.
<mgrwt>
<rscale>  0 0.12499639E+03</rscale>
<asrwt>0</asrwt>
<pdfrwt beam="2">  1        4 0.14513943E+00 0.12499639E+03</pdfrwt>
<pdfrwt beam="1">  1       -4 0.63697558E-03 0.12499639E+03</pdfrwt>
<totfact> 0.32405788E+03</totfact>
</mgrwt>
</event>
<event>
 5    1  0.3236337E-002  0.1250015E+03  0.7818608E-02  0.1235067E+00
         -4   -1    0    0    0  501 -0.00000000000E+00  0.00000000000E+00  0.14445130765E+04  0.14445136348E+04  0.12700000000E+01 0.  1.
          4   -1    0    0  501    0  0.00000000000E+00 -0.00000000000E+00 -0.25545684157E+01  0.28528441581E+01  0.12700000000E+01 0.  1.
         25    2    1    2    0    0  0.00000000000E+00  0.00000000000E+00  0.14419585081E+04  0.14473664790E+04  0.12500154132E+03 0.  0.
    9000005    1    3    3    0    0 -0.33345618323E+02 -0.40224985127E+02  0.11179420654E+04  0.11191628306E+04  0.10000000000E+01 0.  0.
    9000005    1    3    3    0    0  0.33345618323E+02  0.40224985127E+02  0.32401644267E+03  0.32820364838E+03  0.10000000000E+01 0.  0.
<mgrwt>
<rscale>  0 0.12500154E+03</rscale>
<asrwt>0</asrwt>
<pdfrwt beam="2">  1        4 0.41599710E-03 0.12500154E+03</pdfrwt>
<pdfrwt beam="1">  1       -4 0.22225612E+00 0.12500154E+03</pdfrwt>
<totfact> 0.18986049E+03</totfact>
</mgrwt>
</event>
<event>
 5    1  0.3236337E-002  0.1250080E+03  0.7818608E-02  0.1235057E+00
         -4   -1    0    0    0  501 -0.00000000000E+00  0.00000000000E+00  0.33870860760E+02  0.33894661949E+02  0.12700000000E+01 0. -1.
          4   -1    0    0  501    0  0.00000000000E+00 -0.00000000000E+00 -0.11527472269E+03  0.11528171837E+03  0.12700000000E+01 0. -1.
         25    2    1    2    0    0  0.00000000000E+00  0.00000000000E+00 -0.81403861925E+02  0.14917638032E+03  0.12500801458E+03 0.  0.
    9000005    1    3    3    0    0 -0.38374960041E+02  0.30092727579E+01 -0.99455422327E+02  0.10664930525E+03  0.10000000000E+01 0.  0.
    9000005    1    3    3    0    0  0.38374960041E+02 -0.30092727579E+01  0.18051560401E+02  0.42527075065E+02  0.10000000000E+01 0.  0.
<mgrwt>
<rscale>  0 0.12500801E+03</rscale>
<asrwt>0</asrwt>
<pdfrwt beam="2">  1        4 0.17736941E-01 0.12500801E+03</pdfrwt>
<pdfrwt beam="1">  1       -4 0.52132707E-02 0.12500801E+03</pdfrwt>
<totfact> 0.99450187E+03</totfact>
</mgrwt>
</event>
<event>
 5    1  0.3236337E-002  0.1249997E+03  0.7818608E-02  0.1235070E+00
          4   -1    0    0  501    0  0.00000000000E+00  0.00000000000E+00  0.17676816035E+03  0.17677272248E+03  0.12700000000E+01 0. -1.
         -4   -1    0    0    0  501 -0.00000000000E+00 -0.00000000000E+00 -0.22074943056E+02  0.22111445248E+02  0.12700000000E+01 0. -1.
         25    2    1    2    0    0  0.00000000000E+00  0.00000000000E+00  0.15469321729E+03  0.19888416773E+03  0.12499968279E+03 0.  0.
    9000005    1    3    3    0    0 -0.56942362314E+02  0.22033686886E+02  0.98533295530E+02  0.11592120734E+03  0.10000000000E+01 0.  0.
    9000005    1    3    3    0    0  0.56942362314E+02 -0.22033686886E+02  0.56159921765E+02  0.82962960388E+02  0.10000000000E+01 0.  0.
<mgrwt>
<rscale>  0 0.12499968E+03</rscale>
<asrwt>0</asrwt>
<pdfrwt beam="1">  1        4 0.27198260E-01 0.12499968E+03</pdfrwt>
<pdfrwt beam="2">  1       -4 0.33993040E-02 0.12499968E+03</pdfrwt>
<totfact> 0.90324684E+03</totfact>
</mgrwt>
</event>
<event>
 5    1  0.3236337E-002  0.1249998E+03  0.7818608E-02  0.1235070E+00
         -4   -1    0    0    0  501 -0.00000000000E+00  0.00000000000E+00  0.17366698962E+02  0.17413073618E+02  0.12700000000E+01 0.  1.
          4   -1    0    0  501    0  0.00000000000E+00 -0.00000000000E+00 -0.22457891395E+03  0.22458250486E+03  0.12700000000E+01 0.  1.
         25    2    1    2    0    0  0.00000000000E+00  0.00000000000E+00 -0.20721221498E+03  0.24199557848E+03  0.12499983186E+03 0.  0.
    9000005    1    3    3    0    0  0.40481303407E+02  0.13900945570E+02 -0.19175678385E+03  0.19647808113E+03  0.10000000000E+01 0.  0.
    9000005    1    3    3    0    0 -0.40481303407E+02 -0.13900945570E+02 -0.15455431138E+02  0.45517497349E+02  0.10000000000E+01 0.  0.
<mgrwt>
<rscale>  0 0.12499983E+03</rscale>
<asrwt>0</asrwt>
<pdfrwt beam="2">  1        4 0.34554444E-01 0.12499983E+03</pdfrwt>
<pdfrwt beam="1">  1       -4 0.26756435E-02 0.12499983E+03</pdfrwt>
<totfact> 0.83501370E+03</totfact>
</mgrwt>
</event>
<event>
 5    1  0.3236337E-002  0.1249957E+03  0.7818608E-02  0.1235076E+00
          4   -1    0    0  501    0  0.00000000000E+00  0.00000000000E+00  0.46843535605E+02  0.46860748265E+02  0.12700000000E+01 0.  1.
         -4   -1    0    0    0  501 -0.00000000000E+00 -0.00000000000E+00 -0.83346148424E+02  0.83355823775E+02  0.12700000000E+01 0.  1.
         25    2    1    2    0    0  0.00000000000E+00  0.00000000000E+00 -0.36502612820E+02  0.13021657204E+03  0.12499565949E+03 0.  0.
    9000005    1    3    3    0    0 -0.16089063820E+01  0.86555388399E+01 -0.82701959918E+02  0.83175243352E+02  0.10000000000E+01 0.  0.
    9000005    1    3    3    0    0  0.16089063820E+01 -0.86555388399E+01  0.46199347099E+02  0.47041328688E+02  0.10000000000E+01 0.  0.
<mgrwt>
<rscale>  0 0.12499566E+03</rscale>
<asrwt>0</asrwt>
<pdfrwt beam="1">  1        4 0.72087661E-02 0.12499566E+03</pdfrwt>
<pdfrwt beam="2">  1       -4 0.12824553E-01 0.12499566E+03</pdfrwt>
<totfact> 0.10340890E+04</totfact>
</mgrwt>
</event>
<event>
 5    1  0.3236337E-002  0.1249923E+03  0.7818608E-02  0.1235081E+00
          4   -1    0    0  501    0  0.00000000000E+00  0.00000000000E+00  0.10761241661E+03  0.10761991037E+03  0.12700000000E+01 0. -1.
         -4   -1    0    0    0  501 -0.00000000000E+00 -0.00000000000E+00 -0.36274904588E+02  0.36297129403E+02  0.12700000000E+01 0. -1.
         25    2    1    2    0    0  0.00000000000E+00  0.00000000000E+00  0.71337512022E+02  0.14391703978E+03  0.12499229463E+03 0.  0.
    9000005    1    3    3    0    0  0.36934717206E+02  0.50388407597E+02  0.34210748008E+02  0.71235807250E+02  0.10000000000E+01 0.  0.
    9000005    1    3    3    0    0 -0.36934717206E+02 -0.50388407597E+02  0.37126764014E+02  0.72681232525E+02  0.10000000000E+01 0.  0.
<mgrwt>
<rscale>  0 0.12499229E+03</rscale>
<asrwt>0</asrwt>
<pdfrwt beam="1">  1        4 0.16558042E-01 0.12499229E+03</pdfrwt>
<pdfrwt beam="2">  1       -4 0.55830407E-02 0.12499229E+03</pdfrwt>
<totfact> 0.10054783E+04</totfact>
</mgrwt>
</event>
<event>
 5    1  0.3236337E-002  0.1249992E+03  0.7818608E-02  0.1235071E+00
          4   -1    0    0  501    0  0.00000000000E+00  0.00000000000E+00  0.87845432802E+02  0.87854612652E+02  0.12700000000E+01 0.  1.
         -4   -1    0    0    0  501 -0.00000000000E+00 -0.00000000000E+00 -0.44446163181E+02  0.44464303902E+02  0.12700000000E+01 0.  1.
         25    2    1    2    0    0  0.00000000000E+00  0.00000000000E+00  0.43399269622E+02  0.13231891655E+03  0.12499919629E+03 0.  0.
    9000005    1    3    3    0    0  0.70003669923E+01 -0.16683276097E+02 -0.41618274240E+02  0.45391822943E+02  0.10000000000E+01 0.  0.
    9000005    1    3    3    0    0 -0.70003669923E+01  0.16683276097E+02  0.85017543862E+02  0.86927093611E+02  0.10000000000E+01 0.  0.
<mgrwt>
<rscale>  0 0.12499920E+03</rscale>
<asrwt>0</asrwt>
<pdfrwt beam="1">  1        4 0.13516784E-01 0.12499920E+03</pdfrwt>
<pdfrwt beam="2">  1       -4 0.68399729E-02 0.12499920E+03</pdfrwt>
<totfact> 0.10295083E+04</totfact>
</mgrwt>
</event>
<event>
 5    1  0.3236337E-002  0.1249997E+03  0.7818608E-02  0.1235070E+00
         -4   -1    0    0    0  501 -0.00000000000E+00  0.00000000000E+00  0.77109699462E+03  0.77109804047E+03  0.12700000000E+01 0. -1.
          4   -1    0    0  501    0  0.00000000000E+00 -0.00000000000E+00 -0.49851445786E+01  0.51443723106E+01  0.12700000000E+01 0. -1.
         25    2    1    2    0    0  0.00000000000E+00  0.00000000000E+00  0.76611185004E+03  0.77624241278E+03  0.12499966648E+03 0.  0.
    9000005    1    3    3    0    0  0.59273834935E+02 -0.18550970587E+02  0.42594651166E+03  0.43045203776E+03  0.10000000000E+01 0.  0.
    9000005    1    3    3    0    0 -0.59273834935E+02  0.18550970587E+02  0.34016533838E+03  0.34579037501E+03  0.10000000000E+01 0.  0.
<mgrwt>
<rscale>  0 0.12499967E+03</rscale>
<asrwt>0</asrwt>
<pdfrwt beam="2">  1        4 0.77927410E-03 0.12499967E+03</pdfrwt>
<pdfrwt beam="1">  1       -4 0.11864263E+00 0.12499967E+03</pdfrwt>
<totfact> 0.39347855E+03</totfact>
</mgrwt>
</event>
<event>
 5    1  0.3236337E-002  0.1250006E+03  0.7818608E-02  0.1235068E+00
          4   -1    0    0  501    0  0.00000000000E+00  0.00000000000E+00  0.81870797622E+01  0.82849969845E+01  0.12700000000E+01 0. -1.
         -4   -1    0    0    0  501 -0.00000000000E+00 -0.00000000000E+00 -0.47419340611E+03  0.47419510678E+03  0.12700000000E+01 0. -1.
         25    2    1    2    0    0  0.00000000000E+00  0.00000000000E+00 -0.46600632634E+03  0.48248010377E+03  0.12500061734E+03 0.  0.
    9000005    1    3    3    0    0 -0.97042901751E+01 -0.61461066280E+02 -0.25539434424E+03  0.26286670954E+03  0.10000000000E+01 0.  0.
    9000005    1    3    3    0    0  0.97042901751E+01  0.61461066280E+02 -0.21061198210E+03  0.21961339422E+03  0.10000000000E+01 0.  0.
<mgrwt>
<rscale>  0 0.12500062E+03</rscale>
<asrwt>0</asrwt>
<pdfrwt beam="1">  1        4 0.12672140E-02 0.12500062E+03</pdfrwt>
<pdfrwt beam="2">  1       -4 0.72960473E-01 0.12500062E+03</pdfrwt>
<totfact> 0.57249019E+03</totfact>
</mgrwt>
</event>
<event>
 5    1  0.3236337E-002  0.1250017E+03  0.7818608E-02  0.1235067E+00
         -4   -1    0    0    0  501 -0.00000000000E+00  0.00000000000E+00  0.64141217951E+03  0.64141343682E+03  0.12700000000E+01 0. -1.
          4   -1    0    0  501    0  0.00000000000E+00 -0.00000000000E+00 -0.60227539004E+01  0.61551981726E+01  0.12700000000E+01 0. -1.
         25    2    1    2    0    0  0.00000000000E+00  0.00000000000E+00  0.63538942561E+03  0.64756863499E+03  0.12500165935E+03 0.  0.
    9000005    1    3    3    0    0 -0.67341386767E+01  0.56404445027E+02  0.18274905077E+03  0.19137665898E+03  0.10000000000E+01 0.  0.
    9000005    1    3    3    0    0  0.67341386767E+01 -0.56404445027E+02  0.45264037484E+03  0.45619197601E+03  0.10000000000E+01 0.  0.
<mgrwt>
<rscale>  0 0.12500166E+03</rscale>
<asrwt>0</asrwt>
<pdfrwt beam="2">  1        4 0.93686215E-03 0.12500166E+03</pdfrwt>
<pdfrwt beam="1">  1       -4 0.98689093E-01 0.12500166E+03</pdfrwt>
<totfact> 0.45994492E+03</totfact>
</mgrwt>
</event>
<event>
 5    1  0.3236337E-002  0.1249969E+03  0.7818608E-02  0.1235074E+00
         -4   -1    0    0    0  501 -0.00000000000E+00  0.00000000000E+00  0.31771822765E+03  0.31772076589E+03  0.12700000000E+01 0.  1.
          4   -1    0    0  501    0  0.00000000000E+00 -0.00000000000E+00 -0.12258706239E+02  0.12324316559E+02  0.12700000000E+01 0.  1.
         25    2    1    2    0    0  0.00000000000E+00  0.00000000000E+00  0.30545952141E+03  0.33004508245E+03  0.12499694889E+03 0.  0.
    9000005    1    3    3    0    0  0.21349008074E+02 -0.24643700557E+02  0.29349109781E+03  0.29529835187E+03  0.10000000000E+01 0.  0.
    9000005    1    3    3    0    0 -0.21349008074E+02  0.24643700557E+02  0.11968423603E+02  0.34746730586E+02  0.10000000000E+01 0.  0.
<mgrwt>
<rscale>  0 0.12499695E+03</rscale>
<asrwt>0</asrwt>
<pdfrwt beam="2">  1        4 0.18911971E-02 0.12499695E+03</pdfrwt>
<pdfrwt beam="1">  1       -4 0.48884968E-01 0.12499695E+03</pdfrwt>
<totfact> 0.71981976E+03</totfact>
</mgrwt>
</event>
<event>
 5    1  0.3236337E-002  0.1250012E+03  0.7818608E-02  0.1235067E+00
          4   -1    0    0  501    0  0.00000000000E+00  0.00000000000E+00  0.54540055634E+02  0.54554840011E+02  0.12700000000E+01 0.  1.
         -4   -1    0    0    0  501 -0.00000000000E+00 -0.00000000000E+00 -0.71592965357E+02  0.71604228845E+02  0.12700000000E+01 0.  1.
         25    2    1    2    0    0  0.00000000000E+00  0.00000000000E+00 -0.17052909723E+02  0.12615906886E+03  0.12500123569E+03 0.  0.
    9000005    1    3    3    0    0  0.58503072063E+02  0.31428055724E+01  0.13419856268E+02  0.60113053573E+02  0.10000000000E+01 0.  0.
    9000005    1    3    3    0    0 -0.58503072063E+02 -0.31428055724E+01 -0.30472765991E+02  0.66046015283E+02  0.10000000000E+01 0.  0.
<mgrwt>
<rscale>  0 0.12500124E+03</rscale>
<asrwt>0</asrwt>
<pdfrwt beam="1">  1        4 0.83927815E-02 0.12500124E+03</pdfrwt>
<pdfrwt beam="2">  1       -4 0.11016306E-01 0.12500124E+03</pdfrwt>
<totfact> 0.10427183E+04</totfact>
</mgrwt>
</event>
<event>
 5    1  0.3236337E-002  0.1249999E+03  0.7818608E-02  0.1235069E+00
         -4   -1    0    0    0  501 -0.00000000000E+00  0.00000000000E+00  0.23597675855E+02  0.23631826120E+02  0.12700000000E+01 0.  1.
          4   -1    0    0  501    0  0.00000000000E+00 -0.00000000000E+00 -0.16537887514E+03  0.16538375145E+03  0.12700000000E+01 0.  1.
         25    2    1    2    0    0  0.00000000000E+00  0.00000000000E+00 -0.14178119929E+03  0.18901557757E+03  0.12499992037E+03 0.  0.
    9000005    1    3    3    0    0  0.11208836002E+02 -0.59050277859E+02 -0.96759515541E+02  0.11391214671E+03  0.10000000000E+01 0.  0.
    9000005    1    3    3    0    0 -0.11208836002E+02  0.59050277859E+02 -0.45021683745E+02  0.75103430860E+02  0.10000000000E+01 0.  0.
<mgrwt>
<rscale>  0 0.12499992E+03</rscale>
<asrwt>0</asrwt>
<pdfrwt beam="2">  1        4 0.25445905E-01 0.12499992E+03</pdfrwt>
<pdfrwt beam="1">  1       -4 0.36334138E-02 0.12499992E+03</pdfrwt>
<totfact> 0.92019048E+03</totfact>
</mgrwt>
</event>
<event>
 5    1  0.3236337E-002  0.1249903E+03  0.7818608E-02  0.1235084E+00
          4   -1    0    0  501    0  0.00000000000E+00  0.00000000000E+00  0.59425389776E+02  0.59438959025E+02  0.12700000000E+01 0.  1.
         -4   -1    0    0    0  501 -0.00000000000E+00 -0.00000000000E+00 -0.65696237451E+02  0.65708511741E+02  0.12700000000E+01 0.  1.
         25    2    1    2    0    0  0.00000000000E+00  0.00000000000E+00 -0.62708476755E+01  0.12514747077E+03  0.12499026326E+03 0.  0.
    9000005    1    3    3    0    0 -0.38613001622E+01  0.49431716331E+01  0.59114284786E+02  0.59454547770E+02  0.10000000000E+01 0.  0.
    9000005    1    3    3    0    0  0.38613001622E+01 -0.49431716331E+01 -0.65385132462E+02  0.65692922996E+02  0.10000000000E+01 0.  0.
<mgrwt>
<rscale>  0 0.12499026E+03</rscale>
<asrwt>0</asrwt>
<pdfrwt beam="1">  1        4 0.91443555E-02 0.12499026E+03</pdfrwt>
<pdfrwt beam="2">  1       -4 0.10109102E-01 0.12499026E+03</pdfrwt>
<totfact> 0.10451960E+04</totfact>
</mgrwt>
</event>
<event>
 5    1  0.3236337E-002  0.1250018E+03  0.7818608E-02  0.1235066E+00
         -4   -1    0    0    0  501 -0.00000000000E+00  0.00000000000E+00  0.63450260564E+01  0.64708775028E+01  0.12700000000E+01 0. -1.
          4   -1    0    0  501    0  0.00000000000E+00 -0.00000000000E+00 -0.60948502079E+03  0.60948634395E+03  0.12700000000E+01 0. -1.
         25    2    1    2    0    0  0.00000000000E+00  0.00000000000E+00 -0.60313999473E+03  0.61595722145E+03  0.12500178166E+03 0.  0.
    9000005    1    3    3    0    0 -0.32174427481E+02  0.27619778914E+02 -0.75366603340E+02  0.86482199729E+02  0.10000000000E+01 0.  0.
    9000005    1    3    3    0    0  0.32174427481E+02 -0.27619778914E+02 -0.52777339139E+03  0.52947502173E+03  0.10000000000E+01 0.  0.
<mgrwt>
<rscale>  0 0.12500178E+03</rscale>
<asrwt>0</asrwt>
<pdfrwt beam="2">  1        4 0.93776664E-01 0.12500178E+03</pdfrwt>
<pdfrwt beam="1">  1       -4 0.98594099E-03 0.12500178E+03</pdfrwt>
<totfact> 0.47873739E+03</totfact>
</mgrwt>
</event>
<event>
 5    1  0.3236337E-002  0.1249994E+03  0.7818608E-02  0.1235070E+00
          4   -1    0    0  501    0  0.00000000000E+00  0.00000000000E+00  0.43880123229E+02  0.43898497863E+02  0.12700000000E+01 0.  1.
         -4   -1    0    0    0  501 -0.00000000000E+00 -0.00000000000E+00 -0.88978502698E+02  0.88987565662E+02  0.12700000000E+01 0.  1.
         25    2    1    2    0    0  0.00000000000E+00  0.00000000000E+00 -0.45098379469E+02  0.13288606352E+03  0.12499936819E+03 0.  0.
    9000005    1    3    3    0    0  0.35964933701E+02  0.49901694438E+02 -0.34270008212E+02  0.70420799674E+02  0.10000000000E+01 0.  0.
    9000005    1    3    3    0    0 -0.35964933701E+02 -0.49901694438E+02 -0.10828371258E+02  0.62465263851E+02  0.10000000000E+01 0.  0.
<mgrwt>
<rscale>  0 0.12499937E+03</rscale>
<asrwt>0</asrwt>
<pdfrwt beam="1">  1        4 0.67528988E-02 0.12499937E+03</pdfrwt>
<pdfrwt beam="2">  1       -4 0.13691111E-01 0.12499937E+03</pdfrwt>
<totfact> 0.10282969E+04</totfact>
</mgrwt>
</event>
<event>
 5    1  0.3236337E-002  0.1249989E+03  0.7818608E-02  0.1235071E+00
         -4   -1    0    0    0  501 -0.00000000000E+00  0.00000000000E+00  0.75168598879E+02  0.75179326662E+02  0.12700000000E+01 0. -1.
          4   -1    0    0  501    0  0.00000000000E+00 -0.00000000000E+00 -0.51943431420E+02  0.51958954644E+02  0.12700000000E+01 0. -1.
         25    2    1    2    0    0  0.00000000000E+00  0.00000000000E+00  0.23225167459E+02  0.12713828131E+03  0.12499893668E+03 0.  0.
    9000005    1    3    3    0    0 -0.59263406130E+02  0.16595779664E+02  0.58205192339E+00  0.61554122472E+02  0.10000000000E+01 0.  0.
    9000005    1    3    3    0    0  0.59263406130E+02 -0.16595779664E+02  0.22643115536E+02  0.65584158834E+02  0.10000000000E+01 0.  0.
<mgrwt>
<rscale>  0 0.12499894E+03</rscale>
<asrwt>0</asrwt>
<pdfrwt beam="2">  1        4 0.79933165E-02 0.12499894E+03</pdfrwt>
<pdfrwt beam="1">  1       -4 0.11566419E-01 0.12499894E+03</pdfrwt>
<totfact> 0.10406393E+04</totfact>
</mgrwt>
</event>
<event>
 5    1  0.3236337E-002  0.1249955E+03  0.7818608E-02  0.1235076E+00
          4   -1    0    0  501    0  0.00000000000E+00  0.00000000000E+00  0.26658855928E+01  0.29529385354E+01  0.12700000000E+01 0.  1.
         -4   -1    0    0    0  501 -0.00000000000E+00 -0.00000000000E+00 -0.13900287837E+04  0.13900293639E+04  0.12700000000E+01 0.  1.
         25    2    1    2    0    0  0.00000000000E+00  0.00000000000E+00 -0.13873628981E+04  0.13929823024E+04  0.12499553498E+03 0.  0.
    9000005    1    3    3    0    0 -0.48958471883E+02  0.10637295705E+02 -0.11098992007E+04  0.11110298464E+04  0.10000000000E+01 0.  0.
    9000005    1    3    3    0    0  0.48958471883E+02 -0.10637295705E+02 -0.27746369744E+03  0.28195245597E+03  0.10000000000E+01 0.  0.
<mgrwt>
<rscale>  0 0.12499553E+03</rscale>
<asrwt>0</asrwt>
<pdfrwt beam="1">  1        4 0.43226298E-03 0.12499553E+03</pdfrwt>
<pdfrwt beam="2">  1       -4 0.21387216E+00 0.12499553E+03</pdfrwt>
<totfact> 0.20134063E+03</totfact>
</mgrwt>
</event>
<event>
 5    1  0.3236337E-002  0.1249990E+03  0.7818608E-02  0.1235071E+00
         -4   -1    0    0    0  501 -0.00000000000E+00  0.00000000000E+00  0.10457179328E+03  0.10457950493E+03  0.12700000000E+01 0. -1.
          4   -1    0    0  501    0  0.00000000000E+00 -0.00000000000E+00 -0.37334208365E+02  0.37355802953E+02  0.12700000000E+01 0. -1.
         25    2    1    2    0    0  0.00000000000E+00  0.00000000000E+00  0.67237584918E+02  0.14193530788E+03  0.12499895518E+03 0.  0.
    9000005    1    3    3    0    0 -0.42184635593E+02  0.51996931558E+01  0.85636277604E+02  0.95609373656E+02  0.10000000000E+01 0.  0.
    9000005    1    3    3    0    0  0.42184635593E+02 -0.51996931558E+01 -0.18398692686E+02  0.46325934222E+02  0.10000000000E+01 0.  0.
<mgrwt>
<rscale>  0 0.12499896E+03</rscale>
<asrwt>0</asrwt>
<pdfrwt beam="2">  1        4 0.57459788E-02 0.12499896E+03</pdfrwt>
<pdfrwt beam="1">  1       -4 0.16090222E-01 0.12499896E+03</pdfrwt>
<totfact> 0.10093869E+04</totfact>
</mgrwt>
</event>
<event>
 5    1  0.3236337E-002  0.1250002E+03  0.7818608E-02  0.1235069E+00
          4   -1    0    0  501    0  0.00000000000E+00  0.00000000000E+00  0.73628161266E+02  0.73639113461E+02  0.12700000000E+01 0.  1.
         -4   -1    0    0    0  501 -0.00000000000E+00 -0.00000000000E+00 -0.53031414842E+02  0.53046619687E+02  0.12700000000E+01 0.  1.
         25    2    1    2    0    0  0.00000000000E+00  0.00000000000E+00  0.20596746424E+02  0.12668573315E+03  0.12500019608E+03 0.  0.
    9000005    1    3    3    0    0  0.17579270948E+02  0.25239435050E+02 -0.44833703347E+02  0.54379415264E+02  0.10000000000E+01 0.  0.
    9000005    1    3    3    0    0 -0.17579270948E+02 -0.25239435050E+02  0.65430449770E+02  0.72306317883E+02  0.10000000000E+01 0.  0.
<mgrwt>
<rscale>  0 0.12500020E+03</rscale>
<asrwt>0</asrwt>
<pdfrwt beam="1">  1        4 0.11329421E-01 0.12500020E+03</pdfrwt>
<pdfrwt beam="2">  1       -4 0.81606913E-02 0.12500020E+03</pdfrwt>
<totfact> 0.10415935E+04</totfact>
</mgrwt>
</event>
<event>
 5    1  0.3236337E-002  0.1249963E+03  0.7818608E-02  0.1235075E+00
         -4   -1    0    0    0  501 -0.00000000000E+00  0.00000000000E+00  0.22492925056E+02  0.22528750022E+02  0.12700000000E+01 0. -1.
          4   -1    0    0  501    0  0.00000000000E+00 -0.00000000000E+00 -0.17347913935E+03  0.17348378797E+03  0.12700000000E+01 0. -1.
         25    2    1    2    0    0  0.00000000000E+00  0.00000000000E+00 -0.15098621429E+03  0.19601253800E+03  0.12499631252E+03 0.  0.
    9000005    1    3    3    0    0  0.60011996652E+02 -0.17105951811E+02 -0.80686065784E+02  0.10200634559E+03  0.10000000000E+01 0.  0.
    9000005    1    3    3    0    0 -0.60011996652E+02  0.17105951811E+02 -0.70300148510E+02  0.94006192403E+02  0.10000000000E+01 0.  0.
<mgrwt>
<rscale>  0 0.12499631E+03</rscale>
<asrwt>0</asrwt>
<pdfrwt beam="2">  1        4 0.26692211E-01 0.12499631E+03</pdfrwt>
<pdfrwt beam="1">  1       -4 0.34635635E-02 0.12499631E+03</pdfrwt>
<totfact> 0.90819047E+03</totfact>
</mgrwt>
</event>
<event>
 5    1  0.3236337E-002  0.1249975E+03  0.7818608E-02  0.1235073E+00
          4   -1    0    0  501    0  0.00000000000E+00  0.00000000000E+00  0.66884038411E+03  0.66884158985E+03  0.12700000000E+01 0. -1.
         -4   -1    0    0    0  501 -0.00000000000E+00 -0.00000000000E+00 -0.57698261474E+01  0.59079432776E+01  0.12700000000E+01 0. -1.
         25    2    1    2    0    0  0.00000000000E+00  0.00000000000E+00  0.66307055796E+03  0.67474953313E+03  0.12499747046E+03 0.  0.
    9000005    1    3    3    0    0 -0.97900180856E+01  0.43337575196E+02  0.94319279084E+02  0.10426464542E+03  0.10000000000E+01 0.  0.
    9000005    1    3    3    0    0  0.97900180856E+01 -0.43337575196E+02  0.56875127888E+03  0.57048488771E+03  0.10000000000E+01 0.  0.
<mgrwt>
<rscale>  0 0.12499747E+03</rscale>
<asrwt>0</asrwt>
<pdfrwt beam="1">  1        4 0.10290925E+00 0.12499747E+03</pdfrwt>
<pdfrwt beam="2">  1       -4 0.89838260E-03 0.12499747E+03</pdfrwt>
<totfact> 0.44456027E+03</totfact>
</mgrwt>
</event>
<event>
 5    1  0.3236337E-002  0.1250020E+03  0.7818608E-02  0.1235066E+00
         -4   -1    0    0    0  501 -0.00000000000E+00  0.00000000000E+00  0.34484716049E+02  0.34508093848E+02  0.12700000000E+01 0.  1.
          4   -1    0    0  501    0  0.00000000000E+00 -0.00000000000E+00 -0.11321308661E+03  0.11322020968E+03  0.12700000000E+01 0.  1.
         25    2    1    2    0    0  0.00000000000E+00  0.00000000000E+00 -0.78728370562E+02  0.14772830353E+03  0.12500198131E+03 0.  0.
    9000005    1    3    3    0    0  0.37897993952E+02  0.42796285895E+02 -0.69205562106E+02  0.89767420919E+02  0.10000000000E+01 0.  0.
    9000005    1    3    3    0    0 -0.37897993952E+02 -0.42796285895E+02 -0.95228084562E+01  0.57960882610E+02  0.10000000000E+01 0.  0.
<mgrwt>
<rscale>  0 0.12500198E+03</rscale>
<asrwt>0</asrwt>
<pdfrwt beam="2">  1        4 0.17419744E-01 0.12500198E+03</pdfrwt>
<pdfrwt beam="1">  1       -4 0.53076872E-02 0.12500198E+03</pdfrwt>
<totfact> 0.99754020E+03</totfact>
</mgrwt>
</event>
<event>
 5    1  0.3236337E-002  0.1250010E+03  0.7818608E-02  0.1235068E+00
          4   -1    0    0  501    0  0.00000000000E+00  0.00000000000E+00  0.22347371678E+03  0.22347732545E+03  0.12700000000E+01 0.  1.
         -4   -1    0    0    0  501 -0.00000000000E+00 -0.00000000000E+00 -0.17453135045E+02  0.17499280639E+02  0.12700000000E+01 0.  1.
         25    2    1    2    0    0  0.00000000000E+00  0.00000000000E+00  0.20602058173E+03  0.24097660609E+03  0.12500097834E+03 0.  0.
    9000005    1    3    3    0    0 -0.52997153591E+02  0.30494318466E+02  0.78119338480E+02  0.99208027861E+02  0.10000000000E+01 0.  0.
    9000005    1    3    3    0    0  0.52997153591E+02 -0.30494318466E+02  0.12790124326E+03  0.14176857823E+03  0.10000000000E+01 0.  0.
<mgrwt>
<rscale>  0 0.12500098E+03</rscale>
<asrwt>0</asrwt>
<pdfrwt beam="1">  1        4 0.34384396E-01 0.12500098E+03</pdfrwt>
<pdfrwt beam="2">  1       -4 0.26889252E-02 0.12500098E+03</pdfrwt>
<totfact> 0.83650311E+03</totfact>
</mgrwt>
</event>
<event>
 5    1  0.3236337E-002  0.1249833E+03  0.7818608E-02  0.1235095E+00
         -4   -1    0    0    0  501 -0.00000000000E+00  0.00000000000E+00  0.45847921816E+03  0.45848097712E+03  0.12700000000E+01 0.  1.
          4   -1    0    0  501    0  0.00000000000E+00 -0.00000000000E+00 -0.84686199060E+01  0.85633184638E+01  0.12700000000E+01 0.  1.
         25    2    1    2    0    0  0.00000000000E+00  0.00000000000E+00  0.45001059825E+03  0.46704429559E+03  0.12498334089E+03 0.  0.
    9000005    1    3    3    0    0 -0.59177872049E+02  0.18338585952E+02  0.25533707930E+03  0.26274768951E+03  0.10000000000E+01 0.  0.
    9000005    1    3    3    0    0  0.59177872049E+02 -0.18338585952E+02  0.19467351895E+03  0.20429660608E+03  0.10000000000E+01 0.  0.
<mgrwt>
<rscale>  0 0.12498334E+03</rscale>
<asrwt>0</asrwt>
<pdfrwt beam="2">  1        4 0.13102849E-02 0.12498334E+03</pdfrwt>
<pdfrwt beam="1">  1       -4 0.70542658E-01 0.12498334E+03</pdfrwt>
<totfact> 0.58536647E+03</totfact>
</mgrwt>
</event>
<event>
 5    1  0.3236337E-002  0.1249993E+03  0.7818608E-02  0.1235070E+00
          4   -1    0    0  501    0  0.00000000000E+00  0.00000000000E+00  0.12963782478E+02  0.13025841859E+02  0.12700000000E+01 0.  1.
         -4   -1    0    0    0  501 -0.00000000000E+00 -0.00000000000E+00 -0.30053373263E+03  0.30053641601E+03  0.12700000000E+01 0.  1.
         25    2    1    2    0    0  0.00000000000E+00  0.00000000000E+00 -0.28756995015E+03  0.31356225787E+03  0.12499925332E+03 0.  0.
    9000005    1    3    3    0    0  0.59925342146E+02 -0.10770517848E+02 -0.10847346398E+03  0.12439671649E+03  0.10000000000E+01 0.  0.
    9000005    1    3    3    0    0 -0.59925342146E+02  0.10770517848E+02 -0.17909648617E+03  0.18916554138E+03  0.10000000000E+01 0.  0.
<mgrwt>
<rscale>  0 0.12499925E+03</rscale>
<asrwt>0</asrwt>
<pdfrwt beam="1">  1        4 0.19994085E-02 0.12499925E+03</pdfrwt>
<pdfrwt beam="2">  1       -4 0.46240934E-01 0.12499925E+03</pdfrwt>
<totfact> 0.73929635E+03</totfact>
</mgrwt>
</event>
<event>
 5    1  0.3236337E-002  0.1249950E+03  0.7818608E-02  0.1235077E+00
         -4   -1    0    0    0  501 -0.00000000000E+00  0.00000000000E+00  0.20040398003E+03  0.20040800411E+03  0.12700000000E+01 0.  1.
          4   -1    0    0  501    0  0.00000000000E+00 -0.00000000000E+00 -0.19465396265E+02  0.19506782199E+02  0.12700000000E+01 0.  1.
         25    2    1    2    0    0  0.00000000000E+00  0.00000000000E+00  0.18093858377E+03  0.21991478631E+03  0.12499496847E+03 0.  0.
    9000005    1    3    3    0    0  0.55346974833E+01  0.56077679199E+02  0.42946353361E+02  0.70857097369E+02  0.10000000000E+01 0.  0.
    9000005    1    3    3    0    0 -0.55346974833E+01 -0.56077679199E+02  0.13799223041E+03  0.14905768894E+03  0.10000000000E+01 0.  0.
<mgrwt>
<rscale>  0 0.12499497E+03</rscale>
<asrwt>0</asrwt>
<pdfrwt beam="2">  1        4 0.29981694E-02 0.12499497E+03</pdfrwt>
<pdfrwt beam="1">  1       -4 0.30834875E-01 0.12499497E+03</pdfrwt>
<totfact> 0.86891599E+03</totfact>
</mgrwt>
</event>
<event>
 5    1  0.3236337E-002  0.1249809E+03  0.7818608E-02  0.1235099E+00
          4   -1    0    0  501    0  0.00000000000E+00  0.00000000000E+00  0.23473987587E+01  0.26689287986E+01  0.12700000000E+01 0.  1.
         -4   -1    0    0    0  501 -0.00000000000E+00 -0.00000000000E+00 -0.15566170494E+04  0.15566175675E+04  0.12700000000E+01 0.  1.
         25    2    1    2    0    0  0.00000000000E+00  0.00000000000E+00 -0.15542696506E+04  0.15592864963E+04  0.12498092081E+03 0.  0.
    9000005    1    3    3    0    0 -0.13701871091E+02  0.48471637752E+02 -0.12383858422E+04  0.12394102368E+04  0.10000000000E+01 0.  0.
    9000005    1    3    3    0    0  0.13701871091E+02 -0.48471637752E+02 -0.31588380842E+03  0.31987625945E+03  0.10000000000E+01 0.  0.
<mgrwt>
<rscale>  0 0.12498092E+03</rscale>
<asrwt>0</asrwt>
<pdfrwt beam="1">  1        4 0.38591245E-03 0.12498092E+03</pdfrwt>
<pdfrwt beam="2">  1       -4 0.23950355E+00 0.12498092E+03</pdfrwt>
<totfact> 0.16801121E+03</totfact>
</mgrwt>
</event>
<event>
 5    1  0.3236337E-002  0.1249927E+03  0.7818608E-02  0.1235081E+00
         -4   -1    0    0    0  501 -0.00000000000E+00  0.00000000000E+00  0.93230022929E+02  0.93238672638E+02  0.12700000000E+01 0. -1.
          4   -1    0    0  501    0  0.00000000000E+00 -0.00000000000E+00 -0.41873927039E+02  0.41893181613E+02  0.12700000000E+01 0. -1.
         25    2    1    2    0    0  0.00000000000E+00  0.00000000000E+00  0.51356095890E+02  0.13513185425E+03  0.12499267758E+03 0.  0.
    9000005    1    3    3    0    0  0.59427120802E+02 -0.30211752951E+01  0.50492998255E+01  0.59726088234E+02  0.10000000000E+01 0.  0.
    9000005    1    3    3    0    0 -0.59427120802E+02  0.30211752951E+01  0.46306796064E+02  0.75405766018E+02  0.10000000000E+01 0.  0.
<mgrwt>
<rscale>  0 0.12499268E+03</rscale>
<asrwt>0</asrwt>
<pdfrwt beam="2">  1        4 0.64442891E-02 0.12499268E+03</pdfrwt>
<pdfrwt beam="1">  1       -4 0.14345227E-01 0.12499268E+03</pdfrwt>
<totfact> 0.10236983E+04</totfact>
</mgrwt>
</event>
<event>
 5    1  0.3236337E-002  0.1249877E+03  0.7818608E-02  0.1235088E+00
         -4   -1    0    0    0  501 -0.00000000000E+00  0.00000000000E+00  0.13331626821E+03  0.13332231723E+03  0.12700000000E+01 0.  1.
          4   -1    0    0  501    0  0.00000000000E+00 -0.00000000000E+00 -0.29274394062E+02  0.29301929078E+02  0.12700000000E+01 0.  1.
         25    2    1    2    0    0  0.00000000000E+00  0.00000000000E+00  0.10404187415E+03  0.16262424630E+03  0.12498773503E+03 0.  0.
    9000005    1    3    3    0    0  0.24932290969E+02  0.20169732783E+01 -0.22482294013E+02  0.33647300906E+02  0.10000000000E+01 0.  0.
    9000005    1    3    3    0    0 -0.24932290969E+02 -0.20169732783E+01  0.12652416817E+03  0.12897694540E+03  0.10000000000E+01 0.  0.
<mgrwt>
<rscale>  0 0.12498774E+03</rscale>
<asrwt>0</asrwt>
<pdfrwt beam="2">  1        4 0.45063363E-02 0.12498774E+03</pdfrwt>
<pdfrwt beam="1">  1       -4 0.20512778E-01 0.12498774E+03</pdfrwt>
<totfact> 0.96865918E+03</totfact>
</mgrwt>
</event>
<event>
 5    1  0.3236337E-002  0.1250000E+03  0.7818608E-02  0.1235069E+00
          4   -1    0    0  501    0  0.00000000000E+00  0.00000000000E+00  0.28659167237E+02  0.28687292774E+02  0.12700000000E+01 0.  1.
         -4   -1    0    0    0  501 -0.00000000000E+00 -0.00000000000E+00 -0.13620225101E+03  0.13620817186E+03  0.12700000000E+01 0.  1.
         25    2    1    2    0    0  0.00000000000E+00  0.00000000000E+00 -0.10754308377E+03  0.16489546463E+03  0.12499999755E+03 0.  0.
    9000005    1    3    3    0    0  0.35450027976E+02  0.34966706101E+02 -0.39589193227E+01  0.49960464983E+02  0.10000000000E+01 0.  0.
    9000005    1    3    3    0    0 -0.35450027976E+02 -0.34966706101E+02 -0.10358416445E+03  0.11493499965E+03  0.10000000000E+01 0.  0.
<mgrwt>
<rscale>  0 0.12500000E+03</rscale>
<asrwt>0</asrwt>
<pdfrwt beam="1">  1        4 0.44117217E-02 0.12500000E+03</pdfrwt>
<pdfrwt beam="2">  1       -4 0.20956811E-01 0.12500000E+03</pdfrwt>
<totfact> 0.96407199E+03</totfact>
</mgrwt>
</event>
<event>
 5    1  0.3236337E-002  0.1249949E+03  0.7818608E-02  0.1235077E+00
         -4   -1    0    0    0  501 -0.00000000000E+00  0.00000000000E+00  0.67689283457E+02  0.67701196406E+02  0.12700000000E+01 0. -1.
          4   -1    0    0  501    0  0.00000000000E+00 -0.00000000000E+00 -0.57679854147E+02  0.57693833937E+02  0.12700000000E+01 0. -1.
         25    2    1    2    0    0  0.00000000000E+00  0.00000000000E+00  0.10009429310E+02  0.12539503034E+03  0.12499489974E+03 0.  0.
    9000005    1    3    3    0    0  0.46455945202E+02 -0.17119448744E+02 -0.33244767303E+02  0.59644320123E+02  0.10000000000E+01 0.  0.
    9000005    1    3    3    0    0 -0.46455945202E+02  0.17119448744E+02  0.43254196613E+02  0.65750710221E+02  0.10000000000E+01 0.  0.
<mgrwt>
<rscale>  0 0.12499490E+03</rscale>
<asrwt>0</asrwt>
<pdfrwt beam="2">  1        4 0.88758155E-02 0.12499490E+03</pdfrwt>
<pdfrwt beam="1">  1       -4 0.10415728E-01 0.12499490E+03</pdfrwt>
<totfact> 0.10445478E+04</totfact>
</mgrwt>
</event>
<event>
 5    1  0.3236337E-002  0.1249950E+03  0.7818608E-02  0.1235077E+00
         -4   -1    0    0    0  501 -0.00000000000E+00  0.00000000000E+00  0.20941283847E+02  0.20979758558E+02  0.12700000000E+01 0.  1.
          4   -1    0    0  501    0  0.00000000000E+00 -0.00000000000E+00 -0.18630667198E+03  0.18631100054E+03  0.12700000000E+01 0.  1.
         25    2    1    2    0    0  0.00000000000E+00  0.00000000000E+00 -0.16536538813E+03  0.20729075910E+03  0.12499498877E+03 0.  0.
    9000005    1    3    3    0    0 -0.19647884794E+02  0.48471580614E+02 -0.13939398034E+03  0.14888658522E+03  0.10000000000E+01 0.  0.
    9000005    1    3    3    0    0  0.19647884794E+02 -0.48471580614E+02 -0.25971407794E+02  0.58404173883E+02  0.10000000000E+01 0.  0.
<mgrwt>
<rscale>  0 0.12499499E+03</rscale>
<asrwt>0</asrwt>
<pdfrwt beam="2">  1        4 0.28665856E-01 0.12499499E+03</pdfrwt>
<pdfrwt beam="1">  1       -4 0.32250287E-02 0.12499499E+03</pdfrwt>
<totfact> 0.88930221E+03</totfact>
</mgrwt>
</event>
<event>
 5    1  0.3236337E-002  0.1250016E+03  0.7818608E-02  0.1235067E+00
         -4   -1    0    0    0  501 -0.00000000000E+00  0.00000000000E+00  0.68036889839E+02  0.68048741935E+02  0.12700000000E+01 0.  1.
          4   -1    0    0  501    0  0.00000000000E+00 -0.00000000000E+00 -0.57391283756E+02  0.57405333822E+02  0.12700000000E+01 0.  1.
         25    2    1    2    0    0  0.00000000000E+00  0.00000000000E+00  0.10645606082E+02  0.12545407576E+03  0.12500158477E+03 0.  0.
    9000005    1    3    3    0    0 -0.17142927326E+02 -0.59475092053E+02 -0.33213020437E+01  0.61993528528E+02  0.10000000000E+01 0.  0.
    9000005    1    3    3    0    0  0.17142927326E+02  0.59475092053E+02  0.13966908126E+02  0.63460547229E+02  0.10000000000E+01 0.  0.
<mgrwt>
<rscale>  0 0.12500158E+03</rscale>
<asrwt>0</asrwt>
<pdfrwt beam="2">  1        4 0.88314208E-02 0.12500158E+03</pdfrwt>
<pdfrwt beam="1">  1       -4 0.10469206E-01 0.12500158E+03</pdfrwt>
<totfact> 0.10442596E+04</totfact>
</mgrwt>
</event>
<event>
 5    1  0.3236337E-002  0.1250015E+03  0.7818608E-02  0.1235067E+00
         -4   -1    0    0    0  501 -0.00000000000E+00  0.00000000000E+00  0.91583937090E+02  0.91592742250E+02  0.12700000000E+01 0.  1.
          4   -1    0    0  501    0  0.00000000000E+00 -0.00000000000E+00 -0.42632829257E+02  0.42651741236E+02  0.12700000000E+01 0.  1.
         25    2    1    2    0    0  0.00000000000E+00  0.00000000000E+00  0.48951107832E+02  0.13424448349E+03  0.12500148154E+03 0.  0.
    9000005    1    3    3    0    0  0.29990196217E+02 -0.13513543969E+02  0.81539387523E+02  0.87930082778E+02  0.10000000000E+01 0.  0.
    9000005    1    3    3    0    0 -0.29990196217E+02  0.13513543969E+02 -0.32588279691E+02  0.46314400708E+02  0.10000000000E+01 0.  0.
<mgrwt>
<rscale>  0 0.12500148E+03</rscale>
<asrwt>0</asrwt>
<pdfrwt beam="2">  1        4 0.65610289E-02 0.12500148E+03</pdfrwt>
<pdfrwt beam="1">  1       -4 0.14091968E-01 0.12500148E+03</pdfrwt>
<totfact> 0.10253677E+04</totfact>
</mgrwt>
</event>
<event>
 5    1  0.3236337E-002  0.1249885E+03  0.7818608E-02  0.1235087E+00
         -4   -1    0    0    0  501 -0.00000000000E+00  0.00000000000E+00  0.13828868961E+02  0.13887062927E+02  0.12700000000E+01 0. -1.
          4   -1    0    0  501    0  0.00000000000E+00 -0.00000000000E+00 -0.28176603634E+03  0.28176889845E+03  0.12700000000E+01 0. -1.
         25    2    1    2    0    0  0.00000000000E+00  0.00000000000E+00 -0.26793716738E+03  0.29565596138E+03  0.12498848681E+03 0.  0.
    9000005    1    3    3    0    0 -0.17956780897E+01 -0.11921687555E+02  0.11063188566E+02  0.16393450985E+02  0.10000000000E+01 0.  0.
    9000005    1    3    3    0    0  0.17956780897E+01  0.11921687555E+02 -0.27900035595E+03  0.27926251039E+03  0.10000000000E+01 0.  0.
<mgrwt>
<rscale>  0 0.12498849E+03</rscale>
<asrwt>0</asrwt>
<pdfrwt beam="2">  1        4 0.43353313E-01 0.12498849E+03</pdfrwt>
<pdfrwt beam="1">  1       -4 0.21322151E-02 0.12498849E+03</pdfrwt>
<totfact> 0.76166470E+03</totfact>
</mgrwt>
</event>
<event>
 5    1  0.3236337E-002  0.1249962E+03  0.7818608E-02  0.1235075E+00
          4   -1    0    0  501    0  0.00000000000E+00  0.00000000000E+00  0.33851248340E+01  0.36155179631E+01  0.12700000000E+01 0.  1.
         -4   -1    0    0    0  501 -0.00000000000E+00 -0.00000000000E+00 -0.11156702716E+04  0.11156709944E+04  0.12700000000E+01 0.  1.
         25    2    1    2    0    0  0.00000000000E+00  0.00000000000E+00 -0.11122851467E+04  0.11192865124E+04  0.12499619645E+03 0.  0.
    9000005    1    3    3    0    0 -0.56888317779E+02  0.17856209895E+02 -0.38864497153E+03  0.39319338604E+03  0.10000000000E+01 0.  0.
    9000005    1    3    3    0    0  0.56888317779E+02 -0.17856209895E+02 -0.72364017519E+03  0.72609312632E+03  0.10000000000E+01 0.  0.
<mgrwt>
<rscale>  0 0.12499620E+03</rscale>
<asrwt>0</asrwt>
<pdfrwt beam="1">  1        4 0.53856748E-03 0.12499620E+03</pdfrwt>
<pdfrwt beam="2">  1       -4 0.17165908E+00 0.12499620E+03</pdfrwt>
<totfact> 0.26927968E+03</totfact>
</mgrwt>
</event>
<event>
 5    1  0.3236337E-002  0.1249990E+03  0.7818608E-02  0.1235071E+00
          4   -1    0    0  501    0  0.00000000000E+00  0.00000000000E+00  0.18592577602E+02  0.18635901960E+02  0.12700000000E+01 0. -1.
         -4   -1    0    0    0  501 -0.00000000000E+00 -0.00000000000E+00 -0.20980400821E+03  0.20980785200E+03  0.12700000000E+01 0. -1.
         25    2    1    2    0    0  0.00000000000E+00  0.00000000000E+00 -0.19121143061E+03  0.22844375396E+03  0.12499895011E+03 0.  0.
    9000005    1    3    3    0    0  0.17161202206E+00 -0.17884328174E+01  0.18554329689E+02  0.18667916135E+02  0.10000000000E+01 0.  0.
    9000005    1    3    3    0    0 -0.17161202206E+00  0.17884328174E+01 -0.20976576030E+03  0.20977583783E+03  0.10000000000E+01 0.  0.
<mgrwt>
<rscale>  0 0.12499895E+03</rscale>
<asrwt>0</asrwt>
<pdfrwt beam="1">  1        4 0.28640250E-02 0.12499895E+03</pdfrwt>
<pdfrwt beam="2">  1       -4 0.32281166E-01 0.12499895E+03</pdfrwt>
<totfact> 0.85551139E+03</totfact>
</mgrwt>
</event>
<event>
 5    1  0.3236337E-002  0.1250003E+03  0.7818608E-02  0.1235069E+00
         -4   -1    0    0    0  501 -0.00000000000E+00  0.00000000000E+00  0.40908551793E+03  0.40908748927E+03  0.12700000000E+01 0. -1.
          4   -1    0    0  501    0  0.00000000000E+00 -0.00000000000E+00 -0.95045459107E+01  0.95890193956E+01  0.12700000000E+01 0. -1.
         25    2    1    2    0    0  0.00000000000E+00  0.00000000000E+00  0.39958097201E+03  0.41867650866E+03  0.12500026284E+03 0.  0.
    9000005    1    3    3    0    0  0.32609374816E+02 -0.35213457073E+02  0.65734444572E+02  0.81396413238E+02  0.10000000000E+01 0.  0.
    9000005    1    3    3    0    0 -0.32609374816E+02  0.35213457073E+02  0.33384652744E+03  0.33728009543E+03  0.10000000000E+01 0.  0.
<mgrwt>
<rscale>  0 0.12500026E+03</rscale>
<asrwt>0</asrwt>
<pdfrwt beam="2">  1        4 0.14688873E-02 0.12500026E+03</pdfrwt>
<pdfrwt beam="1">  1       -4 0.62942887E-01 0.12500026E+03</pdfrwt>
<totfact> 0.62775614E+03</totfact>
</mgrwt>
</event>
<event>
 5    1  0.3236337E-002  0.1249982E+03  0.7818608E-02  0.1235072E+00
          4   -1    0    0  501    0  0.00000000000E+00  0.00000000000E+00  0.30900042982E+02  0.30926130639E+02  0.12700000000E+01 0. -1.
         -4   -1    0    0    0  501 -0.00000000000E+00 -0.00000000000E+00 -0.12632951693E+03  0.12633590047E+03  0.12700000000E+01 0. -1.
         25    2    1    2    0    0  0.00000000000E+00  0.00000000000E+00 -0.95429473943E+02  0.15726203111E+03  0.12499824771E+03 0.  0.
    9000005    1    3    3    0    0  0.47661187160E+02 -0.47631802516E+01 -0.98209852630E+02  0.10927237437E+03  0.10000000000E+01 0.  0.
    9000005    1    3    3    0    0 -0.47661187160E+02  0.47631802516E+01  0.27803786868E+01  0.47989656732E+02  0.10000000000E+01 0.  0.
<mgrwt>
<rscale>  0 0.12499825E+03</rscale>
<asrwt>0</asrwt>
<pdfrwt beam="1">  1        4 0.47563506E-02 0.12499825E+03</pdfrwt>
<pdfrwt beam="2">  1       -4 0.19437808E-01 0.12499825E+03</pdfrwt>
<totfact> 0.97877112E+03</totfact>
</mgrwt>
</event>
<event>
 5    1  0.3236337E-002  0.1249950E+03  0.7818608E-02  0.1235077E+00
         -4   -1    0    0    0  501 -0.00000000000E+00  0.00000000000E+00  0.30916673965E+02  0.30942747600E+02  0.12700000000E+01 0.  1.
          4   -1    0    0  501    0  0.00000000000E+00 -0.00000000000E+00 -0.12625497529E+03  0.12626136260E+03  0.12700000000E+01 0.  1.
         25    2    1    2    0    0  0.00000000000E+00  0.00000000000E+00 -0.95338301329E+02  0.15720411020E+03  0.12499496216E+03 0.  0.
    9000005    1    3    3    0    0  0.24428911191E+01 -0.15978157581E+01  0.30837049581E+02  0.30991036754E+02  0.10000000000E+01 0.  0.
    9000005    1    3    3    0    0 -0.24428911191E+01  0.15978157581E+01 -0.12617535091E+03  0.12621307345E+03  0.10000000000E+01 0.  0.
<mgrwt>
<rscale>  0 0.12499496E+03</rscale>
<asrwt>0</asrwt>
<pdfrwt beam="2">  1        4 0.19426339E-01 0.12499496E+03</pdfrwt>
<pdfrwt beam="1">  1       -4 0.47589085E-02 0.12499496E+03</pdfrwt>
<totfact> 0.97895623E+03</totfact>
</mgrwt>
</event>
<event>
 5    1  0.3236337E-002  0.1250005E+03  0.7818608E-02  0.1235069E+00
          4   -1    0    0  501    0  0.00000000000E+00  0.00000000000E+00  0.32018490119E+01  0.34445227673E+01  0.12700000000E+01 0. -1.
         -4   -1    0    0    0  501 -0.00000000000E+00 -0.00000000000E+00 -0.11752189585E+04  0.11752196448E+04  0.12700000000E+01 0. -1.
         25    2    1    2    0    0  0.00000000000E+00  0.00000000000E+00 -0.11720171095E+04  0.11786641675E+04  0.12500045907E+03 0.  0.
    9000005    1    3    3    0    0 -0.38760172840E+02  0.15545634991E+02 -0.10243697211E+04  0.10252211192E+04  0.10000000000E+01 0.  0.
    9000005    1    3    3    0    0  0.38760172840E+02 -0.15545634991E+02 -0.14764738848E+03  0.15344304837E+03  0.10000000000E+01 0.  0.
<mgrwt>
<rscale>  0 0.12500046E+03</rscale>
<asrwt>0</asrwt>
<pdfrwt beam="1">  1        4 0.51131309E-03 0.12500046E+03</pdfrwt>
<pdfrwt beam="2">  1       -4 0.18082131E+00 0.12500046E+03</pdfrwt>
<totfact> 0.25277948E+03</totfact>
</mgrwt>
</event>
<event>
 5    1  0.3236337E-002  0.1250015E+03  0.7818608E-02  0.1235067E+00
         -4   -1    0    0    0  501 -0.00000000000E+00  0.00000000000E+00  0.12464040135E+02  0.12528575198E+02  0.12700000000E+01 0.  1.
          4   -1    0    0  501    0  0.00000000000E+00 -0.00000000000E+00 -0.31253383772E+03  0.31253641807E+03  0.12700000000E+01 0.  1.
         25    2    1    2    0    0  0.00000000000E+00  0.00000000000E+00 -0.30006979758E+03  0.32506499327E+03  0.12500146569E+03 0.  0.
    9000005    1    3    3    0    0  0.43639199420E+02 -0.25514388356E+02 -0.24558219920E+03  0.25073288636E+03  0.10000000000E+01 0.  0.
    9000005    1    3    3    0    0 -0.43639199420E+02  0.25514388356E+02 -0.54487598381E+02  0.74332106902E+02  0.10000000000E+01 0.  0.
<mgrwt>
<rscale>  0 0.12500147E+03</rscale>
<asrwt>0</asrwt>
<pdfrwt beam="2">  1        4 0.48087286E-01 0.12500147E+03</pdfrwt>
<pdfrwt beam="1">  1       -4 0.19227076E-02 0.12500147E+03</pdfrwt>
<totfact> 0.72555380E+03</totfact>
</mgrwt>
</event>
<event>
 5    1  0.3236337E-002  0.1250030E+03  0.7818608E-02  0.1235065E+00
         -4   -1    0    0    0  501 -0.00000000000E+00  0.00000000000E+00  0.72695797973E+02  0.72706890615E+02  0.12700000000E+01 0.  1.
          4   -1    0    0  501    0  0.00000000000E+00 -0.00000000000E+00 -0.53714087863E+02  0.53729099517E+02  0.12700000000E+01 0.  1.
         25    2    1    2    0    0  0.00000000000E+00  0.00000000000E+00  0.18981710110E+02  0.12643599013E+03  0.12500301709E+03 0.  0.
    9000005    1    3    3    0    0 -0.70378312545E+00  0.61396976566E+02  0.21258420265E+02  0.64984647989E+02  0.10000000000E+01 0.  0.
    9000005    1    3    3    0    0  0.70378312545E+00 -0.61396976566E+02 -0.22767101546E+01  0.61451342143E+02  0.10000000000E+01 0.  0.
<mgrwt>
<rscale>  0 0.12500302E+03</rscale>
<asrwt>0</asrwt>
<pdfrwt beam="2">  1        4 0.82657139E-02 0.12500302E+03</pdfrwt>
<pdfrwt beam="1">  1       -4 0.11185977E-01 0.12500302E+03</pdfrwt>
<totfact> 0.10420715E+04</totfact>
</mgrwt>
</event>
<event>
 5    1  0.3236337E-002  0.1250006E+03  0.7818608E-02  0.1235068E+00
          4   -1    0    0  501    0  0.00000000000E+00  0.00000000000E+00  0.72592873590E+03  0.72592984682E+03  0.12700000000E+01 0. -1.
         -4   -1    0    0    0  501 -0.00000000000E+00 -0.00000000000E+00 -0.53050289513E+01  0.54549273299E+01  0.12700000000E+01 0. -1.
         25    2    1    2    0    0  0.00000000000E+00  0.00000000000E+00  0.72062370695E+03  0.73138477415E+03  0.12500064337E+03 0.  0.
    9000005    1    3    3    0    0  0.33287492988E+01 -0.19991877717E+02  0.14429559456E+02  0.24899155260E+02  0.10000000000E+01 0.  0.
    9000005    1    3    3    0    0 -0.33287492988E+01  0.19991877717E+02  0.70619414750E+03  0.70648561889E+03  0.10000000000E+01 0.  0.
<mgrwt>
<rscale>  0 0.12500064E+03</rscale>
<asrwt>0</asrwt>
<pdfrwt beam="1">  1        4 0.11169296E+00 0.12500064E+03</pdfrwt>
<pdfrwt beam="2">  1       -4 0.82777442E-03 0.12500064E+03</pdfrwt>
<totfact> 0.41480137E+03</totfact>
</mgrwt>
</event>
<event>
 5    1  0.3236337E-002  0.1250041E+03  0.7818608E-02  0.1235063E+00
          4   -1    0    0  501    0  0.00000000000E+00  0.00000000000E+00  0.29960400278E+03  0.29960669449E+03  0.12700000000E+01 0. -1.
         -4   -1    0    0    0  501 -0.00000000000E+00 -0.00000000000E+00 -0.13005208245E+02  0.13067070885E+02  0.12700000000E+01 0. -1.
         25    2    1    2    0    0  0.00000000000E+00  0.00000000000E+00  0.28659879454E+03  0.31267376537E+03  0.12500405803E+03 0.  0.
    9000005    1    3    3    0    0  0.12942484858E+01  0.49727493864E+02  0.48678318925E+02  0.69606590626E+02  0.10000000000E+01 0.  0.
    9000005    1    3    3    0    0 -0.12942484858E+01 -0.49727493864E+02  0.23792047561E+03  0.24306717475E+03  0.10000000000E+01 0.  0.
<mgrwt>
<rscale>  0 0.12500406E+03</rscale>
<asrwt>0</asrwt>
<pdfrwt beam="1">  1        4 0.46097879E-01 0.12500406E+03</pdfrwt>
<pdfrwt beam="2">  1       -4 0.20057674E-02 0.12500406E+03</pdfrwt>
<totfact> 0.74029384E+03</totfact>
</mgrwt>
</event>
<event>
 5    1  0.3236337E-002  0.1250018E+03  0.7818608E-02  0.1235067E+00
         -4   -1    0    0    0  501 -0.00000000000E+00  0.00000000000E+00  0.24202926978E+01  0.27332611919E+01  0.12700000000E+01 0. -1.
          4   -1    0    0  501    0  0.00000000000E+00 -0.00000000000E+00 -0.15156738830E+04  0.15156744151E+04  0.12700000000E+01 0. -1.
         25    2    1    2    0    0  0.00000000000E+00  0.00000000000E+00 -0.15132535903E+04  0.15184076763E+04  0.12500177111E+03 0.  0.
    9000005    1    3    3    0    0  0.35357129972E+01  0.47384555796E+02 -0.12496794243E+04  0.12505828485E+04  0.10000000000E+01 0.  0.
    9000005    1    3    3    0    0 -0.35357129972E+01 -0.47384555796E+02 -0.26357416600E+03  0.26782482779E+03  0.10000000000E+01 0.  0.
<mgrwt>
<rscale>  0 0.12500177E+03</rscale>
<asrwt>0</asrwt>
<pdfrwt beam="2">  1        4 0.23320400E+00 0.12500177E+03</pdfrwt>
<pdfrwt beam="1">  1       -4 0.39646936E-03 0.12500177E+03</pdfrwt>
<totfact> 0.17570785E+03</totfact>
</mgrwt>
</event>
<event>
 5    1  0.3236337E-002  0.1250016E+03  0.7818608E-02  0.1235067E+00
          4   -1    0    0  501    0  0.00000000000E+00  0.00000000000E+00  0.15098066395E+03  0.15098600527E+03  0.12700000000E+01 0. -1.
         -4   -1    0    0    0  501 -0.00000000000E+00 -0.00000000000E+00 -0.25851783825E+02  0.25882960166E+02  0.12700000000E+01 0. -1.
         25    2    1    2    0    0  0.00000000000E+00  0.00000000000E+00  0.12512888012E+03  0.17686896543E+03  0.12500157716E+03 0.  0.
    9000005    1    3    3    0    0  0.10664439413E+02 -0.47206263940E+02  0.66219744903E+01  0.48857058541E+02  0.10000000000E+01 0.  0.
    9000005    1    3    3    0    0 -0.10664439413E+02  0.47206263940E+02  0.11850690563E+03  0.12801190689E+03  0.10000000000E+01 0.  0.
<mgrwt>
<rscale>  0 0.12500158E+03</rscale>
<asrwt>0</asrwt>
<pdfrwt beam="1">  1        4 0.23230604E-01 0.12500158E+03</pdfrwt>
<pdfrwt beam="2">  1       -4 0.39800065E-02 0.12500158E+03</pdfrwt>
<totfact> 0.94180323E+03</totfact>
</mgrwt>
</event>
<event>
 5    1  0.3236337E-002  0.1249992E+03  0.7818608E-02  0.1235070E+00
          4   -1    0    0  501    0  0.00000000000E+00  0.00000000000E+00  0.39348653737E+01  0.41347388683E+01  0.12700000000E+01 0. -1.
         -4   -1    0    0    0  501 -0.00000000000E+00 -0.00000000000E+00 -0.96792716800E+03  0.96792800117E+03  0.12700000000E+01 0. -1.
         25    2    1    2    0    0  0.00000000000E+00  0.00000000000E+00 -0.96399230263E+03  0.97206274004E+03  0.12499924420E+03 0.  0.
    9000005    1    3    3    0    0 -0.45156278617E+02 -0.37880267104E+02 -0.64347869986E+03  0.64617322857E+03  0.10000000000E+01 0.  0.
    9000005    1    3    3    0    0  0.45156278617E+02  0.37880267104E+02 -0.32051360276E+03  0.32588951147E+03  0.10000000000E+01 0.  0.
<mgrwt>
<rscale>  0 0.12499924E+03</rscale>
<asrwt>0</asrwt>
<pdfrwt beam="1">  1        4 0.62080365E-03 0.12499924E+03</pdfrwt>
<pdfrwt beam="2">  1       -4 0.14892713E+00 0.12499924E+03</pdfrwt>
<totfact> 0.31545942E+03</totfact>
</mgrwt>
</event>
<event>
 5    1  0.3236337E-002  0.1250018E+03  0.7818608E-02  0.1235066E+00
          4   -1    0    0  501    0  0.00000000000E+00  0.00000000000E+00  0.52171757662E+02  0.52187212969E+02  0.12700000000E+01 0. -1.
         -4   -1    0    0    0  501 -0.00000000000E+00 -0.00000000000E+00 -0.74843138982E+02  0.74853913409E+02  0.12700000000E+01 0. -1.
         25    2    1    2    0    0  0.00000000000E+00  0.00000000000E+00 -0.22671381320E+02  0.12704112638E+03  0.12500182503E+03 0.  0.
    9000005    1    3    3    0    0  0.31074702119E+02  0.54035640655E+02 -0.15866730231E+02  0.64329159026E+02  0.10000000000E+01 0.  0.
    9000005    1    3    3    0    0 -0.31074702119E+02 -0.54035640655E+02 -0.68046510893E+01  0.62711967352E+02  0.10000000000E+01 0.  0.
<mgrwt>
<rscale>  0 0.12500183E+03</rscale>
<asrwt>0</asrwt>
<pdfrwt beam="1">  1        4 0.80284419E-02 0.12500183E+03</pdfrwt>
<pdfrwt beam="2">  1       -4 0.11516347E-01 0.12500183E+03</pdfrwt>
<totfact> 0.10407823E+04</totfact>
</mgrwt>
</event>
<event>
 5    1  0.3236337E-002  0.1250011E+03  0.7818608E-02  0.1235068E+00
          4   -1    0    0  501    0  0.00000000000E+00  0.00000000000E+00  0.16520216252E+03  0.16520704405E+03  0.12700000000E+01 0.  1.
         -4   -1    0    0    0  501 -0.00000000000E+00 -0.00000000000E+00 -0.23623407814E+02  0.23657520934E+02  0.12700000000E+01 0.  1.
         25    2    1    2    0    0  0.00000000000E+00  0.00000000000E+00  0.14157875471E+03  0.18886456498E+03  0.12500112048E+03 0.  0.
    9000005    1    3    3    0    0  0.22372307142E+02 -0.62965699545E+00  0.15894643503E+03  0.16051755606E+03  0.10000000000E+01 0.  0.
    9000005    1    3    3    0    0 -0.22372307142E+02  0.62965699545E+00 -0.17367680323E+02  0.28347008918E+02  0.10000000000E+01 0.  0.
<mgrwt>
<rscale>  0 0.12500112E+03</rscale>
<asrwt>0</asrwt>
<pdfrwt beam="1">  1        4 0.25418716E-01 0.12500112E+03</pdfrwt>
<pdfrwt beam="2">  1       -4 0.36373701E-02 0.12500112E+03</pdfrwt>
<totfact> 0.92042942E+03</totfact>
</mgrwt>
</event>
<event>
 5    1  0.3236337E-002  0.1249917E+03  0.7818608E-02  0.1235082E+00
         -4   -1    0    0    0  501 -0.00000000000E+00  0.00000000000E+00  0.13228749288E+03  0.13229358893E+03  0.12700000000E+01 0.  1.
          4   -1    0    0  501    0  0.00000000000E+00 -0.00000000000E+00 -0.29504131569E+02  0.29531452379E+02  0.12700000000E+01 0.  1.
         25    2    1    2    0    0  0.00000000000E+00  0.00000000000E+00  0.10278336131E+03  0.16182504131E+03  0.12499169825E+03 0.  0.
    9000005    1    3    3    0    0 -0.16307344700E+02 -0.25165094114E+02 -0.19586415741E+02  0.35830701006E+02  0.10000000000E+01 0.  0.
    9000005    1    3    3    0    0  0.16307344700E+02  0.25165094114E+02  0.12236977705E+03  0.12599434030E+03  0.10000000000E+01 0.  0.
<mgrwt>
<rscale>  0 0.12499170E+03</rscale>
<asrwt>0</asrwt>
<pdfrwt beam="2">  1        4 0.45416677E-02 0.12499170E+03</pdfrwt>
<pdfrwt beam="1">  1       -4 0.20354493E-01 0.12499170E+03</pdfrwt>
<totfact> 0.97010178E+03</totfact>
</mgrwt>
</event>
<event>
 5    1  0.3236337E-002  0.1250016E+03  0.7818608E-02  0.1235067E+00
          4   -1    0    0  501    0  0.00000000000E+00  0.00000000000E+00  0.13603414326E+02  0.13662568621E+02  0.12700000000E+01 0. -1.
         -4   -1    0    0    0  501 -0.00000000000E+00 -0.00000000000E+00 -0.28647608139E+03  0.28647889645E+03  0.12700000000E+01 0. -1.
         25    2    1    2    0    0  0.00000000000E+00  0.00000000000E+00 -0.27287266706E+03  0.30014146507E+03  0.12500162648E+03 0.  0.
    9000005    1    3    3    0    0 -0.22032706071E+02 -0.38382550709E+02 -0.30496598993E+02  0.53755956748E+02  0.10000000000E+01 0.  0.
    9000005    1    3    3    0    0  0.22032706071E+02  0.38382550709E+02 -0.24237606807E+03  0.24638550832E+03  0.10000000000E+01 0.  0.
<mgrwt>
<rscale>  0 0.12500163E+03</rscale>
<asrwt>0</asrwt>
<pdfrwt beam="1">  1        4 0.20976001E-02 0.12500163E+03</pdfrwt>
<pdfrwt beam="2">  1       -4 0.44078006E-01 0.12500163E+03</pdfrwt>
<totfact> 0.75578370E+03</totfact>
</mgrwt>
</event>
<event>
 5    1  0.3236337E-002  0.1249894E+03  0.7818608E-02  0.1235086E+00
         -4   -1    0    0    0  501 -0.00000000000E+00  0.00000000000E+00  0.15462055810E+03  0.15462577368E+03  0.12700000000E+01 0. -1.
          4   -1    0    0  501    0  0.00000000000E+00 -0.00000000000E+00 -0.25237564999E+02  0.25269499146E+02  0.12700000000E+01 0. -1.
         25    2    1    2    0    0  0.00000000000E+00  0.00000000000E+00  0.12938299310E+03  0.17989527283E+03  0.12498940068E+03 0.  0.
    9000005    1    3    3    0    0  0.37765589397E+02  0.39058015521E+02  0.10911899163E+03  0.12190046208E+03  0.10000000000E+01 0.  0.
    9000005    1    3    3    0    0 -0.37765589397E+02 -0.39058015521E+02  0.20264001468E+02  0.57994810754E+02  0.10000000000E+01 0.  0.
<mgrwt>
<rscale>  0 0.12498940E+03</rscale>
<asrwt>0</asrwt>
<pdfrwt beam="2">  1        4 0.38855600E-02 0.12498940E+03</pdfrwt>
<pdfrwt beam="1">  1       -4 0.23790636E-01 0.12498940E+03</pdfrwt>
<totfact> 0.93658114E+03</totfact>
</mgrwt>
</event>
<event>
 5    1  0.3236337E-002  0.1250040E+03  0.7818608E-02  0.1235063E+00
         -4   -1    0    0    0  501 -0.00000000000E+00  0.00000000000E+00  0.80000365579E+03  0.80000466384E+03  0.12700000000E+01 0. -1.
          4   -1    0    0  501    0  0.00000000000E+00 -0.00000000000E+00 -0.47994959311E+01  0.49646813788E+01  0.12700000000E+01 0. -1.
         25    2    1    2    0    0  0.00000000000E+00  0.00000000000E+00  0.79520415986E+03  0.80496934522E+03  0.12500396352E+03 0.  0.
    9000005    1    3    3    0    0  0.40865143728E+02  0.47213966017E+02  0.38133770101E+03  0.38641759894E+03  0.10000000000E+01 0.  0.
    9000005    1    3    3    0    0 -0.40865143728E+02 -0.47213966017E+02  0.41386645885E+03  0.41855174629E+03  0.10000000000E+01 0.  0.
<mgrwt>
<rscale>  0 0.12500396E+03</rscale>
<asrwt>0</asrwt>
<pdfrwt beam="2">  1        4 0.75116853E-03 0.12500396E+03</pdfrwt>
<pdfrwt beam="1">  1       -4 0.12309020E+00 0.12500396E+03</pdfrwt>
<totfact> 0.38040566E+03</totfact>
</mgrwt>
</event>
<event>
 5    1  0.3236337E-002  0.1249977E+03  0.7818608E-02  0.1235073E+00
          4   -1    0    0  501    0  0.00000000000E+00  0.00000000000E+00  0.68428524282E+02  0.68440308557E+02  0.12700000000E+01 0. -1.
         -4   -1    0    0    0  501 -0.00000000000E+00 -0.00000000000E+00 -0.57059215676E+02  0.57073347488E+02  0.12700000000E+01 0. -1.
         25    2    1    2    0    0  0.00000000000E+00  0.00000000000E+00  0.11369308606E+02  0.12551365605E+03  0.12499766668E+03 0.  0.
    9000005    1    3    3    0    0  0.60571683431E+02 -0.14713269170E+02  0.10140884004E+02  0.63160483308E+02  0.10000000000E+01 0.  0.
    9000005    1    3    3    0    0 -0.60571683431E+02  0.14713269170E+02  0.12284246016E+01  0.62353172737E+02  0.10000000000E+01 0.  0.
<mgrwt>
<rscale>  0 0.12499767E+03</rscale>
<asrwt>0</asrwt>
<pdfrwt beam="1">  1        4 0.10529459E-01 0.12499767E+03</pdfrwt>
<pdfrwt beam="2">  1       -4 0.87803344E-02 0.12499767E+03</pdfrwt>
<totfact> 0.10442202E+04</totfact>
</mgrwt>
</event>
<event>
 4    1  0.3236337E-002  0.1249348E+03  0.7818608E-02  0.1235171E+00
          4   -1    0    0  501    0  0.00000000000E+00  0.00000000000E+00  0.42393348266E+03  0.42393538496E+03  0.12700000000E+01 0.  1.
         -4   -1    0    0    0  501 -0.00000000000E+00 -0.00000000000E+00 -0.91589445009E+01  0.92465758187E+01  0.12700000000E+01 0.  1.
    9000005    1    1    2    0    0  0.37562344400E+02  0.68692692312E+01  0.37876479527E+03  0.38068607371E+03  0.10000000000E+01 0.  0.
    9000005    1    1    2    0    0 -0.37562344400E+02 -0.68692692312E+01  0.36009742888E+02  0.52495887072E+02  0.10000000000E+01 0.  0.
<mgrwt>
<rscale>  0 0.12493476E+03</rscale>
<asrwt>0</asrwt>
<pdfrwt beam="1">  1        4 0.65227426E-01 0.12493476E+03</pdfrwt>
<pdfrwt beam="2">  1       -4 0.14159555E-02 0.12493476E+03</pdfrwt>
<totfact> 0.61537084E+03</totfact>
</mgrwt>
</event>
<event>
 5    1  0.3236337E-002  0.1250001E+03  0.7818608E-02  0.1235069E+00
          4   -1    0    0  501    0  0.00000000000E+00  0.00000000000E+00  0.18084104247E+03  0.18084550186E+03  0.12700000000E+01 0.  1.
         -4   -1    0    0    0  501 -0.00000000000E+00 -0.00000000000E+00 -0.21577083536E+02  0.21614426523E+02  0.12700000000E+01 0.  1.
         25    2    1    2    0    0  0.00000000000E+00  0.00000000000E+00  0.15926395894E+03  0.20245992838E+03  0.12500005594E+03 0.  0.
    9000005    1    3    3    0    0 -0.49242028087E+02  0.29818906608E+02  0.11901745622E+03  0.13221232698E+03  0.10000000000E+01 0.  0.
    9000005    1    3    3    0    0  0.49242028087E+02 -0.29818906608E+02  0.40246502721E+02  0.70247601402E+02  0.10000000000E+01 0.  0.
<mgrwt>
<rscale>  0 0.12500006E+03</rscale>
<asrwt>0</asrwt>
<pdfrwt beam="1">  1        4 0.27824915E-01 0.12500006E+03</pdfrwt>
<pdfrwt beam="2">  1       -4 0.33227668E-02 0.12500006E+03</pdfrwt>
<totfact> 0.89722159E+03</totfact>
</mgrwt>
</event>
<event>
 5    1  0.3236337E-002  0.1250016E+03  0.7818608E-02  0.1235067E+00
         -4   -1    0    0    0  501 -0.00000000000E+00  0.00000000000E+00  0.45703123228E+01  0.47434855041E+01  0.12700000000E+01 0.  1.
          4   -1    0    0  501    0  0.00000000000E+00 -0.00000000000E+00 -0.83865697793E+03  0.83865793953E+03  0.12700000000E+01 0.  1.
         25    2    1    2    0    0  0.00000000000E+00  0.00000000000E+00 -0.83408666561E+03  0.84340142503E+03  0.12500159199E+03 0.  0.
    9000005    1    3    3    0    0 -0.11924011699E+02 -0.92750196100E+00 -0.31905189874E+01  0.12418604039E+02  0.10000000000E+01 0.  0.
    9000005    1    3    3    0    0  0.11924011699E+02  0.92750196100E+00 -0.83089614662E+03  0.83098282099E+03  0.10000000000E+01 0.  0.
<mgrwt>
<rscale>  0 0.12500159E+03</rscale>
<asrwt>0</asrwt>
<pdfrwt beam="2">  1        4 0.12903743E+00 0.12500159E+03</pdfrwt>
<pdfrwt beam="1">  1       -4 0.71652062E-03 0.12500159E+03</pdfrwt>
<totfact> 0.36397641E+03</totfact>
</mgrwt>
</event>
<event>
 5    1  0.3236337E-002  0.1250059E+03  0.7818608E-02  0.1235060E+00
         -4   -1    0    0    0  501 -0.00000000000E+00  0.00000000000E+00  0.10381982794E+03  0.10382759543E+03  0.12700000000E+01 0.  1.
          4   -1    0    0  501    0  0.00000000000E+00 -0.00000000000E+00 -0.37608932552E+02  0.37630369487E+02  0.12700000000E+01 0.  1.
         25    2    1    2    0    0  0.00000000000E+00  0.00000000000E+00  0.66210895387E+02  0.14145796492E+03  0.12500589255E+03 0.  0.
    9000005    1    3    3    0    0 -0.45347837864E+02  0.40230031820E+02  0.50294621715E+02  0.78774557013E+02  0.10000000000E+01 0.  0.
    9000005    1    3    3    0    0  0.45347837864E+02 -0.40230031820E+02  0.15916273672E+02  0.62683407907E+02  0.10000000000E+01 0.  0.
<mgrwt>
<rscale>  0 0.12500589E+03</rscale>
<asrwt>0</asrwt>
<pdfrwt beam="2">  1        4 0.57882362E-02 0.12500589E+03</pdfrwt>
<pdfrwt beam="1">  1       -4 0.15974528E-01 0.12500589E+03</pdfrwt>
<totfact> 0.10102117E+04</totfact>
</mgrwt>
</event>
<event>
 5    1  0.3236337E-002  0.1250012E+03  0.7818608E-02  0.1235067E+00
          4   -1    0    0  501    0  0.00000000000E+00  0.00000000000E+00  0.18658609535E+02  0.18701780925E+02  0.12700000000E+01 0.  1.
         -4   -1    0    0    0  501 -0.00000000000E+00 -0.00000000000E+00 -0.20907065256E+03  0.20907450984E+03  0.12700000000E+01 0.  1.
         25    2    1    2    0    0  0.00000000000E+00  0.00000000000E+00 -0.19041204303E+03  0.22777629076E+03  0.12500117001E+03 0.  0.
    9000005    1    3    3    0    0 -0.25535606489E+02  0.56877237753E+02 -0.87424647611E+02  0.10738322207E+03  0.10000000000E+01 0.  0.
    9000005    1    3    3    0    0  0.25535606489E+02 -0.56877237753E+02 -0.10298739542E+03  0.12039306869E+03  0.10000000000E+01 0.  0.
<mgrwt>
<rscale>  0 0.12500117E+03</rscale>
<asrwt>0</asrwt>
<pdfrwt beam="1">  1        4 0.28741730E-02 0.12500117E+03</pdfrwt>
<pdfrwt beam="2">  1       -4 0.32168332E-01 0.12500117E+03</pdfrwt>
<totfact> 0.85649987E+03</totfact>
</mgrwt>
</event>
<event>
 5    1  0.3236337E-002  0.1249643E+03  0.7818608E-02  0.1235125E+00
          4   -1    0    0  501    0  0.00000000000E+00  0.00000000000E+00  0.48996229613E+02  0.49012686279E+02  0.12700000000E+01 0. -1.
         -4   -1    0    0    0  501 -0.00000000000E+00 -0.00000000000E+00 -0.79645104689E+02  0.79655229589E+02  0.12700000000E+01 0. -1.
         25    2    1    2    0    0  0.00000000000E+00  0.00000000000E+00 -0.30648875076E+02  0.12866791587E+03  0.12496431103E+03 0.  0.
    9000005    1    3    3    0    0  0.59783998172E+02  0.17079689990E+02 -0.21602482438E+02  0.65829396891E+02  0.10000000000E+01 0.  0.
    9000005    1    3    3    0    0 -0.59783998172E+02 -0.17079689990E+02 -0.90463926381E+01  0.62838518978E+02  0.10000000000E+01 0.  0.
<mgrwt>
<rscale>  0 0.12496431E+03</rscale>
<asrwt>0</asrwt>
<pdfrwt beam="1">  1        4 0.75399262E-02 0.12496431E+03</pdfrwt>
<pdfrwt beam="2">  1       -4 0.12255138E-01 0.12496431E+03</pdfrwt>
<totfact> 0.10381450E+04</totfact>
</mgrwt>
</event>
<event>
 5    1  0.3236337E-002  0.1249971E+03  0.7818608E-02  0.1235074E+00
         -4   -1    0    0    0  501 -0.00000000000E+00  0.00000000000E+00  0.16901345761E+03  0.16901822906E+03  0.12700000000E+01 0.  1.
          4   -1    0    0  501    0  0.00000000000E+00 -0.00000000000E+00 -0.23088431864E+02  0.23123334230E+02  0.12700000000E+01 0.  1.
         25    2    1    2    0    0  0.00000000000E+00  0.00000000000E+00  0.14592502575E+03  0.19214156329E+03  0.12499706878E+03 0.  0.
    9000005    1    3    3    0    0 -0.33774644215E+02  0.22454203338E+01 -0.77834499511E+01  0.34746950909E+02  0.10000000000E+01 0.  0.
    9000005    1    3    3    0    0  0.33774644215E+02 -0.22454203338E+01  0.15370847570E+03  0.15739461238E+03  0.10000000000E+01 0.  0.
<mgrwt>
<rscale>  0 0.12499707E+03</rscale>
<asrwt>0</asrwt>
<pdfrwt beam="2">  1        4 0.35551183E-02 0.12499707E+03</pdfrwt>
<pdfrwt beam="1">  1       -4 0.26005122E-01 0.12499707E+03</pdfrwt>
<totfact> 0.91482025E+03</totfact>
</mgrwt>
</event>
<event>
 4    1  0.3236337E-002  0.1253586E+03  0.7818608E-02  0.1234510E+00
          4   -1    0    0  501    0  0.00000000000E+00  0.00000000000E+00  0.79887620876E+02  0.79897715044E+02  0.12700000000E+01 0. -1.
         -4   -1    0    0    0  501 -0.00000000000E+00 -0.00000000000E+00 -0.49156380898E+02  0.49172783966E+02  0.12700000000E+01 0. -1.
    9000005    1    1    2    0    0 -0.71957629638E+01 -0.45922184065E+02  0.58646857422E+02  0.74840362636E+02  0.10000000000E+01 0.  0.
    9000005    1    1    2    0    0  0.71957629638E+01  0.45922184065E+02 -0.27915617444E+02  0.54230136374E+02  0.10000000000E+01 0.  0.
<mgrwt>
<rscale>  0 0.12535862E+03</rscale>
<asrwt>0</asrwt>
<pdfrwt beam="1">  1        4 0.12292441E-01 0.12535862E+03</pdfrwt>
<pdfrwt beam="2">  1       -4 0.75645584E-02 0.12535862E+03</pdfrwt>
<totfact> 0.10280971E+04</totfact>
</mgrwt>
</event>
<event>
 5    1  0.3236337E-002  0.1249995E+03  0.7818608E-02  0.1235070E+00
          4   -1    0    0  501    0  0.00000000000E+00  0.00000000000E+00  0.30904296830E+03  0.30904557779E+03  0.12700000000E+01 0.  1.
         -4   -1    0    0    0  501 -0.00000000000E+00 -0.00000000000E+00 -0.12605165437E+02  0.12668981636E+02  0.12700000000E+01 0.  1.
         25    2    1    2    0    0  0.00000000000E+00  0.00000000000E+00  0.29643780286E+03  0.32171455943E+03  0.12499954714E+03 0.  0.
    9000005    1    3    3    0    0 -0.61630075180E+02  0.15831031410E+01  0.12191530867E+03  0.13662033110E+03  0.10000000000E+01 0.  0.
    9000005    1    3    3    0    0  0.61630075180E+02 -0.15831031410E+01  0.17452249419E+03  0.18509422833E+03  0.10000000000E+01 0.  0.
<mgrwt>
<rscale>  0 0.12499955E+03</rscale>
<asrwt>0</asrwt>
<pdfrwt beam="1">  1        4 0.47550177E-01 0.12499955E+03</pdfrwt>
<pdfrwt beam="2">  1       -4 0.19443661E-02 0.12499955E+03</pdfrwt>
<totfact> 0.72953398E+03</totfact>
</mgrwt>
</event>
<event>
 5    1  0.3236337E-002  0.1250011E+03  0.7818608E-02  0.1235068E+00
          4   -1    0    0  501    0  0.00000000000E+00  0.00000000000E+00  0.90454899350E+02  0.90463814404E+02  0.12700000000E+01 0. -1.
         -4   -1    0    0    0  501 -0.00000000000E+00 -0.00000000000E+00 -0.43164884910E+02  0.43183563879E+02  0.12700000000E+01 0. -1.
         25    2    1    2    0    0  0.00000000000E+00  0.00000000000E+00  0.47290014440E+02  0.13364737828E+03  0.12500110502E+03 0.  0.
    9000005    1    3    3    0    0 -0.46386894062E+02 -0.35266680625E+02  0.47786381785E+02  0.75365913960E+02  0.10000000000E+01 0.  0.
    9000005    1    3    3    0    0  0.46386894062E+02  0.35266680625E+02 -0.49636734472E+00  0.58281464322E+02  0.10000000000E+01 0.  0.
<mgrwt>
<rscale>  0 0.12500111E+03</rscale>
<asrwt>0</asrwt>
<pdfrwt beam="1">  1        4 0.13918261E-01 0.12500111E+03</pdfrwt>
<pdfrwt beam="2">  1       -4 0.66428742E-02 0.12500111E+03</pdfrwt>
<totfact> 0.10266404E+04</totfact>
</mgrwt>
</event>
<event>
 5    1  0.3236337E-002  0.1250149E+03  0.7818608E-02  0.1235046E+00
          4   -1    0    0  501    0  0.00000000000E+00  0.00000000000E+00  0.17039958627E+03  0.17040431890E+03  0.12700000000E+01 0.  1.
         -4   -1    0    0    0  501 -0.00000000000E+00 -0.00000000000E+00 -0.22906870611E+02  0.22942049194E+02  0.12700000000E+01 0.  1.
         25    2    1    2    0    0  0.00000000000E+00  0.00000000000E+00  0.14749271566E+03  0.19334636810E+03  0.12501486665E+03 0.  0.
    9000005    1    3    3    0    0  0.21778361350E+01  0.10924448433E+02  0.16885948041E+03  0.16922946158E+03  0.10000000000E+01 0.  0.
    9000005    1    3    3    0    0 -0.21778361350E+01 -0.10924448433E+02 -0.21366764752E+02  0.24116906513E+02  0.10000000000E+01 0.  0.
<mgrwt>
<rscale>  0 0.12501487E+03</rscale>
<asrwt>0</asrwt>
<pdfrwt beam="1">  1        4 0.26218392E-01 0.12501487E+03</pdfrwt>
<pdfrwt beam="2">  1       -4 0.35272039E-02 0.12501487E+03</pdfrwt>
<totfact> 0.91237918E+03</totfact>
</mgrwt>
</event>
<event>
 5    1  0.3236337E-002  0.1250032E+03  0.7818608E-02  0.1235064E+00
          4   -1    0    0  501    0  0.00000000000E+00  0.00000000000E+00  0.54415375230E+01  0.55877751041E+01  0.12700000000E+01 0.  1.
         -4   -1    0    0    0  501 -0.00000000000E+00 -0.00000000000E+00 -0.70822867352E+03  0.70822981220E+03  0.12700000000E+01 0.  1.
         25    2    1    2    0    0  0.00000000000E+00  0.00000000000E+00 -0.70278713599E+03  0.71381758731E+03  0.12500315768E+03 0.  0.
    9000005    1    3    3    0    0  0.49437208403E+02  0.50945824064E+01 -0.13504149868E+03  0.14389996077E+03  0.10000000000E+01 0.  0.
    9000005    1    3    3    0    0 -0.49437208403E+02 -0.50945824064E+01 -0.56774563732E+03  0.56991762654E+03  0.10000000000E+01 0.  0.
<mgrwt>
<rscale>  0 0.12500316E+03</rscale>
<asrwt>0</asrwt>
<pdfrwt beam="1">  1        4 0.84849681E-03 0.12500316E+03</pdfrwt>
<pdfrwt beam="2">  1       -4 0.10896952E+00 0.12500316E+03</pdfrwt>
<totfact> 0.42364350E+03</totfact>
</mgrwt>
</event>
<event>
 5    1  0.3236337E-002  0.1250021E+03  0.7818608E-02  0.1235066E+00
          4   -1    0    0  501    0  0.00000000000E+00  0.00000000000E+00  0.10538919827E+04  0.10538927479E+04  0.12700000000E+01 0.  1.
         -4   -1    0    0    0  501 -0.00000000000E+00 -0.00000000000E+00 -0.35970477894E+01  0.38146628683E+01  0.12700000000E+01 0.  1.
         25    2    1    2    0    0  0.00000000000E+00  0.00000000000E+00  0.10502949349E+04  0.10577074108E+04  0.12500206606E+03 0.  0.
    9000005    1    3    3    0    0 -0.58937016071E+01  0.39717055776E+02  0.93034726308E+03  0.93121383696E+03  0.10000000000E+01 0.  0.
    9000005    1    3    3    0    0  0.58937016071E+01 -0.39717055776E+02  0.11994767182E+03  0.12649357380E+03  0.10000000000E+01 0.  0.
<mgrwt>
<rscale>  0 0.12500207E+03</rscale>
<asrwt>0</asrwt>
<pdfrwt beam="1">  1        4 0.16215445E+00 0.12500207E+03</pdfrwt>
<pdfrwt beam="2">  1       -4 0.57018897E-03 0.12500207E+03</pdfrwt>
<totfact> 0.28753948E+03</totfact>
</mgrwt>
</event>
<event>
 5    1  0.3236337E-002  0.1250028E+03  0.7818608E-02  0.1235065E+00
         -4   -1    0    0    0  501 -0.00000000000E+00  0.00000000000E+00  0.13214255380E+04  0.13214261483E+04  0.12700000000E+01 0. -1.
          4   -1    0    0  501    0  0.00000000000E+00 -0.00000000000E+00 -0.28191839766E+01  0.30920378869E+01  0.12700000000E+01 0. -1.
         25    2    1    2    0    0  0.00000000000E+00  0.00000000000E+00  0.13186063540E+04  0.13245181862E+04  0.12500283451E+03 0.  0.
    9000005    1    3    3    0    0  0.53546764965E+02 -0.39189273172E+01  0.99817558748E+03  0.99961898615E+03  0.10000000000E+01 0.  0.
    9000005    1    3    3    0    0 -0.53546764965E+02  0.39189273172E+01  0.32043076655E+03  0.32489920003E+03  0.10000000000E+01 0.  0.
<mgrwt>
<rscale>  0 0.12500283E+03</rscale>
<asrwt>0</asrwt>
<pdfrwt beam="2">  1        4 0.45475785E-03 0.12500283E+03</pdfrwt>
<pdfrwt beam="1">  1       -4 0.20331659E+00 0.12500283E+03</pdfrwt>
<totfact> 0.21655906E+03</totfact>
</mgrwt>
</event>
<event>
 5    1  0.3236337E-002  0.1250029E+03  0.7818608E-02  0.1235065E+00
         -4   -1    0    0    0  501 -0.00000000000E+00  0.00000000000E+00  0.21504021928E+02  0.21541491571E+02  0.12700000000E+01 0. -1.
          4   -1    0    0  501    0  0.00000000000E+00 -0.00000000000E+00 -0.18146266203E+03  0.18146710614E+03  0.12700000000E+01 0. -1.
         25    2    1    2    0    0  0.00000000000E+00  0.00000000000E+00 -0.15995864010E+03  0.20300859771E+03  0.12500289677E+03 0.  0.
    9000005    1    3    3    0    0 -0.38692749535E+02  0.48823744485E+02 -0.71933534990E+02  0.95164701167E+02  0.10000000000E+01 0.  0.
    9000005    1    3    3    0    0  0.38692749535E+02 -0.48823744485E+02 -0.88025105115E+02  0.10784389655E+03  0.10000000000E+01 0.  0.
<mgrwt>
<rscale>  0 0.12500290E+03</rscale>
<asrwt>0</asrwt>
<pdfrwt beam="2">  1        4 0.27920556E-01 0.12500290E+03</pdfrwt>
<pdfrwt beam="1">  1       -4 0.33115353E-02 0.12500290E+03</pdfrwt>
<totfact> 0.89624744E+03</totfact>
</mgrwt>
</event>
<event>
 5    1  0.3236337E-002  0.1249997E+03  0.7818608E-02  0.1235070E+00
         -4   -1    0    0    0  501 -0.00000000000E+00  0.00000000000E+00  0.41235339947E+02  0.41254892565E+02  0.12700000000E+01 0. -1.
          4   -1    0    0  501    0  0.00000000000E+00 -0.00000000000E+00 -0.94683934021E+02  0.94692450922E+02  0.12700000000E+01 0. -1.
         25    2    1    2    0    0  0.00000000000E+00  0.00000000000E+00 -0.53448594073E+02  0.13594734349E+03  0.12499971197E+03 0.  0.
    9000005    1    3    3    0    0 -0.14744679076E+02 -0.35471831249E+02 -0.80331966135E+02  0.89049880159E+02  0.10000000000E+01 0.  0.
    9000005    1    3    3    0    0  0.14744679076E+02  0.35471831249E+02  0.26883372061E+02  0.46897463328E+02  0.10000000000E+01 0.  0.
<mgrwt>
<rscale>  0 0.12499971E+03</rscale>
<asrwt>0</asrwt>
<pdfrwt beam="2">  1        4 0.14568918E-01 0.12499971E+03</pdfrwt>
<pdfrwt beam="1">  1       -4 0.63460577E-02 0.12499971E+03</pdfrwt>
<totfact> 0.10218208E+04</totfact>
</mgrwt>
</event>
<event>
 5    1  0.3236337E-002  0.1249986E+03  0.7818608E-02  0.1235071E+00
          4   -1    0    0  501    0  0.00000000000E+00  0.00000000000E+00  0.46541154324E+02  0.46558478775E+02  0.12700000000E+01 0. -1.
         -4   -1    0    0    0  501 -0.00000000000E+00 -0.00000000000E+00 -0.83891505770E+02  0.83901118230E+02  0.12700000000E+01 0. -1.
         25    2    1    2    0    0  0.00000000000E+00  0.00000000000E+00 -0.37350351445E+02  0.13045959701E+03  0.12499863078E+03 0.  0.
    9000005    1    3    3    0    0  0.39197236534E+02  0.21953728779E+02  0.26659531764E+02  0.52250552084E+02  0.10000000000E+01 0.  0.
    9000005    1    3    3    0    0 -0.39197236534E+02 -0.21953728779E+02 -0.64009883209E+02  0.78209044922E+02  0.10000000000E+01 0.  0.
<mgrwt>
<rscale>  0 0.12499863E+03</rscale>
<asrwt>0</asrwt>
<pdfrwt beam="1">  1        4 0.71622497E-02 0.12499863E+03</pdfrwt>
<pdfrwt beam="2">  1       -4 0.12908458E-01 0.12499863E+03</pdfrwt>
<totfact> 0.10335005E+04</totfact>
</mgrwt>
</event>
<event>
 5    1  0.3236337E-002  0.1249746E+03  0.7818608E-02  0.1235109E+00
         -4   -1    0    0    0  501 -0.00000000000E+00  0.00000000000E+00  0.16311187415E+03  0.16311681823E+03  0.12700000000E+01 0. -1.
          4   -1    0    0  501    0  0.00000000000E+00 -0.00000000000E+00 -0.23916396084E+02  0.23950091892E+02  0.12700000000E+01 0. -1.
         25    2    1    2    0    0  0.00000000000E+00  0.00000000000E+00  0.13919547807E+03  0.18706691012E+03  0.12497458841E+03 0.  0.
    9000005    1    3    3    0    0 -0.58555224837E+02  0.15525686502E+02  0.46705358174E+02  0.76499358032E+02  0.10000000000E+01 0.  0.
    9000005    1    3    3    0    0  0.58555224837E+02 -0.15525686502E+02  0.92490119893E+02  0.11056755209E+03  0.10000000000E+01 0.  0.
<mgrwt>
<rscale>  0 0.12497459E+03</rscale>
<asrwt>0</asrwt>
<pdfrwt beam="2">  1        4 0.36824179E-02 0.12497459E+03</pdfrwt>
<pdfrwt beam="1">  1       -4 0.25097106E-01 0.12497459E+03</pdfrwt>
<totfact> 0.92412789E+03</totfact>
</mgrwt>
</event>
<event>
 5    1  0.3236337E-002  0.1249948E+03  0.7818608E-02  0.1235077E+00
          4   -1    0    0  501    0  0.00000000000E+00  0.00000000000E+00  0.11340680408E+03  0.11341391499E+03  0.12700000000E+01 0.  1.
         -4   -1    0    0    0  501 -0.00000000000E+00 -0.00000000000E+00 -0.34421811739E+02  0.34445232230E+02  0.12700000000E+01 0.  1.
         25    2    1    2    0    0  0.00000000000E+00  0.00000000000E+00  0.78984992345E+02  0.14785914722E+03  0.12499479349E+03 0.  0.
    9000005    1    3    3    0    0 -0.53805463684E+02  0.30471913074E+02  0.28822614941E+02  0.68229821491E+02  0.10000000000E+01 0.  0.
    9000005    1    3    3    0    0  0.53805463684E+02 -0.30471913074E+02  0.50162377404E+02  0.79629325725E+02  0.10000000000E+01 0.  0.
<mgrwt>
<rscale>  0 0.12499479E+03</rscale>
<asrwt>0</asrwt>
<pdfrwt beam="1">  1        4 0.17449549E-01 0.12499479E+03</pdfrwt>
<pdfrwt beam="2">  1       -4 0.52980119E-02 0.12499479E+03</pdfrwt>
<totfact> 0.99743859E+03</totfact>
</mgrwt>
</event>
<event>
 4    1  0.3236337E-002  0.1250855E+03  0.7818608E-02  0.1234936E+00
          4   -1    0    0  501    0  0.00000000000E+00  0.00000000000E+00  0.20485632931E+02  0.20524961792E+02  0.12700000000E+01 0.  1.
         -4   -1    0    0    0  501 -0.00000000000E+00 -0.00000000000E+00 -0.19071889940E+03  0.19072312783E+03  0.12700000000E+01 0.  1.
    9000005    1    1    2    0    0  0.34157109355E+02  0.43340526865E+02 -0.13480060260E+03  0.14566163479E+03  0.10000000000E+01 0.  0.
    9000005    1    1    2    0    0 -0.34157109355E+02 -0.43340526865E+02 -0.35432663873E+02  0.65586454833E+02  0.10000000000E+01 0.  0.
<mgrwt>
<rscale>  0 0.12508553E+03</rscale>
<asrwt>0</asrwt>
<pdfrwt beam="1">  1        4 0.31549865E-02 0.12508553E+03</pdfrwt>
<pdfrwt beam="2">  1       -4 0.29344719E-01 0.12508553E+03</pdfrwt>
<totfact> 0.88103893E+03</totfact>
</mgrwt>
</event>
<event>
 5    1  0.3236337E-002  0.1250366E+03  0.7818608E-02  0.1235012E+00
          4   -1    0    0  501    0  0.00000000000E+00  0.00000000000E+00  0.22491158663E+02  0.22526986439E+02  0.12700000000E+01 0. -1.
         -4   -1    0    0    0  501 -0.00000000000E+00 -0.00000000000E+00 -0.17360461513E+03  0.17360926039E+03  0.12700000000E+01 0. -1.
         25    2    1    2    0    0  0.00000000000E+00  0.00000000000E+00 -0.15111345646E+03  0.19613624683E+03  0.12503659703E+03 0.  0.
    9000005    1    3    3    0    0 -0.26079686036E+02  0.22715069704E+02  0.61238062246E+01  0.35137236916E+02  0.10000000000E+01 0.  0.
    9000005    1    3    3    0    0  0.26079686036E+02 -0.22715069704E+02 -0.15723726269E+03  0.16099900991E+03  0.10000000000E+01 0.  0.
<mgrwt>
<rscale>  0 0.12503660E+03</rscale>
<asrwt>0</asrwt>
<pdfrwt beam="1">  1        4 0.34632917E-02 0.12503660E+03</pdfrwt>
<pdfrwt beam="2">  1       -4 0.26711515E-01 0.12503660E+03</pdfrwt>
<totfact> 0.90716111E+03</totfact>
</mgrwt>
</event>
<event>
 5    1  0.3236337E-002  0.1249997E+03  0.7818608E-02  0.1235070E+00
         -4   -1    0    0    0  501 -0.00000000000E+00  0.00000000000E+00  0.52518279736E+02  0.52533633097E+02  0.12700000000E+01 0. -1.
          4   -1    0    0  501    0  0.00000000000E+00 -0.00000000000E+00 -0.74346851963E+02  0.74357698302E+02  0.12700000000E+01 0. -1.
         25    2    1    2    0    0  0.00000000000E+00  0.00000000000E+00 -0.21828572227E+02  0.12689133140E+03  0.12499969367E+03 0.  0.
    9000005    1    3    3    0    0 -0.46738224853E+02 -0.28965264856E+02  0.19229914666E+02  0.58260087956E+02  0.10000000000E+01 0.  0.
    9000005    1    3    3    0    0  0.46738224853E+02  0.28965264856E+02 -0.41058486893E+02  0.68631243443E+02  0.10000000000E+01 0.  0.
<mgrwt>
<rscale>  0 0.12499969E+03</rscale>
<asrwt>0</asrwt>
<pdfrwt beam="2">  1        4 0.11439993E-01 0.12499969E+03</pdfrwt>
<pdfrwt beam="1">  1       -4 0.80817507E-02 0.12499969E+03</pdfrwt>
<totfact> 0.10411579E+04</totfact>
</mgrwt>
</event>
<event>
 5    1  0.3236337E-002  0.1250035E+03  0.7818608E-02  0.1235064E+00
          4   -1    0    0  501    0  0.00000000000E+00  0.00000000000E+00  0.27951258363E+02  0.27980095498E+02  0.12700000000E+01 0. -1.
         -4   -1    0    0    0  501 -0.00000000000E+00 -0.00000000000E+00 -0.13965615995E+03  0.13966193437E+03  0.12700000000E+01 0. -1.
         25    2    1    2    0    0  0.00000000000E+00  0.00000000000E+00 -0.11170490159E+03  0.16764202987E+03  0.12500346051E+03 0.  0.
    9000005    1    3    3    0    0 -0.68177419646E+01  0.47316573649E+01  0.27215580010E+02  0.28470300001E+02  0.10000000000E+01 0.  0.
    9000005    1    3    3    0    0  0.68177419646E+01 -0.47316573649E+01 -0.13892048160E+03  0.13917172987E+03  0.10000000000E+01 0.  0.
<mgrwt>
<rscale>  0 0.12500346E+03</rscale>
<asrwt>0</asrwt>
<pdfrwt beam="1">  1        4 0.43028561E-02 0.12500346E+03</pdfrwt>
<pdfrwt beam="2">  1       -4 0.21488225E-01 0.12500346E+03</pdfrwt>
<totfact> 0.95881909E+03</totfact>
</mgrwt>
</event>
<event>
 5    1  0.3236337E-002  0.1249998E+03  0.7818608E-02  0.1235070E+00
         -4   -1    0    0    0  501 -0.00000000000E+00  0.00000000000E+00  0.46990264868E+02  0.47007423800E+02  0.12700000000E+01 0. -1.
          4   -1    0    0  501    0  0.00000000000E+00 -0.00000000000E+00 -0.83091499667E+02  0.83101204665E+02  0.12700000000E+01 0. -1.
         25    2    1    2    0    0  0.00000000000E+00  0.00000000000E+00 -0.36101234799E+02  0.13010862847E+03  0.12499982419E+03 0.  0.
    9000005    1    3    3    0    0  0.56507592598E+02  0.84053084890E+01 -0.44413254988E+02  0.72369154000E+02  0.10000000000E+01 0.  0.
    9000005    1    3    3    0    0 -0.56507592598E+02 -0.84053084890E+01  0.83120201897E+01  0.57739474466E+02  0.10000000000E+01 0.  0.
<mgrwt>
<rscale>  0 0.12499982E+03</rscale>
<asrwt>0</asrwt>
<pdfrwt beam="2">  1        4 0.12785374E-01 0.12499982E+03</pdfrwt>
<pdfrwt beam="1">  1       -4 0.72313380E-02 0.12499982E+03</pdfrwt>
<totfact> 0.10342225E+04</totfact>
</mgrwt>
</event>
<event>
 5    1  0.3236337E-002  0.1249983E+03  0.7818608E-02  0.1235072E+00
         -4   -1    0    0    0  501 -0.00000000000E+00  0.00000000000E+00  0.81521868405E+01  0.82505181826E+01  0.12700000000E+01 0.  1.
          4   -1    0    0  501    0  0.00000000000E+00 -0.00000000000E+00 -0.47618143684E+03  0.47618313042E+03  0.12700000000E+01 0.  1.
         25    2    1    2    0    0  0.00000000000E+00  0.00000000000E+00 -0.46802925000E+03  0.48443364860E+03  0.12499832414E+03 0.  0.
    9000005    1    3    3    0    0 -0.27266941462E+02  0.20152549311E+02 -0.43745305317E+03  0.43876620776E+03  0.10000000000E+01 0.  0.
    9000005    1    3    3    0    0  0.27266941462E+02 -0.20152549311E+02 -0.30576196830E+02  0.45667440841E+02  0.10000000000E+01 0.  0.
<mgrwt>
<rscale>  0 0.12499832E+03</rscale>
<asrwt>0</asrwt>
<pdfrwt beam="2">  1        4 0.73266355E-01 0.12499832E+03</pdfrwt>
<pdfrwt beam="1">  1       -4 0.12618772E-02 0.12499832E+03</pdfrwt>
<totfact> 0.57094794E+03</totfact>
</mgrwt>
</event>
<event>
 5    1  0.3236337E-002  0.1250021E+03  0.7818608E-02  0.1235066E+00
         -4   -1    0    0    0  501 -0.00000000000E+00  0.00000000000E+00  0.16165925766E+04  0.16165930755E+04  0.12700000000E+01 0. -1.
          4   -1    0    0  501    0  0.00000000000E+00 -0.00000000000E+00 -0.22490270388E+01  0.25828322867E+01  0.12700000000E+01 0. -1.
         25    2    1    2    0    0  0.00000000000E+00  0.00000000000E+00  0.16143435496E+04  0.16191759077E+04  0.12500209682E+03 0.  0.
    9000005    1    3    3    0    0 -0.55444654005E+02 -0.21811903834E+02  0.56293895836E+03  0.56608403938E+03  0.10000000000E+01 0.  0.
    9000005    1    3    3    0    0  0.55444654005E+02  0.21811903834E+02  0.10514045912E+04  0.10530918684E+04  0.10000000000E+01 0.  0.
<mgrwt>
<rscale>  0 0.12500210E+03</rscale>
<asrwt>0</asrwt>
<pdfrwt beam="2">  1        4 0.37171908E-03 0.12500210E+03</pdfrwt>
<pdfrwt beam="1">  1       -4 0.24873279E+00 0.12500210E+03</pdfrwt>
<totfact> 0.15701197E+03</totfact>
</mgrwt>
</event>
<event>
 5    1  0.3236337E-002  0.1249975E+03  0.7818608E-02  0.1235073E+00
         -4   -1    0    0    0  501 -0.00000000000E+00  0.00000000000E+00  0.20658085553E+03  0.20658475929E+03  0.12700000000E+01 0.  1.
          4   -1    0    0  501    0  0.00000000000E+00 -0.00000000000E+00 -0.18882897633E+02  0.18925557403E+02  0.12700000000E+01 0.  1.
         25    2    1    2    0    0  0.00000000000E+00  0.00000000000E+00  0.18769795790E+03  0.22551031669E+03  0.12499751812E+03 0.  0.
    9000005    1    3    3    0    0 -0.25873507374E+02  0.52373934192E+02  0.13389177163E+03  0.14608379060E+03  0.10000000000E+01 0.  0.
    9000005    1    3    3    0    0  0.25873507374E+02 -0.52373934192E+02  0.53806186267E+02  0.79426526093E+02  0.10000000000E+01 0.  0.
<mgrwt>
<rscale>  0 0.12499752E+03</rscale>
<asrwt>0</asrwt>
<pdfrwt beam="2">  1        4 0.29086431E-02 0.12499752E+03</pdfrwt>
<pdfrwt beam="1">  1       -4 0.31785251E-01 0.12499752E+03</pdfrwt>
<totfact> 0.86008559E+03</totfact>
</mgrwt>
</event>
<event>
 5    1  0.3236337E-002  0.1250008E+03  0.7818608E-02  0.1235068E+00
          4   -1    0    0  501    0  0.00000000000E+00  0.00000000000E+00  0.29974958156E+01  0.32554387053E+01  0.12700000000E+01 0. -1.
         -4   -1    0    0    0  501 -0.00000000000E+00 -0.00000000000E+00 -0.12491709085E+04  0.12491715541E+04  0.12700000000E+01 0. -1.
         25    2    1    2    0    0  0.00000000000E+00  0.00000000000E+00 -0.12461734127E+04  0.12524269928E+04  0.12500079118E+03 0.  0.
    9000005    1    3    3    0    0 -0.41238416798E+02 -0.43010179903E+02 -0.81181707035E+03  0.81400149773E+03  0.10000000000E+01 0.  0.
    9000005    1    3    3    0    0  0.41238416798E+02  0.43010179903E+02 -0.43435634233E+03  0.43842549506E+03  0.10000000000E+01 0.  0.
<mgrwt>
<rscale>  0 0.12500079E+03</rscale>
<asrwt>0</asrwt>
<pdfrwt beam="1">  1        4 0.48104562E-03 0.12500079E+03</pdfrwt>
<pdfrwt beam="2">  1       -4 0.19219963E+00 0.12500079E+03</pdfrwt>
<totfact> 0.23379549E+03</totfact>
</mgrwt>
</event>
<event>
 5    1  0.3236337E-002  0.1249980E+03  0.7818608E-02  0.1235072E+00
         -4   -1    0    0    0  501 -0.00000000000E+00  0.00000000000E+00  0.10922305535E+03  0.10923043862E+03  0.12700000000E+01 0. -1.
          4   -1    0    0  501    0  0.00000000000E+00 -0.00000000000E+00 -0.35742939607E+02  0.35765494989E+02  0.12700000000E+01 0. -1.
         25    2    1    2    0    0  0.00000000000E+00  0.00000000000E+00  0.73480115747E+02  0.14499593361E+03  0.12499797339E+03 0.  0.
    9000005    1    3    3    0    0  0.53376100667E+02 -0.81295907338E+01  0.24148150272E+00  0.54001450732E+02  0.10000000000E+01 0.  0.
    9000005    1    3    3    0    0 -0.53376100667E+02  0.81295907338E+01  0.73238634244E+02  0.90994482876E+02  0.10000000000E+01 0.  0.
<mgrwt>
<rscale>  0 0.12499797E+03</rscale>
<asrwt>0</asrwt>
<pdfrwt beam="2">  1        4 0.55012168E-02 0.12499797E+03</pdfrwt>
<pdfrwt beam="1">  1       -4 0.16805850E-01 0.12499797E+03</pdfrwt>
<totfact> 0.10031529E+04</totfact>
</mgrwt>
</event>
<event>
 5    1  0.3236337E-002  0.1250027E+03  0.7818608E-02  0.1235065E+00
         -4   -1    0    0    0  501 -0.00000000000E+00  0.00000000000E+00  0.50209473789E+02  0.50225532930E+02  0.12700000000E+01 0. -1.
          4   -1    0    0  501    0  0.00000000000E+00 -0.00000000000E+00 -0.77768695516E+02  0.77779064678E+02  0.12700000000E+01 0. -1.
         25    2    1    2    0    0  0.00000000000E+00  0.00000000000E+00 -0.27559221727E+02  0.12800459761E+03  0.12500266520E+03 0.  0.
    9000005    1    3    3    0    0  0.13851188164E+02 -0.53613193400E+02  0.15884789973E+02  0.57615592269E+02  0.10000000000E+01 0.  0.
    9000005    1    3    3    0    0 -0.13851188164E+02  0.53613193400E+02 -0.43444011700E+02  0.70389005339E+02  0.10000000000E+01 0.  0.
<mgrwt>
<rscale>  0 0.12500267E+03</rscale>
<asrwt>0</asrwt>
<pdfrwt beam="2">  1        4 0.11966448E-01 0.12500267E+03</pdfrwt>
<pdfrwt beam="1">  1       -4 0.77265674E-02 0.12500267E+03</pdfrwt>
<totfact> 0.10386763E+04</totfact>
</mgrwt>
</event>
<event>
 5    1  0.3236337E-002  0.1249686E+03  0.7818608E-02  0.1235118E+00
          4   -1    0    0  501    0  0.00000000000E+00  0.00000000000E+00  0.42324703913E+02  0.42343753510E+02  0.12700000000E+01 0. -1.
         -4   -1    0    0    0  501 -0.00000000000E+00 -0.00000000000E+00 -0.92201956149E+02  0.92210702295E+02  0.12700000000E+01 0. -1.
         25    2    1    2    0    0  0.00000000000E+00  0.00000000000E+00 -0.49877252236E+02  0.13455445581E+03  0.12496864121E+03 0.  0.
    9000005    1    3    3    0    0 -0.41779283047E+02  0.45076019931E+02 -0.37021464825E+02  0.71756149023E+02  0.10000000000E+01 0.  0.
    9000005    1    3    3    0    0  0.41779283047E+02 -0.45076019931E+02 -0.12855787411E+02  0.62798306782E+02  0.10000000000E+01 0.  0.
<mgrwt>
<rscale>  0 0.12496864E+03</rscale>
<asrwt>0</asrwt>
<pdfrwt beam="1">  1        4 0.65136311E-02 0.12496864E+03</pdfrwt>
<pdfrwt beam="2">  1       -4 0.14187054E-01 0.12496864E+03</pdfrwt>
<totfact> 0.10254721E+04</totfact>
</mgrwt>
</event>
<event>
 5    1  0.3236337E-002  0.1249466E+03  0.7818608E-02  0.1235153E+00
          4   -1    0    0  501    0  0.00000000000E+00  0.00000000000E+00  0.13094576196E+03  0.13095192047E+03  0.12700000000E+01 0.  1.
         -4   -1    0    0    0  501 -0.00000000000E+00 -0.00000000000E+00 -0.29785169912E+02  0.29812233172E+02  0.12700000000E+01 0.  1.
         25    2    1    2    0    0  0.00000000000E+00  0.00000000000E+00  0.10116059205E+03  0.16076415365E+03  0.12494657944E+03 0.  0.
    9000005    1    3    3    0    0  0.29174108215E+02  0.54690432005E+02  0.60525126925E+02  0.86639846101E+02  0.10000000000E+01 0.  0.
    9000005    1    3    3    0    0 -0.29174108215E+02 -0.54690432005E+02  0.40635465124E+02  0.74124307545E+02  0.10000000000E+01 0.  0.
<mgrwt>
<rscale>  0 0.12494658E+03</rscale>
<asrwt>0</asrwt>
<pdfrwt beam="1">  1        4 0.20148057E-01 0.12494658E+03</pdfrwt>
<pdfrwt beam="2">  1       -4 0.45848894E-02 0.12494658E+03</pdfrwt>
<totfact> 0.97312454E+03</totfact>
</mgrwt>
</event>
<event>
 5    1  0.3236337E-002  0.1250024E+03  0.7818608E-02  0.1235066E+00
         -4   -1    0    0    0  501 -0.00000000000E+00  0.00000000000E+00  0.23093536229E+02  0.23128430893E+02  0.12700000000E+01 0.  1.
          4   -1    0    0  501    0  0.00000000000E+00 -0.00000000000E+00 -0.16899061194E+03  0.16899538403E+03  0.12700000000E+01 0.  1.
         25    2    1    2    0    0  0.00000000000E+00  0.00000000000E+00 -0.14589707571E+03  0.19212381493E+03  0.12500241422E+03 0.  0.
    9000005    1    3    3    0    0  0.36159304827E+02 -0.50969576482E+02 -0.73084606469E+02  0.96165236728E+02  0.10000000000E+01 0.  0.
    9000005    1    3    3    0    0 -0.36159304827E+02  0.50969576482E+02 -0.72812469244E+02  0.95958578198E+02  0.10000000000E+01 0.  0.
<mgrwt>
<rscale>  0 0.12500241E+03</rscale>
<asrwt>0</asrwt>
<pdfrwt beam="2">  1        4 0.26001606E-01 0.12500241E+03</pdfrwt>
<pdfrwt beam="1">  1       -4 0.35559031E-02 0.12500241E+03</pdfrwt>
<totfact> 0.91474140E+03</totfact>
</mgrwt>
</event>
<event>
 5    1  0.3236337E-002  0.1250051E+03  0.7818608E-02  0.1235061E+00
         -4   -1    0    0    0  501 -0.00000000000E+00  0.00000000000E+00  0.12694989361E+04  0.12694995713E+04  0.12700000000E+01 0.  1.
          4   -1    0    0  501    0  0.00000000000E+00 -0.00000000000E+00 -0.29455576078E+01  0.32076797878E+01  0.12700000000E+01 0.  1.
         25    2    1    2    0    0  0.00000000000E+00  0.00000000000E+00  0.12665533785E+04  0.12727072511E+04  0.12500514601E+03 0.  0.
    9000005    1    3    3    0    0 -0.29692083172E+02  0.54939098630E+02  0.65747137273E+03  0.66043132142E+03  0.10000000000E+01 0.  0.
    9000005    1    3    3    0    0  0.29692083172E+02 -0.54939098630E+02  0.60908200574E+03  0.61227592969E+03  0.10000000000E+01 0.  0.
<mgrwt>
<rscale>  0 0.12500515E+03</rscale>
<asrwt>0</asrwt>
<pdfrwt beam="2">  1        4 0.47337416E-03 0.12500515E+03</pdfrwt>
<pdfrwt beam="1">  1       -4 0.19532801E+00 0.12500515E+03</pdfrwt>
<totfact> 0.22879367E+03</totfact>
</mgrwt>
</event>
<event>
 5    1  0.3236337E-002  0.1250020E+03  0.7818608E-02  0.1235066E+00
          4   -1    0    0  501    0  0.00000000000E+00  0.00000000000E+00  0.82275243585E+02  0.82285044856E+02  0.12700000000E+01 0.  1.
         -4   -1    0    0    0  501 -0.00000000000E+00 -0.00000000000E+00 -0.47458213455E+02  0.47475203257E+02  0.12700000000E+01 0.  1.
         25    2    1    2    0    0  0.00000000000E+00  0.00000000000E+00  0.34817030130E+02  0.12976024811E+03  0.12500198560E+03 0.  0.
    9000005    1    3    3    0    0 -0.33009306270E+02 -0.37076894220E+02 -0.21997847358E+02  0.54306681668E+02  0.10000000000E+01 0.  0.
    9000005    1    3    3    0    0  0.33009306270E+02  0.37076894220E+02  0.56814877488E+02  0.75453566446E+02  0.10000000000E+01 0.  0.
<mgrwt>
<rscale>  0 0.12500199E+03</rscale>
<asrwt>0</asrwt>
<pdfrwt beam="1">  1        4 0.12659791E-01 0.12500199E+03</pdfrwt>
<pdfrwt beam="2">  1       -4 0.73033244E-02 0.12500199E+03</pdfrwt>
<totfact> 0.10349175E+04</totfact>
</mgrwt>
</event>
<event>
 5    1  0.3236337E-002  0.1249996E+03  0.7818608E-02  0.1235070E+00
         -4   -1    0    0    0  501 -0.00000000000E+00  0.00000000000E+00  0.13691871473E+03  0.13692460460E+03  0.12700000000E+01 0.  1.
          4   -1    0    0  501    0  0.00000000000E+00 -0.00000000000E+00 -0.28508900185E+02  0.28537173822E+02  0.12700000000E+01 0.  1.
         25    2    1    2    0    0  0.00000000000E+00  0.00000000000E+00  0.10840981455E+03  0.16546177842E+03  0.12499964891E+03 0.  0.
    9000005    1    3    3    0    0  0.62451647056E+01 -0.60831454592E+02  0.71247234646E+02  0.93896945609E+02  0.10000000000E+01 0.  0.
    9000005    1    3    3    0    0 -0.62451647056E+01  0.60831454592E+02  0.37162579900E+02  0.71564832808E+02  0.10000000000E+01 0.  0.
<mgrwt>
<rscale>  0 0.12499965E+03</rscale>
<asrwt>0</asrwt>
<pdfrwt beam="2">  1        4 0.43886126E-02 0.12499965E+03</pdfrwt>
<pdfrwt beam="1">  1       -4 0.21067046E-01 0.12499965E+03</pdfrwt>
<totfact> 0.96300770E+03</totfact>
</mgrwt>
</event>
<event>
 5    1  0.3236337E-002  0.1250055E+03  0.7818608E-02  0.1235061E+00
          4   -1    0    0  501    0  0.00000000000E+00  0.00000000000E+00  0.28272436928E+02  0.28300946801E+02  0.12700000000E+01 0. -1.
         -4   -1    0    0    0  501 -0.00000000000E+00 -0.00000000000E+00 -0.13807567548E+03  0.13808151599E+03  0.12700000000E+01 0. -1.
         25    2    1    2    0    0  0.00000000000E+00  0.00000000000E+00 -0.10980323855E+03  0.16638246279E+03  0.12500549079E+03 0.  0.
    9000005    1    3    3    0    0  0.12082271582E+02 -0.38727032500E+02 -0.11817429974E+03  0.12494770687E+03  0.10000000000E+01 0.  0.
    9000005    1    3    3    0    0 -0.12082271582E+02  0.38727032500E+02  0.83710611922E+01  0.41434755922E+02  0.10000000000E+01 0.  0.
<mgrwt>
<rscale>  0 0.12500549E+03</rscale>
<asrwt>0</asrwt>
<pdfrwt beam="1">  1        4 0.43522481E-02 0.12500549E+03</pdfrwt>
<pdfrwt beam="2">  1       -4 0.21245054E-01 0.12500549E+03</pdfrwt>
<totfact> 0.96114360E+03</totfact>
</mgrwt>
</event>
<event>
 5    1  0.3236337E-002  0.1250502E+03  0.7818608E-02  0.1234991E+00
          4   -1    0    0  501    0  0.00000000000E+00  0.00000000000E+00  0.44825325236E+03  0.44825505145E+03  0.12700000000E+01 0.  1.
         -4   -1    0    0    0  501 -0.00000000000E+00 -0.00000000000E+00 -0.86733230970E+01  0.87658104899E+01  0.12700000000E+01 0.  1.
         25    2    1    2    0    0  0.00000000000E+00  0.00000000000E+00  0.43957992926E+03  0.45702086194E+03  0.12505020607E+03 0.  0.
    9000005    1    3    3    0    0  0.13018362818E+02  0.46026488326E+02  0.36691023959E+03  0.37001626899E+03  0.10000000000E+01 0.  0.
    9000005    1    3    3    0    0 -0.13018362818E+02 -0.46026488326E+02  0.72669689672E+02  0.87004592954E+02  0.10000000000E+01 0.  0.
<mgrwt>
<rscale>  0 0.12505021E+03</rscale>
<asrwt>0</asrwt>
<pdfrwt beam="1">  1        4 0.68969278E-01 0.12505021E+03</pdfrwt>
<pdfrwt beam="2">  1       -4 0.13416105E-02 0.12505021E+03</pdfrwt>
<totfact> 0.59294792E+03</totfact>
</mgrwt>
</event>
<event>
 5    1  0.3236337E-002  0.1249903E+03  0.7818608E-02  0.1235084E+00
         -4   -1    0    0    0  501 -0.00000000000E+00  0.00000000000E+00  0.74981116281E+02  0.74991870885E+02  0.12700000000E+01 0. -1.
          4   -1    0    0  501    0  0.00000000000E+00 -0.00000000000E+00 -0.52066138498E+02  0.52081625148E+02  0.12700000000E+01 0. -1.
         25    2    1    2    0    0  0.00000000000E+00  0.00000000000E+00  0.22914977783E+02  0.12707349603E+03  0.12499030837E+03 0.  0.
    9000005    1    3    3    0    0 -0.54120691406E+02  0.22847219157E+02 -0.10195357111E+02  0.59632121949E+02  0.10000000000E+01 0.  0.
    9000005    1    3    3    0    0  0.54120691406E+02 -0.22847219157E+02  0.33110334894E+02  0.67441374084E+02  0.10000000000E+01 0.  0.
<mgrwt>
<rscale>  0 0.12499031E+03</rscale>
<asrwt>0</asrwt>
<pdfrwt beam="2">  1        4 0.80121937E-02 0.12499031E+03</pdfrwt>
<pdfrwt beam="1">  1       -4 0.11537575E-01 0.12499031E+03</pdfrwt>
<totfact> 0.10409827E+04</totfact>
</mgrwt>
</event>
<event>
 5    1  0.3236337E-002  0.1249999E+03  0.7818608E-02  0.1235069E+00
         -4   -1    0    0    0  501 -0.00000000000E+00  0.00000000000E+00  0.21165725609E+03  0.21166106623E+03  0.12700000000E+01 0. -1.
          4   -1    0    0  501    0  0.00000000000E+00 -0.00000000000E+00 -0.18429677720E+02  0.18473384121E+02  0.12700000000E+01 0. -1.
         25    2    1    2    0    0  0.00000000000E+00  0.00000000000E+00  0.19322757837E+03  0.23013445035E+03  0.12499987277E+03 0.  0.
    9000005    1    3    3    0    0 -0.46081208772E+02  0.41786426450E+02  0.85619795231E+02  0.10583634807E+03  0.10000000000E+01 0.  0.
    9000005    1    3    3    0    0  0.46081208772E+02 -0.41786426450E+02  0.10760778314E+03  0.12429810228E+03  0.10000000000E+01 0.  0.
<mgrwt>
<rscale>  0 0.12499987E+03</rscale>
<asrwt>0</asrwt>
<pdfrwt beam="2">  1        4 0.28389901E-02 0.12499987E+03</pdfrwt>
<pdfrwt beam="1">  1       -4 0.32566310E-01 0.12499987E+03</pdfrwt>
<totfact> 0.85289197E+03</totfact>
</mgrwt>
</event>
<event>
 5    1  0.3236337E-002  0.1250016E+03  0.7818608E-02  0.1235067E+00
         -4   -1    0    0    0  501 -0.00000000000E+00  0.00000000000E+00  0.83094089596E+01  0.84059013352E+01  0.12700000000E+01 0.  1.
          4   -1    0    0  501    0  0.00000000000E+00 -0.00000000000E+00 -0.46730041017E+03  0.46730213593E+03  0.12700000000E+01 0.  1.
         25    2    1    2    0    0  0.00000000000E+00  0.00000000000E+00 -0.45899100121E+03  0.47570803727E+03  0.12500159010E+03 0.  0.
    9000005    1    3    3    0    0  0.56977526531E+02  0.70663236418E+01 -0.13558249811E+03  0.14724124848E+03  0.10000000000E+01 0.  0.
    9000005    1    3    3    0    0 -0.56977526531E+02 -0.70663236418E+01 -0.32340850310E+03  0.32846678879E+03  0.10000000000E+01 0.  0.
<mgrwt>
<rscale>  0 0.12500159E+03</rscale>
<asrwt>0</asrwt>
<pdfrwt beam="2">  1        4 0.71899905E-01 0.12500159E+03</pdfrwt>
<pdfrwt beam="1">  1       -4 0.12859262E-02 0.12500159E+03</pdfrwt>
<totfact> 0.57797632E+03</totfact>
</mgrwt>
</event>
<event>
 5    1  0.3236337E-002  0.1249966E+03  0.7818608E-02  0.1235075E+00
          4   -1    0    0  501    0  0.00000000000E+00  0.00000000000E+00  0.11109295540E+03  0.11110021440E+03  0.12700000000E+01 0. -1.
         -4   -1    0    0    0  501 -0.00000000000E+00 -0.00000000000E+00 -0.35140178450E+02  0.35163120474E+02  0.12700000000E+01 0. -1.
         25    2    1    2    0    0  0.00000000000E+00  0.00000000000E+00  0.75952776948E+02  0.14626333487E+03  0.12499655516E+03 0.  0.
    9000005    1    3    3    0    0  0.46146388052E+02 -0.34746743633E+02  0.10083619784E+02  0.58647290741E+02  0.10000000000E+01 0.  0.
    9000005    1    3    3    0    0 -0.46146388052E+02  0.34746743633E+02  0.65869157164E+02  0.87616044129E+02  0.10000000000E+01 0.  0.
<mgrwt>
<rscale>  0 0.12499656E+03</rscale>
<asrwt>0</asrwt>
<pdfrwt beam="1">  1        4 0.17093547E-01 0.12499656E+03</pdfrwt>
<pdfrwt beam="2">  1       -4 0.54085045E-02 0.12499656E+03</pdfrwt>
<totfact> 0.10006159E+04</totfact>
</mgrwt>
</event>
<event>
 5    1  0.3236337E-002  0.1250445E+03  0.7818608E-02  0.1235000E+00
         -4   -1    0    0    0  501 -0.00000000000E+00  0.00000000000E+00  0.33258740549E+03  0.33258983026E+03  0.12700000000E+01 0. -1.
          4   -1    0    0  501    0  0.00000000000E+00 -0.00000000000E+00 -0.11716622909E+02  0.11785251478E+02  0.12700000000E+01 0. -1.
         25    2    1    2    0    0  0.00000000000E+00  0.00000000000E+00  0.32087078258E+03  0.34437508174E+03  0.12504454329E+03 0.  0.
    9000005    1    3    3    0    0  0.16202880201E+02 -0.56778776675E+02  0.21698819923E+03  0.22488050474E+03  0.10000000000E+01 0.  0.
    9000005    1    3    3    0    0 -0.16202880201E+02  0.56778776675E+02  0.10388258335E+03  0.11949457700E+03  0.10000000000E+01 0.  0.
<mgrwt>
<rscale>  0 0.12504454E+03</rscale>
<asrwt>0</asrwt>
<pdfrwt beam="2">  1        4 0.18080227E-02 0.12504454E+03</pdfrwt>
<pdfrwt beam="1">  1       -4 0.51172767E-01 0.12504454E+03</pdfrwt>
<totfact> 0.70278501E+03</totfact>
</mgrwt>
</event>
<event>
 5    1  0.3236337E-002  0.1250018E+03  0.7818608E-02  0.1235066E+00
         -4   -1    0    0    0  501 -0.00000000000E+00  0.00000000000E+00  0.69399905215E+03  0.69400021418E+03  0.12700000000E+01 0. -1.
          4   -1    0    0  501    0  0.00000000000E+00 -0.00000000000E+00 -0.55559565446E+01  0.56992589979E+01  0.12700000000E+01 0. -1.
         25    2    1    2    0    0  0.00000000000E+00  0.00000000000E+00  0.68844309561E+03  0.69969947318E+03  0.12500182751E+03 0.  0.
    9000005    1    3    3    0    0 -0.20925757165E+02 -0.39322596372E+02  0.58956961451E+03  0.59125077950E+03  0.10000000000E+01 0.  0.
    9000005    1    3    3    0    0  0.20925757165E+02  0.39322596372E+02  0.98873481094E+02  0.10844869369E+03  0.10000000000E+01 0.  0.
<mgrwt>
<rscale>  0 0.12500183E+03</rscale>
<asrwt>0</asrwt>
<pdfrwt beam="2">  1        4 0.86587498E-03 0.12500183E+03</pdfrwt>
<pdfrwt beam="1">  1       -4 0.10678022E+00 0.12500183E+03</pdfrwt>
<totfact> 0.43100825E+03</totfact>
</mgrwt>
</event>
<event>
 5    1  0.3236337E-002  0.1250038E+03  0.7818608E-02  0.1235063E+00
          4   -1    0    0  501    0  0.00000000000E+00  0.00000000000E+00  0.15379239583E+03  0.15379763950E+03  0.12700000000E+01 0.  1.
         -4   -1    0    0    0  501 -0.00000000000E+00 -0.00000000000E+00 -0.25379487854E+02  0.25411243648E+02  0.12700000000E+01 0.  1.
         25    2    1    2    0    0  0.00000000000E+00  0.00000000000E+00  0.12841290798E+03  0.17920888315E+03  0.12500379540E+03 0.  0.
    9000005    1    3    3    0    0  0.13086742530E+02  0.34710819141E+02 -0.78949410497E+01  0.37939872031E+02  0.10000000000E+01 0.  0.
    9000005    1    3    3    0    0 -0.13086742530E+02 -0.34710819141E+02  0.13630784903E+03  0.14126901112E+03  0.10000000000E+01 0.  0.
<mgrwt>
<rscale>  0 0.12500380E+03</rscale>
<asrwt>0</asrwt>
<pdfrwt beam="1">  1        4 0.23663215E-01 0.12500380E+03</pdfrwt>
<pdfrwt beam="2">  1       -4 0.39073827E-02 0.12500380E+03</pdfrwt>
<totfact> 0.93751622E+03</totfact>
</mgrwt>
</event>
<event>
 5    1  0.3236337E-002  0.1249959E+03  0.7818608E-02  0.1235076E+00
          4   -1    0    0  501    0  0.00000000000E+00  0.00000000000E+00  0.22009996878E+03  0.22010363277E+03  0.12700000000E+01 0.  1.
         -4   -1    0    0    0  501 -0.00000000000E+00 -0.00000000000E+00 -0.17719906994E+02  0.17765359661E+02  0.12700000000E+01 0.  1.
         25    2    1    2    0    0  0.00000000000E+00  0.00000000000E+00  0.20238006179E+03  0.23786899243E+03  0.12499587253E+03 0.  0.
    9000005    1    3    3    0    0 -0.35756345980E+02  0.50795856567E+02  0.88247191690E+02  0.10792266751E+03  0.10000000000E+01 0.  0.
    9000005    1    3    3    0    0  0.35756345980E+02 -0.50795856567E+02  0.11413287010E+03  0.12994632492E+03  0.10000000000E+01 0.  0.
<mgrwt>
<rscale>  0 0.12499587E+03</rscale>
<asrwt>0</asrwt>
<pdfrwt beam="1">  1        4 0.33865310E-01 0.12499587E+03</pdfrwt>
<pdfrwt beam="2">  1       -4 0.27299179E-02 0.12499587E+03</pdfrwt>
<totfact> 0.84123513E+03</totfact>
</mgrwt>
</event>
<event>
 5    1  0.3236337E-002  0.1249996E+03  0.7818608E-02  0.1235070E+00
          4   -1    0    0  501    0  0.00000000000E+00  0.00000000000E+00  0.30397013404E+01  0.32943412450E+01  0.12700000000E+01 0. -1.
         -4   -1    0    0    0  501 -0.00000000000E+00 -0.00000000000E+00 -0.12331510268E+04  0.12331516808E+04  0.12700000000E+01 0. -1.
         25    2    1    2    0    0  0.00000000000E+00  0.00000000000E+00 -0.12301113255E+04  0.12364460220E+04  0.12499956938E+03 0.  0.
    9000005    1    3    3    0    0 -0.61617520471E+02 -0.92178994188E+01 -0.56706906706E+03  0.57048226555E+03  0.10000000000E+01 0.  0.
    9000005    1    3    3    0    0  0.61617520471E+02  0.92178994188E+01 -0.66304225841E+03  0.66596375647E+03  0.10000000000E+01 0.  0.
<mgrwt>
<rscale>  0 0.12499957E+03</rscale>
<asrwt>0</asrwt>
<pdfrwt beam="1">  1        4 0.48728533E-03 0.12499957E+03</pdfrwt>
<pdfrwt beam="2">  1       -4 0.18973480E+00 0.12499957E+03</pdfrwt>
<totfact> 0.23778499E+03</totfact>
</mgrwt>
</event>
<event>
 5    1  0.3236337E-002  0.1250023E+03  0.7818608E-02  0.1235066E+00
          4   -1    0    0  501    0  0.00000000000E+00  0.00000000000E+00  0.12750269562E+03  0.12750902043E+03  0.12700000000E+01 0.  1.
         -4   -1    0    0    0  501 -0.00000000000E+00 -0.00000000000E+00 -0.30617461870E+02  0.30643790095E+02  0.12700000000E+01 0.  1.
         25    2    1    2    0    0  0.00000000000E+00  0.00000000000E+00  0.96885233749E+02  0.15815281052E+03  0.12500225181E+03 0.  0.
    9000005    1    3    3    0    0 -0.93928594402E+01  0.61732002943E+02  0.51624472977E+02  0.81025626847E+02  0.10000000000E+01 0.  0.
    9000005    1    3    3    0    0  0.93928594402E+01 -0.61732002943E+02  0.45260760772E+02  0.77127183674E+02  0.10000000000E+01 0.  0.
<mgrwt>
<rscale>  0 0.12500225E+03</rscale>
<asrwt>0</asrwt>
<pdfrwt beam="1">  1        4 0.19618311E-01 0.12500225E+03</pdfrwt>
<pdfrwt beam="2">  1       -4 0.47128905E-02 0.12500225E+03</pdfrwt>
<totfact> 0.97695149E+03</totfact>
</mgrwt>
</event>
<event>
 5    1  0.3236337E-002  0.1250018E+03  0.7818608E-02  0.1235066E+00
         -4   -1    0    0    0  501 -0.00000000000E+00  0.00000000000E+00  0.90871416013E+01  0.91754587069E+01  0.12700000000E+01 0.  1.
          4   -1    0    0  501    0  0.00000000000E+00 -0.00000000000E+00 -0.42770988533E+03  0.42771177084E+03  0.12700000000E+01 0.  1.
         25    2    1    2    0    0  0.00000000000E+00  0.00000000000E+00 -0.41862274373E+03  0.43688722954E+03  0.12500179906E+03 0.  0.
    9000005    1    3    3    0    0 -0.60227303535E+02 -0.80818042781E+01 -0.15833651509E+03  0.16959981033E+03  0.10000000000E+01 0.  0.
    9000005    1    3    3    0    0  0.60227303535E+02  0.80818042781E+01 -0.26028622864E+03  0.26728741922E+03  0.10000000000E+01 0.  0.
<mgrwt>
<rscale>  0 0.12500180E+03</rscale>
<asrwt>0</asrwt>
<pdfrwt beam="2">  1        4 0.65808444E-01 0.12500180E+03</pdfrwt>
<pdfrwt beam="1">  1       -4 0.14049608E-02 0.12500180E+03</pdfrwt>
<totfact> 0.61114213E+03</totfact>
</mgrwt>
</event>
<event>
 5    1  0.3236337E-002  0.1250009E+03  0.7818608E-02  0.1235068E+00
         -4   -1    0    0    0  501 -0.00000000000E+00  0.00000000000E+00  0.25528961551E+02  0.25560531643E+02  0.12700000000E+01 0. -1.
          4   -1    0    0  501    0  0.00000000000E+00 -0.00000000000E+00 -0.15288590135E+03  0.15289117611E+03  0.12700000000E+01 0. -1.
         25    2    1    2    0    0  0.00000000000E+00  0.00000000000E+00 -0.12735693980E+03  0.17845170775E+03  0.12500088753E+03 0.  0.
    9000005    1    3    3    0    0 -0.51807082099E+02 -0.22693361959E+02 -0.25736886913E+02  0.62147805919E+02  0.10000000000E+01 0.  0.
    9000005    1    3    3    0    0  0.51807082099E+02  0.22693361959E+02 -0.10162005288E+03  0.11630390183E+03  0.10000000000E+01 0.  0.
<mgrwt>
<rscale>  0 0.12500089E+03</rscale>
<asrwt>0</asrwt>
<pdfrwt beam="2">  1        4 0.23523742E-01 0.12500089E+03</pdfrwt>
<pdfrwt beam="1">  1       -4 0.39303668E-02 0.12500089E+03</pdfrwt>
<totfact> 0.93894577E+03</totfact>
</mgrwt>
</event>
<event>
 5    1  0.3236337E-002  0.1249975E+03  0.7818608E-02  0.1235073E+00
          4   -1    0    0  501    0  0.00000000000E+00  0.00000000000E+00  0.19784315047E+02  0.19825035230E+02  0.12700000000E+01 0. -1.
         -4   -1    0    0    0  501 -0.00000000000E+00 -0.00000000000E+00 -0.19718810545E+03  0.19719219516E+03  0.12700000000E+01 0. -1.
         25    2    1    2    0    0  0.00000000000E+00  0.00000000000E+00 -0.17740379041E+03  0.21701723039E+03  0.12499749372E+03 0.  0.
    9000005    1    3    3    0    0 -0.27146199074E+02 -0.29253716862E+02 -0.52138799428E+01  0.40260161679E+02  0.10000000000E+01 0.  0.
    9000005    1    3    3    0    0  0.27146199074E+02  0.29253716862E+02 -0.17218991046E+03  0.17675706871E+03  0.10000000000E+01 0.  0.
<mgrwt>
<rscale>  0 0.12499749E+03</rscale>
<asrwt>0</asrwt>
<pdfrwt beam="1">  1        4 0.30471878E-02 0.12499749E+03</pdfrwt>
<pdfrwt beam="2">  1       -4 0.30340077E-01 0.12499749E+03</pdfrwt>
<totfact> 0.87347437E+03</totfact>
</mgrwt>
</event>
<event>
 5    1  0.3236337E-002  0.1250426E+03  0.7818608E-02  0.1235003E+00
          4   -1    0    0  501    0  0.00000000000E+00  0.00000000000E+00  0.72493587393E+02  0.72504710972E+02  0.12700000000E+01 0.  1.
         -4   -1    0    0    0  501 -0.00000000000E+00 -0.00000000000E+00 -0.53898105756E+02  0.53913066172E+02  0.12700000000E+01 0.  1.
         25    2    1    2    0    0  0.00000000000E+00  0.00000000000E+00  0.18595481637E+02  0.12641777714E+03  0.12504264249E+03 0.  0.
    9000005    1    3    3    0    0  0.14768017697E+02 -0.56587984375E+02 -0.13027252382E+02  0.59924983329E+02  0.10000000000E+01 0.  0.
    9000005    1    3    3    0    0 -0.14768017697E+02  0.56587984375E+02  0.31622734019E+02  0.66492793814E+02  0.10000000000E+01 0.  0.
<mgrwt>
<rscale>  0 0.12504264E+03</rscale>
<asrwt>0</asrwt>
<pdfrwt beam="1">  1        4 0.11154866E-01 0.12504264E+03</pdfrwt>
<pdfrwt beam="2">  1       -4 0.82940227E-02 0.12504264E+03</pdfrwt>
<totfact> 0.10411797E+04</totfact>
</mgrwt>
</event>
<event>
 5    1  0.3236337E-002  0.1250030E+03  0.7818608E-02  0.1235065E+00
          4   -1    0    0  501    0  0.00000000000E+00  0.00000000000E+00  0.57397308455E+03  0.57397448958E+03  0.12700000000E+01 0. -1.
         -4   -1    0    0    0  501 -0.00000000000E+00 -0.00000000000E+00 -0.67452896601E+01  0.68638059849E+01  0.12700000000E+01 0. -1.
         25    2    1    2    0    0  0.00000000000E+00  0.00000000000E+00  0.56722779489E+03  0.58083829556E+03  0.12500301716E+03 0.  0.
    9000005    1    3    3    0    0  0.33514631676E+02 -0.51397925329E+02  0.22854414753E+03  0.23663982048E+03  0.10000000000E+01 0.  0.
    9000005    1    3    3    0    0 -0.33514631676E+02  0.51397925329E+02  0.33868364736E+03  0.34419847509E+03  0.10000000000E+01 0.  0.
<mgrwt>
<rscale>  0 0.12500302E+03</rscale>
<asrwt>0</asrwt>
<pdfrwt beam="1">  1        4 0.88312761E-01 0.12500302E+03</pdfrwt>
<pdfrwt beam="2">  1       -4 0.10469618E-02 0.12500302E+03</pdfrwt>
<totfact> 0.50096620E+03</totfact>
</mgrwt>
</event>
<event>
 5    1  0.3236337E-002  0.1249968E+03  0.7818608E-02  0.1235074E+00
          4   -1    0    0  501    0  0.00000000000E+00  0.00000000000E+00  0.56679151637E+02  0.56693378187E+02  0.12700000000E+01 0.  1.
         -4   -1    0    0    0  501 -0.00000000000E+00 -0.00000000000E+00 -0.68886332508E+02  0.68898038480E+02  0.12700000000E+01 0.  1.
         25    2    1    2    0    0  0.00000000000E+00  0.00000000000E+00 -0.12207180871E+02  0.12559141667E+03  0.12499675466E+03 0.  0.
    9000005    1    3    3    0    0  0.54691234935E+02 -0.23673029424E+02  0.12787550331E+02  0.60959535303E+02  0.10000000000E+01 0.  0.
    9000005    1    3    3    0    0 -0.54691234935E+02  0.23673029424E+02 -0.24994731203E+02  0.64631881365E+02  0.10000000000E+01 0.  0.
<mgrwt>
<rscale>  0 0.12499675E+03</rscale>
<asrwt>0</asrwt>
<pdfrwt beam="1">  1        4 0.87218643E-02 0.12499675E+03</pdfrwt>
<pdfrwt beam="2">  1       -4 0.10599892E-01 0.12499675E+03</pdfrwt>
<totfact> 0.10440701E+04</totfact>
</mgrwt>
</event>
<event>
 5    1  0.3236337E-002  0.1249942E+03  0.7818608E-02  0.1235078E+00
          4   -1    0    0  501    0  0.00000000000E+00  0.00000000000E+00  0.29412082899E+03  0.29412357088E+03  0.12700000000E+01 0.  1.
         -4   -1    0    0    0  501 -0.00000000000E+00 -0.00000000000E+00 -0.13246708777E+02  0.13307448794E+02  0.12700000000E+01 0.  1.
         25    2    1    2    0    0  0.00000000000E+00  0.00000000000E+00  0.28087412021E+03  0.30743101967E+03  0.12499424167E+03 0.  0.
    9000005    1    3    3    0    0  0.59453030560E+02 -0.18917020988E+02  0.13178527973E+03  0.14581109861E+03  0.10000000000E+01 0.  0.
    9000005    1    3    3    0    0 -0.59453030560E+02  0.18917020988E+02  0.14908884049E+03  0.16161992106E+03  0.10000000000E+01 0.  0.
<mgrwt>
<rscale>  0 0.12499424E+03</rscale>
<asrwt>0</asrwt>
<pdfrwt beam="1">  1        4 0.45254236E-01 0.12499424E+03</pdfrwt>
<pdfrwt beam="2">  1       -4 0.20428387E-02 0.12499424E+03</pdfrwt>
<totfact> 0.74685605E+03</totfact>
</mgrwt>
</event>
<event>
 5    1  0.3236337E-002  0.1249836E+03  0.7818608E-02  0.1235095E+00
          4   -1    0    0  501    0  0.00000000000E+00  0.00000000000E+00  0.17798259568E+03  0.17798712668E+03  0.12700000000E+01 0.  1.
         -4   -1    0    0    0  501 -0.00000000000E+00 -0.00000000000E+00 -0.21918426083E+02  0.21955188498E+02  0.12700000000E+01 0.  1.
         25    2    1    2    0    0  0.00000000000E+00  0.00000000000E+00  0.15606416960E+03  0.19994231518E+03  0.12498361640E+03 0.  0.
    9000005    1    3    3    0    0 -0.22737975261E+02 -0.27531948747E+02 -0.39962012915E+01  0.35944308944E+02  0.10000000000E+01 0.  0.
    9000005    1    3    3    0    0  0.22737975261E+02  0.27531948747E+02  0.16006037089E+03  0.16399800624E+03  0.10000000000E+01 0.  0.
<mgrwt>
<rscale>  0 0.12498362E+03</rscale>
<asrwt>0</asrwt>
<pdfrwt beam="1">  1        4 0.27385114E-01 0.12498362E+03</pdfrwt>
<pdfrwt beam="2">  1       -4 0.33752420E-02 0.12498362E+03</pdfrwt>
<totfact> 0.90178293E+03</totfact>
</mgrwt>
</event>
<event>
 5    1  0.3236337E-002  0.1249992E+03  0.7818608E-02  0.1235070E+00
          4   -1    0    0  501    0  0.00000000000E+00  0.00000000000E+00  0.42741975753E+01  0.44588860618E+01  0.12700000000E+01 0. -1.
         -4   -1    0    0    0  501 -0.00000000000E+00 -0.00000000000E+00 -0.89439042704E+03  0.89439132871E+03  0.12700000000E+01 0. -1.
         25    2    1    2    0    0  0.00000000000E+00  0.00000000000E+00 -0.89011622946E+03  0.89885021478E+03  0.12499922659E+03 0.  0.
    9000005    1    3    3    0    0 -0.48320693401E+02 -0.27006074265E+01 -0.72934846936E+03  0.73095305762E+03  0.10000000000E+01 0.  0.
    9000005    1    3    3    0    0  0.48320693401E+02  0.27006074265E+01 -0.16076776011E+03  0.16789715715E+03  0.10000000000E+01 0.  0.
<mgrwt>
<rscale>  0 0.12499923E+03</rscale>
<asrwt>0</asrwt>
<pdfrwt beam="1">  1        4 0.67184574E-03 0.12499923E+03</pdfrwt>
<pdfrwt beam="2">  1       -4 0.13761266E+00 0.12499923E+03</pdfrwt>
<totfact> 0.34204593E+03</totfact>
</mgrwt>
</event>
<event>
 5    1  0.3236337E-002  0.1249980E+03  0.7818608E-02  0.1235072E+00
         -4   -1    0    0    0  501 -0.00000000000E+00  0.00000000000E+00  0.14552854110E+02  0.14608164250E+02  0.12700000000E+01 0. -1.
          4   -1    0    0  501    0  0.00000000000E+00 -0.00000000000E+00 -0.26784359710E+03  0.26784660798E+03  0.12700000000E+01 0. -1.
         25    2    1    2    0    0  0.00000000000E+00  0.00000000000E+00 -0.25329074299E+03  0.28245477223E+03  0.12499799147E+03 0.  0.
    9000005    1    3    3    0    0  0.48713039910E+02  0.18788106372E+02 -0.49050266211E+02  0.71644133142E+02  0.10000000000E+01 0.  0.
    9000005    1    3    3    0    0 -0.48713039910E+02 -0.18788106372E+02 -0.20424047678E+03  0.21081063909E+03  0.10000000000E+01 0.  0.
<mgrwt>
<rscale>  0 0.12499799E+03</rscale>
<asrwt>0</asrwt>
<pdfrwt beam="2">  1        4 0.41211190E-01 0.12499799E+03</pdfrwt>
<pdfrwt beam="1">  1       -4 0.22433871E-02 0.12499799E+03</pdfrwt>
<totfact> 0.77857219E+03</totfact>
</mgrwt>
</event>
<event>
 5    1  0.3236337E-002  0.1249996E+03  0.7818608E-02  0.1235070E+00
         -4   -1    0    0    0  501 -0.00000000000E+00  0.00000000000E+00  0.17586307484E+03  0.17586766045E+03  0.12700000000E+01 0.  1.
          4   -1    0    0  501    0  0.00000000000E+00 -0.00000000000E+00 -0.22188703673E+02  0.22225019026E+02  0.12700000000E+01 0.  1.
         25    2    1    2    0    0  0.00000000000E+00  0.00000000000E+00  0.15367437117E+03  0.19809267948E+03  0.12499958923E+03 0.  0.
    9000005    1    3    3    0    0  0.44460990029E+02  0.24506673750E+02  0.19089147612E+02  0.54247140470E+02  0.10000000000E+01 0.  0.
    9000005    1    3    3    0    0 -0.44460990029E+02 -0.24506673750E+02  0.13458522356E+03  0.14384553901E+03  0.10000000000E+01 0.  0.
<mgrwt>
<rscale>  0 0.12499959E+03</rscale>
<asrwt>0</asrwt>
<pdfrwt beam="2">  1        4 0.34167928E-02 0.12499959E+03</pdfrwt>
<pdfrwt beam="1">  1       -4 0.27059005E-01 0.12499959E+03</pdfrwt>
<totfact> 0.90458799E+03</totfact>
</mgrwt>
</event>
<event>
 5    1  0.3236337E-002  0.1250011E+03  0.7818608E-02  0.1235068E+00
         -4   -1    0    0    0  501 -0.00000000000E+00  0.00000000000E+00  0.59767634178E+02  0.59781125744E+02  0.12700000000E+01 0. -1.
          4   -1    0    0  501    0  0.00000000000E+00 -0.00000000000E+00 -0.65331404723E+02  0.65343747544E+02  0.12700000000E+01 0. -1.
         25    2    1    2    0    0  0.00000000000E+00  0.00000000000E+00 -0.55637705460E+01  0.12512487329E+03  0.12500111349E+03 0.  0.
    9000005    1    3    3    0    0  0.17369923668E+02 -0.21146425241E+02 -0.59019660098E+02  0.65063091126E+02  0.10000000000E+01 0.  0.
    9000005    1    3    3    0    0 -0.17369923668E+02  0.21146425241E+02  0.53455889552E+02  0.60061782162E+02  0.10000000000E+01 0.  0.
<mgrwt>
<rscale>  0 0.12500111E+03</rscale>
<asrwt>0</asrwt>
<pdfrwt beam="2">  1        4 0.10052973E-01 0.12500111E+03</pdfrwt>
<pdfrwt beam="1">  1       -4 0.91970080E-02 0.12500111E+03</pdfrwt>
<totfact> 0.10449888E+04</totfact>
</mgrwt>
</event>
<event>
 5    1  0.3236337E-002  0.1249990E+03  0.7818608E-02  0.1235071E+00
          4   -1    0    0  501    0  0.00000000000E+00  0.00000000000E+00  0.63524384979E+02  0.63537078836E+02  0.12700000000E+01 0. -1.
         -4   -1    0    0    0  501 -0.00000000000E+00 -0.00000000000E+00 -0.61465739773E+02  0.61478858691E+02  0.12700000000E+01 0. -1.
         25    2    1    2    0    0  0.00000000000E+00  0.00000000000E+00  0.20586452056E+01  0.12501593753E+03  0.12499898646E+03 0.  0.
    9000005    1    3    3    0    0 -0.29275193517E+02 -0.19424840989E+02 -0.50657713290E+02  0.61656835134E+02  0.10000000000E+01 0.  0.
    9000005    1    3    3    0    0  0.29275193517E+02  0.19424840989E+02  0.52716358496E+02  0.63359102392E+02  0.10000000000E+01 0.  0.
<mgrwt>
<rscale>  0 0.12499899E+03</rscale>
<asrwt>0</asrwt>
<pdfrwt beam="1">  1        4 0.97749680E-02 0.12499899E+03</pdfrwt>
<pdfrwt beam="2">  1       -4 0.94582532E-02 0.12499899E+03</pdfrwt>
<totfact> 0.10452756E+04</totfact>
</mgrwt>
</event>
<event>
 5    1  0.3236337E-002  0.1249889E+03  0.7818608E-02  0.1235087E+00
         -4   -1    0    0    0  501 -0.00000000000E+00  0.00000000000E+00  0.26102659634E+01  0.29028242109E+01  0.12700000000E+01 0.  1.
          4   -1    0    0  501    0  0.00000000000E+00 -0.00000000000E+00 -0.14165378074E+04  0.14165383767E+04  0.12700000000E+01 0.  1.
         25    2    1    2    0    0  0.00000000000E+00  0.00000000000E+00 -0.14139275415E+04  0.14194412010E+04  0.12498892127E+03 0.  0.
    9000005    1    3    3    0    0 -0.41872799835E+02  0.76036256220E+01 -0.12265685663E+04  0.12273070498E+04  0.10000000000E+01 0.  0.
    9000005    1    3    3    0    0  0.41872799835E+02 -0.76036256220E+01 -0.18735897512E+03  0.19213415118E+03  0.10000000000E+01 0.  0.
<mgrwt>
<rscale>  0 0.12498892E+03</rscale>
<asrwt>0</asrwt>
<pdfrwt beam="2">  1        4 0.21795086E+00 0.12498892E+03</pdfrwt>
<pdfrwt beam="1">  1       -4 0.42412878E-03 0.12498892E+03</pdfrwt>
<totfact> 0.19572348E+03</totfact>
</mgrwt>
</event>
<event>
 5    1  0.3236337E-002  0.1249991E+03  0.7818608E-02  0.1235071E+00
          4   -1    0    0  501    0  0.00000000000E+00  0.00000000000E+00  0.10794998465E+03  0.10795745498E+03  0.12700000000E+01 0.  1.
         -4   -1    0    0    0  501 -0.00000000000E+00 -0.00000000000E+00 -0.36165362386E+02  0.36187654477E+02  0.12700000000E+01 0.  1.
         25    2    1    2    0    0  0.00000000000E+00  0.00000000000E+00  0.71784622261E+02  0.14414510945E+03  0.12499912234E+03 0.  0.
    9000005    1    3    3    0    0  0.15743511416E+02  0.29848123629E+02  0.96545343362E+02  0.10227791531E+03  0.10000000000E+01 0.  0.
    9000005    1    3    3    0    0 -0.15743511416E+02 -0.29848123629E+02 -0.24760721101E+02  0.41867194142E+02  0.10000000000E+01 0.  0.
<mgrwt>
<rscale>  0 0.12499912E+03</rscale>
<asrwt>0</asrwt>
<pdfrwt beam="1">  1        4 0.16609979E-01 0.12499912E+03</pdfrwt>
<pdfrwt beam="2">  1       -4 0.55661913E-02 0.12499912E+03</pdfrwt>
<totfact> 0.10048585E+04</totfact>
</mgrwt>
</event>
<event>
 5    1  0.3236337E-002  0.1250028E+03  0.7818608E-02  0.1235065E+00
         -4   -1    0    0    0  501 -0.00000000000E+00  0.00000000000E+00  0.25558309834E+02  0.25589843720E+02  0.12700000000E+01 0.  1.
          4   -1    0    0  501    0  0.00000000000E+00 -0.00000000000E+00 -0.15271523714E+03  0.15272051780E+03  0.12700000000E+01 0.  1.
         25    2    1    2    0    0  0.00000000000E+00  0.00000000000E+00 -0.12715692731E+03  0.17831036152E+03  0.12500280341E+03 0.  0.
    9000005    1    3    3    0    0 -0.11262944337E+02 -0.31851872139E+02  0.11415821149E+02  0.35675154469E+02  0.10000000000E+01 0.  0.
    9000005    1    3    3    0    0  0.11262944337E+02  0.31851872139E+02 -0.13857274846E+03  0.14263520705E+03  0.10000000000E+01 0.  0.
<mgrwt>
<rscale>  0 0.12500280E+03</rscale>
<asrwt>0</asrwt>
<pdfrwt beam="2">  1        4 0.23497483E-01 0.12500280E+03</pdfrwt>
<pdfrwt beam="1">  1       -4 0.39348796E-02 0.12500280E+03</pdfrwt>
<totfact> 0.93916126E+03</totfact>
</mgrwt>
</event>
<event>
 4    1  0.3236337E-002  0.1255524E+03  0.7818608E-02  0.1234209E+00
          4   -1    0    0  501    0  0.00000000000E+00  0.00000000000E+00  0.25575005976E+03  0.25575321302E+03  0.12700000000E+01 0. -1.
         -4   -1    0    0    0  501 -0.00000000000E+00 -0.00000000000E+00 -0.15379565116E+02  0.15431912492E+02  0.12700000000E+01 0. -1.
    9000005    1    1    2    0    0 -0.54279812719E+02 -0.18306452141E+02  0.17560877344E+03  0.18471834118E+03  0.10000000000E+01 0.  0.
    9000005    1    1    2    0    0  0.54279812719E+02  0.18306452141E+02  0.64761721207E+02  0.86466784330E+02  0.10000000000E+01 0.  0.
<mgrwt>
<rscale>  0 0.12555237E+03</rscale>
<asrwt>0</asrwt>
<pdfrwt beam="1">  1        4 0.39350430E-01 0.12555237E+03</pdfrwt>
<pdfrwt beam="2">  1       -4 0.23703564E-02 0.12555237E+03</pdfrwt>
<totfact> 0.78394383E+03</totfact>
</mgrwt>
</event>
<event>
 5    1  0.3236337E-002  0.1249990E+03  0.7818608E-02  0.1235071E+00
          4   -1    0    0  501    0  0.00000000000E+00  0.00000000000E+00  0.19479950143E+03  0.19480364129E+03  0.12700000000E+01 0.  1.
         -4   -1    0    0    0  501 -0.00000000000E+00 -0.00000000000E+00 -0.20027888823E+02  0.20068114777E+02  0.12700000000E+01 0.  1.
         25    2    1    2    0    0  0.00000000000E+00  0.00000000000E+00  0.17477161261E+03  0.21487175606E+03  0.12499901991E+03 0.  0.
    9000005    1    3    3    0    0  0.14596682763E+02 -0.50037653871E+02  0.28127870769E+02  0.59236872525E+02  0.10000000000E+01 0.  0.
    9000005    1    3    3    0    0 -0.14596682763E+02  0.50037653871E+02  0.14664374184E+03  0.15563488354E+03  0.10000000000E+01 0.  0.
<mgrwt>
<rscale>  0 0.12499902E+03</rscale>
<asrwt>0</asrwt>
<pdfrwt beam="1">  1        4 0.29972566E-01 0.12499902E+03</pdfrwt>
<pdfrwt beam="2">  1       -4 0.30846265E-02 0.12499902E+03</pdfrwt>
<totfact> 0.87688310E+03</totfact>
</mgrwt>
</event>
<event>
 5    1  0.3236337E-002  0.1249987E+03  0.7818608E-02  0.1235071E+00
         -4   -1    0    0    0  501 -0.00000000000E+00  0.00000000000E+00  0.10799649934E+03  0.10800396645E+03  0.12700000000E+01 0. -1.
          4   -1    0    0  501    0  0.00000000000E+00 -0.00000000000E+00 -0.36149527973E+02  0.36171829822E+02  0.12700000000E+01 0. -1.
         25    2    1    2    0    0  0.00000000000E+00  0.00000000000E+00  0.71846971363E+02  0.14417579627E+03  0.12499869174E+03 0.  0.
    9000005    1    3    3    0    0  0.60897003557E+02  0.13585201426E+02  0.31900469613E+02  0.70083112813E+02  0.10000000000E+01 0.  0.
    9000005    1    3    3    0    0 -0.60897003557E+02 -0.13585201426E+02  0.39946501749E+02  0.74092683458E+02  0.10000000000E+01 0.  0.
<mgrwt>
<rscale>  0 0.12499869E+03</rscale>
<asrwt>0</asrwt>
<pdfrwt beam="2">  1        4 0.55637558E-02 0.12499869E+03</pdfrwt>
<pdfrwt beam="1">  1       -4 0.16617136E-01 0.12499869E+03</pdfrwt>
<totfact> 0.10048057E+04</totfact>
</mgrwt>
</event>
<event>
 5    1  0.3236337E-002  0.1249986E+03  0.7818608E-02  0.1235071E+00
          4   -1    0    0  501    0  0.00000000000E+00  0.00000000000E+00  0.37258604635E+02  0.37280243016E+02  0.12700000000E+01 0. -1.
         -4   -1    0    0    0  501 -0.00000000000E+00 -0.00000000000E+00 -0.10478333390E+03  0.10479102998E+03  0.12700000000E+01 0. -1.
         25    2    1    2    0    0  0.00000000000E+00  0.00000000000E+00 -0.67524729266E+02  0.14207127299E+03  0.12499863018E+03 0.  0.
    9000005    1    3    3    0    0 -0.46383040573E+02  0.88791073901E+01  0.12753442981E+02  0.48927245056E+02  0.10000000000E+01 0.  0.
    9000005    1    3    3    0    0  0.46383040573E+02 -0.88791073901E+01 -0.80278172247E+02  0.93144027936E+02  0.10000000000E+01 0.  0.
<mgrwt>
<rscale>  0 0.12499863E+03</rscale>
<asrwt>0</asrwt>
<pdfrwt beam="1">  1        4 0.57343495E-02 0.12499863E+03</pdfrwt>
<pdfrwt beam="2">  1       -4 0.16122769E-01 0.12499863E+03</pdfrwt>
<totfact> 0.10091148E+04</totfact>
</mgrwt>
</event>
<event>
 5    1  0.3236337E-002  0.1250049E+03  0.7818608E-02  0.1235062E+00
          4   -1    0    0  501    0  0.00000000000E+00  0.00000000000E+00  0.71027154402E+01  0.72153632358E+01  0.12700000000E+01 0. -1.
         -4   -1    0    0    0  501 -0.00000000000E+00 -0.00000000000E+00 -0.54556824598E+03  0.54556972416E+03  0.12700000000E+01 0. -1.
         25    2    1    2    0    0  0.00000000000E+00  0.00000000000E+00 -0.53846553054E+03  0.55278508740E+03  0.12500490098E+03 0.  0.
    9000005    1    3    3    0    0 -0.10752727618E+02  0.52471954699E+02 -0.12685538960E+03  0.13770336616E+03  0.10000000000E+01 0.  0.
    9000005    1    3    3    0    0  0.10752727618E+02 -0.52471954699E+02 -0.41161014094E+03  0.41508172124E+03  0.10000000000E+01 0.  0.
<mgrwt>
<rscale>  0 0.12500490E+03</rscale>
<asrwt>0</asrwt>
<pdfrwt beam="1">  1        4 0.11015048E-02 0.12500490E+03</pdfrwt>
<pdfrwt beam="2">  1       -4 0.83942323E-01 0.12500490E+03</pdfrwt>
<totfact> 0.51984778E+03</totfact>
</mgrwt>
</event>
<event>
 5    1  0.3236337E-002  0.1250041E+03  0.7818608E-02  0.1235063E+00
         -4   -1    0    0    0  501 -0.00000000000E+00  0.00000000000E+00  0.21807488894E+02  0.21844438008E+02  0.12700000000E+01 0.  1.
          4   -1    0    0  501    0  0.00000000000E+00 -0.00000000000E+00 -0.17894524720E+03  0.17894975383E+03  0.12700000000E+01 0.  1.
         25    2    1    2    0    0  0.00000000000E+00  0.00000000000E+00 -0.15713775831E+03  0.20079419184E+03  0.12500412949E+03 0.  0.
    9000005    1    3    3    0    0 -0.60637262829E+02 -0.55317520617E+01 -0.55964505904E+02  0.82707338522E+02  0.10000000000E+01 0.  0.
    9000005    1    3    3    0    0  0.60637262829E+02  0.55317520617E+01 -0.10117325240E+03  0.11808685332E+03  0.10000000000E+01 0.  0.
<mgrwt>
<rscale>  0 0.12500413E+03</rscale>
<asrwt>0</asrwt>
<pdfrwt beam="2">  1        4 0.27533226E-01 0.12500413E+03</pdfrwt>
<pdfrwt beam="1">  1       -4 0.33581873E-02 0.12500413E+03</pdfrwt>
<totfact> 0.89993417E+03</totfact>
</mgrwt>
</event>
<event>
 5    1  0.3236337E-002  0.1250028E+03  0.7818608E-02  0.1235065E+00
          4   -1    0    0  501    0  0.00000000000E+00  0.00000000000E+00  0.65643189783E+02  0.65655473990E+02  0.12700000000E+01 0. -1.
         -4   -1    0    0    0  501 -0.00000000000E+00 -0.00000000000E+00 -0.59485390114E+02  0.59498945680E+02  0.12700000000E+01 0. -1.
         25    2    1    2    0    0  0.00000000000E+00  0.00000000000E+00  0.61577996686E+01  0.12515441967E+03  0.12500284103E+03 0.  0.
    9000005    1    3    3    0    0 -0.48138002576E+02  0.30862851050E+02  0.28321467092E+02  0.63819184930E+02  0.10000000000E+01 0.  0.
    9000005    1    3    3    0    0  0.48138002576E+02 -0.30862851050E+02 -0.22163667424E+02  0.61335234740E+02  0.10000000000E+01 0.  0.
<mgrwt>
<rscale>  0 0.12500284E+03</rscale>
<asrwt>0</asrwt>
<pdfrwt beam="1">  1        4 0.10100940E-01 0.12500284E+03</pdfrwt>
<pdfrwt beam="2">  1       -4 0.91535861E-02 0.12500284E+03</pdfrwt>
<totfact> 0.10448839E+04</totfact>
</mgrwt>
</event>
<event>
 5    1  0.3236337E-002  0.1250049E+03  0.7818608E-02  0.1235062E+00
          4   -1    0    0  501    0  0.00000000000E+00  0.00000000000E+00  0.10396473209E+04  0.10396480966E+04  0.12700000000E+01 0. -1.
         -4   -1    0    0    0  501 -0.00000000000E+00 -0.00000000000E+00 -0.36494696565E+01  0.38641336381E+01  0.12700000000E+01 0. -1.
         25    2    1    2    0    0  0.00000000000E+00  0.00000000000E+00  0.10359978512E+04  0.10435122302E+04  0.12500490737E+03 0.  0.
    9000005    1    3    3    0    0 -0.10369744015E+02  0.60714125727E+02  0.42972542560E+03  0.43411827658E+03  0.10000000000E+01 0.  0.
    9000005    1    3    3    0    0  0.10369744015E+02 -0.60714125727E+02  0.60627242563E+03  0.60939395364E+03  0.10000000000E+01 0.  0.
<mgrwt>
<rscale>  0 0.12500491E+03</rscale>
<asrwt>0</asrwt>
<pdfrwt beam="1">  1        4 0.15996246E+00 0.12500491E+03</pdfrwt>
<pdfrwt beam="2">  1       -4 0.57802861E-03 0.12500491E+03</pdfrwt>
<totfact> 0.29195052E+03</totfact>
</mgrwt>
</event>
<event>
 5    1  0.3236337E-002  0.1250003E+03  0.7818608E-02  0.1235069E+00
         -4   -1    0    0    0  501 -0.00000000000E+00  0.00000000000E+00  0.13083059171E+03  0.13083675564E+03  0.12700000000E+01 0.  1.
          4   -1    0    0  501    0  0.00000000000E+00 -0.00000000000E+00 -0.29837063694E+02  0.29864079927E+02  0.12700000000E+01 0.  1.
         25    2    1    2    0    0  0.00000000000E+00  0.00000000000E+00  0.10099352801E+03  0.16070083557E+03  0.12500026341E+03 0.  0.
    9000005    1    3    3    0    0 -0.65632736683E+01 -0.20871993377E+02  0.12575182817E+03  0.12764497231E+03  0.10000000000E+01 0.  0.
    9000005    1    3    3    0    0  0.65632736683E+01  0.20871993377E+02 -0.24758300158E+02  0.33055863254E+02  0.10000000000E+01 0.  0.
<mgrwt>
<rscale>  0 0.12500026E+03</rscale>
<asrwt>0</asrwt>
<pdfrwt beam="2">  1        4 0.45928699E-02 0.12500026E+03</pdfrwt>
<pdfrwt beam="1">  1       -4 0.20130335E-01 0.12500026E+03</pdfrwt>
<totfact> 0.97207264E+03</totfact>
</mgrwt>
</event>
<event>
 5    1  0.3236337E-002  0.1249910E+03  0.7818608E-02  0.1235083E+00
         -4   -1    0    0    0  501 -0.00000000000E+00  0.00000000000E+00  0.21085655146E+03  0.21086037606E+03  0.12700000000E+01 0. -1.
          4   -1    0    0  501    0  0.00000000000E+00 -0.00000000000E+00 -0.18497194352E+02  0.18540741595E+02  0.12700000000E+01 0. -1.
         25    2    1    2    0    0  0.00000000000E+00  0.00000000000E+00  0.19235935711E+03  0.22940111766E+03  0.12499100174E+03 0.  0.
    9000005    1    3    3    0    0  0.29036029411E+02  0.31358469167E+02  0.12510607392E+02  0.44541664650E+02  0.10000000000E+01 0.  0.
    9000005    1    3    3    0    0 -0.29036029411E+02 -0.31358469167E+02  0.17984874972E+03  0.18485945301E+03  0.10000000000E+01 0.  0.
<mgrwt>
<rscale>  0 0.12499100E+03</rscale>
<asrwt>0</asrwt>
<pdfrwt beam="2">  1        4 0.28493662E-02 0.12499100E+03</pdfrwt>
<pdfrwt beam="1">  1       -4 0.32443113E-01 0.12499100E+03</pdfrwt>
<totfact> 0.85418789E+03</totfact>
</mgrwt>
</event>
<event>
 5    1  0.3236337E-002  0.1250091E+03  0.7818608E-02  0.1235055E+00
          4   -1    0    0  501    0  0.00000000000E+00  0.00000000000E+00  0.13322197404E+03  0.13322802733E+03  0.12700000000E+01 0.  1.
         -4   -1    0    0    0  501 -0.00000000000E+00 -0.00000000000E+00 -0.29305164352E+02  0.29332670483E+02  0.12700000000E+01 0.  1.
         25    2    1    2    0    0  0.00000000000E+00  0.00000000000E+00  0.10391680969E+03  0.16256069782E+03  0.12500910822E+03 0.  0.
    9000005    1    3    3    0    0  0.56729386061E+02 -0.22675381637E+02  0.34833530946E+02  0.70333285530E+02  0.10000000000E+01 0.  0.
    9000005    1    3    3    0    0 -0.56729386061E+02  0.22675381637E+02  0.69083278741E+02  0.92227412286E+02  0.10000000000E+01 0.  0.
<mgrwt>
<rscale>  0 0.12500911E+03</rscale>
<asrwt>0</asrwt>
<pdfrwt beam="1">  1        4 0.20498270E-01 0.12500911E+03</pdfrwt>
<pdfrwt beam="2">  1       -4 0.45110684E-02 0.12500911E+03</pdfrwt>
<totfact> 0.96831542E+03</totfact>
</mgrwt>
</event>
<event>
 5    1  0.3236337E-002  0.1249999E+03  0.7818608E-02  0.1235069E+00
         -4   -1    0    0    0  501 -0.00000000000E+00  0.00000000000E+00  0.14212216870E+03  0.14212784293E+03  0.12700000000E+01 0. -1.
          4   -1    0    0  501    0  0.00000000000E+00 -0.00000000000E+00 -0.27464230719E+02  0.27493578687E+02  0.12700000000E+01 0. -1.
         25    2    1    2    0    0  0.00000000000E+00  0.00000000000E+00  0.11465793798E+03  0.16962142162E+03  0.12499993572E+03 0.  0.
    9000005    1    3    3    0    0  0.29742562909E+02 -0.52998614411E+02  0.77076190745E+02  0.98159117547E+02  0.10000000000E+01 0.  0.
    9000005    1    3    3    0    0 -0.29742562909E+02  0.52998614411E+02  0.37581747239E+02  0.71462304073E+02  0.10000000000E+01 0.  0.
<mgrwt>
<rscale>  0 0.12499994E+03</rscale>
<asrwt>0</asrwt>
<pdfrwt beam="2">  1        4 0.42279603E-02 0.12499994E+03</pdfrwt>
<pdfrwt beam="1">  1       -4 0.21867643E-01 0.12499994E+03</pdfrwt>
<totfact> 0.95519383E+03</totfact>
</mgrwt>
</event>
<event>
 5    1  0.3236337E-002  0.1249984E+03  0.7818608E-02  0.1235072E+00
          4   -1    0    0  501    0  0.00000000000E+00  0.00000000000E+00  0.35468718935E+02  0.35491448588E+02  0.12700000000E+01 0.  1.
         -4   -1    0    0    0  501 -0.00000000000E+00 -0.00000000000E+00 -0.11006781835E+03  0.11007514495E+03  0.12700000000E+01 0.  1.
         25    2    1    2    0    0  0.00000000000E+00  0.00000000000E+00 -0.74599099414E+02  0.14556659354E+03  0.12499843008E+03 0.  0.
    9000005    1    3    3    0    0  0.17376345271E+02 -0.49491615334E+02 -0.76856371969E+02  0.93055141048E+02  0.10000000000E+01 0.  0.
    9000005    1    3    3    0    0 -0.17376345271E+02  0.49491615334E+02  0.22572725547E+01  0.52511452491E+02  0.10000000000E+01 0.  0.
<mgrwt>
<rscale>  0 0.12499843E+03</rscale>
<asrwt>0</asrwt>
<pdfrwt beam="1">  1        4 0.54590380E-02 0.12499843E+03</pdfrwt>
<pdfrwt beam="2">  1       -4 0.16935822E-01 0.12499843E+03</pdfrwt>
<totfact> 0.10019843E+04</totfact>
</mgrwt>
</event>
<event>
 5    1  0.3236337E-002  0.1249950E+03  0.7818608E-02  0.1235077E+00
          4   -1    0    0  501    0  0.00000000000E+00  0.00000000000E+00  0.14690224186E+04  0.14690229676E+04  0.12700000000E+01 0.  1.
         -4   -1    0    0    0  501 -0.00000000000E+00 -0.00000000000E+00 -0.25066327729E+01  0.28100013983E+01  0.12700000000E+01 0.  1.
         25    2    1    2    0    0  0.00000000000E+00  0.00000000000E+00  0.14665157858E+04  0.14718329690E+04  0.12499495375E+03 0.  0.
    9000005    1    3    3    0    0 -0.16769413890E+02  0.39644662002E+02  0.19985290970E+03  0.20443849438E+03  0.10000000000E+01 0.  0.
    9000005    1    3    3    0    0  0.16769413890E+02 -0.39644662002E+02  0.12666628761E+04  0.12673944746E+04  0.10000000000E+01 0.  0.
<mgrwt>
<rscale>  0 0.12499495E+03</rscale>
<asrwt>0</asrwt>
<pdfrwt beam="1">  1        4 0.22602718E+00 0.12499495E+03</pdfrwt>
<pdfrwt beam="2">  1       -4 0.40901346E-03 0.12499495E+03</pdfrwt>
<totfact> 0.18491941E+03</totfact>
</mgrwt>
</event>
<event>
 5    1  0.3236337E-002  0.1250195E+03  0.7818608E-02  0.1235039E+00
         -4   -1    0    0    0  501 -0.00000000000E+00  0.00000000000E+00  0.84996712581E+01  0.85940276644E+01  0.12700000000E+01 0. -1.
          4   -1    0    0  501    0  0.00000000000E+00 -0.00000000000E+00 -0.45708675730E+03  0.45708852162E+03  0.12700000000E+01 0. -1.
         25    2    1    2    0    0  0.00000000000E+00  0.00000000000E+00 -0.44858708604E+03  0.46568254928E+03  0.12501945027E+03 0.  0.
    9000005    1    3    3    0    0  0.17491135017E+02  0.24892931719E+02 -0.20925016173E+02  0.36938518590E+02  0.10000000000E+01 0.  0.
    9000005    1    3    3    0    0 -0.17491135017E+02 -0.24892931719E+02 -0.42766206986E+03  0.42874403069E+03  0.10000000000E+01 0.  0.
<mgrwt>
<rscale>  0 0.12501945E+03</rscale>
<asrwt>0</asrwt>
<pdfrwt beam="2">  1        4 0.70328414E-01 0.12501945E+03</pdfrwt>
<pdfrwt beam="1">  1       -4 0.13150360E-02 0.12501945E+03</pdfrwt>
<totfact> 0.58603802E+03</totfact>
</mgrwt>
</event>
<event>
 5    1  0.3236337E-002  0.1249931E+03  0.7818608E-02  0.1235080E+00
         -4   -1    0    0    0  501 -0.00000000000E+00  0.00000000000E+00  0.15025699047E+04  0.15025704414E+04  0.12700000000E+01 0. -1.
          4   -1    0    0  501    0  0.00000000000E+00 -0.00000000000E+00 -0.24437349397E+01  0.27540407505E+01  0.12700000000E+01 0. -1.
         25    2    1    2    0    0  0.00000000000E+00  0.00000000000E+00  0.15001261697E+04  0.15053244821E+04  0.12499308542E+03 0.  0.
    9000005    1    3    3    0    0  0.17633974746E+01 -0.14196740916E+02  0.17484132534E+02  0.22613091645E+02  0.10000000000E+01 0.  0.
    9000005    1    3    3    0    0 -0.17633974746E+01  0.14196740916E+02  0.14826420372E+04  0.14827113905E+04  0.10000000000E+01 0.  0.
<mgrwt>
<rscale>  0 0.12499309E+03</rscale>
<asrwt>0</asrwt>
<pdfrwt beam="2">  1        4 0.39987026E-03 0.12499309E+03</pdfrwt>
<pdfrwt beam="1">  1       -4 0.23118847E+00 0.12499309E+03</pdfrwt>
<totfact> 0.17828694E+03</totfact>
</mgrwt>
</event>
<event>
 5    1  0.3236337E-002  0.1250207E+03  0.7818608E-02  0.1235037E+00
          4   -1    0    0  501    0  0.00000000000E+00  0.00000000000E+00  0.38044368821E+01  0.40108153772E+01  0.12700000000E+01 0. -1.
         -4   -1    0    0    0  501 -0.00000000000E+00 -0.00000000000E+00 -0.99977257908E+03  0.99977338571E+03  0.12700000000E+01 0. -1.
         25    2    1    2    0    0  0.00000000000E+00  0.00000000000E+00 -0.99596814220E+03  0.10037842011E+04  0.12502072662E+03 0.  0.
    9000005    1    3    3    0    0 -0.49899346209E+02  0.37423355384E+02 -0.46577485944E+03  0.46993368890E+03  0.10000000000E+01 0.  0.
    9000005    1    3    3    0    0  0.49899346209E+02 -0.37423355384E+02 -0.53019328276E+03  0.53385051219E+03  0.10000000000E+01 0.  0.
<mgrwt>
<rscale>  0 0.12502073E+03</rscale>
<asrwt>0</asrwt>
<pdfrwt beam="1">  1        4 0.60123610E-03 0.12502073E+03</pdfrwt>
<pdfrwt beam="2">  1       -4 0.15382690E+00 0.12502073E+03</pdfrwt>
<totfact> 0.30466127E+03</totfact>
</mgrwt>
</event>
<event>
 5    1  0.3236337E-002  0.1249989E+03  0.7818608E-02  0.1235071E+00
          4   -1    0    0  501    0  0.00000000000E+00  0.00000000000E+00  0.11877661044E+02  0.11945364451E+02  0.12700000000E+01 0.  1.
         -4   -1    0    0    0  501 -0.00000000000E+00 -0.00000000000E+00 -0.32786446666E+03  0.32786692636E+03  0.12700000000E+01 0.  1.
         25    2    1    2    0    0  0.00000000000E+00  0.00000000000E+00 -0.31598680562E+03  0.33981229081E+03  0.12499892664E+03 0.  0.
    9000005    1    3    3    0    0 -0.31922795113E+02 -0.50242536630E+02 -0.10628389195E+03  0.12182217788E+03  0.10000000000E+01 0.  0.
    9000005    1    3    3    0    0  0.31922795113E+02  0.50242536630E+02 -0.20970291367E+03  0.21799011293E+03  0.10000000000E+01 0.  0.
<mgrwt>
<rscale>  0 0.12499893E+03</rscale>
<asrwt>0</asrwt>
<pdfrwt beam="1">  1        4 0.18327299E-02 0.12499893E+03</pdfrwt>
<pdfrwt beam="2">  1       -4 0.50446077E-01 0.12499893E+03</pdfrwt>
<totfact> 0.70861751E+03</totfact>
</mgrwt>
</event>
<event>
 5    1  0.3236337E-002  0.1249992E+03  0.7818608E-02  0.1235070E+00
         -4   -1    0    0    0  501 -0.00000000000E+00  0.00000000000E+00  0.39133759977E+01  0.41142935845E+01  0.12700000000E+01 0. -1.
          4   -1    0    0  501    0  0.00000000000E+00 -0.00000000000E+00 -0.97298303893E+03  0.97298386778E+03  0.12700000000E+01 0. -1.
         25    2    1    2    0    0  0.00000000000E+00  0.00000000000E+00 -0.96906966294E+03  0.97709816136E+03  0.12499922124E+03 0.  0.
    9000005    1    3    3    0    0  0.18096326764E+02  0.57275928273E+02 -0.61929131957E+03  0.62219831846E+03  0.10000000000E+01 0.  0.
    9000005    1    3    3    0    0 -0.18096326764E+02 -0.57275928273E+02 -0.34977834337E+03  0.35489984290E+03  0.10000000000E+01 0.  0.
<mgrwt>
<rscale>  0 0.12499922E+03</rscale>
<asrwt>0</asrwt>
<pdfrwt beam="2">  1        4 0.14970503E+00 0.12499922E+03</pdfrwt>
<pdfrwt beam="1">  1       -4 0.61757758E-03 0.12499922E+03</pdfrwt>
<totfact> 0.31373567E+03</totfact>
</mgrwt>
</event>
<event>
 5    1  0.3236337E-002  0.1250006E+03  0.7818608E-02  0.1235068E+00
         -4   -1    0    0    0  501 -0.00000000000E+00  0.00000000000E+00  0.38883387861E+02  0.38904122553E+02  0.12700000000E+01 0. -1.
          4   -1    0    0  501    0  0.00000000000E+00 -0.00000000000E+00 -0.10040999775E+03  0.10041802900E+03  0.12700000000E+01 0. -1.
         25    2    1    2    0    0  0.00000000000E+00  0.00000000000E+00 -0.61526609888E+02  0.13932215155E+03  0.12500055275E+03 0.  0.
    9000005    1    3    3    0    0 -0.37470496178E+02  0.36445712420E+02  0.74090711505E+01  0.52803620832E+02  0.10000000000E+01 0.  0.
    9000005    1    3    3    0    0  0.37470496178E+02 -0.36445712420E+02 -0.68935681039E+02  0.86518530720E+02  0.10000000000E+01 0.  0.
<mgrwt>
<rscale>  0 0.12500055E+03</rscale>
<asrwt>0</asrwt>
<pdfrwt beam="2">  1        4 0.15449905E-01 0.12500055E+03</pdfrwt>
<pdfrwt beam="1">  1       -4 0.59842725E-02 0.12500055E+03</pdfrwt>
<totfact> 0.10147527E+04</totfact>
</mgrwt>
</event>
<event>
 5    1  0.3236337E-002  0.1249901E+03  0.7818608E-02  0.1235085E+00
         -4   -1    0    0    0  501 -0.00000000000E+00  0.00000000000E+00  0.35817857752E+02  0.35840365985E+02  0.12700000000E+01 0. -1.
          4   -1    0    0  501    0  0.00000000000E+00 -0.00000000000E+00 -0.10898097339E+03  0.10898837305E+03  0.12700000000E+01 0. -1.
         25    2    1    2    0    0  0.00000000000E+00  0.00000000000E+00 -0.73163115638E+02  0.14482873904E+03  0.12499008825E+03 0.  0.
    9000005    1    3    3    0    0 -0.34516501040E+02  0.26440286298E+02 -0.88584198660E+02  0.98684536964E+02  0.10000000000E+01 0.  0.
    9000005    1    3    3    0    0  0.34516501040E+02 -0.26440286298E+02  0.15421083022E+02  0.46144202075E+02  0.10000000000E+01 0.  0.
<mgrwt>
<rscale>  0 0.12499009E+03</rscale>
<asrwt>0</asrwt>
<pdfrwt beam="2">  1        4 0.16768604E-01 0.12499009E+03</pdfrwt>
<pdfrwt beam="1">  1       -4 0.55127403E-02 0.12499009E+03</pdfrwt>
<totfact> 0.10036709E+04</totfact>
</mgrwt>
</event>
<event>
 5    1  0.3236337E-002  0.1249996E+03  0.7818608E-02  0.1235070E+00
          4   -1    0    0  501    0  0.00000000000E+00  0.00000000000E+00  0.59811129293E+02  0.59824611050E+02  0.12700000000E+01 0. -1.
         -4   -1    0    0    0  501 -0.00000000000E+00 -0.00000000000E+00 -0.65282310456E+02  0.65294662557E+02  0.12700000000E+01 0. -1.
         25    2    1    2    0    0  0.00000000000E+00  0.00000000000E+00 -0.54711811626E+01  0.12511927361E+03  0.12499959522E+03 0.  0.
    9000005    1    3    3    0    0  0.30468794095E+01  0.57864041857E+02  0.20689676684E+02  0.61535303164E+02  0.10000000000E+01 0.  0.
    9000005    1    3    3    0    0 -0.30468794095E+01 -0.57864041857E+02 -0.26160857846E+02  0.63583970444E+02  0.10000000000E+01 0.  0.
<mgrwt>
<rscale>  0 0.12499960E+03</rscale>
<asrwt>0</asrwt>
<pdfrwt beam="1">  1        4 0.92036994E-02 0.12499960E+03</pdfrwt>
<pdfrwt beam="2">  1       -4 0.10045420E-01 0.12499960E+03</pdfrwt>
<totfact> 0.10450368E+04</totfact>
</mgrwt>
</event>
<event>
 5    1  0.3236337E-002  0.1249985E+03  0.7818608E-02  0.1235072E+00
         -4   -1    0    0    0  501 -0.00000000000E+00  0.00000000000E+00  0.14128770966E+02  0.14185734702E+02  0.12700000000E+01 0. -1.
          4   -1    0    0  501    0  0.00000000000E+00 -0.00000000000E+00 -0.27585354330E+03  0.27585646675E+03  0.12700000000E+01 0. -1.
         25    2    1    2    0    0  0.00000000000E+00  0.00000000000E+00 -0.26172477233E+03  0.29004220145E+03  0.12499848868E+03 0.  0.
    9000005    1    3    3    0    0  0.13087564120E+02 -0.61095356837E+02 -0.12829046028E+03  0.14270027737E+03  0.10000000000E+01 0.  0.
    9000005    1    3    3    0    0 -0.13087564120E+02  0.61095356837E+02 -0.13343431204E+03  0.14734192408E+03  0.10000000000E+01 0.  0.
<mgrwt>
<rscale>  0 0.12499849E+03</rscale>
<asrwt>0</asrwt>
<pdfrwt beam="2">  1        4 0.42443609E-01 0.12499849E+03</pdfrwt>
<pdfrwt beam="1">  1       -4 0.21782640E-02 0.12499849E+03</pdfrwt>
<totfact> 0.76867731E+03</totfact>
</mgrwt>
</event>
<event>
 5    1  0.3236337E-002  0.1250010E+03  0.7818608E-02  0.1235068E+00
         -4   -1    0    0    0  501 -0.00000000000E+00  0.00000000000E+00  0.32246549853E+03  0.32246799941E+03  0.12700000000E+01 0.  1.
          4   -1    0    0  501    0  0.00000000000E+00 -0.00000000000E+00 -0.12078052178E+02  0.12144638505E+02  0.12700000000E+01 0.  1.
         25    2    1    2    0    0  0.00000000000E+00  0.00000000000E+00  0.31038744635E+03  0.33461263791E+03  0.12500100239E+03 0.  0.
    9000005    1    3    3    0    0  0.46337083287E+02 -0.26076917276E+02  0.67296565465E+02  0.85772714925E+02  0.10000000000E+01 0.  0.
    9000005    1    3    3    0    0 -0.46337083287E+02  0.26076917276E+02  0.24309088089E+03  0.24883992299E+03  0.10000000000E+01 0.  0.
<mgrwt>
<rscale>  0 0.12500100E+03</rscale>
<asrwt>0</asrwt>
<pdfrwt beam="2">  1        4 0.18634763E-02 0.12500100E+03</pdfrwt>
<pdfrwt beam="1">  1       -4 0.49615391E-01 0.12500100E+03</pdfrwt>
<totfact> 0.71449613E+03</totfact>
</mgrwt>
</event>
<event>
 5    1  0.3236337E-002  0.1249972E+03  0.7818608E-02  0.1235074E+00
         -4   -1    0    0    0  501 -0.00000000000E+00  0.00000000000E+00  0.88069881035E+02  0.88079037492E+02  0.12700000000E+01 0.  1.
          4   -1    0    0  501    0  0.00000000000E+00 -0.00000000000E+00 -0.44331465070E+02  0.44349652708E+02  0.12700000000E+01 0.  1.
         25    2    1    2    0    0  0.00000000000E+00  0.00000000000E+00  0.43738415964E+02  0.13242869020E+03  0.12499723580E+03 0.  0.
    9000005    1    3    3    0    0 -0.34698548138E+02 -0.33102476041E+02 -0.20579226851E+02  0.52194518301E+02  0.10000000000E+01 0.  0.
    9000005    1    3    3    0    0  0.34698548138E+02  0.33102476041E+02  0.64317642815E+02  0.80234171898E+02  0.10000000000E+01 0.  0.
<mgrwt>
<rscale>  0 0.12499724E+03</rscale>
<asrwt>0</asrwt>
<pdfrwt beam="2">  1        4 0.68223289E-02 0.12499724E+03</pdfrwt>
<pdfrwt beam="1">  1       -4 0.13551316E-01 0.12499724E+03</pdfrwt>
<totfact> 0.10293199E+04</totfact>
</mgrwt>
</event>
<event>
 5    1  0.3236337E-002  0.1250017E+03  0.7818608E-02  0.1235067E+00
          4   -1    0    0  501    0  0.00000000000E+00  0.00000000000E+00  0.15342821023E+02  0.15395293337E+02  0.12700000000E+01 0. -1.
         -4   -1    0    0    0  501 -0.00000000000E+00 -0.00000000000E+00 -0.25411617389E+03  0.25411934741E+03  0.12700000000E+01 0. -1.
         25    2    1    2    0    0  0.00000000000E+00  0.00000000000E+00 -0.23877335286E+03  0.26951464075E+03  0.12500171016E+03 0.  0.
    9000005    1    3    3    0    0  0.43784338333E+02 -0.44582110582E+02 -0.12122127554E+03  0.13638266206E+03  0.10000000000E+01 0.  0.
    9000005    1    3    3    0    0 -0.43784338333E+02  0.44582110582E+02 -0.11755207732E+03  0.13313197869E+03  0.10000000000E+01 0.  0.
<mgrwt>
<rscale>  0 0.12500171E+03</rscale>
<asrwt>0</asrwt>
<pdfrwt beam="1">  1        4 0.23647146E-02 0.12500171E+03</pdfrwt>
<pdfrwt beam="2">  1       -4 0.39099073E-01 0.12500171E+03</pdfrwt>
<totfact> 0.79586058E+03</totfact>
</mgrwt>
</event>
<event>
 5    1  0.3236337E-002  0.1249974E+03  0.7818608E-02  0.1235073E+00
          4   -1    0    0  501    0  0.00000000000E+00  0.00000000000E+00  0.95489770525E+03  0.95489854979E+03  0.12700000000E+01 0. -1.
         -4   -1    0    0    0  501 -0.00000000000E+00 -0.00000000000E+00 -0.39911426272E+01  0.41883313468E+01  0.12700000000E+01 0. -1.
         25    2    1    2    0    0  0.00000000000E+00  0.00000000000E+00  0.95090656263E+03  0.95908688114E+03  0.12499741889E+03 0.  0.
    9000005    1    3    3    0    0 -0.40483047941E+02 -0.37971247674E+02  0.69575851110E+03  0.69796962583E+03  0.10000000000E+01 0.  0.
    9000005    1    3    3    0    0  0.40483047941E+02  0.37971247674E+02  0.25514805153E+03  0.26111725531E+03  0.10000000000E+01 0.  0.
<mgrwt>
<rscale>  0 0.12499742E+03</rscale>
<asrwt>0</asrwt>
<pdfrwt beam="1">  1        4 0.14692270E+00 0.12499742E+03</pdfrwt>
<pdfrwt beam="2">  1       -4 0.62925474E-03 0.12499742E+03</pdfrwt>
<totfact> 0.31997304E+03</totfact>
</mgrwt>
</event>
<event>
 5    1  0.3236337E-002  0.1249986E+03  0.7818608E-02  0.1235071E+00
          4   -1    0    0  501    0  0.00000000000E+00  0.00000000000E+00  0.16280298895E+02  0.16329759096E+02  0.12700000000E+01 0.  1.
         -4   -1    0    0    0  501 -0.00000000000E+00 -0.00000000000E+00 -0.23951700019E+03  0.23952036715E+03  0.12700000000E+01 0.  1.
         25    2    1    2    0    0  0.00000000000E+00  0.00000000000E+00 -0.22323670129E+03  0.25585012625E+03  0.12499864917E+03 0.  0.
    9000005    1    3    3    0    0  0.34596328509E+02  0.49708425873E+02 -0.14315085672E+03  0.15543809484E+03  0.10000000000E+01 0.  0.
    9000005    1    3    3    0    0 -0.34596328509E+02 -0.49708425873E+02 -0.80085844575E+02  0.10041203140E+03  0.10000000000E+01 0.  0.
<mgrwt>
<rscale>  0 0.12499865E+03</rscale>
<asrwt>0</asrwt>
<pdfrwt beam="1">  1        4 0.25087252E-02 0.12499865E+03</pdfrwt>
<pdfrwt beam="2">  1       -4 0.36852830E-01 0.12499865E+03</pdfrwt>
<totfact> 0.81494439E+03</totfact>
</mgrwt>
</event>
<event>
 5    1  0.3236337E-002  0.1250007E+03  0.7818608E-02  0.1235068E+00
          4   -1    0    0  501    0  0.00000000000E+00  0.00000000000E+00  0.81058281940E+02  0.81068230344E+02  0.12700000000E+01 0. -1.
         -4   -1    0    0    0  501 -0.00000000000E+00 -0.00000000000E+00 -0.48169875275E+02  0.48186614158E+02  0.12700000000E+01 0. -1.
         25    2    1    2    0    0  0.00000000000E+00  0.00000000000E+00  0.32888406665E+02  0.12925484450E+03  0.12500067014E+03 0.  0.
    9000005    1    3    3    0    0 -0.15045786107E+02  0.55639569911E+02  0.41414648821E+02  0.70981057730E+02  0.10000000000E+01 0.  0.
    9000005    1    3    3    0    0  0.15045786107E+02 -0.55639569911E+02 -0.85262421569E+01  0.58273786772E+02  0.10000000000E+01 0.  0.
<mgrwt>
<rscale>  0 0.12500067E+03</rscale>
<asrwt>0</asrwt>
<pdfrwt beam="1">  1        4 0.12472558E-01 0.12500067E+03</pdfrwt>
<pdfrwt beam="2">  1       -4 0.74128030E-02 0.12500067E+03</pdfrwt>
<totfact> 0.10360317E+04</totfact>
</mgrwt>
</event>
<event>
 5    1  0.3236337E-002  0.1250058E+03  0.7818608E-02  0.1235060E+00
         -4   -1    0    0    0  501 -0.00000000000E+00  0.00000000000E+00  0.82998518164E+01  0.83964540238E+01  0.12700000000E+01 0. -1.
          4   -1    0    0  501    0  0.00000000000E+00 -0.00000000000E+00 -0.46786380972E+03  0.46786553340E+03  0.12700000000E+01 0. -1.
         25    2    1    2    0    0  0.00000000000E+00  0.00000000000E+00 -0.45956395790E+03  0.47626198743E+03  0.12500579692E+03 0.  0.
    9000005    1    3    3    0    0  0.14229279651E+02  0.28173138261E+02 -0.43528515756E+03  0.43642910823E+03  0.10000000000E+01 0.  0.
    9000005    1    3    3    0    0 -0.14229279651E+02 -0.28173138261E+02 -0.24278800343E+02  0.39832879195E+02  0.10000000000E+01 0.  0.
<mgrwt>
<rscale>  0 0.12500580E+03</rscale>
<asrwt>0</asrwt>
<pdfrwt beam="2">  1        4 0.71986591E-01 0.12500580E+03</pdfrwt>
<pdfrwt beam="1">  1       -4 0.12844642E-02 0.12500580E+03</pdfrwt>
<totfact> 0.57747002E+03</totfact>
</mgrwt>
</event>
<event>
 5    1  0.3236337E-002  0.1249998E+03  0.7818608E-02  0.1235070E+00
         -4   -1    0    0    0  501 -0.00000000000E+00  0.00000000000E+00  0.24407556016E+04  0.24407559320E+04  0.12700000000E+01 0. -1.
          4   -1    0    0  501    0  0.00000000000E+00 -0.00000000000E+00 -0.13480903035E+01  0.18520927262E+01  0.12700000000E+01 0. -1.
         25    2    1    2    0    0  0.00000000000E+00  0.00000000000E+00  0.24394075112E+04  0.24426080247E+04  0.12499982534E+03 0.  0.
    9000005    1    3    3    0    0 -0.39289368214E+01  0.19708377752E+02  0.23759867666E+04  0.23760719626E+04  0.10000000000E+01 0.  0.
    9000005    1    3    3    0    0  0.39289368214E+01 -0.19708377752E+02  0.63420744680E+02  0.66536062056E+02  0.10000000000E+01 0.  0.
<mgrwt>
<rscale>  0 0.12499983E+03</rscale>
<asrwt>0</asrwt>
<pdfrwt beam="2">  1        4 0.24619287E-03 0.12499983E+03</pdfrwt>
<pdfrwt beam="1">  1       -4 0.37554037E+00 0.12499983E+03</pdfrwt>
<totfact> 0.51360710E+02</totfact>
</mgrwt>
</event>
<event>
 5    1  0.3236337E-002  0.1250001E+03  0.7818608E-02  0.1235069E+00
          4   -1    0    0  501    0  0.00000000000E+00  0.00000000000E+00  0.20601030045E+02  0.20640139024E+02  0.12700000000E+01 0. -1.
         -4   -1    0    0    0  501 -0.00000000000E+00 -0.00000000000E+00 -0.18939363035E+03  0.18939788836E+03  0.12700000000E+01 0. -1.
         25    2    1    2    0    0  0.00000000000E+00  0.00000000000E+00 -0.16879260030E+03  0.21003802739E+03  0.12500012413E+03 0.  0.
    9000005    1    3    3    0    0 -0.51869545133E+02 -0.31806993803E+02 -0.10834418944E+03  0.12426422636E+03  0.10000000000E+01 0.  0.
    9000005    1    3    3    0    0  0.51869545133E+02  0.31806993803E+02 -0.60448410866E+02  0.85773801031E+02  0.10000000000E+01 0.  0.
<mgrwt>
<rscale>  0 0.12500012E+03</rscale>
<asrwt>0</asrwt>
<pdfrwt beam="1">  1        4 0.31727253E-02 0.12500012E+03</pdfrwt>
<pdfrwt beam="2">  1       -4 0.29140816E-01 0.12500012E+03</pdfrwt>
<totfact> 0.88469426E+03</totfact>
</mgrwt>
</event>
<event>
 5    1  0.3236337E-002  0.1250014E+03  0.7818608E-02  0.1235067E+00
          4   -1    0    0  501    0  0.00000000000E+00  0.00000000000E+00  0.44135899923E+02  0.44154168116E+02  0.12700000000E+01 0.  1.
         -4   -1    0    0    0  501 -0.00000000000E+00 -0.00000000000E+00 -0.88465956803E+02  0.88475072269E+02  0.12700000000E+01 0.  1.
         25    2    1    2    0    0  0.00000000000E+00  0.00000000000E+00 -0.44330056880E+02  0.13262924039E+03  0.12500144584E+03 0.  0.
    9000005    1    3    3    0    0  0.84265750500E+01 -0.79858687288E+01 -0.87316933939E+02  0.88091022351E+02  0.10000000000E+01 0.  0.
    9000005    1    3    3    0    0 -0.84265750500E+01  0.79858687288E+01  0.42986877059E+02  0.44538218034E+02  0.10000000000E+01 0.  0.
<mgrwt>
<rscale>  0 0.12500145E+03</rscale>
<asrwt>0</asrwt>
<pdfrwt beam="1">  1        4 0.67922449E-02 0.12500145E+03</pdfrwt>
<pdfrwt beam="2">  1       -4 0.13612254E-01 0.12500145E+03</pdfrwt>
<totfact> 0.10287950E+04</totfact>
</mgrwt>
</event>
<event>
 5    1  0.3236337E-002  0.1250005E+03  0.7818608E-02  0.1235069E+00
          4   -1    0    0  501    0  0.00000000000E+00  0.00000000000E+00  0.88232582947E+03  0.88232674348E+03  0.12700000000E+01 0. -1.
         -4   -1    0    0    0  501 -0.00000000000E+00 -0.00000000000E+00 -0.43352405971E+01  0.45174341207E+01  0.12700000000E+01 0. -1.
         25    2    1    2    0    0  0.00000000000E+00  0.00000000000E+00  0.87799058887E+03  0.88684417760E+03  0.12500048474E+03 0.  0.
    9000005    1    3    3    0    0 -0.48420723238E+02 -0.16226976100E+02  0.69454325465E+03  0.69641884938E+03  0.10000000000E+01 0.  0.
    9000005    1    3    3    0    0  0.48420723238E+02  0.16226976100E+02  0.18344733422E+03  0.19042532822E+03  0.10000000000E+01 0.  0.
<mgrwt>
<rscale>  0 0.12500048E+03</rscale>
<asrwt>0</asrwt>
<pdfrwt beam="1">  1        4 0.13575651E+00 0.12500048E+03</pdfrwt>
<pdfrwt beam="2">  1       -4 0.68104536E-03 0.12500048E+03</pdfrwt>
<totfact> 0.34664804E+03</totfact>
</mgrwt>
</event>
<event>
 5    1  0.3236337E-002  0.1250005E+03  0.7818608E-02  0.1235068E+00
         -4   -1    0    0    0  501 -0.00000000000E+00  0.00000000000E+00  0.19011452567E+03  0.19011876753E+03  0.12700000000E+01 0. -1.
          4   -1    0    0  501    0  0.00000000000E+00 -0.00000000000E+00 -0.20522902255E+02  0.20562159832E+02  0.12700000000E+01 0. -1.
         25    2    1    2    0    0  0.00000000000E+00  0.00000000000E+00  0.16959162341E+03  0.21068092737E+03  0.12500053770E+03 0.  0.
    9000005    1    3    3    0    0  0.38004664125E+02  0.48412173653E+02  0.10304147443E+03  0.12002765725E+03  0.10000000000E+01 0.  0.
    9000005    1    3    3    0    0 -0.38004664125E+02 -0.48412173653E+02  0.66550148982E+02  0.90653270115E+02  0.10000000000E+01 0.  0.
<mgrwt>
<rscale>  0 0.12500054E+03</rscale>
<asrwt>0</asrwt>
<pdfrwt beam="2">  1        4 0.31607157E-02 0.12500054E+03</pdfrwt>
<pdfrwt beam="1">  1       -4 0.29251734E-01 0.12500054E+03</pdfrwt>
<totfact> 0.88363735E+03</totfact>
</mgrwt>
</event>
<event>
 5    1  0.3236337E-002  0.1249871E+03  0.7818608E-02  0.1235090E+00
         -4   -1    0    0    0  501 -0.00000000000E+00  0.00000000000E+00  0.13810682474E+03  0.13811266394E+03  0.12700000000E+01 0.  1.
          4   -1    0    0  501    0  0.00000000000E+00 -0.00000000000E+00 -0.28257705031E+02  0.28286229753E+02  0.12700000000E+01 0.  1.
         25    2    1    2    0    0  0.00000000000E+00  0.00000000000E+00  0.10984911971E+03  0.16639889369E+03  0.12498705021E+03 0.  0.
    9000005    1    3    3    0    0  0.87462512577E+00  0.50404626146E+02  0.57725580596E+01  0.50751489954E+02  0.10000000000E+01 0.  0.
    9000005    1    3    3    0    0 -0.87462512577E+00 -0.50404626146E+02  0.10407656165E+03  0.11564740373E+03  0.10000000000E+01 0.  0.
<mgrwt>
<rscale>  0 0.12498705E+03</rscale>
<asrwt>0</asrwt>
<pdfrwt beam="2">  1        4 0.43499826E-02 0.12498705E+03</pdfrwt>
<pdfrwt beam="1">  1       -4 0.21249847E-01 0.12498705E+03</pdfrwt>
<totfact> 0.96151083E+03</totfact>
</mgrwt>
</event>
<event>
 5    1  0.3236337E-002  0.1250021E+03  0.7818608E-02  0.1235066E+00
         -4   -1    0    0    0  501 -0.00000000000E+00  0.00000000000E+00  0.17952652794E+03  0.17953101998E+03  0.12700000000E+01 0.  1.
          4   -1    0    0  501    0  0.00000000000E+00 -0.00000000000E+00 -0.21736071205E+02  0.21773141515E+02  0.12700000000E+01 0.  1.
         25    2    1    2    0    0  0.00000000000E+00  0.00000000000E+00  0.15779045673E+03  0.20130416149E+03  0.12500214877E+03 0.  0.
    9000005    1    3    3    0    0  0.19728314606E+02 -0.56257255522E+01  0.17395731069E+03  0.17516563912E+03  0.10000000000E+01 0.  0.
    9000005    1    3    3    0    0 -0.19728314606E+02  0.56257255522E+01 -0.16166853955E+02  0.26138522376E+02  0.10000000000E+01 0.  0.
<mgrwt>
<rscale>  0 0.12500215E+03</rscale>
<asrwt>0</asrwt>
<pdfrwt beam="2">  1        4 0.33472082E-02 0.12500215E+03</pdfrwt>
<pdfrwt beam="1">  1       -4 0.27622662E-01 0.12500215E+03</pdfrwt>
<totfact> 0.89911692E+03</totfact>
</mgrwt>
</event>
<event>
 5    1  0.3236337E-002  0.1250020E+03  0.7818608E-02  0.1235066E+00
         -4   -1    0    0    0  501 -0.00000000000E+00  0.00000000000E+00  0.13325378201E+02  0.13385761248E+02  0.12700000000E+01 0.  1.
          4   -1    0    0  501    0  0.00000000000E+00 -0.00000000000E+00 -0.29242872270E+03  0.29243148045E+03  0.12700000000E+01 0.  1.
         25    2    1    2    0    0  0.00000000000E+00  0.00000000000E+00 -0.27910334450E+03  0.30581724170E+03  0.12500203363E+03 0.  0.
    9000005    1    3    3    0    0  0.31646966059E+02  0.26621541028E+02 -0.25417579357E+03  0.25752003989E+03  0.10000000000E+01 0.  0.
    9000005    1    3    3    0    0 -0.31646966059E+02 -0.26621541028E+02 -0.24927550924E+02  0.48297201808E+02  0.10000000000E+01 0.  0.
<mgrwt>
<rscale>  0 0.12500203E+03</rscale>
<asrwt>0</asrwt>
<pdfrwt beam="2">  1        4 0.44993886E-01 0.12500203E+03</pdfrwt>
<pdfrwt beam="1">  1       -4 0.20549154E-02 0.12500203E+03</pdfrwt>
<totfact> 0.74871504E+03</totfact>
</mgrwt>
</event>
<event>
 5    1  0.3236337E-002  0.1250035E+03  0.7818608E-02  0.1235064E+00
          4   -1    0    0  501    0  0.00000000000E+00  0.00000000000E+00  0.44693577698E+03  0.44693758137E+03  0.12700000000E+01 0.  1.
         -4   -1    0    0    0  501 -0.00000000000E+00 -0.00000000000E+00 -0.86925919790E+01  0.87848765110E+01  0.12700000000E+01 0.  1.
         25    2    1    2    0    0  0.00000000000E+00  0.00000000000E+00  0.43824318500E+03  0.45572245788E+03  0.12500347764E+03 0.  0.
    9000005    1    3    3    0    0 -0.36997903231E+02 -0.91270917098E+01  0.39969563514E+03  0.40150933911E+03  0.10000000000E+01 0.  0.
    9000005    1    3    3    0    0  0.36997903231E+02  0.91270917098E+01  0.38547549864E+02  0.54213118773E+02  0.10000000000E+01 0.  0.
<mgrwt>
<rscale>  0 0.12500348E+03</rscale>
<asrwt>0</asrwt>
<pdfrwt beam="1">  1        4 0.68766571E-01 0.12500348E+03</pdfrwt>
<pdfrwt beam="2">  1       -4 0.13445598E-02 0.12500348E+03</pdfrwt>
<totfact> 0.59466698E+03</totfact>
</mgrwt>
</event>
<event>
 5    1  0.3236337E-002  0.1249990E+03  0.7818608E-02  0.1235071E+00
          4   -1    0    0  501    0  0.00000000000E+00  0.00000000000E+00  0.18975363744E+03  0.18975788738E+03  0.12700000000E+01 0.  1.
         -4   -1    0    0    0  501 -0.00000000000E+00 -0.00000000000E+00 -0.20561511004E+02  0.20600695007E+02  0.12700000000E+01 0.  1.
         25    2    1    2    0    0  0.00000000000E+00  0.00000000000E+00  0.16919212644E+03  0.21035858239E+03  0.12499903014E+03 0.  0.
    9000005    1    3    3    0    0  0.17997406625E+02  0.32384797238E+02 -0.93320927635E-01  0.37063330209E+02  0.10000000000E+01 0.  0.
    9000005    1    3    3    0    0 -0.17997406625E+02 -0.32384797238E+02  0.16928544737E+03  0.17329525218E+03  0.10000000000E+01 0.  0.
<mgrwt>
<rscale>  0 0.12499903E+03</rscale>
<asrwt>0</asrwt>
<pdfrwt beam="1">  1        4 0.29196210E-01 0.12499903E+03</pdfrwt>
<pdfrwt beam="2">  1       -4 0.31666503E-02 0.12499903E+03</pdfrwt>
<totfact> 0.88419268E+03</totfact>
</mgrwt>
</event>
<event>
 5    1  0.3236337E-002  0.1250011E+03  0.7818608E-02  0.1235068E+00
         -4   -1    0    0    0  501 -0.00000000000E+00  0.00000000000E+00  0.14152396567E+02  0.14209265590E+02  0.12700000000E+01 0. -1.
          4   -1    0    0  501    0  0.00000000000E+00 -0.00000000000E+00 -0.27540648502E+03  0.27540941322E+03  0.12700000000E+01 0. -1.
         25    2    1    2    0    0  0.00000000000E+00  0.00000000000E+00 -0.26125408845E+03  0.28961867881E+03  0.12500112153E+03 0.  0.
    9000005    1    3    3    0    0  0.29747723171E+02  0.30726904536E+02 -0.25054126834E+02  0.49575991847E+02  0.10000000000E+01 0.  0.
    9000005    1    3    3    0    0 -0.29747723171E+02 -0.30726904536E+02 -0.23619996162E+03  0.24004268697E+03  0.10000000000E+01 0.  0.
<mgrwt>
<rscale>  0 0.12500112E+03</rscale>
<asrwt>0</asrwt>
<pdfrwt beam="2">  1        4 0.42374824E-01 0.12500112E+03</pdfrwt>
<pdfrwt beam="1">  1       -4 0.21818918E-02 0.12500112E+03</pdfrwt>
<totfact> 0.76917868E+03</totfact>
</mgrwt>
</event>
<event>
 5    1  0.3236337E-002  0.1249996E+03  0.7818608E-02  0.1235070E+00
         -4   -1    0    0    0  501 -0.00000000000E+00  0.00000000000E+00  0.15656634180E+02  0.15708058245E+02  0.12700000000E+01 0. -1.
          4   -1    0    0  501    0  0.00000000000E+00 -0.00000000000E+00 -0.24903119073E+03  0.24903442906E+03  0.12700000000E+01 0. -1.
         25    2    1    2    0    0  0.00000000000E+00  0.00000000000E+00 -0.23337455655E+03  0.26474248731E+03  0.12499960375E+03 0.  0.
    9000005    1    3    3    0    0  0.45743982706E+02 -0.28151868710E+02 -0.49039335101E+02  0.72738545853E+02  0.10000000000E+01 0.  0.
    9000005    1    3    3    0    0 -0.45743982706E+02  0.28151868710E+02 -0.18433522145E+03  0.19200394145E+03  0.10000000000E+01 0.  0.
<mgrwt>
<rscale>  0 0.12499960E+03</rscale>
<asrwt>0</asrwt>
<pdfrwt beam="2">  1        4 0.38316693E-01 0.12499960E+03</pdfrwt>
<pdfrwt beam="1">  1       -4 0.24129179E-02 0.12499960E+03</pdfrwt>
<totfact> 0.80245802E+03</totfact>
</mgrwt>
</event>
<event>
 5    1  0.3236337E-002  0.1249971E+03  0.7818608E-02  0.1235074E+00
          4   -1    0    0  501    0  0.00000000000E+00  0.00000000000E+00  0.23308880081E+02  0.23343452843E+02  0.12700000000E+01 0.  1.
         -4   -1    0    0    0  501 -0.00000000000E+00 -0.00000000000E+00 -0.16741743864E+03  0.16742225558E+03  0.12700000000E+01 0.  1.
         25    2    1    2    0    0  0.00000000000E+00  0.00000000000E+00 -0.14410855856E+03  0.19076570842E+03  0.12499711540E+03 0.  0.
    9000005    1    3    3    0    0  0.53866257399E+02  0.15554591214E+02 -0.11417053322E+03  0.12719838697E+03  0.10000000000E+01 0.  0.
    9000005    1    3    3    0    0 -0.53866257399E+02 -0.15554591214E+02 -0.29938025348E+02  0.63567321445E+02  0.10000000000E+01 0.  0.
<mgrwt>
<rscale>  0 0.12499712E+03</rscale>
<asrwt>0</asrwt>
<pdfrwt beam="1">  1        4 0.35890116E-02 0.12499712E+03</pdfrwt>
<pdfrwt beam="2">  1       -4 0.25759558E-01 0.12499712E+03</pdfrwt>
<totfact> 0.91720181E+03</totfact>
</mgrwt>
</event>
<event>
 5    1  0.3236337E-002  0.1250044E+03  0.7818608E-02  0.1235062E+00
         -4   -1    0    0    0  501 -0.00000000000E+00  0.00000000000E+00  0.38387648011E+03  0.38387858091E+03  0.12700000000E+01 0. -1.
          4   -1    0    0  501    0  0.00000000000E+00 -0.00000000000E+00 -0.10134756727E+02  0.10214019479E+02  0.12700000000E+01 0. -1.
         25    2    1    2    0    0  0.00000000000E+00  0.00000000000E+00  0.37374172339E+03  0.39409260039E+03  0.12500440746E+03 0.  0.
    9000005    1    3    3    0    0 -0.31483476844E+02 -0.49979250537E+02  0.12253939530E+03  0.13603690014E+03  0.10000000000E+01 0.  0.
    9000005    1    3    3    0    0  0.31483476844E+02  0.49979250537E+02  0.25120232809E+03  0.25805570026E+03  0.10000000000E+01 0.  0.
<mgrwt>
<rscale>  0 0.12500441E+03</rscale>
<asrwt>0</asrwt>
<pdfrwt beam="2">  1        4 0.15654520E-02 0.12500441E+03</pdfrwt>
<pdfrwt beam="1">  1       -4 0.59064182E-01 0.12500441E+03</pdfrwt>
<totfact> 0.65125077E+03</totfact>
</mgrwt>
</event>
<event>
 5    1  0.3236337E-002  0.1250002E+03  0.7818608E-02  0.1235069E+00
          4   -1    0    0  501    0  0.00000000000E+00  0.00000000000E+00  0.16856877723E+03  0.16857356126E+03  0.12700000000E+01 0. -1.
         -4   -1    0    0    0  501 -0.00000000000E+00 -0.00000000000E+00 -0.23150591683E+02  0.23185400477E+02  0.12700000000E+01 0. -1.
         25    2    1    2    0    0  0.00000000000E+00  0.00000000000E+00  0.14541818555E+03  0.19175896174E+03  0.12500020288E+03 0.  0.
    9000005    1    3    3    0    0  0.12785208218E+02 -0.56615411195E+02  0.37176382408E+02  0.68933661900E+02  0.10000000000E+01 0.  0.
    9000005    1    3    3    0    0 -0.12785208218E+02  0.56615411195E+02  0.10824180314E+03  0.12282529984E+03  0.10000000000E+01 0.  0.
<mgrwt>
<rscale>  0 0.12500020E+03</rscale>
<asrwt>0</asrwt>
<pdfrwt beam="1">  1        4 0.25936703E-01 0.12500020E+03</pdfrwt>
<pdfrwt beam="2">  1       -4 0.35646752E-02 0.12500020E+03</pdfrwt>
<totfact> 0.91541743E+03</totfact>
</mgrwt>
</event>
<event>
 5    1  0.3236337E-002  0.1250145E+03  0.7818608E-02  0.1235047E+00
         -4   -1    0    0    0  501 -0.00000000000E+00  0.00000000000E+00  0.23667211587E+03  0.23667552331E+03  0.12700000000E+01 0.  1.
          4   -1    0    0  501    0  0.00000000000E+00 -0.00000000000E+00 -0.16480773250E+02  0.16529633599E+02  0.12700000000E+01 0.  1.
         25    2    1    2    0    0  0.00000000000E+00  0.00000000000E+00  0.22019134262E+03  0.25320515691E+03  0.12501449563E+03 0.  0.
    9000005    1    3    3    0    0 -0.34608274015E+01  0.53580358793E+02  0.17488727395E+03  0.18294641501E+03  0.10000000000E+01 0.  0.
    9000005    1    3    3    0    0  0.34608274015E+01 -0.53580358793E+02  0.45304068677E+02  0.70258741901E+02  0.10000000000E+01 0.  0.
<mgrwt>
<rscale>  0 0.12501450E+03</rscale>
<asrwt>0</asrwt>
<pdfrwt beam="2">  1        4 0.25395243E-02 0.12501450E+03</pdfrwt>
<pdfrwt beam="1">  1       -4 0.36415114E-01 0.12501450E+03</pdfrwt>
<totfact> 0.81842755E+03</totfact>
</mgrwt>
</event>
<event>
 5    1  0.3236337E-002  0.1250001E+03  0.7818608E-02  0.1235069E+00
          4   -1    0    0  501    0  0.00000000000E+00  0.00000000000E+00  0.12277182229E+03  0.12277839080E+03  0.12700000000E+01 0. -1.
         -4   -1    0    0    0  501 -0.00000000000E+00 -0.00000000000E+00 -0.31797131670E+02  0.31822483914E+02  0.12700000000E+01 0. -1.
         25    2    1    2    0    0  0.00000000000E+00  0.00000000000E+00  0.90974690619E+02  0.15460087472E+03  0.12500014452E+03 0.  0.
    9000005    1    3    3    0    0  0.16487266252E+02 -0.55933205722E+02  0.73278495264E+02  0.93654104656E+02  0.10000000000E+01 0.  0.
    9000005    1    3    3    0    0 -0.16487266252E+02  0.55933205722E+02  0.17696195356E+02  0.60946770061E+02  0.10000000000E+01 0.  0.
<mgrwt>
<rscale>  0 0.12500014E+03</rscale>
<asrwt>0</asrwt>
<pdfrwt beam="1">  1        4 0.18890428E-01 0.12500014E+03</pdfrwt>
<pdfrwt beam="2">  1       -4 0.48943220E-02 0.12500014E+03</pdfrwt>
<totfact> 0.98393589E+03</totfact>
</mgrwt>
</event>
<event>
 5    1  0.3236337E-002  0.1249998E+03  0.7818608E-02  0.1235070E+00
         -4   -1    0    0    0  501 -0.00000000000E+00  0.00000000000E+00  0.94365945841E+02  0.94374491439E+02  0.12700000000E+01 0.  1.
          4   -1    0    0  501    0  0.00000000000E+00 -0.00000000000E+00 -0.41374426306E+02  0.41393913226E+02  0.12700000000E+01 0.  1.
         25    2    1    2    0    0  0.00000000000E+00  0.00000000000E+00  0.52991519535E+02  0.13576840467E+03  0.12499983425E+03 0.  0.
    9000005    1    3    3    0    0 -0.20545232186E+02  0.24612209597E+02  0.84758016213E+02  0.90624437870E+02  0.10000000000E+01 0.  0.
    9000005    1    3    3    0    0  0.20545232186E+02 -0.24612209597E+02 -0.31766496678E+02  0.45143966795E+02  0.10000000000E+01 0.  0.
<mgrwt>
<rscale>  0 0.12499983E+03</rscale>
<asrwt>0</asrwt>
<pdfrwt beam="2">  1        4 0.63674527E-02 0.12499983E+03</pdfrwt>
<pdfrwt beam="1">  1       -4 0.14519994E-01 0.12499983E+03</pdfrwt>
<totfact> 0.10221938E+04</totfact>
</mgrwt>
</event>
<event>
 5    1  0.3236337E-002  0.1249990E+03  0.7818608E-02  0.1235071E+00
          4   -1    0    0  501    0  0.00000000000E+00  0.00000000000E+00  0.31790500015E+03  0.31790753690E+03  0.12700000000E+01 0.  1.
         -4   -1    0    0    0  501 -0.00000000000E+00 -0.00000000000E+00 -0.12251874957E+02  0.12317521665E+02  0.12700000000E+01 0.  1.
         25    2    1    2    0    0  0.00000000000E+00  0.00000000000E+00  0.30565312519E+03  0.33022505857E+03  0.12499902546E+03 0.  0.
    9000005    1    3    3    0    0  0.19215651574E+02  0.30558084413E+02  0.28758925260E+03  0.28984757374E+03  0.10000000000E+01 0.  0.
    9000005    1    3    3    0    0 -0.19215651574E+02 -0.30558084413E+02  0.18063872588E+02  0.40377484831E+02  0.10000000000E+01 0.  0.
<mgrwt>
<rscale>  0 0.12499903E+03</rscale>
<asrwt>0</asrwt>
<pdfrwt beam="1">  1        4 0.48913714E-01 0.12499903E+03</pdfrwt>
<pdfrwt beam="2">  1       -4 0.18901484E-02 0.12499903E+03</pdfrwt>
<totfact> 0.71957816E+03</totfact>
</mgrwt>
</event>
<event>
 5    1  0.3236337E-002  0.1249993E+03  0.7818608E-02  0.1235070E+00
          4   -1    0    0  501    0  0.00000000000E+00  0.00000000000E+00  0.62133052260E+02  0.62146030309E+02  0.12700000000E+01 0.  1.
         -4   -1    0    0    0  501 -0.00000000000E+00 -0.00000000000E+00 -0.62842427905E+02  0.62855259485E+02  0.12700000000E+01 0.  1.
         25    2    1    2    0    0  0.00000000000E+00  0.00000000000E+00 -0.70937564427E+00  0.12500128979E+03  0.12499927694E+03 0.  0.
    9000005    1    3    3    0    0  0.14361054219E+02  0.15374587073E+02 -0.59199386134E+02  0.62834585418E+02  0.10000000000E+01 0.  0.
    9000005    1    3    3    0    0 -0.14361054219E+02 -0.15374587073E+02  0.58490010490E+02  0.62166704377E+02  0.10000000000E+01 0.  0.
<mgrwt>
<rscale>  0 0.12499928E+03</rscale>
<asrwt>0</asrwt>
<pdfrwt beam="1">  1        4 0.95609164E-02 0.12499928E+03</pdfrwt>
<pdfrwt beam="2">  1       -4 0.96700513E-02 0.12499928E+03</pdfrwt>
<totfact> 0.10453005E+04</totfact>
</mgrwt>
</event>
<event>
 5    1  0.3236337E-002  0.1249991E+03  0.7818608E-02  0.1235071E+00
         -4   -1    0    0    0  501 -0.00000000000E+00  0.00000000000E+00  0.10745842450E+03  0.10746592900E+03  0.12700000000E+01 0. -1.
          4   -1    0    0  501    0  0.00000000000E+00 -0.00000000000E+00 -0.36330852118E+02  0.36353042729E+02  0.12700000000E+01 0. -1.
         25    2    1    2    0    0  0.00000000000E+00  0.00000000000E+00  0.71127572381E+02  0.14381897173E+03  0.12499906030E+03 0.  0.
    9000005    1    3    3    0    0 -0.71362836335E+01 -0.60272912595E+02  0.52685143301E+02  0.80377079204E+02  0.10000000000E+01 0.  0.
    9000005    1    3    3    0    0  0.71362836335E+01  0.60272912595E+02  0.18442429081E+02  0.63441892525E+02  0.10000000000E+01 0.  0.
<mgrwt>
<rscale>  0 0.12499906E+03</rscale>
<asrwt>0</asrwt>
<pdfrwt beam="2">  1        4 0.55916462E-02 0.12499906E+03</pdfrwt>
<pdfrwt beam="1">  1       -4 0.16534349E-01 0.12499906E+03</pdfrwt>
<totfact> 0.10055252E+04</totfact>
</mgrwt>
</event>
<event>
 5    1  0.3236337E-002  0.1250009E+03  0.7818608E-02  0.1235068E+00
          4   -1    0    0  501    0  0.00000000000E+00  0.00000000000E+00  0.12869624214E+03  0.12870250829E+03  0.12700000000E+01 0. -1.
         -4   -1    0    0    0  501 -0.00000000000E+00 -0.00000000000E+00 -0.30332635495E+02  0.30359210729E+02  0.12700000000E+01 0. -1.
         25    2    1    2    0    0  0.00000000000E+00  0.00000000000E+00  0.98363606645E+02  0.15906171902E+03  0.12500092538E+03 0.  0.
    9000005    1    3    3    0    0 -0.31405869707E+02 -0.32950056600E+02 -0.53018234640E+01  0.45838239648E+02  0.10000000000E+01 0.  0.
    9000005    1    3    3    0    0  0.31405869707E+02  0.32950056600E+02  0.10366543011E+03  0.11322347937E+03  0.10000000000E+01 0.  0.
<mgrwt>
<rscale>  0 0.12500093E+03</rscale>
<asrwt>0</asrwt>
<pdfrwt beam="1">  1        4 0.19801948E-01 0.12500093E+03</pdfrwt>
<pdfrwt beam="2">  1       -4 0.46690856E-02 0.12500093E+03</pdfrwt>
<totfact> 0.97521955E+03</totfact>
</mgrwt>
</event>
<event>
 5    1  0.3236337E-002  0.1250003E+03  0.7818608E-02  0.1235069E+00
         -4   -1    0    0    0  501 -0.00000000000E+00  0.00000000000E+00  0.66153637167E+01  0.67361663506E+01  0.12700000000E+01 0. -1.
          4   -1    0    0  501    0  0.00000000000E+00 -0.00000000000E+00 -0.58502063235E+03  0.58502201085E+03  0.12700000000E+01 0. -1.
         25    2    1    2    0    0  0.00000000000E+00  0.00000000000E+00 -0.57840526863E+03  0.59175817720E+03  0.12500034199E+03 0.  0.
    9000005    1    3    3    0    0  0.35636571033E+02 -0.44075117726E+02 -0.16460707009E+03  0.17409499912E+03  0.10000000000E+01 0.  0.
    9000005    1    3    3    0    0 -0.35636571033E+02  0.44075117726E+02 -0.41379819855E+03  0.41766317807E+03  0.10000000000E+01 0.  0.
<mgrwt>
<rscale>  0 0.12500034E+03</rscale>
<asrwt>0</asrwt>
<pdfrwt beam="2">  1        4 0.90012532E-01 0.12500034E+03</pdfrwt>
<pdfrwt beam="1">  1       -4 0.10271473E-02 0.12500034E+03</pdfrwt>
<totfact> 0.49391671E+03</totfact>
</mgrwt>
</event>
<event>
 5    1  0.3236337E-002  0.1250007E+03  0.7818608E-02  0.1235068E+00
          4   -1    0    0  501    0  0.00000000000E+00  0.00000000000E+00  0.93848115511E+02  0.93856708258E+02  0.12700000000E+01 0.  1.
         -4   -1    0    0    0  501 -0.00000000000E+00 -0.00000000000E+00 -0.41603411253E+02  0.41622790967E+02  0.12700000000E+01 0.  1.
         25    2    1    2    0    0  0.00000000000E+00  0.00000000000E+00  0.52244704258E+02  0.13547949923E+03  0.12500074235E+03 0.  0.
    9000005    1    3    3    0    0 -0.20036065620E+02 -0.56157690108E+02  0.58409408398E+01  0.59918667155E+02  0.10000000000E+01 0.  0.
    9000005    1    3    3    0    0  0.20036065620E+02  0.56157690108E+02  0.46403763418E+02  0.75560832070E+02  0.10000000000E+01 0.  0.
<mgrwt>
<rscale>  0 0.12500074E+03</rscale>
<asrwt>0</asrwt>
<pdfrwt beam="1">  1        4 0.14440323E-01 0.12500074E+03</pdfrwt>
<pdfrwt beam="2">  1       -4 0.64026766E-02 0.12500074E+03</pdfrwt>
<totfact> 0.10227803E+04</totfact>
</mgrwt>
</event>
<event>
 5    1  0.3236337E-002  0.1250014E+03  0.7818608E-02  0.1235067E+00
          4   -1    0    0  501    0  0.00000000000E+00  0.00000000000E+00  0.21741665584E+03  0.21742036504E+03  0.12700000000E+01 0. -1.
         -4   -1    0    0    0  501 -0.00000000000E+00 -0.00000000000E+00 -0.17940749810E+02  0.17985644380E+02  0.12700000000E+01 0. -1.
         25    2    1    2    0    0  0.00000000000E+00  0.00000000000E+00  0.19947590603E+03  0.23540600942E+03  0.12500140874E+03 0.  0.
    9000005    1    3    3    0    0  0.60754500194E+02  0.24613763675E+01  0.72566547470E+02  0.94678780512E+02  0.10000000000E+01 0.  0.
    9000005    1    3    3    0    0 -0.60754500194E+02 -0.24613763675E+01  0.12690935856E+03  0.14072722891E+03  0.10000000000E+01 0.  0.
<mgrwt>
<rscale>  0 0.12500141E+03</rscale>
<asrwt>0</asrwt>
<pdfrwt beam="1">  1        4 0.33452455E-01 0.12500141E+03</pdfrwt>
<pdfrwt beam="2">  1       -4 0.27638541E-02 0.12500141E+03</pdfrwt>
<totfact> 0.84483697E+03</totfact>
</mgrwt>
</event>
<event>
 5    1  0.3236337E-002  0.1250034E+03  0.7818608E-02  0.1235064E+00
          4   -1    0    0  501    0  0.00000000000E+00  0.00000000000E+00  0.82935106306E+02  0.82944829604E+02  0.12700000000E+01 0.  1.
         -4   -1    0    0    0  501 -0.00000000000E+00 -0.00000000000E+00 -0.47081610069E+02  0.47098735722E+02  0.12700000000E+01 0.  1.
         25    2    1    2    0    0  0.00000000000E+00  0.00000000000E+00  0.35853496238E+02  0.13004356533E+03  0.12500342271E+03 0.  0.
    9000005    1    3    3    0    0  0.54688729664E+02 -0.78718987597E+01 -0.12450596606E+02  0.56646635365E+02  0.10000000000E+01 0.  0.
    9000005    1    3    3    0    0 -0.54688729664E+02  0.78718987597E+01  0.48304092844E+02  0.73396929962E+02  0.10000000000E+01 0.  0.
<mgrwt>
<rscale>  0 0.12500342E+03</rscale>
<asrwt>0</asrwt>
<pdfrwt beam="1">  1        4 0.12761312E-01 0.12500342E+03</pdfrwt>
<pdfrwt beam="2">  1       -4 0.72453899E-02 0.12500342E+03</pdfrwt>
<totfact> 0.10342777E+04</totfact>
</mgrwt>
</event>
<event>
 5    1  0.3236337E-002  0.1249998E+03  0.7818608E-02  0.1235070E+00
          4   -1    0    0  501    0  0.00000000000E+00  0.00000000000E+00  0.41594374202E+02  0.41613758125E+02  0.12700000000E+01 0.  1.
         -4   -1    0    0    0  501 -0.00000000000E+00 -0.00000000000E+00 -0.93867030392E+02  0.93875621407E+02  0.12700000000E+01 0.  1.
         25    2    1    2    0    0  0.00000000000E+00  0.00000000000E+00 -0.52272656190E+02  0.13548937953E+03  0.12499976552E+03 0.  0.
    9000005    1    3    3    0    0 -0.66425147461E-01  0.61080649876E+02 -0.11822664789E+02  0.62222388289E+02  0.10000000000E+01 0.  0.
    9000005    1    3    3    0    0  0.66425147461E-01 -0.61080649876E+02 -0.40449991400E+02  0.73266991244E+02  0.10000000000E+01 0.  0.
<mgrwt>
<rscale>  0 0.12499977E+03</rscale>
<asrwt>0</asrwt>
<pdfrwt beam="1">  1        4 0.64012864E-02 0.12499977E+03</pdfrwt>
<pdfrwt beam="2">  1       -4 0.14443233E-01 0.12499977E+03</pdfrwt>
<totfact> 0.10227820E+04</totfact>
</mgrwt>
</event>
<event>
 5    1  0.3236337E-002  0.1249895E+03  0.7818608E-02  0.1235086E+00
          4   -1    0    0  501    0  0.00000000000E+00  0.00000000000E+00  0.74284884306E+01  0.75362683314E+01  0.12700000000E+01 0. -1.
         -4   -1    0    0    0  501 -0.00000000000E+00 -0.00000000000E+00 -0.52186329182E+03  0.52186483715E+03  0.12700000000E+01 0. -1.
         25    2    1    2    0    0  0.00000000000E+00  0.00000000000E+00 -0.51443480339E+03  0.52940110548E+03  0.12498945372E+03 0.  0.
    9000005    1    3    3    0    0 -0.42296293060E+02  0.18820334261E+02 -0.43498051211E+03  0.43743825542E+03  0.10000000000E+01 0.  0.
    9000005    1    3    3    0    0  0.42296293060E+02 -0.18820334261E+02 -0.79454291284E+02  0.91962850063E+02  0.10000000000E+01 0.  0.
<mgrwt>
<rscale>  0 0.12498945E+03</rscale>
<asrwt>0</asrwt>
<pdfrwt beam="1">  1        4 0.11512544E-02 0.12498945E+03</pdfrwt>
<pdfrwt beam="2">  1       -4 0.80295041E-01 0.12498945E+03</pdfrwt>
<totfact> 0.53665689E+03</totfact>
</mgrwt>
</event>
<event>
 5    1  0.3236337E-002  0.1249997E+03  0.7818608E-02  0.1235070E+00
         -4   -1    0    0    0  501 -0.00000000000E+00  0.00000000000E+00  0.36363614726E+02  0.36385785356E+02  0.12700000000E+01 0. -1.
          4   -1    0    0  501    0  0.00000000000E+00 -0.00000000000E+00 -0.10736271748E+03  0.10737022867E+03  0.12700000000E+01 0. -1.
         25    2    1    2    0    0  0.00000000000E+00  0.00000000000E+00 -0.70999102751E+02  0.14375601402E+03  0.12499967591E+03 0.  0.
    9000005    1    3    3    0    0 -0.44042737841E+02 -0.22380215980E+02 -0.79512007047E+02  0.93615148819E+02  0.10000000000E+01 0.  0.
    9000005    1    3    3    0    0  0.44042737841E+02  0.22380215980E+02  0.85129042964E+01  0.50140865204E+02  0.10000000000E+01 0.  0.
<mgrwt>
<rscale>  0 0.12499968E+03</rscale>
<asrwt>0</asrwt>
<pdfrwt beam="2">  1        4 0.16519624E-01 0.12499968E+03</pdfrwt>
<pdfrwt beam="1">  1       -4 0.55966855E-02 0.12499968E+03</pdfrwt>
<totfact> 0.10056398E+04</totfact>
</mgrwt>
</event>
<event>
 5    1  0.3236337E-002  0.1249982E+03  0.7818608E-02  0.1235072E+00
         -4   -1    0    0    0  501 -0.00000000000E+00  0.00000000000E+00  0.80499780562E+02  0.80509797978E+02  0.12700000000E+01 0.  1.
          4   -1    0    0  501    0  0.00000000000E+00 -0.00000000000E+00 -0.48502210251E+02  0.48518834480E+02  0.12700000000E+01 0.  1.
         25    2    1    2    0    0  0.00000000000E+00  0.00000000000E+00  0.31997570311E+02  0.12902863246E+03  0.12499817394E+03 0.  0.
    9000005    1    3    3    0    0 -0.21638913041E+02 -0.53639430900E+02 -0.84221296603E+01  0.58458219036E+02  0.10000000000E+01 0.  0.
    9000005    1    3    3    0    0  0.21638913041E+02  0.53639430900E+02  0.40419699971E+02  0.70570413422E+02  0.10000000000E+01 0.  0.
<mgrwt>
<rscale>  0 0.12499817E+03</rscale>
<asrwt>0</asrwt>
<pdfrwt beam="2">  1        4 0.74639279E-02 0.12499817E+03</pdfrwt>
<pdfrwt beam="1">  1       -4 0.12386631E-01 0.12499817E+03</pdfrwt>
<totfact> 0.10365759E+04</totfact>
</mgrwt>
</event>
<event>
 5    1  0.3236337E-002  0.1249999E+03  0.7818608E-02  0.1235069E+00
         -4   -1    0    0    0  501 -0.00000000000E+00  0.00000000000E+00  0.26665503311E+02  0.26695729375E+02  0.12700000000E+01 0.  1.
          4   -1    0    0  501    0  0.00000000000E+00 -0.00000000000E+00 -0.14637468566E+03  0.14638019504E+03  0.12700000000E+01 0.  1.
         25    2    1    2    0    0  0.00000000000E+00  0.00000000000E+00 -0.11970918234E+03  0.17307592442E+03  0.12499994910E+03 0.  0.
    9000005    1    3    3    0    0  0.35277410137E+02  0.48852749542E+02 -0.36928559851E+02  0.70681011145E+02  0.10000000000E+01 0.  0.
    9000005    1    3    3    0    0 -0.35277410137E+02 -0.48852749542E+02 -0.82780622493E+02  0.10239491327E+03  0.10000000000E+01 0.  0.
<mgrwt>
<rscale>  0 0.12499995E+03</rscale>
<asrwt>0</asrwt>
<pdfrwt beam="2">  1        4 0.22521931E-01 0.12499995E+03</pdfrwt>
<pdfrwt beam="1">  1       -4 0.41051341E-02 0.12499995E+03</pdfrwt>
<totfact> 0.94878525E+03</totfact>
</mgrwt>
</event>
<event>
 5    1  0.3236337E-002  0.1250017E+03  0.7818608E-02  0.1235067E+00
          4   -1    0    0  501    0  0.00000000000E+00  0.00000000000E+00  0.15503516677E+02  0.15555446935E+02  0.12700000000E+01 0.  1.
         -4   -1    0    0    0  501 -0.00000000000E+00 -0.00000000000E+00 -0.25149110119E+03  0.25149430785E+03  0.12700000000E+01 0.  1.
         25    2    1    2    0    0  0.00000000000E+00  0.00000000000E+00 -0.23598758452E+03  0.26704975478E+03  0.12500172592E+03 0.  0.
    9000005    1    3    3    0    0 -0.38916937653E+02  0.42758285535E+02 -0.67322712863E+02  0.88747657351E+02  0.10000000000E+01 0.  0.
    9000005    1    3    3    0    0  0.38916937653E+02 -0.42758285535E+02 -0.16866487165E+03  0.17830209743E+03  0.10000000000E+01 0.  0.
<mgrwt>
<rscale>  0 0.12500173E+03</rscale>
<asrwt>0</asrwt>
<pdfrwt beam="1">  1        4 0.23893979E-02 0.12500173E+03</pdfrwt>
<pdfrwt beam="2">  1       -4 0.38695177E-01 0.12500173E+03</pdfrwt>
<totfact> 0.79923728E+03</totfact>
</mgrwt>
</event>
<event>
 5    1  0.3236337E-002  0.1250054E+03  0.7818608E-02  0.1235061E+00
         -4   -1    0    0    0  501 -0.00000000000E+00  0.00000000000E+00  0.53400081100E+02  0.53415181002E+02  0.12700000000E+01 0.  1.
          4   -1    0    0  501    0  0.00000000000E+00 -0.00000000000E+00 -0.73126013555E+02  0.73137040947E+02  0.12700000000E+01 0.  1.
         25    2    1    2    0    0  0.00000000000E+00  0.00000000000E+00 -0.19725932456E+02  0.12655222195E+03  0.12500540976E+03 0.  0.
    9000005    1    3    3    0    0 -0.16521237640E+02 -0.66514716770E+01 -0.70507417796E+02  0.72728875509E+02  0.10000000000E+01 0.  0.
    9000005    1    3    3    0    0  0.16521237640E+02  0.66514716770E+01  0.50781485340E+02  0.53823346439E+02  0.10000000000E+01 0.  0.
<mgrwt>
<rscale>  0 0.12500541E+03</rscale>
<asrwt>0</asrwt>
<pdfrwt beam="2">  1        4 0.11252166E-01 0.12500541E+03</pdfrwt>
<pdfrwt beam="1">  1       -4 0.82174069E-02 0.12500541E+03</pdfrwt>
<totfact> 0.10417617E+04</totfact>
</mgrwt>
</event>
<event>
 5    1  0.3236337E-002  0.1250027E+03  0.7818608E-02  0.1235065E+00
         -4   -1    0    0    0  501 -0.00000000000E+00  0.00000000000E+00  0.26150146593E+01  0.29070950566E+01  0.12700000000E+01 0. -1.
          4   -1    0    0  501    0  0.00000000000E+00 -0.00000000000E+00 -0.14145348665E+04  0.14145354366E+04  0.12700000000E+01 0. -1.
         25    2    1    2    0    0  0.00000000000E+00  0.00000000000E+00 -0.14119198519E+04  0.14174425317E+04  0.12500265027E+03 0.  0.
    9000005    1    3    3    0    0  0.55542463863E+02  0.26466088934E+02 -0.83017391445E+03  0.83245128830E+03  0.10000000000E+01 0.  0.
    9000005    1    3    3    0    0 -0.55542463863E+02 -0.26466088934E+02 -0.58174593741E+03  0.58499124339E+03  0.10000000000E+01 0.  0.
<mgrwt>
<rscale>  0 0.12500265E+03</rscale>
<asrwt>0</asrwt>
<pdfrwt beam="2">  1        4 0.21764268E+00 0.12500265E+03</pdfrwt>
<pdfrwt beam="1">  1       -4 0.42482266E-03 0.12500265E+03</pdfrwt>
<totfact> 0.19608628E+03</totfact>
</mgrwt>
</event>
<event>
 5    1  0.3236337E-002  0.1249983E+03  0.7818608E-02  0.1235072E+00
          4   -1    0    0  501    0  0.00000000000E+00  0.00000000000E+00  0.22962169588E+03  0.22962520793E+03  0.12700000000E+01 0.  1.
         -4   -1    0    0    0  501 -0.00000000000E+00 -0.00000000000E+00 -0.16983872296E+02  0.17031289386E+02  0.12700000000E+01 0.  1.
         25    2    1    2    0    0  0.00000000000E+00  0.00000000000E+00  0.21263782358E+03  0.24665649732E+03  0.12499833460E+03 0.  0.
    9000005    1    3    3    0    0 -0.23308649479E+02  0.54108280532E+02  0.14743450972E+03  0.15877321506E+03  0.10000000000E+01 0.  0.
    9000005    1    3    3    0    0  0.23308649479E+02 -0.54108280532E+02  0.65203313864E+02  0.87883282265E+02  0.10000000000E+01 0.  0.
<mgrwt>
<rscale>  0 0.12499833E+03</rscale>
<asrwt>0</asrwt>
<pdfrwt beam="1">  1        4 0.35330330E-01 0.12499833E+03</pdfrwt>
<pdfrwt beam="2">  1       -4 0.26168212E-02 0.12499833E+03</pdfrwt>
<totfact> 0.82818956E+03</totfact>
</mgrwt>
</event>
<event>
 5    1  0.3236337E-002  0.1249646E+03  0.7818608E-02  0.1235125E+00
         -4   -1    0    0    0  501 -0.00000000000E+00  0.00000000000E+00  0.74323840523E+01  0.75401082686E+01  0.12700000000E+01 0. -1.
          4   -1    0    0  501    0  0.00000000000E+00 -0.00000000000E+00 -0.52138626911E+03  0.52138781585E+03  0.12700000000E+01 0. -1.
         25    2    1    2    0    0  0.00000000000E+00  0.00000000000E+00 -0.51395388506E+03  0.52892792412E+03  0.12496460677E+03 0.  0.
    9000005    1    3    3    0    0 -0.92660746171E+01  0.45571926832E+02 -0.43355275330E+03  0.43604088174E+03  0.10000000000E+01 0.  0.
    9000005    1    3    3    0    0  0.92660746171E+01 -0.45571926832E+02 -0.80401131758E+02  0.92887042379E+02  0.10000000000E+01 0.  0.
<mgrwt>
<rscale>  0 0.12496461E+03</rscale>
<asrwt>0</asrwt>
<pdfrwt beam="2">  1        4 0.80221649E-01 0.12496461E+03</pdfrwt>
<pdfrwt beam="1">  1       -4 0.11518496E-02 0.12496461E+03</pdfrwt>
<totfact> 0.53729531E+03</totfact>
</mgrwt>
</event>
<event>
 5    1  0.3236337E-002  0.1249995E+03  0.7818608E-02  0.1235070E+00
         -4   -1    0    0    0  501 -0.00000000000E+00  0.00000000000E+00  0.41186924647E+01  0.43100496074E+01  0.12700000000E+01 0. -1.
          4   -1    0    0  501    0  0.00000000000E+00 -0.00000000000E+00 -0.92668815119E+03  0.92668902144E+03  0.12700000000E+01 0. -1.
         25    2    1    2    0    0  0.00000000000E+00  0.00000000000E+00 -0.92256945872E+03  0.93099907104E+03  0.12499945647E+03 0.  0.
    9000005    1    3    3    0    0  0.17027474224E+02  0.59471436663E+02 -0.52724470580E+03  0.53086228577E+03  0.10000000000E+01 0.  0.
    9000005    1    3    3    0    0 -0.17027474224E+02 -0.59471436663E+02 -0.39532475292E+03  0.40013678527E+03  0.10000000000E+01 0.  0.
<mgrwt>
<rscale>  0 0.12499946E+03</rscale>
<asrwt>0</asrwt>
<pdfrwt beam="2">  1        4 0.14258203E+00 0.12499946E+03</pdfrwt>
<pdfrwt beam="1">  1       -4 0.64843245E-03 0.12499946E+03</pdfrwt>
<totfact> 0.33000759E+03</totfact>
</mgrwt>
</event>
<event>
 5    1  0.3236337E-002  0.1249996E+03  0.7818608E-02  0.1235070E+00
         -4   -1    0    0    0  501 -0.00000000000E+00  0.00000000000E+00  0.37084529492E+02  0.37106269385E+02  0.12700000000E+01 0. -1.
          4   -1    0    0  501    0  0.00000000000E+00 -0.00000000000E+00 -0.10527659584E+03  0.10528425586E+03  0.12700000000E+01 0. -1.
         25    2    1    2    0    0  0.00000000000E+00  0.00000000000E+00 -0.68192066347E+02  0.14239052524E+03  0.12499961506E+03 0.  0.
    9000005    1    3    3    0    0 -0.23995203254E+02  0.16164646280E+02 -0.97193430362E+02  0.10141315730E+03  0.10000000000E+01 0.  0.
    9000005    1    3    3    0    0  0.23995203254E+02 -0.16164646280E+02  0.29001364015E+02  0.40977367940E+02  0.10000000000E+01 0.  0.
<mgrwt>
<rscale>  0 0.12499962E+03</rscale>
<asrwt>0</asrwt>
<pdfrwt beam="2">  1        4 0.16198661E-01 0.12499962E+03</pdfrwt>
<pdfrwt beam="1">  1       -4 0.57075738E-02 0.12499962E+03</pdfrwt>
<totfact> 0.10084366E+04</totfact>
</mgrwt>
</event>
<event>
 5    1  0.3236337E-002  0.1249721E+03  0.7818608E-02  0.1235113E+00
          4   -1    0    0  501    0  0.00000000000E+00  0.00000000000E+00  0.87426227882E+01  0.88343847107E+01  0.12700000000E+01 0.  1.
         -4   -1    0    0    0  501 -0.00000000000E+00 -0.00000000000E+00 -0.44418156096E+03  0.44418337654E+03  0.12700000000E+01 0.  1.
         25    2    1    2    0    0  0.00000000000E+00  0.00000000000E+00 -0.43543893817E+03  0.45301776126E+03  0.12497208942E+03 0.  0.
    9000005    1    3    3    0    0  0.14262831620E+02 -0.49857664787E+02 -0.34403697131E+03  0.34792478028E+03  0.10000000000E+01 0.  0.
    9000005    1    3    3    0    0 -0.14262831620E+02  0.49857664787E+02 -0.91401966861E+02  0.10509298097E+03  0.10000000000E+01 0.  0.
<mgrwt>
<rscale>  0 0.12497209E+03</rscale>
<asrwt>0</asrwt>
<pdfrwt beam="1">  1        4 0.13522175E-02 0.12497209E+03</pdfrwt>
<pdfrwt beam="2">  1       -4 0.68342805E-01 0.12497209E+03</pdfrwt>
<totfact> 0.59739978E+03</totfact>
</mgrwt>
</event>
<event>
 5    1  0.3236337E-002  0.1250011E+03  0.7818608E-02  0.1235068E+00
         -4   -1    0    0    0  501 -0.00000000000E+00  0.00000000000E+00  0.41870711035E+02  0.41889967087E+02  0.12700000000E+01 0.  1.
          4   -1    0    0  501    0  0.00000000000E+00 -0.00000000000E+00 -0.93249697785E+02  0.93258345669E+02  0.12700000000E+01 0.  1.
         25    2    1    2    0    0  0.00000000000E+00  0.00000000000E+00 -0.51378986750E+02  0.13514831276E+03  0.12500106464E+03 0.  0.
    9000005    1    3    3    0    0 -0.59496799648E+02  0.92702940266E+01 -0.43765181126E+02  0.74445944139E+02  0.10000000000E+01 0.  0.
    9000005    1    3    3    0    0  0.59496799648E+02 -0.92702940266E+01 -0.76138056236E+01  0.60702368617E+02  0.10000000000E+01 0.  0.
<mgrwt>
<rscale>  0 0.12500106E+03</rscale>
<asrwt>0</asrwt>
<pdfrwt beam="2">  1        4 0.14348254E-01 0.12500106E+03</pdfrwt>
<pdfrwt beam="1">  1       -4 0.64437943E-02 0.12500106E+03</pdfrwt>
<totfact> 0.10234700E+04</totfact>
</mgrwt>
</event>
<event>
 5    1  0.3236337E-002  0.1250020E+03  0.7818608E-02  0.1235066E+00
         -4   -1    0    0    0  501 -0.00000000000E+00  0.00000000000E+00  0.19639644589E+04  0.19639648695E+04  0.12700000000E+01 0.  1.
          4   -1    0    0  501    0  0.00000000000E+00 -0.00000000000E+00 -0.17858479129E+01  0.21913814748E+01  0.12700000000E+01 0.  1.
         25    2    1    2    0    0  0.00000000000E+00  0.00000000000E+00  0.19621786110E+04  0.19661562510E+04  0.12500200768E+03 0.  0.
    9000005    1    3    3    0    0  0.80257529053E+01  0.51728037932E+02  0.44418582326E+03  0.44726082793E+03  0.10000000000E+01 0.  0.
    9000005    1    3    3    0    0 -0.80257529053E+01 -0.51728037932E+02  0.15179927877E+04  0.15188954230E+04  0.10000000000E+01 0.  0.
<mgrwt>
<rscale>  0 0.12500201E+03</rscale>
<asrwt>0</asrwt>
<pdfrwt beam="2">  1        4 0.30597400E-03 0.12500201E+03</pdfrwt>
<pdfrwt beam="1">  1       -4 0.30217793E+00 0.12500201E+03</pdfrwt>
<totfact> 0.10309248E+03</totfact>
</mgrwt>
</event>
<event>
 5    1  0.3236337E-002  0.1250048E+03  0.7818608E-02  0.1235062E+00
         -4   -1    0    0    0  501 -0.00000000000E+00  0.00000000000E+00  0.30594634323E+02  0.30620982175E+02  0.12700000000E+01 0.  1.
          4   -1    0    0  501    0  0.00000000000E+00 -0.00000000000E+00 -0.12760298050E+03  0.12760930034E+03  0.12700000000E+01 0.  1.
         25    2    1    2    0    0  0.00000000000E+00  0.00000000000E+00 -0.97008346180E+02  0.15823028252E+03  0.12500481221E+03 0.  0.
    9000005    1    3    3    0    0 -0.69943903566E+01 -0.43517726507E+02 -0.10458378016E+03  0.11349661268E+03  0.10000000000E+01 0.  0.
    9000005    1    3    3    0    0  0.69943903566E+01  0.43517726507E+02  0.75754339833E+01  0.44733669834E+02  0.10000000000E+01 0.  0.
<mgrwt>
<rscale>  0 0.12500481E+03</rscale>
<asrwt>0</asrwt>
<pdfrwt beam="2">  1        4 0.19633740E-01 0.12500481E+03</pdfrwt>
<pdfrwt beam="1">  1       -4 0.47093798E-02 0.12500481E+03</pdfrwt>
<totfact> 0.97674494E+03</totfact>
</mgrwt>
</event>
<event>
 5    1  0.3236337E-002  0.1249989E+03  0.7818608E-02  0.1235071E+00
          4   -1    0    0  501    0  0.00000000000E+00  0.00000000000E+00  0.36488503594E+03  0.36488724609E+03  0.12700000000E+01 0.  1.
         -4   -1    0    0    0  501 -0.00000000000E+00 -0.00000000000E+00 -0.10665315533E+02  0.10740663639E+02  0.12700000000E+01 0.  1.
         25    2    1    2    0    0  0.00000000000E+00  0.00000000000E+00  0.35421972041E+03  0.37562790973E+03  0.12499886494E+03 0.  0.
    9000005    1    3    3    0    0  0.34655086626E+02 -0.14016098098E+02  0.26624530008E+02  0.45905246248E+02  0.10000000000E+01 0.  0.
    9000005    1    3    3    0    0 -0.34655086626E+02  0.14016098098E+02  0.32759519040E+03  0.32972266348E+03  0.10000000000E+01 0.  0.
<mgrwt>
<rscale>  0 0.12499886E+03</rscale>
<asrwt>0</asrwt>
<pdfrwt beam="1">  1        4 0.56142131E-01 0.12499886E+03</pdfrwt>
<pdfrwt beam="2">  1       -4 0.16467836E-02 0.12499886E+03</pdfrwt>
<totfact> 0.66995909E+03</totfact>
</mgrwt>
</event>
<event>
 5    1  0.3236337E-002  0.1249995E+03  0.7818608E-02  0.1235070E+00
         -4   -1    0    0    0  501 -0.00000000000E+00  0.00000000000E+00  0.29315660304E+02  0.29343156597E+02  0.12700000000E+01 0.  1.
          4   -1    0    0  501    0  0.00000000000E+00 -0.00000000000E+00 -0.13315381554E+03  0.13315987193E+03  0.12700000000E+01 0.  1.
         25    2    1    2    0    0  0.00000000000E+00  0.00000000000E+00 -0.10383815524E+03  0.16250302853E+03  0.12499948719E+03 0.  0.
    9000005    1    3    3    0    0  0.60479371442E+02 -0.15688601606E+02 -0.53419110729E+02  0.82210023607E+02  0.10000000000E+01 0.  0.
    9000005    1    3    3    0    0 -0.60479371442E+02  0.15688601606E+02 -0.50419044507E+02  0.80293004922E+02  0.10000000000E+01 0.  0.
<mgrwt>
<rscale>  0 0.12499949E+03</rscale>
<asrwt>0</asrwt>
<pdfrwt beam="2">  1        4 0.20487783E-01 0.12499949E+03</pdfrwt>
<pdfrwt beam="1">  1       -4 0.45126826E-02 0.12499949E+03</pdfrwt>
<totfact> 0.96863496E+03</totfact>
</mgrwt>
</event>
<event>
 5    1  0.3236337E-002  0.1249954E+03  0.7818608E-02  0.1235076E+00
         -4   -1    0    0    0  501 -0.00000000000E+00  0.00000000000E+00  0.37672808083E+02  0.37694208692E+02  0.12700000000E+01 0.  1.
          4   -1    0    0  501    0  0.00000000000E+00 -0.00000000000E+00 -0.10362655693E+03  0.10363433891E+03  0.12700000000E+01 0.  1.
         25    2    1    2    0    0  0.00000000000E+00  0.00000000000E+00 -0.65953748849E+02  0.14132854760E+03  0.12499544544E+03 0.  0.
    9000005    1    3    3    0    0 -0.49007392628E+01  0.24449746388E+02 -0.97762938928E+02  0.10089796614E+03  0.10000000000E+01 0.  0.
    9000005    1    3    3    0    0  0.49007392628E+01 -0.24449746388E+02  0.31809190079E+02  0.40430581461E+02  0.10000000000E+01 0.  0.
<mgrwt>
<rscale>  0 0.12499545E+03</rscale>
<asrwt>0</asrwt>
<pdfrwt beam="2">  1        4 0.15944792E-01 0.12499545E+03</pdfrwt>
<pdfrwt beam="1">  1       -4 0.57980615E-02 0.12499545E+03</pdfrwt>
<totfact> 0.10107162E+04</totfact>
</mgrwt>
</event>
<event>
 5    1  0.3236337E-002  0.1249929E+03  0.7818608E-02  0.1235080E+00
          4   -1    0    0  501    0  0.00000000000E+00  0.00000000000E+00  0.62233959289E+02  0.62246916299E+02  0.12700000000E+01 0. -1.
         -4   -1    0    0    0  501 -0.00000000000E+00 -0.00000000000E+00 -0.62734132371E+02  0.62746986098E+02  0.12700000000E+01 0. -1.
         25    2    1    2    0    0  0.00000000000E+00  0.00000000000E+00 -0.50017308224E+00  0.12499390240E+03  0.12499290165E+03 0.  0.
    9000005    1    3    3    0    0 -0.39227353417E+02  0.48439821445E+02 -0.46778537033E+01  0.62514669262E+02  0.10000000000E+01 0.  0.
    9000005    1    3    3    0    0  0.39227353417E+02 -0.48439821445E+02  0.41776806211E+01  0.62479233135E+02  0.10000000000E+01 0.  0.
<mgrwt>
<rscale>  0 0.12499290E+03</rscale>
<asrwt>0</asrwt>
<pdfrwt beam="1">  1        4 0.95764407E-02 0.12499290E+03</pdfrwt>
<pdfrwt beam="2">  1       -4 0.96533904E-02 0.12499290E+03</pdfrwt>
<totfact> 0.10454672E+04</totfact>
</mgrwt>
</event>
<event>
 5    1  0.3236337E-002  0.1249755E+03  0.7818608E-02  0.1235108E+00
          4   -1    0    0  501    0  0.00000000000E+00  0.00000000000E+00  0.10179150722E+02  0.10258070453E+02  0.12700000000E+01 0. -1.
         -4   -1    0    0    0  501 -0.00000000000E+00 -0.00000000000E+00 -0.38203814369E+03  0.38204025460E+03  0.12700000000E+01 0. -1.
         25    2    1    2    0    0  0.00000000000E+00  0.00000000000E+00 -0.37185899296E+03  0.39229832505E+03  0.12497545834E+03 0.  0.
    9000005    1    3    3    0    0  0.90699948591E+01 -0.15851218707E+01  0.80532346229E+01  0.12273223129E+02  0.10000000000E+01 0.  0.
    9000005    1    3    3    0    0 -0.90699948591E+01  0.15851218707E+01 -0.37991222759E+03  0.38002510192E+03  0.10000000000E+01 0.  0.
<mgrwt>
<rscale>  0 0.12497546E+03</rscale>
<asrwt>0</asrwt>
<pdfrwt beam="1">  1        4 0.15722566E-02 0.12497546E+03</pdfrwt>
<pdfrwt beam="2">  1       -4 0.58781321E-01 0.12497546E+03</pdfrwt>
<totfact> 0.65344216E+03</totfact>
</mgrwt>
</event>
<event>
 5    1  0.3236337E-002  0.1250042E+03  0.7818608E-02  0.1235063E+00
         -4   -1    0    0    0  501 -0.00000000000E+00  0.00000000000E+00  0.47685956140E+01  0.49348155112E+01  0.12700000000E+01 0.  1.
          4   -1    0    0  501    0  0.00000000000E+00 -0.00000000000E+00 -0.80501601616E+03  0.80501701794E+03  0.12700000000E+01 0.  1.
         25    2    1    2    0    0  0.00000000000E+00  0.00000000000E+00 -0.80024742054E+03  0.80995183345E+03  0.12500415362E+03 0.  0.
    9000005    1    3    3    0    0  0.27834907293E+02  0.36723246564E+02 -0.12659398760E+03  0.13472348199E+03  0.10000000000E+01 0.  0.
    9000005    1    3    3    0    0 -0.27834907293E+02 -0.36723246564E+02 -0.67365343294E+03  0.67522835146E+03  0.10000000000E+01 0.  0.
<mgrwt>
<rscale>  0 0.12500415E+03</rscale>
<asrwt>0</asrwt>
<pdfrwt beam="2">  1        4 0.12386138E+00 0.12500415E+03</pdfrwt>
<pdfrwt beam="1">  1       -4 0.74649394E-03 0.12500415E+03</pdfrwt>
<totfact> 0.37820891E+03</totfact>
</mgrwt>
</event>
<event>
 5    1  0.3236337E-002  0.1250004E+03  0.7818608E-02  0.1235069E+00
         -4   -1    0    0    0  501 -0.00000000000E+00  0.00000000000E+00  0.20060052803E+03  0.20060454817E+03  0.12700000000E+01 0.  1.
          4   -1    0    0  501    0  0.00000000000E+00 -0.00000000000E+00 -0.19447965814E+02  0.19489388762E+02  0.12700000000E+01 0.  1.
         25    2    1    2    0    0  0.00000000000E+00  0.00000000000E+00  0.18115256222E+03  0.22009393693E+03  0.12500036110E+03 0.  0.
    9000005    1    3    3    0    0 -0.47620875197E+02 -0.45281333780E+01  0.19772798878E+02  0.51770796033E+02  0.10000000000E+01 0.  0.
    9000005    1    3    3    0    0  0.47620875197E+02  0.45281333780E+01  0.16137976334E+03  0.16832314090E+03  0.10000000000E+01 0.  0.
<mgrwt>
<rscale>  0 0.12500036E+03</rscale>
<asrwt>0</asrwt>
<pdfrwt beam="2">  1        4 0.29954903E-02 0.12500036E+03</pdfrwt>
<pdfrwt beam="1">  1       -4 0.30865116E-01 0.12500036E+03</pdfrwt>
<totfact> 0.86852786E+03</totfact>
</mgrwt>
</event>
<event>
 5    1  0.3236337E-002  0.1249997E+03  0.7818608E-02  0.1235070E+00
         -4   -1    0    0    0  501 -0.00000000000E+00  0.00000000000E+00  0.15225708298E+03  0.15226237952E+03  0.12700000000E+01 0.  1.
          4   -1    0    0  501    0  0.00000000000E+00 -0.00000000000E+00 -0.25634030098E+02  0.25665470949E+02  0.12700000000E+01 0.  1.
         25    2    1    2    0    0  0.00000000000E+00  0.00000000000E+00  0.12662305288E+03  0.17792785047E+03  0.12499968981E+03 0.  0.
    9000005    1    3    3    0    0 -0.74770097296E+01 -0.46145015062E+02  0.42785761012E+01  0.46952894512E+02  0.10000000000E+01 0.  0.
    9000005    1    3    3    0    0  0.74770097296E+01  0.46145015062E+02  0.12234447678E+03  0.13097495596E+03  0.10000000000E+01 0.  0.
<mgrwt>
<rscale>  0 0.12499969E+03</rscale>
<asrwt>0</asrwt>
<pdfrwt beam="2">  1        4 0.39465228E-02 0.12499969E+03</pdfrwt>
<pdfrwt beam="1">  1       -4 0.23426993E-01 0.12499969E+03</pdfrwt>
<totfact> 0.93991985E+03</totfact>
</mgrwt>
</event>
<event>
 5    1  0.3236337E-002  0.1249984E+03  0.7818608E-02  0.1235072E+00
          4   -1    0    0  501    0  0.00000000000E+00  0.00000000000E+00  0.13558264218E+03  0.13558859008E+03  0.12700000000E+01 0.  1.
         -4   -1    0    0    0  501 -0.00000000000E+00 -0.00000000000E+00 -0.28789536234E+02  0.28817534533E+02  0.12700000000E+01 0.  1.
         25    2    1    2    0    0  0.00000000000E+00  0.00000000000E+00  0.10679310595E+03  0.16440612462E+03  0.12499842533E+03 0.  0.
    9000005    1    3    3    0    0  0.41365663896E+02  0.40745745185E+02  0.23008006452E+02  0.62463607493E+02  0.10000000000E+01 0.  0.
    9000005    1    3    3    0    0 -0.41365663896E+02 -0.40745745185E+02  0.83785099495E+02  0.10194251712E+03  0.10000000000E+01 0.  0.
<mgrwt>
<rscale>  0 0.12499843E+03</rscale>
<asrwt>0</asrwt>
<pdfrwt beam="1">  1        4 0.20861479E-01 0.12499843E+03</pdfrwt>
<pdfrwt beam="2">  1       -4 0.44317707E-02 0.12499843E+03</pdfrwt>
<totfact> 0.96503395E+03</totfact>
</mgrwt>
</event>
<event>
 5    1  0.3236337E-002  0.1249962E+03  0.7818608E-02  0.1235075E+00
         -4   -1    0    0    0  501 -0.00000000000E+00  0.00000000000E+00  0.28698209194E+03  0.28698490204E+03  0.12700000000E+01 0.  1.
          4   -1    0    0  501    0  0.00000000000E+00 -0.00000000000E+00 -0.13578136413E+02  0.13637400355E+02  0.12700000000E+01 0.  1.
         25    2    1    2    0    0  0.00000000000E+00  0.00000000000E+00  0.27340395553E+03  0.30062230239E+03  0.12499618312E+03 0.  0.
    9000005    1    3    3    0    0  0.55736451142E+02  0.70296113664E+01  0.20252504528E+03  0.21017459738E+03  0.10000000000E+01 0.  0.
    9000005    1    3    3    0    0 -0.55736451142E+02 -0.70296113664E+01  0.70878910256E+02  0.90447705007E+02  0.10000000000E+01 0.  0.
<mgrwt>
<rscale>  0 0.12499618E+03</rscale>
<asrwt>0</asrwt>
<pdfrwt beam="2">  1        4 0.20937192E-02 0.12499618E+03</pdfrwt>
<pdfrwt beam="1">  1       -4 0.44155862E-01 0.12499618E+03</pdfrwt>
<totfact> 0.75527245E+03</totfact>
</mgrwt>
</event>
<event>
 5    1  0.3236337E-002  0.1250015E+03  0.7818608E-02  0.1235067E+00
          4   -1    0    0  501    0  0.00000000000E+00  0.00000000000E+00  0.79219161792E+02  0.79229341125E+02  0.12700000000E+01 0. -1.
         -4   -1    0    0    0  501 -0.00000000000E+00 -0.00000000000E+00 -0.49289036996E+02  0.49305395931E+02  0.12700000000E+01 0. -1.
         25    2    1    2    0    0  0.00000000000E+00  0.00000000000E+00  0.29930124797E+02  0.12853473706E+03  0.12500146503E+03 0.  0.
    9000005    1    3    3    0    0  0.43787960696E+02 -0.33389903449E+02  0.45348019841E+02  0.71342231937E+02  0.10000000000E+01 0.  0.
    9000005    1    3    3    0    0 -0.43787960696E+02  0.33389903449E+02 -0.15417895044E+02  0.57192505120E+02  0.10000000000E+01 0.  0.
<mgrwt>
<rscale>  0 0.12500147E+03</rscale>
<asrwt>0</asrwt>
<pdfrwt beam="1">  1        4 0.12189605E-01 0.12500147E+03</pdfrwt>
<pdfrwt beam="2">  1       -4 0.75849702E-02 0.12500147E+03</pdfrwt>
<totfact> 0.10375612E+04</totfact>
</mgrwt>
</event>
<event>
 5    1  0.3236337E-002  0.1250000E+03  0.7818608E-02  0.1235069E+00
         -4   -1    0    0    0  501 -0.00000000000E+00  0.00000000000E+00  0.64999153967E+02  0.65011559868E+02  0.12700000000E+01 0. -1.
          4   -1    0    0  501    0  0.00000000000E+00 -0.00000000000E+00 -0.60072122257E+02  0.60085545453E+02  0.12700000000E+01 0. -1.
         25    2    1    2    0    0  0.00000000000E+00  0.00000000000E+00  0.49270317103E+01  0.12509710532E+03  0.12500004047E+03 0.  0.
    9000005    1    3    3    0    0  0.60515101669E+02 -0.24002561114E+01  0.17883717726E+02  0.63155887446E+02  0.10000000000E+01 0.  0.
    9000005    1    3    3    0    0 -0.60515101669E+02  0.24002561114E+01 -0.12956686016E+02  0.61941217875E+02  0.10000000000E+01 0.  0.
<mgrwt>
<rscale>  0 0.12500004E+03</rscale>
<asrwt>0</asrwt>
<pdfrwt beam="2">  1        4 0.92438518E-02 0.12500004E+03</pdfrwt>
<pdfrwt beam="1">  1       -4 0.10001857E-01 0.12500004E+03</pdfrwt>
<totfact> 0.10450744E+04</totfact>
</mgrwt>
</event>
<event>
 5    1  0.3236337E-002  0.1250023E+03  0.7818608E-02  0.1235066E+00
         -4   -1    0    0    0  501 -0.00000000000E+00  0.00000000000E+00  0.12206488551E+03  0.12207149206E+03  0.12700000000E+01 0. -1.
          4   -1    0    0  501    0  0.00000000000E+00 -0.00000000000E+00 -0.31982499234E+02  0.32007704654E+02  0.12700000000E+01 0. -1.
         25    2    1    2    0    0  0.00000000000E+00  0.00000000000E+00  0.90082386273E+02  0.15407919671E+03  0.12500225015E+03 0.  0.
    9000005    1    3    3    0    0 -0.49281607326E+02 -0.37950256223E+02  0.52487213536E+02  0.81392913407E+02  0.10000000000E+01 0.  0.
    9000005    1    3    3    0    0  0.49281607326E+02  0.37950256223E+02  0.37595172737E+02  0.72686283308E+02  0.10000000000E+01 0.  0.
<mgrwt>
<rscale>  0 0.12500225E+03</rscale>
<asrwt>0</asrwt>
<pdfrwt beam="2">  1        4 0.49228316E-02 0.12500225E+03</pdfrwt>
<pdfrwt beam="1">  1       -4 0.18781660E-01 0.12500225E+03</pdfrwt>
<totfact> 0.98491583E+03</totfact>
</mgrwt>
</event>
<event>
 5    1  0.3236337E-002  0.1250041E+03  0.7818608E-02  0.1235063E+00
         -4   -1    0    0    0  501 -0.00000000000E+00  0.00000000000E+00  0.36945310689E+03  0.36945528970E+03  0.12700000000E+01 0. -1.
          4   -1    0    0  501    0  0.00000000000E+00 -0.00000000000E+00 -0.10533398541E+02  0.10609683540E+02  0.12700000000E+01 0. -1.
         25    2    1    2    0    0  0.00000000000E+00  0.00000000000E+00  0.35891970835E+03  0.38006497324E+03  0.12500410732E+03 0.  0.
    9000005    1    3    3    0    0 -0.55922685855E+02 -0.10383126905E+02  0.10073994885E+03  0.11569223575E+03  0.10000000000E+01 0.  0.
    9000005    1    3    3    0    0  0.55922685855E+02  0.10383126905E+02  0.25817975949E+03  0.26437273749E+03  0.10000000000E+01 0.  0.
<mgrwt>
<rscale>  0 0.12500411E+03</rscale>
<asrwt>0</asrwt>
<pdfrwt beam="2">  1        4 0.16265591E-02 0.12500411E+03</pdfrwt>
<pdfrwt beam="1">  1       -4 0.56844968E-01 0.12500411E+03</pdfrwt>
<totfact> 0.66532899E+03</totfact>
</mgrwt>
</event>
<event>
 5    1  0.3236337E-002  0.1250004E+03  0.7818608E-02  0.1235069E+00
          4   -1    0    0  501    0  0.00000000000E+00  0.00000000000E+00  0.34599126855E+02  0.34622427401E+02  0.12700000000E+01 0.  1.
         -4   -1    0    0    0  501 -0.00000000000E+00 -0.00000000000E+00 -0.11283613753E+03  0.11284328439E+03  0.12700000000E+01 0.  1.
         25    2    1    2    0    0  0.00000000000E+00  0.00000000000E+00 -0.78237010671E+02  0.14746571179E+03  0.12500042526E+03 0.  0.
    9000005    1    3    3    0    0 -0.14337542841E+02  0.21446627386E+02 -0.10626688737E+03  0.10935800983E+03  0.10000000000E+01 0.  0.
    9000005    1    3    3    0    0  0.14337542841E+02 -0.21446627386E+02  0.28029876704E+02  0.38107701964E+02  0.10000000000E+01 0.  0.
<mgrwt>
<rscale>  0 0.12500043E+03</rscale>
<asrwt>0</asrwt>
<pdfrwt beam="1">  1        4 0.53252848E-02 0.12500043E+03</pdfrwt>
<pdfrwt beam="2">  1       -4 0.17361748E-01 0.12500043E+03</pdfrwt>
<totfact> 0.99810335E+03</totfact>
</mgrwt>
</event>
<event>
 5    1  0.3236337E-002  0.1249997E+03  0.7818608E-02  0.1235070E+00
          4   -1    0    0  501    0  0.00000000000E+00  0.00000000000E+00  0.31663086984E+03  0.31663341680E+03  0.12700000000E+01 0.  1.
         -4   -1    0    0    0  501 -0.00000000000E+00 -0.00000000000E+00 -0.12301580908E+02  0.12366963768E+02  0.12700000000E+01 0.  1.
         25    2    1    2    0    0  0.00000000000E+00  0.00000000000E+00  0.30432928893E+03  0.32900038057E+03  0.12499973725E+03 0.  0.
    9000005    1    3    3    0    0  0.29508056896E+02  0.31898796329E+00  0.29715001181E+03  0.29861339001E+03  0.10000000000E+01 0.  0.
    9000005    1    3    3    0    0 -0.29508056896E+02 -0.31898796329E+00  0.71792771181E+01  0.30386990555E+02  0.10000000000E+01 0.  0.
<mgrwt>
<rscale>  0 0.12499974E+03</rscale>
<asrwt>0</asrwt>
<pdfrwt beam="1">  1        4 0.48717655E-01 0.12499974E+03</pdfrwt>
<pdfrwt beam="2">  1       -4 0.18977767E-02 0.12499974E+03</pdfrwt>
<totfact> 0.72098710E+03</totfact>
</mgrwt>
</event>
<event>
 5    1  0.3236337E-002  0.1250118E+03  0.7818608E-02  0.1235051E+00
          4   -1    0    0  501    0  0.00000000000E+00  0.00000000000E+00  0.30584362361E+02  0.30610719055E+02  0.12700000000E+01 0.  1.
         -4   -1    0    0    0  501 -0.00000000000E+00 -0.00000000000E+00 -0.12766015735E+03  0.12766647436E+03  0.12700000000E+01 0.  1.
         25    2    1    2    0    0  0.00000000000E+00  0.00000000000E+00 -0.97075794994E+02  0.15827719342E+03  0.12501183937E+03 0.  0.
    9000005    1    3    3    0    0  0.17069980297E+02  0.55303545329E+02 -0.78395358565E+02  0.97451006141E+02  0.10000000000E+01 0.  0.
    9000005    1    3    3    0    0 -0.17069980297E+02 -0.55303545329E+02 -0.18680436429E+02  0.60826187276E+02  0.10000000000E+01 0.  0.
<mgrwt>
<rscale>  0 0.12501184E+03</rscale>
<asrwt>0</asrwt>
<pdfrwt beam="1">  1        4 0.47078000E-02 0.12501184E+03</pdfrwt>
<pdfrwt beam="2">  1       -4 0.19642537E-01 0.12501184E+03</pdfrwt>
<totfact> 0.97649967E+03</totfact>
</mgrwt>
</event>
<event>
 5    1  0.3236337E-002  0.1249959E+03  0.7818608E-02  0.1235076E+00
         -4   -1    0    0    0  501 -0.00000000000E+00  0.00000000000E+00  0.38577523992E+02  0.38598422990E+02  0.12700000000E+01 0. -1.
          4   -1    0    0  501    0  0.00000000000E+00 -0.00000000000E+00 -0.10119823446E+03  0.10120620315E+03  0.12700000000E+01 0. -1.
         25    2    1    2    0    0  0.00000000000E+00  0.00000000000E+00 -0.62620710464E+02  0.13980462615E+03  0.12499592038E+03 0.  0.
    9000005    1    3    3    0    0 -0.12599776357E+02  0.29803169815E+02  0.28483658579E+02  0.43119625478E+02  0.10000000000E+01 0.  0.
    9000005    1    3    3    0    0  0.12599776357E+02 -0.29803169815E+02 -0.91104369044E+02  0.96685000668E+02  0.10000000000E+01 0.  0.
<mgrwt>
<rscale>  0 0.12499592E+03</rscale>
<asrwt>0</asrwt>
<pdfrwt beam="2">  1        4 0.15571180E-01 0.12499592E+03</pdfrwt>
<pdfrwt beam="1">  1       -4 0.59372243E-02 0.12499592E+03</pdfrwt>
<totfact> 0.10138568E+04</totfact>
</mgrwt>
</event>
<event>
 5    1  0.3236337E-002  0.1249844E+03  0.7818608E-02  0.1235094E+00
         -4   -1    0    0    0  501 -0.00000000000E+00  0.00000000000E+00  0.36640275316E+02  0.36662278642E+02  0.12700000000E+01 0.  1.
          4   -1    0    0  501    0  0.00000000000E+00 -0.00000000000E+00 -0.10652642672E+03  0.10653399688E+03  0.12700000000E+01 0.  1.
         25    2    1    2    0    0  0.00000000000E+00  0.00000000000E+00 -0.69886151408E+02  0.14319627552E+03  0.12498439568E+03 0.  0.
    9000005    1    3    3    0    0  0.95103503329E+01 -0.33950051890E+02  0.24160870773E+02  0.42752783106E+02  0.10000000000E+01 0.  0.
    9000005    1    3    3    0    0 -0.95103503329E+01  0.33950051890E+02 -0.94047022181E+02  0.10044349241E+03  0.10000000000E+01 0.  0.
<mgrwt>
<rscale>  0 0.12498440E+03</rscale>
<asrwt>0</asrwt>
<pdfrwt beam="2">  1        4 0.16390956E-01 0.12498440E+03</pdfrwt>
<pdfrwt beam="1">  1       -4 0.56392404E-02 0.12498440E+03</pdfrwt>
<totfact> 0.10071305E+04</totfact>
</mgrwt>
</event>
<event>
 5    1  0.3236337E-002  0.1250030E+03  0.7818608E-02  0.1235065E+00
          4   -1    0    0  501    0  0.00000000000E+00  0.00000000000E+00  0.76485369275E+01  0.77532584848E+01  0.12700000000E+01 0.  1.
         -4   -1    0    0    0  501 -0.00000000000E+00 -0.00000000000E+00 -0.50716468801E+03  0.50716627812E+03  0.12700000000E+01 0.  1.
         25    2    1    2    0    0  0.00000000000E+00  0.00000000000E+00 -0.49951615108E+03  0.51491953660E+03  0.12500297591E+03 0.  0.
    9000005    1    3    3    0    0  0.14254565216E+01 -0.59640572605E+02 -0.32642566821E+03  0.33183391432E+03  0.10000000000E+01 0.  0.
    9000005    1    3    3    0    0 -0.14254565216E+01  0.59640572605E+02 -0.17309048287E+03  0.18308562229E+03  0.10000000000E+01 0.  0.
<mgrwt>
<rscale>  0 0.12500298E+03</rscale>
<asrwt>0</asrwt>
<pdfrwt beam="1">  1        4 0.11848762E-02 0.12500298E+03</pdfrwt>
<pdfrwt beam="2">  1       -4 0.78033488E-01 0.12500298E+03</pdfrwt>
<totfact> 0.54721527E+03</totfact>
</mgrwt>
</event>
<event>
 5    1  0.3236337E-002  0.1249991E+03  0.7818608E-02  0.1235071E+00
          4   -1    0    0  501    0  0.00000000000E+00  0.00000000000E+00  0.17100924964E+02  0.17148018387E+02  0.12700000000E+01 0. -1.
         -4   -1    0    0    0  501 -0.00000000000E+00 -0.00000000000E+00 -0.22805713593E+03  0.22806067207E+03  0.12700000000E+01 0. -1.
         25    2    1    2    0    0  0.00000000000E+00  0.00000000000E+00 -0.21095621096E+03  0.24520869046E+03  0.12499911573E+03 0.  0.
    9000005    1    3    3    0    0 -0.42114795788E+02 -0.24308471001E+01 -0.15035571617E+02  0.44795462446E+02  0.10000000000E+01 0.  0.
    9000005    1    3    3    0    0  0.42114795788E+02  0.24308471001E+01 -0.19592063935E+03  0.20041322802E+03  0.10000000000E+01 0.  0.
<mgrwt>
<rscale>  0 0.12499912E+03</rscale>
<asrwt>0</asrwt>
<pdfrwt beam="1">  1        4 0.26348063E-02 0.12499912E+03</pdfrwt>
<pdfrwt beam="2">  1       -4 0.35089606E-01 0.12499912E+03</pdfrwt>
<totfact> 0.83029327E+03</totfact>
</mgrwt>
</event>
<event>
 5    1  0.3236337E-002  0.1249953E+03  0.7818608E-02  0.1235077E+00
          4   -1    0    0  501    0  0.00000000000E+00  0.00000000000E+00  0.10930569341E+03  0.10931307109E+03  0.12700000000E+01 0. -1.
         -4   -1    0    0    0  501 -0.00000000000E+00 -0.00000000000E+00 -0.35714388015E+02  0.35736961416E+02  0.12700000000E+01 0. -1.
         25    2    1    2    0    0  0.00000000000E+00  0.00000000000E+00  0.73591305397E+02  0.14505003251E+03  0.12499532672E+03 0.  0.
    9000005    1    3    3    0    0  0.48017870950E+02 -0.79967270310E+01 -0.86738160946E+01  0.49456027533E+02  0.10000000000E+01 0.  0.
    9000005    1    3    3    0    0 -0.48017870950E+02  0.79967270310E+01  0.82265121491E+02  0.95594004978E+02  0.10000000000E+01 0.  0.
<mgrwt>
<rscale>  0 0.12499533E+03</rscale>
<asrwt>0</asrwt>
<pdfrwt beam="1">  1        4 0.16818564E-01 0.12499533E+03</pdfrwt>
<pdfrwt beam="2">  1       -4 0.54968252E-02 0.12499533E+03</pdfrwt>
<totfact> 0.10031028E+04</totfact>
</mgrwt>
</event>
<event>
 5    1  0.3236337E-002  0.1249992E+03  0.7818608E-02  0.1235070E+00
         -4   -1    0    0    0  501 -0.00000000000E+00  0.00000000000E+00  0.24250067719E+03  0.24250400273E+03  0.12700000000E+01 0.  1.
          4   -1    0    0  501    0  0.00000000000E+00 -0.00000000000E+00 -0.16079528368E+02  0.16129604227E+02  0.12700000000E+01 0.  1.
         25    2    1    2    0    0  0.00000000000E+00  0.00000000000E+00  0.22642114882E+03  0.25863360695E+03  0.12499922404E+03 0.  0.
    9000005    1    3    3    0    0 -0.31534649616E+02 -0.39745152332E+02  0.18869917761E+03  0.19540340553E+03  0.10000000000E+01 0.  0.
    9000005    1    3    3    0    0  0.31534649616E+02  0.39745152332E+02  0.37721971211E+02  0.63230201426E+02  0.10000000000E+01 0.  0.
<mgrwt>
<rscale>  0 0.12499922E+03</rscale>
<asrwt>0</asrwt>
<pdfrwt beam="2">  1        4 0.24778815E-02 0.12499922E+03</pdfrwt>
<pdfrwt beam="1">  1       -4 0.37311902E-01 0.12499922E+03</pdfrwt>
<totfact> 0.81099599E+03</totfact>
</mgrwt>
</event>
<event>
 5    1  0.3236337E-002  0.1250294E+03  0.7818608E-02  0.1235023E+00
         -4   -1    0    0    0  501 -0.00000000000E+00  0.00000000000E+00  0.56549182647E+03  0.56549325257E+03  0.12700000000E+01 0. -1.
          4   -1    0    0  501    0  0.00000000000E+00 -0.00000000000E+00 -0.68511595512E+01  0.69678753718E+01  0.12700000000E+01 0. -1.
         25    2    1    2    0    0  0.00000000000E+00  0.00000000000E+00  0.55864066692E+03  0.57246112794E+03  0.12502938963E+03 0.  0.
    9000005    1    3    3    0    0  0.37699544470E+02  0.39889982633E+02  0.41626759815E+03  0.41987162281E+03  0.10000000000E+01 0.  0.
    9000005    1    3    3    0    0 -0.37699544470E+02 -0.39889982633E+02  0.14237306877E+03  0.15258950514E+03  0.10000000000E+01 0.  0.
<mgrwt>
<rscale>  0 0.12502939E+03</rscale>
<asrwt>0</asrwt>
<pdfrwt beam="2">  1        4 0.10631122E-02 0.12502939E+03</pdfrwt>
<pdfrwt beam="1">  1       -4 0.87007843E-01 0.12502939E+03</pdfrwt>
<totfact> 0.50620743E+03</totfact>
</mgrwt>
</event>
<event>
 5    1  0.3236337E-002  0.1250009E+03  0.7818608E-02  0.1235068E+00
          4   -1    0    0  501    0  0.00000000000E+00  0.00000000000E+00  0.19599200455E+03  0.19599611921E+03  0.12700000000E+01 0. -1.
         -4   -1    0    0    0  501 -0.00000000000E+00 -0.00000000000E+00 -0.19906373099E+02  0.19946844111E+02  0.12700000000E+01 0. -1.
         25    2    1    2    0    0  0.00000000000E+00  0.00000000000E+00  0.17608563145E+03  0.21594296332E+03  0.12500085522E+03 0.  0.
    9000005    1    3    3    0    0  0.21498434529E+02 -0.41620644259E+02  0.15949756793E+03  0.16623758567E+03  0.10000000000E+01 0.  0.
    9000005    1    3    3    0    0 -0.21498434529E+02  0.41620644259E+02  0.16588063517E+02  0.49705377647E+02  0.10000000000E+01 0.  0.
<mgrwt>
<rscale>  0 0.12500086E+03</rscale>
<asrwt>0</asrwt>
<pdfrwt beam="1">  1        4 0.30156045E-01 0.12500086E+03</pdfrwt>
<pdfrwt beam="2">  1       -4 0.30659487E-02 0.12500086E+03</pdfrwt>
<totfact> 0.87512749E+03</totfact>
</mgrwt>
</event>
<event>
 5    1  0.3236337E-002  0.1250001E+03  0.7818608E-02  0.1235069E+00
         -4   -1    0    0    0  501 -0.00000000000E+00  0.00000000000E+00  0.21316982130E+02  0.21354779960E+02  0.12700000000E+01 0.  1.
          4   -1    0    0  501    0  0.00000000000E+00 -0.00000000000E+00 -0.18304385700E+03  0.18304826272E+03  0.12700000000E+01 0.  1.
         25    2    1    2    0    0  0.00000000000E+00  0.00000000000E+00 -0.16172687487E+03  0.20440304268E+03  0.12500008721E+03 0.  0.
    9000005    1    3    3    0    0  0.52723431660E+02  0.11119248607E+01 -0.26034454051E+02  0.58819974674E+02  0.10000000000E+01 0.  0.
    9000005    1    3    3    0    0 -0.52723431660E+02 -0.11119248607E+01 -0.13569242082E+03  0.14558306801E+03  0.10000000000E+01 0.  0.
<mgrwt>
<rscale>  0 0.12500009E+03</rscale>
<asrwt>0</asrwt>
<pdfrwt beam="2">  1        4 0.28163839E-01 0.12500009E+03</pdfrwt>
<pdfrwt beam="1">  1       -4 0.32827823E-02 0.12500009E+03</pdfrwt>
<totfact> 0.89398000E+03</totfact>
</mgrwt>
</event>
<event>
 5    1  0.3236337E-002  0.1249986E+03  0.7818608E-02  0.1235071E+00
          4   -1    0    0  501    0  0.00000000000E+00  0.00000000000E+00  0.88319037461E+02  0.88328168090E+02  0.12700000000E+01 0.  1.
         -4   -1    0    0    0  501 -0.00000000000E+00 -0.00000000000E+00 -0.44207357579E+02  0.44225596255E+02  0.12700000000E+01 0.  1.
         25    2    1    2    0    0  0.00000000000E+00  0.00000000000E+00  0.44111679883E+02  0.13255376434E+03  0.12499864055E+03 0.  0.
    9000005    1    3    3    0    0  0.26020329212E+01 -0.57392954808E+02  0.48127250169E+02  0.74953012252E+02  0.10000000000E+01 0.  0.
    9000005    1    3    3    0    0 -0.26020329212E+01  0.57392954808E+02 -0.40155702857E+01  0.57600752092E+02  0.10000000000E+01 0.  0.
<mgrwt>
<rscale>  0 0.12499864E+03</rscale>
<asrwt>0</asrwt>
<pdfrwt beam="1">  1        4 0.13589649E-01 0.12499864E+03</pdfrwt>
<pdfrwt beam="2">  1       -4 0.68032374E-02 0.12499864E+03</pdfrwt>
<totfact> 0.10290208E+04</totfact>
</mgrwt>
</event>
<event>
 5    1  0.3236337E-002  0.1250024E+03  0.7818608E-02  0.1235066E+00
          4   -1    0    0  501    0  0.00000000000E+00  0.00000000000E+00  0.17969121474E+02  0.18013945335E+02  0.12700000000E+01 0.  1.
         -4   -1    0    0    0  501 -0.00000000000E+00 -0.00000000000E+00 -0.21707771299E+03  0.21708142799E+03  0.12700000000E+01 0.  1.
         25    2    1    2    0    0  0.00000000000E+00  0.00000000000E+00 -0.19910859152E+03  0.23509537332E+03  0.12500241335E+03 0.  0.
    9000005    1    3    3    0    0  0.31327960064E+02  0.28320581414E+02 -0.12920250533E+02  0.44174984858E+02  0.10000000000E+01 0.  0.
    9000005    1    3    3    0    0 -0.31327960064E+02 -0.28320581414E+02 -0.18618834098E+03  0.19092038846E+03  0.10000000000E+01 0.  0.
<mgrwt>
<rscale>  0 0.12500241E+03</rscale>
<asrwt>0</asrwt>
<pdfrwt beam="1">  1        4 0.27682141E-02 0.12500241E+03</pdfrwt>
<pdfrwt beam="2">  1       -4 0.33400303E-01 0.12500241E+03</pdfrwt>
<totfact> 0.84528741E+03</totfact>
</mgrwt>
</event>
<event>
 5    1  0.3236337E-002  0.1249844E+03  0.7818608E-02  0.1235094E+00
         -4   -1    0    0    0  501 -0.00000000000E+00  0.00000000000E+00  0.27952857750E+02  0.27981693237E+02  0.12700000000E+01 0. -1.
          4   -1    0    0  501    0  0.00000000000E+00 -0.00000000000E+00 -0.13960568650E+03  0.13961146300E+03  0.12700000000E+01 0. -1.
         25    2    1    2    0    0  0.00000000000E+00  0.00000000000E+00 -0.11165282875E+03  0.16759315624E+03  0.12498444644E+03 0.  0.
    9000005    1    3    3    0    0  0.41774660556E+01  0.24237445531E+02  0.21195802655E+02  0.32483334785E+02  0.10000000000E+01 0.  0.
    9000005    1    3    3    0    0 -0.41774660556E+01 -0.24237445531E+02 -0.13284863140E+03  0.13510982146E+03  0.10000000000E+01 0.  0.
<mgrwt>
<rscale>  0 0.12498445E+03</rscale>
<asrwt>0</asrwt>
<pdfrwt beam="2">  1        4 0.21480460E-01 0.12498445E+03</pdfrwt>
<pdfrwt beam="1">  1       -4 0.43031022E-02 0.12498445E+03</pdfrwt>
<totfact> 0.95932037E+03</totfact>
</mgrwt>
</event>
<event>
 5    1  0.3236337E-002  0.1249960E+03  0.7818608E-02  0.1235076E+00
          4   -1    0    0  501    0  0.00000000000E+00  0.00000000000E+00  0.17113160826E+04  0.17113165538E+04  0.12700000000E+01 0.  1.
         -4   -1    0    0    0  501 -0.00000000000E+00 -0.00000000000E+00 -0.21052826863E+01  0.24586815958E+01  0.12700000000E+01 0.  1.
         25    2    1    2    0    0  0.00000000000E+00  0.00000000000E+00  0.17092107999E+04  0.17137752354E+04  0.12499599621E+03 0.  0.
    9000005    1    3    3    0    0  0.19874472292E+02  0.57485786547E+02  0.65811250962E+03  0.66091806271E+03  0.10000000000E+01 0.  0.
    9000005    1    3    3    0    0 -0.19874472292E+02 -0.57485786547E+02  0.10510982903E+04  0.10528571727E+04  0.10000000000E+01 0.  0.
<mgrwt>
<rscale>  0 0.12499600E+03</rscale>
<asrwt>0</asrwt>
<pdfrwt beam="1">  1        4 0.26330540E+00 0.12499600E+03</pdfrwt>
<pdfrwt beam="2">  1       -4 0.35111205E-03 0.12499600E+03</pdfrwt>
<totfact> 0.14080739E+03</totfact>
</mgrwt>
</event>
<event>
 5    1  0.3236337E-002  0.1250052E+03  0.7818608E-02  0.1235061E+00
          4   -1    0    0  501    0  0.00000000000E+00  0.00000000000E+00  0.51917714075E+03  0.51917869408E+03  0.12700000000E+01 0.  1.
         -4   -1    0    0    0  501 -0.00000000000E+00 -0.00000000000E+00 -0.74693906739E+01  0.75765887469E+01  0.12700000000E+01 0.  1.
         25    2    1    2    0    0  0.00000000000E+00  0.00000000000E+00  0.51170775008E+03  0.52675528282E+03  0.12500522585E+03 0.  0.
    9000005    1    3    3    0    0  0.15587362797E+02 -0.58901764918E+02  0.31442401152E+03  0.32027463654E+03  0.10000000000E+01 0.  0.
    9000005    1    3    3    0    0 -0.15587362797E+02  0.58901764918E+02  0.19728373856E+03  0.20648064628E+03  0.10000000000E+01 0.  0.
<mgrwt>
<rscale>  0 0.12500523E+03</rscale>
<asrwt>0</asrwt>
<pdfrwt beam="1">  1        4 0.79881734E-01 0.12500523E+03</pdfrwt>
<pdfrwt beam="2">  1       -4 0.11575031E-02 0.12500523E+03</pdfrwt>
<totfact> 0.53840477E+03</totfact>
</mgrwt>
</event>
<event>
 5    1  0.3236337E-002  0.1250033E+03  0.7818608E-02  0.1235064E+00
         -4   -1    0    0    0  501 -0.00000000000E+00  0.00000000000E+00  0.77113191556E+02  0.77123648850E+02  0.12700000000E+01 0. -1.
          4   -1    0    0  501    0  0.00000000000E+00 -0.00000000000E+00 -0.50636848031E+02  0.50652771676E+02  0.12700000000E+01 0. -1.
         25    2    1    2    0    0  0.00000000000E+00  0.00000000000E+00  0.26476343525E+02  0.12777642053E+03  0.12500326746E+03 0.  0.
    9000005    1    3    3    0    0  0.25153283548E+02  0.42274525434E+02  0.52637138811E+02  0.72052005913E+02  0.10000000000E+01 0.  0.
    9000005    1    3    3    0    0 -0.25153283548E+02 -0.42274525434E+02 -0.26160795286E+02  0.55724414613E+02  0.10000000000E+01 0.  0.
<mgrwt>
<rscale>  0 0.12500327E+03</rscale>
<asrwt>0</asrwt>
<pdfrwt beam="2">  1        4 0.77923136E-02 0.12500327E+03</pdfrwt>
<pdfrwt beam="1">  1       -4 0.11865597E-01 0.12500327E+03</pdfrwt>
<totfact> 0.10391552E+04</totfact>
</mgrwt>
</event>
<event>
 5    1  0.3236337E-002  0.1250032E+03  0.7818608E-02  0.1235064E+00
          4   -1    0    0  501    0  0.00000000000E+00  0.00000000000E+00  0.14632071987E+03  0.14632623129E+03  0.12700000000E+01 0.  1.
         -4   -1    0    0    0  501 -0.00000000000E+00 -0.00000000000E+00 -0.26676757425E+02  0.26706970751E+02  0.12700000000E+01 0.  1.
         25    2    1    2    0    0  0.00000000000E+00  0.00000000000E+00  0.11964396245E+03  0.17303320204E+03  0.12500324499E+03 0.  0.
    9000005    1    3    3    0    0  0.56708889002E+02 -0.70567750130E+01  0.24810090706E+02  0.62307597982E+02  0.10000000000E+01 0.  0.
    9000005    1    3    3    0    0 -0.56708889002E+02  0.70567750130E+01  0.94833871743E+02  0.11072560406E+03  0.10000000000E+01 0.  0.
<mgrwt>
<rscale>  0 0.12500324E+03</rscale>
<asrwt>0</asrwt>
<pdfrwt beam="1">  1        4 0.22513628E-01 0.12500324E+03</pdfrwt>
<pdfrwt beam="2">  1       -4 0.41068646E-02 0.12500324E+03</pdfrwt>
<totfact> 0.94879386E+03</totfact>
</mgrwt>
</event>
<event>
 5    1  0.3236337E-002  0.1249997E+03  0.7818608E-02  0.1235070E+00
         -4   -1    0    0    0  501 -0.00000000000E+00  0.00000000000E+00  0.42631991917E+03  0.42632181082E+03  0.12700000000E+01 0. -1.
          4   -1    0    0  501    0  0.00000000000E+00 -0.00000000000E+00 -0.91167469483E+01  0.92047800039E+01  0.12700000000E+01 0. -1.
         25    2    1    2    0    0  0.00000000000E+00  0.00000000000E+00  0.41720317223E+03  0.43552659083E+03  0.12499969761E+03 0.  0.
    9000005    1    3    3    0    0 -0.61895522849E+02  0.56983492072E+01  0.18610091635E+03  0.19620927093E+03  0.10000000000E+01 0.  0.
    9000005    1    3    3    0    0  0.61895522849E+02 -0.56983492072E+01  0.23110225588E+03  0.23931731990E+03  0.10000000000E+01 0.  0.
<mgrwt>
<rscale>  0 0.12499970E+03</rscale>
<asrwt>0</asrwt>
<pdfrwt beam="2">  1        4 0.14094937E-02 0.12499970E+03</pdfrwt>
<pdfrwt beam="1">  1       -4 0.65594601E-01 0.12499970E+03</pdfrwt>
<totfact> 0.61238619E+03</totfact>
</mgrwt>
</event>
<event>
 5    1  0.3236337E-002  0.1250139E+03  0.7818608E-02  0.1235048E+00
         -4   -1    0    0    0  501 -0.00000000000E+00  0.00000000000E+00  0.87908088246E+02  0.87917261554E+02  0.12700000000E+01 0. -1.
          4   -1    0    0  501    0  0.00000000000E+00 -0.00000000000E+00 -0.44424922029E+02  0.44443071420E+02  0.12700000000E+01 0. -1.
         25    2    1    2    0    0  0.00000000000E+00  0.00000000000E+00  0.43483166217E+02  0.13236033297E+03  0.12501388723E+03 0.  0.
    9000005    1    3    3    0    0  0.44414690367E+00 -0.39556061982E+01  0.87778939918E+02  0.87874833599E+02  0.10000000000E+01 0.  0.
    9000005    1    3    3    0    0 -0.44414690367E+00  0.39556061982E+01 -0.44295773701E+02  0.44485499375E+02  0.10000000000E+01 0.  0.
<mgrwt>
<rscale>  0 0.12501389E+03</rscale>
<asrwt>0</asrwt>
<pdfrwt beam="2">  1        4 0.68367052E-02 0.12501389E+03</pdfrwt>
<pdfrwt beam="1">  1       -4 0.13526423E-01 0.12501389E+03</pdfrwt>
<totfact> 0.10290789E+04</totfact>
</mgrwt>
</event>
<event>
 5    1  0.3236337E-002  0.1249964E+03  0.7818608E-02  0.1235075E+00
          4   -1    0    0  501    0  0.00000000000E+00  0.00000000000E+00  0.62960298728E+02  0.62973106291E+02  0.12700000000E+01 0. -1.
         -4   -1    0    0    0  501 -0.00000000000E+00 -0.00000000000E+00 -0.62013835283E+02  0.62026838276E+02  0.12700000000E+01 0. -1.
         25    2    1    2    0    0  0.00000000000E+00  0.00000000000E+00  0.94646344485E+00  0.12499994457E+03  0.12499636134E+03 0.  0.
    9000005    1    3    3    0    0 -0.87372254991E+01 -0.57046354146E+02  0.24440498752E+02  0.62681445501E+02  0.10000000000E+01 0.  0.
    9000005    1    3    3    0    0  0.87372254991E+01  0.57046354146E+02 -0.23494035307E+02  0.62318499066E+02  0.10000000000E+01 0.  0.
<mgrwt>
<rscale>  0 0.12499636E+03</rscale>
<asrwt>0</asrwt>
<pdfrwt beam="1">  1        4 0.96881852E-02 0.12499636E+03</pdfrwt>
<pdfrwt beam="2">  1       -4 0.95425755E-02 0.12499636E+03</pdfrwt>
<totfact> 0.10453723E+04</totfact>
</mgrwt>
</event>
<event>
 5    1  0.3236337E-002  0.1249983E+03  0.7818608E-02  0.1235072E+00
          4   -1    0    0  501    0  0.00000000000E+00  0.00000000000E+00  0.10730214099E+03  0.10730965642E+03  0.12700000000E+01 0.  1.
         -4   -1    0    0    0  501 -0.00000000000E+00 -0.00000000000E+00 -0.36383381898E+02  0.36405540490E+02  0.12700000000E+01 0.  1.
         25    2    1    2    0    0  0.00000000000E+00  0.00000000000E+00  0.70918759096E+02  0.14371519691E+03  0.12499834972E+03 0.  0.
    9000005    1    3    3    0    0 -0.85673111417E+01 -0.60106775694E+02  0.52470959847E+02  0.80252258110E+02  0.10000000000E+01 0.  0.
    9000005    1    3    3    0    0  0.85673111417E+01  0.60106775694E+02  0.18447799250E+02  0.63462938804E+02  0.10000000000E+01 0.  0.
<mgrwt>
<rscale>  0 0.12499835E+03</rscale>
<asrwt>0</asrwt>
<pdfrwt beam="1">  1        4 0.16510304E-01 0.12499835E+03</pdfrwt>
<pdfrwt beam="2">  1       -4 0.55997261E-02 0.12499835E+03</pdfrwt>
<totfact> 0.10057532E+04</totfact>
</mgrwt>
</event>
<event>
 5    1  0.3236337E-002  0.1250029E+03  0.7818608E-02  0.1235065E+00
          4   -1    0    0  501    0  0.00000000000E+00  0.00000000000E+00  0.11757413326E+03  0.11758099214E+03  0.12700000000E+01 0. -1.
         -4   -1    0    0    0  501 -0.00000000000E+00 -0.00000000000E+00 -0.33205274491E+02  0.33229552420E+02  0.12700000000E+01 0. -1.
         25    2    1    2    0    0  0.00000000000E+00  0.00000000000E+00  0.84368858770E+02  0.15081054456E+03  0.12500286405E+03 0.  0.
    9000005    1    3    3    0    0  0.22307013662E+02 -0.37909752829E+02  0.95741824380E+02  0.10536721100E+03  0.10000000000E+01 0.  0.
    9000005    1    3    3    0    0 -0.22307013662E+02  0.37909752829E+02 -0.11372965610E+02  0.45443333558E+02  0.10000000000E+01 0.  0.
<mgrwt>
<rscale>  0 0.12500286E+03</rscale>
<asrwt>0</asrwt>
<pdfrwt beam="1">  1        4 0.18090723E-01 0.12500286E+03</pdfrwt>
<pdfrwt beam="2">  1       -4 0.51108989E-02 0.12500286E+03</pdfrwt>
<totfact> 0.99135984E+03</totfact>
</mgrwt>
</event>
<event>
 5    1  0.3236337E-002  0.1250136E+03  0.7818608E-02  0.1235048E+00
          4   -1    0    0  501    0  0.00000000000E+00  0.00000000000E+00  0.10331204143E+03  0.10331984709E+03  0.12700000000E+01 0.  1.
         -4   -1    0    0    0  501 -0.00000000000E+00 -0.00000000000E+00 -0.37798535229E+02  0.37819864694E+02  0.12700000000E+01 0.  1.
         25    2    1    2    0    0  0.00000000000E+00  0.00000000000E+00  0.65513506197E+02  0.14113971179E+03  0.12501359426E+03 0.  0.
    9000005    1    3    3    0    0 -0.32522725277E+01  0.39198399051E+02  0.87591606184E+02  0.96022816240E+02  0.10000000000E+01 0.  0.
    9000005    1    3    3    0    0  0.32522725277E+01 -0.39198399051E+02 -0.22078099988E+02  0.45116895547E+02  0.10000000000E+01 0.  0.
<mgrwt>
<rscale>  0 0.12501359E+03</rscale>
<asrwt>0</asrwt>
<pdfrwt beam="1">  1        4 0.15896401E-01 0.12501359E+03</pdfrwt>
<pdfrwt beam="2">  1       -4 0.58174005E-02 0.12501359E+03</pdfrwt>
<totfact> 0.10106924E+04</totfact>
</mgrwt>
</event>
<event>
 5    1  0.3236337E-002  0.1250000E+03  0.7818608E-02  0.1235069E+00
          4   -1    0    0  501    0  0.00000000000E+00  0.00000000000E+00  0.26891987793E+02  0.26921959577E+02  0.12700000000E+01 0.  1.
         -4   -1    0    0    0  501 -0.00000000000E+00 -0.00000000000E+00 -0.14514325210E+03  0.14514880823E+03  0.12700000000E+01 0.  1.
         25    2    1    2    0    0  0.00000000000E+00  0.00000000000E+00 -0.11825126431E+03  0.17207076781E+03  0.12499995049E+03 0.  0.
    9000005    1    3    3    0    0 -0.48233551141E+02  0.37342852964E+02 -0.77812634338E+02  0.98877551475E+02  0.10000000000E+01 0.  0.
    9000005    1    3    3    0    0  0.48233551141E+02 -0.37342852964E+02 -0.40438629973E+02  0.73193216334E+02  0.10000000000E+01 0.  0.
<mgrwt>
<rscale>  0 0.12499995E+03</rscale>
<asrwt>0</asrwt>
<pdfrwt beam="1">  1        4 0.41399619E-02 0.12499995E+03</pdfrwt>
<pdfrwt beam="2">  1       -4 0.22332464E-01 0.12499995E+03</pdfrwt>
<totfact> 0.95064183E+03</totfact>
</mgrwt>
</event>
<event>
 5    1  0.3236337E-002  0.1250040E+03  0.7818608E-02  0.1235063E+00
          4   -1    0    0  501    0  0.00000000000E+00  0.00000000000E+00  0.30691941428E+03  0.30692204183E+03  0.12700000000E+01 0.  1.
         -4   -1    0    0    0  501 -0.00000000000E+00 -0.00000000000E+00 -0.12693719964E+02  0.12757093185E+02  0.12700000000E+01 0.  1.
         25    2    1    2    0    0  0.00000000000E+00  0.00000000000E+00  0.29422569431E+03  0.31967913501E+03  0.12500396061E+03 0.  0.
    9000005    1    3    3    0    0 -0.15102418521E+02 -0.60633649427E+02  0.14963810030E+03  0.16216375535E+03  0.10000000000E+01 0.  0.
    9000005    1    3    3    0    0  0.15102418521E+02  0.60633649427E+02  0.14458759401E+03  0.15751537966E+03  0.10000000000E+01 0.  0.
<mgrwt>
<rscale>  0 0.12500396E+03</rscale>
<asrwt>0</asrwt>
<pdfrwt beam="1">  1        4 0.47223449E-01 0.12500396E+03</pdfrwt>
<pdfrwt beam="2">  1       -4 0.19579570E-02 0.12500396E+03</pdfrwt>
<totfact> 0.73187876E+03</totfact>
</mgrwt>
</event>
<event>
 5    1  0.3236337E-002  0.1249980E+03  0.7818608E-02  0.1235072E+00
          4   -1    0    0  501    0  0.00000000000E+00  0.00000000000E+00  0.14843257963E+02  0.14897489955E+02  0.12700000000E+01 0.  1.
         -4   -1    0    0    0  501 -0.00000000000E+00 -0.00000000000E+00 -0.26262271050E+03  0.26262578123E+03  0.12700000000E+01 0.  1.
         25    2    1    2    0    0  0.00000000000E+00  0.00000000000E+00 -0.24777945253E+03  0.27752327119E+03  0.12499803580E+03 0.  0.
    9000005    1    3    3    0    0  0.32649720879E+02  0.98501608704E+01 -0.76277643077E+01  0.34960159195E+02  0.10000000000E+01 0.  0.
    9000005    1    3    3    0    0 -0.32649720879E+02 -0.98501608704E+01 -0.24015168823E+03  0.24256311200E+03  0.10000000000E+01 0.  0.
<mgrwt>
<rscale>  0 0.12499804E+03</rscale>
<asrwt>0</asrwt>
<pdfrwt beam="1">  1        4 0.22879863E-02 0.12499804E+03</pdfrwt>
<pdfrwt beam="2">  1       -4 0.40407898E-01 0.12499804E+03</pdfrwt>
<totfact> 0.78511082E+03</totfact>
</mgrwt>
</event>
<event>
 5    1  0.3236337E-002  0.1249986E+03  0.7818608E-02  0.1235072E+00
          4   -1    0    0  501    0  0.00000000000E+00  0.00000000000E+00  0.47791775880E+03  0.47791944622E+03  0.12700000000E+01 0. -1.
         -4   -1    0    0    0  501 -0.00000000000E+00 -0.00000000000E+00 -0.81222450229E+01  0.82209345096E+01  0.12700000000E+01 0. -1.
         25    2    1    2    0    0  0.00000000000E+00  0.00000000000E+00  0.46979551378E+03  0.48614038073E+03  0.12499858004E+03 0.  0.
    9000005    1    3    3    0    0  0.27307394157E+02  0.33549379675E+02  0.41029474043E+03  0.41257002881E+03  0.10000000000E+01 0.  0.
    9000005    1    3    3    0    0 -0.27307394157E+02 -0.33549379675E+02  0.59500773354E+02  0.73570351923E+02  0.10000000000E+01 0.  0.
<mgrwt>
<rscale>  0 0.12499858E+03</rscale>
<asrwt>0</asrwt>
<pdfrwt beam="1">  1        4 0.73533526E-01 0.12499858E+03</pdfrwt>
<pdfrwt beam="2">  1       -4 0.12572975E-02 0.12499858E+03</pdfrwt>
<totfact> 0.56957748E+03</totfact>
</mgrwt>
</event>
<event>
 5    1  0.3236337E-002  0.1249972E+03  0.7818608E-02  0.1235074E+00
         -4   -1    0    0    0  501 -0.00000000000E+00  0.00000000000E+00  0.37149227588E+03  0.37149444671E+03  0.12700000000E+01 0. -1.
          4   -1    0    0  501    0  0.00000000000E+00 -0.00000000000E+00 -0.10473998016E+02  0.10550712509E+02  0.12700000000E+01 0. -1.
         25    2    1    2    0    0  0.00000000000E+00  0.00000000000E+00  0.36101827786E+03  0.38204515922E+03  0.12499722690E+03 0.  0.
    9000005    1    3    3    0    0 -0.48522901692E+02 -0.25251791737E+02  0.88158856926E+02  0.10375504339E+03  0.10000000000E+01 0.  0.
    9000005    1    3    3    0    0  0.48522901692E+02  0.25251791737E+02  0.27285942093E+03  0.27829011583E+03  0.10000000000E+01 0.  0.
<mgrwt>
<rscale>  0 0.12499723E+03</rscale>
<asrwt>0</asrwt>
<pdfrwt beam="2">  1        4 0.16174524E-02 0.12499723E+03</pdfrwt>
<pdfrwt beam="1">  1       -4 0.57158727E-01 0.12499723E+03</pdfrwt>
<totfact> 0.66341397E+03</totfact>
</mgrwt>
</event>
<event>
 5    1  0.3236337E-002  0.1250004E+03  0.7818608E-02  0.1235069E+00
         -4   -1    0    0    0  501 -0.00000000000E+00  0.00000000000E+00  0.28692243327E+02  0.28720336473E+02  0.12700000000E+01 0. -1.
          4   -1    0    0  501    0  0.00000000000E+00 -0.00000000000E+00 -0.13604629571E+03  0.13605222334E+03  0.12700000000E+01 0. -1.
         25    2    1    2    0    0  0.00000000000E+00  0.00000000000E+00 -0.10735405238E+03  0.16477255981E+03  0.12500041562E+03 0.  0.
    9000005    1    3    3    0    0  0.41011353766E+02 -0.42125304686E+02 -0.81602565574E+02  0.10058057039E+03  0.10000000000E+01 0.  0.
    9000005    1    3    3    0    0 -0.41011353766E+02  0.42125304686E+02 -0.25751486805E+02  0.64191989417E+02  0.10000000000E+01 0.  0.
<mgrwt>
<rscale>  0 0.12500042E+03</rscale>
<asrwt>0</asrwt>
<pdfrwt beam="2">  1        4 0.20932816E-01 0.12500042E+03</pdfrwt>
<pdfrwt beam="1">  1       -4 0.44168083E-02 0.12500042E+03</pdfrwt>
<totfact> 0.96429583E+03</totfact>
</mgrwt>
</event>
<event>
 4    1  0.3236337E-002  0.1248759E+03  0.7818608E-02  0.1235263E+00
          4   -1    0    0  501    0  0.00000000000E+00  0.00000000000E+00  0.62651661622E+02  0.62664532265E+02  0.12700000000E+01 0.  1.
         -4   -1    0    0    0  501 -0.00000000000E+00 -0.00000000000E+00 -0.62199204027E+02  0.62212168276E+02  0.12700000000E+01 0.  1.
    9000005    1    1    2    0    0 -0.48447741316E+02  0.39373745129E+02  0.81449165133E-01  0.62437825700E+02  0.10000000000E+01 0.  0.
    9000005    1    1    2    0    0  0.48447741316E+02 -0.39373745129E+02  0.37100842995E+00  0.62438874841E+02  0.10000000000E+01 0.  0.
<mgrwt>
<rscale>  0 0.12487588E+03</rscale>
<asrwt>0</asrwt>
<pdfrwt beam="1">  1        4 0.96407045E-02 0.12487588E+03</pdfrwt>
<pdfrwt beam="2">  1       -4 0.95710956E-02 0.12487588E+03</pdfrwt>
<totfact> 0.10484925E+04</totfact>
</mgrwt>
</event>
<event>
 5    1  0.3236337E-002  0.1250010E+03  0.7818608E-02  0.1235068E+00
          4   -1    0    0  501    0  0.00000000000E+00  0.00000000000E+00  0.45226870613E+02  0.45244698313E+02  0.12700000000E+01 0. -1.
         -4   -1    0    0    0  501 -0.00000000000E+00 -0.00000000000E+00 -0.86332025420E+02  0.86341366176E+02  0.12700000000E+01 0. -1.
         25    2    1    2    0    0  0.00000000000E+00  0.00000000000E+00 -0.41105154808E+02  0.13158606449E+03  0.12500103446E+03 0.  0.
    9000005    1    3    3    0    0 -0.30042749950E+02 -0.54659150784E+01  0.36843784760E+02  0.47863425783E+02  0.10000000000E+01 0.  0.
    9000005    1    3    3    0    0  0.30042749950E+02  0.54659150784E+01 -0.77948939568E+02  0.83722638706E+02  0.10000000000E+01 0.  0.
<mgrwt>
<rscale>  0 0.12500103E+03</rscale>
<asrwt>0</asrwt>
<pdfrwt beam="1">  1        4 0.69600700E-02 0.12500103E+03</pdfrwt>
<pdfrwt beam="2">  1       -4 0.13283940E-01 0.12500103E+03</pdfrwt>
<totfact> 0.10310301E+04</totfact>
</mgrwt>
</event>
<event>
 5    1  0.3236337E-002  0.1249997E+03  0.7818608E-02  0.1235070E+00
          4   -1    0    0  501    0  0.00000000000E+00  0.00000000000E+00  0.84425353051E+02  0.84434904736E+02  0.12700000000E+01 0.  1.
         -4   -1    0    0    0  501 -0.00000000000E+00 -0.00000000000E+00 -0.46247598818E+02  0.46265033194E+02  0.12700000000E+01 0.  1.
         25    2    1    2    0    0  0.00000000000E+00  0.00000000000E+00  0.38177754233E+02  0.13069993793E+03  0.12499973143E+03 0.  0.
    9000005    1    3    3    0    0  0.27001214627E+02  0.11651443395E+02 -0.38565526482E+02  0.48508984295E+02  0.10000000000E+01 0.  0.
    9000005    1    3    3    0    0 -0.27001214627E+02 -0.11651443395E+02  0.76743280715E+02  0.82190953635E+02  0.10000000000E+01 0.  0.
<mgrwt>
<rscale>  0 0.12499973E+03</rscale>
<asrwt>0</asrwt>
<pdfrwt beam="1">  1        4 0.12990592E-01 0.12499973E+03</pdfrwt>
<pdfrwt beam="2">  1       -4 0.71170910E-02 0.12499973E+03</pdfrwt>
<totfact> 0.10329589E+04</totfact>
</mgrwt>
</event>
<event>
 5    1  0.3236337E-002  0.1249996E+03  0.7818608E-02  0.1235070E+00
          4   -1    0    0  501    0  0.00000000000E+00  0.00000000000E+00  0.58485500454E+02  0.58499287716E+02  0.12700000000E+01 0.  1.
         -4   -1    0    0    0  501 -0.00000000000E+00 -0.00000000000E+00 -0.66761899994E+02  0.66773978396E+02  0.12700000000E+01 0.  1.
         25    2    1    2    0    0  0.00000000000E+00  0.00000000000E+00 -0.82763995405E+01  0.12527326611E+03  0.12499956965E+03 0.  0.
    9000005    1    3    3    0    0 -0.46654739349E+02  0.38646143937E+02  0.11226185545E+02  0.61621557809E+02  0.10000000000E+01 0.  0.
    9000005    1    3    3    0    0  0.46654739349E+02 -0.38646143937E+02 -0.19502585085E+02  0.63651708303E+02  0.10000000000E+01 0.  0.
<mgrwt>
<rscale>  0 0.12499957E+03</rscale>
<asrwt>0</asrwt>
<pdfrwt beam="1">  1        4 0.89997590E-02 0.12499957E+03</pdfrwt>
<pdfrwt beam="2">  1       -4 0.10273051E-01 0.12499957E+03</pdfrwt>
<totfact> 0.10447032E+04</totfact>
</mgrwt>
</event>
<event>
 5    1  0.3236337E-002  0.1250025E+03  0.7818608E-02  0.1235065E+00
          4   -1    0    0  501    0  0.00000000000E+00  0.00000000000E+00  0.30427480273E+03  0.30427745311E+03  0.12700000000E+01 0. -1.
         -4   -1    0    0    0  501 -0.00000000000E+00 -0.00000000000E+00 -0.12804304219E+02  0.12867132801E+02  0.12700000000E+01 0. -1.
         25    2    1    2    0    0  0.00000000000E+00  0.00000000000E+00  0.29147049851E+03  0.31714458592E+03  0.12500254748E+03 0.  0.
    9000005    1    3    3    0    0 -0.94716765436E+01 -0.52210193035E+02  0.61980333390E+02  0.81597663204E+02  0.10000000000E+01 0.  0.
    9000005    1    3    3    0    0  0.94716765436E+01  0.52210193035E+02  0.22949016512E+03  0.23554692271E+03  0.10000000000E+01 0.  0.
<mgrwt>
<rscale>  0 0.12500255E+03</rscale>
<asrwt>0</asrwt>
<pdfrwt beam="1">  1        4 0.46816541E-01 0.12500255E+03</pdfrwt>
<pdfrwt beam="2">  1       -4 0.19749300E-02 0.12500255E+03</pdfrwt>
<totfact> 0.73492880E+03</totfact>
</mgrwt>
</event>
<event>
 5    1  0.3236337E-002  0.1249995E+03  0.7818608E-02  0.1235070E+00
          4   -1    0    0  501    0  0.00000000000E+00  0.00000000000E+00  0.19765818740E+03  0.19766226739E+03  0.12700000000E+01 0. -1.
         -4   -1    0    0    0  501 -0.00000000000E+00 -0.00000000000E+00 -0.19737795443E+02  0.19778611401E+02  0.12700000000E+01 0. -1.
         25    2    1    2    0    0  0.00000000000E+00  0.00000000000E+00  0.17792039196E+03  0.21744087879E+03  0.12499947957E+03 0.  0.
    9000005    1    3    3    0    0  0.83565037629E+01  0.34615208885E+02  0.17829122816E+03  0.18181530706E+03  0.10000000000E+01 0.  0.
    9000005    1    3    3    0    0 -0.83565037629E+01 -0.34615208885E+02 -0.37083620372E+00  0.35625571726E+02  0.10000000000E+01 0.  0.
<mgrwt>
<rscale>  0 0.12499948E+03</rscale>
<asrwt>0</asrwt>
<pdfrwt beam="1">  1        4 0.30412404E-01 0.12499948E+03</pdfrwt>
<pdfrwt beam="2">  1       -4 0.30400376E-02 0.12499948E+03</pdfrwt>
<totfact> 0.87275939E+03</totfact>
</mgrwt>
</event>
<event>
 5    1  0.3236337E-002  0.1249971E+03  0.7818608E-02  0.1235074E+00
         -4   -1    0    0    0  501 -0.00000000000E+00  0.00000000000E+00  0.25005644338E+03  0.25005966843E+03  0.12700000000E+01 0.  1.
          4   -1    0    0  501    0  0.00000000000E+00 -0.00000000000E+00 -0.15591603499E+02  0.15643241342E+02  0.12700000000E+01 0.  1.
         25    2    1    2    0    0  0.00000000000E+00  0.00000000000E+00  0.23446483988E+03  0.26570290977E+03  0.12499710045E+03 0.  0.
    9000005    1    3    3    0    0  0.21668853442E+02  0.36153298046E+02  0.21530102472E+03  0.21939036309E+03  0.10000000000E+01 0.  0.
    9000005    1    3    3    0    0 -0.21668853442E+02 -0.36153298046E+02  0.19163815159E+02  0.46312546686E+02  0.10000000000E+01 0.  0.
<mgrwt>
<rscale>  0 0.12499710E+03</rscale>
<asrwt>0</asrwt>
<pdfrwt beam="2">  1        4 0.24029284E-02 0.12499710E+03</pdfrwt>
<pdfrwt beam="1">  1       -4 0.38474443E-01 0.12499710E+03</pdfrwt>
<totfact> 0.80117508E+03</totfact>
</mgrwt>
</event>
<event>
 5    1  0.3236337E-002  0.1249992E+03  0.7818608E-02  0.1235071E+00
          4   -1    0    0  501    0  0.00000000000E+00  0.00000000000E+00  0.34675092953E+03  0.34675325525E+03  0.12700000000E+01 0. -1.
         -4   -1    0    0    0  501 -0.00000000000E+00 -0.00000000000E+00 -0.11226979581E+02  0.11298582677E+02  0.12700000000E+01 0. -1.
         25    2    1    2    0    0  0.00000000000E+00  0.00000000000E+00  0.33552394995E+03  0.35805183793E+03  0.12499919063E+03 0.  0.
    9000005    1    3    3    0    0 -0.65691488859E+00  0.51617514515E+02  0.66878601138E+02  0.84489920298E+02  0.10000000000E+01 0.  0.
    9000005    1    3    3    0    0  0.65691488859E+00 -0.51617514515E+02  0.26864534881E+03  0.27356191763E+03  0.10000000000E+01 0.  0.
<mgrwt>
<rscale>  0 0.12499919E+03</rscale>
<asrwt>0</asrwt>
<pdfrwt beam="1">  1        4 0.53351974E-01 0.12499919E+03</pdfrwt>
<pdfrwt beam="2">  1       -4 0.17329148E-02 0.12499919E+03</pdfrwt>
<totfact> 0.68848982E+03</totfact>
</mgrwt>
</event>
<event>
 5    1  0.3236337E-002  0.1250034E+03  0.7818608E-02  0.1235064E+00
         -4   -1    0    0    0  501 -0.00000000000E+00  0.00000000000E+00  0.37977349673E+02  0.37998578765E+02  0.12700000000E+01 0. -1.
          4   -1    0    0  501    0  0.00000000000E+00 -0.00000000000E+00 -0.10280911498E+03  0.10281695883E+03  0.12700000000E+01 0. -1.
         25    2    1    2    0    0  0.00000000000E+00  0.00000000000E+00 -0.64831765303E+02  0.14081553759E+03  0.12500343129E+03 0.  0.
    9000005    1    3    3    0    0 -0.35455799165E+02  0.29185188076E+02 -0.80163465063E+02  0.92390854679E+02  0.10000000000E+01 0.  0.
    9000005    1    3    3    0    0  0.35455799165E+02 -0.29185188076E+02  0.15331699760E+02  0.48424682911E+02  0.10000000000E+01 0.  0.
<mgrwt>
<rscale>  0 0.12500343E+03</rscale>
<asrwt>0</asrwt>
<pdfrwt beam="2">  1        4 0.15819023E-01 0.12500343E+03</pdfrwt>
<pdfrwt beam="1">  1       -4 0.58449056E-02 0.12500343E+03</pdfrwt>
<totfact> 0.10115929E+04</totfact>
</mgrwt>
</event>
<event>
 5    1  0.3236337E-002  0.1249627E+03  0.7818608E-02  0.1235128E+00
         -4   -1    0    0    0  501 -0.00000000000E+00  0.00000000000E+00  0.61737200871E+02  0.61750262116E+02  0.12700000000E+01 0. -1.
          4   -1    0    0  501    0  0.00000000000E+00 -0.00000000000E+00 -0.63208362267E+02  0.63221119577E+02  0.12700000000E+01 0. -1.
         25    2    1    2    0    0  0.00000000000E+00  0.00000000000E+00 -0.14711613962E+01  0.12497138169E+03  0.12496272215E+03 0.  0.
    9000005    1    3    3    0    0 -0.61284053750E+02  0.67292111718E+01 -0.10830979560E+02  0.62604533744E+02  0.10000000000E+01 0.  0.
    9000005    1    3    3    0    0  0.61284053750E+02 -0.67292111718E+01  0.93598181642E+01  0.62366847949E+02  0.10000000000E+01 0.  0.
<mgrwt>
<rscale>  0 0.12496272E+03</rscale>
<asrwt>0</asrwt>
<pdfrwt beam="2">  1        4 0.97263495E-02 0.12496272E+03</pdfrwt>
<pdfrwt beam="1">  1       -4 0.95000169E-02 0.12496272E+03</pdfrwt>
<totfact> 0.10462296E+04</totfact>
</mgrwt>
</event>
<event>
 5    1  0.3236337E-002  0.1249931E+03  0.7818608E-02  0.1235080E+00
          4   -1    0    0  501    0  0.00000000000E+00  0.00000000000E+00  0.12000655966E+03  0.12001327952E+03  0.12700000000E+01 0.  1.
         -4   -1    0    0    0  501 -0.00000000000E+00 -0.00000000000E+00 -0.32526666962E+02  0.32551451022E+02  0.12700000000E+01 0.  1.
         25    2    1    2    0    0  0.00000000000E+00  0.00000000000E+00  0.87479892702E+02  0.15256473055E+03  0.12499306133E+03 0.  0.
    9000005    1    3    3    0    0 -0.49281543119E+02 -0.37349380982E+02  0.32743181820E+02  0.69976872662E+02  0.10000000000E+01 0.  0.
    9000005    1    3    3    0    0  0.49281543119E+02  0.37349380982E+02  0.54736710882E+02  0.82587857885E+02  0.10000000000E+01 0.  0.
<mgrwt>
<rscale>  0 0.12499306E+03</rscale>
<asrwt>0</asrwt>
<pdfrwt beam="1">  1        4 0.18464971E-01 0.12499306E+03</pdfrwt>
<pdfrwt beam="2">  1       -4 0.50065259E-02 0.12499306E+03</pdfrwt>
<totfact> 0.98810317E+03</totfact>
</mgrwt>
</event>
<event>
 5    1  0.3236337E-002  0.1249990E+03  0.7818608E-02  0.1235071E+00
         -4   -1    0    0    0  501 -0.00000000000E+00  0.00000000000E+00  0.19116590275E+03  0.19117012129E+03  0.12700000000E+01 0. -1.
          4   -1    0    0  501    0  0.00000000000E+00 -0.00000000000E+00 -0.20409319328E+02  0.20448794963E+02  0.12700000000E+01 0. -1.
         25    2    1    2    0    0  0.00000000000E+00  0.00000000000E+00  0.17075658342E+03  0.21161891626E+03  0.12499901973E+03 0.  0.
    9000005    1    3    3    0    0  0.47516863578E+02 -0.37508244813E+02  0.59125438717E+02  0.84625872266E+02  0.10000000000E+01 0.  0.
    9000005    1    3    3    0    0 -0.47516863578E+02  0.37508244813E+02  0.11163114471E+03  0.12699304399E+03  0.10000000000E+01 0.  0.
<mgrwt>
<rscale>  0 0.12499902E+03</rscale>
<asrwt>0</asrwt>
<pdfrwt beam="2">  1        4 0.31432564E-02 0.12499902E+03</pdfrwt>
<pdfrwt beam="1">  1       -4 0.29413499E-01 0.12499902E+03</pdfrwt>
<totfact> 0.88214104E+03</totfact>
</mgrwt>
</event>
<event>
 5    1  0.3236337E-002  0.1250029E+03  0.7818608E-02  0.1235065E+00
         -4   -1    0    0    0  501 -0.00000000000E+00  0.00000000000E+00  0.45258159756E+02  0.45275975136E+02  0.12700000000E+01 0. -1.
          4   -1    0    0  501    0  0.00000000000E+00 -0.00000000000E+00 -0.86274900318E+02  0.86284247258E+02  0.12700000000E+01 0. -1.
         25    2    1    2    0    0  0.00000000000E+00  0.00000000000E+00 -0.41016740562E+02  0.13156022239E+03  0.12500287641E+03 0.  0.
    9000005    1    3    3    0    0 -0.14972542688E+02 -0.31986831084E+02 -0.74769630085E+02  0.82697230790E+02  0.10000000000E+01 0.  0.
    9000005    1    3    3    0    0  0.14972542688E+02  0.31986831084E+02  0.33752889523E+02  0.48862991604E+02  0.10000000000E+01 0.  0.
<mgrwt>
<rscale>  0 0.12500288E+03</rscale>
<asrwt>0</asrwt>
<pdfrwt beam="2">  1        4 0.13275151E-01 0.12500288E+03</pdfrwt>
<pdfrwt beam="1">  1       -4 0.69648832E-02 0.12500288E+03</pdfrwt>
<totfact> 0.10310425E+04</totfact>
</mgrwt>
</event>
<event>
 5    1  0.3236337E-002  0.1250103E+03  0.7818608E-02  0.1235053E+00
          4   -1    0    0  501    0  0.00000000000E+00  0.00000000000E+00  0.26061969026E+03  0.26062278460E+03  0.12700000000E+01 0. -1.
         -4   -1    0    0    0  501 -0.00000000000E+00 -0.00000000000E+00 -0.14960688689E+02  0.15014496530E+02  0.12700000000E+01 0. -1.
         25    2    1    2    0    0  0.00000000000E+00  0.00000000000E+00  0.24565900157E+03  0.27563728113E+03  0.12501026235E+03 0.  0.
    9000005    1    3    3    0    0  0.21712212525E+02  0.58496562847E+02  0.11499556119E+03  0.13083671935E+03  0.10000000000E+01 0.  0.
    9000005    1    3    3    0    0 -0.21712212525E+02 -0.58496562847E+02  0.13066344038E+03  0.14480056177E+03  0.10000000000E+01 0.  0.
<mgrwt>
<rscale>  0 0.12501026E+03</rscale>
<asrwt>0</asrwt>
<pdfrwt beam="1">  1        4 0.40099711E-01 0.12501026E+03</pdfrwt>
<pdfrwt beam="2">  1       -4 0.23060217E-02 0.12501026E+03</pdfrwt>
<totfact> 0.78742181E+03</totfact>
</mgrwt>
</event>
<event>
 5    1  0.3236337E-002  0.1249982E+03  0.7818608E-02  0.1235072E+00
          4   -1    0    0  501    0  0.00000000000E+00  0.00000000000E+00  0.42651087472E+02  0.42669991358E+02  0.12700000000E+01 0. -1.
         -4   -1    0    0    0  501 -0.00000000000E+00 -0.00000000000E+00 -0.91539876924E+02  0.91548686322E+02  0.12700000000E+01 0. -1.
         25    2    1    2    0    0  0.00000000000E+00  0.00000000000E+00 -0.48888789452E+02  0.13421867768E+03  0.12499815880E+03 0.  0.
    9000005    1    3    3    0    0 -0.43024453415E+02 -0.44008845767E+02 -0.12817305532E+02  0.62874203125E+02  0.10000000000E+01 0.  0.
    9000005    1    3    3    0    0  0.43024453415E+02  0.44008845767E+02 -0.36071483920E+02  0.71344474556E+02  0.10000000000E+01 0.  0.
<mgrwt>
<rscale>  0 0.12499816E+03</rscale>
<asrwt>0</asrwt>
<pdfrwt beam="1">  1        4 0.65638376E-02 0.12499816E+03</pdfrwt>
<pdfrwt beam="2">  1       -4 0.14085190E-01 0.12499816E+03</pdfrwt>
<totfact> 0.10254991E+04</totfact>
</mgrwt>
</event>
<event>
 5    1  0.3236337E-002  0.1250022E+03  0.7818608E-02  0.1235066E+00
          4   -1    0    0  501    0  0.00000000000E+00  0.00000000000E+00  0.19551013642E+02  0.19592218722E+02  0.12700000000E+01 0. -1.
         -4   -1    0    0    0  501 -0.00000000000E+00 -0.00000000000E+00 -0.19955132299E+03  0.19955536426E+03  0.12700000000E+01 0. -1.
         25    2    1    2    0    0  0.00000000000E+00  0.00000000000E+00 -0.18000030935E+03  0.21914758299E+03  0.12500220704E+03 0.  0.
    9000005    1    3    3    0    0 -0.52377735897E+02  0.23146536769E+02 -0.46129406995E+02  0.73539863827E+02  0.10000000000E+01 0.  0.
    9000005    1    3    3    0    0  0.52377735897E+02 -0.23146536769E+02 -0.13387090235E+03  0.14560771916E+03  0.10000000000E+01 0.  0.
<mgrwt>
<rscale>  0 0.12500221E+03</rscale>
<asrwt>0</asrwt>
<pdfrwt beam="1">  1        4 0.30113289E-02 0.12500221E+03</pdfrwt>
<pdfrwt beam="2">  1       -4 0.30703683E-01 0.12500221E+03</pdfrwt>
<totfact> 0.86999125E+03</totfact>
</mgrwt>
</event>
<event>
 4    1  0.3236337E-002  0.1252635E+03  0.7818608E-02  0.1234658E+00
         -4   -1    0    0    0  501 -0.00000000000E+00  0.00000000000E+00  0.61392301794E+02  0.61405436400E+02  0.12700000000E+01 0.  1.
          4   -1    0    0  501    0  0.00000000000E+00 -0.00000000000E+00 -0.63869921943E+02  0.63882547139E+02  0.12700000000E+01 0.  1.
    9000005    1    1    2    0    0 -0.14187133288E+02 -0.44344035300E+02  0.40650962686E+02  0.61815604704E+02  0.10000000000E+01 0.  0.
    9000005    1    1    2    0    0  0.14187133288E+02  0.44344035300E+02 -0.43128582836E+02  0.63472378835E+02  0.10000000000E+01 0.  0.
<mgrwt>
<rscale>  0 0.12526348E+03</rscale>
<asrwt>0</asrwt>
<pdfrwt beam="2">  1        4 0.98281234E-02 0.12526348E+03</pdfrwt>
<pdfrwt beam="1">  1       -4 0.94469510E-02 0.12526348E+03</pdfrwt>
<totfact> 0.10384647E+04</totfact>
</mgrwt>
</event>
<event>
 5    1  0.3236337E-002  0.1249986E+03  0.7818608E-02  0.1235071E+00
         -4   -1    0    0    0  501 -0.00000000000E+00  0.00000000000E+00  0.44241684790E+02  0.44259909320E+02  0.12700000000E+01 0.  1.
          4   -1    0    0  501    0  0.00000000000E+00 -0.00000000000E+00 -0.88250507149E+02  0.88259644867E+02  0.12700000000E+01 0.  1.
         25    2    1    2    0    0  0.00000000000E+00  0.00000000000E+00 -0.44008822359E+02  0.13251955419E+03  0.12499862318E+03 0.  0.
    9000005    1    3    3    0    0  0.42796581702E+02 -0.52512917077E+01  0.25950362708E+02  0.50334330180E+02  0.10000000000E+01 0.  0.
    9000005    1    3    3    0    0 -0.42796581702E+02  0.52512917077E+01 -0.69959185067E+02  0.82185224008E+02  0.10000000000E+01 0.  0.
<mgrwt>
<rscale>  0 0.12499862E+03</rscale>
<asrwt>0</asrwt>
<pdfrwt beam="2">  1        4 0.13579106E-01 0.12499862E+03</pdfrwt>
<pdfrwt beam="1">  1       -4 0.68085179E-02 0.12499862E+03</pdfrwt>
<totfact> 0.10290941E+04</totfact>
</mgrwt>
</event>
<event>
 5    1  0.3236337E-002  0.1249992E+03  0.7818608E-02  0.1235071E+00
         -4   -1    0    0    0  501 -0.00000000000E+00  0.00000000000E+00  0.10799957495E+03  0.10800704185E+03  0.12700000000E+01 0. -1.
          4   -1    0    0  501    0  0.00000000000E+00 -0.00000000000E+00 -0.36148803720E+02  0.36171106015E+02  0.12700000000E+01 0. -1.
         25    2    1    2    0    0  0.00000000000E+00  0.00000000000E+00  0.71850771232E+02  0.14417814787E+03  0.12499921998E+03 0.  0.
    9000005    1    3    3    0    0  0.28976691733E+02  0.11610470574E+02 -0.26517288481E+02  0.40970944328E+02  0.10000000000E+01 0.  0.
    9000005    1    3    3    0    0 -0.28976691733E+02 -0.11610470574E+02  0.98368059713E+02  0.10320720354E+03  0.10000000000E+01 0.  0.
<mgrwt>
<rscale>  0 0.12499922E+03</rscale>
<asrwt>0</asrwt>
<pdfrwt beam="2">  1        4 0.55636443E-02 0.12499922E+03</pdfrwt>
<pdfrwt beam="1">  1       -4 0.16617609E-01 0.12499922E+03</pdfrwt>
<totfact> 0.10047890E+04</totfact>
</mgrwt>
</event>
<event>
 5    1  0.3236337E-002  0.1249983E+03  0.7818608E-02  0.1235072E+00
          4   -1    0    0  501    0  0.00000000000E+00  0.00000000000E+00  0.23124525842E+02  0.23159373813E+02  0.12700000000E+01 0.  1.
         -4   -1    0    0    0  501 -0.00000000000E+00 -0.00000000000E+00 -0.16875337411E+03  0.16875815291E+03  0.12700000000E+01 0.  1.
         25    2    1    2    0    0  0.00000000000E+00  0.00000000000E+00 -0.14562884827E+03  0.19191752672E+03  0.12499830245E+03 0.  0.
    9000005    1    3    3    0    0 -0.58683227319E+02  0.69592612675E+01 -0.10401632384E+03  0.11963506222E+03  0.10000000000E+01 0.  0.
    9000005    1    3    3    0    0  0.58683227319E+02 -0.69592612675E+01 -0.41612524426E+02  0.72282464506E+02  0.10000000000E+01 0.  0.
<mgrwt>
<rscale>  0 0.12499830E+03</rscale>
<asrwt>0</asrwt>
<pdfrwt beam="1">  1        4 0.35606677E-02 0.12499830E+03</pdfrwt>
<pdfrwt beam="2">  1       -4 0.25965105E-01 0.12499830E+03</pdfrwt>
<totfact> 0.91518217E+03</totfact>
</mgrwt>
</event>
<event>
 5    1  0.3236337E-002  0.1250002E+03  0.7818608E-02  0.1235069E+00
         -4   -1    0    0    0  501 -0.00000000000E+00  0.00000000000E+00  0.88460687048E+01  0.89367685172E+01  0.12700000000E+01 0. -1.
          4   -1    0    0  501    0  0.00000000000E+00 -0.00000000000E+00 -0.43923803076E+03  0.43923986677E+03  0.12700000000E+01 0. -1.
         25    2    1    2    0    0  0.00000000000E+00  0.00000000000E+00 -0.43039196205E+03  0.44817663529E+03  0.12500022169E+03 0.  0.
    9000005    1    3    3    0    0 -0.27485031834E+02  0.43678518076E+02 -0.34155417557E+03  0.34543233022E+03  0.10000000000E+01 0.  0.
    9000005    1    3    3    0    0  0.27485031834E+02 -0.43678518076E+02 -0.88837786485E+02  0.10274430507E+03  0.10000000000E+01 0.  0.
<mgrwt>
<rscale>  0 0.12500022E+03</rscale>
<asrwt>0</asrwt>
<pdfrwt beam="2">  1        4 0.67582183E-01 0.12500022E+03</pdfrwt>
<pdfrwt beam="1">  1       -4 0.13680521E-02 0.12500022E+03</pdfrwt>
<totfact> 0.60121793E+03</totfact>
</mgrwt>
</event>
<event>
 5    1  0.3236337E-002  0.1250224E+03  0.7818608E-02  0.1235034E+00
         -4   -1    0    0    0  501 -0.00000000000E+00  0.00000000000E+00  0.45137080358E+03  0.45137259024E+03  0.12700000000E+01 0. -1.
          4   -1    0    0  501    0  0.00000000000E+00 -0.00000000000E+00 -0.86089043985E+01  0.87020764730E+01  0.12700000000E+01 0. -1.
         25    2    1    2    0    0  0.00000000000E+00  0.00000000000E+00  0.44276189918E+03  0.46007466672E+03  0.12502239635E+03 0.  0.
    9000005    1    3    3    0    0  0.19641157756E+02 -0.19983464083E+02  0.42698168985E+03  0.42790124723E+03  0.10000000000E+01 0.  0.
    9000005    1    3    3    0    0 -0.19641157756E+02  0.19983464083E+02  0.15780209327E+02  0.32173419482E+02  0.10000000000E+01 0.  0.
<mgrwt>
<rscale>  0 0.12502240E+03</rscale>
<asrwt>0</asrwt>
<pdfrwt beam="2">  1        4 0.13317513E-02 0.12502240E+03</pdfrwt>
<pdfrwt beam="1">  1       -4 0.69448967E-01 0.12502240E+03</pdfrwt>
<totfact> 0.59071719E+03</totfact>
</mgrwt>
</event>
<event>
 5    1  0.3236337E-002  0.1249997E+03  0.7818608E-02  0.1235070E+00
          4   -1    0    0  501    0  0.00000000000E+00  0.00000000000E+00  0.11000282400E+03  0.11001015493E+03  0.12700000000E+01 0.  1.
         -4   -1    0    0    0  501 -0.00000000000E+00 -0.00000000000E+00 -0.35490403814E+02  0.35513119588E+02  0.12700000000E+01 0.  1.
         25    2    1    2    0    0  0.00000000000E+00  0.00000000000E+00  0.74512420182E+02  0.14552327452E+03  0.12499969066E+03 0.  0.
    9000005    1    3    3    0    0  0.56325174505E+02 -0.21863079554E+02  0.55836286096E+02  0.82275211186E+02  0.10000000000E+01 0.  0.
    9000005    1    3    3    0    0 -0.56325174505E+02  0.21863079554E+02  0.18676134086E+02  0.63248063330E+02  0.10000000000E+01 0.  0.
<mgrwt>
<rscale>  0 0.12499969E+03</rscale>
<asrwt>0</asrwt>
<pdfrwt beam="1">  1        4 0.16925822E-01 0.12499969E+03</pdfrwt>
<pdfrwt beam="2">  1       -4 0.54623735E-02 0.12499969E+03</pdfrwt>
<totfact> 0.10020437E+04</totfact>
</mgrwt>
</event>
<event>
 5    1  0.3236337E-002  0.1250021E+03  0.7818608E-02  0.1235066E+00
          4   -1    0    0  501    0  0.00000000000E+00  0.00000000000E+00  0.50986493239E+03  0.50986651408E+03  0.12700000000E+01 0.  1.
         -4   -1    0    0    0  501 -0.00000000000E+00 -0.00000000000E+00 -0.76073634838E+01  0.77126441104E+01  0.12700000000E+01 0.  1.
         25    2    1    2    0    0  0.00000000000E+00  0.00000000000E+00  0.50225756891E+03  0.51757915819E+03  0.12500207786E+03 0.  0.
    9000005    1    3    3    0    0 -0.69825203057E+01 -0.54516411357E+02  0.12798021395E+03  0.13928650279E+03  0.10000000000E+01 0.  0.
    9000005    1    3    3    0    0  0.69825203057E+01  0.54516411357E+02  0.37427735496E+03  0.37829265540E+03  0.10000000000E+01 0.  0.
<mgrwt>
<rscale>  0 0.12500208E+03</rscale>
<asrwt>0</asrwt>
<pdfrwt beam="1">  1        4 0.78448954E-01 0.12500208E+03</pdfrwt>
<pdfrwt beam="2">  1       -4 0.11785842E-02 0.12500208E+03</pdfrwt>
<totfact> 0.54523299E+03</totfact>
</mgrwt>
</event>
<event>
 5    1  0.3236337E-002  0.1250041E+03  0.7818608E-02  0.1235063E+00
         -4   -1    0    0    0  501 -0.00000000000E+00  0.00000000000E+00  0.16813314621E+02  0.16861211360E+02  0.12700000000E+01 0.  1.
          4   -1    0    0  501    0  0.00000000000E+00 -0.00000000000E+00 -0.23196589894E+03  0.23196937550E+03  0.12700000000E+01 0.  1.
         25    2    1    2    0    0  0.00000000000E+00  0.00000000000E+00 -0.21515258432E+03  0.24883058686E+03  0.12500410561E+03 0.  0.
    9000005    1    3    3    0    0 -0.44570342148E+02  0.37881853817E+02 -0.63785521709E+02  0.86551389518E+02  0.10000000000E+01 0.  0.
    9000005    1    3    3    0    0  0.44570342148E+02 -0.37881853817E+02 -0.15136706261E+03  0.16227919735E+03  0.10000000000E+01 0.  0.
<mgrwt>
<rscale>  0 0.12500411E+03</rscale>
<asrwt>0</asrwt>
<pdfrwt beam="2">  1        4 0.35691011E-01 0.12500411E+03</pdfrwt>
<pdfrwt beam="1">  1       -4 0.25906157E-02 0.12500411E+03</pdfrwt>
<totfact> 0.82491994E+03</totfact>
</mgrwt>
</event>
<event>
 5    1  0.3236337E-002  0.1250013E+03  0.7818608E-02  0.1235067E+00
          4   -1    0    0  501    0  0.00000000000E+00  0.00000000000E+00  0.33680942296E+02  0.33704877599E+02  0.12700000000E+01 0. -1.
         -4   -1    0    0    0  501 -0.00000000000E+00 -0.00000000000E+00 -0.11591183904E+03  0.11591879627E+03  0.12700000000E+01 0. -1.
         25    2    1    2    0    0  0.00000000000E+00  0.00000000000E+00 -0.82230896743E+02  0.14962367387E+03  0.12500129361E+03 0.  0.
    9000005    1    3    3    0    0  0.25384427248E+01 -0.14738328901E+02  0.31513234221E+02  0.34896217006E+02  0.10000000000E+01 0.  0.
    9000005    1    3    3    0    0 -0.25384427248E+01  0.14738328901E+02 -0.11374413096E+03  0.11472745687E+03  0.10000000000E+01 0.  0.
<mgrwt>
<rscale>  0 0.12500129E+03</rscale>
<asrwt>0</asrwt>
<pdfrwt beam="1">  1        4 0.51840598E-02 0.12500129E+03</pdfrwt>
<pdfrwt beam="2">  1       -4 0.17834967E-01 0.12500129E+03</pdfrwt>
<totfact> 0.99375872E+03</totfact>
</mgrwt>
</event>
<event>
 5    1  0.3236337E-002  0.1250001E+03  0.7818608E-02  0.1235069E+00
          4   -1    0    0  501    0  0.00000000000E+00  0.00000000000E+00  0.69192641986E+02  0.69204296145E+02  0.12700000000E+01 0.  1.
         -4   -1    0    0    0  501 -0.00000000000E+00 -0.00000000000E+00 -0.56431278713E+02  0.56445567737E+02  0.12700000000E+01 0.  1.
         25    2    1    2    0    0  0.00000000000E+00  0.00000000000E+00  0.12761363273E+02  0.12564986388E+03  0.12500014360E+03 0.  0.
    9000005    1    3    3    0    0  0.50808565503E+02  0.56264619413E+01  0.42513193795E+02  0.66494654290E+02  0.10000000000E+01 0.  0.
    9000005    1    3    3    0    0 -0.50808565503E+02 -0.56264619413E+01 -0.29751830522E+02  0.59155209592E+02  0.10000000000E+01 0.  0.
<mgrwt>
<rscale>  0 0.12500014E+03</rscale>
<asrwt>0</asrwt>
<pdfrwt beam="1">  1        4 0.10647018E-01 0.12500014E+03</pdfrwt>
<pdfrwt beam="2">  1       -4 0.86837308E-02 0.12500014E+03</pdfrwt>
<totfact> 0.10438614E+04</totfact>
</mgrwt>
</event>
<event>
 5    1  0.3236337E-002  0.1249996E+03  0.7818608E-02  0.1235070E+00
          4   -1    0    0  501    0  0.00000000000E+00  0.00000000000E+00  0.74186684816E+02  0.74197554569E+02  0.12700000000E+01 0. -1.
         -4   -1    0    0    0  501 -0.00000000000E+00 -0.00000000000E+00 -0.52631618208E+02  0.52646938517E+02  0.12700000000E+01 0. -1.
         25    2    1    2    0    0  0.00000000000E+00  0.00000000000E+00  0.21555066608E+02  0.12684449309E+03  0.12499961812E+03 0.  0.
    9000005    1    3    3    0    0 -0.12850843336E+02 -0.53508736490E+02 -0.19271966156E+02  0.58315844628E+02  0.10000000000E+01 0.  0.
    9000005    1    3    3    0    0  0.12850843336E+02  0.53508736490E+02  0.40827032764E+02  0.68528648458E+02  0.10000000000E+01 0.  0.
<mgrwt>
<rscale>  0 0.12499962E+03</rscale>
<asrwt>0</asrwt>
<pdfrwt beam="1">  1        4 0.11415351E-01 0.12499962E+03</pdfrwt>
<pdfrwt beam="2">  1       -4 0.80991867E-02 0.12499962E+03</pdfrwt>
<totfact> 0.10412616E+04</totfact>
</mgrwt>
</event>
<event>
 5    1  0.3236337E-002  0.1249991E+03  0.7818608E-02  0.1235071E+00
         -4   -1    0    0    0  501 -0.00000000000E+00  0.00000000000E+00  0.26595070196E+02  0.26625376218E+02  0.12700000000E+01 0.  1.
          4   -1    0    0  501    0  0.00000000000E+00 -0.00000000000E+00 -0.14675999921E+03  0.14676549413E+03  0.12700000000E+01 0.  1.
         25    2    1    2    0    0  0.00000000000E+00  0.00000000000E+00 -0.12016492901E+03  0.17339087035E+03  0.12499913502E+03 0.  0.
    9000005    1    3    3    0    0 -0.47819640299E+02 -0.40189487480E+02 -0.62595838326E+02  0.88437276519E+02  0.10000000000E+01 0.  0.
    9000005    1    3    3    0    0  0.47819640299E+02  0.40189487480E+02 -0.57569090685E+02  0.84953593830E+02  0.10000000000E+01 0.  0.
<mgrwt>
<rscale>  0 0.12499914E+03</rscale>
<asrwt>0</asrwt>
<pdfrwt beam="2">  1        4 0.22581215E-01 0.12499914E+03</pdfrwt>
<pdfrwt beam="1">  1       -4 0.40943033E-02 0.12499914E+03</pdfrwt>
<totfact> 0.94822218E+03</totfact>
</mgrwt>
</event>
<event>
 5    1  0.3236337E-002  0.1249959E+03  0.7818608E-02  0.1235076E+00
          4   -1    0    0  501    0  0.00000000000E+00  0.00000000000E+00  0.29278341028E+03  0.29278616469E+03  0.12700000000E+01 0. -1.
         -4   -1    0    0    0  501 -0.00000000000E+00 -0.00000000000E+00 -0.13307859916E+02  0.13368322092E+02  0.12700000000E+01 0. -1.
         25    2    1    2    0    0  0.00000000000E+00  0.00000000000E+00  0.27947555036E+03  0.30615448678E+03  0.12499594604E+03 0.  0.
    9000005    1    3    3    0    0  0.53940266156E+02  0.79492580966E+00  0.21699076533E+03  0.22359824788E+03  0.10000000000E+01 0.  0.
    9000005    1    3    3    0    0 -0.53940266156E+02 -0.79492580966E+00  0.62484785038E+02  0.82556238899E+02  0.10000000000E+01 0.  0.
<mgrwt>
<rscale>  0 0.12499595E+03</rscale>
<asrwt>0</asrwt>
<pdfrwt beam="1">  1        4 0.45048458E-01 0.12499595E+03</pdfrwt>
<pdfrwt beam="2">  1       -4 0.20522262E-02 0.12499595E+03</pdfrwt>
<totfact> 0.74839996E+03</totfact>
</mgrwt>
</event>
<event>
 5    1  0.3236337E-002  0.1249968E+03  0.7818608E-02  0.1235074E+00
         -4   -1    0    0    0  501 -0.00000000000E+00  0.00000000000E+00  0.15203849295E+03  0.15204379710E+03  0.12700000000E+01 0. -1.
          4   -1    0    0  501    0  0.00000000000E+00 -0.00000000000E+00 -0.25669759046E+02  0.25701156190E+02  0.12700000000E+01 0. -1.
         25    2    1    2    0    0  0.00000000000E+00  0.00000000000E+00  0.12636873390E+03  0.17774495329E+03  0.12499684601E+03 0.  0.
    9000005    1    3    3    0    0  0.32713897595E+01  0.23500198557E+02 -0.19022367233E+02  0.30427155278E+02  0.10000000000E+01 0.  0.
    9000005    1    3    3    0    0 -0.32713897595E+01 -0.23500198557E+02  0.14539110113E+03  0.14731779801E+03  0.10000000000E+01 0.  0.
<mgrwt>
<rscale>  0 0.12499685E+03</rscale>
<asrwt>0</asrwt>
<pdfrwt beam="2">  1        4 0.39520170E-02 0.12499685E+03</pdfrwt>
<pdfrwt beam="1">  1       -4 0.23393360E-01 0.12499685E+03</pdfrwt>
<totfact> 0.94031152E+03</totfact>
</mgrwt>
</event>
<event>
 5    1  0.3236337E-002  0.1250006E+03  0.7818608E-02  0.1235068E+00
         -4   -1    0    0    0  501 -0.00000000000E+00  0.00000000000E+00  0.10870143561E+02  0.10944081553E+02  0.12700000000E+01 0.  1.
          4   -1    0    0  501    0  0.00000000000E+00 -0.00000000000E+00 -0.35806627661E+03  0.35806852884E+03  0.12700000000E+01 0.  1.
         25    2    1    2    0    0  0.00000000000E+00  0.00000000000E+00 -0.34719613305E+03  0.36901261040E+03  0.12500060730E+03 0.  0.
    9000005    1    3    3    0    0  0.61761008090E+02 -0.42084551561E+01 -0.19884742356E+03  0.20826288933E+03  0.10000000000E+01 0.  0.
    9000005    1    3    3    0    0 -0.61761008090E+02  0.42084551561E+01 -0.14834870949E+03  0.16074972107E+03  0.10000000000E+01 0.  0.
<mgrwt>
<rscale>  0 0.12500061E+03</rscale>
<asrwt>0</asrwt>
<pdfrwt beam="2">  1        4 0.55092971E-01 0.12500061E+03</pdfrwt>
<pdfrwt beam="1">  1       -4 0.16781908E-02 0.12500061E+03</pdfrwt>
<totfact> 0.67681458E+03</totfact>
</mgrwt>
</event>
<event>
 5    1  0.3236337E-002  0.1250001E+03  0.7818608E-02  0.1235069E+00
          4   -1    0    0  501    0  0.00000000000E+00  0.00000000000E+00  0.88645428789E+01  0.89550555806E+01  0.12700000000E+01 0.  1.
         -4   -1    0    0    0  501 -0.00000000000E+00 -0.00000000000E+00 -0.43833094204E+03  0.43833278186E+03  0.12700000000E+01 0.  1.
         25    2    1    2    0    0  0.00000000000E+00  0.00000000000E+00 -0.42946639917E+03  0.44728783744E+03  0.12500008604E+03 0.  0.
    9000005    1    3    3    0    0  0.17349138084E+02 -0.59420830569E+02 -0.24539563738E+03  0.25308466279E+03  0.10000000000E+01 0.  0.
    9000005    1    3    3    0    0 -0.17349138084E+02  0.59420830569E+02 -0.18407076179E+03  0.19420317465E+03  0.10000000000E+01 0.  0.
<mgrwt>
<rscale>  0 0.12500009E+03</rscale>
<asrwt>0</asrwt>
<pdfrwt beam="1">  1        4 0.13708802E-02 0.12500009E+03</pdfrwt>
<pdfrwt beam="2">  1       -4 0.67442617E-01 0.12500009E+03</pdfrwt>
<totfact> 0.60199364E+03</totfact>
</mgrwt>
</event>
<event>
 5    1  0.3236337E-002  0.1250015E+03  0.7818608E-02  0.1235067E+00
          4   -1    0    0  501    0  0.00000000000E+00  0.00000000000E+00  0.71573894114E+02  0.71585160603E+02  0.12700000000E+01 0. -1.
         -4   -1    0    0    0  501 -0.00000000000E+00 -0.00000000000E+00 -0.54554778032E+02  0.54569558420E+02  0.12700000000E+01 0. -1.
         25    2    1    2    0    0  0.00000000000E+00  0.00000000000E+00  0.17019116081E+02  0.12615471902E+03  0.12500145127E+03 0.  0.
    9000005    1    3    3    0    0  0.40391926367E+02 -0.13527669428E+02  0.54657075380E+02  0.69302968514E+02  0.10000000000E+01 0.  0.
    9000005    1    3    3    0    0 -0.40391926367E+02  0.13527669428E+02 -0.37637959298E+02  0.56851750509E+02  0.10000000000E+01 0.  0.
<mgrwt>
<rscale>  0 0.12500145E+03</rscale>
<asrwt>0</asrwt>
<pdfrwt beam="1">  1        4 0.11013372E-01 0.12500145E+03</pdfrwt>
<pdfrwt beam="2">  1       -4 0.83950464E-02 0.12500145E+03</pdfrwt>
<totfact> 0.10427228E+04</totfact>
</mgrwt>
</event>
<event>
 5    1  0.3236337E-002  0.1249962E+03  0.7818608E-02  0.1235075E+00
         -4   -1    0    0    0  501 -0.00000000000E+00  0.00000000000E+00  0.12238687995E+02  0.12304405058E+02  0.12700000000E+01 0. -1.
          4   -1    0    0  501    0  0.00000000000E+00 -0.00000000000E+00 -0.31823143194E+03  0.31823396609E+03  0.12700000000E+01 0. -1.
         25    2    1    2    0    0  0.00000000000E+00  0.00000000000E+00 -0.30599274394E+03  0.33053837115E+03  0.12499622176E+03 0.  0.
    9000005    1    3    3    0    0  0.38112573072E+02  0.15264627260E+01 -0.28388993207E+03  0.28644265018E+03  0.10000000000E+01 0.  0.
    9000005    1    3    3    0    0 -0.38112573072E+02 -0.15264627260E+01 -0.22102811876E+02  0.44095720965E+02  0.10000000000E+01 0.  0.
<mgrwt>
<rscale>  0 0.12499622E+03</rscale>
<asrwt>0</asrwt>
<pdfrwt beam="2">  1        4 0.48963926E-01 0.12499622E+03</pdfrwt>
<pdfrwt beam="1">  1       -4 0.18881254E-02 0.12499622E+03</pdfrwt>
<totfact> 0.71926034E+03</totfact>
</mgrwt>
</event>
<event>
 5    1  0.3236337E-002  0.1249965E+03  0.7818608E-02  0.1235075E+00
         -4   -1    0    0    0  501 -0.00000000000E+00  0.00000000000E+00  0.15523016683E+03  0.15523536193E+03  0.12700000000E+01 0.  1.
          4   -1    0    0  501    0  0.00000000000E+00 -0.00000000000E+00 -0.25141173955E+02  0.25173230382E+02  0.12700000000E+01 0.  1.
         25    2    1    2    0    0  0.00000000000E+00  0.00000000000E+00  0.13008899288E+03  0.18040859232E+03  0.12499645640E+03 0.  0.
    9000005    1    3    3    0    0  0.36518014615E+02 -0.43011204287E+02  0.26276128665E+02  0.62249209017E+02  0.10000000000E+01 0.  0.
    9000005    1    3    3    0    0 -0.36518014615E+02  0.43011204287E+02  0.10381286421E+03  0.11815938330E+03  0.10000000000E+01 0.  0.
<mgrwt>
<rscale>  0 0.12499646E+03</rscale>
<asrwt>0</asrwt>
<pdfrwt beam="2">  1        4 0.38707385E-02 0.12499646E+03</pdfrwt>
<pdfrwt beam="1">  1       -4 0.23884429E-01 0.12499646E+03</pdfrwt>
<totfact> 0.93550939E+03</totfact>
</mgrwt>
</event>
<event>
 5    1  0.3236337E-002  0.1250004E+03  0.7818608E-02  0.1235069E+00
         -4   -1    0    0    0  501 -0.00000000000E+00  0.00000000000E+00  0.64896485693E+01  0.66127481846E+01  0.12700000000E+01 0. -1.
          4   -1    0    0  501    0  0.00000000000E+00 -0.00000000000E+00 -0.59614512379E+03  0.59614647656E+03  0.12700000000E+01 0. -1.
         25    2    1    2    0    0  0.00000000000E+00  0.00000000000E+00 -0.58965547522E+03  0.60275922474E+03  0.12500041424E+03 0.  0.
    9000005    1    3    3    0    0  0.43573589839E+02  0.38096798881E+02 -0.40845368257E+03  0.41253537378E+03  0.10000000000E+01 0.  0.
    9000005    1    3    3    0    0 -0.43573589839E+02 -0.38096798881E+02 -0.18120179265E+03  0.19022385097E+03  0.10000000000E+01 0.  0.
<mgrwt>
<rscale>  0 0.12500041E+03</rscale>
<asrwt>0</asrwt>
<pdfrwt beam="2">  1        4 0.91724165E-01 0.12500041E+03</pdfrwt>
<pdfrwt beam="1">  1       -4 0.10079812E-02 0.12500041E+03</pdfrwt>
<totfact> 0.48693477E+03</totfact>
</mgrwt>
</event>
<event>
 5    1  0.3236337E-002  0.1249980E+03  0.7818608E-02  0.1235072E+00
          4   -1    0    0  501    0  0.00000000000E+00  0.00000000000E+00  0.99538129226E+01  0.10034505055E+02  0.12700000000E+01 0.  1.
         -4   -1    0    0    0  501 -0.00000000000E+00 -0.00000000000E+00 -0.39075881190E+03  0.39076087570E+03  0.12700000000E+01 0.  1.
         25    2    1    2    0    0  0.00000000000E+00  0.00000000000E+00 -0.38080499898E+03  0.40079538075E+03  0.12499795994E+03 0.  0.
    9000005    1    3    3    0    0  0.29562427035E+02 -0.28162808076E+02 -0.34209142129E+03  0.34452085767E+03  0.10000000000E+01 0.  0.
    9000005    1    3    3    0    0 -0.29562427035E+02  0.28162808076E+02 -0.38713577690E+02  0.56274523085E+02  0.10000000000E+01 0.  0.
<mgrwt>
<rscale>  0 0.12499796E+03</rscale>
<asrwt>0</asrwt>
<pdfrwt beam="1">  1        4 0.15377220E-02 0.12499796E+03</pdfrwt>
<pdfrwt beam="2">  1       -4 0.60123094E-01 0.12499796E+03</pdfrwt>
<totfact> 0.64478414E+03</totfact>
</mgrwt>
</event>
<event>
 5    1  0.3236337E-002  0.1249977E+03  0.7818608E-02  0.1235073E+00
         -4   -1    0    0    0  501 -0.00000000000E+00  0.00000000000E+00  0.41408148547E+01  0.43311947152E+01  0.12700000000E+01 0. -1.
          4   -1    0    0  501    0  0.00000000000E+00 -0.00000000000E+00 -0.92192967535E+03  0.92193055009E+03  0.12700000000E+01 0. -1.
         25    2    1    2    0    0  0.00000000000E+00  0.00000000000E+00 -0.91778886049E+03  0.92626174480E+03  0.12499770975E+03 0.  0.
    9000005    1    3    3    0    0  0.66984567976E+01  0.14681344913E+02 -0.90625974182E+03  0.90640395567E+03  0.10000000000E+01 0.  0.
    9000005    1    3    3    0    0 -0.66984567976E+01 -0.14681344913E+02 -0.11529118675E+02  0.19857789135E+02  0.10000000000E+01 0.  0.
<mgrwt>
<rscale>  0 0.12499771E+03</rscale>
<asrwt>0</asrwt>
<pdfrwt beam="2">  1        4 0.14184989E+00 0.12499771E+03</pdfrwt>
<pdfrwt beam="1">  1       -4 0.65176106E-03 0.12499771E+03</pdfrwt>
<totfact> 0.33175737E+03</totfact>
</mgrwt>
</event>
<event>
 5    1  0.3236337E-002  0.1249994E+03  0.7818608E-02  0.1235070E+00
         -4   -1    0    0    0  501 -0.00000000000E+00  0.00000000000E+00  0.98197638861E+01  0.99015485041E+01  0.12700000000E+01 0. -1.
          4   -1    0    0  501    0  0.00000000000E+00 -0.00000000000E+00 -0.39605858852E+03  0.39606062471E+03  0.12700000000E+01 0. -1.
         25    2    1    2    0    0  0.00000000000E+00  0.00000000000E+00 -0.38623882464E+03  0.40596217321E+03  0.12499942568E+03 0.  0.
    9000005    1    3    3    0    0  0.56070915787E+02  0.22081096252E+02 -0.24684836336E+03  0.25409965939E+03  0.10000000000E+01 0.  0.
    9000005    1    3    3    0    0 -0.56070915787E+02 -0.22081096252E+02 -0.13939046128E+03  0.15186251383E+03  0.10000000000E+01 0.  0.
<mgrwt>
<rscale>  0 0.12499943E+03</rscale>
<asrwt>0</asrwt>
<pdfrwt beam="2">  1        4 0.60938526E-01 0.12499943E+03</pdfrwt>
<pdfrwt beam="1">  1       -4 0.15171810E-02 0.12499943E+03</pdfrwt>
<totfact> 0.63977834E+03</totfact>
</mgrwt>
</event>
<event>
 5    1  0.3236337E-002  0.1249965E+03  0.7818608E-02  0.1235075E+00
         -4   -1    0    0    0  501 -0.00000000000E+00  0.00000000000E+00  0.35354679164E+02  0.35377482086E+02  0.12700000000E+01 0. -1.
          4   -1    0    0  501    0  0.00000000000E+00 -0.00000000000E+00 -0.11041922784E+03  0.11042653113E+03  0.12700000000E+01 0. -1.
         25    2    1    2    0    0  0.00000000000E+00  0.00000000000E+00 -0.75064548678E+02  0.14580401322E+03  0.12499649516E+03 0.  0.
    9000005    1    3    3    0    0  0.10357414794E+02 -0.13927426051E+02 -0.10755691370E+03  0.10895292067E+03  0.10000000000E+01 0.  0.
    9000005    1    3    3    0    0 -0.10357414794E+02  0.13927426051E+02  0.32492365018E+02  0.36851092550E+02  0.10000000000E+01 0.  0.
<mgrwt>
<rscale>  0 0.12499650E+03</rscale>
<asrwt>0</asrwt>
<pdfrwt beam="2">  1        4 0.16989889E-01 0.12499650E+03</pdfrwt>
<pdfrwt beam="1">  1       -4 0.54414973E-02 0.12499650E+03</pdfrwt>
<totfact> 0.10015469E+04</totfact>
</mgrwt>
</event>
<event>
 5    1  0.3236337E-002  0.1250017E+03  0.7818608E-02  0.1235067E+00
          4   -1    0    0  501    0  0.00000000000E+00  0.00000000000E+00  0.18819946187E+03  0.18820374690E+03  0.12700000000E+01 0. -1.
         -4   -1    0    0    0  501 -0.00000000000E+00 -0.00000000000E+00 -0.20732527840E+02  0.20771389232E+02  0.12700000000E+01 0. -1.
         25    2    1    2    0    0  0.00000000000E+00  0.00000000000E+00  0.16746693403E+03  0.20897513614E+03  0.12500173411E+03 0.  0.
    9000005    1    3    3    0    0 -0.18061834192E+02  0.23474705478E+02  0.17572784765E+03  0.17820933783E+03  0.10000000000E+01 0.  0.
    9000005    1    3    3    0    0  0.18061834192E+02 -0.23474705478E+02 -0.82609136144E+01  0.30765798306E+02  0.10000000000E+01 0.  0.
<mgrwt>
<rscale>  0 0.12500173E+03</rscale>
<asrwt>0</asrwt>
<pdfrwt beam="1">  1        4 0.28957083E-01 0.12500173E+03</pdfrwt>
<pdfrwt beam="2">  1       -4 0.31929386E-02 0.12500173E+03</pdfrwt>
<totfact> 0.88640090E+03</totfact>
</mgrwt>
</event>
<event>
 5    1  0.3236337E-002  0.1249997E+03  0.7818608E-02  0.1235070E+00
          4   -1    0    0  501    0  0.00000000000E+00  0.00000000000E+00  0.13366067523E+01  0.18437509621E+01  0.12700000000E+01 0. -1.
         -4   -1    0    0    0  501 -0.00000000000E+00 -0.00000000000E+00 -0.24559645676E+04  0.24559648959E+04  0.12700000000E+01 0. -1.
         25    2    1    2    0    0  0.00000000000E+00  0.00000000000E+00 -0.24546279608E+04  0.24578086469E+04  0.12499967491E+03 0.  0.
    9000005    1    3    3    0    0 -0.82770385473E+01  0.25813146379E+02 -0.12018979931E+03  0.12321288793E+03  0.10000000000E+01 0.  0.
    9000005    1    3    3    0    0  0.82770385473E+01 -0.25813146379E+02 -0.23344381615E+04  0.23345957590E+04  0.10000000000E+01 0.  0.
<mgrwt>
<rscale>  0 0.12499967E+03</rscale>
<asrwt>0</asrwt>
<pdfrwt beam="1">  1        4 0.24467013E-03 0.12499967E+03</pdfrwt>
<pdfrwt beam="2">  1       -4 0.37787670E+00 0.12499967E+03</pdfrwt>
<totfact> 0.50095692E+02</totfact>
</mgrwt>
</event>
<event>
 5    1  0.3236337E-002  0.1250003E+03  0.7818608E-02  0.1235069E+00
         -4   -1    0    0    0  501 -0.00000000000E+00  0.00000000000E+00  0.20059410391E+02  0.20099573260E+02  0.12700000000E+01 0.  1.
          4   -1    0    0  501    0  0.00000000000E+00 -0.00000000000E+00 -0.19449788755E+03  0.19450203382E+03  0.12700000000E+01 0.  1.
         25    2    1    2    0    0  0.00000000000E+00  0.00000000000E+00 -0.17443847716E+03  0.21460160708E+03  0.12500026980E+03 0.  0.
    9000005    1    3    3    0    0 -0.22101586521E+02  0.58376787280E+02 -0.92351734939E+02  0.11147274270E+03  0.10000000000E+01 0.  0.
    9000005    1    3    3    0    0  0.22101586521E+02 -0.58376787280E+02 -0.82086742222E+02  0.10312886438E+03  0.10000000000E+01 0.  0.
<mgrwt>
<rscale>  0 0.12500027E+03</rscale>
<asrwt>0</asrwt>
<pdfrwt beam="2">  1        4 0.29926159E-01 0.12500027E+03</pdfrwt>
<pdfrwt beam="1">  1       -4 0.30894717E-02 0.12500027E+03</pdfrwt>
<totfact> 0.87729321E+03</totfact>
</mgrwt>
</event>
<event>
 5    1  0.3236337E-002  0.1250044E+03  0.7818608E-02  0.1235062E+00
          4   -1    0    0  501    0  0.00000000000E+00  0.00000000000E+00  0.44719562236E+02  0.44737592097E+02  0.12700000000E+01 0. -1.
         -4   -1    0    0    0  501 -0.00000000000E+00 -0.00000000000E+00 -0.87315825693E+02  0.87325061216E+02  0.12700000000E+01 0. -1.
         25    2    1    2    0    0  0.00000000000E+00  0.00000000000E+00 -0.42596263456E+02  0.13206265331E+03  0.12500441088E+03 0.  0.
    9000005    1    3    3    0    0  0.18623719542E+02  0.51541682523E+02  0.10433404725E+02  0.55796450613E+02  0.10000000000E+01 0.  0.
    9000005    1    3    3    0    0 -0.18623719542E+02 -0.51541682523E+02 -0.53029668182E+02  0.76266202700E+02  0.10000000000E+01 0.  0.
<mgrwt>
<rscale>  0 0.12500441E+03</rscale>
<asrwt>0</asrwt>
<pdfrwt beam="1">  1        4 0.68820300E-02 0.12500441E+03</pdfrwt>
<pdfrwt beam="2">  1       -4 0.13435301E-01 0.12500441E+03</pdfrwt>
<totfact> 0.10299336E+04</totfact>
</mgrwt>
</event>
<event>
 5    1  0.3236337E-002  0.1250007E+03  0.7818608E-02  0.1235068E+00
         -4   -1    0    0    0  501 -0.00000000000E+00  0.00000000000E+00  0.45932664198E+02  0.45950218066E+02  0.12700000000E+01 0.  1.
          4   -1    0    0  501    0  0.00000000000E+00 -0.00000000000E+00 -0.85005428653E+02  0.85014915165E+02  0.12700000000E+01 0.  1.
         25    2    1    2    0    0  0.00000000000E+00  0.00000000000E+00 -0.39072764455E+02  0.13096513323E+03  0.12500074080E+03 0.  0.
    9000005    1    3    3    0    0 -0.14819685167E+02  0.42413362473E+02  0.25973291777E+02  0.51904992731E+02  0.10000000000E+01 0.  0.
    9000005    1    3    3    0    0  0.14819685167E+02 -0.42413362473E+02 -0.65046056232E+02  0.79060140501E+02  0.10000000000E+01 0.  0.
<mgrwt>
<rscale>  0 0.12500074E+03</rscale>
<asrwt>0</asrwt>
<pdfrwt beam="2">  1        4 0.13079838E-01 0.12500074E+03</pdfrwt>
<pdfrwt beam="1">  1       -4 0.70686438E-02 0.12500074E+03</pdfrwt>
<totfact> 0.10323664E+04</totfact>
</mgrwt>
</event>
<event>
 5    1  0.3236337E-002  0.1249993E+03  0.7818608E-02  0.1235070E+00
          4   -1    0    0  501    0  0.00000000000E+00  0.00000000000E+00  0.89293222000E+03  0.89293312314E+03  0.12700000000E+01 0. -1.
         -4   -1    0    0    0  501 -0.00000000000E+00 -0.00000000000E+00 -0.42814817246E+01  0.44658689813E+01  0.12700000000E+01 0. -1.
         25    2    1    2    0    0  0.00000000000E+00  0.00000000000E+00  0.88865073827E+03  0.89739899213E+03  0.12499926574E+03 0.  0.
    9000005    1    3    3    0    0 -0.16868878887E+02 -0.13162071749E+02  0.86585126774E+03  0.86611616834E+03  0.10000000000E+01 0.  0.
    9000005    1    3    3    0    0  0.16868878887E+02  0.13162071749E+02  0.22799470530E+02  0.31282823787E+02  0.10000000000E+01 0.  0.
<mgrwt>
<rscale>  0 0.12499927E+03</rscale>
<asrwt>0</asrwt>
<pdfrwt beam="1">  1        4 0.13738855E+00 0.12499927E+03</pdfrwt>
<pdfrwt beam="2">  1       -4 0.67294207E-03 0.12499927E+03</pdfrwt>
<totfact> 0.34260228E+03</totfact>
</mgrwt>
</event>
<event>
 5    1  0.3236337E-002  0.1249994E+03  0.7818608E-02  0.1235070E+00
         -4   -1    0    0    0  501 -0.00000000000E+00  0.00000000000E+00  0.60652679283E+02  0.60665974023E+02  0.12700000000E+01 0. -1.
          4   -1    0    0  501    0  0.00000000000E+00 -0.00000000000E+00 -0.64376309819E+02  0.64388835724E+02  0.12700000000E+01 0. -1.
         25    2    1    2    0    0  0.00000000000E+00  0.00000000000E+00 -0.37236305360E+01  0.12505480975E+03  0.12499936006E+03 0.  0.
    9000005    1    3    3    0    0  0.47305329320E+02  0.39366347564E+02 -0.12715890716E+02  0.62850595695E+02  0.10000000000E+01 0.  0.
    9000005    1    3    3    0    0 -0.47305329320E+02 -0.39366347564E+02  0.89922601801E+01  0.62204214051E+02  0.10000000000E+01 0.  0.
<mgrwt>
<rscale>  0 0.12499936E+03</rscale>
<asrwt>0</asrwt>
<pdfrwt beam="2">  1        4 0.99060339E-02 0.12499936E+03</pdfrwt>
<pdfrwt beam="1">  1       -4 0.93331676E-02 0.12499936E+03</pdfrwt>
<totfact> 0.10451823E+04</totfact>
</mgrwt>
</event>
<event>
 5    1  0.3236337E-002  0.1249976E+03  0.7818608E-02  0.1235073E+00
         -4   -1    0    0    0  501 -0.00000000000E+00  0.00000000000E+00  0.65421862634E+02  0.65434188392E+02  0.12700000000E+01 0. -1.
          4   -1    0    0  501    0  0.00000000000E+00 -0.00000000000E+00 -0.59681671803E+02  0.59695182797E+02  0.12700000000E+01 0. -1.
         25    2    1    2    0    0  0.00000000000E+00  0.00000000000E+00  0.57401908314E+01  0.12512937119E+03  0.12499763895E+03 0.  0.
    9000005    1    3    3    0    0 -0.48491947763E+02  0.38387768817E+02 -0.60843101644E+01  0.62153910760E+02  0.10000000000E+01 0.  0.
    9000005    1    3    3    0    0  0.48491947763E+02 -0.38387768817E+02  0.11824500996E+02  0.62975460430E+02  0.10000000000E+01 0.  0.
<mgrwt>
<rscale>  0 0.12499764E+03</rscale>
<asrwt>0</asrwt>
<pdfrwt beam="2">  1        4 0.91837831E-02 0.12499764E+03</pdfrwt>
<pdfrwt beam="1">  1       -4 0.10066889E-01 0.12499764E+03</pdfrwt>
<totfact> 0.10450611E+04</totfact>
</mgrwt>
</event>
<event>
 5    1  0.3236337E-002  0.1250003E+03  0.7818608E-02  0.1235069E+00
          4   -1    0    0  501    0  0.00000000000E+00  0.00000000000E+00  0.94955481339E+02  0.94963973887E+02  0.12700000000E+01 0.  1.
         -4   -1    0    0    0  501 -0.00000000000E+00 -0.00000000000E+00 -0.41117735221E+02  0.41137343737E+02  0.12700000000E+01 0.  1.
         25    2    1    2    0    0  0.00000000000E+00  0.00000000000E+00  0.53837746118E+02  0.13610131762E+03  0.12500026301E+03 0.  0.
    9000005    1    3    3    0    0  0.22331058374E+02  0.21163108961E+01  0.90426469192E+02  0.93172427630E+02  0.10000000000E+01 0.  0.
    9000005    1    3    3    0    0 -0.22331058374E+02 -0.21163108961E+01 -0.36588723074E+02  0.42928889994E+02  0.10000000000E+01 0.  0.
<mgrwt>
<rscale>  0 0.12500026E+03</rscale>
<asrwt>0</asrwt>
<pdfrwt beam="1">  1        4 0.14610697E-01 0.12500026E+03</pdfrwt>
<pdfrwt beam="2">  1       -4 0.63279671E-02 0.12500026E+03</pdfrwt>
<totfact> 0.10214849E+04</totfact>
</mgrwt>
</event>
<event>
 5    1  0.3236337E-002  0.1249973E+03  0.7818608E-02  0.1235073E+00
         -4   -1    0    0    0  501 -0.00000000000E+00  0.00000000000E+00  0.78914759842E+01  0.79930152764E+01  0.12700000000E+01 0. -1.
          4   -1    0    0  501    0  0.00000000000E+00 -0.00000000000E+00 -0.49170858456E+03  0.49171022465E+03  0.12700000000E+01 0. -1.
         25    2    1    2    0    0  0.00000000000E+00  0.00000000000E+00 -0.48381710857E+03  0.49970323993E+03  0.12499733376E+03 0.  0.
    9000005    1    3    3    0    0 -0.47011603492E+02 -0.11690265997E+02 -0.39972096593E+03  0.40264699650E+03  0.10000000000E+01 0.  0.
    9000005    1    3    3    0    0  0.47011603492E+02  0.11690265997E+02 -0.84096142639E+02  0.97056243430E+02  0.10000000000E+01 0.  0.
<mgrwt>
<rscale>  0 0.12499733E+03</rscale>
<asrwt>0</asrwt>
<pdfrwt beam="2">  1        4 0.75655388E-01 0.12499733E+03</pdfrwt>
<pdfrwt beam="1">  1       -4 0.12220105E-02 0.12499733E+03</pdfrwt>
<totfact> 0.55890686E+03</totfact>
</mgrwt>
</event>
<event>
 5    1  0.3236337E-002  0.1250033E+03  0.7818608E-02  0.1235064E+00
          4   -1    0    0  501    0  0.00000000000E+00  0.00000000000E+00  0.16759403774E+02  0.16807454146E+02  0.12700000000E+01 0.  1.
         -4   -1    0    0    0  501 -0.00000000000E+00 -0.00000000000E+00 -0.23270696394E+03  0.23271042943E+03  0.12700000000E+01 0.  1.
         25    2    1    2    0    0  0.00000000000E+00  0.00000000000E+00 -0.21594756017E+03  0.24951788358E+03  0.12500330189E+03 0.  0.
    9000005    1    3    3    0    0 -0.15673398437E+02 -0.35900008890E+02 -0.20516903948E+03  0.20887747800E+03  0.10000000000E+01 0.  0.
    9000005    1    3    3    0    0  0.15673398437E+02  0.35900008890E+02 -0.10778520686E+02  0.40640405572E+02  0.10000000000E+01 0.  0.
<mgrwt>
<rscale>  0 0.12500330E+03</rscale>
<asrwt>0</asrwt>
<pdfrwt beam="1">  1        4 0.25823327E-02 0.12500330E+03</pdfrwt>
<pdfrwt beam="2">  1       -4 0.35805032E-01 0.12500330E+03</pdfrwt>
<totfact> 0.82393899E+03</totfact>
</mgrwt>
</event>
<event>
 5    1  0.3236337E-002  0.1249986E+03  0.7818608E-02  0.1235071E+00
         -4   -1    0    0    0  501 -0.00000000000E+00  0.00000000000E+00  0.50965004195E+03  0.50965162430E+03  0.12700000000E+01 0.  1.
          4   -1    0    0  501    0  0.00000000000E+00 -0.00000000000E+00 -0.76101875472E+01  0.77154296383E+01  0.12700000000E+01 0.  1.
         25    2    1    2    0    0  0.00000000000E+00  0.00000000000E+00  0.50203985440E+03  0.51736705394E+03  0.12499861239E+03 0.  0.
    9000005    1    3    3    0    0  0.32054067685E+02  0.39649419730E+02  0.40057548685E+03  0.40380844519E+03  0.10000000000E+01 0.  0.
    9000005    1    3    3    0    0 -0.32054067685E+02 -0.39649419730E+02  0.10146436755E+03  0.11355860875E+03  0.10000000000E+01 0.  0.
<mgrwt>
<rscale>  0 0.12499861E+03</rscale>
<asrwt>0</asrwt>
<pdfrwt beam="2">  1        4 0.11790149E-02 0.12499861E+03</pdfrwt>
<pdfrwt beam="1">  1       -4 0.78415947E-01 0.12499861E+03</pdfrwt>
<totfact> 0.54543280E+03</totfact>
</mgrwt>
</event>
<event>
 5    1  0.3236337E-002  0.1250033E+03  0.7818608E-02  0.1235064E+00
         -4   -1    0    0    0  501 -0.00000000000E+00  0.00000000000E+00  0.20638169561E+03  0.20638560314E+03  0.12700000000E+01 0.  1.
          4   -1    0    0  501    0  0.00000000000E+00 -0.00000000000E+00 -0.18902903163E+02  0.18945517886E+02  0.12700000000E+01 0.  1.
         25    2    1    2    0    0  0.00000000000E+00  0.00000000000E+00  0.18747879244E+03  0.22533112102E+03  0.12500326590E+03 0.  0.
    9000005    1    3    3    0    0 -0.59275955164E+02  0.16633273113E+02  0.11308270745E+03  0.12875947872E+03  0.10000000000E+01 0.  0.
    9000005    1    3    3    0    0  0.59275955164E+02 -0.16633273113E+02  0.74396084994E+02  0.96571642305E+02  0.10000000000E+01 0.  0.
<mgrwt>
<rscale>  0 0.12500327E+03</rscale>
<asrwt>0</asrwt>
<pdfrwt beam="2">  1        4 0.29117175E-02 0.12500327E+03</pdfrwt>
<pdfrwt beam="1">  1       -4 0.31754610E-01 0.12500327E+03</pdfrwt>
<totfact> 0.86025429E+03</totfact>
</mgrwt>
</event>
<event>
 5    1  0.3236337E-002  0.1249978E+03  0.7818608E-02  0.1235073E+00
         -4   -1    0    0    0  501 -0.00000000000E+00  0.00000000000E+00  0.45680754807E+02  0.45698405439E+02  0.12700000000E+01 0.  1.
          4   -1    0    0  501    0  0.00000000000E+00 -0.00000000000E+00 -0.85469985773E+02  0.85479420728E+02  0.12700000000E+01 0.  1.
         25    2    1    2    0    0  0.00000000000E+00  0.00000000000E+00 -0.39789230966E+02  0.13117782617E+03  0.12499775669E+03 0.  0.
    9000005    1    3    3    0    0 -0.90664454990E+01  0.53161672474E+02  0.13237597805E+02  0.55539156006E+02  0.10000000000E+01 0.  0.
    9000005    1    3    3    0    0  0.90664454990E+01 -0.53161672474E+02 -0.53026828771E+02  0.75638670161E+02  0.10000000000E+01 0.  0.
<mgrwt>
<rscale>  0 0.12499776E+03</rscale>
<asrwt>0</asrwt>
<pdfrwt beam="2">  1        4 0.13151312E-01 0.12499776E+03</pdfrwt>
<pdfrwt beam="1">  1       -4 0.70298920E-02 0.12499776E+03</pdfrwt>
<totfact> 0.10319801E+04</totfact>
</mgrwt>
</event>
<event>
 5    1  0.3236337E-002  0.1249900E+03  0.7818608E-02  0.1235085E+00
          4   -1    0    0  501    0  0.00000000000E+00  0.00000000000E+00  0.10791167785E+02  0.10865643201E+02  0.12700000000E+01 0. -1.
         -4   -1    0    0    0  501 -0.00000000000E+00 -0.00000000000E+00 -0.36060788851E+03  0.36061012487E+03  0.12700000000E+01 0. -1.
         25    2    1    2    0    0  0.00000000000E+00  0.00000000000E+00 -0.34981672073E+03  0.37147576807E+03  0.12499003225E+03 0.  0.
    9000005    1    3    3    0    0 -0.42166034863E+02 -0.18953253627E+02 -0.29985535589E+03  0.30339979363E+03  0.10000000000E+01 0.  0.
    9000005    1    3    3    0    0  0.42166034863E+02  0.18953253627E+02 -0.49961364832E+02  0.68075974433E+02  0.10000000000E+01 0.  0.
<mgrwt>
<rscale>  0 0.12499003E+03</rscale>
<asrwt>0</asrwt>
<pdfrwt beam="1">  1        4 0.16660808E-02 0.12499003E+03</pdfrwt>
<pdfrwt beam="2">  1       -4 0.55484028E-01 0.12499003E+03</pdfrwt>
<totfact> 0.67439690E+03</totfact>
</mgrwt>
</event>
<event>
 5    1  0.3236337E-002  0.1249988E+03  0.7818608E-02  0.1235071E+00
         -4   -1    0    0    0  501 -0.00000000000E+00  0.00000000000E+00  0.96821695761E+02  0.96830024631E+02  0.12700000000E+01 0.  1.
          4   -1    0    0  501    0  0.00000000000E+00 -0.00000000000E+00 -0.40323968401E+02  0.40343962716E+02  0.12700000000E+01 0.  1.
         25    2    1    2    0    0  0.00000000000E+00  0.00000000000E+00  0.56497727360E+02  0.13717398735E+03  0.12499883843E+03 0.  0.
    9000005    1    3    3    0    0 -0.50492387318E+02  0.21748224304E+02 -0.43554487504E+01  0.55158284702E+02  0.10000000000E+01 0.  0.
    9000005    1    3    3    0    0  0.50492387318E+02 -0.21748224304E+02  0.60853176110E+02  0.82015702644E+02  0.10000000000E+01 0.  0.
<mgrwt>
<rscale>  0 0.12499884E+03</rscale>
<asrwt>0</asrwt>
<pdfrwt beam="2">  1        4 0.62058661E-02 0.12499884E+03</pdfrwt>
<pdfrwt beam="1">  1       -4 0.14897824E-01 0.12499884E+03</pdfrwt>
<totfact> 0.10192716E+04</totfact>
</mgrwt>
</event>
<event>
 5    1  0.3236337E-002  0.1250011E+03  0.7818608E-02  0.1235068E+00
          4   -1    0    0  501    0  0.00000000000E+00  0.00000000000E+00  0.27701280204E+03  0.27701571326E+03  0.12700000000E+01 0.  1.
         -4   -1    0    0    0  501 -0.00000000000E+00 -0.00000000000E+00 -0.14069991608E+02  0.14127192356E+02  0.12700000000E+01 0.  1.
         25    2    1    2    0    0  0.00000000000E+00  0.00000000000E+00  0.26294281043E+03  0.29114290562E+03  0.12500107973E+03 0.  0.
    9000005    1    3    3    0    0 -0.20140993943E+02  0.51552827910E+02  0.19905466763E+03  0.20660860197E+03  0.10000000000E+01 0.  0.
    9000005    1    3    3    0    0  0.20140993943E+02 -0.51552827910E+02  0.63888142801E+02  0.84534303647E+02  0.10000000000E+01 0.  0.
<mgrwt>
<rscale>  0 0.12500108E+03</rscale>
<asrwt>0</asrwt>
<pdfrwt beam="1">  1        4 0.42621976E-01 0.12500108E+03</pdfrwt>
<pdfrwt beam="2">  1       -4 0.21692382E-02 0.12500108E+03</pdfrwt>
<totfact> 0.76721620E+03</totfact>
</mgrwt>
</event>
<event>
 5    1  0.3236337E-002  0.1249922E+03  0.7818608E-02  0.1235081E+00
         -4   -1    0    0    0  501 -0.00000000000E+00  0.00000000000E+00  0.21933190981E+03  0.21933558663E+03  0.12700000000E+01 0. -1.
          4   -1    0    0  501    0  0.00000000000E+00 -0.00000000000E+00 -0.17781080398E+02  0.17826377089E+02  0.12700000000E+01 0. -1.
         25    2    1    2    0    0  0.00000000000E+00  0.00000000000E+00  0.20155082941E+03  0.23716196372E+03  0.12499224055E+03 0.  0.
    9000005    1    3    3    0    0 -0.54405970535E+02 -0.88540036761E+00  0.15907177257E+03  0.16812383053E+03  0.10000000000E+01 0.  0.
    9000005    1    3    3    0    0  0.54405970535E+02  0.88540036761E+00  0.42479056847E+02  0.69038133189E+02  0.10000000000E+01 0.  0.
<mgrwt>
<rscale>  0 0.12499224E+03</rscale>
<asrwt>0</asrwt>
<pdfrwt beam="2">  1        4 0.27393181E-02 0.12499224E+03</pdfrwt>
<pdfrwt beam="1">  1       -4 0.33747137E-01 0.12499224E+03</pdfrwt>
<totfact> 0.84236440E+03</totfact>
</mgrwt>
</event>
<event>
 5    1  0.3236337E-002  0.1249979E+03  0.7818608E-02  0.1235073E+00
         -4   -1    0    0    0  501 -0.00000000000E+00  0.00000000000E+00  0.23280281463E+02  0.23314896633E+02  0.12700000000E+01 0. -1.
          4   -1    0    0  501    0  0.00000000000E+00 -0.00000000000E+00 -0.16762497634E+03  0.16762978731E+03  0.12700000000E+01 0. -1.
         25    2    1    2    0    0  0.00000000000E+00  0.00000000000E+00 -0.14434469487E+03  0.19094468394E+03  0.12499792553E+03 0.  0.
    9000005    1    3    3    0    0 -0.44715403068E+02 -0.40790846655E+02 -0.95924167998E+02  0.11342753832E+03  0.10000000000E+01 0.  0.
    9000005    1    3    3    0    0  0.44715403068E+02  0.40790846655E+02 -0.48420526876E+02  0.77517145621E+02  0.10000000000E+01 0.  0.
<mgrwt>
<rscale>  0 0.12499793E+03</rscale>
<asrwt>0</asrwt>
<pdfrwt beam="2">  1        4 0.25791490E-01 0.12499793E+03</pdfrwt>
<pdfrwt beam="1">  1       -4 0.35846146E-02 0.12499793E+03</pdfrwt>
<totfact> 0.91687463E+03</totfact>
</mgrwt>
</event>
<event>
 4    1  0.3236337E-002  0.1251299E+03  0.7818608E-02  0.1234866E+00
          4   -1    0    0  501    0  0.00000000000E+00  0.00000000000E+00  0.78373441423E+02  0.78383730585E+02  0.12700000000E+01 0.  1.
         -4   -1    0    0    0  501 -0.00000000000E+00 -0.00000000000E+00 -0.49923493663E+02  0.49939644768E+02  0.12700000000E+01 0.  1.
    9000005    1    1    2    0    0  0.43223270489E+02  0.13242342112E+02 -0.30119328505E+02  0.54330329338E+02  0.10000000000E+01 0.  0.
    9000005    1    1    2    0    0 -0.43223270489E+02 -0.13242342112E+02  0.58569276264E+02  0.73993046015E+02  0.10000000000E+01 0.  0.
<mgrwt>
<rscale>  0 0.12512989E+03</rscale>
<asrwt>0</asrwt>
<pdfrwt beam="1">  1        4 0.12059486E-01 0.12512989E+03</pdfrwt>
<pdfrwt beam="2">  1       -4 0.76825714E-02 0.12512989E+03</pdfrwt>
<totfact> 0.10350131E+04</totfact>
</mgrwt>
</event>
<event>
 5    1  0.3236337E-002  0.1250024E+03  0.7818608E-02  0.1235066E+00
          4   -1    0    0  501    0  0.00000000000E+00  0.00000000000E+00  0.70999094032E+01  0.72126010241E+01  0.12700000000E+01 0.  1.
         -4   -1    0    0    0  501 -0.00000000000E+00 -0.00000000000E+00 -0.54575860275E+03  0.54576008042E+03  0.12700000000E+01 0.  1.
         25    2    1    2    0    0  0.00000000000E+00  0.00000000000E+00 -0.53865869335E+03  0.55297268144E+03  0.12500239398E+03 0.  0.
    9000005    1    3    3    0    0 -0.56302044534E+02 -0.22459322052E+02 -0.33657219397E+03  0.34198857162E+03  0.10000000000E+01 0.  0.
    9000005    1    3    3    0    0  0.56302044534E+02  0.22459322052E+02 -0.20208649938E+03  0.21098410982E+03  0.10000000000E+01 0.  0.
<mgrwt>
<rscale>  0 0.12500239E+03</rscale>
<asrwt>0</asrwt>
<pdfrwt beam="1">  1        4 0.11010764E-02 0.12500239E+03</pdfrwt>
<pdfrwt beam="2">  1       -4 0.83971611E-01 0.12500239E+03</pdfrwt>
<totfact> 0.51974641E+03</totfact>
</mgrwt>
</event>
<event>
 5    1  0.3236337E-002  0.1250046E+03  0.7818608E-02  0.1235062E+00
          4   -1    0    0  501    0  0.00000000000E+00  0.00000000000E+00  0.31968036177E+01  0.34398333346E+01  0.12700000000E+01 0.  1.
         -4   -1    0    0    0  501 -0.00000000000E+00 -0.00000000000E+00 -0.11770198762E+04  0.11770205613E+04  0.12700000000E+01 0.  1.
         25    2    1    2    0    0  0.00000000000E+00  0.00000000000E+00 -0.11738230726E+04  0.11804603947E+04  0.12500455080E+03 0.  0.
    9000005    1    3    3    0    0 -0.16655153474E+02  0.38636368325E+02 -0.10232889874E+04  0.10241540484E+04  0.10000000000E+01 0.  0.
    9000005    1    3    3    0    0  0.16655153474E+02 -0.38636368325E+02 -0.15053408515E+03  0.15630634628E+03  0.10000000000E+01 0.  0.
<mgrwt>
<rscale>  0 0.12500455E+03</rscale>
<asrwt>0</asrwt>
<pdfrwt beam="1">  1        4 0.51056418E-03 0.12500455E+03</pdfrwt>
<pdfrwt beam="2">  1       -4 0.18109840E+00 0.12500455E+03</pdfrwt>
<totfact> 0.25227555E+03</totfact>
</mgrwt>
</event>
<event>
 5    1  0.3236337E-002  0.1249958E+03  0.7818608E-02  0.1235076E+00
          4   -1    0    0  501    0  0.00000000000E+00  0.00000000000E+00  0.37375726652E+03  0.37375942420E+03  0.12700000000E+01 0.  1.
         -4   -1    0    0    0  501 -0.00000000000E+00 -0.00000000000E+00 -0.10409824715E+02  0.10487008658E+02  0.12700000000E+01 0.  1.
         25    2    1    2    0    0  0.00000000000E+00  0.00000000000E+00  0.36334744181E+03  0.38424643286E+03  0.12499583072E+03 0.  0.
    9000005    1    3    3    0    0 -0.81719305671E+01  0.55471100824E+02  0.96862367644E+02  0.11192471461E+03  0.10000000000E+01 0.  0.
    9000005    1    3    3    0    0  0.81719305671E+01 -0.55471100824E+02  0.26648507416E+03  0.27232171825E+03  0.10000000000E+01 0.  0.
<mgrwt>
<rscale>  0 0.12499583E+03</rscale>
<asrwt>0</asrwt>
<pdfrwt beam="1">  1        4 0.57507220E-01 0.12499583E+03</pdfrwt>
<pdfrwt beam="2">  1       -4 0.16076147E-02 0.12499583E+03</pdfrwt>
<totfact> 0.66120443E+03</totfact>
</mgrwt>
</event>
<event>
 5    1  0.3236337E-002  0.1250012E+03  0.7818608E-02  0.1235067E+00
          4   -1    0    0  501    0  0.00000000000E+00  0.00000000000E+00  0.57974489208E+03  0.57974628312E+03  0.12700000000E+01 0. -1.
         -4   -1    0    0    0  501 -0.00000000000E+00 -0.00000000000E+00 -0.66767514910E+01  0.67964630855E+01  0.12700000000E+01 0. -1.
         25    2    1    2    0    0  0.00000000000E+00  0.00000000000E+00  0.57306814059E+03  0.58654274620E+03  0.12500119747E+03 0.  0.
    9000005    1    3    3    0    0  0.11280038502E+02  0.59042188247E+02  0.36673057161E+03  0.37162552579E+03  0.10000000000E+01 0.  0.
    9000005    1    3    3    0    0 -0.11280038502E+02 -0.59042188247E+02  0.20633756897E+03  0.21491722041E+03  0.10000000000E+01 0.  0.
<mgrwt>
<rscale>  0 0.12500120E+03</rscale>
<asrwt>0</asrwt>
<pdfrwt beam="1">  1        4 0.89200844E-01 0.12500120E+03</pdfrwt>
<pdfrwt beam="2">  1       -4 0.10365081E-02 0.12500120E+03</pdfrwt>
<totfact> 0.49726931E+03</totfact>
</mgrwt>
</event>
<event>
 5    1  0.3236337E-002  0.1249997E+03  0.7818608E-02  0.1235070E+00
         -4   -1    0    0    0  501 -0.00000000000E+00  0.00000000000E+00  0.42215669342E+02  0.42234768118E+02  0.12700000000E+01 0. -1.
          4   -1    0    0  501    0  0.00000000000E+00 -0.00000000000E+00 -0.92485918443E+02  0.92494637738E+02  0.12700000000E+01 0. -1.
         25    2    1    2    0    0  0.00000000000E+00  0.00000000000E+00 -0.50270249102E+02  0.13472940586E+03  0.12499965943E+03 0.  0.
    9000005    1    3    3    0    0  0.31779640309E+02  0.27258091070E+02 -0.75138913593E+02  0.86022121590E+02  0.10000000000E+01 0.  0.
    9000005    1    3    3    0    0 -0.31779640309E+02 -0.27258091070E+02  0.24868664491E+02  0.48707284266E+02  0.10000000000E+01 0.  0.
<mgrwt>
<rscale>  0 0.12499966E+03</rscale>
<asrwt>0</asrwt>
<pdfrwt beam="2">  1        4 0.14230743E-01 0.12499966E+03</pdfrwt>
<pdfrwt beam="1">  1       -4 0.64968582E-02 0.12499966E+03</pdfrwt>
<totfact> 0.10243856E+04</totfact>
</mgrwt>
</event>
<event>
 5    1  0.3236337E-002  0.1249978E+03  0.7818608E-02  0.1235073E+00
          4   -1    0    0  501    0  0.00000000000E+00  0.00000000000E+00  0.70194344132E+03  0.70194459020E+03  0.12700000000E+01 0.  1.
         -4   -1    0    0    0  501 -0.00000000000E+00 -0.00000000000E+00 -0.54910820853E+01  0.56360342855E+01  0.12700000000E+01 0.  1.
         25    2    1    2    0    0  0.00000000000E+00  0.00000000000E+00  0.69645235924E+03  0.70758062449E+03  0.12499780584E+03 0.  0.
    9000005    1    3    3    0    0 -0.35436222033E+02 -0.31321849728E+02  0.57944030436E+03  0.58136808514E+03  0.10000000000E+01 0.  0.
    9000005    1    3    3    0    0  0.35436222033E+02  0.31321849728E+02  0.11701205488E+03  0.12621253935E+03  0.10000000000E+01 0.  0.
<mgrwt>
<rscale>  0 0.12499781E+03</rscale>
<asrwt>0</asrwt>
<pdfrwt beam="1">  1        4 0.10800259E+00 0.12499781E+03</pdfrwt>
<pdfrwt beam="2">  1       -4 0.85601996E-03 0.12499781E+03</pdfrwt>
<totfact> 0.42691565E+03</totfact>
</mgrwt>
</event>
<event>
 5    1  0.3236337E-002  0.1250000E+03  0.7818608E-02  0.1235069E+00
         -4   -1    0    0    0  501 -0.00000000000E+00  0.00000000000E+00  0.30648368451E+02  0.30674670149E+02  0.12700000000E+01 0.  1.
          4   -1    0    0  501    0  0.00000000000E+00 -0.00000000000E+00 -0.12736953628E+03  0.12737586770E+03  0.12700000000E+01 0.  1.
         25    2    1    2    0    0  0.00000000000E+00  0.00000000000E+00 -0.96721167825E+02  0.15805053784E+03  0.12499995283E+03 0.  0.
    9000005    1    3    3    0    0  0.22190365818E+02 -0.55460749909E+02 -0.25151266199E+02  0.64822012519E+02  0.10000000000E+01 0.  0.
    9000005    1    3    3    0    0 -0.22190365818E+02  0.55460749909E+02 -0.71569901625E+02  0.93228525325E+02  0.10000000000E+01 0.  0.
<mgrwt>
<rscale>  0 0.12499995E+03</rscale>
<asrwt>0</asrwt>
<pdfrwt beam="2">  1        4 0.19597823E-01 0.12499995E+03</pdfrwt>
<pdfrwt beam="1">  1       -4 0.47176439E-02 0.12499995E+03</pdfrwt>
<totfact> 0.97720051E+03</totfact>
</mgrwt>
</event>
<event>
 5    1  0.3236337E-002  0.1250082E+03  0.7818608E-02  0.1235056E+00
         -4   -1    0    0    0  501 -0.00000000000E+00  0.00000000000E+00  0.28291731577E+02  0.28320222026E+02  0.12700000000E+01 0. -1.
          4   -1    0    0  501    0  0.00000000000E+00 -0.00000000000E+00 -0.13798764061E+03  0.13799348485E+03  0.12700000000E+01 0. -1.
         25    2    1    2    0    0  0.00000000000E+00  0.00000000000E+00 -0.10969590903E+03  0.16631370687E+03  0.12500822627E+03 0.  0.
    9000005    1    3    3    0    0  0.30433548892E+02 -0.53918238764E+02 -0.43528666572E+02  0.75690965003E+02  0.10000000000E+01 0.  0.
    9000005    1    3    3    0    0 -0.30433548892E+02  0.53918238764E+02 -0.66167242459E+02  0.90622741871E+02  0.10000000000E+01 0.  0.
<mgrwt>
<rscale>  0 0.12500823E+03</rscale>
<asrwt>0</asrwt>
<pdfrwt beam="2">  1        4 0.21231509E-01 0.12500823E+03</pdfrwt>
<pdfrwt beam="1">  1       -4 0.43552153E-02 0.12500823E+03</pdfrwt>
<totfact> 0.96121412E+03</totfact>
</mgrwt>
</event>
<event>
 5    1  0.3236337E-002  0.1250015E+03  0.7818608E-02  0.1235067E+00
         -4   -1    0    0    0  501 -0.00000000000E+00  0.00000000000E+00  0.61868833428E+01  0.63158867546E+01  0.12700000000E+01 0.  1.
          4   -1    0    0  501    0  0.00000000000E+00 -0.00000000000E+00 -0.62474695955E+03  0.62474825040E+03  0.12700000000E+01 0.  1.
         25    2    1    2    0    0  0.00000000000E+00  0.00000000000E+00 -0.61856007621E+03  0.63106413715E+03  0.12500150925E+03 0.  0.
    9000005    1    3    3    0    0 -0.49728035922E+02  0.35973509074E+02 -0.24989396943E+03  0.25732269016E+03  0.10000000000E+01 0.  0.
    9000005    1    3    3    0    0  0.49728035922E+02 -0.35973509074E+02 -0.36866610678E+03  0.37374144699E+03  0.10000000000E+01 0.  0.
<mgrwt>
<rscale>  0 0.12500151E+03</rscale>
<asrwt>0</asrwt>
<pdfrwt beam="2">  1        4 0.96124890E-01 0.12500151E+03</pdfrwt>
<pdfrwt beam="1">  1       -4 0.96185134E-03 0.12500151E+03</pdfrwt>
<totfact> 0.46962148E+03</totfact>
</mgrwt>
</event>
<event>
 5    1  0.3236337E-002  0.1250050E+03  0.7818608E-02  0.1235061E+00
          4   -1    0    0  501    0  0.00000000000E+00  0.00000000000E+00  0.64729498377E+01  0.65963610878E+01  0.12700000000E+01 0. -1.
         -4   -1    0    0    0  501 -0.00000000000E+00 -0.00000000000E+00 -0.59769805041E+03  0.59769939967E+03  0.12700000000E+01 0. -1.
         25    2    1    2    0    0  0.00000000000E+00  0.00000000000E+00 -0.59122510057E+03  0.60429576075E+03  0.12500498758E+03 0.  0.
    9000005    1    3    3    0    0 -0.35832585618E+02  0.50590094657E+02 -0.33374736327E+03  0.33945785359E+03  0.10000000000E+01 0.  0.
    9000005    1    3    3    0    0  0.35832585618E+02 -0.50590094657E+02 -0.25747773730E+03  0.26483790717E+03  0.10000000000E+01 0.  0.
<mgrwt>
<rscale>  0 0.12500499E+03</rscale>
<asrwt>0</asrwt>
<pdfrwt beam="1">  1        4 0.10054359E-02 0.12500499E+03</pdfrwt>
<pdfrwt beam="2">  1       -4 0.91963100E-01 0.12500499E+03</pdfrwt>
<totfact> 0.48592270E+03</totfact>
</mgrwt>
</event>
<event>
 5    1  0.3236337E-002  0.1249842E+03  0.7818608E-02  0.1235094E+00
          4   -1    0    0  501    0  0.00000000000E+00  0.00000000000E+00  0.73804724391E+02  0.73815650390E+02  0.12700000000E+01 0. -1.
         -4   -1    0    0    0  501 -0.00000000000E+00 -0.00000000000E+00 -0.52890997668E+02  0.52906242867E+02  0.12700000000E+01 0. -1.
         25    2    1    2    0    0  0.00000000000E+00  0.00000000000E+00  0.20913726723E+02  0.12672189326E+03  0.12498421606E+03 0.  0.
    9000005    1    3    3    0    0  0.42850143534E+02 -0.33075066853E+02  0.42102480685E+02  0.68583625802E+02  0.10000000000E+01 0.  0.
    9000005    1    3    3    0    0 -0.42850143534E+02  0.33075066853E+02 -0.21188753962E+02  0.58138267456E+02  0.10000000000E+01 0.  0.
<mgrwt>
<rscale>  0 0.12498422E+03</rscale>
<asrwt>0</asrwt>
<pdfrwt beam="1">  1        4 0.11356586E-01 0.12498422E+03</pdfrwt>
<pdfrwt beam="2">  1       -4 0.81390897E-02 0.12498422E+03</pdfrwt>
<totfact> 0.10418905E+04</totfact>
</mgrwt>
</event>
<event>
 5    1  0.3236337E-002  0.1250003E+03  0.7818608E-02  0.1235069E+00
         -4   -1    0    0    0  501 -0.00000000000E+00  0.00000000000E+00  0.15556409415E+03  0.15556927810E+03  0.12700000000E+01 0. -1.
          4   -1    0    0  501    0  0.00000000000E+00 -0.00000000000E+00 -0.25088692569E+02  0.25120815966E+02  0.12700000000E+01 0. -1.
         25    2    1    2    0    0  0.00000000000E+00  0.00000000000E+00  0.13047540158E+03  0.18069009407E+03  0.12500031870E+03 0.  0.
    9000005    1    3    3    0    0 -0.19040828178E+02 -0.58188431586E+02  0.47135624353E+02  0.77273629340E+02  0.10000000000E+01 0.  0.
    9000005    1    3    3    0    0  0.19040828178E+02  0.58188431586E+02  0.83339777228E+02  0.10341646473E+03  0.10000000000E+01 0.  0.
<mgrwt>
<rscale>  0 0.12500032E+03</rscale>
<asrwt>0</asrwt>
<pdfrwt beam="2">  1        4 0.38626686E-02 0.12500032E+03</pdfrwt>
<pdfrwt beam="1">  1       -4 0.23935807E-01 0.12500032E+03</pdfrwt>
<totfact> 0.93492263E+03</totfact>
</mgrwt>
</event>
<event>
 5    1  0.3236337E-002  0.1250000E+03  0.7818608E-02  0.1235069E+00
         -4   -1    0    0    0  501 -0.00000000000E+00  0.00000000000E+00  0.14876936323E+03  0.14877478394E+03  0.12700000000E+01 0. -1.
          4   -1    0    0  501    0  0.00000000000E+00 -0.00000000000E+00 -0.26235823211E+02  0.26266543730E+02  0.12700000000E+01 0. -1.
         25    2    1    2    0    0  0.00000000000E+00  0.00000000000E+00  0.12253354002E+03  0.17504132767E+03  0.12499999185E+03 0.  0.
    9000005    1    3    3    0    0 -0.26436157793E+02 -0.30582718418E+02  0.12800066673E+03  0.13423614933E+03  0.10000000000E+01 0.  0.
    9000005    1    3    3    0    0  0.26436157793E+02  0.30582718418E+02 -0.54671267080E+01  0.40805178337E+02  0.10000000000E+01 0.  0.
<mgrwt>
<rscale>  0 0.12499999E+03</rscale>
<asrwt>0</asrwt>
<pdfrwt beam="2">  1        4 0.40390605E-02 0.12499999E+03</pdfrwt>
<pdfrwt beam="1">  1       -4 0.22890375E-01 0.12499999E+03</pdfrwt>
<totfact> 0.94517289E+03</totfact>
</mgrwt>
</event>
<event>
 5    1  0.3236337E-002  0.1249996E+03  0.7818608E-02  0.1235070E+00
         -4   -1    0    0    0  501 -0.00000000000E+00  0.00000000000E+00  0.43733292191E+02  0.43751728490E+02  0.12700000000E+01 0. -1.
          4   -1    0    0  501    0  0.00000000000E+00 -0.00000000000E+00 -0.89277536639E+02  0.89286569249E+02  0.12700000000E+01 0. -1.
         25    2    1    2    0    0  0.00000000000E+00  0.00000000000E+00 -0.45544244447E+02  0.13303829774E+03  0.12499964185E+03 0.  0.
    9000005    1    3    3    0    0 -0.20187542300E+02  0.45611669223E+02 -0.62839752118E+02  0.80235875266E+02  0.10000000000E+01 0.  0.
    9000005    1    3    3    0    0  0.20187542300E+02 -0.45611669223E+02  0.17295507671E+02  0.52802422473E+02  0.10000000000E+01 0.  0.
<mgrwt>
<rscale>  0 0.12499964E+03</rscale>
<asrwt>0</asrwt>
<pdfrwt beam="2">  1        4 0.13737119E-01 0.12499964E+03</pdfrwt>
<pdfrwt beam="1">  1       -4 0.67303118E-02 0.12499964E+03</pdfrwt>
<totfact> 0.10279669E+04</totfact>
</mgrwt>
</event>
<event>
 5    1  0.3236337E-002  0.1250017E+03  0.7818608E-02  0.1235067E+00
          4   -1    0    0  501    0  0.00000000000E+00  0.00000000000E+00  0.47568615174E+03  0.47568784708E+03  0.12700000000E+01 0. -1.
         -4   -1    0    0    0  501 -0.00000000000E+00 -0.00000000000E+00 -0.81612282295E+01  0.82594519318E+01  0.12700000000E+01 0. -1.
         25    2    1    2    0    0  0.00000000000E+00  0.00000000000E+00  0.46752492351E+03  0.48394729901E+03  0.12500173645E+03 0.  0.
    9000005    1    3    3    0    0  0.17785807239E+02 -0.25833387269E+02  0.44302757789E+03  0.44413751655E+03  0.10000000000E+01 0.  0.
    9000005    1    3    3    0    0 -0.17785807239E+02  0.25833387269E+02  0.24497345621E+02  0.39809782459E+02  0.10000000000E+01 0.  0.
<mgrwt>
<rscale>  0 0.12500174E+03</rscale>
<asrwt>0</asrwt>
<pdfrwt beam="1">  1        4 0.73190198E-01 0.12500174E+03</pdfrwt>
<pdfrwt beam="2">  1       -4 0.12632592E-02 0.12500174E+03</pdfrwt>
<totfact> 0.57129531E+03</totfact>
</mgrwt>
</event>
<event>
 5    1  0.3236337E-002  0.1250000E+03  0.7818608E-02  0.1235069E+00
         -4   -1    0    0    0  501 -0.00000000000E+00  0.00000000000E+00  0.86377032219E+02  0.86386368108E+02  0.12700000000E+01 0.  1.
          4   -1    0    0  501    0  0.00000000000E+00 -0.00000000000E+00 -0.45202571602E+02  0.45220408881E+02  0.12700000000E+01 0.  1.
         25    2    1    2    0    0  0.00000000000E+00  0.00000000000E+00  0.41174460617E+02  0.13160677699E+03  0.12500003017E+03 0.  0.
    9000005    1    3    3    0    0 -0.88090436226E+00 -0.75368940807E+01 -0.44720878481E+02  0.45371111261E+02  0.10000000000E+01 0.  0.
    9000005    1    3    3    0    0  0.88090436226E+00  0.75368940807E+01  0.85895339099E+02  0.86235665729E+02  0.10000000000E+01 0.  0.
<mgrwt>
<rscale>  0 0.12500003E+03</rscale>
<asrwt>0</asrwt>
<pdfrwt beam="2">  1        4 0.69563321E-02 0.12500003E+03</pdfrwt>
<pdfrwt beam="1">  1       -4 0.13290864E-01 0.12500003E+03</pdfrwt>
<totfact> 0.10310092E+04</totfact>
</mgrwt>
</event>
<event>
 5    1  0.3236337E-002  0.1250001E+03  0.7818608E-02  0.1235069E+00
          4   -1    0    0  501    0  0.00000000000E+00  0.00000000000E+00  0.61325352689E+01  0.62626582874E+01  0.12700000000E+01 0.  1.
         -4   -1    0    0    0  501 -0.00000000000E+00 -0.00000000000E+00 -0.63015498478E+03  0.63015626454E+03  0.12700000000E+01 0.  1.
         25    2    1    2    0    0  0.00000000000E+00  0.00000000000E+00 -0.62402244951E+03  0.63641892283E+03  0.12500011137E+03 0.  0.
    9000005    1    3    3    0    0 -0.52311204090E+02 -0.34139218756E+02 -0.30275024797E+03  0.30912887439E+03  0.10000000000E+01 0.  0.
    9000005    1    3    3    0    0  0.52311204090E+02  0.34139218756E+02 -0.32127220153E+03  0.32729004844E+03  0.10000000000E+01 0.  0.
<mgrwt>
<rscale>  0 0.12500011E+03</rscale>
<asrwt>0</asrwt>
<pdfrwt beam="1">  1        4 0.95357537E-03 0.12500011E+03</pdfrwt>
<pdfrwt beam="2">  1       -4 0.96956978E-01 0.12500011E+03</pdfrwt>
<totfact> 0.46646483E+03</totfact>
</mgrwt>
</event>
<event>
 5    1  0.3236337E-002  0.1249976E+03  0.7818608E-02  0.1235073E+00
         -4   -1    0    0    0  501 -0.00000000000E+00  0.00000000000E+00  0.67997198843E+02  0.68009057857E+02  0.12700000000E+01 0. -1.
          4   -1    0    0  501    0  0.00000000000E+00 -0.00000000000E+00 -0.57421099162E+02  0.57435141934E+02  0.12700000000E+01 0. -1.
         25    2    1    2    0    0  0.00000000000E+00  0.00000000000E+00  0.10576099681E+02  0.12544419979E+03  0.12499757348E+03 0.  0.
    9000005    1    3    3    0    0  0.89888479911E+01 -0.55752064047E+02 -0.21565853918E+02  0.60458068849E+02  0.10000000000E+01 0.  0.
    9000005    1    3    3    0    0 -0.89888479911E+01  0.55752064047E+02  0.32141953599E+02  0.64986130942E+02  0.10000000000E+01 0.  0.
<mgrwt>
<rscale>  0 0.12499757E+03</rscale>
<asrwt>0</asrwt>
<pdfrwt beam="2">  1        4 0.88360077E-02 0.12499757E+03</pdfrwt>
<pdfrwt beam="1">  1       -4 0.10463100E-01 0.12499757E+03</pdfrwt>
<totfact> 0.10443760E+04</totfact>
</mgrwt>
</event>
<event>
 5    1  0.3236337E-002  0.1250019E+03  0.7818608E-02  0.1235066E+00
          4   -1    0    0  501    0  0.00000000000E+00  0.00000000000E+00  0.16007314317E+04  0.16007319355E+04  0.12700000000E+01 0. -1.
         -4   -1    0    0    0  501 -0.00000000000E+00 -0.00000000000E+00 -0.22745966641E+01  0.26051276330E+01  0.12700000000E+01 0. -1.
         25    2    1    2    0    0  0.00000000000E+00  0.00000000000E+00  0.15984568350E+04  0.16033370631E+04  0.12500193817E+03 0.  0.
    9000005    1    3    3    0    0  0.14173508345E+02  0.11361944585E+02  0.15661831573E+04  0.15662888189E+04  0.10000000000E+01 0.  0.
    9000005    1    3    3    0    0 -0.14173508345E+02 -0.11361944585E+02  0.32273677763E+02  0.37048244222E+02  0.10000000000E+01 0.  0.
<mgrwt>
<rscale>  0 0.12500194E+03</rscale>
<asrwt>0</asrwt>
<pdfrwt beam="1">  1        4 0.24629336E+00 0.12500194E+03</pdfrwt>
<pdfrwt beam="2">  1       -4 0.37539984E-03 0.12500194E+03</pdfrwt>
<totfact> 0.15985085E+03</totfact>
</mgrwt>
</event>
<event>
 5    1  0.3236337E-002  0.1250008E+03  0.7818608E-02  0.1235068E+00
         -4   -1    0    0    0  501 -0.00000000000E+00  0.00000000000E+00  0.71114684452E+01  0.72239797513E+01  0.12700000000E+01 0.  1.
          4   -1    0    0  501    0  0.00000000000E+00 -0.00000000000E+00 -0.54487102793E+03  0.54487250800E+03  0.12700000000E+01 0.  1.
         25    2    1    2    0    0  0.00000000000E+00  0.00000000000E+00 -0.53775955949E+03  0.55209648775E+03  0.12500075189E+03 0.  0.
    9000005    1    3    3    0    0  0.57907094569E+02 -0.42001316388E+01 -0.16677514599E+03  0.17659507928E+03  0.10000000000E+01 0.  0.
    9000005    1    3    3    0    0 -0.57907094569E+02  0.42001316388E+01 -0.37098441350E+03  0.37550140847E+03  0.10000000000E+01 0.  0.
<mgrwt>
<rscale>  0 0.12500075E+03</rscale>
<asrwt>0</asrwt>
<pdfrwt beam="2">  1        4 0.83835048E-01 0.12500075E+03</pdfrwt>
<pdfrwt beam="1">  1       -4 0.11028411E-02 0.12500075E+03</pdfrwt>
<totfact> 0.52037270E+03</totfact>
</mgrwt>
</event>
<event>
 5    1  0.3236337E-002  0.1249998E+03  0.7818608E-02  0.1235070E+00
         -4   -1    0    0    0  501 -0.00000000000E+00  0.00000000000E+00  0.17144511623E+02  0.17191485648E+02  0.12700000000E+01 0.  1.
          4   -1    0    0  501    0  0.00000000000E+00 -0.00000000000E+00 -0.22748135693E+03  0.22748490203E+03  0.12700000000E+01 0.  1.
         25    2    1    2    0    0  0.00000000000E+00  0.00000000000E+00 -0.21033684531E+03  0.24467638768E+03  0.12499978477E+03 0.  0.
    9000005    1    3    3    0    0 -0.57799686616E+02  0.23704409061E+02 -0.10828419752E+03  0.12501667974E+03  0.10000000000E+01 0.  0.
    9000005    1    3    3    0    0  0.57799686616E+02 -0.23704409061E+02 -0.10205264779E+03  0.11965970793E+03  0.10000000000E+01 0.  0.
<mgrwt>
<rscale>  0 0.12499978E+03</rscale>
<asrwt>0</asrwt>
<pdfrwt beam="2">  1        4 0.35001016E-01 0.12499978E+03</pdfrwt>
<pdfrwt beam="1">  1       -4 0.26415034E-02 0.12499978E+03</pdfrwt>
<totfact> 0.83106195E+03</totfact>
</mgrwt>
</event>
<event>
 5    1  0.3236337E-002  0.1250110E+03  0.7818608E-02  0.1235052E+00
         -4   -1    0    0    0  501 -0.00000000000E+00  0.00000000000E+00  0.13859110102E+03  0.13859691981E+03  0.12700000000E+01 0. -1.
          4   -1    0    0  501    0  0.00000000000E+00 -0.00000000000E+00 -0.28169652977E+02  0.28198266770E+02  0.12700000000E+01 0. -1.
         25    2    1    2    0    0  0.00000000000E+00  0.00000000000E+00  0.11042144804E+03  0.16679518658E+03  0.12501095184E+03 0.  0.
    9000005    1    3    3    0    0 -0.88023851269E+01 -0.47618333284E+02  0.24962943253E+01  0.48499681793E+02  0.10000000000E+01 0.  0.
    9000005    1    3    3    0    0  0.88023851269E+01  0.47618333284E+02  0.10792515371E+03  0.11829550479E+03  0.10000000000E+01 0.  0.
<mgrwt>
<rscale>  0 0.12501095E+03</rscale>
<asrwt>0</asrwt>
<pdfrwt beam="2">  1        4 0.43364414E-02 0.12501095E+03</pdfrwt>
<pdfrwt beam="1">  1       -4 0.21324357E-01 0.12501095E+03</pdfrwt>
<totfact> 0.96024866E+03</totfact>
</mgrwt>
</event>
<event>
 5    1  0.3236337E-002  0.1250006E+03  0.7818608E-02  0.1235068E+00
         -4   -1    0    0    0  501 -0.00000000000E+00  0.00000000000E+00  0.36069474716E+01  0.38239992237E+01  0.12700000000E+01 0. -1.
          4   -1    0    0  501    0  0.00000000000E+00 -0.00000000000E+00 -0.10511384901E+04  0.10511392573E+04  0.12700000000E+01 0. -1.
         25    2    1    2    0    0  0.00000000000E+00  0.00000000000E+00 -0.10475315426E+04  0.10549632566E+04  0.12500055939E+03 0.  0.
    9000005    1    3    3    0    0 -0.11048574026E+02 -0.57435213450E+02 -0.33801439934E+03  0.34303878628E+03  0.10000000000E+01 0.  0.
    9000005    1    3    3    0    0  0.11048574026E+02  0.57435213450E+02 -0.70951714331E+03  0.71192447028E+03  0.10000000000E+01 0.  0.
<mgrwt>
<rscale>  0 0.12500056E+03</rscale>
<asrwt>0</asrwt>
<pdfrwt beam="2">  1        4 0.16173013E+00 0.12500056E+03</pdfrwt>
<pdfrwt beam="1">  1       -4 0.57167114E-03 0.12500056E+03</pdfrwt>
<totfact> 0.28839996E+03</totfact>
</mgrwt>
</event>
<event>
 5    1  0.3236337E-002  0.1250000E+03  0.7818608E-02  0.1235069E+00
         -4   -1    0    0    0  501 -0.00000000000E+00  0.00000000000E+00  0.16938027817E+03  0.16938503928E+03  0.12700000000E+01 0. -1.
          4   -1    0    0  501    0  0.00000000000E+00 -0.00000000000E+00 -0.23039433736E+02  0.23074410218E+02  0.12700000000E+01 0. -1.
         25    2    1    2    0    0  0.00000000000E+00  0.00000000000E+00  0.14634084443E+03  0.19245944950E+03  0.12499998781E+03 0.  0.
    9000005    1    3    3    0    0 -0.55739433839E+02 -0.60938976187E+01  0.11565066383E+03  0.12853052601E+03  0.10000000000E+01 0.  0.
    9000005    1    3    3    0    0  0.55739433839E+02  0.60938976187E+01  0.30690180606E+02  0.63928923490E+02  0.10000000000E+01 0.  0.
<mgrwt>
<rscale>  0 0.12499999E+03</rscale>
<asrwt>0</asrwt>
<pdfrwt beam="2">  1        4 0.35475850E-02 0.12499999E+03</pdfrwt>
<pdfrwt beam="1">  1       -4 0.26061561E-01 0.12499999E+03</pdfrwt>
<totfact> 0.91421155E+03</totfact>
</mgrwt>
</event>
<event>
 5    1  0.3236337E-002  0.1250022E+03  0.7818608E-02  0.1235066E+00
          4   -1    0    0  501    0  0.00000000000E+00  0.00000000000E+00  0.13250043456E+03  0.13250652081E+03  0.12700000000E+01 0. -1.
         -4   -1    0    0    0  501 -0.00000000000E+00 -0.00000000000E+00 -0.29461646123E+02  0.29489006295E+02  0.12700000000E+01 0. -1.
         25    2    1    2    0    0  0.00000000000E+00  0.00000000000E+00  0.10303878843E+03  0.16199552711E+03  0.12500223550E+03 0.  0.
    9000005    1    3    3    0    0 -0.58509227714E+02  0.13101084580E+02  0.28686488007E+02  0.66474677427E+02  0.10000000000E+01 0.  0.
    9000005    1    3    3    0    0  0.58509227714E+02 -0.13101084580E+02  0.74352300427E+02  0.95520849681E+02  0.10000000000E+01 0.  0.
<mgrwt>
<rscale>  0 0.12500224E+03</rscale>
<asrwt>0</asrwt>
<pdfrwt beam="1">  1        4 0.20387255E-01 0.12500224E+03</pdfrwt>
<pdfrwt beam="2">  1       -4 0.45351337E-02 0.12500224E+03</pdfrwt>
<totfact> 0.96954566E+03</totfact>
</mgrwt>
</event>
<event>
 5    1  0.3236337E-002  0.1249990E+03  0.7818608E-02  0.1235071E+00
         -4   -1    0    0    0  501 -0.00000000000E+00  0.00000000000E+00  0.10857172745E+02  0.10931198471E+02  0.12700000000E+01 0. -1.
          4   -1    0    0  501    0  0.00000000000E+00 -0.00000000000E+00 -0.35848221685E+03  0.35848446647E+03  0.12700000000E+01 0. -1.
         25    2    1    2    0    0  0.00000000000E+00  0.00000000000E+00 -0.34762504411E+03  0.36941566494E+03  0.12499904884E+03 0.  0.
    9000005    1    3    3    0    0  0.39233926726E+01 -0.77793198783E+01  0.90678705569E+01  0.12614955579E+02  0.10000000000E+01 0.  0.
    9000005    1    3    3    0    0 -0.39233926726E+01  0.77793198783E+01 -0.35669291466E+03  0.35680070936E+03  0.10000000000E+01 0.  0.
<mgrwt>
<rscale>  0 0.12499905E+03</rscale>
<asrwt>0</asrwt>
<pdfrwt beam="2">  1        4 0.55156969E-01 0.12499905E+03</pdfrwt>
<pdfrwt beam="1">  1       -4 0.16762019E-02 0.12499905E+03</pdfrwt>
<totfact> 0.67641540E+03</totfact>
</mgrwt>
</event>
<event>
 5    1  0.3236337E-002  0.1249932E+03  0.7818608E-02  0.1235080E+00
          4   -1    0    0  501    0  0.00000000000E+00  0.00000000000E+00  0.61521325202E+01  0.62818496119E+01  0.12700000000E+01 0.  1.
         -4   -1    0    0    0  501 -0.00000000000E+00 -0.00000000000E+00 -0.62811946788E+03  0.62812075179E+03  0.12700000000E+01 0.  1.
         25    2    1    2    0    0  0.00000000000E+00  0.00000000000E+00 -0.62196733536E+03  0.63440260140E+03  0.12499317746E+03 0.  0.
    9000005    1    3    3    0    0  0.54070831092E+02  0.73384699665E+01 -0.46554200955E+03  0.46873006152E+03  0.10000000000E+01 0.  0.
    9000005    1    3    3    0    0 -0.54070831092E+02 -0.73384699665E+01 -0.15642532581E+03  0.16567253988E+03  0.10000000000E+01 0.  0.
<mgrwt>
<rscale>  0 0.12499318E+03</rscale>
<asrwt>0</asrwt>
<pdfrwt beam="1">  1        4 0.95655942E-03 0.12499318E+03</pdfrwt>
<pdfrwt beam="2">  1       -4 0.96643791E-01 0.12499318E+03</pdfrwt>
<totfact> 0.46772627E+03</totfact>
</mgrwt>
</event>
<event>
 5    1  0.3236337E-002  0.1249995E+03  0.7818608E-02  0.1235070E+00
         -4   -1    0    0    0  501 -0.00000000000E+00  0.00000000000E+00  0.31991428300E+03  0.31991680382E+03  0.12700000000E+01 0. -1.
          4   -1    0    0  501    0  0.00000000000E+00 -0.00000000000E+00 -0.12174599730E+02  0.12240660872E+02  0.12700000000E+01 0. -1.
         25    2    1    2    0    0  0.00000000000E+00  0.00000000000E+00  0.30773968327E+03  0.33215746470E+03  0.12499947477E+03 0.  0.
    9000005    1    3    3    0    0 -0.80671826075E+01  0.61948051387E+02  0.15813529312E+03  0.17003061911E+03  0.10000000000E+01 0.  0.
    9000005    1    3    3    0    0  0.80671826075E+01 -0.61948051387E+02  0.14960439015E+03  0.16212684558E+03  0.10000000000E+01 0.  0.
<mgrwt>
<rscale>  0 0.12499947E+03</rscale>
<asrwt>0</asrwt>
<pdfrwt beam="2">  1        4 0.18782910E-02 0.12499947E+03</pdfrwt>
<pdfrwt beam="1">  1       -4 0.49222855E-01 0.12499947E+03</pdfrwt>
<totfact> 0.71733946E+03</totfact>
</mgrwt>
</event>
<event>
 5    1  0.3236337E-002  0.1249995E+03  0.7818608E-02  0.1235070E+00
         -4   -1    0    0    0  501 -0.00000000000E+00  0.00000000000E+00  0.75935937906E+01  0.76990627129E+01  0.12700000000E+01 0.  1.
          4   -1    0    0  501    0  0.00000000000E+00 -0.00000000000E+00 -0.51075539539E+03  0.51075697432E+03  0.12700000000E+01 0.  1.
         25    2    1    2    0    0  0.00000000000E+00  0.00000000000E+00 -0.50316180159E+03  0.51845603703E+03  0.12499945500E+03 0.  0.
    9000005    1    3    3    0    0  0.33958062937E+02 -0.21511585286E+02 -0.45003352208E+03  0.45182637079E+03  0.10000000000E+01 0.  0.
    9000005    1    3    3    0    0 -0.33958062937E+02  0.21511585286E+02 -0.53128279510E+02  0.66629666243E+02  0.10000000000E+01 0.  0.
<mgrwt>
<rscale>  0 0.12499946E+03</rscale>
<asrwt>0</asrwt>
<pdfrwt beam="2">  1        4 0.78585961E-01 0.12499946E+03</pdfrwt>
<pdfrwt beam="1">  1       -4 0.11764800E-02 0.12499946E+03</pdfrwt>
<totfact> 0.54460973E+03</totfact>
</mgrwt>
</event>
<event>
 5    1  0.3236337E-002  0.1250001E+03  0.7818608E-02  0.1235069E+00
          4   -1    0    0  501    0  0.00000000000E+00  0.00000000000E+00  0.38693592838E+02  0.38714429180E+02  0.12700000000E+01 0. -1.
         -4   -1    0    0    0  501 -0.00000000000E+00 -0.00000000000E+00 -0.10090153522E+03  0.10090952735E+03  0.12700000000E+01 0. -1.
         25    2    1    2    0    0  0.00000000000E+00  0.00000000000E+00 -0.62207942379E+02  0.13962395653E+03  0.12500008456E+03 0.  0.
    9000005    1    3    3    0    0 -0.24820833908E+02  0.55296339102E+02 -0.14108949330E+02  0.62240030247E+02  0.10000000000E+01 0.  0.
    9000005    1    3    3    0    0  0.24820833908E+02 -0.55296339102E+02 -0.48098993049E+02  0.77383926279E+02  0.10000000000E+01 0.  0.
<mgrwt>
<rscale>  0 0.12500008E+03</rscale>
<asrwt>0</asrwt>
<pdfrwt beam="1">  1        4 0.59550781E-02 0.12500008E+03</pdfrwt>
<pdfrwt beam="2">  1       -4 0.15525531E-01 0.12500008E+03</pdfrwt>
<totfact> 0.10141366E+04</totfact>
</mgrwt>
</event>
<event>
 5    1  0.3236337E-002  0.1250003E+03  0.7818608E-02  0.1235069E+00
          4   -1    0    0  501    0  0.00000000000E+00  0.00000000000E+00  0.39333636102E+03  0.39333841129E+03  0.12700000000E+01 0. -1.
         -4   -1    0    0    0  501 -0.00000000000E+00 -0.00000000000E+00 -0.98884317357E+01  0.99696530628E+01  0.12700000000E+01 0. -1.
         25    2    1    2    0    0  0.00000000000E+00  0.00000000000E+00  0.38344792928E+03  0.40330806436E+03  0.12500032122E+03 0.  0.
    9000005    1    3    3    0    0  0.16226307289E+02  0.45414837587E+02  0.31995153298E+03  0.32356727890E+03  0.10000000000E+01 0.  0.
    9000005    1    3    3    0    0 -0.16226307289E+02 -0.45414837587E+02  0.63496396307E+02  0.79740785457E+02  0.10000000000E+01 0.  0.
<mgrwt>
<rscale>  0 0.12500032E+03</rscale>
<asrwt>0</asrwt>
<pdfrwt beam="1">  1        4 0.60519692E-01 0.12500032E+03</pdfrwt>
<pdfrwt beam="2">  1       -4 0.15277027E-02 0.12500032E+03</pdfrwt>
<totfact> 0.64231861E+03</totfact>
</mgrwt>
</event>
<event>
 5    1  0.3236337E-002  0.1250034E+03  0.7818608E-02  0.1235064E+00
          4   -1    0    0  501    0  0.00000000000E+00  0.00000000000E+00  0.66711542045E+03  0.66711662931E+03  0.12700000000E+01 0.  1.
         -4   -1    0    0    0  501 -0.00000000000E+00 -0.00000000000E+00 -0.57856686427E+01  0.59234163827E+01  0.12700000000E+01 0.  1.
         25    2    1    2    0    0  0.00000000000E+00  0.00000000000E+00  0.66132975181E+03  0.67304004569E+03  0.12500344988E+03 0.  0.
    9000005    1    3    3    0    0 -0.40331004987E+02 -0.45356711072E+02  0.25050679605E+03  0.25775662178E+03  0.10000000000E+01 0.  0.
    9000005    1    3    3    0    0  0.40331004987E+02  0.45356711072E+02  0.41082295575E+03  0.41528342391E+03  0.10000000000E+01 0.  0.
<mgrwt>
<rscale>  0 0.12500345E+03</rscale>
<asrwt>0</asrwt>
<pdfrwt beam="1">  1        4 0.10264382E+00 0.12500345E+03</pdfrwt>
<pdfrwt beam="2">  1       -4 0.90079197E-03 0.12500345E+03</pdfrwt>
<totfact> 0.44545232E+03</totfact>
</mgrwt>
</event>
<event>
 5    1  0.3236337E-002  0.1250056E+03  0.7818608E-02  0.1235060E+00
          4   -1    0    0  501    0  0.00000000000E+00  0.00000000000E+00  0.60735993397E+02  0.60749269904E+02  0.12700000000E+01 0.  1.
         -4   -1    0    0    0  501 -0.00000000000E+00 -0.00000000000E+00 -0.64294462214E+02  0.64307004062E+02  0.12700000000E+01 0.  1.
         25    2    1    2    0    0  0.00000000000E+00  0.00000000000E+00 -0.35584688172E+01  0.12505627397E+03  0.12500563570E+03 0.  0.
    9000005    1    3    3    0    0 -0.35584153444E+01 -0.55347415862E+02 -0.30593740092E+02  0.63348052023E+02  0.10000000000E+01 0.  0.
    9000005    1    3    3    0    0  0.35584153444E+01  0.55347415862E+02  0.27035271275E+02  0.61708221942E+02  0.10000000000E+01 0.  0.
<mgrwt>
<rscale>  0 0.12500564E+03</rscale>
<asrwt>0</asrwt>
<pdfrwt beam="1">  1        4 0.93459850E-02 0.12500564E+03</pdfrwt>
<pdfrwt beam="2">  1       -4 0.98934417E-02 0.12500564E+03</pdfrwt>
<totfact> 0.10450309E+04</totfact>
</mgrwt>
</event>
<event>
 5    1  0.3236337E-002  0.1250048E+03  0.7818608E-02  0.1235062E+00
         -4   -1    0    0    0  501 -0.00000000000E+00  0.00000000000E+00  0.51607428357E+02  0.51623052618E+02  0.12700000000E+01 0.  1.
          4   -1    0    0  501    0  0.00000000000E+00 -0.00000000000E+00 -0.75665056997E+02  0.75675714402E+02  0.12700000000E+01 0.  1.
         25    2    1    2    0    0  0.00000000000E+00  0.00000000000E+00 -0.24057628640E+02  0.12729876702E+03  0.12500482626E+03 0.  0.
    9000005    1    3    3    0    0 -0.56089300849E+02 -0.18796680816E+02 -0.32553744341E+02  0.67528298883E+02  0.10000000000E+01 0.  0.
    9000005    1    3    3    0    0  0.56089300849E+02  0.18796680816E+02  0.84961157015E+01  0.59770468138E+02  0.10000000000E+01 0.  0.
<mgrwt>
<rscale>  0 0.12500483E+03</rscale>
<asrwt>0</asrwt>
<pdfrwt beam="2">  1        4 0.11642800E-01 0.12500483E+03</pdfrwt>
<pdfrwt beam="1">  1       -4 0.79416260E-02 0.12500483E+03</pdfrwt>
<totfact> 0.10401528E+04</totfact>
</mgrwt>
</event>
<event>
 5    1  0.3236337E-002  0.1249998E+03  0.7818608E-02  0.1235070E+00
         -4   -1    0    0    0  501 -0.00000000000E+00  0.00000000000E+00  0.69925824835E+00  0.14497800171E+01  0.12700000000E+01 0. -1.
          4   -1    0    0  501    0  0.00000000000E+00 -0.00000000000E+00 -0.36345875549E+04  0.36345877768E+04  0.12700000000E+01 0. -1.
         25    2    1    2    0    0  0.00000000000E+00  0.00000000000E+00 -0.36338882967E+04  0.36360375568E+04  0.12499984765E+03 0.  0.
    9000005    1    3    3    0    0 -0.41647603667E+02 -0.23890178855E+02 -0.65341909635E+03  0.65518148555E+03  0.10000000000E+01 0.  0.
    9000005    1    3    3    0    0  0.41647603667E+02  0.23890178855E+02 -0.29804692003E+04  0.29808560713E+04  0.10000000000E+01 0.  0.
<mgrwt>
<rscale>  0 0.12499985E+03</rscale>
<asrwt>0</asrwt>
<pdfrwt beam="2">  1        4 0.55921522E+00 0.12499985E+03</pdfrwt>
<pdfrwt beam="1">  1       -4 0.16533061E-03 0.12499985E+03</pdfrwt>
<totfact> 0.40963042E+01</totfact>
</mgrwt>
</event>
<event>
 5    1  0.3236337E-002  0.1250019E+03  0.7818608E-02  0.1235066E+00
         -4   -1    0    0    0  501 -0.00000000000E+00  0.00000000000E+00  0.52307943445E+02  0.52323358526E+02  0.12700000000E+01 0. -1.
          4   -1    0    0  501    0  0.00000000000E+00 -0.00000000000E+00 -0.74648401569E+02  0.74659204099E+02  0.12700000000E+01 0. -1.
         25    2    1    2    0    0  0.00000000000E+00  0.00000000000E+00 -0.22340458123E+02  0.12698256263E+03  0.12500190055E+03 0.  0.
    9000005    1    3    3    0    0 -0.19940098564E+02  0.33891140924E+02 -0.60510941539E+02  0.72171954455E+02  0.10000000000E+01 0.  0.
    9000005    1    3    3    0    0  0.19940098564E+02 -0.33891140924E+02  0.38170483416E+02  0.54810608171E+02  0.10000000000E+01 0.  0.
<mgrwt>
<rscale>  0 0.12500190E+03</rscale>
<asrwt>0</asrwt>
<pdfrwt beam="2">  1        4 0.11486386E-01 0.12500190E+03</pdfrwt>
<pdfrwt beam="1">  1       -4 0.80493927E-02 0.12500190E+03</pdfrwt>
<totfact> 0.10409078E+04</totfact>
</mgrwt>
</event>
<event>
 5    1  0.3236337E-002  0.1250030E+03  0.7818608E-02  0.1235065E+00
         -4   -1    0    0    0  501 -0.00000000000E+00  0.00000000000E+00  0.13901896820E+03  0.13902476908E+03  0.12700000000E+01 0.  1.
          4   -1    0    0  501    0  0.00000000000E+00 -0.00000000000E+00 -0.28079286631E+02  0.28107992417E+02  0.12700000000E+01 0.  1.
         25    2    1    2    0    0  0.00000000000E+00  0.00000000000E+00  0.11093968157E+03  0.16713276150E+03  0.12500298805E+03 0.  0.
    9000005    1    3    3    0    0  0.53216678801E+02 -0.98562947576E+01  0.97245888144E+02  0.11129655974E+03  0.10000000000E+01 0.  0.
    9000005    1    3    3    0    0 -0.53216678801E+02  0.98562947576E+01  0.13693793423E+02  0.55836201762E+02  0.10000000000E+01 0.  0.
<mgrwt>
<rscale>  0 0.12500299E+03</rscale>
<asrwt>0</asrwt>
<pdfrwt beam="2">  1        4 0.43225446E-02 0.12500299E+03</pdfrwt>
<pdfrwt beam="1">  1       -4 0.21390188E-01 0.12500299E+03</pdfrwt>
<totfact> 0.95978557E+03</totfact>
</mgrwt>
</event>
<event>
 5    1  0.3236337E-002  0.1250009E+03  0.7818608E-02  0.1235068E+00
          4   -1    0    0  501    0  0.00000000000E+00  0.00000000000E+00  0.17197505374E+02  0.17244335044E+02  0.12700000000E+01 0. -1.
         -4   -1    0    0    0  501 -0.00000000000E+00 -0.00000000000E+00 -0.22678635182E+03  0.22678990779E+03  0.12700000000E+01 0. -1.
         25    2    1    2    0    0  0.00000000000E+00  0.00000000000E+00 -0.20958884645E+03  0.24403424283E+03  0.12500090847E+03 0.  0.
    9000005    1    3    3    0    0  0.40503391205E+02  0.21999244833E+02 -0.18717921367E+03  0.19277331118E+03  0.10000000000E+01 0.  0.
    9000005    1    3    3    0    0 -0.40503391205E+02 -0.21999244833E+02 -0.22409632776E+02  0.51260931648E+02  0.10000000000E+01 0.  0.
<mgrwt>
<rscale>  0 0.12500091E+03</rscale>
<asrwt>0</asrwt>
<pdfrwt beam="1">  1        4 0.26496460E-02 0.12500091E+03</pdfrwt>
<pdfrwt beam="2">  1       -4 0.34894082E-01 0.12500091E+03</pdfrwt>
<totfact> 0.83198500E+03</totfact>
</mgrwt>
</event>
<event>
 5    1  0.3236337E-002  0.1249960E+03  0.7818608E-02  0.1235075E+00
          4   -1    0    0  501    0  0.00000000000E+00  0.00000000000E+00  0.44469822337E+03  0.44470003684E+03  0.12700000000E+01 0. -1.
         -4   -1    0    0    0  501 -0.00000000000E+00 -0.00000000000E+00 -0.87357412706E+01  0.88275747262E+01  0.12700000000E+01 0. -1.
         25    2    1    2    0    0  0.00000000000E+00  0.00000000000E+00  0.43596248210E+03  0.45352761157E+03  0.12499603457E+03 0.  0.
    9000005    1    3    3    0    0 -0.40374629658E+02  0.47658182761E+02  0.22485505664E+03  0.23337139842E+03  0.10000000000E+01 0.  0.
    9000005    1    3    3    0    0  0.40374629658E+02 -0.47658182761E+02  0.21110742546E+03  0.22015621315E+03  0.10000000000E+01 0.  0.
<mgrwt>
<rscale>  0 0.12499603E+03</rscale>
<asrwt>0</asrwt>
<pdfrwt beam="1">  1        4 0.68422328E-01 0.12499603E+03</pdfrwt>
<pdfrwt beam="2">  1       -4 0.13511635E-02 0.12499603E+03</pdfrwt>
<totfact> 0.59664613E+03</totfact>
</mgrwt>
</event>
<event>
 5    1  0.3236337E-002  0.1250344E+03  0.7818608E-02  0.1235016E+00
         -4   -1    0    0    0  501 -0.00000000000E+00  0.00000000000E+00  0.34837780963E+02  0.34860921997E+02  0.12700000000E+01 0. -1.
          4   -1    0    0  501    0  0.00000000000E+00 -0.00000000000E+00 -0.11212455267E+03  0.11213174489E+03  0.12700000000E+01 0. -1.
         25    2    1    2    0    0  0.00000000000E+00  0.00000000000E+00 -0.77286771707E+02  0.14699266688E+03  0.12503439142E+03 0.  0.
    9000005    1    3    3    0    0  0.25365630999E+01 -0.27459525211E+02 -0.10459272102E+03  0.10817160888E+03  0.10000000000E+01 0.  0.
    9000005    1    3    3    0    0 -0.25365630999E+01  0.27459525211E+02  0.27305949310E+02  0.38821058008E+02  0.10000000000E+01 0.  0.
<mgrwt>
<rscale>  0 0.12503439E+03</rscale>
<asrwt>0</asrwt>
<pdfrwt beam="2">  1        4 0.17252264E-01 0.12503439E+03</pdfrwt>
<pdfrwt beam="1">  1       -4 0.53619920E-02 0.12503439E+03</pdfrwt>
<totfact> 0.99829265E+03</totfact>
</mgrwt>
</event>
<event>
 5    1  0.3236337E-002  0.1249824E+03  0.7818608E-02  0.1235097E+00
          4   -1    0    0  501    0  0.00000000000E+00  0.00000000000E+00  0.30459219816E+02  0.30485684703E+02  0.12700000000E+01 0.  1.
         -4   -1    0    0    0  501 -0.00000000000E+00 -0.00000000000E+00 -0.12812376474E+03  0.12813005889E+03  0.12700000000E+01 0.  1.
         25    2    1    2    0    0  0.00000000000E+00  0.00000000000E+00 -0.97664544921E+02  0.15861574359E+03  0.12498236188E+03 0.  0.
    9000005    1    3    3    0    0 -0.61446639455E+02 -0.19771706737E+01 -0.34668867574E+02  0.70587031975E+02  0.10000000000E+01 0.  0.
    9000005    1    3    3    0    0  0.61446639455E+02  0.19771706737E+01 -0.62995677348E+02  0.88028711615E+02  0.10000000000E+01 0.  0.
<mgrwt>
<rscale>  0 0.12498236E+03</rscale>
<asrwt>0</asrwt>
<pdfrwt beam="1">  1        4 0.46885538E-02 0.12498236E+03</pdfrwt>
<pdfrwt beam="2">  1       -4 0.19713868E-01 0.12498236E+03</pdfrwt>
<totfact> 0.97649039E+03</totfact>
</mgrwt>
</event>
<event>
 5    1  0.3236337E-002  0.1249944E+03  0.7818608E-02  0.1235078E+00
         -4   -1    0    0    0  501 -0.00000000000E+00  0.00000000000E+00  0.63953923736E+03  0.63954049834E+03  0.12700000000E+01 0.  1.
          4   -1    0    0  501    0  0.00000000000E+00 -0.00000000000E+00 -0.60400576619E+01  0.61721306337E+01  0.12700000000E+01 0.  1.
         25    2    1    2    0    0  0.00000000000E+00  0.00000000000E+00  0.63349917969E+03  0.64571262897E+03  0.12499435405E+03 0.  0.
    9000005    1    3    3    0    0  0.54281814884E+01 -0.43222207386E+02  0.54819686949E+03  0.54992584235E+03  0.10000000000E+01 0.  0.
    9000005    1    3    3    0    0 -0.54281814884E+01  0.43222207386E+02  0.85302310199E+02  0.95786786620E+02  0.10000000000E+01 0.  0.
<mgrwt>
<rscale>  0 0.12499435E+03</rscale>
<asrwt>0</asrwt>
<pdfrwt beam="2">  1        4 0.93949706E-03 0.12499435E+03</pdfrwt>
<pdfrwt beam="1">  1       -4 0.98400807E-01 0.12499435E+03</pdfrwt>
<totfact> 0.46109251E+03</totfact>
</mgrwt>
</event>
<event>
 5    1  0.3236337E-002  0.1249981E+03  0.7818608E-02  0.1235072E+00
         -4   -1    0    0    0  501 -0.00000000000E+00  0.00000000000E+00  0.12616518348E+02  0.12680277411E+02  0.12700000000E+01 0.  1.
          4   -1    0    0  501    0  0.00000000000E+00 -0.00000000000E+00 -0.30875929901E+03  0.30876191090E+03  0.12700000000E+01 0.  1.
         25    2    1    2    0    0  0.00000000000E+00  0.00000000000E+00 -0.29614278066E+03  0.32144218831E+03  0.12499813555E+03 0.  0.
    9000005    1    3    3    0    0  0.18926127120E+02 -0.56358002055E+02 -0.19758412956E+03  0.20633688700E+03  0.10000000000E+01 0.  0.
    9000005    1    3    3    0    0 -0.18926127120E+02  0.56358002055E+02 -0.98558651099E+02  0.11510530131E+03  0.10000000000E+01 0.  0.
<mgrwt>
<rscale>  0 0.12499814E+03</rscale>
<asrwt>0</asrwt>
<pdfrwt beam="2">  1        4 0.47506530E-01 0.12499814E+03</pdfrwt>
<pdfrwt beam="1">  1       -4 0.19461085E-02 0.12499814E+03</pdfrwt>
<totfact> 0.72987942E+03</totfact>
</mgrwt>
</event>
<event>
 5    1  0.3236337E-002  0.1250478E+03  0.7818608E-02  0.1234995E+00
         -4   -1    0    0    0  501 -0.00000000000E+00  0.00000000000E+00  0.17223017109E+03  0.17223485342E+03  0.12700000000E+01 0.  1.
          4   -1    0    0  501    0  0.00000000000E+00 -0.00000000000E+00 -0.22674978352E+02  0.22710516138E+02  0.12700000000E+01 0.  1.
         25    2    1    2    0    0  0.00000000000E+00  0.00000000000E+00  0.14955519274E+03  0.19494536956E+03  0.12504775663E+03 0.  0.
    9000005    1    3    3    0    0  0.24401556298E+02 -0.38126805665E+02  0.75583283195E+01  0.45904439731E+02  0.10000000000E+01 0.  0.
    9000005    1    3    3    0    0 -0.24401556298E+02  0.38126805665E+02  0.14199686442E+03  0.14904092983E+03  0.10000000000E+01 0.  0.
<mgrwt>
<rscale>  0 0.12504776E+03</rscale>
<asrwt>0</asrwt>
<pdfrwt beam="2">  1        4 0.34915521E-02 0.12504776E+03</pdfrwt>
<pdfrwt beam="1">  1       -4 0.26500043E-01 0.12504776E+03</pdfrwt>
<totfact> 0.90896660E+03</totfact>
</mgrwt>
</event>
<event>
 5    1  0.3236337E-002  0.1249993E+03  0.7818608E-02  0.1235070E+00
         -4   -1    0    0    0  501 -0.00000000000E+00  0.00000000000E+00  0.40095708796E+02  0.40115816879E+02  0.12700000000E+01 0. -1.
          4   -1    0    0  501    0  0.00000000000E+00 -0.00000000000E+00 -0.97373317924E+02  0.97381599615E+02  0.12700000000E+01 0. -1.
         25    2    1    2    0    0  0.00000000000E+00  0.00000000000E+00 -0.57277609128E+02  0.13749741649E+03  0.12499926014E+03 0.  0.
    9000005    1    3    3    0    0 -0.15615279138E+01 -0.62472116527E+02 -0.28646264476E+02  0.68751815839E+02  0.10000000000E+01 0.  0.
    9000005    1    3    3    0    0  0.15615279138E+01  0.62472116527E+02 -0.28631344652E+02  0.68745600654E+02  0.10000000000E+01 0.  0.
<mgrwt>
<rscale>  0 0.12499926E+03</rscale>
<asrwt>0</asrwt>
<pdfrwt beam="2">  1        4 0.14982694E-01 0.12499926E+03</pdfrwt>
<pdfrwt beam="1">  1       -4 0.61707545E-02 0.12499926E+03</pdfrwt>
<totfact> 0.10185866E+04</totfact>
</mgrwt>
</event>
<event>
 5    1  0.3236337E-002  0.1250060E+03  0.7818608E-02  0.1235060E+00
         -4   -1    0    0    0  501 -0.00000000000E+00  0.00000000000E+00  0.51461409046E+02  0.51477077626E+02  0.12700000000E+01 0. -1.
          4   -1    0    0  501    0  0.00000000000E+00 -0.00000000000E+00 -0.75881117410E+02  0.75891744475E+02  0.12700000000E+01 0. -1.
         25    2    1    2    0    0  0.00000000000E+00  0.00000000000E+00 -0.24419708365E+02  0.12736882210E+03  0.12500597860E+03 0.  0.
    9000005    1    3    3    0    0 -0.59414112354E+02  0.14538812697E+02  0.84680147619E+00  0.61181131848E+02  0.10000000000E+01 0.  0.
    9000005    1    3    3    0    0  0.59414112354E+02 -0.14538812697E+02 -0.25266509841E+02  0.66187690253E+02  0.10000000000E+01 0.  0.
<mgrwt>
<rscale>  0 0.12500598E+03</rscale>
<asrwt>0</asrwt>
<pdfrwt beam="2">  1        4 0.11676041E-01 0.12500598E+03</pdfrwt>
<pdfrwt beam="1">  1       -4 0.79191626E-02 0.12500598E+03</pdfrwt>
<totfact> 0.10399739E+04</totfact>
</mgrwt>
</event>
<event>
 5    1  0.3236337E-002  0.1249970E+03  0.7818608E-02  0.1235074E+00
         -4   -1    0    0    0  501 -0.00000000000E+00  0.00000000000E+00  0.28107256090E+02  0.28135933340E+02  0.12700000000E+01 0.  1.
          4   -1    0    0  501    0  0.00000000000E+00 -0.00000000000E+00 -0.13886742318E+03  0.13887323039E+03  0.12700000000E+01 0.  1.
         25    2    1    2    0    0  0.00000000000E+00  0.00000000000E+00 -0.11076016709E+03  0.16700916373E+03  0.12499698460E+03 0.  0.
    9000005    1    3    3    0    0  0.61770673508E+02 -0.94518758011E+01 -0.54942057526E+02  0.83214083826E+02  0.10000000000E+01 0.  0.
    9000005    1    3    3    0    0 -0.61770673508E+02  0.94518758011E+01 -0.55818109561E+02  0.83795079908E+02  0.10000000000E+01 0.  0.
<mgrwt>
<rscale>  0 0.12499698E+03</rscale>
<asrwt>0</asrwt>
<pdfrwt beam="2">  1        4 0.21366871E-01 0.12499698E+03</pdfrwt>
<pdfrwt beam="1">  1       -4 0.43268460E-02 0.12499698E+03</pdfrwt>
<totfact> 0.96014739E+03</totfact>
</mgrwt>
</event>
<event>
 5    1  0.3236337E-002  0.1250011E+03  0.7818608E-02  0.1235067E+00
         -4   -1    0    0    0  501 -0.00000000000E+00  0.00000000000E+00  0.48742219646E+01  0.50369573912E+01  0.12700000000E+01 0.  1.
          4   -1    0    0  501    0  0.00000000000E+00 -0.00000000000E+00 -0.78810251861E+03  0.78810354189E+03  0.12700000000E+01 0.  1.
         25    2    1    2    0    0  0.00000000000E+00  0.00000000000E+00 -0.78322829664E+03  0.79314049928E+03  0.12500114773E+03 0.  0.
    9000005    1    3    3    0    0 -0.49336039422E+02  0.33419851964E+02 -0.51106166524E+03  0.51452498187E+03  0.10000000000E+01 0.  0.
    9000005    1    3    3    0    0  0.49336039422E+02 -0.33419851964E+02 -0.27216663140E+03  0.27861551740E+03  0.10000000000E+01 0.  0.
<mgrwt>
<rscale>  0 0.12500115E+03</rscale>
<asrwt>0</asrwt>
<pdfrwt beam="2">  1        4 0.12125904E+00 0.12500115E+03</pdfrwt>
<pdfrwt beam="1">  1       -4 0.76247775E-03 0.12500115E+03</pdfrwt>
<totfact> 0.38571854E+03</totfact>
</mgrwt>
</event>
<event>
 5    1  0.3236337E-002  0.1250018E+03  0.7818608E-02  0.1235067E+00
          4   -1    0    0  501    0  0.00000000000E+00  0.00000000000E+00  0.52436329039E+02  0.52451706388E+02  0.12700000000E+01 0. -1.
         -4   -1    0    0    0  501 -0.00000000000E+00 -0.00000000000E+00 -0.74465490322E+02  0.74476319384E+02  0.12700000000E+01 0. -1.
         25    2    1    2    0    0  0.00000000000E+00  0.00000000000E+00 -0.22029161283E+02  0.12692802577E+03  0.12500175911E+03 0.  0.
    9000005    1    3    3    0    0 -0.36650057494E+02 -0.42540792758E+02  0.16838285170E+02  0.58629971945E+02  0.10000000000E+01 0.  0.
    9000005    1    3    3    0    0  0.36650057494E+02  0.42540792758E+02 -0.38867446453E+02  0.68298053827E+02  0.10000000000E+01 0.  0.
<mgrwt>
<rscale>  0 0.12500176E+03</rscale>
<asrwt>0</asrwt>
<pdfrwt beam="1">  1        4 0.80691434E-02 0.12500176E+03</pdfrwt>
<pdfrwt beam="2">  1       -4 0.11458245E-01 0.12500176E+03</pdfrwt>
<totfact> 0.10410296E+04</totfact>
</mgrwt>
</event>
<event>
 5    1  0.3236337E-002  0.1250157E+03  0.7818608E-02  0.1235045E+00
         -4   -1    0    0    0  501 -0.00000000000E+00  0.00000000000E+00  0.16080451940E+02  0.16130524932E+02  0.12700000000E+01 0.  1.
          4   -1    0    0  501    0  0.00000000000E+00 -0.00000000000E+00 -0.24255078856E+03  0.24255411341E+03  0.12700000000E+01 0.  1.
         25    2    1    2    0    0  0.00000000000E+00  0.00000000000E+00 -0.22647033662E+03  0.25868463834E+03  0.12501571399E+03 0.  0.
    9000005    1    3    3    0    0  0.29561092661E+01  0.33387500276E+02 -0.22239040300E+03  0.22490432433E+03  0.10000000000E+01 0.  0.
    9000005    1    3    3    0    0 -0.29561092661E+01 -0.33387500276E+02 -0.40799336289E+01  0.33780314017E+02  0.10000000000E+01 0.  0.
<mgrwt>
<rscale>  0 0.12501571E+03</rscale>
<asrwt>0</asrwt>
<pdfrwt beam="2">  1        4 0.37319611E-01 0.12501571E+03</pdfrwt>
<pdfrwt beam="1">  1       -4 0.24780234E-02 0.12501571E+03</pdfrwt>
<totfact> 0.81062648E+03</totfact>
</mgrwt>
</event>
<event>
 5    1  0.3236337E-002  0.1249905E+03  0.7818608E-02  0.1235084E+00
         -4   -1    0    0    0  501 -0.00000000000E+00  0.00000000000E+00  0.99421646173E+02  0.99429757255E+02  0.12700000000E+01 0.  1.
          4   -1    0    0  501    0  0.00000000000E+00 -0.00000000000E+00 -0.39263790947E+02  0.39284324858E+02  0.12700000000E+01 0.  1.
         25    2    1    2    0    0  0.00000000000E+00  0.00000000000E+00  0.60157855226E+02  0.13871408211E+03  0.12499051576E+03 0.  0.
    9000005    1    3    3    0    0  0.42636164294E+02  0.96847323915E+01  0.79623878034E+02  0.90843813771E+02  0.10000000000E+01 0.  0.
    9000005    1    3    3    0    0 -0.42636164294E+02 -0.96847323915E+01 -0.19466022808E+02  0.47870268343E+02  0.10000000000E+01 0.  0.
<mgrwt>
<rscale>  0 0.12499052E+03</rscale>
<asrwt>0</asrwt>
<pdfrwt beam="2">  1        4 0.60427868E-02 0.12499052E+03</pdfrwt>
<pdfrwt beam="1">  1       -4 0.15297841E-01 0.12499052E+03</pdfrwt>
<totfact> 0.10162478E+04</totfact>
</mgrwt>
</event>
<event>
 5    1  0.3236337E-002  0.1249943E+03  0.7818608E-02  0.1235078E+00
         -4   -1    0    0    0  501 -0.00000000000E+00  0.00000000000E+00  0.52053049983E+02  0.52068540526E+02  0.12700000000E+01 0. -1.
          4   -1    0    0  501    0  0.00000000000E+00 -0.00000000000E+00 -0.75004705098E+02  0.75015456320E+02  0.12700000000E+01 0. -1.
         25    2    1    2    0    0  0.00000000000E+00  0.00000000000E+00 -0.22951655115E+02  0.12708399685E+03  0.12499425500E+03 0.  0.
    9000005    1    3    3    0    0  0.46970904674E+02 -0.20938452643E+02 -0.47568715167E+02  0.70060454949E+02  0.10000000000E+01 0.  0.
    9000005    1    3    3    0    0 -0.46970904674E+02  0.20938452643E+02  0.24617060051E+02  0.57023541898E+02  0.10000000000E+01 0.  0.
<mgrwt>
<rscale>  0 0.12499425E+03</rscale>
<asrwt>0</asrwt>
<pdfrwt beam="2">  1        4 0.11541204E-01 0.12499425E+03</pdfrwt>
<pdfrwt beam="1">  1       -4 0.80101801E-02 0.12499425E+03</pdfrwt>
<totfact> 0.10408671E+04</totfact>
</mgrwt>
</event>
<event>
 5    1  0.3236337E-002  0.1249957E+03  0.7818608E-02  0.1235076E+00
         -4   -1    0    0    0  501 -0.00000000000E+00  0.00000000000E+00  0.81685736618E+02  0.81695608614E+02  0.12700000000E+01 0.  1.
          4   -1    0    0  501    0  0.00000000000E+00 -0.00000000000E+00 -0.47795979249E+02  0.47812849030E+02  0.12700000000E+01 0.  1.
         25    2    1    2    0    0  0.00000000000E+00  0.00000000000E+00  0.33889757369E+02  0.12950845764E+03  0.12499569971E+03 0.  0.
    9000005    1    3    3    0    0  0.64055422567E+01 -0.35724413690E+02 -0.35761285359E+02  0.50962086257E+02  0.10000000000E+01 0.  0.
    9000005    1    3    3    0    0 -0.64055422567E+01  0.35724413690E+02  0.69651042728E+02  0.78546371387E+02  0.10000000000E+01 0.  0.
<mgrwt>
<rscale>  0 0.12499570E+03</rscale>
<asrwt>0</asrwt>
<pdfrwt beam="2">  1        4 0.73552846E-02 0.12499570E+03</pdfrwt>
<pdfrwt beam="1">  1       -4 0.12569093E-01 0.12499570E+03</pdfrwt>
<totfact> 0.10356039E+04</totfact>
</mgrwt>
</event>
<event>
 5    1  0.3236337E-002  0.1250091E+03  0.7818608E-02  0.1235055E+00
         -4   -1    0    0    0  501 -0.00000000000E+00  0.00000000000E+00  0.27289134873E+03  0.27289430392E+03  0.12700000000E+01 0. -1.
          4   -1    0    0  501    0  0.00000000000E+00 -0.00000000000E+00 -0.14285176226E+02  0.14341518741E+02  0.12700000000E+01 0. -1.
         25    2    1    2    0    0  0.00000000000E+00  0.00000000000E+00  0.25860617250E+03  0.28723582266E+03  0.12500906112E+03 0.  0.
    9000005    1    3    3    0    0 -0.40066188607E+02 -0.43165388423E+02  0.81255672064E+02  0.10035952605E+03  0.10000000000E+01 0.  0.
    9000005    1    3    3    0    0  0.40066188607E+02  0.43165388423E+02  0.17735050044E+03  0.18687629661E+03  0.10000000000E+01 0.  0.
<mgrwt>
<rscale>  0 0.12500906E+03</rscale>
<asrwt>0</asrwt>
<pdfrwt beam="2">  1        4 0.22022810E-02 0.12500906E+03</pdfrwt>
<pdfrwt beam="1">  1       -4 0.41987841E-01 0.12500906E+03</pdfrwt>
<totfact> 0.77212824E+03</totfact>
</mgrwt>
</event>
<event>
 5    1  0.3236337E-002  0.1250000E+03  0.7818608E-02  0.1235069E+00
          4   -1    0    0  501    0  0.00000000000E+00  0.00000000000E+00  0.27449312779E+03  0.27449606574E+03  0.12700000000E+01 0. -1.
         -4   -1    0    0    0  501 -0.00000000000E+00 -0.00000000000E+00 -0.14199413348E+02  0.14256094816E+02  0.12700000000E+01 0. -1.
         25    2    1    2    0    0  0.00000000000E+00  0.00000000000E+00  0.26029371444E+03  0.28875216055E+03  0.12499996978E+03 0.  0.
    9000005    1    3    3    0    0  0.51450112661E+02  0.43595958433E+01  0.48831343569E+02  0.71074751378E+02  0.10000000000E+01 0.  0.
    9000005    1    3    3    0    0 -0.51450112661E+02 -0.43595958433E+01  0.21146237087E+03  0.21767740917E+03  0.10000000000E+01 0.  0.
<mgrwt>
<rscale>  0 0.12499997E+03</rscale>
<asrwt>0</asrwt>
<pdfrwt beam="1">  1        4 0.42234297E-01 0.12499997E+03</pdfrwt>
<pdfrwt beam="2">  1       -4 0.21891113E-02 0.12499997E+03</pdfrwt>
<totfact> 0.77031813E+03</totfact>
</mgrwt>
</event>
<event>
 5    1  0.3236337E-002  0.1250002E+03  0.7818608E-02  0.1235069E+00
          4   -1    0    0  501    0  0.00000000000E+00  0.00000000000E+00  0.88208456932E+03  0.88208548357E+03  0.12700000000E+01 0.  1.
         -4   -1    0    0    0  501 -0.00000000000E+00 -0.00000000000E+00 -0.43364560843E+01  0.45186005988E+01  0.12700000000E+01 0.  1.
         25    2    1    2    0    0  0.00000000000E+00  0.00000000000E+00  0.87774811323E+03  0.88660408417E+03  0.12500020713E+03 0.  0.
    9000005    1    3    3    0    0 -0.53105017990E+02 -0.32824256022E+02  0.45854078345E+03  0.46277232503E+03  0.10000000000E+01 0.  0.
    9000005    1    3    3    0    0  0.53105017990E+02  0.32824256022E+02  0.41920732978E+03  0.42383175914E+03  0.10000000000E+01 0.  0.
<mgrwt>
<rscale>  0 0.12500021E+03</rscale>
<asrwt>0</asrwt>
<pdfrwt beam="1">  1        4 0.13571943E+00 0.12500021E+03</pdfrwt>
<pdfrwt beam="2">  1       -4 0.68122837E-03 0.12500021E+03</pdfrwt>
<totfact> 0.34674249E+03</totfact>
</mgrwt>
</event>
<event>
 4    1  0.3236337E-002  0.1248917E+03  0.7818608E-02  0.1235239E+00
         -4   -1    0    0    0  501 -0.00000000000E+00  0.00000000000E+00  0.44658157459E+02  0.44676212100E+02  0.12700000000E+01 0.  1.
          4   -1    0    0  501    0  0.00000000000E+00 -0.00000000000E+00 -0.87278249146E+02  0.87287488646E+02  0.12700000000E+01 0.  1.
    9000005    1    1    2    0    0  0.48819124832E+02  0.27432652734E+02 -0.50489521012E+02  0.75405895774E+02  0.10000000000E+01 0.  0.
    9000005    1    1    2    0    0 -0.48819124832E+02 -0.27432652734E+02  0.78694293245E+01  0.56557804972E+02  0.10000000000E+01 0.  0.
<mgrwt>
<rscale>  0 0.12489174E+03</rscale>
<asrwt>0</asrwt>
<pdfrwt beam="2">  1        4 0.13429522E-01 0.12489174E+03</pdfrwt>
<pdfrwt beam="1">  1       -4 0.68725853E-02 0.12489174E+03</pdfrwt>
<totfact> 0.10327675E+04</totfact>
</mgrwt>
</event>
<event>
 5    1  0.3236337E-002  0.1250090E+03  0.7818608E-02  0.1235055E+00
         -4   -1    0    0    0  501 -0.00000000000E+00  0.00000000000E+00  0.17642392102E+03  0.17642849206E+03  0.12700000000E+01 0.  1.
          4   -1    0    0  501    0  0.00000000000E+00 -0.00000000000E+00 -0.22121374351E+02  0.22157800053E+02  0.12700000000E+01 0.  1.
         25    2    1    2    0    0  0.00000000000E+00  0.00000000000E+00  0.15430254667E+03  0.19858629211E+03  0.12500895770E+03 0.  0.
    9000005    1    3    3    0    0 -0.35477319103E+02 -0.47495375205E+02  0.45724787688E+02  0.74874608819E+02  0.10000000000E+01 0.  0.
    9000005    1    3    3    0    0  0.35477319103E+02  0.47495375205E+02  0.10857775899E+03  0.12371168329E+03  0.10000000000E+01 0.  0.
<mgrwt>
<rscale>  0 0.12500896E+03</rscale>
<asrwt>0</asrwt>
<pdfrwt beam="2">  1        4 0.34064419E-02 0.12500896E+03</pdfrwt>
<pdfrwt beam="1">  1       -4 0.27145296E-01 0.12500896E+03</pdfrwt>
<totfact> 0.90356301E+03</totfact>
</mgrwt>
</event>
<event>
 5    1  0.3236337E-002  0.1250047E+03  0.7818608E-02  0.1235062E+00
         -4   -1    0    0    0  501 -0.00000000000E+00  0.00000000000E+00  0.49224525062E+03  0.49224688892E+03  0.12700000000E+01 0. -1.
          4   -1    0    0  501    0  0.00000000000E+00 -0.00000000000E+00 -0.78837026408E+01  0.79853407772E+01  0.12700000000E+01 0. -1.
         25    2    1    2    0    0  0.00000000000E+00  0.00000000000E+00  0.48436154798E+03  0.50023222970E+03  0.12500469781E+03 0.  0.
    9000005    1    3    3    0    0 -0.20955392437E+02  0.52053952525E+02  0.13209372419E+03  0.14352175590E+03  0.10000000000E+01 0.  0.
    9000005    1    3    3    0    0  0.20955392437E+02 -0.52053952525E+02  0.35226782378E+03  0.35671047380E+03  0.10000000000E+01 0.  0.
<mgrwt>
<rscale>  0 0.12500470E+03</rscale>
<asrwt>0</asrwt>
<pdfrwt beam="2">  1        4 0.12208216E-02 0.12500470E+03</pdfrwt>
<pdfrwt beam="1">  1       -4 0.75737987E-01 0.12500470E+03</pdfrwt>
<totfact> 0.55840581E+03</totfact>
</mgrwt>
</event>
<event>
 5    1  0.3236337E-002  0.1249877E+03  0.7818608E-02  0.1235088E+00
         -4   -1    0    0    0  501 -0.00000000000E+00  0.00000000000E+00  0.92450854650E+01  0.93319079107E+01  0.12700000000E+01 0. -1.
          4   -1    0    0  501    0  0.00000000000E+00 -0.00000000000E+00 -0.42037662880E+03  0.42037854719E+03  0.12700000000E+01 0. -1.
         25    2    1    2    0    0  0.00000000000E+00  0.00000000000E+00 -0.41113154333E+03  0.42971045510E+03  0.12498771660E+03 0.  0.
    9000005    1    3    3    0    0  0.60589730439E+01  0.43544802342E+02 -0.52907499111E+02  0.68797270494E+02  0.10000000000E+01 0.  0.
    9000005    1    3    3    0    0 -0.60589730439E+01 -0.43544802342E+02 -0.35822404422E+03  0.36091318461E+03  0.10000000000E+01 0.  0.
<mgrwt>
<rscale>  0 0.12498772E+03</rscale>
<asrwt>0</asrwt>
<pdfrwt beam="2">  1        4 0.64680139E-01 0.12498772E+03</pdfrwt>
<pdfrwt beam="1">  1       -4 0.14291474E-02 0.12498772E+03</pdfrwt>
<totfact> 0.61778983E+03</totfact>
</mgrwt>
</event>
<event>
 5    1  0.3236337E-002  0.1249994E+03  0.7818608E-02  0.1235070E+00
         -4   -1    0    0    0  501 -0.00000000000E+00  0.00000000000E+00  0.16883793173E+02  0.16931490540E+02  0.12700000000E+01 0.  1.
          4   -1    0    0  501    0  0.00000000000E+00 -0.00000000000E+00 -0.23098285104E+03  0.23098634240E+03  0.12700000000E+01 0.  1.
         25    2    1    2    0    0  0.00000000000E+00  0.00000000000E+00 -0.21409905787E+03  0.24791783294E+03  0.12499938124E+03 0.  0.
    9000005    1    3    3    0    0  0.54958738436E+02 -0.19948155375E+02 -0.15081019103E+03  0.16175013308E+03  0.10000000000E+01 0.  0.
    9000005    1    3    3    0    0 -0.54958738436E+02  0.19948155375E+02 -0.63288866843E+02  0.86167699863E+02  0.10000000000E+01 0.  0.
<mgrwt>
<rscale>  0 0.12499938E+03</rscale>
<asrwt>0</asrwt>
<pdfrwt beam="2">  1        4 0.35539759E-01 0.12499938E+03</pdfrwt>
<pdfrwt beam="1">  1       -4 0.26014444E-02 0.12499938E+03</pdfrwt>
<totfact> 0.82633240E+03</totfact>
</mgrwt>
</event>
<event>
 5    1  0.3236337E-002  0.1250088E+03  0.7818608E-02  0.1235055E+00
          4   -1    0    0  501    0  0.00000000000E+00  0.00000000000E+00  0.32170864521E+02  0.32195922475E+02  0.12700000000E+01 0. -1.
         -4   -1    0    0    0  501 -0.00000000000E+00 -0.00000000000E+00 -0.12136346971E+03  0.12137011444E+03  0.12700000000E+01 0. -1.
         25    2    1    2    0    0  0.00000000000E+00  0.00000000000E+00 -0.89192605188E+02  0.15356603692E+03  0.12500882719E+03 0.  0.
    9000005    1    3    3    0    0 -0.90352138668E+01 -0.71494658541E+01 -0.12005353596E+03  0.12060929254E+03  0.10000000000E+01 0.  0.
    9000005    1    3    3    0    0  0.90352138668E+01  0.71494658541E+01  0.30860930772E+02  0.32956744374E+02  0.10000000000E+01 0.  0.
<mgrwt>
<rscale>  0 0.12500883E+03</rscale>
<asrwt>0</asrwt>
<pdfrwt beam="1">  1        4 0.49518025E-02 0.12500883E+03</pdfrwt>
<pdfrwt beam="2">  1       -4 0.18673741E-01 0.12500883E+03</pdfrwt>
<totfact> 0.98577976E+03</totfact>
</mgrwt>
</event>
<event>
 5    1  0.3236337E-002  0.1249955E+03  0.7818608E-02  0.1235076E+00
         -4   -1    0    0    0  501 -0.00000000000E+00  0.00000000000E+00  0.26999689988E+03  0.26999988675E+03  0.12700000000E+01 0.  1.
          4   -1    0    0  501    0  0.00000000000E+00 -0.00000000000E+00 -0.14435760142E+02  0.14491517204E+02  0.12700000000E+01 0.  1.
         25    2    1    2    0    0  0.00000000000E+00  0.00000000000E+00  0.25556113974E+03  0.28449140395E+03  0.12499545103E+03 0.  0.
    9000005    1    3    3    0    0  0.37978151310E+02  0.15837118155E+02  0.23482128137E+03  0.23840131810E+03  0.10000000000E+01 0.  0.
    9000005    1    3    3    0    0 -0.37978151310E+02 -0.15837118155E+02  0.20739858363E+02  0.46090085846E+02  0.10000000000E+01 0.  0.
<mgrwt>
<rscale>  0 0.12499545E+03</rscale>
<asrwt>0</asrwt>
<pdfrwt beam="2">  1        4 0.22254049E-02 0.12499545E+03</pdfrwt>
<pdfrwt beam="1">  1       -4 0.41542504E-01 0.12499545E+03</pdfrwt>
<totfact> 0.77594164E+03</totfact>
</mgrwt>
</event>
<event>
 5    1  0.3236337E-002  0.1249961E+03  0.7818608E-02  0.1235075E+00
         -4   -1    0    0    0  501 -0.00000000000E+00  0.00000000000E+00  0.21611797595E+02  0.21649080703E+02  0.12700000000E+01 0. -1.
          4   -1    0    0  501    0  0.00000000000E+00 -0.00000000000E+00 -0.18053949081E+03  0.18054395765E+03  0.12700000000E+01 0. -1.
         25    2    1    2    0    0  0.00000000000E+00  0.00000000000E+00 -0.15892769322E+03  0.20219303835E+03  0.12499605228E+03 0.  0.
    9000005    1    3    3    0    0 -0.30408267178E+02 -0.37906390806E+02 -0.14301385827E+03  0.15104807458E+03  0.10000000000E+01 0.  0.
    9000005    1    3    3    0    0  0.30408267178E+02  0.37906390806E+02 -0.15913834952E+02  0.51144963775E+02  0.10000000000E+01 0.  0.
<mgrwt>
<rscale>  0 0.12499605E+03</rscale>
<asrwt>0</asrwt>
<pdfrwt beam="2">  1        4 0.27778517E-01 0.12499605E+03</pdfrwt>
<pdfrwt beam="1">  1       -4 0.33281036E-02 0.12499605E+03</pdfrwt>
<totfact> 0.89774876E+03</totfact>
</mgrwt>
</event>
<event>
 5    1  0.3236337E-002  0.1249967E+03  0.7818608E-02  0.1235074E+00
         -4   -1    0    0    0  501 -0.00000000000E+00  0.00000000000E+00  0.55480765535E+03  0.55480910892E+03  0.12700000000E+01 0.  1.
          4   -1    0    0  501    0  0.00000000000E+00 -0.00000000000E+00 -0.69816056068E+01  0.70961762132E+01  0.12700000000E+01 0.  1.
         25    2    1    2    0    0  0.00000000000E+00  0.00000000000E+00  0.54782604974E+03  0.56190528513E+03  0.12499667467E+03 0.  0.
    9000005    1    3    3    0    0 -0.20050518776E+02 -0.50996266093E+02  0.13887249567E+03  0.14929572168E+03  0.10000000000E+01 0.  0.
    9000005    1    3    3    0    0  0.20050518776E+02  0.50996266093E+02  0.40895355408E+03  0.41260956345E+03  0.10000000000E+01 0.  0.
<mgrwt>
<rscale>  0 0.12499667E+03</rscale>
<asrwt>0</asrwt>
<pdfrwt beam="2">  1        4 0.10830178E-02 0.12499667E+03</pdfrwt>
<pdfrwt beam="1">  1       -4 0.85363975E-01 0.12499667E+03</pdfrwt>
<totfact> 0.51367811E+03</totfact>
</mgrwt>
</event>
<event>
 5    1  0.3236337E-002  0.1249990E+03  0.7818608E-02  0.1235071E+00
          4   -1    0    0  501    0  0.00000000000E+00  0.00000000000E+00  0.38506392590E+02  0.38527330174E+02  0.12700000000E+01 0.  1.
         -4   -1    0    0    0  501 -0.00000000000E+00 -0.00000000000E+00 -0.10139006789E+03  0.10139802152E+03  0.12700000000E+01 0.  1.
         25    2    1    2    0    0  0.00000000000E+00  0.00000000000E+00 -0.62883675303E+02  0.13992535169E+03  0.12499898970E+03 0.  0.
    9000005    1    3    3    0    0 -0.94442008465E+01  0.30516399979E+02  0.28681556225E+02  0.42942697456E+02  0.10000000000E+01 0.  0.
    9000005    1    3    3    0    0  0.94442008465E+01 -0.30516399979E+02 -0.91565231529E+02  0.96982654234E+02  0.10000000000E+01 0.  0.
<mgrwt>
<rscale>  0 0.12499899E+03</rscale>
<asrwt>0</asrwt>
<pdfrwt beam="1">  1        4 0.59262828E-02 0.12499899E+03</pdfrwt>
<pdfrwt beam="2">  1       -4 0.15600694E-01 0.12499899E+03</pdfrwt>
<totfact> 0.10135364E+04</totfact>
</mgrwt>
</event>
<event>
 5    1  0.3236337E-002  0.1250000E+03  0.7818608E-02  0.1235069E+00
         -4   -1    0    0    0  501 -0.00000000000E+00  0.00000000000E+00  0.25246311279E+02  0.25278234376E+02  0.12700000000E+01 0. -1.
          4   -1    0    0  501    0  0.00000000000E+00 -0.00000000000E+00 -0.15459339697E+03  0.15459861347E+03  0.12700000000E+01 0. -1.
         25    2    1    2    0    0  0.00000000000E+00  0.00000000000E+00 -0.12934708569E+03  0.17987684785E+03  0.12500004726E+03 0.  0.
    9000005    1    3    3    0    0 -0.26277341509E+02  0.30162406779E+01 -0.14614839628E+03  0.14852592407E+03  0.10000000000E+01 0.  0.
    9000005    1    3    3    0    0  0.26277341509E+02 -0.30162406779E+01  0.16801310586E+02  0.31350923782E+02  0.10000000000E+01 0.  0.
<mgrwt>
<rscale>  0 0.12500005E+03</rscale>
<asrwt>0</asrwt>
<pdfrwt beam="2">  1        4 0.23786456E-01 0.12500005E+03</pdfrwt>
<pdfrwt beam="1">  1       -4 0.38869049E-02 0.12500005E+03</pdfrwt>
<totfact> 0.93639077E+03</totfact>
</mgrwt>
</event>
<event>
 5    1  0.3236337E-002  0.1250058E+03  0.7818608E-02  0.1235060E+00
         -4   -1    0    0    0  501 -0.00000000000E+00  0.00000000000E+00  0.44318746237E+02  0.44336939092E+02  0.12700000000E+01 0. -1.
          4   -1    0    0  501    0  0.00000000000E+00 -0.00000000000E+00 -0.88107231559E+02  0.88116384135E+02  0.12700000000E+01 0. -1.
         25    2    1    2    0    0  0.00000000000E+00  0.00000000000E+00 -0.43788485322E+02  0.13245332323E+03  0.12500580541E+03 0.  0.
    9000005    1    3    3    0    0 -0.59539349961E+02  0.70853592729E+01 -0.40564354928E+02  0.72398918504E+02  0.10000000000E+01 0.  0.
    9000005    1    3    3    0    0  0.59539349961E+02 -0.70853592729E+01 -0.32241303941E+01  0.60054404723E+02  0.10000000000E+01 0.  0.
<mgrwt>
<rscale>  0 0.12500581E+03</rscale>
<asrwt>0</asrwt>
<pdfrwt beam="2">  1        4 0.13557062E-01 0.12500581E+03</pdfrwt>
<pdfrwt beam="1">  1       -4 0.68203722E-02 0.12500581E+03</pdfrwt>
<totfact> 0.10290684E+04</totfact>
</mgrwt>
</event>
<event>
 5    1  0.3236337E-002  0.1250003E+03  0.7818608E-02  0.1235069E+00
          4   -1    0    0  501    0  0.00000000000E+00  0.00000000000E+00  0.41701544033E+03  0.41701737418E+03  0.12700000000E+01 0.  1.
         -4   -1    0    0    0  501 -0.00000000000E+00 -0.00000000000E+00 -0.93221921214E+01  0.94083030323E+01  0.12700000000E+01 0.  1.
         25    2    1    2    0    0  0.00000000000E+00  0.00000000000E+00  0.40769324821E+03  0.42642567722E+03  0.12500029423E+03 0.  0.
    9000005    1    3    3    0    0 -0.39339128186E+01  0.62242406511E+02  0.19034009626E+03  0.20029963825E+03  0.10000000000E+01 0.  0.
    9000005    1    3    3    0    0  0.39339128186E+01 -0.62242406511E+02  0.21735315195E+03  0.22612603897E+03  0.10000000000E+01 0.  0.
<mgrwt>
<rscale>  0 0.12500029E+03</rscale>
<asrwt>0</asrwt>
<pdfrwt beam="1">  1        4 0.64163001E-01 0.12500029E+03</pdfrwt>
<pdfrwt beam="2">  1       -4 0.14409559E-02 0.12500029E+03</pdfrwt>
<totfact> 0.62060915E+03</totfact>
</mgrwt>
</event>
<event>
 5    1  0.3236337E-002  0.1250037E+03  0.7818608E-02  0.1235064E+00
          4   -1    0    0  501    0  0.00000000000E+00  0.00000000000E+00  0.41378477853E+03  0.41378672749E+03  0.12700000000E+01 0.  1.
         -4   -1    0    0    0  501 -0.00000000000E+00 -0.00000000000E+00 -0.93961545796E+01  0.94815937945E+01  0.12700000000E+01 0.  1.
         25    2    1    2    0    0  0.00000000000E+00  0.00000000000E+00  0.40438862395E+03  0.42326832128E+03  0.12500365042E+03 0.  0.
    9000005    1    3    3    0    0  0.20029585987E+02  0.41792236971E+02  0.60234378068E+02  0.76006287154E+02  0.10000000000E+01 0.  0.
    9000005    1    3    3    0    0 -0.20029585987E+02 -0.41792236971E+02  0.34415424588E+03  0.34726203413E+03  0.10000000000E+01 0.  0.
<mgrwt>
<rscale>  0 0.12500365E+03</rscale>
<asrwt>0</asrwt>
<pdfrwt beam="1">  1        4 0.63665922E-01 0.12500365E+03</pdfrwt>
<pdfrwt beam="2">  1       -4 0.14522843E-02 0.12500365E+03</pdfrwt>
<totfact> 0.62345929E+03</totfact>
</mgrwt>
</event>
<event>
 5    1  0.3236337E-002  0.1249974E+03  0.7818608E-02  0.1235073E+00
          4   -1    0    0  501    0  0.00000000000E+00  0.00000000000E+00  0.17051237600E+03  0.17051710550E+03  0.12700000000E+01 0. -1.
         -4   -1    0    0    0  501 -0.00000000000E+00 -0.00000000000E+00 -0.22885271874E+02  0.22920483606E+02  0.12700000000E+01 0. -1.
         25    2    1    2    0    0  0.00000000000E+00  0.00000000000E+00  0.14762710413E+03  0.19343758911E+03  0.12499735600E+03 0.  0.
    9000005    1    3    3    0    0  0.19414394959E+02  0.43418850375E+02  0.11086512913E+02  0.48846965802E+02  0.10000000000E+01 0.  0.
    9000005    1    3    3    0    0 -0.19414394959E+02 -0.43418850375E+02  0.13654059121E+03  0.14459062331E+03  0.10000000000E+01 0.  0.
<mgrwt>
<rscale>  0 0.12499736E+03</rscale>
<asrwt>0</asrwt>
<pdfrwt beam="1">  1        4 0.26235747E-01 0.12499736E+03</pdfrwt>
<pdfrwt beam="2">  1       -4 0.35238833E-02 0.12499736E+03</pdfrwt>
<totfact> 0.91258003E+03</totfact>
</mgrwt>
</event>
<event>
 5    1  0.3236337E-002  0.1249983E+03  0.7818608E-02  0.1235072E+00
         -4   -1    0    0    0  501 -0.00000000000E+00  0.00000000000E+00  0.87599067512E+02  0.87608273176E+02  0.12700000000E+01 0. -1.
          4   -1    0    0  501    0  0.00000000000E+00 -0.00000000000E+00 -0.44570592814E+02  0.44588682912E+02  0.12700000000E+01 0. -1.
         25    2    1    2    0    0  0.00000000000E+00  0.00000000000E+00  0.43028474697E+02  0.13219695609E+03  0.12499834225E+03 0.  0.
    9000005    1    3    3    0    0  0.59315658094E+02  0.14327951731E+02  0.35762639316E+02  0.70736156714E+02  0.10000000000E+01 0.  0.
    9000005    1    3    3    0    0 -0.59315658094E+02 -0.14327951731E+02  0.72658353812E+01  0.61460799374E+02  0.10000000000E+01 0.  0.
<mgrwt>
<rscale>  0 0.12499834E+03</rscale>
<asrwt>0</asrwt>
<pdfrwt beam="2">  1        4 0.68591140E-02 0.12499834E+03</pdfrwt>
<pdfrwt beam="1">  1       -4 0.13478879E-01 0.12499834E+03</pdfrwt>
<totfact> 0.10297881E+04</totfact>
</mgrwt>
</event>
<event>
 5    1  0.3236337E-002  0.1249973E+03  0.7818608E-02  0.1235073E+00
         -4   -1    0    0    0  501 -0.00000000000E+00  0.00000000000E+00  0.55362105446E+02  0.55376670353E+02  0.12700000000E+01 0.  1.
          4   -1    0    0  501    0  0.00000000000E+00 -0.00000000000E+00 -0.70525625574E+02  0.70537059498E+02  0.12700000000E+01 0.  1.
         25    2    1    2    0    0  0.00000000000E+00  0.00000000000E+00 -0.15163520128E+02  0.12591372985E+03  0.12499734006E+03 0.  0.
    9000005    1    3    3    0    0 -0.42175632418E+02  0.17066523620E+02 -0.50733103666E+02  0.68153488582E+02  0.10000000000E+01 0.  0.
    9000005    1    3    3    0    0  0.42175632418E+02 -0.17066523620E+02  0.35569583538E+02  0.57760241269E+02  0.10000000000E+01 0.  0.
<mgrwt>
<rscale>  0 0.12499734E+03</rscale>
<asrwt>0</asrwt>
<pdfrwt beam="2">  1        4 0.10852096E-01 0.12499734E+03</pdfrwt>
<pdfrwt beam="1">  1       -4 0.85192469E-02 0.12499734E+03</pdfrwt>
<totfact> 0.10433475E+04</totfact>
</mgrwt>
</event>
<event>
 5    1  0.3236337E-002  0.1250001E+03  0.7818608E-02  0.1235069E+00
         -4   -1    0    0    0  501 -0.00000000000E+00  0.00000000000E+00  0.15640057994E+02  0.15691536383E+02  0.12700000000E+01 0. -1.
          4   -1    0    0  501    0  0.00000000000E+00 -0.00000000000E+00 -0.24929617578E+03  0.24929941067E+03  0.12700000000E+01 0. -1.
         25    2    1    2    0    0  0.00000000000E+00  0.00000000000E+00 -0.23365611779E+03  0.26499094705E+03  0.12500008256E+03 0.  0.
    9000005    1    3    3    0    0 -0.40626857889E+01  0.62359839460E+02 -0.11680069996E+03  0.13247134975E+03  0.10000000000E+01 0.  0.
    9000005    1    3    3    0    0  0.40626857889E+01 -0.62359839460E+02 -0.11685541783E+03  0.13251959730E+03  0.10000000000E+01 0.  0.
<mgrwt>
<rscale>  0 0.12500008E+03</rscale>
<asrwt>0</asrwt>
<pdfrwt beam="2">  1        4 0.38357464E-01 0.12500008E+03</pdfrwt>
<pdfrwt beam="1">  1       -4 0.24103717E-02 0.12500008E+03</pdfrwt>
<totfact> 0.80210569E+03</totfact>
</mgrwt>
</event>
<event>
 5    1  0.3236337E-002  0.1249981E+03  0.7818608E-02  0.1235072E+00
          4   -1    0    0  501    0  0.00000000000E+00  0.00000000000E+00  0.98491286542E+02  0.98499474235E+02  0.12700000000E+01 0.  1.
         -4   -1    0    0    0  501 -0.00000000000E+00 -0.00000000000E+00 -0.39639642522E+02  0.39659981837E+02  0.12700000000E+01 0.  1.
         25    2    1    2    0    0  0.00000000000E+00  0.00000000000E+00  0.58851644020E+02  0.13815945607E+03  0.12499807718E+03 0.  0.
    9000005    1    3    3    0    0  0.38158639862E+02  0.41792009090E+02  0.58720790110E+02  0.81558476022E+02  0.10000000000E+01 0.  0.
    9000005    1    3    3    0    0 -0.38158639862E+02 -0.41792009090E+02  0.13085390926E+00  0.56600980050E+02  0.10000000000E+01 0.  0.
<mgrwt>
<rscale>  0 0.12499808E+03</rscale>
<asrwt>0</asrwt>
<pdfrwt beam="1">  1        4 0.15154700E-01 0.12499808E+03</pdfrwt>
<pdfrwt beam="2">  1       -4 0.61006009E-02 0.12499808E+03</pdfrwt>
<totfact> 0.10172316E+04</totfact>
</mgrwt>
</event>
<event>
 5    1  0.3236337E-002  0.1250228E+03  0.7818608E-02  0.1235034E+00
         -4   -1    0    0    0  501 -0.00000000000E+00  0.00000000000E+00  0.38508623449E+03  0.38508832869E+03  0.12700000000E+01 0. -1.
          4   -1    0    0  501    0  0.00000000000E+00 -0.00000000000E+00 -0.10105661990E+02  0.10185151166E+02  0.12700000000E+01 0. -1.
         25    2    1    2    0    0  0.00000000000E+00  0.00000000000E+00  0.37498057250E+03  0.39527347986E+03  0.12502277443E+03 0.  0.
    9000005    1    3    3    0    0 -0.26562817614E+02 -0.33608451654E+02  0.43591365462E+02  0.61125432064E+02  0.10000000000E+01 0.  0.
    9000005    1    3    3    0    0  0.26562817614E+02  0.33608451654E+02  0.33138920704E+03  0.33414804779E+03  0.10000000000E+01 0.  0.
<mgrwt>
<rscale>  0 0.12502277E+03</rscale>
<asrwt>0</asrwt>
<pdfrwt beam="2">  1        4 0.15609931E-02 0.12502277E+03</pdfrwt>
<pdfrwt beam="1">  1       -4 0.59250303E-01 0.12502277E+03</pdfrwt>
<totfact> 0.64982414E+03</totfact>
</mgrwt>
</event>
<event>
 5    1  0.3236337E-002  0.1250006E+03  0.7818608E-02  0.1235068E+00
         -4   -1    0    0    0  501 -0.00000000000E+00  0.00000000000E+00  0.59838716039E+02  0.59852191583E+02  0.12700000000E+01 0.  1.
          4   -1    0    0  501    0  0.00000000000E+00 -0.00000000000E+00 -0.65253287267E+02  0.65265644861E+02  0.12700000000E+01 0.  1.
         25    2    1    2    0    0  0.00000000000E+00  0.00000000000E+00 -0.54145712278E+01  0.12511783644E+03  0.12500062166E+03 0.  0.
    9000005    1    3    3    0    0  0.35763879706E+02  0.50522478793E+02 -0.11300958097E+02  0.62930816051E+02  0.10000000000E+01 0.  0.
    9000005    1    3    3    0    0 -0.35763879706E+02 -0.50522478793E+02  0.58863868691E+01  0.62187020393E+02  0.10000000000E+01 0.  0.
<mgrwt>
<rscale>  0 0.12500062E+03</rscale>
<asrwt>0</asrwt>
<pdfrwt beam="2">  1        4 0.10040954E-01 0.12500062E+03</pdfrwt>
<pdfrwt beam="1">  1       -4 0.92079434E-02 0.12500062E+03</pdfrwt>
<totfact> 0.10450157E+04</totfact>
</mgrwt>
</event>
<event>
 5    1  0.3236337E-002  0.1249962E+03  0.7818608E-02  0.1235075E+00
         -4   -1    0    0    0  501 -0.00000000000E+00  0.00000000000E+00  0.15719879947E+02  0.15771097791E+02  0.12700000000E+01 0. -1.
          4   -1    0    0  501    0  0.00000000000E+00 -0.00000000000E+00 -0.24801901107E+03  0.24802226262E+03  0.12700000000E+01 0. -1.
         25    2    1    2    0    0  0.00000000000E+00  0.00000000000E+00 -0.23229913113E+03  0.26379336041E+03  0.12499620264E+03 0.  0.
    9000005    1    3    3    0    0 -0.40080414994E+02  0.41961480946E+02 -0.16509140797E+03  0.17499536718E+03  0.10000000000E+01 0.  0.
    9000005    1    3    3    0    0  0.40080414994E+02 -0.41961480946E+02 -0.67207723158E+02  0.88797993228E+02  0.10000000000E+01 0.  0.
<mgrwt>
<rscale>  0 0.12499620E+03</rscale>
<asrwt>0</asrwt>
<pdfrwt beam="2">  1        4 0.38160958E-01 0.12499620E+03</pdfrwt>
<pdfrwt beam="1">  1       -4 0.24226332E-02 0.12499620E+03</pdfrwt>
<totfact> 0.80383440E+03</totfact>
</mgrwt>
</event>
<event>
 5    1  0.3236337E-002  0.1249903E+03  0.7818608E-02  0.1235084E+00
          4   -1    0    0  501    0  0.00000000000E+00  0.00000000000E+00  0.24392181365E+02  0.24425220812E+02  0.12700000000E+01 0.  1.
         -4   -1    0    0    0  501 -0.00000000000E+00 -0.00000000000E+00 -0.15997483985E+03  0.15997988088E+03  0.12700000000E+01 0.  1.
         25    2    1    2    0    0  0.00000000000E+00  0.00000000000E+00 -0.13558265849E+03  0.18440510169E+03  0.12499033661E+03 0.  0.
    9000005    1    3    3    0    0 -0.36907609251E+02 -0.50299080501E+02 -0.62579975310E+02  0.88370936566E+02  0.10000000000E+01 0.  0.
    9000005    1    3    3    0    0  0.36907609251E+02  0.50299080501E+02 -0.73002683179E+02  0.96034165125E+02  0.10000000000E+01 0.  0.
<mgrwt>
<rscale>  0 0.12499034E+03</rscale>
<asrwt>0</asrwt>
<pdfrwt beam="1">  1        4 0.37555727E-02 0.12499034E+03</pdfrwt>
<pdfrwt beam="2">  1       -4 0.24614442E-01 0.12499034E+03</pdfrwt>
<totfact> 0.92850135E+03</totfact>
</mgrwt>
</event>
<event>
 5    1  0.3236337E-002  0.1249976E+03  0.7818608E-02  0.1235073E+00
         -4   -1    0    0    0  501 -0.00000000000E+00  0.00000000000E+00  0.11185656234E+02  0.11257522169E+02  0.12700000000E+01 0. -1.
          4   -1    0    0  501    0  0.00000000000E+00 -0.00000000000E+00 -0.34801498134E+03  0.34801729862E+03  0.12700000000E+01 0. -1.
         25    2    1    2    0    0  0.00000000000E+00  0.00000000000E+00 -0.33682932511E+03  0.35927482079E+03  0.12499761038E+03 0.  0.
    9000005    1    3    3    0    0  0.32642224365E+02 -0.13273043518E+02 -0.31674987554E+03  0.31870546301E+03  0.10000000000E+01 0.  0.
    9000005    1    3    3    0    0 -0.32642224365E+02  0.13273043518E+02 -0.20079449564E+02  0.40569357778E+02  0.10000000000E+01 0.  0.
<mgrwt>
<rscale>  0 0.12499761E+03</rscale>
<asrwt>0</asrwt>
<pdfrwt beam="2">  1        4 0.53546465E-01 0.12499761E+03</pdfrwt>
<pdfrwt beam="1">  1       -4 0.17265769E-02 0.12499761E+03</pdfrwt>
<totfact> 0.68719757E+03</totfact>
</mgrwt>
</event>
<event>
 5    1  0.3236337E-002  0.1249992E+03  0.7818608E-02  0.1235071E+00
         -4   -1    0    0    0  501 -0.00000000000E+00  0.00000000000E+00  0.45155673053E+03  0.45155851646E+03  0.12700000000E+01 0.  1.
          4   -1    0    0  501    0  0.00000000000E+00 -0.00000000000E+00 -0.86020954796E+01  0.86953405132E+01  0.12700000000E+01 0.  1.
         25    2    1    2    0    0  0.00000000000E+00  0.00000000000E+00  0.44295463505E+03  0.46025385698E+03  0.12499921658E+03 0.  0.
    9000005    1    3    3    0    0  0.26123596048E+02 -0.18708933343E+02  0.41882766551E+03  0.42005961464E+03  0.10000000000E+01 0.  0.
    9000005    1    3    3    0    0 -0.26123596048E+02  0.18708933343E+02  0.24126969543E+02  0.40194242332E+02  0.10000000000E+01 0.  0.
<mgrwt>
<rscale>  0 0.12499922E+03</rscale>
<asrwt>0</asrwt>
<pdfrwt beam="2">  1        4 0.13307090E-02 0.12499922E+03</pdfrwt>
<pdfrwt beam="1">  1       -4 0.69477596E-01 0.12499922E+03</pdfrwt>
<totfact> 0.59086691E+03</totfact>
</mgrwt>
</event>
<event>
 5    1  0.3236337E-002  0.1250330E+03  0.7818608E-02  0.1235018E+00
          4   -1    0    0  501    0  0.00000000000E+00  0.00000000000E+00  0.78256023365E+02  0.78266327963E+02  0.12700000000E+01 0. -1.
         -4   -1    0    0    0  501 -0.00000000000E+00 -0.00000000000E+00 -0.49921010737E+02  0.49937162645E+02  0.12700000000E+01 0. -1.
         25    2    1    2    0    0  0.00000000000E+00  0.00000000000E+00  0.28335012628E+02  0.12820349061E+03  0.12503304389E+03 0.  0.
    9000005    1    3    3    0    0  0.10693854124E+02 -0.60124582102E+02  0.27847151470E+02  0.67125164685E+02  0.10000000000E+01 0.  0.
    9000005    1    3    3    0    0 -0.10693854124E+02  0.60124582102E+02  0.48786115751E+00  0.61078325923E+02  0.10000000000E+01 0.  0.
<mgrwt>
<rscale>  0 0.12503304E+03</rscale>
<asrwt>0</asrwt>
<pdfrwt beam="1">  1        4 0.12041423E-01 0.12503304E+03</pdfrwt>
<pdfrwt beam="2">  1       -4 0.76821906E-02 0.12503304E+03</pdfrwt>
<totfact> 0.10375354E+04</totfact>
</mgrwt>
</event>
<event>
 5    1  0.3236337E-002  0.1249992E+03  0.7818608E-02  0.1235070E+00
          4   -1    0    0  501    0  0.00000000000E+00  0.00000000000E+00  0.29944417593E+03  0.29944686907E+03  0.12700000000E+01 0.  1.
         -4   -1    0    0    0  501 -0.00000000000E+00 -0.00000000000E+00 -0.13011171599E+02  0.13073006019E+02  0.12700000000E+01 0.  1.
         25    2    1    2    0    0  0.00000000000E+00  0.00000000000E+00  0.28643300433E+03  0.31251987509E+03  0.12499922543E+03 0.  0.
    9000005    1    3    3    0    0  0.23734128101E+02 -0.50747307718E+02  0.73992656488E+02  0.92814391618E+02  0.10000000000E+01 0.  0.
    9000005    1    3    3    0    0 -0.23734128101E+02  0.50747307718E+02  0.21244034784E+03  0.21970548347E+03  0.10000000000E+01 0.  0.
<mgrwt>
<rscale>  0 0.12499923E+03</rscale>
<asrwt>0</asrwt>
<pdfrwt beam="1">  1        4 0.46073299E-01 0.12499923E+03</pdfrwt>
<pdfrwt beam="2">  1       -4 0.20066823E-02 0.12499923E+03</pdfrwt>
<totfact> 0.74055979E+03</totfact>
</mgrwt>
</event>
<event>
 5    1  0.3236337E-002  0.1250018E+03  0.7818608E-02  0.1235066E+00
          4   -1    0    0  501    0  0.00000000000E+00  0.00000000000E+00  0.17977046522E+03  0.17977495116E+03  0.12700000000E+01 0.  1.
         -4   -1    0    0    0  501 -0.00000000000E+00 -0.00000000000E+00 -0.21706400875E+02  0.21743521770E+02  0.12700000000E+01 0.  1.
         25    2    1    2    0    0  0.00000000000E+00  0.00000000000E+00  0.15806406434E+03  0.20151847293E+03  0.12500178597E+03 0.  0.
    9000005    1    3    3    0    0 -0.36163420640E+02  0.44863138634E+02  0.11801970936E+03  0.13133981117E+03  0.10000000000E+01 0.  0.
    9000005    1    3    3    0    0  0.36163420640E+02 -0.44863138634E+02  0.40044354980E+02  0.70178661759E+02  0.10000000000E+01 0.  0.
<mgrwt>
<rscale>  0 0.12500179E+03</rscale>
<asrwt>0</asrwt>
<pdfrwt beam="1">  1        4 0.27660196E-01 0.12500179E+03</pdfrwt>
<pdfrwt beam="2">  1       -4 0.33426468E-02 0.12500179E+03</pdfrwt>
<totfact> 0.89876442E+03</totfact>
</mgrwt>
</event>
<event>
 5    1  0.3236337E-002  0.1250063E+03  0.7818608E-02  0.1235059E+00
          4   -1    0    0  501    0  0.00000000000E+00  0.00000000000E+00  0.82842487801E+02  0.82852221968E+02  0.12700000000E+01 0. -1.
         -4   -1    0    0    0  501 -0.00000000000E+00 -0.00000000000E+00 -0.47136446724E+02  0.47153552461E+02  0.12700000000E+01 0. -1.
         25    2    1    2    0    0  0.00000000000E+00  0.00000000000E+00  0.35706041077E+02  0.13000577443E+03  0.12500631990E+03 0.  0.
    9000005    1    3    3    0    0 -0.28767503423E+02  0.30982564239E+02 -0.30011056774E+02  0.51857034901E+02  0.10000000000E+01 0.  0.
    9000005    1    3    3    0    0  0.28767503423E+02 -0.30982564239E+02  0.65717097850E+02  0.78148739529E+02  0.10000000000E+01 0.  0.
<mgrwt>
<rscale>  0 0.12500632E+03</rscale>
<asrwt>0</asrwt>
<pdfrwt beam="1">  1        4 0.12747063E-01 0.12500632E+03</pdfrwt>
<pdfrwt beam="2">  1       -4 0.72538257E-02 0.12500632E+03</pdfrwt>
<totfact> 0.10342908E+04</totfact>
</mgrwt>
</event>
<event>
 5    1  0.3236337E-002  0.1249992E+03  0.7818608E-02  0.1235071E+00
         -4   -1    0    0    0  501 -0.00000000000E+00  0.00000000000E+00  0.15288126148E+02  0.15340785545E+02  0.12700000000E+01 0. -1.
          4   -1    0    0  501    0  0.00000000000E+00 -0.00000000000E+00 -0.25501195638E+03  0.25501511876E+03  0.12700000000E+01 0. -1.
         25    2    1    2    0    0  0.00000000000E+00  0.00000000000E+00 -0.23972383023E+03  0.27035590430E+03  0.12499920084E+03 0.  0.
    9000005    1    3    3    0    0 -0.56334295415E+02  0.10026161671E+02 -0.65526157436E+02  0.86998586576E+02  0.10000000000E+01 0.  0.
    9000005    1    3    3    0    0  0.56334295415E+02 -0.10026161671E+02 -0.17419767279E+03  0.18335731773E+03  0.10000000000E+01 0.  0.
<mgrwt>
<rscale>  0 0.12499920E+03</rscale>
<asrwt>0</asrwt>
<pdfrwt beam="2">  1        4 0.39236900E-01 0.12499920E+03</pdfrwt>
<pdfrwt beam="1">  1       -4 0.23563136E-02 0.12499920E+03</pdfrwt>
<totfact> 0.79475784E+03</totfact>
</mgrwt>
</event>
<event>
 5    1  0.3236337E-002  0.1249998E+03  0.7818608E-02  0.1235070E+00
         -4   -1    0    0    0  501 -0.00000000000E+00  0.00000000000E+00  0.36569468719E+03  0.36569689244E+03  0.12700000000E+01 0. -1.
          4   -1    0    0  501    0  0.00000000000E+00 -0.00000000000E+00 -0.10641688519E+02  0.10717202738E+02  0.12700000000E+01 0. -1.
         25    2    1    2    0    0  0.00000000000E+00  0.00000000000E+00  0.35505299867E+03  0.37641409518E+03  0.12499975673E+03 0.  0.
    9000005    1    3    3    0    0  0.49934785596E+00  0.47018098895E+02  0.53575568651E+02  0.71290199384E+02  0.10000000000E+01 0.  0.
    9000005    1    3    3    0    0 -0.49934785596E+00 -0.47018098895E+02  0.30147743002E+03  0.30512389579E+03  0.10000000000E+01 0.  0.
<mgrwt>
<rscale>  0 0.12499976E+03</rscale>
<asrwt>0</asrwt>
<pdfrwt beam="2">  1        4 0.16431616E-02 0.12499976E+03</pdfrwt>
<pdfrwt beam="1">  1       -4 0.56266689E-01 0.12499976E+03</pdfrwt>
<totfact> 0.66913564E+03</totfact>
</mgrwt>
</event>
<event>
 5    1  0.3236337E-002  0.1249998E+03  0.7818608E-02  0.1235070E+00
          4   -1    0    0  501    0  0.00000000000E+00  0.00000000000E+00  0.10421142269E+03  0.10421916100E+03  0.12700000000E+01 0. -1.
         -4   -1    0    0    0  501 -0.00000000000E+00 -0.00000000000E+00 -0.37463895335E+02  0.37485415213E+02  0.12700000000E+01 0. -1.
         25    2    1    2    0    0  0.00000000000E+00  0.00000000000E+00  0.66747527357E+02  0.14170457621E+03  0.12499981805E+03 0.  0.
    9000005    1    3    3    0    0  0.43731859726E+02 -0.15663302036E+02 -0.14014811177E+02  0.48530706961E+02  0.10000000000E+01 0.  0.
    9000005    1    3    3    0    0 -0.43731859726E+02  0.15663302036E+02  0.80762338534E+02  0.93173869252E+02  0.10000000000E+01 0.  0.
<mgrwt>
<rscale>  0 0.12499982E+03</rscale>
<asrwt>0</asrwt>
<pdfrwt beam="1">  1        4 0.16034777E-01 0.12499982E+03</pdfrwt>
<pdfrwt beam="2">  1       -4 0.57659269E-02 0.12499982E+03</pdfrwt>
<totfact> 0.10098420E+04</totfact>
</mgrwt>
</event>
<event>
 5    1  0.3236337E-002  0.1250091E+03  0.7818608E-02  0.1235055E+00
          4   -1    0    0  501    0  0.00000000000E+00  0.00000000000E+00  0.11706731646E+03  0.11707420503E+03  0.12700000000E+01 0. -1.
         -4   -1    0    0    0  501 -0.00000000000E+00 -0.00000000000E+00 -0.33352442583E+02  0.33376613463E+02  0.12700000000E+01 0. -1.
         25    2    1    2    0    0  0.00000000000E+00  0.00000000000E+00  0.83714873881E+02  0.15045081850E+03  0.12500907438E+03 0.  0.
    9000005    1    3    3    0    0  0.10111181094E+02  0.86862347257E+01  0.11534241503E+03  0.11611442358E+03  0.10000000000E+01 0.  0.
    9000005    1    3    3    0    0 -0.10111181094E+02 -0.86862347257E+01 -0.31627541151E+02  0.34336394920E+02  0.10000000000E+01 0.  0.
<mgrwt>
<rscale>  0 0.12500907E+03</rscale>
<asrwt>0</asrwt>
<pdfrwt beam="1">  1        4 0.18012746E-01 0.12500907E+03</pdfrwt>
<pdfrwt beam="2">  1       -4 0.51335342E-02 0.12500907E+03</pdfrwt>
<totfact> 0.99193652E+03</totfact>
</mgrwt>
</event>
<event>
 5    1  0.3236337E-002  0.1249992E+03  0.7818608E-02  0.1235071E+00
          4   -1    0    0  501    0  0.00000000000E+00  0.00000000000E+00  0.18608047390E+03  0.18608480772E+03  0.12700000000E+01 0. -1.
         -4   -1    0    0    0  501 -0.00000000000E+00 -0.00000000000E+00 -0.20968189583E+02  0.21006615015E+02  0.12700000000E+01 0. -1.
         25    2    1    2    0    0  0.00000000000E+00  0.00000000000E+00  0.16511228431E+03  0.20709142274E+03  0.12499916376E+03 0.  0.
    9000005    1    3    3    0    0 -0.41959001844E+02  0.37265028742E+02  0.37004535095E+02  0.67227790537E+02  0.10000000000E+01 0.  0.
    9000005    1    3    3    0    0  0.41959001844E+02 -0.37265028742E+02  0.12810774922E+03  0.13986363220E+03  0.10000000000E+01 0.  0.
<mgrwt>
<rscale>  0 0.12499916E+03</rscale>
<asrwt>0</asrwt>
<pdfrwt beam="1">  1        4 0.28631055E-01 0.12499916E+03</pdfrwt>
<pdfrwt beam="2">  1       -4 0.32291645E-02 0.12499916E+03</pdfrwt>
<totfact> 0.88954766E+03</totfact>
</mgrwt>
</event>
<event>
 5    1  0.3236337E-002  0.1249970E+03  0.7818608E-02  0.1235074E+00
         -4   -1    0    0    0  501 -0.00000000000E+00  0.00000000000E+00  0.23695966252E+02  0.23729975065E+02  0.12700000000E+01 0. -1.
          4   -1    0    0  501    0  0.00000000000E+00 -0.00000000000E+00 -0.16468605250E+03  0.16469094933E+03  0.12700000000E+01 0. -1.
         25    2    1    2    0    0  0.00000000000E+00  0.00000000000E+00 -0.14099008625E+03  0.18842092439E+03  0.12499696127E+03 0.  0.
    9000005    1    3    3    0    0 -0.35896641513E+02  0.44385522242E+02 -0.10882037582E+03  0.12288823235E+03  0.10000000000E+01 0.  0.
    9000005    1    3    3    0    0  0.35896641513E+02 -0.44385522242E+02 -0.32169710433E+02  0.65532692040E+02  0.10000000000E+01 0.  0.
<mgrwt>
<rscale>  0 0.12499696E+03</rscale>
<asrwt>0</asrwt>
<pdfrwt beam="2">  1        4 0.25339308E-01 0.12499696E+03</pdfrwt>
<pdfrwt beam="1">  1       -4 0.36485261E-02 0.12499696E+03</pdfrwt>
<totfact> 0.92129068E+03</totfact>
</mgrwt>
</event>
<event>
 5    1  0.3236337E-002  0.1250007E+03  0.7818608E-02  0.1235068E+00
         -4   -1    0    0    0  501 -0.00000000000E+00  0.00000000000E+00  0.13350126115E+04  0.13350132156E+04  0.12700000000E+01 0. -1.
          4   -1    0    0  501    0  0.00000000000E+00 -0.00000000000E+00 -0.27875940927E+01  0.30632631010E+01  0.12700000000E+01 0. -1.
         25    2    1    2    0    0  0.00000000000E+00  0.00000000000E+00  0.13322250174E+04  0.13380764787E+04  0.12500066314E+03 0.  0.
    9000005    1    3    3    0    0 -0.57575863370E+02 -0.15624363787E+02  0.46694142214E+03  0.47073813580E+03  0.10000000000E+01 0.  0.
    9000005    1    3    3    0    0  0.57575863370E+02  0.15624363787E+02  0.86528359527E+03  0.86733834288E+03  0.10000000000E+01 0.  0.
<mgrwt>
<rscale>  0 0.12500066E+03</rscale>
<asrwt>0</asrwt>
<pdfrwt beam="2">  1        4 0.45011193E-03 0.12500066E+03</pdfrwt>
<pdfrwt beam="1">  1       -4 0.20540802E+00 0.12500066E+03</pdfrwt>
<totfact> 0.21346940E+03</totfact>
</mgrwt>
</event>
<event>
 5    1  0.3236337E-002  0.1249906E+03  0.7818608E-02  0.1235084E+00
         -4   -1    0    0    0  501 -0.00000000000E+00  0.00000000000E+00  0.72010697981E+02  0.72021896140E+02  0.12700000000E+01 0.  1.
          4   -1    0    0  501    0  0.00000000000E+00 -0.00000000000E+00 -0.54214383384E+02  0.54229256548E+02  0.12700000000E+01 0.  1.
         25    2    1    2    0    0  0.00000000000E+00  0.00000000000E+00  0.17796314596E+02  0.12625115269E+03  0.12499057861E+03 0.  0.
    9000005    1    3    3    0    0  0.11830770077E+02 -0.46817950736E+01 -0.52897068756E+02  0.54414944718E+02  0.10000000000E+01 0.  0.
    9000005    1    3    3    0    0 -0.11830770077E+02  0.46817950736E+01  0.70693383352E+02  0.71836207970E+02  0.10000000000E+01 0.  0.
<mgrwt>
<rscale>  0 0.12499058E+03</rscale>
<asrwt>0</asrwt>
<pdfrwt beam="2">  1        4 0.83426799E-02 0.12499058E+03</pdfrwt>
<pdfrwt beam="1">  1       -4 0.11080574E-01 0.12499058E+03</pdfrwt>
<totfact> 0.10427678E+04</totfact>
</mgrwt>
</event>
<event>
 5    1  0.3236337E-002  0.1250024E+03  0.7818608E-02  0.1235066E+00
         -4   -1    0    0    0  501 -0.00000000000E+00  0.00000000000E+00  0.38366305746E+02  0.38387319738E+02  0.12700000000E+01 0. -1.
          4   -1    0    0  501    0  0.00000000000E+00 -0.00000000000E+00 -0.10176558547E+03  0.10177350975E+03  0.12700000000E+01 0. -1.
         25    2    1    2    0    0  0.00000000000E+00  0.00000000000E+00 -0.63399279723E+02  0.14016082948E+03  0.12500235779E+03 0.  0.
    9000005    1    3    3    0    0 -0.49478533407E+02 -0.14791802414E+02  0.77599002769E+01  0.52231587561E+02  0.10000000000E+01 0.  0.
    9000005    1    3    3    0    0  0.49478533407E+02  0.14791802414E+02 -0.71159180000E+02  0.87929241922E+02  0.10000000000E+01 0.  0.
<mgrwt>
<rscale>  0 0.12500236E+03</rscale>
<asrwt>0</asrwt>
<pdfrwt beam="2">  1        4 0.15658470E-01 0.12500236E+03</pdfrwt>
<pdfrwt beam="1">  1       -4 0.59047346E-02 0.12500236E+03</pdfrwt>
<totfact> 0.10129716E+04</totfact>
</mgrwt>
</event>
<event>
 5    1  0.3236337E-002  0.1249973E+03  0.7818608E-02  0.1235073E+00
          4   -1    0    0  501    0  0.00000000000E+00  0.00000000000E+00  0.25041782209E+02  0.25073965706E+02  0.12700000000E+01 0.  1.
         -4   -1    0    0    0  501 -0.00000000000E+00 -0.00000000000E+00 -0.15584764489E+03  0.15585281941E+03  0.12700000000E+01 0.  1.
         25    2    1    2    0    0  0.00000000000E+00  0.00000000000E+00 -0.13080586269E+03  0.18092678512E+03  0.12499731141E+03 0.  0.
    9000005    1    3    3    0    0  0.86554669048E+01 -0.31142465685E+02 -0.14281503597E+03  0.14643054591E+03  0.10000000000E+01 0.  0.
    9000005    1    3    3    0    0 -0.86554669048E+01  0.31142465685E+02  0.12009173289E+02  0.34496239206E+02  0.10000000000E+01 0.  0.
<mgrwt>
<rscale>  0 0.12499731E+03</rscale>
<asrwt>0</asrwt>
<pdfrwt beam="1">  1        4 0.38554557E-02 0.12499731E+03</pdfrwt>
<pdfrwt beam="2">  1       -4 0.23979434E-01 0.12499731E+03</pdfrwt>
<totfact> 0.93456078E+03</totfact>
</mgrwt>
</event>
<event>
 5    1  0.3236337E-002  0.1250005E+03  0.7818608E-02  0.1235069E+00
         -4   -1    0    0    0  501 -0.00000000000E+00  0.00000000000E+00  0.15967158902E+02  0.16017586067E+02  0.12700000000E+01 0.  1.
          4   -1    0    0  501    0  0.00000000000E+00 -0.00000000000E+00 -0.24420675528E+03  0.24421005758E+03  0.12700000000E+01 0.  1.
         25    2    1    2    0    0  0.00000000000E+00  0.00000000000E+00 -0.22823959638E+03  0.26022764365E+03  0.12500045266E+03 0.  0.
    9000005    1    3    3    0    0 -0.35391651484E+02 -0.23545442598E+02 -0.20948234728E+03  0.21375408928E+03  0.10000000000E+01 0.  0.
    9000005    1    3    3    0    0  0.35391651484E+02  0.23545442598E+02 -0.18757249095E+02  0.46473554367E+02  0.10000000000E+01 0.  0.
<mgrwt>
<rscale>  0 0.12500045E+03</rscale>
<asrwt>0</asrwt>
<pdfrwt beam="2">  1        4 0.37574400E-01 0.12500045E+03</pdfrwt>
<pdfrwt beam="1">  1       -4 0.24606192E-02 0.12500045E+03</pdfrwt>
<totfact> 0.80873311E+03</totfact>
</mgrwt>
</event>
<event>
 5    1  0.3236337E-002  0.1250009E+03  0.7818608E-02  0.1235068E+00
          4   -1    0    0  501    0  0.00000000000E+00  0.00000000000E+00  0.38910847768E+02  0.38931567834E+02  0.12700000000E+01 0.  1.
         -4   -1    0    0    0  501 -0.00000000000E+00 -0.00000000000E+00 -0.10033969570E+03  0.10034773258E+03  0.12700000000E+01 0.  1.
         25    2    1    2    0    0  0.00000000000E+00  0.00000000000E+00 -0.61428847933E+02  0.13927930041E+03  0.12500088066E+03 0.  0.
    9000005    1    3    3    0    0  0.36945616535E+02  0.26827934311E+02 -0.78256636554E+02  0.90608044926E+02  0.10000000000E+01 0.  0.
    9000005    1    3    3    0    0 -0.36945616535E+02 -0.26827934311E+02  0.16827788622E+02  0.48671255485E+02  0.10000000000E+01 0.  0.
<mgrwt>
<rscale>  0 0.12500088E+03</rscale>
<asrwt>0</asrwt>
<pdfrwt beam="1">  1        4 0.59884964E-02 0.12500088E+03</pdfrwt>
<pdfrwt beam="2">  1       -4 0.15439088E-01 0.12500088E+03</pdfrwt>
<totfact> 0.10148343E+04</totfact>
</mgrwt>
</event>
<event>
 5    1  0.3236337E-002  0.1249973E+03  0.7818608E-02  0.1235074E+00
          4   -1    0    0  501    0  0.00000000000E+00  0.00000000000E+00  0.57844916973E+02  0.57858856882E+02  0.12700000000E+01 0. -1.
         -4   -1    0    0    0  501 -0.00000000000E+00 -0.00000000000E+00 -0.67498696051E+02  0.67510642632E+02  0.12700000000E+01 0. -1.
         25    2    1    2    0    0  0.00000000000E+00  0.00000000000E+00 -0.96537790776E+01  0.12536949951E+03  0.12499726380E+03 0.  0.
    9000005    1    3    3    0    0  0.52205649070E+02  0.31447408187E+02 -0.18677783103E+02  0.63751304756E+02  0.10000000000E+01 0.  0.
    9000005    1    3    3    0    0 -0.52205649070E+02 -0.31447408187E+02  0.90240040252E+01  0.61618194757E+02  0.10000000000E+01 0.  0.
<mgrwt>
<rscale>  0 0.12499726E+03</rscale>
<asrwt>0</asrwt>
<pdfrwt beam="1">  1        4 0.89012093E-02 0.12499726E+03</pdfrwt>
<pdfrwt beam="2">  1       -4 0.10386406E-01 0.12499726E+03</pdfrwt>
<totfact> 0.10445488E+04</totfact>
</mgrwt>
</event>
<event>
 5    1  0.3236337E-002  0.1249993E+03  0.7818608E-02  0.1235070E+00
         -4   -1    0    0    0  501 -0.00000000000E+00  0.00000000000E+00  0.13883043610E+03  0.13883624486E+03  0.12700000000E+01 0. -1.
          4   -1    0    0  501    0  0.00000000000E+00 -0.00000000000E+00 -0.28115782689E+02  0.28144451251E+02  0.12700000000E+01 0. -1.
         25    2    1    2    0    0  0.00000000000E+00  0.00000000000E+00  0.11071465341E+03  0.16698069611E+03  0.12499927358E+03 0.  0.
    9000005    1    3    3    0    0  0.30493650638E+02  0.22274230781E+02  0.12187156233E+03  0.12759185629E+03  0.10000000000E+01 0.  0.
    9000005    1    3    3    0    0 -0.30493650638E+02 -0.22274230781E+02 -0.11156908921E+02  0.39388839826E+02  0.10000000000E+01 0.  0.
<mgrwt>
<rscale>  0 0.12499927E+03</rscale>
<asrwt>0</asrwt>
<pdfrwt beam="2">  1        4 0.43281571E-02 0.12499927E+03</pdfrwt>
<pdfrwt beam="1">  1       -4 0.21361181E-01 0.12499927E+03</pdfrwt>
<totfact> 0.96015156E+03</totfact>
</mgrwt>
</event>
<event>
 5    1  0.3236337E-002  0.1249987E+03  0.7818608E-02  0.1235071E+00
          4   -1    0    0  501    0  0.00000000000E+00  0.00000000000E+00  0.33233652826E+03  0.33233895486E+03  0.12700000000E+01 0. -1.
         -4   -1    0    0    0  501 -0.00000000000E+00 -0.00000000000E+00 -0.11716866212E+02  0.11785493364E+02  0.12700000000E+01 0. -1.
         25    2    1    2    0    0  0.00000000000E+00  0.00000000000E+00  0.32061966205E+03  0.34412444822E+03  0.12499867268E+03 0.  0.
    9000005    1    3    3    0    0 -0.42909325364E+02  0.26017944814E+01  0.35443007008E+02  0.55724198365E+02  0.10000000000E+01 0.  0.
    9000005    1    3    3    0    0  0.42909325364E+02 -0.26017944814E+01  0.28517665504E+03  0.28840024986E+03  0.10000000000E+01 0.  0.
<mgrwt>
<rscale>  0 0.12499867E+03</rscale>
<asrwt>0</asrwt>
<pdfrwt beam="1">  1        4 0.51134157E-01 0.12499867E+03</pdfrwt>
<pdfrwt beam="2">  1       -4 0.18080607E-02 0.12499867E+03</pdfrwt>
<totfact> 0.70377881E+03</totfact>
</mgrwt>
</event>
<event>
 4    1  0.3236337E-002  0.1248440E+03  0.7818608E-02  0.1235313E+00
          4   -1    0    0  501    0  0.00000000000E+00  0.00000000000E+00  0.10008481793E+03  0.10009287527E+03  0.12700000000E+01 0.  1.
         -4   -1    0    0    0  501 -0.00000000000E+00 -0.00000000000E+00 -0.38912064960E+02  0.38932784378E+02  0.12700000000E+01 0.  1.
    9000005    1    1    2    0    0  0.11664992355E+02 -0.38654043797E+02 -0.22415358953E+02  0.46191508587E+02  0.10000000000E+01 0.  0.
    9000005    1    1    2    0    0 -0.11664992355E+02  0.38654043797E+02  0.83588111924E+02  0.92834151063E+02  0.10000000000E+01 0.  0.
<mgrwt>
<rscale>  0 0.12484402E+03</rscale>
<asrwt>0</asrwt>
<pdfrwt beam="1">  1        4 0.15399878E-01 0.12484402E+03</pdfrwt>
<pdfrwt beam="2">  1       -4 0.59886851E-02 0.12484402E+03</pdfrwt>
<totfact> 0.10189588E+04</totfact>
</mgrwt>
</event>
<event>
 5    1  0.3236337E-002  0.1250501E+03  0.7818608E-02  0.1234991E+00
          4   -1    0    0  501    0  0.00000000000E+00  0.00000000000E+00  0.99944260594E+01  0.10074792914E+02  0.12700000000E+01 0.  1.
         -4   -1    0    0    0  501 -0.00000000000E+00 -0.00000000000E+00 -0.38950843368E+03  0.38951050410E+03  0.12700000000E+01 0.  1.
         25    2    1    2    0    0  0.00000000000E+00  0.00000000000E+00 -0.37951400762E+03  0.39958529701E+03  0.12505010041E+03 0.  0.
    9000005    1    3    3    0    0  0.31059455515E+02 -0.14687013361E+02 -0.35665316427E+03  0.35830556474E+03  0.10000000000E+01 0.  0.
    9000005    1    3    3    0    0 -0.31059455515E+02  0.14687013361E+02 -0.22860843349E+02  0.41279732278E+02  0.10000000000E+01 0.  0.
<mgrwt>
<rscale>  0 0.12505010E+03</rscale>
<asrwt>0</asrwt>
<pdfrwt beam="1">  1        4 0.15439456E-02 0.12505010E+03</pdfrwt>
<pdfrwt beam="2">  1       -4 0.59930704E-01 0.12505010E+03</pdfrwt>
<totfact> 0.64521755E+03</totfact>
</mgrwt>
</event>
<event>
 4    1  0.3236337E-002  0.1250879E+03  0.7818608E-02  0.1234932E+00
         -4   -1    0    0    0  501 -0.00000000000E+00  0.00000000000E+00  0.44847121426E+03  0.44847301248E+03  0.12700000000E+01 0. -1.
          4   -1    0    0  501    0  0.00000000000E+00 -0.00000000000E+00 -0.86743404857E+01  0.87668171455E+01  0.12700000000E+01 0. -1.
    9000005    1    1    2    0    0 -0.41601307982E+02  0.24984419298E+02  0.75715731726E+02  0.89937545354E+02  0.10000000000E+01 0.  0.
    9000005    1    1    2    0    0  0.41601307982E+02 -0.24984419298E+02  0.36408114205E+03  0.36730228427E+03  0.10000000000E+01 0.  0.
<mgrwt>
<rscale>  0 0.12508786E+03</rscale>
<asrwt>0</asrwt>
<pdfrwt beam="2">  1        4 0.13417661E-02 0.12508786E+03</pdfrwt>
<pdfrwt beam="1">  1       -4 0.69002807E-01 0.12508786E+03</pdfrwt>
<totfact> 0.59227047E+03</totfact>
</mgrwt>
</event>
<event>
 5    1  0.3236337E-002  0.1250047E+03  0.7818608E-02  0.1235062E+00
         -4   -1    0    0    0  501 -0.00000000000E+00  0.00000000000E+00  0.56878656595E+02  0.56892833257E+02  0.12700000000E+01 0.  1.
          4   -1    0    0  501    0  0.00000000000E+00 -0.00000000000E+00 -0.68653482650E+02  0.68665228318E+02  0.12700000000E+01 0.  1.
         25    2    1    2    0    0  0.00000000000E+00  0.00000000000E+00 -0.11774826054E+02  0.12555806158E+03  0.12500472110E+03 0.  0.
    9000005    1    3    3    0    0  0.58771579137E+02  0.18211721811E+02  0.51054264410E+01  0.61748123087E+02  0.10000000000E+01 0.  0.
    9000005    1    3    3    0    0 -0.58771579137E+02 -0.18211721811E+02 -0.16880252496E+02  0.63809938488E+02  0.10000000000E+01 0.  0.
<mgrwt>
<rscale>  0 0.12500472E+03</rscale>
<asrwt>0</asrwt>
<pdfrwt beam="2">  1        4 0.10564068E-01 0.12500472E+03</pdfrwt>
<pdfrwt beam="1">  1       -4 0.87525565E-02 0.12500472E+03</pdfrwt>
<totfact> 0.10439560E+04</totfact>
</mgrwt>
</event>
<event>
 5    1  0.3236337E-002  0.1249991E+03  0.7818608E-02  0.1235071E+00
          4   -1    0    0  501    0  0.00000000000E+00  0.00000000000E+00  0.87071169072E+02  0.87080430544E+02  0.12700000000E+01 0. -1.
         -4   -1    0    0    0  501 -0.00000000000E+00 -0.00000000000E+00 -0.44841469783E+02  0.44859450646E+02  0.12700000000E+01 0. -1.
         25    2    1    2    0    0  0.00000000000E+00  0.00000000000E+00  0.42229699290E+02  0.13193988119E+03  0.12499913898E+03 0.  0.
    9000005    1    3    3    0    0  0.47784243293E+02  0.30272386003E+02 -0.69201544552E+01  0.56996840255E+02  0.10000000000E+01 0.  0.
    9000005    1    3    3    0    0 -0.47784243293E+02 -0.30272386003E+02  0.49149853745E+02  0.74943040935E+02  0.10000000000E+01 0.  0.
<mgrwt>
<rscale>  0 0.12499914E+03</rscale>
<asrwt>0</asrwt>
<pdfrwt beam="1">  1        4 0.13397660E-01 0.12499914E+03</pdfrwt>
<pdfrwt beam="2">  1       -4 0.69007833E-02 0.12499914E+03</pdfrwt>
<totfact> 0.10303182E+04</totfact>
</mgrwt>
</event>
<event>
 5    1  0.3236337E-002  0.1249984E+03  0.7818608E-02  0.1235072E+00
         -4   -1    0    0    0  501 -0.00000000000E+00  0.00000000000E+00  0.66594296663E+03  0.66594417762E+03  0.12700000000E+01 0. -1.
          4   -1    0    0  501    0  0.00000000000E+00 -0.00000000000E+00 -0.57956198185E+01  0.59331365298E+01  0.12700000000E+01 0. -1.
         25    2    1    2    0    0  0.00000000000E+00  0.00000000000E+00  0.66014734681E+03  0.67187731415E+03  0.12499842305E+03 0.  0.
    9000005    1    3    3    0    0 -0.21788387878E+01 -0.61267008474E+02  0.39518941683E+03  0.39991757756E+03  0.10000000000E+01 0.  0.
    9000005    1    3    3    0    0  0.21788387878E+01  0.61267008474E+02  0.26495792998E+03  0.27195973659E+03  0.10000000000E+01 0.  0.
<mgrwt>
<rscale>  0 0.12499842E+03</rscale>
<asrwt>0</asrwt>
<pdfrwt beam="2">  1        4 0.90230525E-03 0.12499842E+03</pdfrwt>
<pdfrwt beam="1">  1       -4 0.10246343E+00 0.12499842E+03</pdfrwt>
<totfact> 0.44614943E+03</totfact>
</mgrwt>
</event>
<event>
 5    1  0.3236337E-002  0.1249680E+03  0.7818608E-02  0.1235119E+00
         -4   -1    0    0    0  501 -0.00000000000E+00  0.00000000000E+00  0.16973574624E+04  0.16973579375E+04  0.12700000000E+01 0.  1.
          4   -1    0    0  501    0  0.00000000000E+00 -0.00000000000E+00 -0.21243793628E+01  0.24750530655E+01  0.12700000000E+01 0.  1.
         25    2    1    2    0    0  0.00000000000E+00  0.00000000000E+00  0.16952330830E+04  0.16998329906E+04  0.12496795614E+03 0.  0.
    9000005    1    3    3    0    0  0.40429041521E+02  0.20466453876E+02  0.26258735630E+03  0.26647045393E+03  0.10000000000E+01 0.  0.
    9000005    1    3    3    0    0 -0.40429041521E+02 -0.20466453876E+02  0.14326457267E+04  0.14333625367E+04  0.10000000000E+01 0.  0.
<mgrwt>
<rscale>  0 0.12496796E+03</rscale>
<asrwt>0</asrwt>
<pdfrwt beam="2">  1        4 0.35383997E-03 0.12496796E+03</pdfrwt>
<pdfrwt beam="1">  1       -4 0.26115824E+00 0.12496796E+03</pdfrwt>
<totfact> 0.14320830E+03</totfact>
</mgrwt>
</event>
<event>
 5    1  0.3236337E-002  0.1250028E+03  0.7818608E-02  0.1235065E+00
         -4   -1    0    0    0  501 -0.00000000000E+00  0.00000000000E+00  0.12454588073E+03  0.12455235569E+03  0.12700000000E+01 0.  1.
          4   -1    0    0  501    0  0.00000000000E+00 -0.00000000000E+00 -0.31345198358E+02  0.31370915832E+02  0.12700000000E+01 0.  1.
         25    2    1    2    0    0  0.00000000000E+00  0.00000000000E+00  0.93200682374E+02  0.15592327152E+03  0.12500279759E+03 0.  0.
    9000005    1    3    3    0    0  0.15329270254E+02 -0.60935089686E+01 -0.28586576605E+02  0.33019838583E+02  0.10000000000E+01 0.  0.
    9000005    1    3    3    0    0 -0.15329270254E+02  0.60935089686E+01  0.12178725898E+03  0.12290343294E+03  0.10000000000E+01 0.  0.
<mgrwt>
<rscale>  0 0.12500280E+03</rscale>
<asrwt>0</asrwt>
<pdfrwt beam="2">  1        4 0.48248144E-02 0.12500280E+03</pdfrwt>
<pdfrwt beam="1">  1       -4 0.19163381E-01 0.12500280E+03</pdfrwt>
<totfact> 0.98128379E+03</totfact>
</mgrwt>
</event>
<event>
 5    1  0.3236337E-002  0.1249597E+03  0.7818608E-02  0.1235132E+00
          4   -1    0    0  501    0  0.00000000000E+00  0.00000000000E+00  0.25628803662E+02  0.25660250917E+02  0.12700000000E+01 0.  1.
         -4   -1    0    0    0  501 -0.00000000000E+00 -0.00000000000E+00 -0.15219074537E+03  0.15219604422E+03  0.12700000000E+01 0.  1.
         25    2    1    2    0    0  0.00000000000E+00  0.00000000000E+00 -0.12656194171E+03  0.17785629514E+03  0.12495974004E+03 0.  0.
    9000005    1    3    3    0    0 -0.35986478458E+02  0.36160427038E+02 -0.11960256570E+02  0.52408499813E+02  0.10000000000E+01 0.  0.
    9000005    1    3    3    0    0  0.35986478458E+02 -0.36160427038E+02 -0.11460168514E+03  0.12544779532E+03  0.10000000000E+01 0.  0.
<mgrwt>
<rscale>  0 0.12495974E+03</rscale>
<asrwt>0</asrwt>
<pdfrwt beam="1">  1        4 0.39457196E-02 0.12495974E+03</pdfrwt>
<pdfrwt beam="2">  1       -4 0.23416787E-01 0.12495974E+03</pdfrwt>
<totfact> 0.94089233E+03</totfact>
</mgrwt>
</event>
<event>
 5    1  0.3236337E-002  0.1250025E+03  0.7818608E-02  0.1235065E+00
         -4   -1    0    0    0  501 -0.00000000000E+00  0.00000000000E+00  0.40031667478E+02  0.40051807713E+02  0.12700000000E+01 0.  1.
          4   -1    0    0  501    0  0.00000000000E+00 -0.00000000000E+00 -0.97534049205E+02  0.97542317249E+02  0.12700000000E+01 0.  1.
         25    2    1    2    0    0  0.00000000000E+00  0.00000000000E+00 -0.57502381727E+02  0.13759412496E+03  0.12500247725E+03 0.  0.
    9000005    1    3    3    0    0  0.40626044604E+02 -0.43830951500E+02 -0.48861071257E+02  0.77201244122E+02  0.10000000000E+01 0.  0.
    9000005    1    3    3    0    0 -0.40626044604E+02  0.43830951500E+02 -0.86413104701E+01  0.60392880840E+02  0.10000000000E+01 0.  0.
<mgrwt>
<rscale>  0 0.12500248E+03</rscale>
<asrwt>0</asrwt>
<pdfrwt beam="2">  1        4 0.15007424E-01 0.12500248E+03</pdfrwt>
<pdfrwt beam="1">  1       -4 0.61609033E-02 0.12500248E+03</pdfrwt>
<totfact> 0.10183109E+04</totfact>
</mgrwt>
</event>
<event>
 5    1  0.3236337E-002  0.1249943E+03  0.7818608E-02  0.1235078E+00
         -4   -1    0    0    0  501 -0.00000000000E+00  0.00000000000E+00  0.53710287643E+01  0.55191348948E+01  0.12700000000E+01 0.  1.
          4   -1    0    0  501    0  0.00000000000E+00 -0.00000000000E+00 -0.71717674156E+03  0.71717786604E+03  0.12700000000E+01 0.  1.
         25    2    1    2    0    0  0.00000000000E+00  0.00000000000E+00 -0.71180571280E+03  0.72269700093E+03  0.12499432943E+03 0.  0.
    9000005    1    3    3    0    0  0.44650126888E+02 -0.43615677925E+02 -0.37318504590E+03  0.37837024153E+03  0.10000000000E+01 0.  0.
    9000005    1    3    3    0    0 -0.44650126888E+02  0.43615677925E+02 -0.33862066690E+03  0.34432675941E+03  0.10000000000E+01 0.  0.
<mgrwt>
<rscale>  0 0.12499433E+03</rscale>
<asrwt>0</asrwt>
<pdfrwt beam="2">  1        4 0.11034629E+00 0.12499433E+03</pdfrwt>
<pdfrwt beam="1">  1       -4 0.83779196E-03 0.12499433E+03</pdfrwt>
<totfact> 0.41920510E+03</totfact>
</mgrwt>
</event>
<event>
 5    1  0.3236337E-002  0.1250002E+03  0.7818608E-02  0.1235069E+00
          4   -1    0    0  501    0  0.00000000000E+00  0.00000000000E+00  0.25952685206E+02  0.25983740482E+02  0.12700000000E+01 0. -1.
         -4   -1    0    0    0  501 -0.00000000000E+00 -0.00000000000E+00 -0.15039103680E+03  0.15039639906E+03  0.12700000000E+01 0. -1.
         25    2    1    2    0    0  0.00000000000E+00  0.00000000000E+00 -0.12443835160E+03  0.17638013954E+03  0.12500020111E+03 0.  0.
    9000005    1    3    3    0    0  0.12615646738E+02 -0.33494208024E+02 -0.13450302092E+03  0.13918720900E+03  0.10000000000E+01 0.  0.
    9000005    1    3    3    0    0 -0.12615646738E+02  0.33494208024E+02  0.10064669321E+02  0.37192930542E+02  0.10000000000E+01 0.  0.
<mgrwt>
<rscale>  0 0.12500020E+03</rscale>
<asrwt>0</asrwt>
<pdfrwt beam="1">  1        4 0.39955222E-02 0.12500020E+03</pdfrwt>
<pdfrwt beam="2">  1       -4 0.23139884E-01 0.12500020E+03</pdfrwt>
<totfact> 0.94272252E+03</totfact>
</mgrwt>
</event>
<event>
 5    1  0.3236337E-002  0.1249959E+03  0.7818608E-02  0.1235076E+00
         -4   -1    0    0    0  501 -0.00000000000E+00  0.00000000000E+00  0.23923043217E+02  0.23956729676E+02  0.12700000000E+01 0.  1.
          4   -1    0    0  501    0  0.00000000000E+00 -0.00000000000E+00 -0.16312215846E+03  0.16312710223E+03  0.12700000000E+01 0.  1.
         25    2    1    2    0    0  0.00000000000E+00  0.00000000000E+00 -0.13919911524E+03  0.18708383190E+03  0.12499586583E+03 0.  0.
    9000005    1    3    3    0    0 -0.23439555022E+02  0.54497154820E+02 -0.40207426322E+02  0.71672796474E+02  0.10000000000E+01 0.  0.
    9000005    1    3    3    0    0  0.23439555022E+02 -0.54497154820E+02 -0.98991688921E+02  0.11541103543E+03  0.10000000000E+01 0.  0.
<mgrwt>
<rscale>  0 0.12499587E+03</rscale>
<asrwt>0</asrwt>
<pdfrwt beam="2">  1        4 0.25098688E-01 0.12499587E+03</pdfrwt>
<pdfrwt beam="1">  1       -4 0.36834398E-02 0.12499587E+03</pdfrwt>
<totfact> 0.92365764E+03</totfact>
</mgrwt>
</event>
<event>
 5    1  0.3236337E-002  0.1250009E+03  0.7818608E-02  0.1235068E+00
         -4   -1    0    0    0  501 -0.00000000000E+00  0.00000000000E+00  0.29450577007E+03  0.29450850837E+03  0.12700000000E+01 0. -1.
          4   -1    0    0  501    0  0.00000000000E+00 -0.00000000000E+00 -0.13230728668E+02  0.13291541712E+02  0.12700000000E+01 0. -1.
         25    2    1    2    0    0  0.00000000000E+00  0.00000000000E+00  0.28127504140E+03  0.30780005008E+03  0.12500088766E+03 0.  0.
    9000005    1    3    3    0    0 -0.36227775021E+02 -0.42628025721E+02  0.20921854162E+03  0.21657100087E+03  0.10000000000E+01 0.  0.
    9000005    1    3    3    0    0  0.36227775021E+02  0.42628025721E+02  0.72056499779E+02  0.91229049213E+02  0.10000000000E+01 0.  0.
<mgrwt>
<rscale>  0 0.12500089E+03</rscale>
<asrwt>0</asrwt>
<pdfrwt beam="2">  1        4 0.20403854E-02 0.12500089E+03</pdfrwt>
<pdfrwt beam="1">  1       -4 0.45313466E-01 0.12500089E+03</pdfrwt>
<totfact> 0.74629247E+03</totfact>
</mgrwt>
</event>
<event>
 5    1  0.3236337E-002  0.1250031E+03  0.7818608E-02  0.1235064E+00
         -4   -1    0    0    0  501 -0.00000000000E+00  0.00000000000E+00  0.15674853382E+02  0.15726217871E+02  0.12700000000E+01 0. -1.
          4   -1    0    0  501    0  0.00000000000E+00 -0.00000000000E+00 -0.24875665157E+03  0.24875989347E+03  0.12700000000E+01 0. -1.
         25    2    1    2    0    0  0.00000000000E+00  0.00000000000E+00 -0.23308179819E+03  0.26448611134E+03  0.12500311375E+03 0.  0.
    9000005    1    3    3    0    0 -0.47986520310E+02  0.25490415992E+02 -0.18185745688E+03  0.18980411498E+03  0.10000000000E+01 0.  0.
    9000005    1    3    3    0    0  0.47986520310E+02 -0.25490415992E+02 -0.51224341307E+02  0.74681996367E+02  0.10000000000E+01 0.  0.
<mgrwt>
<rscale>  0 0.12500311E+03</rscale>
<asrwt>0</asrwt>
<pdfrwt beam="2">  1        4 0.38274452E-01 0.12500311E+03</pdfrwt>
<pdfrwt beam="1">  1       -4 0.24157166E-02 0.12500311E+03</pdfrwt>
<totfact> 0.80275031E+03</totfact>
</mgrwt>
</event>
<event>
 5    1  0.3236337E-002  0.1250000E+03  0.7818608E-02  0.1235069E+00
          4   -1    0    0  501    0  0.00000000000E+00  0.00000000000E+00  0.11403598052E+04  0.11403605124E+04  0.12700000000E+01 0. -1.
         -4   -1    0    0    0  501 -0.00000000000E+00 -0.00000000000E+00 -0.33070064251E+01  0.35424838032E+01  0.12700000000E+01 0. -1.
         25    2    1    2    0    0  0.00000000000E+00  0.00000000000E+00  0.11370527988E+04  0.11439029962E+04  0.12499998998E+03 0.  0.
    9000005    1    3    3    0    0  0.96350772060E+01  0.42182640093E+02  0.98114816347E+03  0.98210230043E+03  0.10000000000E+01 0.  0.
    9000005    1    3    3    0    0 -0.96350772060E+01 -0.42182640093E+02  0.15590463530E+03  0.16180069575E+03  0.10000000000E+01 0.  0.
<mgrwt>
<rscale>  0 0.12499999E+03</rscale>
<asrwt>0</asrwt>
<pdfrwt beam="1">  1        4 0.17545805E+00 0.12499999E+03</pdfrwt>
<pdfrwt beam="2">  1       -4 0.52693854E-03 0.12499999E+03</pdfrwt>
<totfact> 0.26230030E+03</totfact>
</mgrwt>
</event>
<event>
 5    1  0.3236337E-002  0.1250005E+03  0.7818608E-02  0.1235068E+00
          4   -1    0    0  501    0  0.00000000000E+00  0.00000000000E+00  0.49624125080E+02  0.49640373588E+02  0.12700000000E+01 0. -1.
         -4   -1    0    0    0  501 -0.00000000000E+00 -0.00000000000E+00 -0.78683126882E+02  0.78693375553E+02  0.12700000000E+01 0. -1.
         25    2    1    2    0    0  0.00000000000E+00  0.00000000000E+00 -0.29059001802E+02  0.12833374914E+03  0.12500050233E+03 0.  0.
    9000005    1    3    3    0    0 -0.18790217678E+02 -0.39850321258E+02  0.30971155993E+02  0.53864022207E+02  0.10000000000E+01 0.  0.
    9000005    1    3    3    0    0  0.18790217678E+02  0.39850321258E+02 -0.60030157795E+02  0.74469726934E+02  0.10000000000E+01 0.  0.
<mgrwt>
<rscale>  0 0.12500050E+03</rscale>
<asrwt>0</asrwt>
<pdfrwt beam="1">  1        4 0.76365190E-02 0.12500050E+03</pdfrwt>
<pdfrwt beam="2">  1       -4 0.12107135E-01 0.12500050E+03</pdfrwt>
<totfact> 0.10380169E+04</totfact>
</mgrwt>
</event>
<event>
 5    1  0.3236337E-002  0.1250037E+03  0.7818608E-02  0.1235064E+00
         -4   -1    0    0    0  501 -0.00000000000E+00  0.00000000000E+00  0.28430427328E+03  0.28430710984E+03  0.12700000000E+01 0.  1.
          4   -1    0    0  501    0  0.00000000000E+00 -0.00000000000E+00 -0.13708227249E+02  0.13766931187E+02  0.12700000000E+01 0.  1.
         25    2    1    2    0    0  0.00000000000E+00  0.00000000000E+00  0.27059604603E+03  0.29807404103E+03  0.12500365517E+03 0.  0.
    9000005    1    3    3    0    0 -0.56689767085E+02 -0.24525983944E+02  0.11264821225E+03  0.12847518556E+03  0.10000000000E+01 0.  0.
    9000005    1    3    3    0    0  0.56689767085E+02  0.24525983944E+02  0.15794783378E+03  0.16959885547E+03  0.10000000000E+01 0.  0.
<mgrwt>
<rscale>  0 0.12500366E+03</rscale>
<asrwt>0</asrwt>
<pdfrwt beam="2">  1        4 0.21136921E-02 0.12500366E+03</pdfrwt>
<pdfrwt beam="1">  1       -4 0.43743849E-01 0.12500366E+03</pdfrwt>
<totfact> 0.75834912E+03</totfact>
</mgrwt>
</event>
<event>
 4    1  0.3236337E-002  0.1248827E+03  0.7818608E-02  0.1235253E+00
          4   -1    0    0  501    0  0.00000000000E+00  0.00000000000E+00  0.63746405203E+01  0.64999185967E+01  0.12700000000E+01 0.  1.
         -4   -1    0    0    0  501 -0.00000000000E+00 -0.00000000000E+00 -0.60555269149E+03  0.60555402325E+03  0.12700000000E+01 0.  1.
    9000005    1    1    2    0    0 -0.55973892532E+02  0.86763194303E+01 -0.17088983794E+03  0.18003525176E+03  0.10000000000E+01 0.  0.
    9000005    1    1    2    0    0  0.55973892532E+02 -0.86763194303E+01 -0.42828821303E+03  0.43201869009E+03  0.10000000000E+01 0.  0.
<mgrwt>
<rscale>  0 0.12488271E+03</rscale>
<asrwt>0</asrwt>
<pdfrwt beam="1">  1        4 0.99045362E-03 0.12488271E+03</pdfrwt>
<pdfrwt beam="2">  1       -4 0.93171647E-01 0.12488271E+03</pdfrwt>
<totfact> 0.48239405E+03</totfact>
</mgrwt>
</event>
<event>
 5    1  0.3236337E-002  0.1249978E+03  0.7818608E-02  0.1235073E+00
         -4   -1    0    0    0  501 -0.00000000000E+00  0.00000000000E+00  0.86236812008E+02  0.86246163076E+02  0.12700000000E+01 0.  1.
          4   -1    0    0  501    0  0.00000000000E+00 -0.00000000000E+00 -0.45274499303E+02  0.45292308256E+02  0.12700000000E+01 0.  1.
         25    2    1    2    0    0  0.00000000000E+00  0.00000000000E+00  0.40962312705E+02  0.13153847133E+03  0.12499783349E+03 0.  0.
    9000005    1    3    3    0    0 -0.60315960124E+02 -0.15722264574E+02  0.25176694150E+02  0.67231470141E+02  0.10000000000E+01 0.  0.
    9000005    1    3    3    0    0  0.60315960124E+02  0.15722264574E+02  0.15785618555E+02  0.64307001191E+02  0.10000000000E+01 0.  0.
<mgrwt>
<rscale>  0 0.12499783E+03</rscale>
<asrwt>0</asrwt>
<pdfrwt beam="2">  1        4 0.69673969E-02 0.12499783E+03</pdfrwt>
<pdfrwt beam="1">  1       -4 0.13269291E-01 0.12499783E+03</pdfrwt>
<totfact> 0.10312063E+04</totfact>
</mgrwt>
</event>
<event>
 5    1  0.3236337E-002  0.1249978E+03  0.7818608E-02  0.1235073E+00
          4   -1    0    0  501    0  0.00000000000E+00  0.00000000000E+00  0.11742858938E+03  0.11743545675E+03  0.12700000000E+01 0.  1.
         -4   -1    0    0    0  501 -0.00000000000E+00 -0.00000000000E+00 -0.33243774631E+02  0.33268024464E+02  0.12700000000E+01 0.  1.
         25    2    1    2    0    0  0.00000000000E+00  0.00000000000E+00  0.84184814744E+02  0.15070348122E+03  0.12499782485E+03 0.  0.
    9000005    1    3    3    0    0 -0.23074304497E+02  0.20744476269E+01  0.11206562302E+03  0.11443963791E+03  0.10000000000E+01 0.  0.
    9000005    1    3    3    0    0  0.23074304497E+02 -0.20744476269E+01 -0.27880808281E+02  0.36263843307E+02  0.10000000000E+01 0.  0.
<mgrwt>
<rscale>  0 0.12499782E+03</rscale>
<asrwt>0</asrwt>
<pdfrwt beam="1">  1        4 0.18068331E-01 0.12499782E+03</pdfrwt>
<pdfrwt beam="2">  1       -4 0.51168204E-02 0.12499782E+03</pdfrwt>
<totfact> 0.99168508E+03</totfact>
</mgrwt>
</event>
<event>
 5    1  0.3236337E-002  0.1249926E+03  0.7818608E-02  0.1235081E+00
         -4   -1    0    0    0  501 -0.00000000000E+00  0.00000000000E+00  0.19920879163E+02  0.19961320764E+02  0.12700000000E+01 0.  1.
          4   -1    0    0  501    0  0.00000000000E+00 -0.00000000000E+00 -0.19582384864E+03  0.19582796684E+03  0.12700000000E+01 0.  1.
         25    2    1    2    0    0  0.00000000000E+00  0.00000000000E+00 -0.17590296948E+03  0.21578928761E+03  0.12499264768E+03 0.  0.
    9000005    1    3    3    0    0 -0.61664562813E+02  0.15026155462E+01 -0.10521688039E+03  0.12196871763E+03  0.10000000000E+01 0.  0.
    9000005    1    3    3    0    0  0.61664562813E+02 -0.15026155462E+01 -0.70686089091E+02  0.93820569980E+02  0.10000000000E+01 0.  0.
<mgrwt>
<rscale>  0 0.12499265E+03</rscale>
<asrwt>0</asrwt>
<pdfrwt beam="2">  1        4 0.30130172E-01 0.12499265E+03</pdfrwt>
<pdfrwt beam="1">  1       -4 0.30681784E-02 0.12499265E+03</pdfrwt>
<totfact> 0.87553440E+03</totfact>
</mgrwt>
</event>
<event>
 5    1  0.3236337E-002  0.1250000E+03  0.7818608E-02  0.1235069E+00
         -4   -1    0    0    0  501 -0.00000000000E+00  0.00000000000E+00  0.93790796770E+02  0.93799394768E+02  0.12700000000E+01 0. -1.
          4   -1    0    0  501    0  0.00000000000E+00 -0.00000000000E+00 -0.41628330164E+02  0.41647698282E+02  0.12700000000E+01 0. -1.
         25    2    1    2    0    0  0.00000000000E+00  0.00000000000E+00  0.52162466607E+02  0.13544709305E+03  0.12499996837E+03 0.  0.
    9000005    1    3    3    0    0  0.35953524265E+02 -0.57420680583E+01  0.81116074561E+02  0.88918191642E+02  0.10000000000E+01 0.  0.
    9000005    1    3    3    0    0 -0.35953524265E+02  0.57420680583E+01 -0.28953607955E+02  0.46528901408E+02  0.10000000000E+01 0.  0.
<mgrwt>
<rscale>  0 0.12499997E+03</rscale>
<asrwt>0</asrwt>
<pdfrwt beam="2">  1        4 0.64065098E-02 0.12499997E+03</pdfrwt>
<pdfrwt beam="1">  1       -4 0.14431504E-01 0.12499997E+03</pdfrwt>
<totfact> 0.10228663E+04</totfact>
</mgrwt>
</event>
<event>
 5    1  0.3236337E-002  0.1250020E+03  0.7818608E-02  0.1235066E+00
          4   -1    0    0  501    0  0.00000000000E+00  0.00000000000E+00  0.81970455588E+01  0.82948451398E+01  0.12700000000E+01 0.  1.
         -4   -1    0    0    0  501 -0.00000000000E+00 -0.00000000000E+00 -0.47363391885E+03  0.47363562153E+03  0.12700000000E+01 0.  1.
         25    2    1    2    0    0  0.00000000000E+00  0.00000000000E+00 -0.46543687329E+03  0.48193046667E+03  0.12500196674E+03 0.  0.
    9000005    1    3    3    0    0  0.12659189266E+02 -0.15617882008E+02 -0.46084505988E+03  0.46128444861E+03  0.10000000000E+01 0.  0.
    9000005    1    3    3    0    0 -0.12659189266E+02  0.15617882008E+02 -0.45918134026E+01  0.20646018057E+02  0.10000000000E+01 0.  0.
<mgrwt>
<rscale>  0 0.12500197E+03</rscale>
<asrwt>0</asrwt>
<pdfrwt beam="1">  1        4 0.12687383E-02 0.12500197E+03</pdfrwt>
<pdfrwt beam="2">  1       -4 0.72874390E-01 0.12500197E+03</pdfrwt>
<totfact> 0.57291641E+03</totfact>
</mgrwt>
</event>
<event>
 5    1  0.3236337E-002  0.1250047E+03  0.7818608E-02  0.1235062E+00
         -4   -1    0    0    0  501 -0.00000000000E+00  0.00000000000E+00  0.31499859034E+03  0.31500115050E+03  0.12700000000E+01 0.  1.
          4   -1    0    0  501    0  0.00000000000E+00 -0.00000000000E+00 -0.12366645095E+02  0.12431685762E+02  0.12700000000E+01 0.  1.
         25    2    1    2    0    0  0.00000000000E+00  0.00000000000E+00  0.30263194525E+03  0.32743283626E+03  0.12500467183E+03 0.  0.
    9000005    1    3    3    0    0 -0.45564866650E+01  0.38093500356E+02  0.28053499241E+03  0.28314794421E+03  0.10000000000E+01 0.  0.
    9000005    1    3    3    0    0  0.45564866650E+01 -0.38093500356E+02  0.22096952836E+02  0.44284892060E+02  0.10000000000E+01 0.  0.
<mgrwt>
<rscale>  0 0.12500467E+03</rscale>
<asrwt>0</asrwt>
<pdfrwt beam="2">  1        4 0.19077607E-02 0.12500467E+03</pdfrwt>
<pdfrwt beam="1">  1       -4 0.48466526E-01 0.12500467E+03</pdfrwt>
<totfact> 0.72273236E+03</totfact>
</mgrwt>
</event>
<event>
 5    1  0.3236337E-002  0.1249996E+03  0.7818608E-02  0.1235070E+00
          4   -1    0    0  501    0  0.00000000000E+00  0.00000000000E+00  0.14863232911E+02  0.14917392285E+02  0.12700000000E+01 0.  1.
         -4   -1    0    0    0  501 -0.00000000000E+00 -0.00000000000E+00 -0.26227752900E+03  0.26228060378E+03  0.12700000000E+01 0.  1.
         25    2    1    2    0    0  0.00000000000E+00  0.00000000000E+00 -0.24741429609E+03  0.27719799606E+03  0.12499958045E+03 0.  0.
    9000005    1    3    3    0    0 -0.39178915291E+02 -0.42691501994E+02 -0.17560409539E+03  0.18491984767E+03  0.10000000000E+01 0.  0.
    9000005    1    3    3    0    0  0.39178915291E+02  0.42691501994E+02 -0.71810200703E+02  0.92278148394E+02  0.10000000000E+01 0.  0.
<mgrwt>
<rscale>  0 0.12499958E+03</rscale>
<asrwt>0</asrwt>
<pdfrwt beam="1">  1        4 0.22910540E-02 0.12499958E+03</pdfrwt>
<pdfrwt beam="2">  1       -4 0.40354788E-01 0.12499958E+03</pdfrwt>
<totfact> 0.78551837E+03</totfact>
</mgrwt>
</event>
<event>
 5    1  0.3236337E-002  0.1249952E+03  0.7818608E-02  0.1235077E+00
          4   -1    0    0  501    0  0.00000000000E+00  0.00000000000E+00  0.49240680627E+02  0.49257055623E+02  0.12700000000E+01 0.  1.
         -4   -1    0    0    0  501 -0.00000000000E+00 -0.00000000000E+00 -0.79288970893E+02  0.79299141264E+02  0.12700000000E+01 0.  1.
         25    2    1    2    0    0  0.00000000000E+00  0.00000000000E+00 -0.30048290266E+02  0.12855619689E+03  0.12499518395E+03 0.  0.
    9000005    1    3    3    0    0 -0.34903747570E+02 -0.20479543673E+02  0.33948204897E+02  0.52831467131E+02  0.10000000000E+01 0.  0.
    9000005    1    3    3    0    0  0.34903747570E+02  0.20479543673E+02 -0.63996495163E+02  0.75724729756E+02  0.10000000000E+01 0.  0.
<mgrwt>
<rscale>  0 0.12499518E+03</rscale>
<asrwt>0</asrwt>
<pdfrwt beam="1">  1        4 0.75775313E-02 0.12499518E+03</pdfrwt>
<pdfrwt beam="2">  1       -4 0.12200345E-01 0.12499518E+03</pdfrwt>
<totfact> 0.10376621E+04</totfact>
</mgrwt>
</event>
<event>
 5    1  0.3236337E-002  0.1249934E+03  0.7818608E-02  0.1235080E+00
          4   -1    0    0  501    0  0.00000000000E+00  0.00000000000E+00  0.33948036061E+02  0.33971783179E+02  0.12700000000E+01 0. -1.
         -4   -1    0    0    0  501 -0.00000000000E+00 -0.00000000000E+00 -0.11498598128E+03  0.11499299453E+03  0.12700000000E+01 0. -1.
         25    2    1    2    0    0  0.00000000000E+00  0.00000000000E+00 -0.81037945222E+02  0.14896477771E+03  0.12499342556E+03 0.  0.
    9000005    1    3    3    0    0  0.17462082839E+02 -0.47726223206E+02  0.28153739649E+01  0.50908182537E+02  0.10000000000E+01 0.  0.
    9000005    1    3    3    0    0 -0.17462082839E+02  0.47726223206E+02 -0.83853319187E+02  0.98056595175E+02  0.10000000000E+01 0.  0.
<mgrwt>
<rscale>  0 0.12499343E+03</rscale>
<asrwt>0</asrwt>
<pdfrwt beam="1">  1        4 0.52251410E-02 0.12499343E+03</pdfrwt>
<pdfrwt beam="2">  1       -4 0.17692517E-01 0.12499343E+03</pdfrwt>
<totfact> 0.99525182E+03</totfact>
</mgrwt>
</event>
<event>
 5    1  0.3236337E-002  0.1249972E+03  0.7818608E-02  0.1235074E+00
         -4   -1    0    0    0  501 -0.00000000000E+00  0.00000000000E+00  0.17293264883E+02  0.17339835937E+02  0.12700000000E+01 0. -1.
          4   -1    0    0  501    0  0.00000000000E+00 -0.00000000000E+00 -0.22552047897E+03  0.22552405489E+03  0.12700000000E+01 0. -1.
         25    2    1    2    0    0  0.00000000000E+00  0.00000000000E+00 -0.20822721409E+03  0.24286389083E+03  0.12499718710E+03 0.  0.
    9000005    1    3    3    0    0 -0.61141049042E+02 -0.12281083030E+02 -0.11189060199E+03  0.12809980364E+03  0.10000000000E+01 0.  0.
    9000005    1    3    3    0    0  0.61141049042E+02  0.12281083030E+02 -0.96336612098E+02  0.11476408719E+03  0.10000000000E+01 0.  0.
<mgrwt>
<rscale>  0 0.12499719E+03</rscale>
<asrwt>0</asrwt>
<pdfrwt beam="2">  1        4 0.34699314E-01 0.12499719E+03</pdfrwt>
<pdfrwt beam="1">  1       -4 0.26643599E-02 0.12499719E+03</pdfrwt>
<totfact> 0.83377910E+03</totfact>
</mgrwt>
</event>
<event>
 5    1  0.3236337E-002  0.1250007E+03  0.7818608E-02  0.1235068E+00
          4   -1    0    0  501    0  0.00000000000E+00  0.00000000000E+00  0.10073783041E+03  0.10074583553E+03  0.12700000000E+01 0. -1.
         -4   -1    0    0    0  501 -0.00000000000E+00 -0.00000000000E+00 -0.38756911122E+02  0.38777713441E+02  0.12700000000E+01 0. -1.
         25    2    1    2    0    0  0.00000000000E+00  0.00000000000E+00  0.61980919288E+02  0.13952354897E+03  0.12500074544E+03 0.  0.
    9000005    1    3    3    0    0 -0.49290875517E+02  0.78994149136E+01 -0.10971225875E+02  0.51121022705E+02  0.10000000000E+01 0.  0.
    9000005    1    3    3    0    0  0.49290875517E+02 -0.78994149136E+01  0.72952145164E+02  0.88402526260E+02  0.10000000000E+01 0.  0.
<mgrwt>
<rscale>  0 0.12500075E+03</rscale>
<asrwt>0</asrwt>
<pdfrwt beam="1">  1        4 0.15500344E-01 0.12500075E+03</pdfrwt>
<pdfrwt beam="2">  1       -4 0.59648176E-02 0.12500075E+03</pdfrwt>
<totfact> 0.10143300E+04</totfact>
</mgrwt>
</event>
<event>
 5    1  0.3236337E-002  0.1249996E+03  0.7818608E-02  0.1235070E+00
          4   -1    0    0  501    0  0.00000000000E+00  0.00000000000E+00  0.71939090575E+01  0.73051507532E+01  0.12700000000E+01 0.  1.
         -4   -1    0    0    0  501 -0.00000000000E+00 -0.00000000000E+00 -0.53871239436E+03  0.53871389135E+03  0.12700000000E+01 0.  1.
         25    2    1    2    0    0  0.00000000000E+00  0.00000000000E+00 -0.53151848530E+03  0.54601904211E+03  0.12499957650E+03 0.  0.
    9000005    1    3    3    0    0  0.22850278361E+02 -0.37350739226E+02 -0.46052320160E+03  0.46260115883E+03  0.10000000000E+01 0.  0.
    9000005    1    3    3    0    0 -0.22850278361E+02  0.37350739226E+02 -0.70995283706E+02  0.83417883277E+02  0.10000000000E+01 0.  0.
<mgrwt>
<rscale>  0 0.12499958E+03</rscale>
<asrwt>0</asrwt>
<pdfrwt beam="1">  1        4 0.11154279E-02 0.12499958E+03</pdfrwt>
<pdfrwt beam="2">  1       -4 0.82887471E-01 0.12499958E+03</pdfrwt>
<totfact> 0.52463162E+03</totfact>
</mgrwt>
</event>
<event>
 5    1  0.3236337E-002  0.1249894E+03  0.7818608E-02  0.1235086E+00
          4   -1    0    0  501    0  0.00000000000E+00  0.00000000000E+00  0.14714814860E+03  0.14715362903E+03  0.12700000000E+01 0. -1.
         -4   -1    0    0    0  501 -0.00000000000E+00 -0.00000000000E+00 -0.26520685741E+02  0.26551076667E+02  0.12700000000E+01 0. -1.
         25    2    1    2    0    0  0.00000000000E+00  0.00000000000E+00  0.12062746286E+03  0.17370470569E+03  0.12498935949E+03 0.  0.
    9000005    1    3    3    0    0  0.10446971307E+02 -0.55073412082E+02  0.21941236658E+02  0.60204964861E+02  0.10000000000E+01 0.  0.
    9000005    1    3    3    0    0 -0.10446971307E+02  0.55073412082E+02  0.98686226199E+02  0.11349974083E+03  0.10000000000E+01 0.  0.
<mgrwt>
<rscale>  0 0.12498936E+03</rscale>
<asrwt>0</asrwt>
<pdfrwt beam="1">  1        4 0.22640936E-01 0.12498936E+03</pdfrwt>
<pdfrwt beam="2">  1       -4 0.40828648E-02 0.12498936E+03</pdfrwt>
<totfact> 0.94785234E+03</totfact>
</mgrwt>
</event>
<event>
 5    1  0.3236337E-002  0.1249976E+03  0.7818608E-02  0.1235073E+00
          4   -1    0    0  501    0  0.00000000000E+00  0.00000000000E+00  0.70321599358E+02  0.70333066450E+02  0.12700000000E+01 0.  1.
         -4   -1    0    0    0  501 -0.00000000000E+00 -0.00000000000E+00 -0.55522939021E+02  0.55537461749E+02  0.12700000000E+01 0.  1.
         25    2    1    2    0    0  0.00000000000E+00  0.00000000000E+00  0.14798660337E+02  0.12587052820E+03  0.12499755806E+03 0.  0.
    9000005    1    3    3    0    0 -0.53785172792E+01 -0.52668564635E+02  0.40830455962E+02  0.66865778115E+02  0.10000000000E+01 0.  0.
    9000005    1    3    3    0    0  0.53785172792E+01  0.52668564635E+02 -0.26031795625E+02  0.59004750083E+02  0.10000000000E+01 0.  0.
<mgrwt>
<rscale>  0 0.12499756E+03</rscale>
<asrwt>0</asrwt>
<pdfrwt beam="1">  1        4 0.10820707E-01 0.12499756E+03</pdfrwt>
<pdfrwt beam="2">  1       -4 0.85439899E-02 0.12499756E+03</pdfrwt>
<totfact> 0.10434371E+04</totfact>
</mgrwt>
</event>
<event>
 5    1  0.3236337E-002  0.1249996E+03  0.7818608E-02  0.1235070E+00
         -4   -1    0    0    0  501 -0.00000000000E+00  0.00000000000E+00  0.16459104955E+03  0.16459594920E+03  0.12700000000E+01 0. -1.
          4   -1    0    0  501    0  0.00000000000E+00 -0.00000000000E+00 -0.23710669952E+02  0.23744657706E+02  0.12700000000E+01 0. -1.
         25    2    1    2    0    0  0.00000000000E+00  0.00000000000E+00  0.14088037960E+03  0.18834060690E+03  0.12499961141E+03 0.  0.
    9000005    1    3    3    0    0  0.19879202935E+02  0.62691697288E+01  0.15920613366E+03  0.16056798621E+03  0.10000000000E+01 0.  0.
    9000005    1    3    3    0    0 -0.19879202935E+02 -0.62691697288E+01 -0.18325754064E+02  0.27772620698E+02  0.10000000000E+01 0.  0.
<mgrwt>
<rscale>  0 0.12499961E+03</rscale>
<asrwt>0</asrwt>
<pdfrwt beam="2">  1        4 0.36507867E-02 0.12499961E+03</pdfrwt>
<pdfrwt beam="1">  1       -4 0.25324692E-01 0.12499961E+03</pdfrwt>
<totfact> 0.92137649E+03</totfact>
</mgrwt>
</event>
<event>
 5    1  0.3236337E-002  0.1249956E+03  0.7818608E-02  0.1235076E+00
          4   -1    0    0  501    0  0.00000000000E+00  0.00000000000E+00  0.13767354522E+02  0.13825807410E+02  0.12700000000E+01 0.  1.
         -4   -1    0    0    0  501 -0.00000000000E+00 -0.00000000000E+00 -0.28305208378E+03  0.28305493288E+03  0.12700000000E+01 0.  1.
         25    2    1    2    0    0  0.00000000000E+00  0.00000000000E+00 -0.26928472925E+03  0.29688074029E+03  0.12499563412E+03 0.  0.
    9000005    1    3    3    0    0 -0.19530333161E+01  0.43787663501E+02 -0.28854345060E+02  0.52485684170E+02  0.10000000000E+01 0.  0.
    9000005    1    3    3    0    0  0.19530333161E+01 -0.43787663501E+02 -0.24043038419E+03  0.24439505612E+03  0.10000000000E+01 0.  0.
<mgrwt>
<rscale>  0 0.12499563E+03</rscale>
<asrwt>0</asrwt>
<pdfrwt beam="1">  1        4 0.21227703E-02 0.12499563E+03</pdfrwt>
<pdfrwt beam="2">  1       -4 0.43551186E-01 0.12499563E+03</pdfrwt>
<totfact> 0.75999155E+03</totfact>
</mgrwt>
</event>
<event>
 5    1  0.3236337E-002  0.1250034E+03  0.7818608E-02  0.1235064E+00
          4   -1    0    0  501    0  0.00000000000E+00  0.00000000000E+00  0.71952682472E+03  0.71952794552E+03  0.12700000000E+01 0.  1.
         -4   -1    0    0    0  501 -0.00000000000E+00 -0.00000000000E+00 -0.53537971713E+01  0.55023671407E+01  0.12700000000E+01 0.  1.
         25    2    1    2    0    0  0.00000000000E+00  0.00000000000E+00  0.71417302755E+03  0.72503031266E+03  0.12500336398E+03 0.  0.
    9000005    1    3    3    0    0  0.49995365822E+02 -0.35237031405E+02  0.43142617077E+03  0.43574158146E+03  0.10000000000E+01 0.  0.
    9000005    1    3    3    0    0 -0.49995365822E+02  0.35237031405E+02  0.28274685678E+03  0.28928873121E+03  0.10000000000E+01 0.  0.
<mgrwt>
<rscale>  0 0.12500336E+03</rscale>
<asrwt>0</asrwt>
<pdfrwt beam="1">  1        4 0.11070799E+00 0.12500336E+03</pdfrwt>
<pdfrwt beam="2">  1       -4 0.83517545E-03 0.12500336E+03</pdfrwt>
<totfact> 0.41794749E+03</totfact>
</mgrwt>
</event>
<event>
 5    1  0.3236337E-002  0.1250026E+03  0.7818608E-02  0.1235065E+00
         -4   -1    0    0    0  501 -0.00000000000E+00  0.00000000000E+00  0.26146044352E+02  0.26176870234E+02  0.12700000000E+01 0. -1.
          4   -1    0    0  501    0  0.00000000000E+00 -0.00000000000E+00 -0.14928574047E+03  0.14929114242E+03  0.12700000000E+01 0. -1.
         25    2    1    2    0    0  0.00000000000E+00  0.00000000000E+00 -0.12313969611E+03  0.17546801266E+03  0.12500255480E+03 0.  0.
    9000005    1    3    3    0    0  0.39844901319E+02 -0.45176017649E+02 -0.38210701545E+02  0.71341057213E+02  0.10000000000E+01 0.  0.
    9000005    1    3    3    0    0 -0.39844901319E+02  0.45176017649E+02 -0.84928994569E+02  0.10412695544E+03  0.10000000000E+01 0.  0.
<mgrwt>
<rscale>  0 0.12500255E+03</rscale>
<asrwt>0</asrwt>
<pdfrwt beam="2">  1        4 0.22969823E-01 0.12500255E+03</pdfrwt>
<pdfrwt beam="1">  1       -4 0.40252552E-02 0.12500255E+03</pdfrwt>
<totfact> 0.94433783E+03</totfact>
</mgrwt>
</event>
<event>
 5    1  0.3236337E-002  0.1249997E+03  0.7818608E-02  0.1235070E+00
          4   -1    0    0  501    0  0.00000000000E+00  0.00000000000E+00  0.10318733018E+02  0.10396593245E+02  0.12700000000E+01 0.  1.
         -4   -1    0    0    0  501 -0.00000000000E+00 -0.00000000000E+00 -0.37705571800E+03  0.37705785680E+03  0.12700000000E+01 0.  1.
         25    2    1    2    0    0  0.00000000000E+00  0.00000000000E+00 -0.36673698498E+03  0.38745445004E+03  0.12499973883E+03 0.  0.
    9000005    1    3    3    0    0  0.43446998234E+02 -0.61896375024E+01 -0.32126879239E+03  0.32425389779E+03  0.10000000000E+01 0.  0.
    9000005    1    3    3    0    0 -0.43446998234E+02  0.61896375024E+01 -0.45468192587E+02  0.63200552253E+02  0.10000000000E+01 0.  0.
<mgrwt>
<rscale>  0 0.12499974E+03</rscale>
<asrwt>0</asrwt>
<pdfrwt beam="1">  1        4 0.15936514E-02 0.12499974E+03</pdfrwt>
<pdfrwt beam="2">  1       -4 0.58014715E-01 0.12499974E+03</pdfrwt>
<totfact> 0.65791906E+03</totfact>
</mgrwt>
</event>
<event>
 5    1  0.3236337E-002  0.1250194E+03  0.7818608E-02  0.1235039E+00
         -4   -1    0    0    0  501 -0.00000000000E+00  0.00000000000E+00  0.41867101492E+02  0.41886359204E+02  0.12700000000E+01 0.  1.
          4   -1    0    0  501    0  0.00000000000E+00 -0.00000000000E+00 -0.93285170745E+02  0.93293815341E+02  0.12700000000E+01 0.  1.
         25    2    1    2    0    0  0.00000000000E+00  0.00000000000E+00 -0.51418069252E+02  0.13518017454E+03  0.12501944546E+03 0.  0.
    9000005    1    3    3    0    0  0.41907228905E+02 -0.50046113130E+00  0.24427530592E+02  0.48519795411E+02  0.10000000000E+01 0.  0.
    9000005    1    3    3    0    0 -0.41907228905E+02  0.50046113130E+00 -0.75845599845E+02  0.86660379134E+02  0.10000000000E+01 0.  0.
<mgrwt>
<rscale>  0 0.12501945E+03</rscale>
<asrwt>0</asrwt>
<pdfrwt beam="2">  1        4 0.14353711E-01 0.12501945E+03</pdfrwt>
<pdfrwt beam="1">  1       -4 0.64432389E-02 0.12501945E+03</pdfrwt>
<totfact> 0.10229788E+04</totfact>
</mgrwt>
</event>
<event>
 5    1  0.3236337E-002  0.1250017E+03  0.7818608E-02  0.1235067E+00
          4   -1    0    0  501    0  0.00000000000E+00  0.00000000000E+00  0.46298952234E+03  0.46299126417E+03  0.12700000000E+01 0. -1.
         -4   -1    0    0    0  501 -0.00000000000E+00 -0.00000000000E+00 -0.83876818455E+01  0.84832839597E+01  0.12700000000E+01 0. -1.
         25    2    1    2    0    0  0.00000000000E+00  0.00000000000E+00  0.45460184050E+03  0.47147454813E+03  0.12500166460E+03 0.  0.
    9000005    1    3    3    0    0  0.23760452627E+02  0.28891475636E+02  0.41611731929E+03  0.41779648142E+03  0.10000000000E+01 0.  0.
    9000005    1    3    3    0    0 -0.23760452627E+02 -0.28891475636E+02  0.38484521210E+02  0.53678066714E+02  0.10000000000E+01 0.  0.
<mgrwt>
<rscale>  0 0.12500166E+03</rscale>
<asrwt>0</asrwt>
<pdfrwt beam="1">  1        4 0.71236655E-01 0.12500166E+03</pdfrwt>
<pdfrwt beam="2">  1       -4 0.12979004E-02 0.12500166E+03</pdfrwt>
<totfact> 0.58145433E+03</totfact>
</mgrwt>
</event>
<event>
 5    1  0.3236337E-002  0.1250144E+03  0.7818608E-02  0.1235047E+00
         -4   -1    0    0    0  501 -0.00000000000E+00  0.00000000000E+00  0.21186983836E+02  0.21225013170E+02  0.12700000000E+01 0. -1.
          4   -1    0    0  501    0  0.00000000000E+00 -0.00000000000E+00 -0.18420717885E+03  0.18421155675E+03  0.12700000000E+01 0. -1.
         25    2    1    2    0    0  0.00000000000E+00  0.00000000000E+00 -0.16302019501E+03  0.20543656992E+03  0.12501440028E+03 0.  0.
    9000005    1    3    3    0    0  0.30988635595E+02  0.47630569998E+02 -0.38746833695E+02  0.68784328562E+02  0.10000000000E+01 0.  0.
    9000005    1    3    3    0    0 -0.30988635595E+02 -0.47630569998E+02 -0.12427336132E+03  0.13665224135E+03  0.10000000000E+01 0.  0.
<mgrwt>
<rscale>  0 0.12501440E+03</rscale>
<asrwt>0</asrwt>
<pdfrwt beam="2">  1        4 0.28342827E-01 0.12501440E+03</pdfrwt>
<pdfrwt beam="1">  1       -4 0.32627982E-02 0.12501440E+03</pdfrwt>
<totfact> 0.89197883E+03</totfact>
</mgrwt>
</event>
<event>
 5    1  0.3236337E-002  0.1249981E+03  0.7818608E-02  0.1235072E+00
          4   -1    0    0  501    0  0.00000000000E+00  0.00000000000E+00  0.88935625832E+01  0.89837829127E+01  0.12700000000E+01 0. -1.
         -4   -1    0    0    0  501 -0.00000000000E+00 -0.00000000000E+00 -0.43690090625E+03  0.43690275209E+03  0.12700000000E+01 0. -1.
         25    2    1    2    0    0  0.00000000000E+00  0.00000000000E+00 -0.42800734367E+03  0.44588653500E+03  0.12499806343E+03 0.  0.
    9000005    1    3    3    0    0  0.46491952127E+01  0.62174817212E+02 -0.22905604295E+03  0.23739206753E+03  0.10000000000E+01 0.  0.
    9000005    1    3    3    0    0 -0.46491952127E+01 -0.62174817212E+02 -0.19895130072E+03  0.20849446748E+03  0.10000000000E+01 0.  0.
<mgrwt>
<rscale>  0 0.12499806E+03</rscale>
<asrwt>0</asrwt>
<pdfrwt beam="1">  1        4 0.13753228E-02 0.12499806E+03</pdfrwt>
<pdfrwt beam="2">  1       -4 0.67222589E-01 0.12499806E+03</pdfrwt>
<totfact> 0.60324389E+03</totfact>
</mgrwt>
</event>
<event>
 5    1  0.3236337E-002  0.1249969E+03  0.7818608E-02  0.1235074E+00
         -4   -1    0    0    0  501 -0.00000000000E+00  0.00000000000E+00  0.64708890582E+01  0.65943388754E+01  0.12700000000E+01 0. -1.
          4   -1    0    0  501    0  0.00000000000E+00 -0.00000000000E+00 -0.59780780978E+03  0.59780915879E+03  0.12700000000E+01 0. -1.
         25    2    1    2    0    0  0.00000000000E+00  0.00000000000E+00 -0.59133692072E+03  0.60440349767E+03  0.12499693669E+03 0.  0.
    9000005    1    3    3    0    0  0.94780475597E+01 -0.58769630300E+02 -0.38758529554E+03  0.39213143734E+03  0.10000000000E+01 0.  0.
    9000005    1    3    3    0    0 -0.94780475597E+01  0.58769630300E+02 -0.20375162519E+03  0.21227206033E+03  0.10000000000E+01 0.  0.
<mgrwt>
<rscale>  0 0.12499694E+03</rscale>
<asrwt>0</asrwt>
<pdfrwt beam="2">  1        4 0.91979989E-01 0.12499694E+03</pdfrwt>
<pdfrwt beam="1">  1       -4 0.10051218E-02 0.12499694E+03</pdfrwt>
<totfact> 0.48594104E+03</totfact>
</mgrwt>
</event>
<event>
 5    1  0.3236337E-002  0.1250020E+03  0.7818608E-02  0.1235066E+00
         -4   -1    0    0    0  501 -0.00000000000E+00  0.00000000000E+00  0.24616442629E+03  0.24616770233E+03  0.12700000000E+01 0.  1.
          4   -1    0    0  501    0  0.00000000000E+00 -0.00000000000E+00 -0.15840174816E+02  0.15891004946E+02  0.12700000000E+01 0.  1.
         25    2    1    2    0    0  0.00000000000E+00  0.00000000000E+00  0.23032425147E+03  0.26205870727E+03  0.12500202095E+03 0.  0.
    9000005    1    3    3    0    0  0.28910681403E+02 -0.32346701908E+02  0.20946072194E+03  0.21390869701E+03  0.10000000000E+01 0.  0.
    9000005    1    3    3    0    0 -0.28910681403E+02  0.32346701908E+02  0.20863529535E+02  0.48150010261E+02  0.10000000000E+01 0.  0.
<mgrwt>
<rscale>  0 0.12500202E+03</rscale>
<asrwt>0</asrwt>
<pdfrwt beam="2">  1        4 0.24411119E-02 0.12500202E+03</pdfrwt>
<pdfrwt beam="1">  1       -4 0.37875614E-01 0.12500202E+03</pdfrwt>
<totfact> 0.80614387E+03</totfact>
</mgrwt>
</event>
<event>
 5    1  0.3236337E-002  0.1249931E+03  0.7818608E-02  0.1235080E+00
         -4   -1    0    0    0  501 -0.00000000000E+00  0.00000000000E+00  0.19426630843E+03  0.19427045964E+03  0.12700000000E+01 0.  1.
          4   -1    0    0  501    0  0.00000000000E+00 -0.00000000000E+00 -0.20081069710E+02  0.20121189346E+02  0.12700000000E+01 0.  1.
         25    2    1    2    0    0  0.00000000000E+00  0.00000000000E+00  0.17418523872E+03  0.21439164899E+03  0.12499312689E+03 0.  0.
    9000005    1    3    3    0    0  0.24420257011E+02 -0.53580009363E+02  0.12297549384E+03  0.13634932504E+03  0.10000000000E+01 0.  0.
    9000005    1    3    3    0    0 -0.24420257011E+02  0.53580009363E+02  0.51209744880E+02  0.78042323943E+02  0.10000000000E+01 0.  0.
<mgrwt>
<rscale>  0 0.12499313E+03</rscale>
<asrwt>0</asrwt>
<pdfrwt beam="2">  1        4 0.30928008E-02 0.12499313E+03</pdfrwt>
<pdfrwt beam="1">  1       -4 0.29890530E-01 0.12499313E+03</pdfrwt>
<totfact> 0.87777133E+03</totfact>
</mgrwt>
</event>
<event>
 5    1  0.3236337E-002  0.1250097E+03  0.7818608E-02  0.1235054E+00
         -4   -1    0    0    0  501 -0.00000000000E+00  0.00000000000E+00  0.32062121946E+01  0.34485789301E+01  0.12700000000E+01 0. -1.
          4   -1    0    0  501    0  0.00000000000E+00 -0.00000000000E+00 -0.11739054085E+04  0.11739060955E+04  0.12700000000E+01 0. -1.
         25    2    1    2    0    0  0.00000000000E+00  0.00000000000E+00 -0.11706991963E+04  0.11773546744E+04  0.12500968413E+03 0.  0.
    9000005    1    3    3    0    0 -0.26606369426E+02 -0.17631652607E+02 -0.79299917668E+02  0.85488309200E+02  0.10000000000E+01 0.  0.
    9000005    1    3    3    0    0  0.26606369426E+02  0.17631652607E+02 -0.10913992787E+04  0.10918663652E+04  0.10000000000E+01 0.  0.
<mgrwt>
<rscale>  0 0.12500968E+03</rscale>
<asrwt>0</asrwt>
<pdfrwt beam="2">  1        4 0.18061920E+00 0.12500968E+03</pdfrwt>
<pdfrwt beam="1">  1       -4 0.51196079E-03 0.12500968E+03</pdfrwt>
<totfact> 0.25308014E+03</totfact>
</mgrwt>
</event>
<event>
 5    1  0.3236337E-002  0.1249848E+03  0.7818608E-02  0.1235093E+00
          4   -1    0    0  501    0  0.00000000000E+00  0.00000000000E+00  0.10714509286E+02  0.10789513855E+02  0.12700000000E+01 0.  1.
         -4   -1    0    0    0  501 -0.00000000000E+00 -0.00000000000E+00 -0.36313967259E+03  0.36314189335E+03  0.12700000000E+01 0.  1.
         25    2    1    2    0    0  0.00000000000E+00  0.00000000000E+00 -0.35242516330E+03  0.37393140721E+03  0.12498480535E+03 0.  0.
    9000005    1    3    3    0    0  0.50707455560E+02  0.35500578923E+02 -0.20173317316E+03  0.21101850703E+03  0.10000000000E+01 0.  0.
    9000005    1    3    3    0    0 -0.50707455560E+02 -0.35500578923E+02 -0.15069199014E+03  0.16291290018E+03  0.10000000000E+01 0.  0.
<mgrwt>
<rscale>  0 0.12498481E+03</rscale>
<asrwt>0</asrwt>
<pdfrwt beam="1">  1        4 0.16543267E-02 0.12498481E+03</pdfrwt>
<pdfrwt beam="2">  1       -4 0.55873573E-01 0.12498481E+03</pdfrwt>
<totfact> 0.67192203E+03</totfact>
</mgrwt>
</event>
<event>
 5    1  0.3236337E-002  0.1250004E+03  0.7818608E-02  0.1235069E+00
          4   -1    0    0  501    0  0.00000000000E+00  0.00000000000E+00  0.93723629051E+02  0.93732233210E+02  0.12700000000E+01 0.  1.
         -4   -1    0    0    0  501 -0.00000000000E+00 -0.00000000000E+00 -0.41658476856E+02  0.41677830965E+02  0.12700000000E+01 0.  1.
         25    2    1    2    0    0  0.00000000000E+00  0.00000000000E+00  0.52065152195E+02  0.13541006417E+03  0.12500042163E+03 0.  0.
    9000005    1    3    3    0    0 -0.39846848819E+02  0.22048658089E+02  0.72390771939E+02  0.85529752404E+02  0.10000000000E+01 0.  0.
    9000005    1    3    3    0    0  0.39846848819E+02 -0.22048658089E+02 -0.20325619744E+02  0.49880311771E+02  0.10000000000E+01 0.  0.
<mgrwt>
<rscale>  0 0.12500042E+03</rscale>
<asrwt>0</asrwt>
<pdfrwt beam="1">  1        4 0.14421170E-01 0.12500042E+03</pdfrwt>
<pdfrwt beam="2">  1       -4 0.64111471E-02 0.12500042E+03</pdfrwt>
<totfact> 0.10229338E+04</totfact>
</mgrwt>
</event>
<event>
 5    1  0.3236337E-002  0.1249907E+03  0.7818608E-02  0.1235084E+00
          4   -1    0    0  501    0  0.00000000000E+00  0.00000000000E+00  0.10487216290E+04  0.10487223979E+04  0.12700000000E+01 0. -1.
         -4   -1    0    0    0  501 -0.00000000000E+00 -0.00000000000E+00 -0.36151575920E+01  0.38317443045E+01  0.12700000000E+01 0. -1.
         25    2    1    2    0    0  0.00000000000E+00  0.00000000000E+00  0.10451064714E+04  0.10525541422E+04  0.12499074313E+03 0.  0.
    9000005    1    3    3    0    0  0.28091105964E+02 -0.17302671033E+02  0.96943919272E+03  0.97000094899E+03  0.10000000000E+01 0.  0.
    9000005    1    3    3    0    0 -0.28091105964E+02  0.17302671033E+02  0.75667278646E+02  0.82553193257E+02  0.10000000000E+01 0.  0.
<mgrwt>
<rscale>  0 0.12499074E+03</rscale>
<asrwt>0</asrwt>
<pdfrwt beam="1">  1        4 0.16135823E+00 0.12499074E+03</pdfrwt>
<pdfrwt beam="2">  1       -4 0.57289876E-03 0.12499074E+03</pdfrwt>
<totfact> 0.28921046E+03</totfact>
</mgrwt>
</event>
<event>
 5    1  0.3236337E-002  0.1249976E+03  0.7818608E-02  0.1235073E+00
         -4   -1    0    0    0  501 -0.00000000000E+00  0.00000000000E+00  0.12732491613E+02  0.12795672810E+02  0.12700000000E+01 0.  1.
          4   -1    0    0  501    0  0.00000000000E+00 -0.00000000000E+00 -0.30595841129E+03  0.30596104709E+03  0.12700000000E+01 0.  1.
         25    2    1    2    0    0  0.00000000000E+00  0.00000000000E+00 -0.29322591968E+03  0.31875671990E+03  0.12499762603E+03 0.  0.
    9000005    1    3    3    0    0  0.58615438805E+02 -0.21634182296E+02 -0.14951393897E+03  0.16204698533E+03  0.10000000000E+01 0.  0.
    9000005    1    3    3    0    0 -0.58615438805E+02  0.21634182296E+02 -0.14371198071E+03  0.15670973457E+03  0.10000000000E+01 0.  0.
<mgrwt>
<rscale>  0 0.12499763E+03</rscale>
<asrwt>0</asrwt>
<pdfrwt beam="2">  1        4 0.47075582E-01 0.12499763E+03</pdfrwt>
<pdfrwt beam="1">  1       -4 0.19639079E-02 0.12499763E+03</pdfrwt>
<totfact> 0.73308101E+03</totfact>
</mgrwt>
</event>
<event>
 5    1  0.3236337E-002  0.1250007E+03  0.7818608E-02  0.1235068E+00
          4   -1    0    0  501    0  0.00000000000E+00  0.00000000000E+00  0.38375275018E+03  0.38375485165E+03  0.12700000000E+01 0.  1.
         -4   -1    0    0    0  501 -0.00000000000E+00 -0.00000000000E+00 -0.10137441369E+02  0.10216683293E+02  0.12700000000E+01 0.  1.
         25    2    1    2    0    0  0.00000000000E+00  0.00000000000E+00  0.37361530881E+03  0.39397153495E+03  0.12500068549E+03 0.  0.
    9000005    1    3    3    0    0  0.20935996273E+02 -0.17429495923E+02  0.95458930999E+01  0.28882994013E+02  0.10000000000E+01 0.  0.
    9000005    1    3    3    0    0 -0.20935996273E+02  0.17429495923E+02  0.36406941571E+03  0.36508854093E+03  0.10000000000E+01 0.  0.
<mgrwt>
<rscale>  0 0.12500069E+03</rscale>
<asrwt>0</asrwt>
<pdfrwt beam="1">  1        4 0.59045140E-01 0.12500069E+03</pdfrwt>
<pdfrwt beam="2">  1       -4 0.15658636E-02 0.12500069E+03</pdfrwt>
<totfact> 0.65142377E+03</totfact>
</mgrwt>
</event>
<event>
 5    1  0.3236337E-002  0.1250001E+03  0.7818608E-02  0.1235069E+00
         -4   -1    0    0    0  501 -0.00000000000E+00  0.00000000000E+00  0.53893458959E+03  0.53893608596E+03  0.12700000000E+01 0. -1.
          4   -1    0    0  501    0  0.00000000000E+00 -0.00000000000E+00 -0.71909553981E+01  0.73022420897E+01  0.12700000000E+01 0. -1.
         25    2    1    2    0    0  0.00000000000E+00  0.00000000000E+00  0.53174363419E+03  0.54623832805E+03  0.12500007413E+03 0.  0.
    9000005    1    3    3    0    0  0.65034241341E+01 -0.54672517848E+02  0.13669137075E+03  0.14736658227E+03  0.10000000000E+01 0.  0.
    9000005    1    3    3    0    0 -0.65034241341E+01  0.54672517848E+02  0.39505226344E+03  0.39887174578E+03  0.10000000000E+01 0.  0.
<mgrwt>
<rscale>  0 0.12500007E+03</rscale>
<asrwt>0</asrwt>
<pdfrwt beam="2">  1        4 0.11149758E-02 0.12500007E+03</pdfrwt>
<pdfrwt beam="1">  1       -4 0.82921738E-01 0.12500007E+03</pdfrwt>
<totfact> 0.52447115E+03</totfact>
</mgrwt>
</event>
<event>
 4    1  0.3236337E-002  0.1251817E+03  0.7818608E-02  0.1234786E+00
          4   -1    0    0  501    0  0.00000000000E+00  0.00000000000E+00  0.75831269804E+02  0.75841903853E+02  0.12700000000E+01 0. -1.
         -4   -1    0    0    0  501 -0.00000000000E+00 -0.00000000000E+00 -0.51640197156E+02  0.51655811506E+02  0.12700000000E+01 0. -1.
    9000005    1    1    2    0    0 -0.84921737184E+01  0.10305866703E+02 -0.50177186538E+02  0.51933399194E+02  0.10000000000E+01 0.  0.
    9000005    1    1    2    0    0  0.84921737184E+01 -0.10305866703E+02  0.74368259187E+02  0.75564316165E+02  0.10000000000E+01 0.  0.
<mgrwt>
<rscale>  0 0.12518171E+03</rscale>
<asrwt>0</asrwt>
<pdfrwt beam="1">  1        4 0.11668368E-01 0.12518171E+03</pdfrwt>
<pdfrwt beam="2">  1       -4 0.79466649E-02 0.12518171E+03</pdfrwt>
<totfact> 0.10355812E+04</totfact>
</mgrwt>
</event>
<event>
 5    1  0.3236337E-002  0.1250018E+03  0.7818608E-02  0.1235067E+00
          4   -1    0    0  501    0  0.00000000000E+00  0.00000000000E+00  0.33300331166E+03  0.33300573340E+03  0.12700000000E+01 0. -1.
         -4   -1    0    0    0  501 -0.00000000000E+00 -0.00000000000E+00 -0.11693851079E+02  0.11762612510E+02  0.12700000000E+01 0. -1.
         25    2    1    2    0    0  0.00000000000E+00  0.00000000000E+00  0.32130946058E+03  0.34476834591E+03  0.12500177151E+03 0.  0.
    9000005    1    3    3    0    0  0.26559597819E+02  0.56225496048E+02  0.17779988684E+03  0.18836273093E+03  0.10000000000E+01 0.  0.
    9000005    1    3    3    0    0 -0.26559597819E+02 -0.56225496048E+02  0.14350957374E+03  0.15640561498E+03  0.10000000000E+01 0.  0.
<mgrwt>
<rscale>  0 0.12500177E+03</rscale>
<asrwt>0</asrwt>
<pdfrwt beam="1">  1        4 0.51236762E-01 0.12500177E+03</pdfrwt>
<pdfrwt beam="2">  1       -4 0.18045294E-02 0.12500177E+03</pdfrwt>
<totfact> 0.70301198E+03</totfact>
</mgrwt>
</event>
<event>
 5    1  0.3236337E-002  0.1249988E+03  0.7818608E-02  0.1235071E+00
          4   -1    0    0  501    0  0.00000000000E+00  0.00000000000E+00  0.66725827555E+02  0.66737912486E+02  0.12700000000E+01 0.  1.
         -4   -1    0    0    0  501 -0.00000000000E+00 -0.00000000000E+00 -0.58516361792E+02  0.58530141785E+02  0.12700000000E+01 0.  1.
         25    2    1    2    0    0  0.00000000000E+00  0.00000000000E+00  0.82094657633E+01  0.12526805427E+03  0.12499876036E+03 0.  0.
    9000005    1    3    3    0    0  0.30381248227E+02  0.34607125896E+02  0.46439072974E+02  0.65408416165E+02  0.10000000000E+01 0.  0.
    9000005    1    3    3    0    0 -0.30381248227E+02 -0.34607125896E+02 -0.38229607210E+02  0.59859638105E+02  0.10000000000E+01 0.  0.
<mgrwt>
<rscale>  0 0.12499876E+03</rscale>
<asrwt>0</asrwt>
<pdfrwt beam="1">  1        4 0.10267501E-01 0.12499876E+03</pdfrwt>
<pdfrwt beam="2">  1       -4 0.90045069E-02 0.12499876E+03</pdfrwt>
<totfact> 0.10447336E+04</totfact>
</mgrwt>
</event>
<event>
 5    1  0.3236337E-002  0.1249950E+03  0.7818608E-02  0.1235077E+00
         -4   -1    0    0    0  501 -0.00000000000E+00  0.00000000000E+00  0.12757244895E+02  0.12820304104E+02  0.12700000000E+01 0.  1.
          4   -1    0    0  501    0  0.00000000000E+00 -0.00000000000E+00 -0.30535468171E+03  0.30535732272E+03  0.12700000000E+01 0.  1.
         25    2    1    2    0    0  0.00000000000E+00  0.00000000000E+00 -0.29259743681E+03  0.31817762683E+03  0.12499496863E+03 0.  0.
    9000005    1    3    3    0    0  0.38915398910E+02  0.47906583858E+02 -0.17117285909E+03  0.18196317412E+03  0.10000000000E+01 0.  0.
    9000005    1    3    3    0    0 -0.38915398910E+02 -0.47906583858E+02 -0.12142457772E+03  0.13621445270E+03  0.10000000000E+01 0.  0.
<mgrwt>
<rscale>  0 0.12499497E+03</rscale>
<asrwt>0</asrwt>
<pdfrwt beam="2">  1        4 0.46982692E-01 0.12499497E+03</pdfrwt>
<pdfrwt beam="1">  1       -4 0.19677072E-02 0.12499497E+03</pdfrwt>
<totfact> 0.73381585E+03</totfact>
</mgrwt>
</event>
<event>
 5    1  0.3236337E-002  0.1250015E+03  0.7818608E-02  0.1235067E+00
          4   -1    0    0  501    0  0.00000000000E+00  0.00000000000E+00  0.48942589553E+02  0.48959064249E+02  0.12700000000E+01 0.  1.
         -4   -1    0    0    0  501 -0.00000000000E+00 -0.00000000000E+00 -0.79779822413E+02  0.79789930219E+02  0.12700000000E+01 0.  1.
         25    2    1    2    0    0  0.00000000000E+00  0.00000000000E+00 -0.30837232860E+02  0.12874899447E+03  0.12500147458E+03 0.  0.
    9000005    1    3    3    0    0  0.23148608408E+02 -0.50802707483E+02 -0.44341964269E+02  0.71302054347E+02  0.10000000000E+01 0.  0.
    9000005    1    3    3    0    0 -0.23148608408E+02  0.50802707483E+02  0.13504731409E+02  0.57446940121E+02  0.10000000000E+01 0.  0.
<mgrwt>
<rscale>  0 0.12500147E+03</rscale>
<asrwt>0</asrwt>
<pdfrwt beam="1">  1        4 0.75316740E-02 0.12500147E+03</pdfrwt>
<pdfrwt beam="2">  1       -4 0.12275864E-01 0.12500147E+03</pdfrwt>
<totfact> 0.10370998E+04</totfact>
</mgrwt>
</event>
<event>
 5    1  0.3236337E-002  0.1250009E+03  0.7818608E-02  0.1235068E+00
         -4   -1    0    0    0  501 -0.00000000000E+00  0.00000000000E+00  0.87744316648E+01  0.88658643707E+01  0.12700000000E+01 0. -1.
          4   -1    0    0  501    0  0.00000000000E+00 -0.00000000000E+00 -0.44279182995E+03  0.44279365123E+03  0.12700000000E+01 0. -1.
         25    2    1    2    0    0  0.00000000000E+00  0.00000000000E+00 -0.43401739828E+03  0.45165951560E+03  0.12500086407E+03 0.  0.
    9000005    1    3    3    0    0  0.60092933978E+02 -0.15191525440E+02 -0.18824739126E+03  0.19819188549E+03  0.10000000000E+01 0.  0.
    9000005    1    3    3    0    0 -0.60092933978E+02  0.15191525440E+02 -0.24577000702E+03  0.25346763011E+03  0.10000000000E+01 0.  0.
<mgrwt>
<rscale>  0 0.12500086E+03</rscale>
<asrwt>0</asrwt>
<pdfrwt beam="2">  1        4 0.68128976E-01 0.12500086E+03</pdfrwt>
<pdfrwt beam="1">  1       -4 0.13570863E-02 0.12500086E+03</pdfrwt>
<totfact> 0.59819169E+03</totfact>
</mgrwt>
</event>
<event>
 5    1  0.3236337E-002  0.1249969E+03  0.7818608E-02  0.1235074E+00
         -4   -1    0    0    0  501 -0.00000000000E+00  0.00000000000E+00  0.17978925818E+03  0.17979374366E+03  0.12700000000E+01 0.  1.
          4   -1    0    0  501    0  0.00000000000E+00 -0.00000000000E+00 -0.21702413202E+02  0.21739540905E+02  0.12700000000E+01 0.  1.
         25    2    1    2    0    0  0.00000000000E+00  0.00000000000E+00  0.15808684498E+03  0.20153328456E+03  0.12499685688E+03 0.  0.
    9000005    1    3    3    0    0  0.59892084676E+02 -0.61030993849E+01  0.52028552807E+02  0.79575624008E+02  0.10000000000E+01 0.  0.
    9000005    1    3    3    0    0 -0.59892084676E+02  0.61030993849E+01  0.10605829217E+03  0.12195766055E+03  0.10000000000E+01 0.  0.
<mgrwt>
<rscale>  0 0.12499686E+03</rscale>
<asrwt>0</asrwt>
<pdfrwt beam="2">  1        4 0.33420337E-02 0.12499686E+03</pdfrwt>
<pdfrwt beam="1">  1       -4 0.27663087E-01 0.12499686E+03</pdfrwt>
<totfact> 0.89883868E+03</totfact>
</mgrwt>
</event>
<event>
 5    1  0.3236337E-002  0.1250004E+03  0.7818608E-02  0.1235069E+00
         -4   -1    0    0    0  501 -0.00000000000E+00  0.00000000000E+00  0.11464440644E+02  0.11534569749E+02  0.12700000000E+01 0. -1.
          4   -1    0    0  501    0  0.00000000000E+00 -0.00000000000E+00 -0.33961937341E+03  0.33962174797E+03  0.12700000000E+01 0. -1.
         25    2    1    2    0    0  0.00000000000E+00  0.00000000000E+00 -0.32815493277E+03  0.35115631772E+03  0.12500039831E+03 0.  0.
    9000005    1    3    3    0    0  0.47595770012E+02 -0.40437881483E+02 -0.17016471907E+03  0.18126668529E+03  0.10000000000E+01 0.  0.
    9000005    1    3    3    0    0 -0.47595770012E+02  0.40437881483E+02 -0.15799021370E+03  0.16988963243E+03  0.10000000000E+01 0.  0.
<mgrwt>
<rscale>  0 0.12500040E+03</rscale>
<asrwt>0</asrwt>
<pdfrwt beam="2">  1        4 0.52254704E-01 0.12500040E+03</pdfrwt>
<pdfrwt beam="1">  1       -4 0.17693376E-02 0.12500040E+03</pdfrwt>
<totfact> 0.69596924E+03</totfact>
</mgrwt>
</event>
<event>
 5    1  0.3236337E-002  0.1249980E+03  0.7818608E-02  0.1235072E+00
         -4   -1    0    0    0  501 -0.00000000000E+00  0.00000000000E+00  0.54495728689E+03  0.54495876672E+03  0.12700000000E+01 0. -1.
          4   -1    0    0  501    0  0.00000000000E+00 -0.00000000000E+00 -0.71100101168E+01  0.72225441405E+01  0.12700000000E+01 0. -1.
         25    2    1    2    0    0  0.00000000000E+00  0.00000000000E+00  0.53784727677E+03  0.55218131087E+03  0.12499802775E+03 0.  0.
    9000005    1    3    3    0    0 -0.58831478703E+02 -0.12484045151E+02  0.19393859614E+03  0.20305214440E+03  0.10000000000E+01 0.  0.
    9000005    1    3    3    0    0  0.58831478703E+02  0.12484045151E+02  0.34390868063E+03  0.34912916647E+03  0.10000000000E+01 0.  0.
<mgrwt>
<rscale>  0 0.12499803E+03</rscale>
<asrwt>0</asrwt>
<pdfrwt beam="2">  1        4 0.11026176E-02 0.12499803E+03</pdfrwt>
<pdfrwt beam="1">  1       -4 0.83848387E-01 0.12499803E+03</pdfrwt>
<totfact> 0.52034466E+03</totfact>
</mgrwt>
</event>
<event>
 5    1  0.3236337E-002  0.1249990E+03  0.7818608E-02  0.1235071E+00
          4   -1    0    0  501    0  0.00000000000E+00  0.00000000000E+00  0.30523064919E+03  0.30523329128E+03  0.12700000000E+01 0. -1.
         -4   -1    0    0    0  501 -0.00000000000E+00 -0.00000000000E+00 -0.12763287756E+02  0.12826317256E+02  0.12700000000E+01 0. -1.
         25    2    1    2    0    0  0.00000000000E+00  0.00000000000E+00  0.29246736143E+03  0.31805960853E+03  0.12499902830E+03 0.  0.
    9000005    1    3    3    0    0  0.26785708940E+02  0.19979959549E+02  0.28059939818E+03  0.28258396141E+03  0.10000000000E+01 0.  0.
    9000005    1    3    3    0    0 -0.26785708940E+02 -0.19979959549E+02  0.11867963251E+02  0.35475647122E+02  0.10000000000E+01 0.  0.
<mgrwt>
<rscale>  0 0.12499903E+03</rscale>
<asrwt>0</asrwt>
<pdfrwt beam="1">  1        4 0.46963614E-01 0.12499903E+03</pdfrwt>
<pdfrwt beam="2">  1       -4 0.19686343E-02 0.12499903E+03</pdfrwt>
<totfact> 0.73389083E+03</totfact>
</mgrwt>
</event>
<event>
 5    1  0.3236337E-002  0.1249964E+03  0.7818608E-02  0.1235075E+00
          4   -1    0    0  501    0  0.00000000000E+00  0.00000000000E+00  0.59394004668E+02  0.59407581086E+02  0.12700000000E+01 0.  1.
         -4   -1    0    0    0  501 -0.00000000000E+00 -0.00000000000E+00 -0.65737455556E+02  0.65749722151E+02  0.12700000000E+01 0.  1.
         25    2    1    2    0    0  0.00000000000E+00  0.00000000000E+00 -0.63434508874E+01  0.12515730324E+03  0.12499644469E+03 0.  0.
    9000005    1    3    3    0    0 -0.59064895687E+02  0.58569740057E+01  0.16399828818E+02  0.61586690382E+02  0.10000000000E+01 0.  0.
    9000005    1    3    3    0    0  0.59064895687E+02 -0.58569740057E+01 -0.22743279706E+02  0.63570612855E+02  0.10000000000E+01 0.  0.
<mgrwt>
<rscale>  0 0.12499644E+03</rscale>
<asrwt>0</asrwt>
<pdfrwt beam="1">  1        4 0.91395271E-02 0.12499644E+03</pdfrwt>
<pdfrwt beam="2">  1       -4 0.10115443E-01 0.12499644E+03</pdfrwt>
<totfact> 0.10450287E+04</totfact>
</mgrwt>
</event>
<event>
 5    1  0.3236337E-002  0.1250000E+03  0.7818608E-02  0.1235069E+00
         -4   -1    0    0    0  501 -0.00000000000E+00  0.00000000000E+00  0.82920865793E+01  0.83887782090E+01  0.12700000000E+01 0.  1.
          4   -1    0    0  501    0  0.00000000000E+00 -0.00000000000E+00 -0.46825312543E+03  0.46825484768E+03  0.12700000000E+01 0.  1.
         25    2    1    2    0    0  0.00000000000E+00  0.00000000000E+00 -0.45996103885E+03  0.47664362589E+03  0.12499995536E+03 0.  0.
    9000005    1    3    3    0    0  0.36405150689E+01  0.85895887081E+01 -0.46560152102E+03  0.46569604976E+03  0.10000000000E+01 0.  0.
    9000005    1    3    3    0    0 -0.36405150689E+01 -0.85895887081E+01  0.56404821656E+01  0.10947576134E+02  0.10000000000E+01 0.  0.
<mgrwt>
<rscale>  0 0.12499996E+03</rscale>
<asrwt>0</asrwt>
<pdfrwt beam="2">  1        4 0.72046492E-01 0.12499996E+03</pdfrwt>
<pdfrwt beam="1">  1       -4 0.12832763E-02 0.12499996E+03</pdfrwt>
<totfact> 0.57723258E+03</totfact>
</mgrwt>
</event>
<event>
 5    1  0.3236337E-002  0.1250014E+03  0.7818608E-02  0.1235067E+00
         -4   -1    0    0    0  501 -0.00000000000E+00  0.00000000000E+00  0.62437665603E+02  0.62450580349E+02  0.12700000000E+01 0. -1.
          4   -1    0    0  501    0  0.00000000000E+00 -0.00000000000E+00 -0.62538011275E+02  0.62550905303E+02  0.12700000000E+01 0. -1.
         25    2    1    2    0    0  0.00000000000E+00  0.00000000000E+00 -0.10034567275E+00  0.12500148565E+03  0.12500144538E+03 0.  0.
    9000005    1    3    3    0    0 -0.61588269140E+02 -0.94328802761E+01  0.47712611352E+01  0.62496872392E+02  0.10000000000E+01 0.  0.
    9000005    1    3    3    0    0  0.61588269140E+02  0.94328802761E+01 -0.48716068079E+01  0.62504613260E+02  0.10000000000E+01 0.  0.
<mgrwt>
<rscale>  0 0.12500145E+03</rscale>
<asrwt>0</asrwt>
<pdfrwt beam="2">  1        4 0.96232178E-02 0.12500145E+03</pdfrwt>
<pdfrwt beam="1">  1       -4 0.96077800E-02 0.12500145E+03</pdfrwt>
<totfact> 0.10452489E+04</totfact>
</mgrwt>
</event>
<event>
 5    1  0.3236337E-002  0.1249927E+03  0.7818608E-02  0.1235081E+00
         -4   -1    0    0    0  501 -0.00000000000E+00  0.00000000000E+00  0.50370309930E+03  0.50370470034E+03  0.12700000000E+01 0. -1.
          4   -1    0    0  501    0  0.00000000000E+00 -0.00000000000E+00 -0.77005284325E+01  0.78045523984E+01  0.12700000000E+01 0. -1.
         25    2    1    2    0    0  0.00000000000E+00  0.00000000000E+00  0.49600257087E+03  0.51150925274E+03  0.12499266110E+03 0.  0.
    9000005    1    3    3    0    0  0.58721049111E+02 -0.20339583607E+02  0.27481486515E+03  0.28175533780E+03  0.10000000000E+01 0.  0.
    9000005    1    3    3    0    0 -0.58721049111E+02  0.20339583607E+02  0.22118770572E+03  0.22975391495E+03  0.10000000000E+01 0.  0.
<mgrwt>
<rscale>  0 0.12499266E+03</rscale>
<asrwt>0</asrwt>
<pdfrwt beam="2">  1        4 0.11928216E-02 0.12499266E+03</pdfrwt>
<pdfrwt beam="1">  1       -4 0.77500915E-01 0.12499266E+03</pdfrwt>
<totfact> 0.54991184E+03</totfact>
</mgrwt>
</event>
<event>
 5    1  0.3236337E-002  0.1250231E+03  0.7818608E-02  0.1235033E+00
         -4   -1    0    0    0  501 -0.00000000000E+00  0.00000000000E+00  0.93538308188E+02  0.93546929392E+02  0.12700000000E+01 0. -1.
          4   -1    0    0  501    0  0.00000000000E+00 -0.00000000000E+00 -0.41756214740E+02  0.41775523568E+02  0.12700000000E+01 0. -1.
         25    2    1    2    0    0  0.00000000000E+00  0.00000000000E+00  0.51782093447E+02  0.13532245296E+03  0.12502312215E+03 0.  0.
    9000005    1    3    3    0    0  0.11380096969E+02  0.56705924470E+02  0.24009816261E+00  0.57845709643E+02  0.10000000000E+01 0.  0.
    9000005    1    3    3    0    0 -0.11380096969E+02 -0.56705924470E+02  0.51541995285E+02  0.77476743317E+02  0.10000000000E+01 0.  0.
<mgrwt>
<rscale>  0 0.12502312E+03</rscale>
<asrwt>0</asrwt>
<pdfrwt beam="2">  1        4 0.64261815E-02 0.12502312E+03</pdfrwt>
<pdfrwt beam="1">  1       -4 0.14392657E-01 0.12502312E+03</pdfrwt>
<totfact> 0.10225946E+04</totfact>
</mgrwt>
</event>
<event>
 5    1  0.3236337E-002  0.1250058E+03  0.7818608E-02  0.1235060E+00
         -4   -1    0    0    0  501 -0.00000000000E+00  0.00000000000E+00  0.33107613751E+01  0.35459894082E+01  0.12700000000E+01 0.  1.
          4   -1    0    0  501    0  0.00000000000E+00 -0.00000000000E+00 -0.11392585539E+04  0.11392592618E+04  0.12700000000E+01 0.  1.
         25    2    1    2    0    0  0.00000000000E+00  0.00000000000E+00 -0.11359477925E+04  0.11428052512E+04  0.12500581900E+03 0.  0.
    9000005    1    3    3    0    0 -0.60970658749E+02 -0.88377947621E+01 -0.47205420983E+03  0.47605850991E+03  0.10000000000E+01 0.  0.
    9000005    1    3    3    0    0  0.60970658749E+02  0.88377947621E+01 -0.66389358271E+03  0.66674674128E+03  0.10000000000E+01 0.  0.
<mgrwt>
<rscale>  0 0.12500582E+03</rscale>
<asrwt>0</asrwt>
<pdfrwt beam="2">  1        4 0.17528839E+00 0.12500582E+03</pdfrwt>
<pdfrwt beam="1">  1       -4 0.52749773E-03 0.12500582E+03</pdfrwt>
<totfact> 0.26257427E+03</totfact>
</mgrwt>
</event>
<event>
 5    1  0.3236337E-002  0.1249986E+03  0.7818608E-02  0.1235071E+00
         -4   -1    0    0    0  501 -0.00000000000E+00  0.00000000000E+00  0.57176350818E+01  0.58569830911E+01  0.12700000000E+01 0.  1.
          4   -1    0    0  501    0  0.00000000000E+00 -0.00000000000E+00 -0.67481321816E+03  0.67481441323E+03  0.12700000000E+01 0.  1.
         25    2    1    2    0    0  0.00000000000E+00  0.00000000000E+00 -0.66909558308E+03  0.68067139632E+03  0.12499860189E+03 0.  0.
    9000005    1    3    3    0    0  0.72486473867E+01 -0.26243666993E+02 -0.28250602834E+02  0.39247541410E+02  0.10000000000E+01 0.  0.
    9000005    1    3    3    0    0 -0.72486473867E+01  0.26243666993E+02 -0.64084498025E+03  0.64142385491E+03  0.10000000000E+01 0.  0.
<mgrwt>
<rscale>  0 0.12499860E+03</rscale>
<asrwt>0</asrwt>
<pdfrwt beam="2">  1        4 0.10382817E+00 0.12499860E+03</pdfrwt>
<pdfrwt beam="1">  1       -4 0.89044771E-03 0.12499860E+03</pdfrwt>
<totfact> 0.44128230E+03</totfact>
</mgrwt>
</event>
<event>
 5    1  0.3236337E-002  0.1250020E+03  0.7818608E-02  0.1235066E+00
         -4   -1    0    0    0  501 -0.00000000000E+00  0.00000000000E+00  0.52772576245E+02  0.52787855644E+02  0.12700000000E+01 0.  1.
          4   -1    0    0  501    0  0.00000000000E+00 -0.00000000000E+00 -0.73991418537E+02  0.74002316971E+02  0.12700000000E+01 0.  1.
         25    2    1    2    0    0  0.00000000000E+00  0.00000000000E+00 -0.21218842292E+02  0.12679017262E+03  0.12500203440E+03 0.  0.
    9000005    1    3    3    0    0 -0.54498219352E+02 -0.18163716944E+02 -0.35566281243E+02  0.67571716622E+02  0.10000000000E+01 0.  0.
    9000005    1    3    3    0    0  0.54498219352E+02  0.18163716944E+02  0.14347438951E+02  0.59218455993E+02  0.10000000000E+01 0.  0.
<mgrwt>
<rscale>  0 0.12500203E+03</rscale>
<asrwt>0</asrwt>
<pdfrwt beam="2">  1        4 0.11385309E-01 0.12500203E+03</pdfrwt>
<pdfrwt beam="1">  1       -4 0.81208715E-02 0.12500203E+03</pdfrwt>
<totfact> 0.10413229E+04</totfact>
</mgrwt>
</event>
<event>
 5    1  0.3236337E-002  0.1250108E+03  0.7818608E-02  0.1235052E+00
          4   -1    0    0  501    0  0.00000000000E+00  0.00000000000E+00  0.67992942566E+03  0.67993061174E+03  0.12700000000E+01 0.  1.
         -4   -1    0    0    0  501 -0.00000000000E+00 -0.00000000000E+00 -0.56746927557E+01  0.58150698939E+01  0.12700000000E+01 0.  1.
         25    2    1    2    0    0  0.00000000000E+00  0.00000000000E+00  0.67425473290E+03  0.68574568163E+03  0.12501077967E+03 0.  0.
    9000005    1    3    3    0    0  0.58028027417E+02  0.17086037698E+02  0.42329310461E+03  0.42759471122E+03  0.10000000000E+01 0.  0.
    9000005    1    3    3    0    0 -0.58028027417E+02 -0.17086037698E+02  0.25096162829E+03  0.25815097041E+03  0.10000000000E+01 0.  0.
<mgrwt>
<rscale>  0 0.12501078E+03</rscale>
<asrwt>0</asrwt>
<pdfrwt beam="1">  1        4 0.10461536E+00 0.12501078E+03</pdfrwt>
<pdfrwt beam="2">  1       -4 0.88391962E-03 0.12501078E+03</pdfrwt>
<totfact> 0.43839595E+03</totfact>
</mgrwt>
</event>
<event>
 5    1  0.3236337E-002  0.1249986E+03  0.7818608E-02  0.1235071E+00
         -4   -1    0    0    0  501 -0.00000000000E+00  0.00000000000E+00  0.59993463614E+03  0.59993598037E+03  0.12700000000E+01 0.  1.
          4   -1    0    0  501    0  0.00000000000E+00 -0.00000000000E+00 -0.64476886312E+01  0.65715742928E+01  0.12700000000E+01 0.  1.
         25    2    1    2    0    0  0.00000000000E+00  0.00000000000E+00  0.59348694751E+03  0.60650755466E+03  0.12499862798E+03 0.  0.
    9000005    1    3    3    0    0 -0.28588006884E+02  0.34518326659E+02  0.50804036453E+03  0.51001451058E+03  0.10000000000E+01 0.  0.
    9000005    1    3    3    0    0  0.28588006884E+02 -0.34518326659E+02  0.85446582983E+02  0.96493044083E+02  0.10000000000E+01 0.  0.
<mgrwt>
<rscale>  0 0.12499863E+03</rscale>
<asrwt>0</asrwt>
<pdfrwt beam="2">  1        4 0.10015852E-02 0.12499863E+03</pdfrwt>
<pdfrwt beam="1">  1       -4 0.92307268E-01 0.12499863E+03</pdfrwt>
<totfact> 0.48460852E+03</totfact>
</mgrwt>
</event>
<event>
 5    1  0.3236337E-002  0.1250035E+03  0.7818608E-02  0.1235064E+00
         -4   -1    0    0    0  501 -0.00000000000E+00  0.00000000000E+00  0.37689755758E+02  0.37711146749E+02  0.12700000000E+01 0. -1.
          4   -1    0    0  501    0  0.00000000000E+00 -0.00000000000E+00 -0.10359327270E+03  0.10360105718E+03  0.12700000000E+01 0. -1.
         25    2    1    2    0    0  0.00000000000E+00  0.00000000000E+00 -0.65903516941E+02  0.14131220393E+03  0.12500346169E+03 0.  0.
    9000005    1    3    3    0    0 -0.20125416752E+02  0.58863930949E+02 -0.26218923474E+02  0.67516121885E+02  0.10000000000E+01 0.  0.
    9000005    1    3    3    0    0  0.20125416752E+02 -0.58863930949E+02 -0.39684593467E+02  0.73796082043E+02  0.10000000000E+01 0.  0.
<mgrwt>
<rscale>  0 0.12500346E+03</rscale>
<asrwt>0</asrwt>
<pdfrwt beam="2">  1        4 0.15939671E-01 0.12500346E+03</pdfrwt>
<pdfrwt beam="1">  1       -4 0.58006683E-02 0.12500346E+03</pdfrwt>
<totfact> 0.10105674E+04</totfact>
</mgrwt>
</event>
<event>
 4    1  0.3236337E-002  0.1251212E+03  0.7818608E-02  0.1234880E+00
         -4   -1    0    0    0  501 -0.00000000000E+00  0.00000000000E+00  0.43727517918E+02  0.43745956651E+02  0.12700000000E+01 0.  1.
          4   -1    0    0  501    0  0.00000000000E+00 -0.00000000000E+00 -0.89463065859E+02  0.89472079739E+02  0.12700000000E+01 0.  1.
    9000005    1    1    2    0    0 -0.47270702123E+02 -0.11277354867E+01 -0.66469466306E+02  0.81578067013E+02  0.10000000000E+01 0.  0.
    9000005    1    1    2    0    0  0.47270702123E+02  0.11277354867E+01  0.20733918365E+02  0.51639969377E+02  0.10000000000E+01 0.  0.
<mgrwt>
<rscale>  0 0.12512116E+03</rscale>
<asrwt>0</asrwt>
<pdfrwt beam="2">  1        4 0.13765660E-01 0.12512116E+03</pdfrwt>
<pdfrwt beam="1">  1       -4 0.67294222E-02 0.12512116E+03</pdfrwt>
<totfact> 0.10247735E+04</totfact>
</mgrwt>
</event>
<event>
 5    1  0.3236337E-002  0.1249987E+03  0.7818608E-02  0.1235071E+00
         -4   -1    0    0    0  501 -0.00000000000E+00  0.00000000000E+00  0.11406750526E+02  0.11477232138E+02  0.12700000000E+01 0. -1.
          4   -1    0    0  501    0  0.00000000000E+00 -0.00000000000E+00 -0.34131720907E+03  0.34131957182E+03  0.12700000000E+01 0. -1.
         25    2    1    2    0    0  0.00000000000E+00  0.00000000000E+00 -0.32991045854E+03  0.35279680396E+03  0.12499869690E+03 0.  0.
    9000005    1    3    3    0    0  0.27099184117E+02 -0.27768859264E+02 -0.30321537806E+03  0.30568945159E+03  0.10000000000E+01 0.  0.
    9000005    1    3    3    0    0 -0.27099184117E+02  0.27768859264E+02 -0.26695080484E+02  0.47107352363E+02  0.10000000000E+01 0.  0.
<mgrwt>
<rscale>  0 0.12499870E+03</rscale>
<asrwt>0</asrwt>
<pdfrwt beam="2">  1        4 0.52515935E-01 0.12499870E+03</pdfrwt>
<pdfrwt beam="1">  1       -4 0.17604884E-02 0.12499870E+03</pdfrwt>
<totfact> 0.69419970E+03</totfact>
</mgrwt>
</event>
<event>
 5    1  0.3236337E-002  0.1250020E+03  0.7818608E-02  0.1235066E+00
         -4   -1    0    0    0  501 -0.00000000000E+00  0.00000000000E+00  0.42505569853E+03  0.42505759581E+03  0.12700000000E+01 0. -1.
          4   -1    0    0  501    0  0.00000000000E+00 -0.00000000000E+00 -0.91444617863E+01  0.92322305734E+01  0.12700000000E+01 0. -1.
         25    2    1    2    0    0  0.00000000000E+00  0.00000000000E+00  0.41591123674E+03  0.43428982638E+03  0.12500198577E+03 0.  0.
    9000005    1    3    3    0    0 -0.50799896115E+02 -0.34326973674E+02  0.24999327900E+03  0.25740359382E+03  0.10000000000E+01 0.  0.
    9000005    1    3    3    0    0  0.50799896115E+02  0.34326973674E+02  0.16591795774E+03  0.17688623256E+03  0.10000000000E+01 0.  0.
<mgrwt>
<rscale>  0 0.12500199E+03</rscale>
<asrwt>0</asrwt>
<pdfrwt beam="2">  1        4 0.14137373E-02 0.12500199E+03</pdfrwt>
<pdfrwt beam="1">  1       -4 0.65400101E-01 0.12500199E+03</pdfrwt>
<totfact> 0.61346363E+03</totfact>
</mgrwt>
</event>
<event>
 5    1  0.3236337E-002  0.1250016E+03  0.7818608E-02  0.1235067E+00
          4   -1    0    0  501    0  0.00000000000E+00  0.00000000000E+00  0.46918872159E+02  0.46936057191E+02  0.12700000000E+01 0. -1.
         -4   -1    0    0    0  501 -0.00000000000E+00 -0.00000000000E+00 -0.83220248493E+02  0.83229938479E+02  0.12700000000E+01 0. -1.
         25    2    1    2    0    0  0.00000000000E+00  0.00000000000E+00 -0.36301376334E+02  0.13016599567E+03  0.12500158601E+03 0.  0.
    9000005    1    3    3    0    0  0.44322768695E+02 -0.44043805617E+02 -0.19183895022E+02  0.65371143988E+02  0.10000000000E+01 0.  0.
    9000005    1    3    3    0    0 -0.44322768695E+02  0.44043805617E+02 -0.17117481312E+02  0.64794851682E+02  0.10000000000E+01 0.  0.
<mgrwt>
<rscale>  0 0.12500159E+03</rscale>
<asrwt>0</asrwt>
<pdfrwt beam="1">  1        4 0.72203553E-02 0.12500159E+03</pdfrwt>
<pdfrwt beam="2">  1       -4 0.12805183E-01 0.12500159E+03</pdfrwt>
<totfact> 0.10340588E+04</totfact>
</mgrwt>
</event>
<event>
 5    1  0.3236337E-002  0.1249956E+03  0.7818608E-02  0.1235076E+00
         -4   -1    0    0    0  501 -0.00000000000E+00  0.00000000000E+00  0.49606383760E+02  0.49622638078E+02  0.12700000000E+01 0.  1.
          4   -1    0    0  501    0  0.00000000000E+00 -0.00000000000E+00 -0.78705148291E+02  0.78715394095E+02  0.12700000000E+01 0.  1.
         25    2    1    2    0    0  0.00000000000E+00  0.00000000000E+00 -0.29098764531E+02  0.12833803217E+03  0.12499564954E+03 0.  0.
    9000005    1    3    3    0    0 -0.30030420855E+02 -0.54695302578E+02 -0.11056081389E+02  0.63376961401E+02  0.10000000000E+01 0.  0.
    9000005    1    3    3    0    0  0.30030420855E+02  0.54695302578E+02 -0.18042683143E+02  0.64961070771E+02  0.10000000000E+01 0.  0.
<mgrwt>
<rscale>  0 0.12499565E+03</rscale>
<asrwt>0</asrwt>
<pdfrwt beam="2">  1        4 0.12110523E-01 0.12499565E+03</pdfrwt>
<pdfrwt beam="1">  1       -4 0.76337898E-02 0.12499565E+03</pdfrwt>
<totfact> 0.10381213E+04</totfact>
</mgrwt>
</event>
<event>
 5    1  0.3236337E-002  0.1250021E+03  0.7818608E-02  0.1235066E+00
          4   -1    0    0  501    0  0.00000000000E+00  0.00000000000E+00  0.42640831369E+03  0.42641020495E+03  0.12700000000E+01 0. -1.
         -4   -1    0    0    0  501 -0.00000000000E+00 -0.00000000000E+00 -0.91151867172E+01  0.92032346970E+01  0.12700000000E+01 0. -1.
         25    2    1    2    0    0  0.00000000000E+00  0.00000000000E+00  0.41729312697E+03  0.43561343965E+03  0.12500205991E+03 0.  0.
    9000005    1    3    3    0    0  0.30135813112E+02  0.10608682568E+02  0.39581472363E+03  0.39710326972E+03  0.10000000000E+01 0.  0.
    9000005    1    3    3    0    0 -0.30135813112E+02 -0.10608682568E+02  0.21478403343E+02  0.38510169929E+02  0.10000000000E+01 0.  0.
<mgrwt>
<rscale>  0 0.12500206E+03</rscale>
<asrwt>0</asrwt>
<pdfrwt beam="1">  1        4 0.65608191E-01 0.12500206E+03</pdfrwt>
<pdfrwt beam="2">  1       -4 0.14092550E-02 0.12500206E+03</pdfrwt>
<totfact> 0.61227665E+03</totfact>
</mgrwt>
</event>
<event>
 5    1  0.3236337E-002  0.1249925E+03  0.7818608E-02  0.1235081E+00
         -4   -1    0    0    0  501 -0.00000000000E+00  0.00000000000E+00  0.29013028433E+03  0.29013306393E+03  0.12700000000E+01 0. -1.
          4   -1    0    0  501    0  0.00000000000E+00 -0.00000000000E+00 -0.13429350652E+02  0.13489268287E+02  0.12700000000E+01 0. -1.
         25    2    1    2    0    0  0.00000000000E+00  0.00000000000E+00  0.27670093368E+03  0.30362233222E+03  0.12499245546E+03 0.  0.
    9000005    1    3    3    0    0 -0.49691800566E+02 -0.57600193304E+01  0.47385462309E+02  0.68911790751E+02  0.10000000000E+01 0.  0.
    9000005    1    3    3    0    0  0.49691800566E+02  0.57600193304E+01  0.22931547137E+03  0.23471054147E+03  0.10000000000E+01 0.  0.
<mgrwt>
<rscale>  0 0.12499246E+03</rscale>
<asrwt>0</asrwt>
<pdfrwt beam="2">  1        4 0.20708769E-02 0.12499246E+03</pdfrwt>
<pdfrwt beam="1">  1       -4 0.44640248E-01 0.12499246E+03</pdfrwt>
<totfact> 0.75159280E+03</totfact>
</mgrwt>
</event>
<event>
 5    1  0.3236337E-002  0.1249998E+03  0.7818608E-02  0.1235070E+00
         -4   -1    0    0    0  501 -0.00000000000E+00  0.00000000000E+00  0.68142446158E+03  0.68142564506E+03  0.12700000000E+01 0.  1.
          4   -1    0    0  501    0  0.00000000000E+00 -0.00000000000E+00 -0.56609122530E+01  0.58016228364E+01  0.12700000000E+01 0.  1.
         25    2    1    2    0    0  0.00000000000E+00  0.00000000000E+00  0.67576354933E+03  0.68722726789E+03  0.12499977254E+03 0.  0.
    9000005    1    3    3    0    0  0.54018685504E+02  0.26596238595E+02  0.42985462162E+03  0.43405227107E+03  0.10000000000E+01 0.  0.
    9000005    1    3    3    0    0 -0.54018685504E+02 -0.26596238595E+02  0.24590892771E+03  0.25317499682E+03  0.10000000000E+01 0.  0.
<mgrwt>
<rscale>  0 0.12499977E+03</rscale>
<asrwt>0</asrwt>
<pdfrwt beam="2">  1        4 0.88182425E-03 0.12499977E+03</pdfrwt>
<pdfrwt beam="1">  1       -4 0.10484548E+00 0.12499977E+03</pdfrwt>
<totfact> 0.43769785E+03</totfact>
</mgrwt>
</event>
<event>
 5    1  0.3236337E-002  0.1250123E+03  0.7818608E-02  0.1235050E+00
         -4   -1    0    0    0  501 -0.00000000000E+00  0.00000000000E+00  0.76472585450E+02  0.76483130332E+02  0.12700000000E+01 0. -1.
          4   -1    0    0  501    0  0.00000000000E+00 -0.00000000000E+00 -0.51068458596E+02  0.51084247703E+02  0.12700000000E+01 0. -1.
         25    2    1    2    0    0  0.00000000000E+00  0.00000000000E+00  0.25404126853E+02  0.12756737804E+03  0.12501226451E+03 0.  0.
    9000005    1    3    3    0    0  0.38444074601E+02  0.10790239670E+01 -0.37568462818E+02  0.53772674875E+02  0.10000000000E+01 0.  0.
    9000005    1    3    3    0    0 -0.38444074601E+02 -0.10790239670E+01  0.62972589672E+02  0.73794703161E+02  0.10000000000E+01 0.  0.
<mgrwt>
<rscale>  0 0.12501226E+03</rscale>
<asrwt>0</asrwt>
<pdfrwt beam="2">  1        4 0.78587117E-02 0.12501226E+03</pdfrwt>
<pdfrwt beam="1">  1       -4 0.11767039E-01 0.12501226E+03</pdfrwt>
<totfact> 0.10393964E+04</totfact>
</mgrwt>
</event>
<event>
 5    1  0.3236337E-002  0.1250057E+03  0.7818608E-02  0.1235060E+00
          4   -1    0    0  501    0  0.00000000000E+00  0.00000000000E+00  0.67996580804E+03  0.67996699405E+03  0.12700000000E+01 0. -1.
         -4   -1    0    0    0  501 -0.00000000000E+00 -0.00000000000E+00 -0.56739080035E+01  0.58143040884E+01  0.12700000000E+01 0. -1.
         25    2    1    2    0    0  0.00000000000E+00  0.00000000000E+00  0.67429190003E+03  0.68578129814E+03  0.12500568958E+03 0.  0.
    9000005    1    3    3    0    0  0.52725600452E+02 -0.33544727954E+02  0.34047342699E+03  0.34616237838E+03  0.10000000000E+01 0.  0.
    9000005    1    3    3    0    0 -0.52725600452E+02  0.33544727954E+02  0.33381847304E+03  0.33961891976E+03  0.10000000000E+01 0.  0.
<mgrwt>
<rscale>  0 0.12500569E+03</rscale>
<asrwt>0</asrwt>
<pdfrwt beam="1">  1        4 0.10462102E+00 0.12500569E+03</pdfrwt>
<pdfrwt beam="2">  1       -4 0.88379979E-03 0.12500569E+03</pdfrwt>
<totfact> 0.43842521E+03</totfact>
</mgrwt>
</event>
<event>
 5    1  0.3236337E-002  0.1249810E+03  0.7818608E-02  0.1235099E+00
         -4   -1    0    0    0  501 -0.00000000000E+00  0.00000000000E+00  0.12545551723E+03  0.12546194524E+03  0.12700000000E+01 0. -1.
          4   -1    0    0  501    0  0.00000000000E+00 -0.00000000000E+00 -0.31106865713E+02  0.31132780064E+02  0.12700000000E+01 0. -1.
         25    2    1    2    0    0  0.00000000000E+00  0.00000000000E+00  0.94348651518E+02  0.15659472531E+03  0.12498095835E+03 0.  0.
    9000005    1    3    3    0    0 -0.54081559802E+01  0.52405742806E+02  0.89263890154E+02  0.10365641377E+03  0.10000000000E+01 0.  0.
    9000005    1    3    3    0    0  0.54081559802E+01 -0.52405742806E+02  0.50847613645E+01  0.52938311536E+02  0.10000000000E+01 0.  0.
<mgrwt>
<rscale>  0 0.12498096E+03</rscale>
<asrwt>0</asrwt>
<pdfrwt beam="2">  1        4 0.47881596E-02 0.12498096E+03</pdfrwt>
<pdfrwt beam="1">  1       -4 0.19303336E-01 0.12498096E+03</pdfrwt>
<totfact> 0.98045315E+03</totfact>
</mgrwt>
</event>
<event>
 5    1  0.3236337E-002  0.1249973E+03  0.7818608E-02  0.1235074E+00
         -4   -1    0    0    0  501 -0.00000000000E+00  0.00000000000E+00  0.36975778829E+01  0.39096012840E+01  0.12700000000E+01 0. -1.
          4   -1    0    0  501    0  0.00000000000E+00 -0.00000000000E+00 -0.10267331364E+04  0.10267339218E+04  0.12700000000E+01 0. -1.
         25    2    1    2    0    0  0.00000000000E+00  0.00000000000E+00 -0.10230355585E+04  0.10306435231E+04  0.12499727113E+03 0.  0.
    9000005    1    3    3    0    0 -0.73480239905E+01 -0.51336407288E+02 -0.79900191300E+03  0.80068375602E+03  0.10000000000E+01 0.  0.
    9000005    1    3    3    0    0  0.73480239905E+01  0.51336407288E+02 -0.22403364547E+03  0.22995976707E+03  0.10000000000E+01 0.  0.
<mgrwt>
<rscale>  0 0.12499727E+03</rscale>
<asrwt>0</asrwt>
<pdfrwt beam="2">  1        4 0.15797509E+00 0.12499727E+03</pdfrwt>
<pdfrwt beam="1">  1       -4 0.58522887E-03 0.12499727E+03</pdfrwt>
<totfact> 0.29608738E+03</totfact>
</mgrwt>
</event>
<event>
 5    1  0.3236337E-002  0.1250015E+03  0.7818608E-02  0.1235067E+00
         -4   -1    0    0    0  501 -0.00000000000E+00  0.00000000000E+00  0.88308718890E+01  0.89217261962E+01  0.12700000000E+01 0.  1.
          4   -1    0    0  501    0  0.00000000000E+00 -0.00000000000E+00 -0.43999555102E+03  0.43999738388E+03  0.12700000000E+01 0.  1.
         25    2    1    2    0    0  0.00000000000E+00  0.00000000000E+00 -0.43116467914E+03  0.44891911008E+03  0.12500154742E+03 0.  0.
    9000005    1    3    3    0    0 -0.44704391949E+02 -0.41453253750E+02 -0.26488824570E+03  0.27181544772E+03  0.10000000000E+01 0.  0.
    9000005    1    3    3    0    0  0.44704391949E+02  0.41453253750E+02 -0.16627643343E+03  0.17710366236E+03  0.10000000000E+01 0.  0.
<mgrwt>
<rscale>  0 0.12500155E+03</rscale>
<asrwt>0</asrwt>
<pdfrwt beam="2">  1        4 0.67698736E-01 0.12500155E+03</pdfrwt>
<pdfrwt beam="1">  1       -4 0.13657258E-02 0.12500155E+03</pdfrwt>
<totfact> 0.60055507E+03</totfact>
</mgrwt>
</event>
<event>
 4    1  0.3236337E-002  0.1258339E+03  0.7818608E-02  0.1233772E+00
         -4   -1    0    0    0  501 -0.00000000000E+00  0.00000000000E+00  0.99236004338E+02  0.99244130592E+02  0.12700000000E+01 0.  1.
          4   -1    0    0  501    0  0.00000000000E+00 -0.00000000000E+00 -0.39870335896E+02  0.39890557585E+02  0.12700000000E+01 0.  1.
    9000005    1    1    2    0    0  0.35659464269E+02  0.29238446183E+02 -0.17631093640E+02  0.49379546273E+02  0.10000000000E+01 0.  0.
    9000005    1    1    2    0    0 -0.35659464269E+02 -0.29238446183E+02  0.76996762082E+02  0.89755141904E+02  0.10000000000E+01 0.  0.
<mgrwt>
<rscale>  0 0.12583393E+03</rscale>
<asrwt>0</asrwt>
<pdfrwt beam="2">  1        4 0.61360785E-02 0.12583393E+03</pdfrwt>
<pdfrwt beam="1">  1       -4 0.15269258E-01 0.12583393E+03</pdfrwt>
<totfact> 0.99631375E+03</totfact>
</mgrwt>
</event>
<event>
 5    1  0.3236337E-002  0.1250004E+03  0.7818608E-02  0.1235069E+00
          4   -1    0    0  501    0  0.00000000000E+00  0.00000000000E+00  0.62410401131E+02  0.62423321518E+02  0.12700000000E+01 0.  1.
         -4   -1    0    0    0  501 -0.00000000000E+00 -0.00000000000E+00 -0.62564333202E+02  0.62577221807E+02  0.12700000000E+01 0.  1.
         25    2    1    2    0    0  0.00000000000E+00  0.00000000000E+00 -0.15393207092E+00  0.12500054332E+03  0.12500044854E+03 0.  0.
    9000005    1    3    3    0    0 -0.56682809273E+02 -0.19940467181E+02 -0.17244242538E+02  0.62521412326E+02  0.10000000000E+01 0.  0.
    9000005    1    3    3    0    0  0.56682809273E+02  0.19940467181E+02  0.17090310467E+02  0.62479130999E+02  0.10000000000E+01 0.  0.
<mgrwt>
<rscale>  0 0.12500045E+03</rscale>
<asrwt>0</asrwt>
<pdfrwt beam="1">  1        4 0.96035855E-02 0.12500045E+03</pdfrwt>
<pdfrwt beam="2">  1       -4 0.96272673E-02 0.12500045E+03</pdfrwt>
<totfact> 0.10452745E+04</totfact>
</mgrwt>
</event>
<event>
 5    1  0.3236337E-002  0.1249982E+03  0.7818608E-02  0.1235072E+00
          4   -1    0    0  501    0  0.00000000000E+00  0.00000000000E+00  0.52370880929E+02  0.52386277490E+02  0.12700000000E+01 0.  1.
         -4   -1    0    0    0  501 -0.00000000000E+00 -0.00000000000E+00 -0.74554332823E+02  0.74565148982E+02  0.12700000000E+01 0.  1.
         25    2    1    2    0    0  0.00000000000E+00  0.00000000000E+00 -0.22183451894E+02  0.12695142647E+03  0.12499823657E+03 0.  0.
    9000005    1    3    3    0    0  0.35062889057E+02  0.51052860429E+02 -0.26346036889E+01  0.61997918382E+02  0.10000000000E+01 0.  0.
    9000005    1    3    3    0    0 -0.35062889057E+02 -0.51052860429E+02 -0.19548848205E+02  0.64953508090E+02  0.10000000000E+01 0.  0.
<mgrwt>
<rscale>  0 0.12499824E+03</rscale>
<asrwt>0</asrwt>
<pdfrwt beam="1">  1        4 0.80590749E-02 0.12499824E+03</pdfrwt>
<pdfrwt beam="2">  1       -4 0.11471914E-01 0.12499824E+03</pdfrwt>
<totfact> 0.10410615E+04</totfact>
</mgrwt>
</event>
<event>
 5    1  0.3236337E-002  0.1250002E+03  0.7818608E-02  0.1235069E+00
          4   -1    0    0  501    0  0.00000000000E+00  0.00000000000E+00  0.86731561710E+01  0.87656453251E+01  0.12700000000E+01 0. -1.
         -4   -1    0    0    0  501 -0.00000000000E+00 -0.00000000000E+00 -0.44790297844E+03  0.44790477894E+03  0.12700000000E+01 0. -1.
         25    2    1    2    0    0  0.00000000000E+00  0.00000000000E+00 -0.43922982227E+03  0.45667042426E+03  0.12500015850E+03 0.  0.
    9000005    1    3    3    0    0 -0.38800737960E+02  0.14690933362E+02 -0.39034599044E+03  0.39254593750E+03  0.10000000000E+01 0.  0.
    9000005    1    3    3    0    0  0.38800737960E+02 -0.14690933362E+02 -0.48883831827E+02  0.64124486769E+02  0.10000000000E+01 0.  0.
<mgrwt>
<rscale>  0 0.12500016E+03</rscale>
<asrwt>0</asrwt>
<pdfrwt beam="1">  1        4 0.13415851E-02 0.12500016E+03</pdfrwt>
<pdfrwt beam="2">  1       -4 0.68915386E-01 0.12500016E+03</pdfrwt>
<totfact> 0.59390062E+03</totfact>
</mgrwt>
</event>
<event>
 5    1  0.3236337E-002  0.1250542E+03  0.7818608E-02  0.1234985E+00
         -4   -1    0    0    0  501 -0.00000000000E+00  0.00000000000E+00  0.12421808691E+02  0.12486562023E+02  0.12700000000E+01 0.  1.
          4   -1    0    0  501    0  0.00000000000E+00 -0.00000000000E+00 -0.31385558211E+03  0.31385815160E+03  0.12700000000E+01 0.  1.
         25    2    1    2    0    0  0.00000000000E+00  0.00000000000E+00 -0.30143377342E+03  0.32634471362E+03  0.12505419764E+03 0.  0.
    9000005    1    3    3    0    0  0.48931332739E+02 -0.37007285199E+02 -0.18212182799E+03  0.19218005805E+03  0.10000000000E+01 0.  0.
    9000005    1    3    3    0    0 -0.48931332739E+02  0.37007285199E+02 -0.11931194543E+03  0.13416465557E+03  0.10000000000E+01 0.  0.
<mgrwt>
<rscale>  0 0.12505420E+03</rscale>
<asrwt>0</asrwt>
<pdfrwt beam="2">  1        4 0.48290647E-01 0.12505420E+03</pdfrwt>
<pdfrwt beam="1">  1       -4 0.19162264E-02 0.12505420E+03</pdfrwt>
<totfact> 0.72320919E+03</totfact>
</mgrwt>
</event>
<event>
 5    1  0.3236337E-002  0.1250058E+03  0.7818608E-02  0.1235060E+00
          4   -1    0    0  501    0  0.00000000000E+00  0.00000000000E+00  0.12709692316E+03  0.12710326816E+03  0.12700000000E+01 0.  1.
         -4   -1    0    0    0  501 -0.00000000000E+00 -0.00000000000E+00 -0.30717017907E+02  0.30743260872E+02  0.12700000000E+01 0.  1.
         25    2    1    2    0    0  0.00000000000E+00  0.00000000000E+00  0.96379905250E+02  0.15784652903E+03  0.12500576223E+03 0.  0.
    9000005    1    3    3    0    0 -0.33974585926E+02 -0.43110392608E+02  0.85920213368E+02  0.10196107838E+03  0.10000000000E+01 0.  0.
    9000005    1    3    3    0    0  0.33974585926E+02  0.43110392608E+02  0.10459691883E+02  0.55885450647E+02  0.10000000000E+01 0.  0.
<mgrwt>
<rscale>  0 0.12500576E+03</rscale>
<asrwt>0</asrwt>
<pdfrwt beam="1">  1        4 0.19555879E-01 0.12500576E+03</pdfrwt>
<pdfrwt beam="2">  1       -4 0.47282018E-02 0.12500576E+03</pdfrwt>
<totfact> 0.97746907E+03</totfact>
</mgrwt>
</event>
<event>
 5    1  0.3236337E-002  0.1249977E+03  0.7818608E-02  0.1235073E+00
          4   -1    0    0  501    0  0.00000000000E+00  0.00000000000E+00  0.64735591256E+02  0.64748047656E+02  0.12700000000E+01 0.  1.
         -4   -1    0    0    0  501 -0.00000000000E+00 -0.00000000000E+00 -0.60314491617E+02  0.60327860885E+02  0.12700000000E+01 0.  1.
         25    2    1    2    0    0  0.00000000000E+00  0.00000000000E+00  0.44210996388E+01  0.12507590854E+03  0.12499774708E+03 0.  0.
    9000005    1    3    3    0    0  0.52937253861E+02  0.13118299661E+02 -0.28315354304E+02  0.61458945009E+02  0.10000000000E+01 0.  0.
    9000005    1    3    3    0    0 -0.52937253861E+02 -0.13118299661E+02  0.32736453942E+02  0.63616963532E+02  0.10000000000E+01 0.  0.
<mgrwt>
<rscale>  0 0.12499775E+03</rscale>
<asrwt>0</asrwt>
<pdfrwt beam="1">  1        4 0.99613083E-02 0.12499775E+03</pdfrwt>
<pdfrwt beam="2">  1       -4 0.92811392E-02 0.12499775E+03</pdfrwt>
<totfact> 0.10451746E+04</totfact>
</mgrwt>
</event>
<event>
 5    1  0.3236337E-002  0.1250020E+03  0.7818608E-02  0.1235066E+00
          4   -1    0    0  501    0  0.00000000000E+00  0.00000000000E+00  0.32606156713E+02  0.32630880399E+02  0.12700000000E+01 0. -1.
         -4   -1    0    0    0  501 -0.00000000000E+00 -0.00000000000E+00 -0.11973142726E+03  0.11973816256E+03  0.12700000000E+01 0. -1.
         25    2    1    2    0    0  0.00000000000E+00  0.00000000000E+00 -0.87125270550E+02  0.15236904296E+03  0.12500204992E+03 0.  0.
    9000005    1    3    3    0    0 -0.42956742184E+02  0.12401212204E+01  0.11741959373E+02  0.44561117688E+02  0.10000000000E+01 0.  0.
    9000005    1    3    3    0    0  0.42956742184E+02 -0.12401212204E+01 -0.98867229922E+02  0.10780792528E+03  0.10000000000E+01 0.  0.
<mgrwt>
<rscale>  0 0.12500205E+03</rscale>
<asrwt>0</asrwt>
<pdfrwt beam="1">  1        4 0.50187518E-02 0.12500205E+03</pdfrwt>
<pdfrwt beam="2">  1       -4 0.18422639E-01 0.12500205E+03</pdfrwt>
<totfact> 0.98828986E+03</totfact>
</mgrwt>
</event>
<event>
 5    1  0.3236337E-002  0.1249809E+03  0.7818608E-02  0.1235099E+00
         -4   -1    0    0    0  501 -0.00000000000E+00  0.00000000000E+00  0.13762448470E+02  0.13820922107E+02  0.12700000000E+01 0. -1.
          4   -1    0    0  501    0  0.00000000000E+00 -0.00000000000E+00 -0.28308565736E+03  0.28308850613E+03  0.12700000000E+01 0. -1.
         25    2    1    2    0    0  0.00000000000E+00  0.00000000000E+00 -0.26932320889E+03  0.29690942824E+03  0.12498086945E+03 0.  0.
    9000005    1    3    3    0    0  0.54442855962E+02 -0.21789283148E+02 -0.18590370310E+03  0.19493584650E+03  0.10000000000E+01 0.  0.
    9000005    1    3    3    0    0 -0.54442855962E+02  0.21789283148E+02 -0.83419505787E+02  0.10197358173E+03  0.10000000000E+01 0.  0.
<mgrwt>
<rscale>  0 0.12498087E+03</rscale>
<asrwt>0</asrwt>
<pdfrwt beam="2">  1        4 0.43556352E-01 0.12498087E+03</pdfrwt>
<pdfrwt beam="1">  1       -4 0.21220171E-02 0.12498087E+03</pdfrwt>
<totfact> 0.76020445E+03</totfact>
</mgrwt>
</event>
<event>
 5    1  0.3236337E-002  0.1250017E+03  0.7818608E-02  0.1235067E+00
          4   -1    0    0  501    0  0.00000000000E+00  0.00000000000E+00  0.91925659553E+02  0.91934431984E+02  0.12700000000E+01 0.  1.
         -4   -1    0    0    0  501 -0.00000000000E+00 -0.00000000000E+00 -0.42474439132E+02  0.42493421603E+02  0.12700000000E+01 0.  1.
         25    2    1    2    0    0  0.00000000000E+00  0.00000000000E+00  0.49451220421E+02  0.13442785359E+03  0.12500169846E+03 0.  0.
    9000005    1    3    3    0    0 -0.17234552306E+02 -0.59651889949E+02  0.17122969471E+02  0.64417185992E+02  0.10000000000E+01 0.  0.
    9000005    1    3    3    0    0  0.17234552306E+02  0.59651889949E+02  0.32328250950E+02  0.70010667595E+02  0.10000000000E+01 0.  0.
<mgrwt>
<rscale>  0 0.12500170E+03</rscale>
<asrwt>0</asrwt>
<pdfrwt beam="1">  1        4 0.14144544E-01 0.12500170E+03</pdfrwt>
<pdfrwt beam="2">  1       -4 0.65366642E-02 0.12500170E+03</pdfrwt>
<totfact> 0.10249752E+04</totfact>
</mgrwt>
</event>
<event>
 5    1  0.3236337E-002  0.1250011E+03  0.7818608E-02  0.1235068E+00
          4   -1    0    0  501    0  0.00000000000E+00  0.00000000000E+00  0.20749347193E+01  0.24327462033E+01  0.12700000000E+01 0. -1.
         -4   -1    0    0    0  501 -0.00000000000E+00 -0.00000000000E+00 -0.17328259240E+04  0.17328263894E+04  0.12700000000E+01 0. -1.
         25    2    1    2    0    0  0.00000000000E+00  0.00000000000E+00 -0.17307509893E+04  0.17352591356E+04  0.12500112313E+03 0.  0.
    9000005    1    3    3    0    0  0.44056393243E+02 -0.26966142709E+02 -0.37709751028E+03  0.38062011362E+03  0.10000000000E+01 0.  0.
    9000005    1    3    3    0    0 -0.44056393243E+02  0.26966142709E+02 -0.13536534790E+04  0.13546390220E+04  0.10000000000E+01 0.  0.
<mgrwt>
<rscale>  0 0.12500112E+03</rscale>
<asrwt>0</asrwt>
<pdfrwt beam="1">  1        4 0.34678187E-03 0.12500112E+03</pdfrwt>
<pdfrwt beam="2">  1       -4 0.26661510E+00 0.12500112E+03</pdfrwt>
<totfact> 0.13727535E+03</totfact>
</mgrwt>
</event>
<event>
 5    1  0.3236337E-002  0.1249974E+03  0.7818608E-02  0.1235073E+00
         -4   -1    0    0    0  501 -0.00000000000E+00  0.00000000000E+00  0.19432059359E+03  0.19432474365E+03  0.12700000000E+01 0.  1.
          4   -1    0    0  501    0  0.00000000000E+00 -0.00000000000E+00 -0.20076823181E+02  0.20116951286E+02  0.12700000000E+01 0.  1.
         25    2    1    2    0    0  0.00000000000E+00  0.00000000000E+00  0.17424377041E+03  0.21444169494E+03  0.12499739597E+03 0.  0.
    9000005    1    3    3    0    0  0.53685364300E+02  0.25453281929E+02  0.53895628149E+02  0.80222980714E+02  0.10000000000E+01 0.  0.
    9000005    1    3    3    0    0 -0.53685364300E+02 -0.25453281929E+02  0.12034814226E+03  0.13421871422E+03  0.10000000000E+01 0.  0.
<mgrwt>
<rscale>  0 0.12499740E+03</rscale>
<asrwt>0</asrwt>
<pdfrwt beam="2">  1        4 0.30921480E-02 0.12499740E+03</pdfrwt>
<pdfrwt beam="1">  1       -4 0.29898882E-01 0.12499740E+03</pdfrwt>
<totfact> 0.87760699E+03</totfact>
</mgrwt>
</event>
<event>
 5    1  0.3236337E-002  0.1249792E+03  0.7818608E-02  0.1235102E+00
          4   -1    0    0  501    0  0.00000000000E+00  0.00000000000E+00  0.69382609749E+02  0.69394232005E+02  0.12700000000E+01 0.  1.
         -4   -1    0    0    0  501 -0.00000000000E+00 -0.00000000000E+00 -0.56257892603E+02  0.56272225654E+02  0.12700000000E+01 0.  1.
         25    2    1    2    0    0  0.00000000000E+00  0.00000000000E+00  0.13124717146E+02  0.12566645766E+03  0.12497919979E+03 0.  0.
    9000005    1    3    3    0    0 -0.39799394402E+02 -0.29212797454E+02  0.45068778729E+02  0.66854873764E+02  0.10000000000E+01 0.  0.
    9000005    1    3    3    0    0  0.39799394402E+02  0.29212797454E+02 -0.31944061583E+02  0.58811583895E+02  0.10000000000E+01 0.  0.
<mgrwt>
<rscale>  0 0.12497920E+03</rscale>
<asrwt>0</asrwt>
<pdfrwt beam="1">  1        4 0.10676244E-01 0.12497920E+03</pdfrwt>
<pdfrwt beam="2">  1       -4 0.86570570E-02 0.12497920E+03</pdfrwt>
<totfact> 0.10443182E+04</totfact>
</mgrwt>
</event>
<event>
 5    1  0.3236337E-002  0.1250130E+03  0.7818608E-02  0.1235049E+00
          4   -1    0    0  501    0  0.00000000000E+00  0.00000000000E+00  0.92024955817E+02  0.92033718783E+02  0.12700000000E+01 0. -1.
         -4   -1    0    0    0  501 -0.00000000000E+00 -0.00000000000E+00 -0.42436294338E+02  0.42455293864E+02  0.12700000000E+01 0. -1.
         25    2    1    2    0    0  0.00000000000E+00  0.00000000000E+00  0.49588661479E+02  0.13448901265E+03  0.12501303602E+03 0.  0.
    9000005    1    3    3    0    0 -0.16911699261E+02  0.50940821482E+02  0.59238277542E+02  0.79944645795E+02  0.10000000000E+01 0.  0.
    9000005    1    3    3    0    0  0.16911699261E+02 -0.50940821482E+02 -0.96496160624E+01  0.54544366853E+02  0.10000000000E+01 0.  0.
<mgrwt>
<rscale>  0 0.12501304E+03</rscale>
<asrwt>0</asrwt>
<pdfrwt beam="1">  1        4 0.14159821E-01 0.12501304E+03</pdfrwt>
<pdfrwt beam="2">  1       -4 0.65307963E-02 0.12501304E+03</pdfrwt>
<totfact> 0.10245840E+04</totfact>
</mgrwt>
</event>
<event>
 5    1  0.3236337E-002  0.1250043E+03  0.7818608E-02  0.1235063E+00
          4   -1    0    0  501    0  0.00000000000E+00  0.00000000000E+00  0.23556376387E+03  0.23556718733E+03  0.12700000000E+01 0. -1.
         -4   -1    0    0    0  501 -0.00000000000E+00 -0.00000000000E+00 -0.16555838115E+02  0.16604477580E+02  0.12700000000E+01 0. -1.
         25    2    1    2    0    0  0.00000000000E+00  0.00000000000E+00  0.21900792575E+03  0.25217166491E+03  0.12500430809E+03 0.  0.
    9000005    1    3    3    0    0  0.52015766570E+02  0.33501135571E+02  0.12726920692E+03  0.14151472392E+03  0.10000000000E+01 0.  0.
    9000005    1    3    3    0    0 -0.52015766570E+02 -0.33501135571E+02  0.91738718828E+02  0.11065694099E+03  0.10000000000E+01 0.  0.
<mgrwt>
<rscale>  0 0.12500431E+03</rscale>
<asrwt>0</asrwt>
<pdfrwt beam="1">  1        4 0.36244584E-01 0.12500431E+03</pdfrwt>
<pdfrwt beam="2">  1       -4 0.25510569E-02 0.12500431E+03</pdfrwt>
<totfact> 0.82009494E+03</totfact>
</mgrwt>
</event>
<event>
 5    1  0.3236337E-002  0.1249995E+03  0.7818608E-02  0.1235070E+00
         -4   -1    0    0    0  501 -0.00000000000E+00  0.00000000000E+00  0.10541096191E+02  0.10617325883E+02  0.12700000000E+01 0.  1.
          4   -1    0    0  501    0  0.00000000000E+00 -0.00000000000E+00 -0.36915814965E+03  0.36916033421E+03  0.12700000000E+01 0.  1.
         25    2    1    2    0    0  0.00000000000E+00  0.00000000000E+00 -0.35861705346E+03  0.37977766009E+03  0.12499952029E+03 0.  0.
    9000005    1    3    3    0    0  0.87202462976E+01 -0.45886814196E+02 -0.30544378169E+03  0.30899602940E+03  0.10000000000E+01 0.  0.
    9000005    1    3    3    0    0 -0.87202462976E+01  0.45886814196E+02 -0.53173271771E+02  0.70781630692E+02  0.10000000000E+01 0.  0.
<mgrwt>
<rscale>  0 0.12499952E+03</rscale>
<asrwt>0</asrwt>
<pdfrwt beam="2">  1        4 0.56799583E-01 0.12499952E+03</pdfrwt>
<pdfrwt beam="1">  1       -4 0.16277393E-02 0.12499952E+03</pdfrwt>
<totfact> 0.66568977E+03</totfact>
</mgrwt>
</event>
<event>
 5    1  0.3236337E-002  0.1250135E+03  0.7818608E-02  0.1235048E+00
         -4   -1    0    0    0  501 -0.00000000000E+00  0.00000000000E+00  0.41075430162E+01  0.42993964263E+01  0.12700000000E+01 0.  1.
          4   -1    0    0  501    0  0.00000000000E+00 -0.00000000000E+00 -0.92930078980E+03  0.92930165760E+03  0.12700000000E+01 0.  1.
         25    2    1    2    0    0  0.00000000000E+00  0.00000000000E+00 -0.92519324678E+03  0.93360105402E+03  0.12501353602E+03 0.  0.
    9000005    1    3    3    0    0 -0.22329061850E+02 -0.49319411568E+02 -0.69579735891E+03  0.69790110763E+03  0.10000000000E+01 0.  0.
    9000005    1    3    3    0    0  0.22329061850E+02  0.49319411568E+02 -0.22939588787E+03  0.23569994640E+03  0.10000000000E+01 0.  0.
<mgrwt>
<rscale>  0 0.12501354E+03</rscale>
<asrwt>0</asrwt>
<pdfrwt beam="2">  1        4 0.14298401E+00 0.12501354E+03</pdfrwt>
<pdfrwt beam="1">  1       -4 0.64675514E-03 0.12501354E+03</pdfrwt>
<totfact> 0.32895770E+03</totfact>
</mgrwt>
</event>
<event>
 5    1  0.3236337E-002  0.1249944E+03  0.7818608E-02  0.1235078E+00
         -4   -1    0    0    0  501 -0.00000000000E+00  0.00000000000E+00  0.52337684750E+02  0.52353091074E+02  0.12700000000E+01 0.  1.
          4   -1    0    0  501    0  0.00000000000E+00 -0.00000000000E+00 -0.74596996188E+02  0.74607806162E+02  0.12700000000E+01 0.  1.
         25    2    1    2    0    0  0.00000000000E+00  0.00000000000E+00 -0.22259311438E+02  0.12696089724E+03  0.12499436980E+03 0.  0.
    9000005    1    3    3    0    0  0.45239146147E+02 -0.77298127689E+01  0.31947094811E+02  0.55928053931E+02  0.10000000000E+01 0.  0.
    9000005    1    3    3    0    0 -0.45239146147E+02  0.77298127689E+01 -0.54206406249E+02  0.71032843306E+02  0.10000000000E+01 0.  0.
<mgrwt>
<rscale>  0 0.12499437E+03</rscale>
<asrwt>0</asrwt>
<pdfrwt beam="2">  1        4 0.11478478E-01 0.12499437E+03</pdfrwt>
<pdfrwt beam="1">  1       -4 0.80539682E-02 0.12499437E+03</pdfrwt>
<totfact> 0.10411318E+04</totfact>
</mgrwt>
</event>
<event>
 5    1  0.3236337E-002  0.1250126E+03  0.7818608E-02  0.1235050E+00
         -4   -1    0    0    0  501 -0.00000000000E+00  0.00000000000E+00  0.12420112912E+03  0.12420762205E+03  0.12700000000E+01 0. -1.
          4   -1    0    0  501    0  0.00000000000E+00 -0.00000000000E+00 -0.31437195617E+02  0.31462837893E+02  0.12700000000E+01 0. -1.
         25    2    1    2    0    0  0.00000000000E+00  0.00000000000E+00  0.92763933506E+02  0.15567045994E+03  0.12501257833E+03 0.  0.
    9000005    1    3    3    0    0 -0.20557832398E+02  0.92272842495E+00 -0.27103561026E+02  0.34045248141E+02  0.10000000000E+01 0.  0.
    9000005    1    3    3    0    0  0.20557832398E+02 -0.92272842495E+00  0.11986749453E+03  0.12162521180E+03  0.10000000000E+01 0.  0.
<mgrwt>
<rscale>  0 0.12501258E+03</rscale>
<asrwt>0</asrwt>
<pdfrwt beam="2">  1        4 0.48389635E-02 0.12501258E+03</pdfrwt>
<pdfrwt beam="1">  1       -4 0.19110338E-01 0.12501258E+03</pdfrwt>
<totfact> 0.98156272E+03</totfact>
</mgrwt>
</event>
<event>
 5    1  0.3236337E-002  0.1249984E+03  0.7818608E-02  0.1235072E+00
          4   -1    0    0  501    0  0.00000000000E+00  0.00000000000E+00  0.16788864349E+02  0.16836830644E+02  0.12700000000E+01 0. -1.
         -4   -1    0    0    0  501 -0.00000000000E+00 -0.00000000000E+00 -0.23228173708E+03  0.23228520892E+03  0.12700000000E+01 0. -1.
         25    2    1    2    0    0  0.00000000000E+00  0.00000000000E+00 -0.21549287273E+03  0.24912203956E+03  0.12499844958E+03 0.  0.
    9000005    1    3    3    0    0 -0.29198105761E+02  0.31837962441E+02 -0.19774026226E+03  0.20240651312E+03  0.10000000000E+01 0.  0.
    9000005    1    3    3    0    0  0.29198105761E+02 -0.31837962441E+02 -0.17752610470E+02  0.46715526444E+02  0.10000000000E+01 0.  0.
<mgrwt>
<rscale>  0 0.12499845E+03</rscale>
<asrwt>0</asrwt>
<pdfrwt beam="1">  1        4 0.25868592E-02 0.12499845E+03</pdfrwt>
<pdfrwt beam="2">  1       -4 0.35739606E-01 0.12499845E+03</pdfrwt>
<totfact> 0.82460135E+03</totfact>
</mgrwt>
</event>
<event>
 5    1  0.3236337E-002  0.1250026E+03  0.7818608E-02  0.1235065E+00
         -4   -1    0    0    0  501 -0.00000000000E+00  0.00000000000E+00  0.80489638157E+02  0.80499656835E+02  0.12700000000E+01 0.  1.
          4   -1    0    0  501    0  0.00000000000E+00 -0.00000000000E+00 -0.48511775356E+02  0.48528396308E+02  0.12700000000E+01 0.  1.
         25    2    1    2    0    0  0.00000000000E+00  0.00000000000E+00  0.31977862800E+02  0.12902805314E+03  0.12500261913E+03 0.  0.
    9000005    1    3    3    0    0 -0.43616907414E+02  0.43439078133E+02  0.27107321248E+02  0.67269569544E+02  0.10000000000E+01 0.  0.
    9000005    1    3    3    0    0  0.43616907414E+02 -0.43439078133E+02  0.48705415525E+01  0.61758483599E+02  0.10000000000E+01 0.  0.
<mgrwt>
<rscale>  0 0.12500262E+03</rscale>
<asrwt>0</asrwt>
<pdfrwt beam="2">  1        4 0.74653994E-02 0.12500262E+03</pdfrwt>
<pdfrwt beam="1">  1       -4 0.12385070E-01 0.12500262E+03</pdfrwt>
<totfact> 0.10364731E+04</totfact>
</mgrwt>
</event>
<event>
 5    1  0.3236337E-002  0.1249976E+03  0.7818608E-02  0.1235073E+00
         -4   -1    0    0    0  501 -0.00000000000E+00  0.00000000000E+00  0.71533219063E+03  0.71533331800E+03  0.12700000000E+01 0. -1.
          4   -1    0    0  501    0  0.00000000000E+00 -0.00000000000E+00 -0.53855478138E+01  0.55332653339E+01  0.12700000000E+01 0. -1.
         25    2    1    2    0    0  0.00000000000E+00  0.00000000000E+00  0.70994664281E+03  0.72086658334E+03  0.12499758131E+03 0.  0.
    9000005    1    3    3    0    0  0.29551759038E+02  0.54810681083E+02  0.32468584486E+03  0.33060462047E+03  0.10000000000E+01 0.  0.
    9000005    1    3    3    0    0 -0.29551759038E+02 -0.54810681083E+02  0.38526079795E+03  0.39026196287E+03  0.10000000000E+01 0.  0.
<mgrwt>
<rscale>  0 0.12499758E+03</rscale>
<asrwt>0</asrwt>
<pdfrwt beam="2">  1        4 0.83999607E-03 0.12499758E+03</pdfrwt>
<pdfrwt beam="1">  1       -4 0.11006247E+00 0.12499758E+03</pdfrwt>
<totfact> 0.42010053E+03</totfact>
</mgrwt>
</event>
<event>
 5    1  0.3236337E-002  0.1250141E+03  0.7818608E-02  0.1235047E+00
         -4   -1    0    0    0  501 -0.00000000000E+00  0.00000000000E+00  0.15521100578E+02  0.15572972200E+02  0.12700000000E+01 0.  1.
          4   -1    0    0  501    0  0.00000000000E+00 -0.00000000000E+00 -0.25125692238E+03  0.25126013202E+03  0.12700000000E+01 0.  1.
         25    2    1    2    0    0  0.00000000000E+00  0.00000000000E+00 -0.23573582180E+03  0.26683310422E+03  0.12501411052E+03 0.  0.
    9000005    1    3    3    0    0 -0.53299842134E+02 -0.32373620952E+02 -0.10901392235E+03  0.12559442571E+03  0.10000000000E+01 0.  0.
    9000005    1    3    3    0    0  0.53299842134E+02  0.32373620952E+02 -0.12672189945E+03  0.14123867851E+03  0.10000000000E+01 0.  0.
<mgrwt>
<rscale>  0 0.12501411E+03</rscale>
<asrwt>0</asrwt>
<pdfrwt beam="2">  1        4 0.38659145E-01 0.12501411E+03</pdfrwt>
<pdfrwt beam="1">  1       -4 0.23920988E-02 0.12501411E+03</pdfrwt>
<totfact> 0.79931498E+03</totfact>
</mgrwt>
</event>
<event>
 5    1  0.3236337E-002  0.1250035E+03  0.7818608E-02  0.1235064E+00
         -4   -1    0    0    0  501 -0.00000000000E+00  0.00000000000E+00  0.18305294635E+02  0.18349297308E+02  0.12700000000E+01 0. -1.
          4   -1    0    0  501    0  0.00000000000E+00 -0.00000000000E+00 -0.21310431312E+03  0.21310809738E+03  0.12700000000E+01 0. -1.
         25    2    1    2    0    0  0.00000000000E+00  0.00000000000E+00 -0.19479901848E+03  0.23145739469E+03  0.12500347177E+03 0.  0.
    9000005    1    3    3    0    0 -0.45418676075E+02 -0.62942841191E+01 -0.17602185304E+03  0.18189878201E+03  0.10000000000E+01 0.  0.
    9000005    1    3    3    0    0  0.45418676075E+02  0.62942841191E+01 -0.18777165449E+02  0.49558612685E+02  0.10000000000E+01 0.  0.
<mgrwt>
<rscale>  0 0.12500347E+03</rscale>
<asrwt>0</asrwt>
<pdfrwt beam="2">  1        4 0.32788953E-01 0.12500347E+03</pdfrwt>
<pdfrwt beam="1">  1       -4 0.28198752E-02 0.12500347E+03</pdfrwt>
<totfact> 0.85079725E+03</totfact>
</mgrwt>
</event>
<event>
 5    1  0.3236337E-002  0.1250048E+03  0.7818608E-02  0.1235062E+00
         -4   -1    0    0    0  501 -0.00000000000E+00  0.00000000000E+00  0.61368001988E+01  0.62668346620E+01  0.12700000000E+01 0. -1.
          4   -1    0    0  501    0  0.00000000000E+00 -0.00000000000E+00 -0.62977329036E+03  0.62977457090E+03  0.12700000000E+01 0. -1.
         25    2    1    2    0    0  0.00000000000E+00  0.00000000000E+00 -0.62363649016E+03  0.63604140556E+03  0.12500479082E+03 0.  0.
    9000005    1    3    3    0    0 -0.57012279260E+02  0.18810187437E+02 -0.40014194347E+03  0.40462179633E+03  0.10000000000E+01 0.  0.
    9000005    1    3    3    0    0  0.57012279260E+02 -0.18810187437E+02 -0.22349454668E+03  0.23141960923E+03  0.10000000000E+01 0.  0.
<mgrwt>
<rscale>  0 0.12500479E+03</rscale>
<asrwt>0</asrwt>
<pdfrwt beam="2">  1        4 0.96898249E-01 0.12500479E+03</pdfrwt>
<pdfrwt beam="1">  1       -4 0.95422476E-03 0.12500479E+03</pdfrwt>
<totfact> 0.46663956E+03</totfact>
</mgrwt>
</event>
<event>
 5    1  0.3236337E-002  0.1250008E+03  0.7818608E-02  0.1235068E+00
          4   -1    0    0  501    0  0.00000000000E+00  0.00000000000E+00  0.96334165016E+01  0.97167697047E+01  0.12700000000E+01 0.  1.
         -4   -1    0    0    0  501 -0.00000000000E+00 -0.00000000000E+00 -0.40366386559E+03  0.40366586341E+03  0.12700000000E+01 0.  1.
         25    2    1    2    0    0  0.00000000000E+00  0.00000000000E+00 -0.39403044908E+03  0.41338263311E+03  0.12500082621E+03 0.  0.
    9000005    1    3    3    0    0  0.42185940891E+02  0.44840883532E+02 -0.16155994017E+03  0.17289584354E+03  0.10000000000E+01 0.  0.
    9000005    1    3    3    0    0 -0.42185940891E+02 -0.44840883532E+02 -0.23247050891E+03  0.24048678957E+03  0.10000000000E+01 0.  0.
<mgrwt>
<rscale>  0 0.12500083E+03</rscale>
<asrwt>0</asrwt>
<pdfrwt beam="1">  1        4 0.14886299E-02 0.12500083E+03</pdfrwt>
<pdfrwt beam="2">  1       -4 0.62108685E-01 0.12500083E+03</pdfrwt>
<totfact> 0.63270547E+03</totfact>
</mgrwt>
</event>
<event>
 5    1  0.3236337E-002  0.1249967E+03  0.7818608E-02  0.1235074E+00
          4   -1    0    0  501    0  0.00000000000E+00  0.00000000000E+00  0.15779020220E+03  0.15779531301E+03  0.12700000000E+01 0. -1.
         -4   -1    0    0    0  501 -0.00000000000E+00 -0.00000000000E+00 -0.24732857036E+02  0.24765441994E+02  0.12700000000E+01 0. -1.
         25    2    1    2    0    0  0.00000000000E+00  0.00000000000E+00  0.13305734516E+03  0.18256075501E+03  0.12499668863E+03 0.  0.
    9000005    1    3    3    0    0  0.14343553835E+02  0.33838435722E+02  0.14034321930E+03  0.14507927651E+03  0.10000000000E+01 0.  0.
    9000005    1    3    3    0    0 -0.14343553835E+02 -0.33838435722E+02 -0.72858741376E+01  0.37481478502E+02  0.10000000000E+01 0.  0.
<mgrwt>
<rscale>  0 0.12499669E+03</rscale>
<asrwt>0</asrwt>
<pdfrwt beam="1">  1        4 0.24278316E-01 0.12499669E+03</pdfrwt>
<pdfrwt beam="2">  1       -4 0.38079545E-02 0.12499669E+03</pdfrwt>
<totfact> 0.93164994E+03</totfact>
</mgrwt>
</event>
<event>
 5    1  0.3236337E-002  0.1249987E+03  0.7818608E-02  0.1235071E+00
          4   -1    0    0  501    0  0.00000000000E+00  0.00000000000E+00  0.24014959604E+03  0.24015295413E+03  0.12700000000E+01 0.  1.
         -4   -1    0    0    0  501 -0.00000000000E+00 -0.00000000000E+00 -0.16237296413E+02  0.16286887204E+02  0.12700000000E+01 0.  1.
         25    2    1    2    0    0  0.00000000000E+00  0.00000000000E+00  0.22391229962E+03  0.25643984133E+03  0.12499869719E+03 0.  0.
    9000005    1    3    3    0    0 -0.27433509270E+02  0.56091725395E+02  0.10681112348E+03  0.12372750376E+03  0.10000000000E+01 0.  0.
    9000005    1    3    3    0    0  0.27433509270E+02 -0.56091725395E+02  0.11710117615E+03  0.13271233757E+03  0.10000000000E+01 0.  0.
<mgrwt>
<rscale>  0 0.12499870E+03</rscale>
<asrwt>0</asrwt>
<pdfrwt beam="1">  1        4 0.36950165E-01 0.12499870E+03</pdfrwt>
<pdfrwt beam="2">  1       -4 0.25021186E-02 0.12499870E+03</pdfrwt>
<totfact> 0.81410649E+03</totfact>
</mgrwt>
</event>
<event>
 4    1  0.3236337E-002  0.1250825E+03  0.7818608E-02  0.1234940E+00
          4   -1    0    0  501    0  0.00000000000E+00  0.00000000000E+00  0.98751851947E+02  0.98760018039E+02  0.12700000000E+01 0.  1.
         -4   -1    0    0    0  501 -0.00000000000E+00 -0.00000000000E+00 -0.39588437765E+02  0.39608803374E+02  0.12700000000E+01 0.  1.
    9000005    1    1    2    0    0  0.31067790020E+02  0.27921275032E+02 -0.21897395742E+02  0.47173097380E+02  0.10000000000E+01 0.  0.
    9000005    1    1    2    0    0 -0.31067790020E+02 -0.27921275032E+02  0.81060809925E+02  0.91195724032E+02  0.10000000000E+01 0.  0.
<mgrwt>
<rscale>  0 0.12508246E+03</rscale>
<asrwt>0</asrwt>
<pdfrwt beam="1">  1        4 0.15194787E-01 0.12508246E+03</pdfrwt>
<pdfrwt beam="2">  1       -4 0.60927237E-02 0.12508246E+03</pdfrwt>
<totfact> 0.10148637E+04</totfact>
</mgrwt>
</event>
<event>
 5    1  0.3236337E-002  0.1249986E+03  0.7818608E-02  0.1235072E+00
         -4   -1    0    0    0  501 -0.00000000000E+00  0.00000000000E+00  0.82372641008E+02  0.82382430692E+02  0.12700000000E+01 0. -1.
          4   -1    0    0  501    0  0.00000000000E+00 -0.00000000000E+00 -0.47399479063E+02  0.47416489911E+02  0.12700000000E+01 0. -1.
         25    2    1    2    0    0  0.00000000000E+00  0.00000000000E+00  0.34973161945E+02  0.12979892060E+03  0.12499855092E+03 0.  0.
    9000005    1    3    3    0    0  0.15254738563E+02  0.38226765432E+02  0.66315471213E+02  0.78055969447E+02  0.10000000000E+01 0.  0.
    9000005    1    3    3    0    0 -0.15254738563E+02 -0.38226765432E+02 -0.31342309268E+02  0.51742951156E+02  0.10000000000E+01 0.  0.
<mgrwt>
<rscale>  0 0.12499855E+03</rscale>
<asrwt>0</asrwt>
<pdfrwt beam="2">  1        4 0.72942892E-02 0.12499855E+03</pdfrwt>
<pdfrwt beam="1">  1       -4 0.12674775E-01 0.12499855E+03</pdfrwt>
<totfact> 0.10349149E+04</totfact>
</mgrwt>
</event>
<event>
 5    1  0.3236337E-002  0.1249955E+03  0.7818608E-02  0.1235076E+00
         -4   -1    0    0    0  501 -0.00000000000E+00  0.00000000000E+00  0.15546884396E+03  0.15547403108E+03  0.12700000000E+01 0.  1.
          4   -1    0    0  501    0  0.00000000000E+00 -0.00000000000E+00 -0.25102158128E+02  0.25134264315E+02  0.12700000000E+01 0.  1.
         25    2    1    2    0    0  0.00000000000E+00  0.00000000000E+00  0.13036668583E+03  0.18060829540E+03  0.12499553429E+03 0.  0.
    9000005    1    3    3    0    0 -0.17473260341E+02 -0.44996631526E+02  0.12252600534E+03  0.13169523021E+03  0.10000000000E+01 0.  0.
    9000005    1    3    3    0    0  0.17473260341E+02  0.44996631526E+02  0.78406804898E+01  0.48913065189E+02  0.10000000000E+01 0.  0.
<mgrwt>
<rscale>  0 0.12499553E+03</rscale>
<asrwt>0</asrwt>
<pdfrwt beam="2">  1        4 0.38647392E-02 0.12499553E+03</pdfrwt>
<pdfrwt beam="1">  1       -4 0.23921152E-01 0.12499553E+03</pdfrwt>
<totfact> 0.93516985E+03</totfact>
</mgrwt>
</event>
<event>
 5    1  0.3236337E-002  0.1250045E+03  0.7818608E-02  0.1235062E+00
          4   -1    0    0  501    0  0.00000000000E+00  0.00000000000E+00  0.63798675804E+01  0.65050449917E+01  0.12700000000E+01 0.  1.
         -4   -1    0    0    0  501 -0.00000000000E+00 -0.00000000000E+00 -0.60624699298E+03  0.60624832321E+03  0.12700000000E+01 0.  1.
         25    2    1    2    0    0  0.00000000000E+00  0.00000000000E+00 -0.59986712540E+03  0.61275336821E+03  0.12500448836E+03 0.  0.
    9000005    1    3    3    0    0  0.39386548763E+02 -0.38993787795E+02 -0.15839692958E+03  0.16781657549E+03  0.10000000000E+01 0.  0.
    9000005    1    3    3    0    0 -0.39386548763E+02  0.38993787795E+02 -0.44147019582E+03  0.44493679271E+03  0.10000000000E+01 0.  0.
<mgrwt>
<rscale>  0 0.12500449E+03</rscale>
<asrwt>0</asrwt>
<pdfrwt beam="1">  1        4 0.99124993E-03 0.12500449E+03</pdfrwt>
<pdfrwt beam="2">  1       -4 0.93278454E-01 0.12500449E+03</pdfrwt>
<totfact> 0.48067639E+03</totfact>
</mgrwt>
</event>
<event>
 5    1  0.3236337E-002  0.1250017E+03  0.7818608E-02  0.1235067E+00
         -4   -1    0    0    0  501 -0.00000000000E+00  0.00000000000E+00  0.26994632995E+02  0.27024490940E+02  0.12700000000E+01 0.  1.
          4   -1    0    0  501    0  0.00000000000E+00 -0.00000000000E+00 -0.14459609036E+03  0.14460166751E+03  0.12700000000E+01 0.  1.
         25    2    1    2    0    0  0.00000000000E+00  0.00000000000E+00 -0.11760145736E+03  0.17162615845E+03  0.12500174195E+03 0.  0.
    9000005    1    3    3    0    0  0.52667400534E+02 -0.32357444301E+02 -0.46179700911E+02  0.77164914676E+02  0.10000000000E+01 0.  0.
    9000005    1    3    3    0    0 -0.52667400534E+02  0.32357444301E+02 -0.71421756449E+02  0.94461243772E+02  0.10000000000E+01 0.  0.
<mgrwt>
<rscale>  0 0.12500174E+03</rscale>
<asrwt>0</asrwt>
<pdfrwt beam="2">  1        4 0.22248278E-01 0.12500174E+03</pdfrwt>
<pdfrwt beam="1">  1       -4 0.41557463E-02 0.12500174E+03</pdfrwt>
<totfact> 0.95142690E+03</totfact>
</mgrwt>
</event>
<event>
 5    1  0.3236337E-002  0.1249995E+03  0.7818608E-02  0.1235070E+00
          4   -1    0    0  501    0  0.00000000000E+00  0.00000000000E+00  0.22531454474E+02  0.22567218276E+02  0.12700000000E+01 0.  1.
         -4   -1    0    0    0  501 -0.00000000000E+00 -0.00000000000E+00 -0.17319167529E+03  0.17319633163E+03  0.12700000000E+01 0.  1.
         25    2    1    2    0    0  0.00000000000E+00  0.00000000000E+00 -0.15066022082E+03  0.19576354991E+03  0.12499946134E+03 0.  0.
    9000005    1    3    3    0    0 -0.56140592986E+02  0.26231528967E+02 -0.87991165010E+02  0.10762576091E+03  0.10000000000E+01 0.  0.
    9000005    1    3    3    0    0  0.56140592986E+02 -0.26231528967E+02 -0.62669055811E+02  0.88137788995E+02  0.10000000000E+01 0.  0.
<mgrwt>
<rscale>  0 0.12499946E+03</rscale>
<asrwt>0</asrwt>
<pdfrwt beam="1">  1        4 0.34694870E-02 0.12499946E+03</pdfrwt>
<pdfrwt beam="2">  1       -4 0.26647981E-01 0.12499946E+03</pdfrwt>
<totfact> 0.90855130E+03</totfact>
</mgrwt>
</event>
<event>
 5    1  0.3236337E-002  0.1250416E+03  0.7818608E-02  0.1235004E+00
          4   -1    0    0  501    0  0.00000000000E+00  0.00000000000E+00  0.79025615877E+02  0.79035820137E+02  0.12700000000E+01 0. -1.
         -4   -1    0    0    0  501 -0.00000000000E+00 -0.00000000000E+00 -0.49441556603E+02  0.49457865091E+02  0.12700000000E+01 0. -1.
         25    2    1    2    0    0  0.00000000000E+00  0.00000000000E+00  0.29584059274E+02  0.12849368523E+03  0.12504163539E+03 0.  0.
    9000005    1    3    3    0    0  0.20919825263E+02 -0.73239377316E+01 -0.45273114476E+02  0.50417596604E+02  0.10000000000E+01 0.  0.
    9000005    1    3    3    0    0 -0.20919825263E+02  0.73239377316E+01  0.74857173750E+02  0.78076088624E+02  0.10000000000E+01 0.  0.
<mgrwt>
<rscale>  0 0.12504164E+03</rscale>
<asrwt>0</asrwt>
<pdfrwt beam="1">  1        4 0.12159826E-01 0.12504164E+03</pdfrwt>
<pdfrwt beam="2">  1       -4 0.76084328E-02 0.12504164E+03</pdfrwt>
<totfact> 0.10367093E+04</totfact>
</mgrwt>
</event>
<event>
 5    1  0.3236337E-002  0.1250012E+03  0.7818608E-02  0.1235067E+00
         -4   -1    0    0    0  501 -0.00000000000E+00  0.00000000000E+00  0.14863927299E+03  0.14864469844E+03  0.12700000000E+01 0. -1.
          4   -1    0    0  501    0  0.00000000000E+00 -0.00000000000E+00 -0.26259325369E+02  0.26290018426E+02  0.12700000000E+01 0. -1.
         25    2    1    2    0    0  0.00000000000E+00  0.00000000000E+00  0.12237994762E+03  0.17493471687E+03  0.12500121434E+03 0.  0.
    9000005    1    3    3    0    0 -0.22616113936E+02  0.53432989895E+02  0.28706940616E+02  0.64743041775E+02  0.10000000000E+01 0.  0.
    9000005    1    3    3    0    0  0.22616113936E+02 -0.53432989895E+02  0.93673007003E+02  0.11019167509E+03  0.10000000000E+01 0.  0.
<mgrwt>
<rscale>  0 0.12500121E+03</rscale>
<asrwt>0</asrwt>
<pdfrwt beam="2">  1        4 0.40426746E-02 0.12500121E+03</pdfrwt>
<pdfrwt beam="1">  1       -4 0.22870359E-01 0.12500121E+03</pdfrwt>
<totfact> 0.94534223E+03</totfact>
</mgrwt>
</event>
<event>
 5    1  0.3236337E-002  0.1249988E+03  0.7818608E-02  0.1235071E+00
          4   -1    0    0  501    0  0.00000000000E+00  0.00000000000E+00  0.44647123905E+03  0.44647304532E+03  0.12700000000E+01 0.  1.
         -4   -1    0    0    0  501 -0.00000000000E+00 -0.00000000000E+00 -0.87010678677E+01  0.87932634465E+01  0.12700000000E+01 0.  1.
         25    2    1    2    0    0  0.00000000000E+00  0.00000000000E+00  0.43777017118E+03  0.45526630877E+03  0.12499875648E+03 0.  0.
    9000005    1    3    3    0    0 -0.57297421878E+02 -0.16898591779E+02  0.28570820729E+03  0.29188822634E+03  0.10000000000E+01 0.  0.
    9000005    1    3    3    0    0  0.57297421878E+02  0.16898591779E+02  0.15206196389E+03  0.16337808243E+03  0.10000000000E+01 0.  0.
<mgrwt>
<rscale>  0 0.12499876E+03</rscale>
<asrwt>0</asrwt>
<pdfrwt beam="1">  1        4 0.68695112E-01 0.12499876E+03</pdfrwt>
<pdfrwt beam="2">  1       -4 0.13458568E-02 0.12499876E+03</pdfrwt>
<totfact> 0.59511904E+03</totfact>
</mgrwt>
</event>
<event>
 5    1  0.3236337E-002  0.1249566E+03  0.7818608E-02  0.1235137E+00
         -4   -1    0    0    0  501 -0.00000000000E+00  0.00000000000E+00  0.15553870587E+03  0.15554389067E+03  0.12700000000E+01 0. -1.
          4   -1    0    0  501    0  0.00000000000E+00 -0.00000000000E+00 -0.25075204898E+02  0.25107345552E+02  0.12700000000E+01 0. -1.
         25    2    1    2    0    0  0.00000000000E+00  0.00000000000E+00  0.13046350098E+03  0.18065123622E+03  0.12495656870E+03 0.  0.
    9000005    1    3    3    0    0  0.55222452049E+02 -0.35363586058E+01  0.10714521308E+03  0.12059486610E+03  0.10000000000E+01 0.  0.
    9000005    1    3    3    0    0 -0.55222452049E+02  0.35363586058E+01  0.23318287895E+02  0.60056370127E+02  0.10000000000E+01 0.  0.
<mgrwt>
<rscale>  0 0.12495657E+03</rscale>
<asrwt>0</asrwt>
<pdfrwt beam="2">  1        4 0.38605950E-02 0.12495657E+03</pdfrwt>
<pdfrwt beam="1">  1       -4 0.23931903E-01 0.12495657E+03</pdfrwt>
<totfact> 0.93591013E+03</totfact>
</mgrwt>
</event>
<event>
 5    1  0.3236337E-002  0.1249923E+03  0.7818608E-02  0.1235081E+00
         -4   -1    0    0    0  501 -0.00000000000E+00  0.00000000000E+00  0.19262658165E+01  0.23072494438E+01  0.12700000000E+01 0.  1.
          4   -1    0    0  501    0  0.00000000000E+00 -0.00000000000E+00 -0.18447849327E+04  0.18447853698E+04  0.12700000000E+01 0.  1.
         25    2    1    2    0    0  0.00000000000E+00  0.00000000000E+00 -0.18428586668E+04  0.18470926193E+04  0.12499231235E+03 0.  0.
    9000005    1    3    3    0    0 -0.55568755038E+02  0.19375006705E+02 -0.61092558579E+03  0.61375430654E+03  0.10000000000E+01 0.  0.
    9000005    1    3    3    0    0  0.55568755038E+02 -0.19375006705E+02 -0.12319330811E+04  0.12333383127E+04  0.10000000000E+01 0.  0.
<mgrwt>
<rscale>  0 0.12499231E+03</rscale>
<asrwt>0</asrwt>
<pdfrwt beam="2">  1        4 0.28384112E+00 0.12499231E+03</pdfrwt>
<pdfrwt beam="1">  1       -4 0.32569012E-03 0.12499231E+03</pdfrwt>
<totfact> 0.11993947E+03</totfact>
</mgrwt>
</event>
<event>
 5    1  0.3236337E-002  0.1249988E+03  0.7818608E-02  0.1235071E+00
          4   -1    0    0  501    0  0.00000000000E+00  0.00000000000E+00  0.36190288612E+03  0.36190511447E+03  0.12700000000E+01 0.  1.
         -4   -1    0    0    0  501 -0.00000000000E+00 -0.00000000000E+00 -0.10753798758E+02  0.10828531190E+02  0.12700000000E+01 0.  1.
         25    2    1    2    0    0  0.00000000000E+00  0.00000000000E+00  0.35114908736E+03  0.37273364566E+03  0.12499875621E+03 0.  0.
    9000005    1    3    3    0    0  0.49022249323E+02  0.23714284606E+02  0.26697954629E+03  0.27247867138E+03  0.10000000000E+01 0.  0.
    9000005    1    3    3    0    0 -0.49022249323E+02 -0.23714284606E+02  0.84169541074E+02  0.10025497428E+03  0.10000000000E+01 0.  0.
<mgrwt>
<rscale>  0 0.12499876E+03</rscale>
<asrwt>0</asrwt>
<pdfrwt beam="1">  1        4 0.55683284E-01 0.12499876E+03</pdfrwt>
<pdfrwt beam="2">  1       -4 0.16603507E-02 0.12499876E+03</pdfrwt>
<totfact> 0.67295764E+03</totfact>
</mgrwt>
</event>
<event>
 5    1  0.3236337E-002  0.1250011E+03  0.7818608E-02  0.1235068E+00
          4   -1    0    0  501    0  0.00000000000E+00  0.00000000000E+00  0.83906854599E+02  0.83916465302E+02  0.12700000000E+01 0. -1.
         -4   -1    0    0    0  501 -0.00000000000E+00 -0.00000000000E+00 -0.46534483738E+02  0.46551810671E+02  0.12700000000E+01 0. -1.
         25    2    1    2    0    0  0.00000000000E+00  0.00000000000E+00  0.37372370861E+02  0.13046827597E+03  0.12500110772E+03 0.  0.
    9000005    1    3    3    0    0 -0.15760643214E+02 -0.76933622777E+01 -0.43918315696E+02  0.47301206657E+02  0.10000000000E+01 0.  0.
    9000005    1    3    3    0    0  0.15760643214E+02  0.76933622777E+01  0.81290686557E+02  0.83167069316E+02  0.10000000000E+01 0.  0.
<mgrwt>
<rscale>  0 0.12500111E+03</rscale>
<asrwt>0</asrwt>
<pdfrwt beam="1">  1        4 0.12910819E-01 0.12500111E+03</pdfrwt>
<pdfrwt beam="2">  1       -4 0.71612234E-02 0.12500111E+03</pdfrwt>
<totfact> 0.10334242E+04</totfact>
</mgrwt>
</event>
<event>
 5    1  0.3236337E-002  0.1250012E+03  0.7818608E-02  0.1235067E+00
         -4   -1    0    0    0  501 -0.00000000000E+00  0.00000000000E+00  0.29122599239E+02  0.29150277639E+02  0.12700000000E+01 0.  1.
          4   -1    0    0  501    0  0.00000000000E+00 -0.00000000000E+00 -0.13403941514E+03  0.13404543152E+03  0.12700000000E+01 0.  1.
         25    2    1    2    0    0  0.00000000000E+00  0.00000000000E+00 -0.10491681591E+03  0.16319570916E+03  0.12500120491E+03 0.  0.
    9000005    1    3    3    0    0 -0.18299589663E+02 -0.40465965473E+02  0.49407493781E+01  0.44696536196E+02  0.10000000000E+01 0.  0.
    9000005    1    3    3    0    0  0.18299589663E+02  0.40465965473E+02 -0.10985756528E+03  0.11849917297E+03  0.10000000000E+01 0.  0.
<mgrwt>
<rscale>  0 0.12500120E+03</rscale>
<asrwt>0</asrwt>
<pdfrwt beam="2">  1        4 0.20624040E-01 0.12500120E+03</pdfrwt>
<pdfrwt beam="1">  1       -4 0.44829918E-02 0.12500120E+03</pdfrwt>
<totfact> 0.96727573E+03</totfact>
</mgrwt>
</event>
<event>
 5    1  0.3236337E-002  0.1249995E+03  0.7818608E-02  0.1235070E+00
         -4   -1    0    0    0  501 -0.00000000000E+00  0.00000000000E+00  0.19642776307E+02  0.19683789296E+02  0.12700000000E+01 0.  1.
          4   -1    0    0  501    0  0.00000000000E+00 -0.00000000000E+00 -0.19861236809E+03  0.19861642847E+03  0.12700000000E+01 0.  1.
         25    2    1    2    0    0  0.00000000000E+00  0.00000000000E+00 -0.17896959178E+03  0.21830021776E+03  0.12499948117E+03 0.  0.
    9000005    1    3    3    0    0  0.50518398114E+01  0.57289454009E+02 -0.13217779695E+03  0.14415121447E+03  0.10000000000E+01 0.  0.
    9000005    1    3    3    0    0 -0.50518398114E+01 -0.57289454009E+02 -0.46791794831E+02  0.74149003296E+02  0.10000000000E+01 0.  0.
<mgrwt>
<rscale>  0 0.12499948E+03</rscale>
<asrwt>0</asrwt>
<pdfrwt beam="2">  1        4 0.30559215E-01 0.12499948E+03</pdfrwt>
<pdfrwt beam="1">  1       -4 0.30254329E-02 0.12499948E+03</pdfrwt>
<totfact> 0.87139045E+03</totfact>
</mgrwt>
</event>
<event>
 5    1  0.3236337E-002  0.1250011E+03  0.7818608E-02  0.1235067E+00
          4   -1    0    0  501    0  0.00000000000E+00  0.00000000000E+00  0.72924144996E+02  0.72935202909E+02  0.12700000000E+01 0.  1.
         -4   -1    0    0    0  501 -0.00000000000E+00 -0.00000000000E+00 -0.53544262958E+02  0.53559322211E+02  0.12700000000E+01 0.  1.
         25    2    1    2    0    0  0.00000000000E+00  0.00000000000E+00  0.19379882038E+02  0.12649452512E+03  0.12500114023E+03 0.  0.
    9000005    1    3    3    0    0  0.34034777706E+02  0.47495351324E+02  0.32116539215E+02  0.66683180654E+02  0.10000000000E+01 0.  0.
    9000005    1    3    3    0    0 -0.34034777706E+02 -0.47495351324E+02 -0.12736657177E+02  0.59811344467E+02  0.10000000000E+01 0.  0.
<mgrwt>
<rscale>  0 0.12500114E+03</rscale>
<asrwt>0</asrwt>
<pdfrwt beam="1">  1        4 0.11221108E-01 0.12500114E+03</pdfrwt>
<pdfrwt beam="2">  1       -4 0.82395879E-02 0.12500114E+03</pdfrwt>
<totfact> 0.10419879E+04</totfact>
</mgrwt>
</event>
<event>
 5    1  0.3236337E-002  0.1250011E+03  0.7818608E-02  0.1235068E+00
          4   -1    0    0  501    0  0.00000000000E+00  0.00000000000E+00  0.47454734339E+01  0.49124757619E+01  0.12700000000E+01 0. -1.
         -4   -1    0    0    0  501 -0.00000000000E+00 -0.00000000000E+00 -0.80876548095E+03  0.80876647808E+03  0.12700000000E+01 0. -1.
         25    2    1    2    0    0  0.00000000000E+00  0.00000000000E+00 -0.80402000751E+03  0.81367895384E+03  0.12500106979E+03 0.  0.
    9000005    1    3    3    0    0  0.19016117807E+02  0.85516595347E+01 -0.18532439385E+02  0.27914063244E+02  0.10000000000E+01 0.  0.
    9000005    1    3    3    0    0 -0.19016117807E+02 -0.85516595347E+01 -0.78548756813E+03  0.78576489060E+03  0.10000000000E+01 0.  0.
<mgrwt>
<rscale>  0 0.12500107E+03</rscale>
<asrwt>0</asrwt>
<pdfrwt beam="1">  1        4 0.74299651E-03 0.12500107E+03</pdfrwt>
<pdfrwt beam="2">  1       -4 0.12443827E+00 0.12500107E+03</pdfrwt>
<totfact> 0.37660460E+03</totfact>
</mgrwt>
</event>
<event>
 5    1  0.3236337E-002  0.1249996E+03  0.7818608E-02  0.1235070E+00
          4   -1    0    0  501    0  0.00000000000E+00  0.00000000000E+00  0.66876435302E+02  0.66888493022E+02  0.12700000000E+01 0. -1.
         -4   -1    0    0    0  501 -0.00000000000E+00 -0.00000000000E+00 -0.58385347398E+02  0.58399158306E+02  0.12700000000E+01 0. -1.
         25    2    1    2    0    0  0.00000000000E+00  0.00000000000E+00  0.84910879043E+01  0.12528765133E+03  0.12499958800E+03 0.  0.
    9000005    1    3    3    0    0  0.36133103878E+02  0.19768432338E+02  0.51352066197E+02  0.65836363931E+02  0.10000000000E+01 0.  0.
    9000005    1    3    3    0    0 -0.36133103878E+02 -0.19768432338E+02 -0.42860978293E+02  0.59451287397E+02  0.10000000000E+01 0.  0.
<mgrwt>
<rscale>  0 0.12499959E+03</rscale>
<asrwt>0</asrwt>
<pdfrwt beam="1">  1        4 0.10290672E-01 0.12499959E+03</pdfrwt>
<pdfrwt beam="2">  1       -4 0.89843511E-02 0.12499959E+03</pdfrwt>
<totfact> 0.10446715E+04</totfact>
</mgrwt>
</event>
<event>
 5    1  0.3236337E-002  0.1250297E+03  0.7818608E-02  0.1235023E+00
          4   -1    0    0  501    0  0.00000000000E+00  0.00000000000E+00  0.41733165881E+02  0.41752485369E+02  0.12700000000E+01 0.  1.
         -4   -1    0    0    0  501 -0.00000000000E+00 -0.00000000000E+00 -0.93599860479E+02  0.93608476014E+02  0.12700000000E+01 0.  1.
         25    2    1    2    0    0  0.00000000000E+00  0.00000000000E+00 -0.51866694598E+02  0.13536096138E+03  0.12502973989E+03 0.  0.
    9000005    1    3    3    0    0  0.49932115786E+02 -0.18846354027E+01 -0.66590986448E+02  0.83259398950E+02  0.10000000000E+01 0.  0.
    9000005    1    3    3    0    0 -0.49932115786E+02  0.18846354027E+01  0.14724291850E+02  0.52101562433E+02  0.10000000000E+01 0.  0.
<mgrwt>
<rscale>  0 0.12502974E+03</rscale>
<asrwt>0</asrwt>
<pdfrwt beam="1">  1        4 0.64226359E-02 0.12502974E+03</pdfrwt>
<pdfrwt beam="2">  1       -4 0.14402127E-01 0.12502974E+03</pdfrwt>
<totfact> 0.10223610E+04</totfact>
</mgrwt>
</event>
<event>
 5    1  0.3236337E-002  0.1249999E+03  0.7818608E-02  0.1235069E+00
         -4   -1    0    0    0  501 -0.00000000000E+00  0.00000000000E+00  0.36395682462E+03  0.36395904040E+03  0.12700000000E+01 0.  1.
          4   -1    0    0  501    0  0.00000000000E+00 -0.00000000000E+00 -0.10692894186E+02  0.10768049316E+02  0.12700000000E+01 0.  1.
         25    2    1    2    0    0  0.00000000000E+00  0.00000000000E+00  0.35326393043E+03  0.37472708971E+03  0.12499994888E+03 0.  0.
    9000005    1    3    3    0    0  0.33827480179E+02  0.51861178208E+02  0.15130677527E+03  0.16348890012E+03  0.10000000000E+01 0.  0.
    9000005    1    3    3    0    0 -0.33827480179E+02 -0.51861178208E+02  0.20195715516E+03  0.21123818959E+03  0.10000000000E+01 0.  0.
<mgrwt>
<rscale>  0 0.12499995E+03</rscale>
<asrwt>0</asrwt>
<pdfrwt beam="2">  1        4 0.16510121E-02 0.12499995E+03</pdfrwt>
<pdfrwt beam="1">  1       -4 0.55999315E-01 0.12499995E+03</pdfrwt>
<totfact> 0.67087348E+03</totfact>
</mgrwt>
</event>
<event>
 5    1  0.3236337E-002  0.1249976E+03  0.7818608E-02  0.1235073E+00
         -4   -1    0    0    0  501 -0.00000000000E+00  0.00000000000E+00  0.15230809317E+03  0.15231338794E+03  0.12700000000E+01 0.  1.
          4   -1    0    0  501    0  0.00000000000E+00 -0.00000000000E+00 -0.25624587655E+02  0.25656040078E+02  0.12700000000E+01 0.  1.
         25    2    1    2    0    0  0.00000000000E+00  0.00000000000E+00  0.12668350552E+03  0.17796942802E+03  0.12499762693E+03 0.  0.
    9000005    1    3    3    0    0 -0.12970422321E+01 -0.10613174146E+02  0.15100305566E+03  0.15138442655E+03  0.10000000000E+01 0.  0.
    9000005    1    3    3    0    0  0.12970422321E+01  0.10613174146E+02 -0.24319550140E+02  0.26585001467E+02  0.10000000000E+01 0.  0.
<mgrwt>
<rscale>  0 0.12499763E+03</rscale>
<asrwt>0</asrwt>
<pdfrwt beam="2">  1        4 0.39450710E-02 0.12499763E+03</pdfrwt>
<pdfrwt beam="1">  1       -4 0.23434841E-01 0.12499763E+03</pdfrwt>
<totfact> 0.93988797E+03</totfact>
</mgrwt>
</event>
<event>
 5    1  0.3236337E-002  0.1250052E+03  0.7818608E-02  0.1235061E+00
          4   -1    0    0  501    0  0.00000000000E+00  0.00000000000E+00  0.59325384295E+02  0.59338976414E+02  0.12700000000E+01 0. -1.
         -4   -1    0    0    0  501 -0.00000000000E+00 -0.00000000000E+00 -0.65822764771E+02  0.65835015471E+02  0.12700000000E+01 0. -1.
         25    2    1    2    0    0  0.00000000000E+00  0.00000000000E+00 -0.64973804757E+01  0.12517399188E+03  0.12500524906E+03 0.  0.
    9000005    1    3    3    0    0  0.42194355800E+02  0.43290070443E+02 -0.19118876447E+02  0.63410766412E+02  0.10000000000E+01 0.  0.
    9000005    1    3    3    0    0 -0.42194355800E+02 -0.43290070443E+02  0.12621495971E+02  0.61763225473E+02  0.10000000000E+01 0.  0.
<mgrwt>
<rscale>  0 0.12500525E+03</rscale>
<asrwt>0</asrwt>
<pdfrwt beam="1">  1        4 0.91289701E-02 0.12500525E+03</pdfrwt>
<pdfrwt beam="2">  1       -4 0.10128567E-01 0.12500525E+03</pdfrwt>
<totfact> 0.10447845E+04</totfact>
</mgrwt>
</event>
<event>
 5    1  0.3236337E-002  0.1249969E+03  0.7818608E-02  0.1235074E+00
          4   -1    0    0  501    0  0.00000000000E+00  0.00000000000E+00  0.70951299607E+02  0.70962664944E+02  0.12700000000E+01 0. -1.
         -4   -1    0    0    0  501 -0.00000000000E+00 -0.00000000000E+00 -0.55029566589E+02  0.55044219488E+02  0.12700000000E+01 0. -1.
         25    2    1    2    0    0  0.00000000000E+00  0.00000000000E+00  0.15921733018E+02  0.12600688443E+03  0.12499693333E+03 0.  0.
    9000005    1    3    3    0    0  0.19226026232E+02 -0.44704959276E+02  0.47480743357E+02  0.67997018011E+02  0.10000000000E+01 0.  0.
    9000005    1    3    3    0    0 -0.19226026232E+02  0.44704959276E+02 -0.31559010339E+02  0.58009866421E+02  0.10000000000E+01 0.  0.
<mgrwt>
<rscale>  0 0.12499693E+03</rscale>
<asrwt>0</asrwt>
<pdfrwt beam="1">  1        4 0.10917586E-01 0.12499693E+03</pdfrwt>
<pdfrwt beam="2">  1       -4 0.84680886E-02 0.12499693E+03</pdfrwt>
<totfact> 0.10431528E+04</totfact>
</mgrwt>
</event>
<event>
 5    1  0.3236337E-002  0.1250000E+03  0.7818608E-02  0.1235069E+00
         -4   -1    0    0    0  501 -0.00000000000E+00  0.00000000000E+00  0.27651369497E+02  0.27680519053E+02  0.12700000000E+01 0.  1.
          4   -1    0    0  501    0  0.00000000000E+00 -0.00000000000E+00 -0.14116137720E+03  0.14116709005E+03  0.12700000000E+01 0.  1.
         25    2    1    2    0    0  0.00000000000E+00  0.00000000000E+00 -0.11351000771E+03  0.16884760911E+03  0.12499997301E+03 0.  0.
    9000005    1    3    3    0    0  0.47583927987E+00  0.18639201222E+02 -0.13732320748E+03  0.13858683039E+03  0.10000000000E+01 0.  0.
    9000005    1    3    3    0    0 -0.47583927987E+00 -0.18639201222E+02  0.23813199772E+02  0.30260778717E+02  0.10000000000E+01 0.  0.
<mgrwt>
<rscale>  0 0.12499997E+03</rscale>
<asrwt>0</asrwt>
<pdfrwt beam="2">  1        4 0.21719816E-01 0.12499997E+03</pdfrwt>
<pdfrwt beam="1">  1       -4 0.42567387E-02 0.12499997E+03</pdfrwt>
<totfact> 0.95663696E+03</totfact>
</mgrwt>
</event>
<event>
 5    1  0.3236337E-002  0.1249985E+03  0.7818608E-02  0.1235072E+00
          4   -1    0    0  501    0  0.00000000000E+00  0.00000000000E+00  0.10201963940E+03  0.10202754394E+03  0.12700000000E+01 0. -1.
         -4   -1    0    0    0  501 -0.00000000000E+00 -0.00000000000E+00 -0.38268356731E+02  0.38289424478E+02  0.12700000000E+01 0. -1.
         25    2    1    2    0    0  0.00000000000E+00  0.00000000000E+00  0.63751282665E+02  0.14031696842E+03  0.12499850233E+03 0.  0.
    9000005    1    3    3    0    0 -0.52439136484E+02  0.33259966108E+02  0.39738937445E+02  0.73731075741E+02  0.10000000000E+01 0.  0.
    9000005    1    3    3    0    0  0.52439136484E+02 -0.33259966108E+02  0.24012345220E+02  0.66585892677E+02  0.10000000000E+01 0.  0.
<mgrwt>
<rscale>  0 0.12499850E+03</rscale>
<asrwt>0</asrwt>
<pdfrwt beam="1">  1        4 0.15697558E-01 0.12499850E+03</pdfrwt>
<pdfrwt beam="2">  1       -4 0.58896681E-02 0.12499850E+03</pdfrwt>
<totfact> 0.10127362E+04</totfact>
</mgrwt>
</event>
<event>
 5    1  0.3236337E-002  0.1250003E+03  0.7818608E-02  0.1235069E+00
          4   -1    0    0  501    0  0.00000000000E+00  0.00000000000E+00  0.69488728741E+02  0.69500333251E+02  0.12700000000E+01 0.  1.
         -4   -1    0    0    0  501 -0.00000000000E+00 -0.00000000000E+00 -0.56190937504E+02  0.56205287630E+02  0.12700000000E+01 0.  1.
         25    2    1    2    0    0  0.00000000000E+00  0.00000000000E+00  0.13297791237E+02  0.12570562088E+03  0.12500028748E+03 0.  0.
    9000005    1    3    3    0    0  0.36436523460E+02 -0.15192126654E+02 -0.42068725715E+02  0.57699208291E+02  0.10000000000E+01 0.  0.
    9000005    1    3    3    0    0 -0.36436523460E+02  0.15192126654E+02  0.55366516952E+02  0.68006412591E+02  0.10000000000E+01 0.  0.
<mgrwt>
<rscale>  0 0.12500029E+03</rscale>
<asrwt>0</asrwt>
<pdfrwt beam="1">  1        4 0.10692570E-01 0.12500029E+03</pdfrwt>
<pdfrwt beam="2">  1       -4 0.86467561E-02 0.12500029E+03</pdfrwt>
<totfact> 0.10437353E+04</totfact>
</mgrwt>
</event>
<event>
 5    1  0.3236337E-002  0.1249993E+03  0.7818608E-02  0.1235070E+00
         -4   -1    0    0    0  501 -0.00000000000E+00  0.00000000000E+00  0.75541731938E+02  0.75552406740E+02  0.12700000000E+01 0.  1.
          4   -1    0    0  501    0  0.00000000000E+00 -0.00000000000E+00 -0.51687151778E+02  0.51702751947E+02  0.12700000000E+01 0.  1.
         25    2    1    2    0    0  0.00000000000E+00  0.00000000000E+00  0.23854580160E+02  0.12725515869E+03  0.12499933767E+03 0.  0.
    9000005    1    3    3    0    0  0.59192357018E+02  0.17538112996E+02  0.20628398599E+01  0.61778441588E+02  0.10000000000E+01 0.  0.
    9000005    1    3    3    0    0 -0.59192357018E+02 -0.17538112996E+02  0.21791740300E+02  0.65476717099E+02  0.10000000000E+01 0.  0.
<mgrwt>
<rscale>  0 0.12499934E+03</rscale>
<asrwt>0</asrwt>
<pdfrwt beam="2">  1        4 0.79538906E-02 0.12499934E+03</pdfrwt>
<pdfrwt beam="1">  1       -4 0.11623826E-01 0.12499934E+03</pdfrwt>
<totfact> 0.10403762E+04</totfact>
</mgrwt>
</event>
<event>
 5    1  0.3236337E-002  0.1250002E+03  0.7818608E-02  0.1235069E+00
          4   -1    0    0  501    0  0.00000000000E+00  0.00000000000E+00  0.12927362017E+03  0.12927985834E+03  0.12700000000E+01 0. -1.
         -4   -1    0    0    0  501 -0.00000000000E+00 -0.00000000000E+00 -0.30196681269E+02  0.30223376047E+02  0.12700000000E+01 0. -1.
         25    2    1    2    0    0  0.00000000000E+00  0.00000000000E+00  0.99076938898E+02  0.15950323438E+03  0.12500016783E+03 0.  0.
    9000005    1    3    3    0    0  0.30018060127E+02 -0.32400424410E+01 -0.20278579860E+02  0.36384098312E+02  0.10000000000E+01 0.  0.
    9000005    1    3    3    0    0 -0.30018060127E+02  0.32400424410E+01  0.11935551876E+03  0.12311913607E+03  0.10000000000E+01 0.  0.
<mgrwt>
<rscale>  0 0.12500017E+03</rscale>
<asrwt>0</asrwt>
<pdfrwt beam="1">  1        4 0.19890783E-01 0.12500017E+03</pdfrwt>
<pdfrwt beam="2">  1       -4 0.46481766E-02 0.12500017E+03</pdfrwt>
<totfact> 0.97438275E+03</totfact>
</mgrwt>
</event>
<event>
 4    1  0.3236337E-002  0.1250794E+03  0.7818608E-02  0.1234945E+00
         -4   -1    0    0    0  501 -0.00000000000E+00  0.00000000000E+00  0.41794689023E+02  0.41813980085E+02  0.12700000000E+01 0. -1.
          4   -1    0    0  501    0  0.00000000000E+00 -0.00000000000E+00 -0.93536376114E+02  0.93544997496E+02  0.12700000000E+01 0. -1.
    9000005    1    1    2    0    0 -0.53363209890E+02 -0.11633367855E+02  0.70824374030E+01  0.55082922372E+02  0.10000000000E+01 0.  0.
    9000005    1    1    2    0    0  0.53363209890E+02  0.11633367855E+02 -0.58824124494E+02  0.80276055209E+02  0.10000000000E+01 0.  0.
<mgrwt>
<rscale>  0 0.12507938E+03</rscale>
<asrwt>0</asrwt>
<pdfrwt beam="2">  1        4 0.14392359E-01 0.12507938E+03</pdfrwt>
<pdfrwt beam="1">  1       -4 0.64320993E-02 0.12507938E+03</pdfrwt>
<totfact> 0.10212218E+04</totfact>
</mgrwt>
</event>
<event>
 5    1  0.3236337E-002  0.1250050E+03  0.7818608E-02  0.1235061E+00
          4   -1    0    0  501    0  0.00000000000E+00  0.00000000000E+00  0.58189510375E+03  0.58189648965E+03  0.12700000000E+01 0. -1.
         -4   -1    0    0    0  501 -0.00000000000E+00 -0.00000000000E+00 -0.66520530165E+01  0.67722012178E+01  0.12700000000E+01 0. -1.
         25    2    1    2    0    0  0.00000000000E+00  0.00000000000E+00  0.57524305074E+03  0.58866869087E+03  0.12500504067E+03 0.  0.
    9000005    1    3    3    0    0  0.60238072359E+02 -0.16389104761E+02  0.27402441779E+03  0.28104734416E+03  0.10000000000E+01 0.  0.
    9000005    1    3    3    0    0 -0.60238072359E+02  0.16389104761E+02  0.30121863295E+03  0.30762134671E+03  0.10000000000E+01 0.  0.
<mgrwt>
<rscale>  0 0.12500504E+03</rscale>
<asrwt>0</asrwt>
<pdfrwt beam="1">  1        4 0.89531682E-01 0.12500504E+03</pdfrwt>
<pdfrwt beam="2">  1       -4 0.10327414E-02 0.12500504E+03</pdfrwt>
<totfact> 0.49585290E+03</totfact>
</mgrwt>
</event>
<event>
 5    1  0.3236337E-002  0.1250027E+03  0.7818608E-02  0.1235065E+00
          4   -1    0    0  501    0  0.00000000000E+00  0.00000000000E+00  0.60743787623E+02  0.60757062428E+02  0.12700000000E+01 0.  1.
         -4   -1    0    0    0  501 -0.00000000000E+00 -0.00000000000E+00 -0.64283217412E+02  0.64295761453E+02  0.12700000000E+01 0.  1.
         25    2    1    2    0    0  0.00000000000E+00  0.00000000000E+00 -0.35394297886E+01  0.12505282388E+03  0.12500272476E+03 0.  0.
    9000005    1    3    3    0    0  0.12849188864E+02 -0.24316660894E+02  0.54368893102E+02  0.60937494111E+02  0.10000000000E+01 0.  0.
    9000005    1    3    3    0    0 -0.12849188864E+02  0.24316660894E+02 -0.57908322890E+02  0.64115329769E+02  0.10000000000E+01 0.  0.
<mgrwt>
<rscale>  0 0.12500272E+03</rscale>
<asrwt>0</asrwt>
<pdfrwt beam="1">  1        4 0.93471841E-02 0.12500272E+03</pdfrwt>
<pdfrwt beam="2">  1       -4 0.98917118E-02 0.12500272E+03</pdfrwt>
<totfact> 0.10451072E+04</totfact>
</mgrwt>
</event>
<event>
 5    1  0.3236337E-002  0.1249999E+03  0.7818608E-02  0.1235069E+00
         -4   -1    0    0    0  501 -0.00000000000E+00  0.00000000000E+00  0.22110272471E+01  0.25498120494E+01  0.12700000000E+01 0.  1.
          4   -1    0    0  501    0  0.00000000000E+00 -0.00000000000E+00 -0.16406497845E+04  0.16406502761E+04  0.12700000000E+01 0.  1.
         25    2    1    2    0    0  0.00000000000E+00  0.00000000000E+00 -0.16384387573E+04  0.16432000881E+04  0.12499987295E+03 0.  0.
    9000005    1    3    3    0    0  0.56230546663E+02  0.22101838149E+02 -0.60935162335E+03  0.61234040085E+03  0.10000000000E+01 0.  0.
    9000005    1    3    3    0    0 -0.56230546663E+02 -0.22101838149E+02 -0.10290871339E+04  0.10308596873E+04  0.10000000000E+01 0.  0.
<mgrwt>
<rscale>  0 0.12499987E+03</rscale>
<asrwt>0</asrwt>
<pdfrwt beam="2">  1        4 0.25243285E+00 0.12499987E+03</pdfrwt>
<pdfrwt beam="1">  1       -4 0.36625753E-03 0.12499987E+03</pdfrwt>
<totfact> 0.15278071E+03</totfact>
</mgrwt>
</event>
<event>
 5    1  0.3236337E-002  0.1249990E+03  0.7818608E-02  0.1235071E+00
          4   -1    0    0  501    0  0.00000000000E+00  0.00000000000E+00  0.81496068005E+02  0.81505962973E+02  0.12700000000E+01 0.  1.
         -4   -1    0    0    0  501 -0.00000000000E+00 -0.00000000000E+00 -0.47909739716E+02  0.47926569454E+02  0.12700000000E+01 0.  1.
         25    2    1    2    0    0  0.00000000000E+00  0.00000000000E+00  0.33586328289E+02  0.12943253243E+03  0.12499895601E+03 0.  0.
    9000005    1    3    3    0    0 -0.12251540755E+02  0.34540026889E+02 -0.35619066880E+02  0.51115864796E+02  0.10000000000E+01 0.  0.
    9000005    1    3    3    0    0  0.12251540755E+02 -0.34540026889E+02  0.69205395169E+02  0.78316667632E+02  0.10000000000E+01 0.  0.
<mgrwt>
<rscale>  0 0.12499896E+03</rscale>
<asrwt>0</asrwt>
<pdfrwt beam="1">  1        4 0.12539912E-01 0.12499896E+03</pdfrwt>
<pdfrwt beam="2">  1       -4 0.73727850E-02 0.12499896E+03</pdfrwt>
<totfact> 0.10356906E+04</totfact>
</mgrwt>
</event>
<event>
 5    1  0.3236337E-002  0.1250032E+03  0.7818608E-02  0.1235064E+00
         -4   -1    0    0    0  501 -0.00000000000E+00  0.00000000000E+00  0.10894507249E+02  0.10968281005E+02  0.12700000000E+01 0. -1.
          4   -1    0    0  501    0  0.00000000000E+00 -0.00000000000E+00 -0.35728549171E+03  0.35728774886E+03  0.12700000000E+01 0. -1.
         25    2    1    2    0    0  0.00000000000E+00  0.00000000000E+00 -0.34639098446E+03  0.36825602987E+03  0.12500315763E+03 0.  0.
    9000005    1    3    3    0    0 -0.60640941965E+02  0.13998449451E+02 -0.18990384572E+03  0.19984431703E+03  0.10000000000E+01 0.  0.
    9000005    1    3    3    0    0  0.60640941965E+02 -0.13998449451E+02 -0.15648713874E+03  0.16841171284E+03  0.10000000000E+01 0.  0.
<mgrwt>
<rscale>  0 0.12500316E+03</rscale>
<asrwt>0</asrwt>
<pdfrwt beam="2">  1        4 0.54972838E-01 0.12500316E+03</pdfrwt>
<pdfrwt beam="1">  1       -4 0.16819268E-02 0.12500316E+03</pdfrwt>
<totfact> 0.67757058E+03</totfact>
</mgrwt>
</event>
<event>
 4    1  0.3236337E-002  0.1252669E+03  0.7818608E-02  0.1234653E+00
          4   -1    0    0  501    0  0.00000000000E+00  0.00000000000E+00  0.48212225162E+03  0.48212392433E+03  0.12700000000E+01 0. -1.
         -4   -1    0    0    0  501 -0.00000000000E+00 -0.00000000000E+00 -0.80855784781E+01  0.81847100941E+01  0.12700000000E+01 0. -1.
    9000005    1    1    2    0    0  0.10197205190E+02  0.38470666800E+02  0.47760891099E+02  0.62177792791E+02  0.10000000000E+01 0.  0.
    9000005    1    1    2    0    0 -0.10197205190E+02 -0.38470666800E+02  0.42627578204E+03  0.42813084163E+03  0.10000000000E+01 0.  0.
<mgrwt>
<rscale>  0 0.12526687E+03</rscale>
<asrwt>0</asrwt>
<pdfrwt beam="1">  1        4 0.74180411E-01 0.12526687E+03</pdfrwt>
<pdfrwt beam="2">  1       -4 0.12516893E-02 0.12526687E+03</pdfrwt>
<totfact> 0.56293117E+03</totfact>
</mgrwt>
</event>
<event>
 5    1  0.3236337E-002  0.1250334E+03  0.7818608E-02  0.1235017E+00
         -4   -1    0    0    0  501 -0.00000000000E+00  0.00000000000E+00  0.47421100329E+01  0.49092267786E+01  0.12700000000E+01 0. -1.
          4   -1    0    0  501    0  0.00000000000E+00 -0.00000000000E+00 -0.80973800058E+03  0.80973899651E+03  0.12700000000E+01 0. -1.
         25    2    1    2    0    0  0.00000000000E+00  0.00000000000E+00 -0.80499589054E+03  0.81464822329E+03  0.12503337124E+03 0.  0.
    9000005    1    3    3    0    0  0.12952212309E+02  0.16840940587E+01 -0.42160048668E+01  0.13761201748E+02  0.10000000000E+01 0.  0.
    9000005    1    3    3    0    0 -0.12952212309E+02 -0.16840940587E+01 -0.80077988568E+03  0.80088702155E+03  0.10000000000E+01 0.  0.
<mgrwt>
<rscale>  0 0.12503337E+03</rscale>
<asrwt>0</asrwt>
<pdfrwt beam="2">  1        4 0.12458790E+00 0.12503337E+03</pdfrwt>
<pdfrwt beam="1">  1       -4 0.74248778E-03 0.12503337E+03</pdfrwt>
<totfact> 0.37591720E+03</totfact>
</mgrwt>
</event>
<event>
 5    1  0.3236337E-002  0.1249986E+03  0.7818608E-02  0.1235072E+00
         -4   -1    0    0    0  501 -0.00000000000E+00  0.00000000000E+00  0.25973105472E+02  0.26004136361E+02  0.12700000000E+01 0.  1.
          4   -1    0    0  501    0  0.00000000000E+00 -0.00000000000E+00 -0.15026897774E+03  0.15027434435E+03  0.12700000000E+01 0.  1.
         25    2    1    2    0    0  0.00000000000E+00  0.00000000000E+00 -0.12429587226E+03  0.17627848071E+03  0.12499855559E+03 0.  0.
    9000005    1    3    3    0    0  0.28555056055E+02 -0.49210155937E+02 -0.98600198056E+02  0.11384212634E+03  0.10000000000E+01 0.  0.
    9000005    1    3    3    0    0 -0.28555056055E+02  0.49210155937E+02 -0.25695674208E+02  0.62436354367E+02  0.10000000000E+01 0.  0.
<mgrwt>
<rscale>  0 0.12499856E+03</rscale>
<asrwt>0</asrwt>
<pdfrwt beam="2">  1        4 0.23121104E-01 0.12499856E+03</pdfrwt>
<pdfrwt beam="1">  1       -4 0.39986623E-02 0.12499856E+03</pdfrwt>
<totfact> 0.94294265E+03</totfact>
</mgrwt>
</event>
<event>
 5    1  0.3236337E-002  0.1249996E+03  0.7818608E-02  0.1235070E+00
          4   -1    0    0  501    0  0.00000000000E+00  0.00000000000E+00  0.47055739399E+03  0.47055910781E+03  0.12700000000E+01 0.  1.
         -4   -1    0    0    0  501 -0.00000000000E+00 -0.00000000000E+00 -0.82509596971E+01  0.83481276897E+01  0.12700000000E+01 0.  1.
         25    2    1    2    0    0  0.00000000000E+00  0.00000000000E+00  0.46230643430E+03  0.47890723550E+03  0.12499960408E+03 0.  0.
    9000005    1    3    3    0    0  0.51609710499E+02 -0.33075410963E+02  0.27771224855E+03  0.28439873070E+03  0.10000000000E+01 0.  0.
    9000005    1    3    3    0    0 -0.51609710499E+02  0.33075410963E+02  0.18459418574E+03  0.19450850480E+03  0.10000000000E+01 0.  0.
<mgrwt>
<rscale>  0 0.12499960E+03</rscale>
<asrwt>0</asrwt>
<pdfrwt beam="1">  1        4 0.72401058E-01 0.12499960E+03</pdfrwt>
<pdfrwt beam="2">  1       -4 0.12769846E-02 0.12499960E+03</pdfrwt>
<totfact> 0.57539364E+03</totfact>
</mgrwt>
</event>
<event>
 5    1  0.3236337E-002  0.1250164E+03  0.7818608E-02  0.1235044E+00
         -4   -1    0    0    0  501 -0.00000000000E+00  0.00000000000E+00  0.82744570005E+01  0.83713522595E+01  0.12700000000E+01 0. -1.
          4   -1    0    0  501    0  0.00000000000E+00 -0.00000000000E+00 -0.46936297051E+03  0.46936468869E+03  0.12700000000E+01 0. -1.
         25    2    1    2    0    0  0.00000000000E+00  0.00000000000E+00 -0.46108851351E+03  0.47773604095E+03  0.12501642903E+03 0.  0.
    9000005    1    3    3    0    0 -0.47153836697E+02  0.37160291601E+02 -0.16414606050E+03  0.17478358266E+03  0.10000000000E+01 0.  0.
    9000005    1    3    3    0    0  0.47153836697E+02 -0.37160291601E+02 -0.29694245301E+03  0.30295245829E+03  0.10000000000E+01 0.  0.
<mgrwt>
<rscale>  0 0.12501643E+03</rscale>
<asrwt>0</asrwt>
<pdfrwt beam="2">  1        4 0.72217253E-01 0.12501643E+03</pdfrwt>
<pdfrwt beam="1">  1       -4 0.12805794E-02 0.12501643E+03</pdfrwt>
<totfact> 0.57613301E+03</totfact>
</mgrwt>
</event>
<event>
 5    1  0.3236337E-002  0.1250004E+03  0.7818608E-02  0.1235069E+00
         -4   -1    0    0    0  501 -0.00000000000E+00  0.00000000000E+00  0.59204611518E+03  0.59204747732E+03  0.12700000000E+01 0.  1.
          4   -1    0    0  501    0  0.00000000000E+00 -0.00000000000E+00 -0.65354250255E+01  0.66576782938E+01  0.12700000000E+01 0.  1.
         25    2    1    2    0    0  0.00000000000E+00  0.00000000000E+00  0.58551069015E+03  0.59870515561E+03  0.12500038029E+03 0.  0.
    9000005    1    3    3    0    0 -0.52219733282E+02  0.30856512063E+02  0.22071183076E+03  0.22889678268E+03  0.10000000000E+01 0.  0.
    9000005    1    3    3    0    0  0.52219733282E+02 -0.30856512063E+02  0.36479885939E+03  0.36980837293E+03  0.10000000000E+01 0.  0.
<mgrwt>
<rscale>  0 0.12500038E+03</rscale>
<asrwt>0</asrwt>
<pdfrwt beam="2">  1        4 0.10149592E-02 0.12500038E+03</pdfrwt>
<pdfrwt beam="1">  1       -4 0.91093501E-01 0.12500038E+03</pdfrwt>
<totfact> 0.48949049E+03</totfact>
</mgrwt>
</event>
<event>
 5    1  0.3236337E-002  0.1250005E+03  0.7818608E-02  0.1235068E+00
         -4   -1    0    0    0  501 -0.00000000000E+00  0.00000000000E+00  0.59547246246E+02  0.59560787734E+02  0.12700000000E+01 0.  1.
          4   -1    0    0  501    0  0.00000000000E+00 -0.00000000000E+00 -0.65572561076E+02  0.65584858512E+02  0.12700000000E+01 0.  1.
         25    2    1    2    0    0  0.00000000000E+00  0.00000000000E+00 -0.60253148300E+01  0.12514564625E+03  0.12500051342E+03 0.  0.
    9000005    1    3    3    0    0 -0.26572827443E+01 -0.44286508547E+02  0.41048963930E+02  0.60451413801E+02  0.10000000000E+01 0.  0.
    9000005    1    3    3    0    0  0.26572827443E+01  0.44286508547E+02 -0.47074278760E+02  0.64694232445E+02  0.10000000000E+01 0.  0.
<mgrwt>
<rscale>  0 0.12500051E+03</rscale>
<asrwt>0</asrwt>
<pdfrwt beam="2">  1        4 0.10090074E-01 0.12500051E+03</pdfrwt>
<pdfrwt beam="1">  1       -4 0.91631023E-02 0.12500051E+03</pdfrwt>
<totfact> 0.10449579E+04</totfact>
</mgrwt>
</event>
<event>
 5    1  0.3236337E-002  0.1249987E+03  0.7818608E-02  0.1235071E+00
          4   -1    0    0  501    0  0.00000000000E+00  0.00000000000E+00  0.87658893352E+01  0.88574102218E+01  0.12700000000E+01 0. -1.
         -4   -1    0    0    0  501 -0.00000000000E+00 -0.00000000000E+00 -0.44320364071E+03  0.44320546030E+03  0.12700000000E+01 0. -1.
         25    2    1    2    0    0  0.00000000000E+00  0.00000000000E+00 -0.43443775138E+03  0.45206287053E+03  0.12499871633E+03 0.  0.
    9000005    1    3    3    0    0 -0.60764885612E+02 -0.24253778956E+01 -0.26924126700E+03  0.27602556700E+03  0.10000000000E+01 0.  0.
    9000005    1    3    3    0    0  0.60764885612E+02  0.24253778956E+01 -0.16519648438E+03  0.17603730353E+03  0.10000000000E+01 0.  0.
<mgrwt>
<rscale>  0 0.12499872E+03</rscale>
<asrwt>0</asrwt>
<pdfrwt beam="1">  1        4 0.13557787E-02 0.12499872E+03</pdfrwt>
<pdfrwt beam="2">  1       -4 0.68192338E-01 0.12499872E+03</pdfrwt>
<totfact> 0.59787202E+03</totfact>
</mgrwt>
</event>
<event>
 5    1  0.3236337E-002  0.1249943E+03  0.7818608E-02  0.1235078E+00
         -4   -1    0    0    0  501 -0.00000000000E+00  0.00000000000E+00  0.74917133927E+01  0.75985965519E+01  0.12700000000E+01 0.  1.
          4   -1    0    0  501    0  0.00000000000E+00 -0.00000000000E+00 -0.51756143445E+03  0.51756299262E+03  0.12700000000E+01 0.  1.
         25    2    1    2    0    0  0.00000000000E+00  0.00000000000E+00 -0.51006972106E+03  0.52516158917E+03  0.12499429748E+03 0.  0.
    9000005    1    3    3    0    0 -0.43537383893E+02  0.42576074356E+02 -0.19611397440E+03  0.20535315157E+03  0.10000000000E+01 0.  0.
    9000005    1    3    3    0    0  0.43537383893E+02 -0.42576074356E+02 -0.31395574665E+03  0.31980843760E+03  0.10000000000E+01 0.  0.
<mgrwt>
<rscale>  0 0.12499430E+03</rscale>
<asrwt>0</asrwt>
<pdfrwt beam="2">  1        4 0.79633150E-01 0.12499430E+03</pdfrwt>
<pdfrwt beam="1">  1       -4 0.11609133E-02 0.12499430E+03</pdfrwt>
<totfact> 0.53970427E+03</totfact>
</mgrwt>
</event>
<event>
 5    1  0.3236337E-002  0.1249982E+03  0.7818608E-02  0.1235072E+00
         -4   -1    0    0    0  501 -0.00000000000E+00  0.00000000000E+00  0.13492995453E+03  0.13493593120E+03  0.12700000000E+01 0. -1.
          4   -1    0    0  501    0  0.00000000000E+00 -0.00000000000E+00 -0.28928811214E+02  0.28956674848E+02  0.12700000000E+01 0. -1.
         25    2    1    2    0    0  0.00000000000E+00  0.00000000000E+00  0.10600114332E+03  0.16389260605E+03  0.12499817572E+03 0.  0.
    9000005    1    3    3    0    0  0.43948056801E+02  0.11950231914E+02  0.10910376132E+03  0.11823227340E+03  0.10000000000E+01 0.  0.
    9000005    1    3    3    0    0 -0.43948056801E+02 -0.11950231914E+02 -0.31026180017E+01  0.45660332652E+02  0.10000000000E+01 0.  0.
<mgrwt>
<rscale>  0 0.12499818E+03</rscale>
<asrwt>0</asrwt>
<pdfrwt beam="2">  1        4 0.44531894E-02 0.12499818E+03</pdfrwt>
<pdfrwt beam="1">  1       -4 0.20761058E-01 0.12499818E+03</pdfrwt>
<totfact> 0.96601486E+03</totfact>
</mgrwt>
</event>
<event>
 5    1  0.3236337E-002  0.1250015E+03  0.7818608E-02  0.1235067E+00
         -4   -1    0    0    0  501 -0.00000000000E+00  0.00000000000E+00  0.25614572138E+04  0.25614575286E+04  0.12700000000E+01 0.  1.
          4   -1    0    0  501    0  0.00000000000E+00 -0.00000000000E+00 -0.12602774208E+01  0.17891895309E+01  0.12700000000E+01 0.  1.
         25    2    1    2    0    0  0.00000000000E+00  0.00000000000E+00  0.25601969363E+04  0.25632467181E+04  0.12500154067E+03 0.  0.
    9000005    1    3    3    0    0  0.53637227108E+02  0.31853518990E+02  0.12040681639E+04  0.12056835165E+04  0.10000000000E+01 0.  0.
    9000005    1    3    3    0    0 -0.53637227108E+02 -0.31853518990E+02  0.13561287725E+04  0.13575632016E+04  0.10000000000E+01 0.  0.
<mgrwt>
<rscale>  0 0.12500154E+03</rscale>
<asrwt>0</asrwt>
<pdfrwt beam="2">  1        4 0.23460011E-03 0.12500154E+03</pdfrwt>
<pdfrwt beam="1">  1       -4 0.39410852E+00 0.12500154E+03</pdfrwt>
<totfact> 0.41912697E+02</totfact>
</mgrwt>
</event>
<event>
 5    1  0.3236337E-002  0.1249991E+03  0.7818608E-02  0.1235071E+00
         -4   -1    0    0    0  501 -0.00000000000E+00  0.00000000000E+00  0.27897536570E+02  0.27926429179E+02  0.12700000000E+01 0. -1.
          4   -1    0    0  501    0  0.00000000000E+00 -0.00000000000E+00 -0.13991514691E+03  0.13992091064E+03  0.12700000000E+01 0. -1.
         25    2    1    2    0    0  0.00000000000E+00  0.00000000000E+00 -0.11201761034E+03  0.16784733982E+03  0.12499913783E+03 0.  0.
    9000005    1    3    3    0    0  0.51257135386E+02 -0.27657251237E+02 -0.25595957529E+02  0.63626806581E+02  0.10000000000E+01 0.  0.
    9000005    1    3    3    0    0 -0.51257135386E+02  0.27657251237E+02 -0.86421652807E+02  0.10422053324E+03  0.10000000000E+01 0.  0.
<mgrwt>
<rscale>  0 0.12499914E+03</rscale>
<asrwt>0</asrwt>
<pdfrwt beam="2">  1        4 0.21528073E-01 0.12499914E+03</pdfrwt>
<pdfrwt beam="1">  1       -4 0.42945947E-02 0.12499914E+03</pdfrwt>
<totfact> 0.95852709E+03</totfact>
</mgrwt>
</event>
<event>
 5    1  0.3236337E-002  0.1250000E+03  0.7818608E-02  0.1235069E+00
          4   -1    0    0  501    0  0.00000000000E+00  0.00000000000E+00  0.37457274468E+02  0.37478798148E+02  0.12700000000E+01 0. -1.
         -4   -1    0    0    0  501 -0.00000000000E+00 -0.00000000000E+00 -0.10423017511E+03  0.10423791202E+03  0.12700000000E+01 0. -1.
         25    2    1    2    0    0  0.00000000000E+00  0.00000000000E+00 -0.66772900637E+02  0.14171671017E+03  0.12500002273E+03 0.  0.
    9000005    1    3    3    0    0 -0.52537323776E+02  0.20785835308E+02 -0.63660108023E+02  0.85122445293E+02  0.10000000000E+01 0.  0.
    9000005    1    3    3    0    0  0.52537323776E+02 -0.20785835308E+02 -0.31127926140E+01  0.56594264876E+02  0.10000000000E+01 0.  0.
<mgrwt>
<rscale>  0 0.12500002E+03</rscale>
<asrwt>0</asrwt>
<pdfrwt beam="1">  1        4 0.57649085E-02 0.12500002E+03</pdfrwt>
<pdfrwt beam="2">  1       -4 0.16037662E-01 0.12500002E+03</pdfrwt>
<totfact> 0.10098124E+04</totfact>
</mgrwt>
</event>
<event>
 5    1  0.3236337E-002  0.1250009E+03  0.7818608E-02  0.1235068E+00
         -4   -1    0    0    0  501 -0.00000000000E+00  0.00000000000E+00  0.49026246329E+02  0.49042692923E+02  0.12700000000E+01 0.  1.
          4   -1    0    0  501    0  0.00000000000E+00 -0.00000000000E+00 -0.79642953761E+02  0.79653078935E+02  0.12700000000E+01 0.  1.
         25    2    1    2    0    0  0.00000000000E+00  0.00000000000E+00 -0.30616707432E+02  0.12869577186E+03  0.12500087568E+03 0.  0.
    9000005    1    3    3    0    0  0.35232051811E+02  0.35863897429E+02 -0.53524108432E+02  0.73439409019E+02  0.10000000000E+01 0.  0.
    9000005    1    3    3    0    0 -0.35232051811E+02 -0.35863897429E+02  0.22907401000E+02  0.55256362839E+02  0.10000000000E+01 0.  0.
<mgrwt>
<rscale>  0 0.12500088E+03</rscale>
<asrwt>0</asrwt>
<pdfrwt beam="2">  1        4 0.12254806E-01 0.12500088E+03</pdfrwt>
<pdfrwt beam="1">  1       -4 0.75445434E-02 0.12500088E+03</pdfrwt>
<totfact> 0.10372284E+04</totfact>
</mgrwt>
</event>
<event>
 5    1  0.3236337E-002  0.1250008E+03  0.7818608E-02  0.1235068E+00
          4   -1    0    0  501    0  0.00000000000E+00  0.00000000000E+00  0.44326025052E+01  0.46109505494E+01  0.12700000000E+01 0. -1.
         -4   -1    0    0    0  501 -0.00000000000E+00 -0.00000000000E+00 -0.86370686690E+03  0.86370780061E+03  0.12700000000E+01 0. -1.
         25    2    1    2    0    0  0.00000000000E+00  0.00000000000E+00 -0.85927426440E+03  0.86831875116E+03  0.12500076864E+03 0.  0.
    9000005    1    3    3    0    0  0.44193118968E+02 -0.39427237241E+02 -0.56817759508E+03  0.57125678845E+03  0.10000000000E+01 0.  0.
    9000005    1    3    3    0    0 -0.44193118968E+02  0.39427237241E+02 -0.29109666932E+03  0.29706196271E+03  0.10000000000E+01 0.  0.
<mgrwt>
<rscale>  0 0.12500077E+03</rscale>
<asrwt>0</asrwt>
<pdfrwt beam="1">  1        4 0.69573043E-03 0.12500077E+03</pdfrwt>
<pdfrwt beam="2">  1       -4 0.13289164E+00 0.12500077E+03</pdfrwt>
<totfact> 0.35388648E+03</totfact>
</mgrwt>
</event>
<event>
 5    1  0.3236337E-002  0.1249993E+03  0.7818608E-02  0.1235070E+00
          4   -1    0    0  501    0  0.00000000000E+00  0.00000000000E+00  0.14837810397E+03  0.14838353897E+03  0.12700000000E+01 0.  1.
         -4   -1    0    0    0  501 -0.00000000000E+00 -0.00000000000E+00 -0.26304775030E+02  0.26335415117E+02  0.12700000000E+01 0.  1.
         25    2    1    2    0    0  0.00000000000E+00  0.00000000000E+00  0.12207332894E+03  0.17471895409E+03  0.12499926112E+03 0.  0.
    9000005    1    3    3    0    0  0.33261535957E+02 -0.42255303637E+02  0.16541258437E+02  0.56271251011E+02  0.10000000000E+01 0.  0.
    9000005    1    3    3    0    0 -0.33261535957E+02  0.42255303637E+02  0.10553207051E+03  0.11844770308E+03  0.10000000000E+01 0.  0.
<mgrwt>
<rscale>  0 0.12499926E+03</rscale>
<asrwt>0</asrwt>
<pdfrwt beam="1">  1        4 0.22830175E-01 0.12499926E+03</pdfrwt>
<pdfrwt beam="2">  1       -4 0.40496635E-02 0.12499926E+03</pdfrwt>
<totfact> 0.94577906E+03</totfact>
</mgrwt>
</event>
<event>
 5    1  0.3236337E-002  0.1249974E+03  0.7818608E-02  0.1235073E+00
         -4   -1    0    0    0  501 -0.00000000000E+00  0.00000000000E+00  0.57855185170E+02  0.57869122605E+02  0.12700000000E+01 0.  1.
          4   -1    0    0  501    0  0.00000000000E+00 -0.00000000000E+00 -0.67486861672E+02  0.67498810347E+02  0.12700000000E+01 0.  1.
         25    2    1    2    0    0  0.00000000000E+00  0.00000000000E+00 -0.96316765015E+01  0.12536793295E+03  0.12499739765E+03 0.  0.
    9000005    1    3    3    0    0  0.38059221866E+01 -0.55211808130E+02 -0.33923559633E+02  0.64920233354E+02  0.10000000000E+01 0.  0.
    9000005    1    3    3    0    0 -0.38059221866E+01  0.55211808130E+02  0.24291883131E+02  0.60447699598E+02  0.10000000000E+01 0.  0.
<mgrwt>
<rscale>  0 0.12499740E+03</rscale>
<asrwt>0</asrwt>
<pdfrwt beam="2">  1        4 0.10384585E-01 0.12499740E+03</pdfrwt>
<pdfrwt beam="1">  1       -4 0.89027889E-02 0.12499740E+03</pdfrwt>
<totfact> 0.10445490E+04</totfact>
</mgrwt>
</event>
<event>
 5    1  0.3236337E-002  0.1249956E+03  0.7818608E-02  0.1235076E+00
         -4   -1    0    0    0  501 -0.00000000000E+00  0.00000000000E+00  0.36231491890E+02  0.36253743318E+02  0.12700000000E+01 0.  1.
          4   -1    0    0  501    0  0.00000000000E+00 -0.00000000000E+00 -0.10774695141E+03  0.10775443581E+03  0.12700000000E+01 0.  1.
         25    2    1    2    0    0  0.00000000000E+00  0.00000000000E+00 -0.71515459517E+02  0.14400817913E+03  0.12499557875E+03 0.  0.
    9000005    1    3    3    0    0  0.55847668172E+02 -0.24494626536E+02 -0.20044044291E+02  0.64200564491E+02  0.10000000000E+01 0.  0.
    9000005    1    3    3    0    0 -0.55847668172E+02  0.24494626536E+02 -0.51471415225E+02  0.79807614641E+02  0.10000000000E+01 0.  0.
<mgrwt>
<rscale>  0 0.12499558E+03</rscale>
<asrwt>0</asrwt>
<pdfrwt beam="2">  1        4 0.16578741E-01 0.12499558E+03</pdfrwt>
<pdfrwt beam="1">  1       -4 0.55763631E-02 0.12499558E+03</pdfrwt>
<totfact> 0.10052180E+04</totfact>
</mgrwt>
</event>
<event>
 5    1  0.3236337E-002  0.1250036E+03  0.7818608E-02  0.1235064E+00
          4   -1    0    0  501    0  0.00000000000E+00  0.00000000000E+00  0.20276434286E+03  0.20276832010E+03  0.12700000000E+01 0. -1.
         -4   -1    0    0    0  501 -0.00000000000E+00 -0.00000000000E+00 -0.19240981429E+02  0.19282849020E+02  0.12700000000E+01 0. -1.
         25    2    1    2    0    0  0.00000000000E+00  0.00000000000E+00  0.18352336143E+03  0.22205116912E+03  0.12500359001E+03 0.  0.
    9000005    1    3    3    0    0 -0.84186248753E+01 -0.55966059860E+02  0.44683114832E+02  0.72115559016E+02  0.10000000000E+01 0.  0.
    9000005    1    3    3    0    0  0.84186248753E+01  0.55966059860E+02  0.13884024660E+03  0.14993561010E+03  0.10000000000E+01 0.  0.
<mgrwt>
<rscale>  0 0.12500359E+03</rscale>
<asrwt>0</asrwt>
<pdfrwt beam="1">  1        4 0.31198043E-01 0.12500359E+03</pdfrwt>
<pdfrwt beam="2">  1       -4 0.29636774E-02 0.12500359E+03</pdfrwt>
<totfact> 0.86537875E+03</totfact>
</mgrwt>
</event>
<event>
 5    1  0.3236337E-002  0.1249903E+03  0.7818608E-02  0.1235084E+00
          4   -1    0    0  501    0  0.00000000000E+00  0.00000000000E+00  0.52116473108E+02  0.52131944806E+02  0.12700000000E+01 0. -1.
         -4   -1    0    0    0  501 -0.00000000000E+00 -0.00000000000E+00 -0.74908725647E+02  0.74919490642E+02  0.12700000000E+01 0. -1.
         25    2    1    2    0    0  0.00000000000E+00  0.00000000000E+00 -0.22792252539E+02  0.12705143545E+03  0.12499032152E+03 0.  0.
    9000005    1    3    3    0    0 -0.43664328571E+02 -0.44699404213E+02 -0.11585727808E+02  0.63559731083E+02  0.10000000000E+01 0.  0.
    9000005    1    3    3    0    0  0.43664328571E+02  0.44699404213E+02 -0.11206524732E+02  0.63491704364E+02  0.10000000000E+01 0.  0.
<mgrwt>
<rscale>  0 0.12499032E+03</rscale>
<asrwt>0</asrwt>
<pdfrwt beam="1">  1        4 0.80199372E-02 0.12499032E+03</pdfrwt>
<pdfrwt beam="2">  1       -4 0.11526437E-01 0.12499032E+03</pdfrwt>
<totfact> 0.10410303E+04</totfact>
</mgrwt>
</event>
<event>
 5    1  0.3236337E-002  0.1249921E+03  0.7818608E-02  0.1235082E+00
         -4   -1    0    0    0  501 -0.00000000000E+00  0.00000000000E+00  0.41699011139E+01  0.43590108166E+01  0.12700000000E+01 0. -1.
          4   -1    0    0  501    0  0.00000000000E+00 -0.00000000000E+00 -0.91569712616E+03  0.91569800685E+03  0.12700000000E+01 0. -1.
         25    2    1    2    0    0  0.00000000000E+00  0.00000000000E+00 -0.91152722504E+03  0.92005701767E+03  0.12499213482E+03 0.  0.
    9000005    1    3    3    0    0 -0.19106944423E+02  0.37135122784E+02 -0.11360627911E+03  0.12104329524E+03  0.10000000000E+01 0.  0.
    9000005    1    3    3    0    0  0.19106944423E+02 -0.37135122784E+02 -0.79792094594E+03  0.79901372243E+03  0.10000000000E+01 0.  0.
<mgrwt>
<rscale>  0 0.12499213E+03</rscale>
<asrwt>0</asrwt>
<pdfrwt beam="2">  1        4 0.14089094E+00 0.12499213E+03</pdfrwt>
<pdfrwt beam="1">  1       -4 0.65613862E-03 0.12499213E+03</pdfrwt>
<totfact> 0.33409229E+03</totfact>
</mgrwt>
</event>
<event>
 5    1  0.3236337E-002  0.1249921E+03  0.7818608E-02  0.1235082E+00
         -4   -1    0    0    0  501 -0.00000000000E+00  0.00000000000E+00  0.27984177200E+03  0.27984465379E+03  0.12700000000E+01 0. -1.
          4   -1    0    0  501    0  0.00000000000E+00 -0.00000000000E+00 -0.13925168094E+02  0.13982961290E+02  0.12700000000E+01 0. -1.
         25    2    1    2    0    0  0.00000000000E+00  0.00000000000E+00  0.26591660390E+03  0.29382761508E+03  0.12499210836E+03 0.  0.
    9000005    1    3    3    0    0  0.13069002533E+02  0.57445221567E+02  0.18193134860E+03  0.19123485014E+03  0.10000000000E+01 0.  0.
    9000005    1    3    3    0    0 -0.13069002533E+02 -0.57445221567E+02  0.83985255308E+02  0.10259276494E+03  0.10000000000E+01 0.  0.
<mgrwt>
<rscale>  0 0.12499211E+03</rscale>
<asrwt>0</asrwt>
<pdfrwt beam="2">  1        4 0.21470008E-02 0.12499211E+03</pdfrwt>
<pdfrwt beam="1">  1       -4 0.43057249E-01 0.12499211E+03</pdfrwt>
<totfact> 0.76393057E+03</totfact>
</mgrwt>
</event>
<event>
 5    1  0.3236337E-002  0.1249942E+03  0.7818608E-02  0.1235078E+00
         -4   -1    0    0    0  501 -0.00000000000E+00  0.00000000000E+00  0.36643365973E+02  0.36665367445E+02  0.12700000000E+01 0. -1.
          4   -1    0    0  501    0  0.00000000000E+00 -0.00000000000E+00 -0.10653411961E+03  0.10654168922E+03  0.12700000000E+01 0. -1.
         25    2    1    2    0    0  0.00000000000E+00  0.00000000000E+00 -0.69890753637E+02  0.14320705666E+03  0.12499417440E+03 0.  0.
    9000005    1    3    3    0    0 -0.10530242147E+02  0.10890723717E+02 -0.10440404983E+03  0.10550213023E+03  0.10000000000E+01 0.  0.
    9000005    1    3    3    0    0  0.10530242147E+02 -0.10890723717E+02  0.34513296194E+02  0.37704926428E+02  0.10000000000E+01 0.  0.
<mgrwt>
<rscale>  0 0.12499417E+03</rscale>
<asrwt>0</asrwt>
<pdfrwt beam="2">  1        4 0.16392139E-01 0.12499417E+03</pdfrwt>
<pdfrwt beam="1">  1       -4 0.56397157E-02 0.12499417E+03</pdfrwt>
<totfact> 0.10068866E+04</totfact>
</mgrwt>
</event>
<event>
 5    1  0.3236337E-002  0.1249996E+03  0.7818608E-02  0.1235070E+00
         -4   -1    0    0    0  501 -0.00000000000E+00  0.00000000000E+00  0.23925716005E+02  0.23959398706E+02  0.12700000000E+01 0.  1.
          4   -1    0    0  501    0  0.00000000000E+00 -0.00000000000E+00 -0.16311373531E+03  0.16311867933E+03  0.12700000000E+01 0.  1.
         25    2    1    2    0    0  0.00000000000E+00  0.00000000000E+00 -0.13918801930E+03  0.18707807803E+03  0.12499961025E+03 0.  0.
    9000005    1    3    3    0    0 -0.62269574427E+01 -0.21853646169E+02 -0.15671877426E+03  0.15836076236E+03  0.10000000000E+01 0.  0.
    9000005    1    3    3    0    0  0.62269574427E+01  0.21853646169E+02  0.17530754960E+02  0.28717315671E+02  0.10000000000E+01 0.  0.
<mgrwt>
<rscale>  0 0.12499961E+03</rscale>
<asrwt>0</asrwt>
<pdfrwt beam="2">  1        4 0.25097392E-01 0.12499961E+03</pdfrwt>
<pdfrwt beam="1">  1       -4 0.36838508E-02 0.12499961E+03</pdfrwt>
<totfact> 0.92359026E+03</totfact>
</mgrwt>
</event>
<event>
 5    1  0.3236337E-002  0.1250025E+03  0.7818608E-02  0.1235065E+00
          4   -1    0    0  501    0  0.00000000000E+00  0.00000000000E+00  0.49101131426E+02  0.49117552945E+02  0.12700000000E+01 0. -1.
         -4   -1    0    0    0  501 -0.00000000000E+00 -0.00000000000E+00 -0.79523559800E+02  0.79533700173E+02  0.12700000000E+01 0. -1.
         25    2    1    2    0    0  0.00000000000E+00  0.00000000000E+00 -0.30422428374E+02  0.12865125312E+03  0.12500248310E+03 0.  0.
    9000005    1    3    3    0    0 -0.18701377542E+02  0.55812102784E+02  0.63937490087E+01  0.59216656150E+02  0.10000000000E+01 0.  0.
    9000005    1    3    3    0    0  0.18701377542E+02 -0.55812102784E+02 -0.36816177382E+02  0.69434596969E+02  0.10000000000E+01 0.  0.
<mgrwt>
<rscale>  0 0.12500248E+03</rscale>
<asrwt>0</asrwt>
<pdfrwt beam="1">  1        4 0.75560634E-02 0.12500248E+03</pdfrwt>
<pdfrwt beam="2">  1       -4 0.12236437E-01 0.12500248E+03</pdfrwt>
<totfact> 0.10372865E+04</totfact>
</mgrwt>
</event>
<event>
 5    1  0.3236337E-002  0.1250014E+03  0.7818608E-02  0.1235067E+00
          4   -1    0    0  501    0  0.00000000000E+00  0.00000000000E+00  0.90017722634E+02  0.90026680980E+02  0.12700000000E+01 0.  1.
         -4   -1    0    0    0  501 -0.00000000000E+00 -0.00000000000E+00 -0.43374763253E+02  0.43393351879E+02  0.12700000000E+01 0.  1.
         25    2    1    2    0    0  0.00000000000E+00  0.00000000000E+00  0.46642959381E+02  0.13342003286E+03  0.12500135803E+03 0.  0.
    9000005    1    3    3    0    0 -0.20791162438E+02 -0.39797865250E+02  0.69713619300E+02  0.82928470563E+02  0.10000000000E+01 0.  0.
    9000005    1    3    3    0    0  0.20791162438E+02  0.39797865250E+02 -0.23070659919E+02  0.50491562296E+02  0.10000000000E+01 0.  0.
<mgrwt>
<rscale>  0 0.12500136E+03</rscale>
<asrwt>0</asrwt>
<pdfrwt beam="1">  1        4 0.13850999E-01 0.12500136E+03</pdfrwt>
<pdfrwt beam="2">  1       -4 0.66751595E-02 0.12500136E+03</pdfrwt>
<totfact> 0.10271166E+04</totfact>
</mgrwt>
</event>
<event>
 5    1  0.3236337E-002  0.1249973E+03  0.7818608E-02  0.1235074E+00
          4   -1    0    0  501    0  0.00000000000E+00  0.00000000000E+00  0.30427912146E+02  0.30454404239E+02  0.12700000000E+01 0.  1.
         -4   -1    0    0    0  501 -0.00000000000E+00 -0.00000000000E+00 -0.12828608522E+03  0.12829237140E+03  0.12700000000E+01 0.  1.
         25    2    1    2    0    0  0.00000000000E+00  0.00000000000E+00 -0.97858173070E+02  0.15874677564E+03  0.12499726693E+03 0.  0.
    9000005    1    3    3    0    0  0.47793520661E+02 -0.31972713303E+02 -0.80001448354E+02  0.98527695354E+02  0.10000000000E+01 0.  0.
    9000005    1    3    3    0    0 -0.47793520661E+02  0.31972713303E+02 -0.17856724717E+02  0.60219080288E+02  0.10000000000E+01 0.  0.
<mgrwt>
<rscale>  0 0.12499727E+03</rscale>
<asrwt>0</asrwt>
<pdfrwt beam="1">  1        4 0.46837387E-02 0.12499727E+03</pdfrwt>
<pdfrwt beam="2">  1       -4 0.19738842E-01 0.12499727E+03</pdfrwt>
<totfact> 0.97590938E+03</totfact>
</mgrwt>
</event>
<event>
 5    1  0.3236337E-002  0.1250035E+03  0.7818608E-02  0.1235064E+00
         -4   -1    0    0    0  501 -0.00000000000E+00  0.00000000000E+00  0.16037950756E+04  0.16037955785E+04  0.12700000000E+01 0. -1.
          4   -1    0    0  501    0  0.00000000000E+00 -0.00000000000E+00 -0.22696847301E+01  0.26008400132E+01  0.12700000000E+01 0. -1.
         25    2    1    2    0    0  0.00000000000E+00  0.00000000000E+00  0.16015253909E+04  0.16063964185E+04  0.12500350241E+03 0.  0.
    9000005    1    3    3    0    0 -0.45555679703E+02  0.14412516434E+02  0.28314000589E+03  0.28714509141E+03  0.10000000000E+01 0.  0.
    9000005    1    3    3    0    0  0.45555679703E+02 -0.14412516434E+02  0.13183853850E+04  0.13192513271E+04  0.10000000000E+01 0.  0.
<mgrwt>
<rscale>  0 0.12500350E+03</rscale>
<asrwt>0</asrwt>
<pdfrwt beam="2">  1        4 0.37469362E-03 0.12500350E+03</pdfrwt>
<pdfrwt beam="1">  1       -4 0.24676375E+00 0.12500350E+03</pdfrwt>
<totfact> 0.15929627E+03</totfact>
</mgrwt>
</event>
<event>
 5    1  0.3236337E-002  0.1249863E+03  0.7818608E-02  0.1235091E+00
         -4   -1    0    0    0  501 -0.00000000000E+00  0.00000000000E+00  0.70137150725E+02  0.70148647969E+02  0.12700000000E+01 0.  1.
          4   -1    0    0  501    0  0.00000000000E+00 -0.00000000000E+00 -0.55658940001E+02  0.55673427253E+02  0.12700000000E+01 0.  1.
         25    2    1    2    0    0  0.00000000000E+00  0.00000000000E+00  0.14478210724E+02  0.12582207522E+03  0.12498630336E+03 0.  0.
    9000005    1    3    3    0    0  0.48137786880E+02 -0.70939979783E+01 -0.32225366951E+02  0.58369903273E+02  0.10000000000E+01 0.  0.
    9000005    1    3    3    0    0 -0.48137786880E+02  0.70939979783E+01  0.46703577675E+02  0.67452171949E+02  0.10000000000E+01 0.  0.
<mgrwt>
<rscale>  0 0.12498630E+03</rscale>
<asrwt>0</asrwt>
<pdfrwt beam="2">  1        4 0.85649126E-02 0.12498630E+03</pdfrwt>
<pdfrwt beam="1">  1       -4 0.10792330E-01 0.12498630E+03</pdfrwt>
<totfact> 0.10438086E+04</totfact>
</mgrwt>
</event>
<event>
 5    1  0.3236337E-002  0.1250006E+03  0.7818608E-02  0.1235068E+00
         -4   -1    0    0    0  501 -0.00000000000E+00  0.00000000000E+00  0.38212090744E+01  0.40267280502E+01  0.12700000000E+01 0. -1.
          4   -1    0    0  501    0  0.00000000000E+00 -0.00000000000E+00 -0.99528863933E+03  0.99528944960E+03  0.12700000000E+01 0. -1.
         25    2    1    2    0    0  0.00000000000E+00  0.00000000000E+00 -0.99146743026E+03  0.99931617765E+03  0.12500063060E+03 0.  0.
    9000005    1    3    3    0    0 -0.43122818052E+02  0.22096245785E+02 -0.81123437082E+03  0.81268076507E+03  0.10000000000E+01 0.  0.
    9000005    1    3    3    0    0  0.43122818052E+02 -0.22096245785E+02 -0.18023305944E+03  0.18663541258E+03  0.10000000000E+01 0.  0.
<mgrwt>
<rscale>  0 0.12500063E+03</rscale>
<asrwt>0</asrwt>
<pdfrwt beam="2">  1        4 0.15313700E+00 0.12500063E+03</pdfrwt>
<pdfrwt beam="1">  1       -4 0.60375059E-03 0.12500063E+03</pdfrwt>
<totfact> 0.30626692E+03</totfact>
</mgrwt>
</event>
<event>
 5    1  0.3236337E-002  0.1250032E+03  0.7818608E-02  0.1235064E+00
         -4   -1    0    0    0  501 -0.00000000000E+00  0.00000000000E+00  0.34768836393E+03  0.34769068338E+03  0.12700000000E+01 0. -1.
          4   -1    0    0  501    0  0.00000000000E+00 -0.00000000000E+00 -0.11197241097E+02  0.11269033152E+02  0.12700000000E+01 0. -1.
         25    2    1    2    0    0  0.00000000000E+00  0.00000000000E+00  0.33649112283E+03  0.35895971654E+03  0.12500320936E+03 0.  0.
    9000005    1    3    3    0    0 -0.58530476664E+02  0.15762444599E+02  0.12458403083E+03  0.13855126162E+03  0.10000000000E+01 0.  0.
    9000005    1    3    3    0    0  0.58530476664E+02 -0.15762444599E+02  0.21190709200E+03  0.22040845492E+03  0.10000000000E+01 0.  0.
<mgrwt>
<rscale>  0 0.12500321E+03</rscale>
<asrwt>0</asrwt>
<pdfrwt beam="2">  1        4 0.17283531E-02 0.12500321E+03</pdfrwt>
<pdfrwt beam="1">  1       -4 0.53496228E-01 0.12500321E+03</pdfrwt>
<totfact> 0.68745107E+03</totfact>
</mgrwt>
</event>
<event>
 5    1  0.3236337E-002  0.1250008E+03  0.7818608E-02  0.1235068E+00
          4   -1    0    0  501    0  0.00000000000E+00  0.00000000000E+00  0.44694272894E+01  0.46463620495E+01  0.12700000000E+01 0. -1.
         -4   -1    0    0    0  501 -0.00000000000E+00 -0.00000000000E+00 -0.85686300172E+03  0.85686394289E+03  0.12700000000E+01 0. -1.
         25    2    1    2    0    0  0.00000000000E+00  0.00000000000E+00 -0.85239357443E+03  0.86151030494E+03  0.12500079911E+03 0.  0.
    9000005    1    3    3    0    0 -0.24577527365E+02  0.25322051832E+01 -0.30589399884E+02  0.39334187417E+02  0.10000000000E+01 0.  0.
    9000005    1    3    3    0    0  0.24577527365E+02 -0.25322051832E+01 -0.82180417455E+03  0.82217611752E+03  0.10000000000E+01 0.  0.
<mgrwt>
<rscale>  0 0.12500080E+03</rscale>
<asrwt>0</asrwt>
<pdfrwt beam="1">  1        4 0.70128764E-03 0.12500080E+03</pdfrwt>
<pdfrwt beam="2">  1       -4 0.13183863E+00 0.12500080E+03</pdfrwt>
<totfact> 0.35660297E+03</totfact>
</mgrwt>
</event>
<event>
 5    1  0.3236337E-002  0.1249981E+03  0.7818608E-02  0.1235072E+00
          4   -1    0    0  501    0  0.00000000000E+00  0.00000000000E+00  0.19847844907E+01  0.23563254178E+01  0.12700000000E+01 0.  1.
         -4   -1    0    0    0  501 -0.00000000000E+00 -0.00000000000E+00 -0.17992274128E+04  0.17992278610E+04  0.12700000000E+01 0.  1.
         25    2    1    2    0    0  0.00000000000E+00  0.00000000000E+00 -0.17972426283E+04  0.18015841864E+04  0.12499806323E+03 0.  0.
    9000005    1    3    3    0    0  0.60553070430E+01  0.48658825087E+02 -0.34026692879E+03  0.34378326142E+03  0.10000000000E+01 0.  0.
    9000005    1    3    3    0    0 -0.60553070430E+01 -0.48658825087E+02 -0.14569756995E+04  0.14578009250E+04  0.10000000000E+01 0.  0.
<mgrwt>
<rscale>  0 0.12499806E+03</rscale>
<asrwt>0</asrwt>
<pdfrwt beam="1">  1        4 0.33396745E-03 0.12499806E+03</pdfrwt>
<pdfrwt beam="2">  1       -4 0.27683164E+00 0.12499806E+03</pdfrwt>
<totfact> 0.12679755E+03</totfact>
</mgrwt>
</event>
<event>
 5    1  0.3236337E-002  0.1249997E+03  0.7818608E-02  0.1235070E+00
          4   -1    0    0  501    0  0.00000000000E+00  0.00000000000E+00  0.39900667733E+02  0.39920874058E+02  0.12700000000E+01 0.  1.
         -4   -1    0    0    0  501 -0.00000000000E+00 -0.00000000000E+00 -0.97849728436E+02  0.97857969808E+02  0.12700000000E+01 0.  1.
         25    2    1    2    0    0  0.00000000000E+00  0.00000000000E+00 -0.57949060702E+02  0.13777884387E+03  0.12499966472E+03 0.  0.
    9000005    1    3    3    0    0  0.21985266902E+02  0.53620163523E+02 -0.32012244395E+01  0.58049304344E+02  0.10000000000E+01 0.  0.
    9000005    1    3    3    0    0 -0.21985266902E+02 -0.53620163523E+02 -0.54747836263E+02  0.79729539522E+02  0.10000000000E+01 0.  0.
<mgrwt>
<rscale>  0 0.12499966E+03</rscale>
<asrwt>0</asrwt>
<pdfrwt beam="1">  1        4 0.61407526E-02 0.12499966E+03</pdfrwt>
<pdfrwt beam="2">  1       -4 0.15055993E-01 0.12499966E+03</pdfrwt>
<totfact> 0.10179903E+04</totfact>
</mgrwt>
</event>
<event>
 5    1  0.3236337E-002  0.1249993E+03  0.7818608E-02  0.1235070E+00
         -4   -1    0    0    0  501 -0.00000000000E+00  0.00000000000E+00  0.41897173608E+02  0.41916417504E+02  0.12700000000E+01 0.  1.
          4   -1    0    0  501    0  0.00000000000E+00 -0.00000000000E+00 -0.93188167584E+02  0.93196821178E+02  0.12700000000E+01 0.  1.
         25    2    1    2    0    0  0.00000000000E+00  0.00000000000E+00 -0.51290993976E+02  0.13511323868E+03  0.12499928481E+03 0.  0.
    9000005    1    3    3    0    0 -0.50238315152E+02 -0.35723358478E+02 -0.36729914569E+02  0.71764429034E+02  0.10000000000E+01 0.  0.
    9000005    1    3    3    0    0  0.50238315152E+02  0.35723358478E+02 -0.14561079407E+02  0.63348809648E+02  0.10000000000E+01 0.  0.
<mgrwt>
<rscale>  0 0.12499928E+03</rscale>
<asrwt>0</asrwt>
<pdfrwt beam="2">  1        4 0.14338787E-01 0.12499928E+03</pdfrwt>
<pdfrwt beam="1">  1       -4 0.64478650E-02 0.12499928E+03</pdfrwt>
<totfact> 0.10235850E+04</totfact>
</mgrwt>
</event>
<event>
 5    1  0.3236337E-002  0.1250031E+03  0.7818608E-02  0.1235064E+00
          4   -1    0    0  501    0  0.00000000000E+00  0.00000000000E+00  0.17017929222E+03  0.17018403098E+03  0.12700000000E+01 0. -1.
         -4   -1    0    0    0  501 -0.00000000000E+00 -0.00000000000E+00 -0.22932241236E+02  0.22967380959E+02  0.12700000000E+01 0. -1.
         25    2    1    2    0    0  0.00000000000E+00  0.00000000000E+00  0.14724705098E+03  0.19315141193E+03  0.12500309560E+03 0.  0.
    9000005    1    3    3    0    0  0.56882534811E+02 -0.19937871572E+02  0.48125736357E+02  0.77137720923E+02  0.10000000000E+01 0.  0.
    9000005    1    3    3    0    0 -0.56882534811E+02  0.19937871572E+02  0.99121314623E+02  0.11601369101E+03  0.10000000000E+01 0.  0.
<mgrwt>
<rscale>  0 0.12500310E+03</rscale>
<asrwt>0</asrwt>
<pdfrwt beam="1">  1        4 0.26184497E-01 0.12500310E+03</pdfrwt>
<pdfrwt beam="2">  1       -4 0.35311047E-02 0.12500310E+03</pdfrwt>
<totfact> 0.91295523E+03</totfact>
</mgrwt>
</event>
<event>
 5    1  0.3236337E-002  0.1250003E+03  0.7818608E-02  0.1235069E+00
          4   -1    0    0  501    0  0.00000000000E+00  0.00000000000E+00  0.35142245514E+03  0.35142474995E+03  0.12700000000E+01 0.  1.
         -4   -1    0    0    0  501 -0.00000000000E+00 -0.00000000000E+00 -0.11076985447E+02  0.11149551856E+02  0.12700000000E+01 0.  1.
         25    2    1    2    0    0  0.00000000000E+00  0.00000000000E+00  0.34034546969E+03  0.36257430180E+03  0.12500034235E+03 0.  0.
    9000005    1    3    3    0    0  0.55249185753E+02  0.25129863395E+02  0.21332122162E+03  0.22179027515E+03  0.10000000000E+01 0.  0.
    9000005    1    3    3    0    0 -0.55249185753E+02 -0.25129863395E+02  0.12702424807E+03  0.14078402665E+03  0.10000000000E+01 0.  0.
<mgrwt>
<rscale>  0 0.12500034E+03</rscale>
<asrwt>0</asrwt>
<pdfrwt beam="1">  1        4 0.54070744E-01 0.12500034E+03</pdfrwt>
<pdfrwt beam="2">  1       -4 0.17099104E-02 0.12500034E+03</pdfrwt>
<totfact> 0.68362511E+03</totfact>
</mgrwt>
</event>
<event>
 5    1  0.3236337E-002  0.1249981E+03  0.7818608E-02  0.1235072E+00
         -4   -1    0    0    0  501 -0.00000000000E+00  0.00000000000E+00  0.36288326797E+03  0.36288549030E+03  0.12700000000E+01 0.  1.
          4   -1    0    0  501    0  0.00000000000E+00 -0.00000000000E+00 -0.10724430786E+02  0.10799366448E+02  0.12700000000E+01 0.  1.
         25    2    1    2    0    0  0.00000000000E+00  0.00000000000E+00  0.35215883719E+03  0.37368485675E+03  0.12499810222E+03 0.  0.
    9000005    1    3    3    0    0  0.26429407473E+00 -0.56941341255E+02  0.25304124634E+03  0.25937088993E+03  0.10000000000E+01 0.  0.
    9000005    1    3    3    0    0 -0.26429407473E+00  0.56941341255E+02  0.99117590845E+02  0.11431396682E+03  0.10000000000E+01 0.  0.
<mgrwt>
<rscale>  0 0.12499810E+03</rscale>
<asrwt>0</asrwt>
<pdfrwt beam="2">  1        4 0.16558480E-02 0.12499810E+03</pdfrwt>
<pdfrwt beam="1">  1       -4 0.55834119E-01 0.12499810E+03</pdfrwt>
<totfact> 0.67198011E+03</totfact>
</mgrwt>
</event>
<event>
 5    1  0.3236337E-002  0.1250018E+03  0.7818608E-02  0.1235066E+00
         -4   -1    0    0    0  501 -0.00000000000E+00  0.00000000000E+00  0.19442022206E+02  0.19483457790E+02  0.12700000000E+01 0. -1.
          4   -1    0    0  501    0  0.00000000000E+00 -0.00000000000E+00 -0.20066631139E+03  0.20067033021E+03  0.12700000000E+01 0. -1.
         25    2    1    2    0    0  0.00000000000E+00  0.00000000000E+00 -0.18122428918E+03  0.22015378800E+03  0.12500178951E+03 0.  0.
    9000005    1    3    3    0    0 -0.14058063121E+02  0.48896792116E+02 -0.15452317918E+03  0.16268662613E+03  0.10000000000E+01 0.  0.
    9000005    1    3    3    0    0  0.14058063121E+02 -0.48896792116E+02 -0.26701110005E+02  0.57467161870E+02  0.10000000000E+01 0.  0.
<mgrwt>
<rscale>  0 0.12500179E+03</rscale>
<asrwt>0</asrwt>
<pdfrwt beam="2">  1        4 0.30875235E-01 0.12500179E+03</pdfrwt>
<pdfrwt beam="1">  1       -4 0.29945770E-02 0.12500179E+03</pdfrwt>
<totfact> 0.86840550E+03</totfact>
</mgrwt>
</event>
<event>
 5    1  0.3236337E-002  0.1250003E+03  0.7818608E-02  0.1235069E+00
          4   -1    0    0  501    0  0.00000000000E+00  0.00000000000E+00  0.48580688240E+01  0.50213277824E+01  0.12700000000E+01 0. -1.
         -4   -1    0    0    0  501 -0.00000000000E+00 -0.00000000000E+00 -0.79062692600E+03  0.79062794602E+03  0.12700000000E+01 0. -1.
         25    2    1    2    0    0  0.00000000000E+00  0.00000000000E+00 -0.78576885718E+03  0.79564927380E+03  0.12500027993E+03 0.  0.
    9000005    1    3    3    0    0 -0.23061819742E+02 -0.17378496117E+02 -0.74564450605E+03  0.74620412024E+03  0.10000000000E+01 0.  0.
    9000005    1    3    3    0    0  0.23061819742E+02  0.17378496117E+02 -0.40124351130E+02  0.49445153561E+02  0.10000000000E+01 0.  0.
<mgrwt>
<rscale>  0 0.12500028E+03</rscale>
<asrwt>0</asrwt>
<pdfrwt beam="1">  1        4 0.76003268E-03 0.12500028E+03</pdfrwt>
<pdfrwt beam="2">  1       -4 0.12164745E+00 0.12500028E+03</pdfrwt>
<totfact> 0.38459486E+03</totfact>
</mgrwt>
</event>
<event>
 5    1  0.3236337E-002  0.1249987E+03  0.7818608E-02  0.1235071E+00
          4   -1    0    0  501    0  0.00000000000E+00  0.00000000000E+00  0.29443306897E+03  0.29443580795E+03  0.12700000000E+01 0. -1.
         -4   -1    0    0    0  501 -0.00000000000E+00 -0.00000000000E+00 -0.13233534827E+02  0.13294335034E+02  0.12700000000E+01 0. -1.
         25    2    1    2    0    0  0.00000000000E+00  0.00000000000E+00  0.28119953414E+03  0.30773014298E+03  0.12499865159E+03 0.  0.
    9000005    1    3    3    0    0 -0.34690232384E+02  0.45545522729E+02  0.20226249429E+03  0.21021161590E+03  0.10000000000E+01 0.  0.
    9000005    1    3    3    0    0  0.34690232384E+02 -0.45545522729E+02  0.78937039850E+02  0.97518527080E+02  0.10000000000E+01 0.  0.
<mgrwt>
<rscale>  0 0.12499865E+03</rscale>
<asrwt>0</asrwt>
<pdfrwt beam="1">  1        4 0.45302275E-01 0.12499865E+03</pdfrwt>
<pdfrwt beam="2">  1       -4 0.20408164E-02 0.12499865E+03</pdfrwt>
<totfact> 0.74641540E+03</totfact>
</mgrwt>
</event>
<event>
 5    1  0.3236337E-002  0.1249902E+03  0.7818608E-02  0.1235085E+00
         -4   -1    0    0    0  501 -0.00000000000E+00  0.00000000000E+00  0.79976302174E+03  0.79976403010E+03  0.12700000000E+01 0. -1.
          4   -1    0    0  501    0  0.00000000000E+00 -0.00000000000E+00 -0.47998953216E+01  0.49650674817E+01  0.12700000000E+01 0. -1.
         25    2    1    2    0    0  0.00000000000E+00  0.00000000000E+00  0.79496312642E+03  0.80472909758E+03  0.12499019214E+03 0.  0.
    9000005    1    3    3    0    0 -0.56891479709E+02  0.25483313871E+02  0.42524661720E+03  0.42979265372E+03  0.10000000000E+01 0.  0.
    9000005    1    3    3    0    0  0.56891479709E+02 -0.25483313871E+02  0.36971650922E+03  0.37493644386E+03  0.10000000000E+01 0.  0.
<mgrwt>
<rscale>  0 0.12499019E+03</rscale>
<asrwt>0</asrwt>
<pdfrwt beam="2">  1        4 0.75122890E-03 0.12499019E+03</pdfrwt>
<pdfrwt beam="1">  1       -4 0.12305319E+00 0.12499019E+03</pdfrwt>
<totfact> 0.38062645E+03</totfact>
</mgrwt>
</event>
<event>
 5    1  0.3236337E-002  0.1250018E+03  0.7818608E-02  0.1235066E+00
          4   -1    0    0  501    0  0.00000000000E+00  0.00000000000E+00  0.12374626656E+03  0.12375278336E+03  0.12700000000E+01 0. -1.
         -4   -1    0    0    0  501 -0.00000000000E+00 -0.00000000000E+00 -0.31547398353E+02  0.31572951127E+02  0.12700000000E+01 0. -1.
         25    2    1    2    0    0  0.00000000000E+00  0.00000000000E+00  0.92198868210E+02  0.15532573448E+03  0.12500180996E+03 0.  0.
    9000005    1    3    3    0    0  0.45030232394E+02 -0.41020045128E+02  0.28747763578E+02  0.67363193530E+02  0.10000000000E+01 0.  0.
    9000005    1    3    3    0    0 -0.45030232394E+02  0.41020045128E+02  0.63451104631E+02  0.87962540952E+02  0.10000000000E+01 0.  0.
<mgrwt>
<rscale>  0 0.12500181E+03</rscale>
<asrwt>0</asrwt>
<pdfrwt beam="1">  1        4 0.19040354E-01 0.12500181E+03</pdfrwt>
<pdfrwt beam="2">  1       -4 0.48559128E-02 0.12500181E+03</pdfrwt>
<totfact> 0.98247592E+03</totfact>
</mgrwt>
</event>
<event>
 5    1  0.3236337E-002  0.1249962E+03  0.7818608E-02  0.1235075E+00
         -4   -1    0    0    0  501 -0.00000000000E+00  0.00000000000E+00  0.27264529889E+03  0.27264825675E+03  0.12700000000E+01 0. -1.
          4   -1    0    0  501    0  0.00000000000E+00 -0.00000000000E+00 -0.14295173688E+02  0.14351476954E+02  0.12700000000E+01 0. -1.
         25    2    1    2    0    0  0.00000000000E+00  0.00000000000E+00  0.25835012520E+03  0.28699973370E+03  0.12499623975E+03 0.  0.
    9000005    1    3    3    0    0 -0.16621994012E+02 -0.12392113151E+02 -0.61792000752E+01  0.21657277457E+02  0.10000000000E+01 0.  0.
    9000005    1    3    3    0    0  0.16621994012E+02  0.12392113151E+02  0.26452932528E+03  0.26534245624E+03  0.10000000000E+01 0.  0.
<mgrwt>
<rscale>  0 0.12499624E+03</rscale>
<asrwt>0</asrwt>
<pdfrwt beam="2">  1        4 0.22038161E-02 0.12499624E+03</pdfrwt>
<pdfrwt beam="1">  1       -4 0.41949988E-01 0.12499624E+03</pdfrwt>
<totfact> 0.77265507E+03</totfact>
</mgrwt>
</event>
<event>
 5    1  0.3236337E-002  0.1250043E+03  0.7818608E-02  0.1235063E+00
          4   -1    0    0  501    0  0.00000000000E+00  0.00000000000E+00  0.12687581839E+03  0.12688217444E+03  0.12700000000E+01 0.  1.
         -4   -1    0    0    0  501 -0.00000000000E+00 -0.00000000000E+00 -0.30769859141E+02  0.30796057078E+02  0.12700000000E+01 0.  1.
         25    2    1    2    0    0  0.00000000000E+00  0.00000000000E+00  0.96105959245E+02  0.15767823152E+03  0.12500427710E+03 0.  0.
    9000005    1    3    3    0    0 -0.41683246795E+02 -0.46525683978E+02  0.45732244493E+02  0.77424611845E+02  0.10000000000E+01 0.  0.
    9000005    1    3    3    0    0  0.41683246795E+02  0.46525683978E+02  0.50373714752E+02  0.80253619675E+02  0.10000000000E+01 0.  0.
<mgrwt>
<rscale>  0 0.12500428E+03</rscale>
<asrwt>0</asrwt>
<pdfrwt beam="1">  1        4 0.19521861E-01 0.12500428E+03</pdfrwt>
<pdfrwt beam="2">  1       -4 0.47363286E-02 0.12500428E+03</pdfrwt>
<totfact> 0.97782876E+03</totfact>
</mgrwt>
</event>
<event>
 5    1  0.3236337E-002  0.1250003E+03  0.7818608E-02  0.1235069E+00
          4   -1    0    0  501    0  0.00000000000E+00  0.00000000000E+00  0.77789439785E+02  0.77799806183E+02  0.12700000000E+01 0. -1.
         -4   -1    0    0    0  501 -0.00000000000E+00 -0.00000000000E+00 -0.50194211568E+02  0.50210275591E+02  0.12700000000E+01 0. -1.
         25    2    1    2    0    0  0.00000000000E+00  0.00000000000E+00  0.27595228217E+02  0.12801008177E+03  0.12500033766E+03 0.  0.
    9000005    1    3    3    0    0  0.43353100330E+02  0.24187852656E+02  0.52668453923E+02  0.72384456639E+02  0.10000000000E+01 0.  0.
    9000005    1    3    3    0    0 -0.43353100330E+02 -0.24187852656E+02 -0.25073225706E+02  0.55625625135E+02  0.10000000000E+01 0.  0.
<mgrwt>
<rscale>  0 0.12500034E+03</rscale>
<asrwt>0</asrwt>
<pdfrwt beam="1">  1        4 0.11969639E-01 0.12500034E+03</pdfrwt>
<pdfrwt beam="2">  1       -4 0.77242195E-02 0.12500034E+03</pdfrwt>
<totfact> 0.10387191E+04</totfact>
</mgrwt>
</event>
<event>
 5    1  0.3236337E-002  0.1249997E+03  0.7818608E-02  0.1235070E+00
         -4   -1    0    0    0  501 -0.00000000000E+00  0.00000000000E+00  0.47827158677E+02  0.47844017464E+02  0.12700000000E+01 0. -1.
          4   -1    0    0  501    0  0.00000000000E+00 -0.00000000000E+00 -0.81637670430E+02  0.81647548238E+02  0.12700000000E+01 0. -1.
         25    2    1    2    0    0  0.00000000000E+00  0.00000000000E+00 -0.33810511753E+02  0.12949156570E+03  0.12499965953E+03 0.  0.
    9000005    1    3    3    0    0  0.44971261964E+02  0.41169437792E+02 -0.31105194310E+02  0.68453415720E+02  0.10000000000E+01 0.  0.
    9000005    1    3    3    0    0 -0.44971261964E+02 -0.41169437792E+02 -0.27053174424E+01  0.61038149982E+02  0.10000000000E+01 0.  0.
<mgrwt>
<rscale>  0 0.12499966E+03</rscale>
<asrwt>0</asrwt>
<pdfrwt beam="2">  1        4 0.12561698E-01 0.12499966E+03</pdfrwt>
<pdfrwt beam="1">  1       -4 0.73600811E-02 0.12499966E+03</pdfrwt>
<totfact> 0.10355476E+04</totfact>
</mgrwt>
</event>
<event>
 5    1  0.3236337E-002  0.1249989E+03  0.7818608E-02  0.1235071E+00
         -4   -1    0    0    0  501 -0.00000000000E+00  0.00000000000E+00  0.83183681948E+02  0.83193376193E+02  0.12700000000E+01 0. -1.
          4   -1    0    0  501    0  0.00000000000E+00 -0.00000000000E+00 -0.46937473654E+02  0.46954651878E+02  0.12700000000E+01 0. -1.
         25    2    1    2    0    0  0.00000000000E+00  0.00000000000E+00  0.36246208294E+02  0.13014802807E+03  0.12499888638E+03 0.  0.
    9000005    1    3    3    0    0  0.11545472979E+02 -0.55547778321E+02 -0.91539157025E+01  0.57477367680E+02  0.10000000000E+01 0.  0.
    9000005    1    3    3    0    0 -0.11545472979E+02  0.55547778321E+02  0.45400123997E+02  0.72670660391E+02  0.10000000000E+01 0.  0.
<mgrwt>
<rscale>  0 0.12499889E+03</rscale>
<asrwt>0</asrwt>
<pdfrwt beam="2">  1        4 0.72232170E-02 0.12499889E+03</pdfrwt>
<pdfrwt beam="1">  1       -4 0.12799556E-01 0.12499889E+03</pdfrwt>
<totfact> 0.10341602E+04</totfact>
</mgrwt>
</event>
<event>
 5    1  0.3236337E-002  0.1249987E+03  0.7818608E-02  0.1235071E+00
          4   -1    0    0  501    0  0.00000000000E+00  0.00000000000E+00  0.35530171664E+03  0.35530398639E+03  0.12700000000E+01 0.  1.
         -4   -1    0    0    0  501 -0.00000000000E+00 -0.00000000000E+00 -0.10954964042E+02  0.11028333381E+02  0.12700000000E+01 0.  1.
         25    2    1    2    0    0  0.00000000000E+00  0.00000000000E+00  0.34434675260E+03  0.36633231977E+03  0.12499872994E+03 0.  0.
    9000005    1    3    3    0    0  0.61066597051E+02 -0.12447907582E+02  0.15871422618E+03  0.17051476555E+03  0.10000000000E+01 0.  0.
    9000005    1    3    3    0    0 -0.61066597051E+02  0.12447907582E+02  0.18563252642E+03  0.19581755423E+03  0.10000000000E+01 0.  0.
<mgrwt>
<rscale>  0 0.12499873E+03</rscale>
<asrwt>0</asrwt>
<pdfrwt beam="1">  1        4 0.54667630E-01 0.12499873E+03</pdfrwt>
<pdfrwt beam="2">  1       -4 0.16911972E-02 0.12499873E+03</pdfrwt>
<totfact> 0.67966299E+03</totfact>
</mgrwt>
</event>
<event>
 5    1  0.3236337E-002  0.1250015E+03  0.7818608E-02  0.1235067E+00
          4   -1    0    0  501    0  0.00000000000E+00  0.00000000000E+00  0.26716205235E+02  0.26746374000E+02  0.12700000000E+01 0.  1.
         -4   -1    0    0    0  501 -0.00000000000E+00 -0.00000000000E+00 -0.14610085372E+03  0.14610637343E+03  0.12700000000E+01 0.  1.
         25    2    1    2    0    0  0.00000000000E+00  0.00000000000E+00 -0.11938464848E+03  0.17285274743E+03  0.12500151199E+03 0.  0.
    9000005    1    3    3    0    0  0.60107311002E+02 -0.16351006699E+02 -0.66620198472E+02  0.91211266302E+02  0.10000000000E+01 0.  0.
    9000005    1    3    3    0    0 -0.60107311002E+02  0.16351006699E+02 -0.52764450008E+02  0.81641481127E+02  0.10000000000E+01 0.  0.
<mgrwt>
<rscale>  0 0.12500151E+03</rscale>
<asrwt>0</asrwt>
<pdfrwt beam="1">  1        4 0.41129308E-02 0.12500151E+03</pdfrwt>
<pdfrwt beam="2">  1       -4 0.22479799E-01 0.12500151E+03</pdfrwt>
<totfact> 0.94916362E+03</totfact>
</mgrwt>
</event>
<event>
 5    1  0.3236337E-002  0.1250016E+03  0.7818608E-02  0.1235067E+00
          4   -1    0    0  501    0  0.00000000000E+00  0.00000000000E+00  0.41864078699E+03  0.41864271334E+03  0.12700000000E+01 0.  1.
         -4   -1    0    0    0  501 -0.00000000000E+00 -0.00000000000E+00 -0.92858577101E+01  0.93723024606E+01  0.12700000000E+01 0.  1.
         25    2    1    2    0    0  0.00000000000E+00  0.00000000000E+00  0.40935492928E+03  0.42801501580E+03  0.12500158249E+03 0.  0.
    9000005    1    3    3    0    0  0.58894623106E+01  0.56469655313E+02  0.29408726068E+03  0.29951932264E+03  0.10000000000E+01 0.  0.
    9000005    1    3    3    0    0 -0.58894623106E+01 -0.56469655313E+02  0.11526766860E+03  0.12849569317E+03  0.10000000000E+01 0.  0.
<mgrwt>
<rscale>  0 0.12500158E+03</rscale>
<asrwt>0</asrwt>
<pdfrwt beam="1">  1        4 0.64413070E-01 0.12500158E+03</pdfrwt>
<pdfrwt beam="2">  1       -4 0.14353913E-02 0.12500158E+03</pdfrwt>
<totfact> 0.61914170E+03</totfact>
</mgrwt>
</event>
<event>
 5    1  0.3236337E-002  0.1249999E+03  0.7818608E-02  0.1235069E+00
          4   -1    0    0  501    0  0.00000000000E+00  0.00000000000E+00  0.53344414067E+03  0.53344565245E+03  0.12700000000E+01 0.  1.
         -4   -1    0    0    0  501 -0.00000000000E+00 -0.00000000000E+00 -0.72660831862E+01  0.73762364976E+01  0.12700000000E+01 0.  1.
         25    2    1    2    0    0  0.00000000000E+00  0.00000000000E+00  0.52617805749E+03  0.54082188895E+03  0.12499986954E+03 0.  0.
    9000005    1    3    3    0    0  0.31997467475E+02 -0.25547961825E+02  0.46734325436E+03  0.46913457949E+03  0.10000000000E+01 0.  0.
    9000005    1    3    3    0    0 -0.31997467475E+02  0.25547961825E+02  0.58834803125E+02  0.71687309456E+02  0.10000000000E+01 0.  0.
<mgrwt>
<rscale>  0 0.12499987E+03</rscale>
<asrwt>0</asrwt>
<pdfrwt beam="1">  1        4 0.82076891E-01 0.12499987E+03</pdfrwt>
<pdfrwt beam="2">  1       -4 0.11264490E-02 0.12499987E+03</pdfrwt>
<totfact> 0.52830762E+03</totfact>
</mgrwt>
</event>
<event>
 5    1  0.3236337E-002  0.1249923E+03  0.7818608E-02  0.1235081E+00
          4   -1    0    0  501    0  0.00000000000E+00  0.00000000000E+00  0.54897486354E+02  0.54912174497E+02  0.12700000000E+01 0. -1.
         -4   -1    0    0    0  501 -0.00000000000E+00 -0.00000000000E+00 -0.71116730231E+02  0.71128069134E+02  0.12700000000E+01 0. -1.
         25    2    1    2    0    0  0.00000000000E+00  0.00000000000E+00 -0.16219243876E+02  0.12604024363E+03  0.12499231633E+03 0.  0.
    9000005    1    3    3    0    0 -0.36971042026E+02  0.40286035125E+02 -0.38611314295E+02  0.66945172837E+02  0.10000000000E+01 0.  0.
    9000005    1    3    3    0    0  0.36971042026E+02 -0.40286035125E+02  0.22392070418E+02  0.59095070794E+02  0.10000000000E+01 0.  0.
<mgrwt>
<rscale>  0 0.12499232E+03</rscale>
<asrwt>0</asrwt>
<pdfrwt beam="1">  1        4 0.84477692E-02 0.12499232E+03</pdfrwt>
<pdfrwt beam="2">  1       -4 0.10943038E-01 0.12499232E+03</pdfrwt>
<totfact> 0.10431884E+04</totfact>
</mgrwt>
</event>
<event>
 5    1  0.3236337E-002  0.1249984E+03  0.7818608E-02  0.1235072E+00
          4   -1    0    0  501    0  0.00000000000E+00  0.00000000000E+00  0.94625631909E+01  0.95474081374E+01  0.12700000000E+01 0. -1.
         -4   -1    0    0    0  501 -0.00000000000E+00 -0.00000000000E+00 -0.41087238233E+03  0.41087434510E+03  0.12700000000E+01 0. -1.
         25    2    1    2    0    0  0.00000000000E+00  0.00000000000E+00 -0.40140981914E+03  0.42042175324E+03  0.12499843077E+03 0.  0.
    9000005    1    3    3    0    0 -0.57732392201E+02  0.19731017770E+02 -0.15522911480E+03  0.16679154731E+03  0.10000000000E+01 0.  0.
    9000005    1    3    3    0    0  0.57732392201E+02 -0.19731017770E+02 -0.24618070434E+03  0.25363020593E+03  0.10000000000E+01 0.  0.
<mgrwt>
<rscale>  0 0.12499843E+03</rscale>
<asrwt>0</asrwt>
<pdfrwt beam="1">  1        4 0.14624568E-02 0.12499843E+03</pdfrwt>
<pdfrwt beam="2">  1       -4 0.63217799E-01 0.12499843E+03</pdfrwt>
<totfact> 0.62616075E+03</totfact>
</mgrwt>
</event>
<event>
 5    1  0.3236337E-002  0.1250017E+03  0.7818608E-02  0.1235067E+00
          4   -1    0    0  501    0  0.00000000000E+00  0.00000000000E+00  0.19331412261E+04  0.19331416432E+04  0.12700000000E+01 0.  1.
         -4   -1    0    0    0  501 -0.00000000000E+00 -0.00000000000E+00 -0.18207284954E+01  0.22198991540E+01  0.12700000000E+01 0.  1.
         25    2    1    2    0    0  0.00000000000E+00  0.00000000000E+00  0.19313204976E+04  0.19353615424E+04  0.12500174170E+03 0.  0.
    9000005    1    3    3    0    0  0.41305588787E+02  0.23124034124E+02  0.15973242792E+04  0.15980258838E+04  0.10000000000E+01 0.  0.
    9000005    1    3    3    0    0 -0.41305588787E+02 -0.23124034124E+02  0.33399621842E+03  0.33733565856E+03  0.10000000000E+01 0.  0.
<mgrwt>
<rscale>  0 0.12500174E+03</rscale>
<asrwt>0</asrwt>
<pdfrwt beam="1">  1        4 0.29743769E+00 0.12500174E+03</pdfrwt>
<pdfrwt beam="2">  1       -4 0.31084896E-03 0.12500174E+03</pdfrwt>
<totfact> 0.10728134E+03</totfact>
</mgrwt>
</event>
<event>
 5    1  0.3236337E-002  0.1250033E+03  0.7818608E-02  0.1235064E+00
         -4   -1    0    0    0  501 -0.00000000000E+00  0.00000000000E+00  0.55729894282E+01  0.57158648661E+01  0.12700000000E+01 0. -1.
          4   -1    0    0  501    0  0.00000000000E+00 -0.00000000000E+00 -0.69194774099E+03  0.69194890647E+03  0.12700000000E+01 0. -1.
         25    2    1    2    0    0  0.00000000000E+00  0.00000000000E+00 -0.68637475156E+03  0.69766477133E+03  0.12500333427E+03 0.  0.
    9000005    1    3    3    0    0 -0.32869047395E+02 -0.28488892418E+02 -0.59362378499E+03  0.59521608629E+03  0.10000000000E+01 0.  0.
    9000005    1    3    3    0    0  0.32869047395E+02  0.28488892418E+02 -0.92750966570E+02  0.10244868505E+03  0.10000000000E+01 0.  0.
<mgrwt>
<rscale>  0 0.12500333E+03</rscale>
<asrwt>0</asrwt>
<pdfrwt beam="2">  1        4 0.10646451E+00 0.12500333E+03</pdfrwt>
<pdfrwt beam="1">  1       -4 0.86846361E-03 0.12500333E+03</pdfrwt>
<totfact> 0.43207119E+03</totfact>
</mgrwt>
</event>
<event>
 5    1  0.3236337E-002  0.1250002E+03  0.7818608E-02  0.1235069E+00
         -4   -1    0    0    0  501 -0.00000000000E+00  0.00000000000E+00  0.67829003272E+03  0.67829122166E+03  0.12700000000E+01 0. -1.
          4   -1    0    0  501    0  0.00000000000E+00 -0.00000000000E+00 -0.56877558255E+01  0.58278183165E+01  0.12700000000E+01 0. -1.
         25    2    1    2    0    0  0.00000000000E+00  0.00000000000E+00  0.67260227689E+03  0.68411903998E+03  0.12500015192E+03 0.  0.
    9000005    1    3    3    0    0  0.48972190918E+02 -0.29387693678E+02  0.47511854811E+03  0.47854001587E+03  0.10000000000E+01 0.  0.
    9000005    1    3    3    0    0 -0.48972190918E+02  0.29387693678E+02  0.19748372878E+03  0.20557902411E+03  0.10000000000E+01 0.  0.
<mgrwt>
<rscale>  0 0.12500015E+03</rscale>
<asrwt>0</asrwt>
<pdfrwt beam="2">  1        4 0.88590521E-03 0.12500015E+03</pdfrwt>
<pdfrwt beam="1">  1       -4 0.10436314E+00 0.12500015E+03</pdfrwt>
<totfact> 0.43938262E+03</totfact>
</mgrwt>
</event>
<event>
 5    1  0.3236337E-002  0.1249973E+03  0.7818608E-02  0.1235073E+00
         -4   -1    0    0    0  501 -0.00000000000E+00  0.00000000000E+00  0.95822516645E+02  0.95830932355E+02  0.12700000000E+01 0. -1.
          4   -1    0    0  501    0  0.00000000000E+00 -0.00000000000E+00 -0.40743616274E+02  0.40763404754E+02  0.12700000000E+01 0. -1.
         25    2    1    2    0    0  0.00000000000E+00  0.00000000000E+00  0.55078900370E+02  0.13659433711E+03  0.12499731063E+03 0.  0.
    9000005    1    3    3    0    0 -0.13432779456E+02  0.11135048729E+02 -0.38033188940E+02  0.41856329689E+02  0.10000000000E+01 0.  0.
    9000005    1    3    3    0    0  0.13432779456E+02 -0.11135048729E+02  0.93112089310E+02  0.94738007420E+02  0.10000000000E+01 0.  0.
<mgrwt>
<rscale>  0 0.12499731E+03</rscale>
<asrwt>0</asrwt>
<pdfrwt beam="2">  1        4 0.62704183E-02 0.12499731E+03</pdfrwt>
<pdfrwt beam="1">  1       -4 0.14744095E-01 0.12499731E+03</pdfrwt>
<totfact> 0.10205193E+04</totfact>
</mgrwt>
</event>
<event>
 5    1  0.3236337E-002  0.1250024E+03  0.7818608E-02  0.1235066E+00
         -4   -1    0    0    0  501 -0.00000000000E+00  0.00000000000E+00  0.58535908474E+01  0.59897767745E+01  0.12700000000E+01 0. -1.
          4   -1    0    0  501    0  0.00000000000E+00 -0.00000000000E+00 -0.65954019439E+03  0.65954141713E+03  0.12700000000E+01 0. -1.
         25    2    1    2    0    0  0.00000000000E+00  0.00000000000E+00 -0.65368660354E+03  0.66553119391E+03  0.12500237764E+03 0.  0.
    9000005    1    3    3    0    0  0.69099109980E+01 -0.47826182955E+02 -0.53782391876E+03  0.53999135015E+03  0.10000000000E+01 0.  0.
    9000005    1    3    3    0    0 -0.69099109980E+01  0.47826182955E+02 -0.11586268478E+03  0.12553984375E+03  0.10000000000E+01 0.  0.
<mgrwt>
<rscale>  0 0.12500238E+03</rscale>
<asrwt>0</asrwt>
<pdfrwt beam="2">  1        4 0.10147823E+00 0.12500238E+03</pdfrwt>
<pdfrwt beam="1">  1       -4 0.91112286E-03 0.12500238E+03</pdfrwt>
<totfact> 0.44967398E+03</totfact>
</mgrwt>
</event>
<event>
 5    1  0.3236337E-002  0.1249918E+03  0.7818608E-02  0.1235082E+00
         -4   -1    0    0    0  501 -0.00000000000E+00  0.00000000000E+00  0.30125589568E+03  0.30125857263E+03  0.12700000000E+01 0.  1.
          4   -1    0    0  501    0  0.00000000000E+00 -0.00000000000E+00 -0.12931002471E+02  0.12993218420E+02  0.12700000000E+01 0.  1.
         25    2    1    2    0    0  0.00000000000E+00  0.00000000000E+00  0.28832489321E+03  0.31425179105E+03  0.12499177626E+03 0.  0.
    9000005    1    3    3    0    0  0.83331854719E+01  0.54776412417E+02  0.71518804983E+02  0.90475614414E+02  0.10000000000E+01 0.  0.
    9000005    1    3    3    0    0 -0.83331854719E+01 -0.54776412417E+02  0.21680608822E+03  0.22377617663E+03  0.10000000000E+01 0.  0.
<mgrwt>
<rscale>  0 0.12499178E+03</rscale>
<asrwt>0</asrwt>
<pdfrwt beam="2">  1        4 0.19943768E-02 0.12499178E+03</pdfrwt>
<pdfrwt beam="1">  1       -4 0.46352053E-01 0.12499178E+03</pdfrwt>
<totfact> 0.73858521E+03</totfact>
</mgrwt>
</event>
<event>
 5    1  0.3236337E-002  0.1250169E+03  0.7818608E-02  0.1235043E+00
          4   -1    0    0  501    0  0.00000000000E+00  0.00000000000E+00  0.53413385668E+03  0.53413536651E+03  0.12700000000E+01 0. -1.
         -4   -1    0    0    0  501 -0.00000000000E+00 -0.00000000000E+00 -0.72585614124E+01  0.73688271643E+01  0.12700000000E+01 0. -1.
         25    2    1    2    0    0  0.00000000000E+00  0.00000000000E+00  0.52687529527E+03  0.54150419367E+03  0.12501685886E+03 0.  0.
    9000005    1    3    3    0    0  0.62188878153E+02 -0.37024900465E+01  0.28515491066E+03  0.29188266148E+03  0.10000000000E+01 0.  0.
    9000005    1    3    3    0    0 -0.62188878153E+02  0.37024900465E+01  0.24172038460E+03  0.24962153219E+03  0.10000000000E+01 0.  0.
<mgrwt>
<rscale>  0 0.12501686E+03</rscale>
<asrwt>0</asrwt>
<pdfrwt beam="1">  1        4 0.82183068E-01 0.12501686E+03</pdfrwt>
<pdfrwt beam="2">  1       -4 0.11252995E-02 0.12501686E+03</pdfrwt>
<totfact> 0.52762517E+03</totfact>
</mgrwt>
</event>
<event>
 5    1  0.3236337E-002  0.1249979E+03  0.7818608E-02  0.1235073E+00
          4   -1    0    0  501    0  0.00000000000E+00  0.00000000000E+00  0.47830178952E+03  0.47830347558E+03  0.12700000000E+01 0. -1.
         -4   -1    0    0    0  501 -0.00000000000E+00 -0.00000000000E+00 -0.81155567926E+01  0.82143266342E+01  0.12700000000E+01 0. -1.
         25    2    1    2    0    0  0.00000000000E+00  0.00000000000E+00  0.47018623272E+03  0.48651780222E+03  0.12499791371E+03 0.  0.
    9000005    1    3    3    0    0 -0.23969392767E+02 -0.43419554366E+02  0.38306510073E+03  0.38626371936E+03  0.10000000000E+01 0.  0.
    9000005    1    3    3    0    0  0.23969392767E+02  0.43419554366E+02  0.87121131991E+02  0.10025408286E+03  0.10000000000E+01 0.  0.
<mgrwt>
<rscale>  0 0.12499791E+03</rscale>
<asrwt>0</asrwt>
<pdfrwt beam="1">  1        4 0.73592615E-01 0.12499791E+03</pdfrwt>
<pdfrwt beam="2">  1       -4 0.12562746E-02 0.12499791E+03</pdfrwt>
<totfact> 0.56928418E+03</totfact>
</mgrwt>
</event>
<event>
 5    1  0.3236337E-002  0.1249981E+03  0.7818608E-02  0.1235072E+00
          4   -1    0    0  501    0  0.00000000000E+00  0.00000000000E+00  0.84455926879E+02  0.84465475107E+02  0.12700000000E+01 0.  1.
         -4   -1    0    0    0  501 -0.00000000000E+00 -0.00000000000E+00 -0.46229627305E+02  0.46247068456E+02  0.12700000000E+01 0.  1.
         25    2    1    2    0    0  0.00000000000E+00  0.00000000000E+00  0.38226299574E+02  0.13071254356E+03  0.12499807625E+03 0.  0.
    9000005    1    3    3    0    0  0.33524344488E+02  0.38955472416E+02 -0.18060845469E+02  0.54484902896E+02  0.10000000000E+01 0.  0.
    9000005    1    3    3    0    0 -0.33524344488E+02 -0.38955472416E+02  0.56287145043E+02  0.76227640667E+02  0.10000000000E+01 0.  0.
<mgrwt>
<rscale>  0 0.12499808E+03</rscale>
<asrwt>0</asrwt>
<pdfrwt beam="1">  1        4 0.12995295E-01 0.12499808E+03</pdfrwt>
<pdfrwt beam="2">  1       -4 0.71143266E-02 0.12499808E+03</pdfrwt>
<totfact> 0.10329704E+04</totfact>
</mgrwt>
</event>
<event>
 5    1  0.3236337E-002  0.1250018E+03  0.7818608E-02  0.1235066E+00
         -4   -1    0    0    0  501 -0.00000000000E+00  0.00000000000E+00  0.49423270545E+03  0.49423433716E+03  0.12700000000E+01 0. -1.
          4   -1    0    0  501    0  0.00000000000E+00 -0.00000000000E+00 -0.78512213438E+01  0.79532745828E+01  0.12700000000E+01 0. -1.
         25    2    1    2    0    0  0.00000000000E+00  0.00000000000E+00  0.48638148410E+03  0.50218761175E+03  0.12500179725E+03 0.  0.
    9000005    1    3    3    0    0  0.34994117334E+02 -0.50868500487E+02  0.28196890018E+03  0.28865143904E+03  0.10000000000E+01 0.  0.
    9000005    1    3    3    0    0 -0.34994117334E+02  0.50868500487E+02  0.20441258392E+03  0.21353617271E+03  0.10000000000E+01 0.  0.
<mgrwt>
<rscale>  0 0.12500180E+03</rscale>
<asrwt>0</asrwt>
<pdfrwt beam="2">  1        4 0.12158555E-02 0.12500180E+03</pdfrwt>
<pdfrwt beam="1">  1       -4 0.76043806E-01 0.12500180E+03</pdfrwt>
<totfact> 0.55692817E+03</totfact>
</mgrwt>
</event>
<event>
 5    1  0.3236337E-002  0.1250008E+03  0.7818608E-02  0.1235068E+00
         -4   -1    0    0    0  501 -0.00000000000E+00  0.00000000000E+00  0.54903667245E+01  0.56353373252E+01  0.12700000000E+01 0.  1.
          4   -1    0    0  501    0  0.00000000000E+00 -0.00000000000E+00 -0.70206615310E+03  0.70206730178E+03  0.12700000000E+01 0.  1.
         25    2    1    2    0    0  0.00000000000E+00  0.00000000000E+00 -0.69657578638E+03  0.70770263911E+03  0.12500079692E+03 0.  0.
    9000005    1    3    3    0    0 -0.16721556086E+02 -0.23561253448E+02 -0.66201106302E+03  0.66264197774E+03  0.10000000000E+01 0.  0.
    9000005    1    3    3    0    0  0.16721556086E+02  0.23561253448E+02 -0.34564723353E+02  0.45060661363E+02  0.10000000000E+01 0.  0.
<mgrwt>
<rscale>  0 0.12500080E+03</rscale>
<asrwt>0</asrwt>
<pdfrwt beam="2">  1        4 0.10802135E+00 0.12500080E+03</pdfrwt>
<pdfrwt beam="1">  1       -4 0.85591230E-03 0.12500080E+03</pdfrwt>
<totfact> 0.42682471E+03</totfact>
</mgrwt>
</event>
<event>
 5    1  0.3236337E-002  0.1250020E+03  0.7818608E-02  0.1235066E+00
         -4   -1    0    0    0  501 -0.00000000000E+00  0.00000000000E+00  0.16254778679E+03  0.16255274802E+03  0.12700000000E+01 0. -1.
          4   -1    0    0  501    0  0.00000000000E+00 -0.00000000000E+00 -0.24010071019E+02  0.24043635547E+02  0.12700000000E+01 0. -1.
         25    2    1    2    0    0  0.00000000000E+00  0.00000000000E+00  0.13853771577E+03  0.18659638357E+03  0.12500204667E+03 0.  0.
    9000005    1    3    3    0    0 -0.29969268398E+02  0.39953478904E+02  0.13197582831E+02  0.51668304766E+02  0.10000000000E+01 0.  0.
    9000005    1    3    3    0    0  0.29969268398E+02 -0.39953478904E+02  0.12534013294E+03  0.13492807880E+03  0.10000000000E+01 0.  0.
<mgrwt>
<rscale>  0 0.12500205E+03</rscale>
<asrwt>0</asrwt>
<pdfrwt beam="2">  1        4 0.36968205E-02 0.12500205E+03</pdfrwt>
<pdfrwt beam="1">  1       -4 0.25010316E-01 0.12500205E+03</pdfrwt>
<totfact> 0.92438688E+03</totfact>
</mgrwt>
</event>
<event>
 5    1  0.3236337E-002  0.1250011E+03  0.7818608E-02  0.1235068E+00
         -4   -1    0    0    0  501 -0.00000000000E+00  0.00000000000E+00  0.20834329216E+02  0.20873001075E+02  0.12700000000E+01 0.  1.
          4   -1    0    0  501    0  0.00000000000E+00 -0.00000000000E+00 -0.18727955568E+03  0.18728386176E+03  0.12700000000E+01 0.  1.
         25    2    1    2    0    0  0.00000000000E+00  0.00000000000E+00 -0.16644522647E+03  0.20815686284E+03  0.12500106453E+03 0.  0.
    9000005    1    3    3    0    0 -0.30085045367E+02 -0.54669086774E+02 -0.77576113765E+02  0.99563409094E+02  0.10000000000E+01 0.  0.
    9000005    1    3    3    0    0  0.30085045367E+02  0.54669086774E+02 -0.88869112701E+02  0.10859345374E+03  0.10000000000E+01 0.  0.
<mgrwt>
<rscale>  0 0.12500106E+03</rscale>
<asrwt>0</asrwt>
<pdfrwt beam="2">  1        4 0.28815544E-01 0.12500106E+03</pdfrwt>
<pdfrwt beam="1">  1       -4 0.32085875E-02 0.12500106E+03</pdfrwt>
<totfact> 0.88775664E+03</totfact>
</mgrwt>
</event>
<event>
 5    1  0.3236337E-002  0.1250002E+03  0.7818608E-02  0.1235069E+00
         -4   -1    0    0    0  501 -0.00000000000E+00  0.00000000000E+00  0.16967012076E+02  0.17014476154E+02  0.12700000000E+01 0. -1.
          4   -1    0    0  501    0  0.00000000000E+00 -0.00000000000E+00 -0.22985611410E+03  0.22985962257E+03  0.12700000000E+01 0. -1.
         25    2    1    2    0    0  0.00000000000E+00  0.00000000000E+00 -0.21288910202E+03  0.24687409873E+03  0.12500020345E+03 0.  0.
    9000005    1    3    3    0    0 -0.55499497087E+02 -0.22244225635E+02 -0.70552791846E+02  0.92486194582E+02  0.10000000000E+01 0.  0.
    9000005    1    3    3    0    0  0.55499497087E+02  0.22244225635E+02 -0.14233631018E+03  0.15438790415E+03  0.10000000000E+01 0.  0.
<mgrwt>
<rscale>  0 0.12500020E+03</rscale>
<asrwt>0</asrwt>
<pdfrwt beam="2">  1        4 0.35366398E-01 0.12500020E+03</pdfrwt>
<pdfrwt beam="1">  1       -4 0.26142307E-02 0.12500020E+03</pdfrwt>
<totfact> 0.82783753E+03</totfact>
</mgrwt>
</event>
<event>
 5    1  0.3236337E-002  0.1250071E+03  0.7818608E-02  0.1235058E+00
          4   -1    0    0  501    0  0.00000000000E+00  0.00000000000E+00  0.21309109700E+02  0.21346921469E+02  0.12700000000E+01 0.  1.
         -4   -1    0    0    0  501 -0.00000000000E+00 -0.00000000000E+00 -0.18313181465E+03  0.18313621826E+03  0.12700000000E+01 0.  1.
         25    2    1    2    0    0  0.00000000000E+00  0.00000000000E+00 -0.16182270495E+03  0.20448313972E+03  0.12500706618E+03 0.  0.
    9000005    1    3    3    0    0  0.41422963884E+02  0.84486272014E+01 -0.15620045033E+03  0.16182342822E+03  0.10000000000E+01 0.  0.
    9000005    1    3    3    0    0 -0.41422963884E+02 -0.84486272014E+01 -0.56222546227E+01  0.42659711504E+02  0.10000000000E+01 0.  0.
<mgrwt>
<rscale>  0 0.12500707E+03</rscale>
<asrwt>0</asrwt>
<pdfrwt beam="1">  1        4 0.32815720E-02 0.12500707E+03</pdfrwt>
<pdfrwt beam="2">  1       -4 0.28177372E-01 0.12500707E+03</pdfrwt>
<totfact> 0.89370732E+03</totfact>
</mgrwt>
</event>
<event>
 5    1  0.3236337E-002  0.1249994E+03  0.7818608E-02  0.1235070E+00
          4   -1    0    0  501    0  0.00000000000E+00  0.00000000000E+00  0.66339014964E+02  0.66351170347E+02  0.12700000000E+01 0.  1.
         -4   -1    0    0    0  501 -0.00000000000E+00 -0.00000000000E+00 -0.58858208967E+02  0.58871908945E+02  0.12700000000E+01 0.  1.
         25    2    1    2    0    0  0.00000000000E+00  0.00000000000E+00  0.74808059970E+01  0.12522307929E+03  0.12499942852E+03 0.  0.
    9000005    1    3    3    0    0 -0.52745797349E+02 -0.10228973089E+02 -0.28230067948E+02  0.60701629012E+02  0.10000000000E+01 0.  0.
    9000005    1    3    3    0    0  0.52745797349E+02  0.10228973089E+02  0.35710873945E+02  0.64521450280E+02  0.10000000000E+01 0.  0.
<mgrwt>
<rscale>  0 0.12499943E+03</rscale>
<asrwt>0</asrwt>
<pdfrwt beam="1">  1        4 0.10207991E-01 0.12499943E+03</pdfrwt>
<pdfrwt beam="2">  1       -4 0.90570980E-02 0.12499943E+03</pdfrwt>
<totfact> 0.10448154E+04</totfact>
</mgrwt>
</event>
<event>
 5    1  0.3236337E-002  0.1249947E+03  0.7818608E-02  0.1235078E+00
         -4   -1    0    0    0  501 -0.00000000000E+00  0.00000000000E+00  0.14438837356E+03  0.14439395874E+03  0.12700000000E+01 0. -1.
          4   -1    0    0  501    0  0.00000000000E+00 -0.00000000000E+00 -0.27030440768E+02  0.27060259203E+02  0.12700000000E+01 0. -1.
         25    2    1    2    0    0  0.00000000000E+00  0.00000000000E+00  0.11735793279E+03  0.17145421794E+03  0.12499465772E+03 0.  0.
    9000005    1    3    3    0    0  0.12941060067E+02 -0.54500961481E+02  0.20688033249E+02  0.59722864614E+02  0.10000000000E+01 0.  0.
    9000005    1    3    3    0    0 -0.12941060067E+02  0.54500961481E+02  0.96669899544E+02  0.11173135332E+03  0.10000000000E+01 0.  0.
<mgrwt>
<rscale>  0 0.12499466E+03</rscale>
<asrwt>0</asrwt>
<pdfrwt beam="2">  1        4 0.41612527E-02 0.12499466E+03</pdfrwt>
<pdfrwt beam="1">  1       -4 0.22216319E-01 0.12499466E+03</pdfrwt>
<totfact> 0.95189694E+03</totfact>
</mgrwt>
</event>
<event>
 5    1  0.3236337E-002  0.1249994E+03  0.7818608E-02  0.1235070E+00
          4   -1    0    0  501    0  0.00000000000E+00  0.00000000000E+00  0.15758594360E+02  0.15809686783E+02  0.12700000000E+01 0.  1.
         -4   -1    0    0    0  501 -0.00000000000E+00 -0.00000000000E+00 -0.24742423608E+03  0.24742749544E+03  0.12700000000E+01 0.  1.
         25    2    1    2    0    0  0.00000000000E+00  0.00000000000E+00 -0.23166564172E+03  0.26323718222E+03  0.12499937820E+03 0.  0.
    9000005    1    3    3    0    0  0.56901230039E+02 -0.25546638118E+02 -0.12394273730E+03  0.13875583890E+03  0.10000000000E+01 0.  0.
    9000005    1    3    3    0    0 -0.56901230039E+02  0.25546638118E+02 -0.10772290442E+03  0.12448134333E+03  0.10000000000E+01 0.  0.
<mgrwt>
<rscale>  0 0.12499938E+03</rscale>
<asrwt>0</asrwt>
<pdfrwt beam="1">  1        4 0.24285802E-02 0.12499938E+03</pdfrwt>
<pdfrwt beam="2">  1       -4 0.38069445E-01 0.12499938E+03</pdfrwt>
<totfact> 0.80455018E+03</totfact>
</mgrwt>
</event>
<event>
 5    1  0.3236337E-002  0.1250030E+03  0.7818608E-02  0.1235065E+00
         -4   -1    0    0    0  501 -0.00000000000E+00  0.00000000000E+00  0.13476561825E+03  0.13477160221E+03  0.12700000000E+01 0.  1.
          4   -1    0    0  501    0  0.00000000000E+00 -0.00000000000E+00 -0.28966363966E+02  0.28994191511E+02  0.12700000000E+01 0.  1.
         25    2    1    2    0    0  0.00000000000E+00  0.00000000000E+00  0.10579925428E+03  0.16376579372E+03  0.12500301191E+03 0.  0.
    9000005    1    3    3    0    0 -0.23917508670E+02  0.20838022214E+01  0.12848935772E+03  0.13071688683E+03  0.10000000000E+01 0.  0.
    9000005    1    3    3    0    0  0.23917508670E+02 -0.20838022214E+01 -0.22690103443E+02  0.33048906895E+02  0.10000000000E+01 0.  0.
<mgrwt>
<rscale>  0 0.12500301E+03</rscale>
<asrwt>0</asrwt>
<pdfrwt beam="2">  1        4 0.44589645E-02 0.12500301E+03</pdfrwt>
<pdfrwt beam="1">  1       -4 0.20735773E-01 0.12500301E+03</pdfrwt>
<totfact> 0.96615104E+03</totfact>
</mgrwt>
</event>
<event>
 5    1  0.3236337E-002  0.1249948E+03  0.7818608E-02  0.1235077E+00
          4   -1    0    0  501    0  0.00000000000E+00  0.00000000000E+00  0.32297220902E+03  0.32297470597E+03  0.12700000000E+01 0.  1.
         -4   -1    0    0    0  501 -0.00000000000E+00 -0.00000000000E+00 -0.12057802142E+02  0.12124499680E+02  0.12700000000E+01 0.  1.
         25    2    1    2    0    0  0.00000000000E+00  0.00000000000E+00  0.31091440688E+03  0.33509920565E+03  0.12499483680E+03 0.  0.
    9000005    1    3    3    0    0 -0.44103964411E+02 -0.22439827645E+02  0.53152621867E+02  0.72628553289E+02  0.10000000000E+01 0.  0.
    9000005    1    3    3    0    0  0.44103964411E+02  0.22439827645E+02  0.25776178501E+03  0.26247065236E+03  0.10000000000E+01 0.  0.
<mgrwt>
<rscale>  0 0.12499484E+03</rscale>
<asrwt>0</asrwt>
<pdfrwt beam="1">  1        4 0.49693348E-01 0.12499484E+03</pdfrwt>
<pdfrwt beam="2">  1       -4 0.18603694E-02 0.12499484E+03</pdfrwt>
<totfact> 0.71403714E+03</totfact>
</mgrwt>
</event>
<event>
 5    1  0.3236337E-002  0.1249997E+03  0.7818608E-02  0.1235070E+00
         -4   -1    0    0    0  501 -0.00000000000E+00  0.00000000000E+00  0.17854058230E+02  0.17899170240E+02  0.12700000000E+01 0. -1.
          4   -1    0    0  501    0  0.00000000000E+00 -0.00000000000E+00 -0.21846363766E+03  0.21846732909E+03  0.12700000000E+01 0. -1.
         25    2    1    2    0    0  0.00000000000E+00  0.00000000000E+00 -0.20060957943E+03  0.23636649933E+03  0.12499967459E+03 0.  0.
    9000005    1    3    3    0    0 -0.67037883801E+01 -0.61167673589E+02 -0.79694046524E+02  0.10069044703E+03  0.10000000000E+01 0.  0.
    9000005    1    3    3    0    0  0.67037883801E+01  0.61167673589E+02 -0.12091553291E+03  0.13567605231E+03  0.10000000000E+01 0.  0.
<mgrwt>
<rscale>  0 0.12499967E+03</rscale>
<asrwt>0</asrwt>
<pdfrwt beam="2">  1        4 0.33613543E-01 0.12499967E+03</pdfrwt>
<pdfrwt beam="1">  1       -4 0.27505325E-02 0.12499967E+03</pdfrwt>
<totfact> 0.84342119E+03</totfact>
</mgrwt>
</event>
<event>
 5    1  0.3236337E-002  0.1250052E+03  0.7818608E-02  0.1235061E+00
         -4   -1    0    0    0  501 -0.00000000000E+00  0.00000000000E+00  0.42376223570E+02  0.42395250018E+02  0.12700000000E+01 0. -1.
          4   -1    0    0  501    0  0.00000000000E+00 -0.00000000000E+00 -0.92143851294E+02  0.92152602954E+02  0.12700000000E+01 0. -1.
         25    2    1    2    0    0  0.00000000000E+00  0.00000000000E+00 -0.49767627723E+02  0.13454785297E+03  0.12500523177E+03 0.  0.
    9000005    1    3    3    0    0  0.36005604962E+02 -0.36924609978E+02 -0.62873301334E+02  0.81325779623E+02  0.10000000000E+01 0.  0.
    9000005    1    3    3    0    0 -0.36005604962E+02  0.36924609978E+02  0.13105673610E+02  0.53222073349E+02  0.10000000000E+01 0.  0.
<mgrwt>
<rscale>  0 0.12500523E+03</rscale>
<asrwt>0</asrwt>
<pdfrwt beam="2">  1        4 0.14178114E-01 0.12500523E+03</pdfrwt>
<pdfrwt beam="1">  1       -4 0.65215558E-02 0.12500523E+03</pdfrwt>
<totfact> 0.10246401E+04</totfact>
</mgrwt>
</event>
<event>
 5    1  0.3236337E-002  0.1250121E+03  0.7818608E-02  0.1235050E+00
         -4   -1    0    0    0  501 -0.00000000000E+00  0.00000000000E+00  0.57928641655E+02  0.57942561421E+02  0.12700000000E+01 0. -1.
          4   -1    0    0  501    0  0.00000000000E+00 -0.00000000000E+00 -0.67417139121E+02  0.67429100151E+02  0.12700000000E+01 0. -1.
         25    2    1    2    0    0  0.00000000000E+00  0.00000000000E+00 -0.94884974654E+01  0.12537166157E+03  0.12501208718E+03 0.  0.
    9000005    1    3    3    0    0 -0.21797552044E+02 -0.41351445304E+02 -0.46347665666E+02  0.65834500200E+02  0.10000000000E+01 0.  0.
    9000005    1    3    3    0    0  0.21797552044E+02  0.41351445304E+02  0.36859168201E+02  0.59537161373E+02  0.10000000000E+01 0.  0.
<mgrwt>
<rscale>  0 0.12501209E+03</rscale>
<asrwt>0</asrwt>
<pdfrwt beam="2">  1        4 0.10373858E-01 0.12501209E+03</pdfrwt>
<pdfrwt beam="1">  1       -4 0.89140896E-02 0.12501209E+03</pdfrwt>
<totfact> 0.10441943E+04</totfact>
</mgrwt>
</event>
<event>
 5    1  0.3236337E-002  0.1249939E+03  0.7818608E-02  0.1235079E+00
          4   -1    0    0  501    0  0.00000000000E+00  0.00000000000E+00  0.19357477463E+03  0.19357894067E+03  0.12700000000E+01 0.  1.
         -4   -1    0    0    0  501 -0.00000000000E+00 -0.00000000000E+00 -0.20153213211E+02  0.20193189514E+02  0.12700000000E+01 0.  1.
         25    2    1    2    0    0  0.00000000000E+00  0.00000000000E+00  0.17342156142E+03  0.21377213019E+03  0.12499394258E+03 0.  0.
    9000005    1    3    3    0    0  0.34888691688E+02 -0.70250902491E+01  0.17455720758E+03  0.17815103541E+03  0.10000000000E+01 0.  0.
    9000005    1    3    3    0    0 -0.34888691688E+02  0.70250902491E+01 -0.11356461632E+01  0.35621094774E+02  0.10000000000E+01 0.  0.
<mgrwt>
<rscale>  0 0.12499394E+03</rscale>
<asrwt>0</asrwt>
<pdfrwt beam="1">  1        4 0.29784130E-01 0.12499394E+03</pdfrwt>
<pdfrwt beam="2">  1       -4 0.31038900E-02 0.12499394E+03</pdfrwt>
<totfact> 0.87875420E+03</totfact>
</mgrwt>
</event>
<event>
 5    1  0.3236337E-002  0.1249944E+03  0.7818608E-02  0.1235078E+00
         -4   -1    0    0    0  501 -0.00000000000E+00  0.00000000000E+00  0.28003191209E+03  0.28003479193E+03  0.12700000000E+01 0. -1.
          4   -1    0    0  501    0  0.00000000000E+00 -0.00000000000E+00 -0.13916185204E+02  0.13974015552E+02  0.12700000000E+01 0. -1.
         25    2    1    2    0    0  0.00000000000E+00  0.00000000000E+00  0.26611572689E+03  0.29400880748E+03  0.12499439499E+03 0.  0.
    9000005    1    3    3    0    0 -0.66267490529E+01 -0.42271162318E+02  0.25933492833E+02  0.50043091604E+02  0.10000000000E+01 0.  0.
    9000005    1    3    3    0    0  0.66267490529E+01  0.42271162318E+02  0.24018223406E+03  0.24396571588E+03  0.10000000000E+01 0.  0.
<mgrwt>
<rscale>  0 0.12499439E+03</rscale>
<asrwt>0</asrwt>
<pdfrwt beam="2">  1        4 0.21456216E-02 0.12499439E+03</pdfrwt>
<pdfrwt beam="1">  1       -4 0.43086501E-01 0.12499439E+03</pdfrwt>
<totfact> 0.76366066E+03</totfact>
</mgrwt>
</event>
<event>
 5    1  0.3236337E-002  0.1249982E+03  0.7818608E-02  0.1235072E+00
         -4   -1    0    0    0  501 -0.00000000000E+00  0.00000000000E+00  0.77338532684E+02  0.77348959513E+02  0.12700000000E+01 0.  1.
          4   -1    0    0  501    0  0.00000000000E+00 -0.00000000000E+00 -0.50485223225E+02  0.50501194680E+02  0.12700000000E+01 0.  1.
         25    2    1    2    0    0  0.00000000000E+00  0.00000000000E+00  0.26853309459E+02  0.12785015419E+03  0.12499824678E+03 0.  0.
    9000005    1    3    3    0    0 -0.56034452382E+02  0.18829146332E+02  0.34155869585E+02  0.68278986756E+02  0.10000000000E+01 0.  0.
    9000005    1    3    3    0    0  0.56034452382E+02 -0.18829146332E+02 -0.73025601266E+01  0.59571167437E+02  0.10000000000E+01 0.  0.
<mgrwt>
<rscale>  0 0.12499825E+03</rscale>
<asrwt>0</asrwt>
<pdfrwt beam="2">  1        4 0.77689880E-02 0.12499825E+03</pdfrwt>
<pdfrwt beam="1">  1       -4 0.11900267E-01 0.12499825E+03</pdfrwt>
<totfact> 0.10391136E+04</totfact>
</mgrwt>
</event>
<event>
 5    1  0.3236337E-002  0.1250082E+03  0.7818608E-02  0.1235057E+00
          4   -1    0    0  501    0  0.00000000000E+00  0.00000000000E+00  0.18354289122E+02  0.18398174615E+02  0.12700000000E+01 0. -1.
         -4   -1    0    0    0  501 -0.00000000000E+00 -0.00000000000E+00 -0.21255275302E+03  0.21255654710E+03  0.12700000000E+01 0. -1.
         25    2    1    2    0    0  0.00000000000E+00  0.00000000000E+00 -0.19419846390E+03  0.23095472172E+03  0.12500816015E+03 0.  0.
    9000005    1    3    3    0    0 -0.54882081698E+02  0.28923732611E+02 -0.83134296347E+02  0.10373493350E+03  0.10000000000E+01 0.  0.
    9000005    1    3    3    0    0  0.54882081698E+02 -0.28923732611E+02 -0.11106416755E+03  0.12721978822E+03  0.10000000000E+01 0.  0.
<mgrwt>
<rscale>  0 0.12500816E+03</rscale>
<asrwt>0</asrwt>
<pdfrwt beam="1">  1        4 0.28274046E-02 0.12500816E+03</pdfrwt>
<pdfrwt beam="2">  1       -4 0.32704090E-01 0.12500816E+03</pdfrwt>
<totfact> 0.85147712E+03</totfact>
</mgrwt>
</event>
<event>
 5    1  0.3236337E-002  0.1249797E+03  0.7818608E-02  0.1235101E+00
          4   -1    0    0  501    0  0.00000000000E+00  0.00000000000E+00  0.14115170567E+03  0.14115741891E+03  0.12700000000E+01 0. -1.
         -4   -1    0    0    0  501 -0.00000000000E+00 -0.00000000000E+00 -0.27644286194E+02  0.27673443212E+02  0.12700000000E+01 0. -1.
         25    2    1    2    0    0  0.00000000000E+00  0.00000000000E+00  0.11350741948E+03  0.16883086212E+03  0.12497970127E+03 0.  0.
    9000005    1    3    3    0    0 -0.40698437798E+02  0.26070155745E+02  0.32627220202E+01  0.48452669841E+02  0.10000000000E+01 0.  0.
    9000005    1    3    3    0    0  0.40698437798E+02 -0.26070155745E+02  0.11024469746E+03  0.12037819228E+03  0.10000000000E+01 0.  0.
<mgrwt>
<rscale>  0 0.12497970E+03</rscale>
<asrwt>0</asrwt>
<pdfrwt beam="1">  1        4 0.21718330E-01 0.12497970E+03</pdfrwt>
<pdfrwt beam="2">  1       -4 0.42556494E-02 0.12497970E+03</pdfrwt>
<totfact> 0.95710385E+03</totfact>
</mgrwt>
</event>
<event>
 5    1  0.3236337E-002  0.1249976E+03  0.7818608E-02  0.1235073E+00
         -4   -1    0    0    0  501 -0.00000000000E+00  0.00000000000E+00  0.40905226154E+02  0.40924936490E+02  0.12700000000E+01 0. -1.
          4   -1    0    0  501    0  0.00000000000E+00 -0.00000000000E+00 -0.95444483595E+02  0.95452932635E+02  0.12700000000E+01 0. -1.
         25    2    1    2    0    0  0.00000000000E+00  0.00000000000E+00 -0.54539257441E+02  0.13637786913E+03  0.12499757032E+03 0.  0.
    9000005    1    3    3    0    0  0.85477610269E+01 -0.23427763745E+02  0.35246095498E+02  0.43188095357E+02  0.10000000000E+01 0.  0.
    9000005    1    3    3    0    0 -0.85477610269E+01  0.23427763745E+02 -0.89785352939E+02  0.93189773769E+02  0.10000000000E+01 0.  0.
<mgrwt>
<rscale>  0 0.12499757E+03</rscale>
<asrwt>0</asrwt>
<pdfrwt beam="2">  1        4 0.14685933E-01 0.12499757E+03</pdfrwt>
<pdfrwt beam="1">  1       -4 0.62952778E-02 0.12499757E+03</pdfrwt>
<totfact> 0.10209669E+04</totfact>
</mgrwt>
</event>
<event>
 5    1  0.3236337E-002  0.1249992E+03  0.7818608E-02  0.1235071E+00
         -4   -1    0    0    0  501 -0.00000000000E+00  0.00000000000E+00  0.97773151740E+03  0.97773234222E+03  0.12700000000E+01 0.  1.
          4   -1    0    0  501    0  0.00000000000E+00 -0.00000000000E+00 -0.38933906585E+01  0.40952888567E+01  0.12700000000E+01 0.  1.
         25    2    1    2    0    0  0.00000000000E+00  0.00000000000E+00  0.97383812674E+03  0.98182763107E+03  0.12499920018E+03 0.  0.
    9000005    1    3    3    0    0  0.24217428460E+01  0.42840122084E+02  0.13006628585E+03  0.13696488460E+03  0.10000000000E+01 0.  0.
    9000005    1    3    3    0    0 -0.24217428460E+01 -0.42840122084E+02  0.84377184089E+03  0.84486274647E+03  0.10000000000E+01 0.  0.
<mgrwt>
<rscale>  0 0.12499920E+03</rscale>
<asrwt>0</asrwt>
<pdfrwt beam="2">  1        4 0.61457720E-03 0.12499920E+03</pdfrwt>
<pdfrwt beam="1">  1       -4 0.15043584E+00 0.12499920E+03</pdfrwt>
<totfact> 0.31212763E+03</totfact>
</mgrwt>
</event>
<event>
 5    1  0.3236337E-002  0.1249973E+03  0.7818608E-02  0.1235074E+00
          4   -1    0    0  501    0  0.00000000000E+00  0.00000000000E+00  0.27325386539E+03  0.27325681666E+03  0.12700000000E+01 0.  1.
         -4   -1    0    0    0  501 -0.00000000000E+00 -0.00000000000E+00 -0.14263452759E+02  0.14319880747E+02  0.12700000000E+01 0.  1.
         25    2    1    2    0    0  0.00000000000E+00  0.00000000000E+00  0.25899041263E+03  0.28757669740E+03  0.12499729219E+03 0.  0.
    9000005    1    3    3    0    0  0.15690925430E+02  0.49948123675E+02  0.20799000413E+03  0.21448044670E+03  0.10000000000E+01 0.  0.
    9000005    1    3    3    0    0 -0.15690925430E+02 -0.49948123675E+02  0.51000408500E+02  0.73096250702E+02  0.10000000000E+01 0.  0.
<mgrwt>
<rscale>  0 0.12499729E+03</rscale>
<asrwt>0</asrwt>
<pdfrwt beam="1">  1        4 0.42043618E-01 0.12499729E+03</pdfrwt>
<pdfrwt beam="2">  1       -4 0.21989453E-02 0.12499729E+03</pdfrwt>
<totfact> 0.77188745E+03</totfact>
</mgrwt>
</event>
<event>
 5    1  0.3236337E-002  0.1250005E+03  0.7818608E-02  0.1235069E+00
         -4   -1    0    0    0  501 -0.00000000000E+00  0.00000000000E+00  0.58932732040E+01  0.60285627687E+01  0.12700000000E+01 0.  1.
          4   -1    0    0  501    0  0.00000000000E+00 -0.00000000000E+00 -0.65517896696E+03  0.65518019785E+03  0.12700000000E+01 0.  1.
         25    2    1    2    0    0  0.00000000000E+00  0.00000000000E+00 -0.64928569376E+03  0.66120876061E+03  0.12500045198E+03 0.  0.
    9000005    1    3    3    0    0 -0.15674307490E+01 -0.30253998894E+02 -0.35520137193E+02  0.46695197124E+02  0.10000000000E+01 0.  0.
    9000005    1    3    3    0    0  0.15674307490E+01  0.30253998894E+02 -0.61376555656E+03  0.61451356349E+03  0.10000000000E+01 0.  0.
<mgrwt>
<rscale>  0 0.12500045E+03</rscale>
<asrwt>0</asrwt>
<pdfrwt beam="2">  1        4 0.10080721E+00 0.12500045E+03</pdfrwt>
<pdfrwt beam="1">  1       -4 0.91715951E-03 0.12500045E+03</pdfrwt>
<totfact> 0.45214493E+03</totfact>
</mgrwt>
</event>
<event>
 5    1  0.3236337E-002  0.1250146E+03  0.7818608E-02  0.1235046E+00
          4   -1    0    0  501    0  0.00000000000E+00  0.00000000000E+00  0.62929772040E+01  0.64198490707E+01  0.12700000000E+01 0.  1.
         -4   -1    0    0    0  501 -0.00000000000E+00 -0.00000000000E+00 -0.61455269288E+03  0.61455400514E+03  0.12700000000E+01 0.  1.
         25    2    1    2    0    0  0.00000000000E+00  0.00000000000E+00 -0.60825971568E+03  0.62097385421E+03  0.12501458272E+03 0.  0.
    9000005    1    3    3    0    0  0.67496899040E+01 -0.36141053594E+02 -0.53080322683E+02  0.64577509435E+02  0.10000000000E+01 0.  0.
    9000005    1    3    3    0    0 -0.67496899040E+01  0.36141053594E+02 -0.55517939300E+03  0.55639634477E+03  0.10000000000E+01 0.  0.
<mgrwt>
<rscale>  0 0.12501458E+03</rscale>
<asrwt>0</asrwt>
<pdfrwt beam="1">  1        4 0.97801114E-03 0.12501458E+03</pdfrwt>
<pdfrwt beam="2">  1       -4 0.94556381E-01 0.12501458E+03</pdfrwt>
<totfact> 0.47554708E+03</totfact>
</mgrwt>
</event>
<event>
 5    1  0.3236337E-002  0.1250003E+03  0.7818608E-02  0.1235069E+00
          4   -1    0    0  501    0  0.00000000000E+00  0.00000000000E+00  0.42680682589E+02  0.42699573374E+02  0.12700000000E+01 0.  1.
         -4   -1    0    0    0  501 -0.00000000000E+00 -0.00000000000E+00 -0.91479544860E+02  0.91488360068E+02  0.12700000000E+01 0.  1.
         25    2    1    2    0    0  0.00000000000E+00  0.00000000000E+00 -0.48798862271E+02  0.13418793344E+03  0.12500029009E+03 0.  0.
    9000005    1    3    3    0    0 -0.17980780299E+02  0.26312690136E+02  0.33306633645E+02  0.46108545489E+02  0.10000000000E+01 0.  0.
    9000005    1    3    3    0    0  0.17980780299E+02 -0.26312690136E+02 -0.82105495916E+02  0.88079387952E+02  0.10000000000E+01 0.  0.
<mgrwt>
<rscale>  0 0.12500029E+03</rscale>
<asrwt>0</asrwt>
<pdfrwt beam="1">  1        4 0.65683901E-02 0.12500029E+03</pdfrwt>
<pdfrwt beam="2">  1       -4 0.14075907E-01 0.12500029E+03</pdfrwt>
<totfact> 0.10255149E+04</totfact>
</mgrwt>
</event>
<event>
 5    1  0.3236337E-002  0.1249985E+03  0.7818608E-02  0.1235072E+00
         -4   -1    0    0    0  501 -0.00000000000E+00  0.00000000000E+00  0.25056217688E+03  0.25056539542E+03  0.12700000000E+01 0. -1.
          4   -1    0    0  501    0  0.00000000000E+00 -0.00000000000E+00 -0.15560370814E+02  0.15612111961E+02  0.12700000000E+01 0. -1.
         25    2    1    2    0    0  0.00000000000E+00  0.00000000000E+00  0.23500180607E+03  0.26617750738E+03  0.12499846632E+03 0.  0.
    9000005    1    3    3    0    0  0.12836744509E+02  0.18367148313E+02  0.24172301826E+03  0.24276151199E+03  0.10000000000E+01 0.  0.
    9000005    1    3    3    0    0 -0.12836744509E+02 -0.18367148313E+02 -0.67212121964E+01  0.23415995391E+02  0.10000000000E+01 0.  0.
<mgrwt>
<rscale>  0 0.12499847E+03</rscale>
<asrwt>0</asrwt>
<pdfrwt beam="2">  1        4 0.23981312E-02 0.12499847E+03</pdfrwt>
<pdfrwt beam="1">  1       -4 0.38552250E-01 0.12499847E+03</pdfrwt>
<totfact> 0.80049611E+03</totfact>
</mgrwt>
</event>
<event>
 5    1  0.3236337E-002  0.1249982E+03  0.7818608E-02  0.1235072E+00
         -4   -1    0    0    0  501 -0.00000000000E+00  0.00000000000E+00  0.50018785412E+03  0.50018946641E+03  0.12700000000E+01 0.  1.
          4   -1    0    0  501    0  0.00000000000E+00 -0.00000000000E+00 -0.77560771578E+01  0.78593659336E+01  0.12700000000E+01 0.  1.
         25    2    1    2    0    0  0.00000000000E+00  0.00000000000E+00  0.49243177696E+03  0.50804883235E+03  0.12499824433E+03 0.  0.
    9000005    1    3    3    0    0  0.55357018190E+02  0.18822834342E+02  0.33585900572E+03  0.34091196852E+03  0.10000000000E+01 0.  0.
    9000005    1    3    3    0    0 -0.55357018190E+02 -0.18822834342E+02  0.15657277124E+03  0.16713686382E+03  0.10000000000E+01 0.  0.
<mgrwt>
<rscale>  0 0.12499824E+03</rscale>
<asrwt>0</asrwt>
<pdfrwt beam="2">  1        4 0.12013115E-02 0.12499824E+03</pdfrwt>
<pdfrwt beam="1">  1       -4 0.76960074E-01 0.12499824E+03</pdfrwt>
<totfact> 0.55247357E+03</totfact>
</mgrwt>
</event>
<event>
 5    1  0.3236337E-002  0.1249997E+03  0.7818608E-02  0.1235070E+00
         -4   -1    0    0    0  501 -0.00000000000E+00  0.00000000000E+00  0.16967650967E+02  0.17015113263E+02  0.12700000000E+01 0.  1.
          4   -1    0    0  501    0  0.00000000000E+00 -0.00000000000E+00 -0.22984574548E+03  0.22984925411E+03  0.12700000000E+01 0.  1.
         25    2    1    2    0    0  0.00000000000E+00  0.00000000000E+00 -0.21287809452E+03  0.24686436738E+03  0.12499973102E+03 0.  0.
    9000005    1    3    3    0    0  0.10639976882E+02 -0.60452697902E+02 -0.83281454654E+02  0.10346273958E+03  0.10000000000E+01 0.  0.
    9000005    1    3    3    0    0 -0.10639976882E+02  0.60452697902E+02 -0.12959663986E+03  0.14340162780E+03  0.10000000000E+01 0.  0.
<mgrwt>
<rscale>  0 0.12499973E+03</rscale>
<asrwt>0</asrwt>
<pdfrwt beam="2">  1        4 0.35364802E-01 0.12499973E+03</pdfrwt>
<pdfrwt beam="1">  1       -4 0.26143289E-02 0.12499973E+03</pdfrwt>
<totfact> 0.82786044E+03</totfact>
</mgrwt>
</event>
<event>
 5    1  0.3236337E-002  0.1250133E+03  0.7818608E-02  0.1235049E+00
         -4   -1    0    0    0  501 -0.00000000000E+00  0.00000000000E+00  0.92846986261E+03  0.92847073119E+03  0.12700000000E+01 0.  1.
          4   -1    0    0  501    0  0.00000000000E+00 -0.00000000000E+00 -0.41113734843E+01  0.43030561148E+01  0.12700000000E+01 0.  1.
         25    2    1    2    0    0  0.00000000000E+00  0.00000000000E+00  0.92435848913E+03  0.93277378731E+03  0.12501328675E+03 0.  0.
    9000005    1    3    3    0    0 -0.31060389128E+02 -0.19932859317E+02  0.85839667834E+02  0.93442577165E+02  0.10000000000E+01 0.  0.
    9000005    1    3    3    0    0  0.31060389128E+02  0.19932859317E+02  0.83851882129E+03  0.83933121014E+03  0.10000000000E+01 0.  0.
<mgrwt>
<rscale>  0 0.12501329E+03</rscale>
<asrwt>0</asrwt>
<pdfrwt beam="2">  1        4 0.64733097E-03 0.12501329E+03</pdfrwt>
<pdfrwt beam="1">  1       -4 0.14285625E+00 0.12501329E+03</pdfrwt>
<totfact> 0.32926045E+03</totfact>
</mgrwt>
</event>
<event>
 5    1  0.3236337E-002  0.1249983E+03  0.7818608E-02  0.1235072E+00
         -4   -1    0    0    0  501 -0.00000000000E+00  0.00000000000E+00  0.59562584817E+02  0.59576122819E+02  0.12700000000E+01 0.  1.
          4   -1    0    0  501    0  0.00000000000E+00 -0.00000000000E+00 -0.65553379337E+02  0.65565680371E+02  0.12700000000E+01 0.  1.
         25    2    1    2    0    0  0.00000000000E+00  0.00000000000E+00 -0.59907945195E+01  0.12514180319E+03  0.12499832514E+03 0.  0.
    9000005    1    3    3    0    0  0.39749442908E+02  0.47911367692E+02  0.24540074176E+01  0.62310027428E+02  0.10000000000E+01 0.  0.
    9000005    1    3    3    0    0 -0.39749442908E+02 -0.47911367692E+02 -0.84448019371E+01  0.62831775762E+02  0.10000000000E+01 0.  0.
<mgrwt>
<rscale>  0 0.12499833E+03</rscale>
<asrwt>0</asrwt>
<pdfrwt beam="2">  1        4 0.10087123E-01 0.12499833E+03</pdfrwt>
<pdfrwt beam="1">  1       -4 0.91654622E-02 0.12499833E+03</pdfrwt>
<totfact> 0.10450179E+04</totfact>
</mgrwt>
</event>
<event>
 5    1  0.3236337E-002  0.1250001E+03  0.7818608E-02  0.1235069E+00
         -4   -1    0    0    0  501 -0.00000000000E+00  0.00000000000E+00  0.14671507877E+03  0.14672057538E+03  0.12700000000E+01 0.  1.
          4   -1    0    0  501    0  0.00000000000E+00 -0.00000000000E+00 -0.26603612933E+02  0.26633909234E+02  0.12700000000E+01 0.  1.
         25    2    1    2    0    0  0.00000000000E+00  0.00000000000E+00  0.12011146584E+03  0.17335448461E+03  0.12500005244E+03 0.  0.
    9000005    1    3    3    0    0 -0.46323036225E+02  0.32393164898E+02  0.97012030246E+02  0.11228301220E+03  0.10000000000E+01 0.  0.
    9000005    1    3    3    0    0  0.46323036225E+02 -0.32393164898E+02  0.23099435592E+02  0.61071472406E+02  0.10000000000E+01 0.  0.
<mgrwt>
<rscale>  0 0.12500005E+03</rscale>
<asrwt>0</asrwt>
<pdfrwt beam="2">  1        4 0.40956167E-02 0.12500005E+03</pdfrwt>
<pdfrwt beam="1">  1       -4 0.22574305E-01 0.12500005E+03</pdfrwt>
<totfact> 0.94826967E+03</totfact>
</mgrwt>
</event>
<event>
 5    1  0.3236337E-002  0.1249988E+03  0.7818608E-02  0.1235071E+00
          4   -1    0    0  501    0  0.00000000000E+00  0.00000000000E+00  0.10563778695E+03  0.10564542078E+03  0.12700000000E+01 0.  1.
         -4   -1    0    0    0  501 -0.00000000000E+00 -0.00000000000E+00 -0.36957155458E+02  0.36978970234E+02  0.12700000000E+01 0.  1.
         25    2    1    2    0    0  0.00000000000E+00  0.00000000000E+00  0.68680631495E+02  0.14262439102E+03  0.12499875108E+03 0.  0.
    9000005    1    3    3    0    0 -0.30327531641E+02  0.34311739265E+02  0.82858152840E+02  0.94675910975E+02  0.10000000000E+01 0.  0.
    9000005    1    3    3    0    0  0.30327531641E+02 -0.34311739265E+02 -0.14177521345E+02  0.47948480042E+02  0.10000000000E+01 0.  0.
<mgrwt>
<rscale>  0 0.12499875E+03</rscale>
<asrwt>0</asrwt>
<pdfrwt beam="1">  1        4 0.16254233E-01 0.12499875E+03</pdfrwt>
<pdfrwt beam="2">  1       -4 0.56879815E-02 0.12499875E+03</pdfrwt>
<totfact> 0.10079764E+04</totfact>
</mgrwt>
</event>
<event>
 5    1  0.3236337E-002  0.1250043E+03  0.7818608E-02  0.1235063E+00
          4   -1    0    0  501    0  0.00000000000E+00  0.00000000000E+00  0.12455530493E+03  0.12456177940E+03  0.12700000000E+01 0.  1.
         -4   -1    0    0    0  501 -0.00000000000E+00 -0.00000000000E+00 -0.31343568637E+02  0.31369287447E+02  0.12700000000E+01 0.  1.
         25    2    1    2    0    0  0.00000000000E+00  0.00000000000E+00  0.93211736294E+02  0.15593106684E+03  0.12500427922E+03 0.  0.
    9000005    1    3    3    0    0  0.50646009827E+02  0.36142847332E+02  0.53900124426E+02  0.82325859472E+02  0.10000000000E+01 0.  0.
    9000005    1    3    3    0    0 -0.50646009827E+02 -0.36142847332E+02  0.39311611868E+02  0.73605207372E+02  0.10000000000E+01 0.  0.
<mgrwt>
<rscale>  0 0.12500428E+03</rscale>
<asrwt>0</asrwt>
<pdfrwt beam="1">  1        4 0.19164831E-01 0.12500428E+03</pdfrwt>
<pdfrwt beam="2">  1       -4 0.48245638E-02 0.12500428E+03</pdfrwt>
<totfact> 0.98123585E+03</totfact>
</mgrwt>
</event>
<event>
 5    1  0.3236337E-002  0.1249951E+03  0.7818608E-02  0.1235077E+00
         -4   -1    0    0    0  501 -0.00000000000E+00  0.00000000000E+00  0.10913835362E+03  0.10914574262E+03  0.12700000000E+01 0. -1.
          4   -1    0    0  501    0  0.00000000000E+00 -0.00000000000E+00 -0.35769036501E+02  0.35791575436E+02  0.12700000000E+01 0. -1.
         25    2    1    2    0    0  0.00000000000E+00  0.00000000000E+00  0.73369317121E+02  0.14493731805E+03  0.12499507778E+03 0.  0.
    9000005    1    3    3    0    0  0.92691004919E+01  0.35760790914E+02 -0.21756737193E+02  0.42884799219E+02  0.10000000000E+01 0.  0.
    9000005    1    3    3    0    0 -0.92691004919E+01 -0.35760790914E+02  0.95126054314E+02  0.10205251883E+03  0.10000000000E+01 0.  0.
<mgrwt>
<rscale>  0 0.12499508E+03</rscale>
<asrwt>0</asrwt>
<pdfrwt beam="2">  1        4 0.55052309E-02 0.12499508E+03</pdfrwt>
<pdfrwt beam="1">  1       -4 0.16792818E-01 0.12499508E+03</pdfrwt>
<totfact> 0.10033374E+04</totfact>
</mgrwt>
</event>
<event>
 5    1  0.3236337E-002  0.1250020E+03  0.7818608E-02  0.1235066E+00
          4   -1    0    0  501    0  0.00000000000E+00  0.00000000000E+00  0.14095012977E+02  0.14152112593E+02  0.12700000000E+01 0.  1.
         -4   -1    0    0    0  501 -0.00000000000E+00 -0.00000000000E+00 -0.27652699604E+03  0.27652991237E+03  0.12700000000E+01 0.  1.
         25    2    1    2    0    0  0.00000000000E+00  0.00000000000E+00 -0.26243198306E+03  0.29068202497E+03  0.12500197561E+03 0.  0.
    9000005    1    3    3    0    0 -0.10600230714E+02  0.52279050200E+02 -0.55509051762E+02  0.76991680125E+02  0.10000000000E+01 0.  0.
    9000005    1    3    3    0    0  0.10600230714E+02 -0.52279050200E+02 -0.20692293130E+03  0.21369034484E+03  0.10000000000E+01 0.  0.
<mgrwt>
<rscale>  0 0.12500198E+03</rscale>
<asrwt>0</asrwt>
<pdfrwt beam="1">  1        4 0.21730803E-02 0.12500198E+03</pdfrwt>
<pdfrwt beam="2">  1       -4 0.42547228E-01 0.12500198E+03</pdfrwt>
<totfact> 0.76779367E+03</totfact>
</mgrwt>
</event>
<event>
 5    1  0.3236337E-002  0.1249991E+03  0.7818608E-02  0.1235071E+00
         -4   -1    0    0    0  501 -0.00000000000E+00  0.00000000000E+00  0.44485650765E+03  0.44485832048E+03  0.12700000000E+01 0. -1.
          4   -1    0    0  501    0  0.00000000000E+00 -0.00000000000E+00 -0.87330264558E+01  0.88248881624E+01  0.12700000000E+01 0. -1.
         25    2    1    2    0    0  0.00000000000E+00  0.00000000000E+00  0.43612348119E+03  0.45368320864E+03  0.12499905181E+03 0.  0.
    9000005    1    3    3    0    0  0.47686625359E+02 -0.32446986871E+02  0.30534856521E+03  0.31075000799E+03  0.10000000000E+01 0.  0.
    9000005    1    3    3    0    0 -0.47686625359E+02  0.32446986871E+02  0.13077491599E+03  0.14293320064E+03  0.10000000000E+01 0.  0.
<mgrwt>
<rscale>  0 0.12499905E+03</rscale>
<asrwt>0</asrwt>
<pdfrwt beam="2">  1        4 0.13507480E-02 0.12499905E+03</pdfrwt>
<pdfrwt beam="1">  1       -4 0.68446682E-01 0.12499905E+03</pdfrwt>
<totfact> 0.59647278E+03</totfact>
</mgrwt>
</event>
<event>
 5    1  0.3236337E-002  0.1250026E+03  0.7818608E-02  0.1235065E+00
          4   -1    0    0  501    0  0.00000000000E+00  0.00000000000E+00  0.17584984827E+04  0.17584989413E+04  0.12700000000E+01 0.  1.
         -4   -1    0    0    0  501 -0.00000000000E+00 -0.00000000000E+00 -0.20394352311E+01  0.24025395027E+01  0.12700000000E+01 0.  1.
         25    2    1    2    0    0  0.00000000000E+00  0.00000000000E+00  0.17564590475E+04  0.17609014808E+04  0.12500255863E+03 0.  0.
    9000005    1    3    3    0    0 -0.47021235574E+02 -0.27347225471E+01  0.29964704081E+03  0.30332791558E+03  0.10000000000E+01 0.  0.
    9000005    1    3    3    0    0  0.47021235574E+02  0.27347225471E+01  0.14568120067E+04  0.14575735652E+04  0.10000000000E+01 0.  0.
<mgrwt>
<rscale>  0 0.12500256E+03</rscale>
<asrwt>0</asrwt>
<pdfrwt beam="1">  1        4 0.27056662E+00 0.12500256E+03</pdfrwt>
<pdfrwt beam="2">  1       -4 0.34172510E-03 0.12500256E+03</pdfrwt>
<totfact> 0.13314801E+03</totfact>
</mgrwt>
</event>
<event>
 5    1  0.3236337E-002  0.1250033E+03  0.7818608E-02  0.1235064E+00
          4   -1    0    0  501    0  0.00000000000E+00  0.00000000000E+00  0.20574396069E+03  0.20574788033E+03  0.12700000000E+01 0. -1.
         -4   -1    0    0    0  501 -0.00000000000E+00 -0.00000000000E+00 -0.18961632370E+02  0.19004115400E+02  0.12700000000E+01 0. -1.
         25    2    1    2    0    0  0.00000000000E+00  0.00000000000E+00  0.18678232832E+03  0.22475199573E+03  0.12500328560E+03 0.  0.
    9000005    1    3    3    0    0  0.61904213126E+02  0.71588304494E+01  0.10183872772E+03  0.11939642759E+03  0.10000000000E+01 0.  0.
    9000005    1    3    3    0    0 -0.61904213126E+02 -0.71588304494E+01  0.84943600591E+02  0.10535556814E+03  0.10000000000E+01 0.  0.
<mgrwt>
<rscale>  0 0.12500329E+03</rscale>
<asrwt>0</asrwt>
<pdfrwt beam="1">  1        4 0.31656487E-01 0.12500329E+03</pdfrwt>
<pdfrwt beam="2">  1       -4 0.29207436E-02 0.12500329E+03</pdfrwt>
<totfact> 0.86115630E+03</totfact>
</mgrwt>
</event>
<event>
 5    1  0.3236337E-002  0.1249964E+03  0.7818608E-02  0.1235075E+00
          4   -1    0    0  501    0  0.00000000000E+00  0.00000000000E+00  0.26933096822E+03  0.26933396247E+03  0.12700000000E+01 0.  1.
         -4   -1    0    0    0  501 -0.00000000000E+00 -0.00000000000E+00 -0.14471813038E+02  0.14527431728E+02  0.12700000000E+01 0.  1.
         25    2    1    2    0    0  0.00000000000E+00  0.00000000000E+00  0.25485915518E+03  0.28386139420E+03  0.12499640850E+03 0.  0.
    9000005    1    3    3    0    0 -0.24847507709E+02  0.30481940128E+01  0.25745716036E+03  0.25867330660E+03  0.10000000000E+01 0.  0.
    9000005    1    3    3    0    0  0.24847507709E+02 -0.30481940128E+01 -0.25980051817E+01  0.25188087601E+02  0.10000000000E+01 0.  0.
<mgrwt>
<rscale>  0 0.12499641E+03</rscale>
<asrwt>0</asrwt>
<pdfrwt beam="1">  1        4 0.41440042E-01 0.12499641E+03</pdfrwt>
<pdfrwt beam="2">  1       -4 0.22309415E-02 0.12499641E+03</pdfrwt>
<totfact> 0.77675081E+03</totfact>
</mgrwt>
</event>
<event>
 5    1  0.3236337E-002  0.1250014E+03  0.7818608E-02  0.1235067E+00
          4   -1    0    0  501    0  0.00000000000E+00  0.00000000000E+00  0.58420071452E+01  0.59784569484E+01  0.12700000000E+01 0. -1.
         -4   -1    0    0    0  501 -0.00000000000E+00 -0.00000000000E+00 -0.66080803450E+03  0.66080925489E+03  0.12700000000E+01 0. -1.
         25    2    1    2    0    0  0.00000000000E+00  0.00000000000E+00 -0.65496602735E+03  0.66678771184E+03  0.12500142272E+03 0.  0.
    9000005    1    3    3    0    0  0.56115224351E+02  0.24374356153E+02 -0.39544201387E+03  0.40014799010E+03  0.10000000000E+01 0.  0.
    9000005    1    3    3    0    0 -0.56115224351E+02 -0.24374356153E+02 -0.25952401348E+03  0.26663972175E+03  0.10000000000E+01 0.  0.
<mgrwt>
<rscale>  0 0.12500142E+03</rscale>
<asrwt>0</asrwt>
<pdfrwt beam="1">  1        4 0.90936087E-03 0.12500142E+03</pdfrwt>
<pdfrwt beam="2">  1       -4 0.10167331E+00 0.12500142E+03</pdfrwt>
<totfact> 0.44897443E+03</totfact>
</mgrwt>
</event>
<event>
 5    1  0.3236337E-002  0.1250018E+03  0.7818608E-02  0.1235066E+00
         -4   -1    0    0    0  501 -0.00000000000E+00  0.00000000000E+00  0.14840068017E+03  0.14840611434E+03  0.12700000000E+01 0.  1.
          4   -1    0    0  501    0  0.00000000000E+00 -0.00000000000E+00 -0.26301844866E+02  0.26332488362E+02  0.12700000000E+01 0.  1.
         25    2    1    2    0    0  0.00000000000E+00  0.00000000000E+00  0.12209883530E+03  0.17473860270E+03  0.12500181476E+03 0.  0.
    9000005    1    3    3    0    0  0.25952954023E+02 -0.49320524567E+02  0.21528622907E+02  0.59754092498E+02  0.10000000000E+01 0.  0.
    9000005    1    3    3    0    0 -0.25952954023E+02  0.49320524567E+02  0.10057021239E+03  0.11498451021E+03  0.10000000000E+01 0.  0.
<mgrwt>
<rscale>  0 0.12500181E+03</rscale>
<asrwt>0</asrwt>
<pdfrwt beam="2">  1        4 0.40492129E-02 0.12500181E+03</pdfrwt>
<pdfrwt beam="1">  1       -4 0.22833649E-01 0.12500181E+03</pdfrwt>
<totfact> 0.94568886E+03</totfact>
</mgrwt>
</event>
<event>
 5    1  0.3236337E-002  0.1249974E+03  0.7818608E-02  0.1235073E+00
         -4   -1    0    0    0  501 -0.00000000000E+00  0.00000000000E+00  0.42560322165E+01  0.44414761316E+01  0.12700000000E+01 0.  1.
          4   -1    0    0  501    0  0.00000000000E+00 -0.00000000000E+00 -0.89802258368E+03  0.89802348171E+03  0.12700000000E+01 0.  1.
         25    2    1    2    0    0  0.00000000000E+00  0.00000000000E+00 -0.89376655147E+03  0.90246495784E+03  0.12499740643E+03 0.  0.
    9000005    1    3    3    0    0 -0.91608352415E+01 -0.53766976173E+02 -0.22667379221E+03  0.23314548399E+03  0.10000000000E+01 0.  0.
    9000005    1    3    3    0    0  0.91608352415E+01  0.53766976173E+02 -0.66709275925E+03  0.66931947385E+03  0.10000000000E+01 0.  0.
<mgrwt>
<rscale>  0 0.12499741E+03</rscale>
<asrwt>0</asrwt>
<pdfrwt beam="2">  1        4 0.13817151E+00 0.12499741E+03</pdfrwt>
<pdfrwt beam="1">  1       -4 0.66910890E-03 0.12499741E+03</pdfrwt>
<totfact> 0.34067670E+03</totfact>
</mgrwt>
</event>
<event>
 5    1  0.3236337E-002  0.1249983E+03  0.7818608E-02  0.1235072E+00
          4   -1    0    0  501    0  0.00000000000E+00  0.00000000000E+00  0.39802536840E+01  0.41779563651E+01  0.12700000000E+01 0. -1.
         -4   -1    0    0    0  501 -0.00000000000E+00 -0.00000000000E+00 -0.95740077350E+03  0.95740161583E+03  0.12700000000E+01 0. -1.
         25    2    1    2    0    0  0.00000000000E+00  0.00000000000E+00 -0.95342051982E+03  0.96157957220E+03  0.12499834423E+03 0.  0.
    9000005    1    3    3    0    0 -0.19317534146E+02 -0.53150282951E+02 -0.68125998970E+03  0.68360390085E+03  0.10000000000E+01 0.  0.
    9000005    1    3    3    0    0  0.19317534146E+02  0.53150282951E+02 -0.27216053012E+03  0.27797567134E+03  0.10000000000E+01 0.  0.
<mgrwt>
<rscale>  0 0.12499834E+03</rscale>
<asrwt>0</asrwt>
<pdfrwt beam="1">  1        4 0.62762018E-03 0.12499834E+03</pdfrwt>
<pdfrwt beam="2">  1       -4 0.14730752E+00 0.12499834E+03</pdfrwt>
<totfact> 0.31909577E+03</totfact>
</mgrwt>
</event>
<event>
 5    1  0.3236337E-002  0.1250000E+03  0.7818608E-02  0.1235069E+00
          4   -1    0    0  501    0  0.00000000000E+00  0.00000000000E+00  0.10462366268E+02  0.10539165428E+02  0.12700000000E+01 0.  1.
         -4   -1    0    0    0  501 -0.00000000000E+00 -0.00000000000E+00 -0.37191864117E+03  0.37192080952E+03  0.12700000000E+01 0.  1.
         25    2    1    2    0    0  0.00000000000E+00  0.00000000000E+00 -0.36145627490E+03  0.38245997495E+03  0.12499997507E+03 0.  0.
    9000005    1    3    3    0    0 -0.41413531431E+02  0.44161445709E+02 -0.13333423416E+03  0.14643883321E+03  0.10000000000E+01 0.  0.
    9000005    1    3    3    0    0  0.41413531431E+02 -0.44161445709E+02 -0.22812204074E+03  0.23602114173E+03  0.10000000000E+01 0.  0.
<mgrwt>
<rscale>  0 0.12499998E+03</rscale>
<asrwt>0</asrwt>
<pdfrwt beam="1">  1        4 0.16156695E-02 0.12499998E+03</pdfrwt>
<pdfrwt beam="2">  1       -4 0.57224317E-01 0.12499998E+03</pdfrwt>
<totfact> 0.66295267E+03</totfact>
</mgrwt>
</event>
<event>
 5    1  0.3236337E-002  0.1250007E+03  0.7818608E-02  0.1235068E+00
         -4   -1    0    0    0  501 -0.00000000000E+00  0.00000000000E+00  0.20989901781E+02  0.21028287538E+02  0.12700000000E+01 0. -1.
          4   -1    0    0  501    0  0.00000000000E+00 -0.00000000000E+00 -0.18589282357E+03  0.18589716177E+03  0.12700000000E+01 0. -1.
         25    2    1    2    0    0  0.00000000000E+00  0.00000000000E+00 -0.16490292179E+03  0.20692544931E+03  0.12500067183E+03 0.  0.
    9000005    1    3    3    0    0 -0.54265545088E+02 -0.89755623051E+01 -0.33345023680E+02  0.64328848168E+02  0.10000000000E+01 0.  0.
    9000005    1    3    3    0    0  0.54265545088E+02  0.89755623051E+01 -0.13155789811E+03  0.14259660114E+03  0.10000000000E+01 0.  0.
<mgrwt>
<rscale>  0 0.12500067E+03</rscale>
<asrwt>0</asrwt>
<pdfrwt beam="2">  1        4 0.28602181E-01 0.12500067E+03</pdfrwt>
<pdfrwt beam="1">  1       -4 0.32325022E-02 0.12500067E+03</pdfrwt>
<totfact> 0.88979133E+03</totfact>
</mgrwt>
</event>
<event>
 5    1  0.3236337E-002  0.1250013E+03  0.7818608E-02  0.1235067E+00
          4   -1    0    0  501    0  0.00000000000E+00  0.00000000000E+00  0.39625558205E+03  0.39625761722E+03  0.12700000000E+01 0.  1.
         -4   -1    0    0    0  501 -0.00000000000E+00 -0.00000000000E+00 -0.98151402270E+01  0.98969630531E+01  0.12700000000E+01 0.  1.
         25    2    1    2    0    0  0.00000000000E+00  0.00000000000E+00  0.38644044182E+03  0.40615458027E+03  0.12500131200E+03 0.  0.
    9000005    1    3    3    0    0 -0.42007694654E+02  0.14473135781E+01  0.34347927081E+03  0.34604298953E+03  0.10000000000E+01 0.  0.
    9000005    1    3    3    0    0  0.42007694654E+02 -0.14473135781E+01  0.42961171007E+02  0.60111590738E+02  0.10000000000E+01 0.  0.
<mgrwt>
<rscale>  0 0.12500131E+03</rscale>
<asrwt>0</asrwt>
<pdfrwt beam="1">  1        4 0.60968854E-01 0.12500131E+03</pdfrwt>
<pdfrwt beam="2">  1       -4 0.15164720E-02 0.12500131E+03</pdfrwt>
<totfact> 0.63956714E+03</totfact>
</mgrwt>
</event>
<event>
 5    1  0.3236337E-002  0.1250020E+03  0.7818608E-02  0.1235066E+00
          4   -1    0    0  501    0  0.00000000000E+00  0.00000000000E+00  0.58347404085E+03  0.58347542300E+03  0.12700000000E+01 0.  1.
         -4   -1    0    0    0  501 -0.00000000000E+00 -0.00000000000E+00 -0.66333979275E+01  0.67538780019E+01  0.12700000000E+01 0.  1.
         25    2    1    2    0    0  0.00000000000E+00  0.00000000000E+00  0.57684064292E+03  0.59022930100E+03  0.12500200172E+03 0.  0.
    9000005    1    3    3    0    0  0.24423512311E+02  0.54741469028E+02  0.20498553103E+03  0.21357248024E+03  0.10000000000E+01 0.  0.
    9000005    1    3    3    0    0 -0.24423512311E+02 -0.54741469028E+02  0.37185511189E+03  0.37665682076E+03  0.10000000000E+01 0.  0.
<mgrwt>
<rscale>  0 0.12500200E+03</rscale>
<asrwt>0</asrwt>
<pdfrwt beam="1">  1        4 0.89774656E-01 0.12500200E+03</pdfrwt>
<pdfrwt beam="2">  1       -4 0.10298963E-02 0.12500200E+03</pdfrwt>
<totfact> 0.49488039E+03</totfact>
</mgrwt>
</event>
<event>
 5    1  0.3236337E-002  0.1249992E+03  0.7818608E-02  0.1235071E+00
          4   -1    0    0  501    0  0.00000000000E+00  0.00000000000E+00  0.56049389654E+03  0.56049533536E+03  0.12700000000E+01 0. -1.
         -4   -1    0    0    0  501 -0.00000000000E+00 -0.00000000000E+00 -0.69098910557E+01  0.70256312458E+01  0.12700000000E+01 0. -1.
         25    2    1    2    0    0  0.00000000000E+00  0.00000000000E+00  0.55358400549E+03  0.56752096661E+03  0.12499918563E+03 0.  0.
    9000005    1    3    3    0    0 -0.26835846574E+01 -0.10974336509E+02 -0.22570123674E+01  0.11564246333E+02  0.10000000000E+01 0.  0.
    9000005    1    3    3    0    0  0.26835846574E+01  0.10974336509E+02  0.55584101786E+03  0.55595672028E+03  0.10000000000E+01 0.  0.
<mgrwt>
<rscale>  0 0.12499919E+03</rscale>
<asrwt>0</asrwt>
<pdfrwt beam="1">  1        4 0.86238860E-01 0.12499919E+03</pdfrwt>
<pdfrwt beam="2">  1       -4 0.10720737E-02 0.12499919E+03</pdfrwt>
<totfact> 0.50985035E+03</totfact>
</mgrwt>
</event>
<event>
 5    1  0.3236337E-002  0.1249972E+03  0.7818608E-02  0.1235074E+00
         -4   -1    0    0    0  501 -0.00000000000E+00  0.00000000000E+00  0.67461723861E+02  0.67473676989E+02  0.12700000000E+01 0.  1.
          4   -1    0    0  501    0  0.00000000000E+00 -0.00000000000E+00 -0.57876541165E+02  0.57890473458E+02  0.12700000000E+01 0.  1.
         25    2    1    2    0    0  0.00000000000E+00  0.00000000000E+00  0.95851826963E+01  0.12536415045E+03  0.12499717793E+03 0.  0.
    9000005    1    3    3    0    0 -0.31082303603E+02 -0.31616890349E+02 -0.39374592990E+02  0.59305108766E+02  0.10000000000E+01 0.  0.
    9000005    1    3    3    0    0  0.31082303603E+02  0.31616890349E+02  0.48959775686E+02  0.66059041681E+02  0.10000000000E+01 0.  0.
<mgrwt>
<rscale>  0 0.12499718E+03</rscale>
<asrwt>0</asrwt>
<pdfrwt beam="2">  1        4 0.89060745E-02 0.12499718E+03</pdfrwt>
<pdfrwt beam="1">  1       -4 0.10380718E-01 0.12499718E+03</pdfrwt>
<totfact> 0.10445624E+04</totfact>
</mgrwt>
</event>
<event>
 5    1  0.3236337E-002  0.1249986E+03  0.7818608E-02  0.1235072E+00
          4   -1    0    0  501    0  0.00000000000E+00  0.00000000000E+00  0.11868130155E+02  0.11935887624E+02  0.12700000000E+01 0.  1.
         -4   -1    0    0    0  501 -0.00000000000E+00 -0.00000000000E+00 -0.32812439897E+03  0.32812685672E+03  0.12700000000E+01 0.  1.
         25    2    1    2    0    0  0.00000000000E+00  0.00000000000E+00 -0.31625626882E+03  0.34006274434E+03  0.12499857009E+03 0.  0.
    9000005    1    3    3    0    0  0.28434806122E+02 -0.55446042300E+02 -0.17099220753E+03  0.18199488136E+03  0.10000000000E+01 0.  0.
    9000005    1    3    3    0    0 -0.28434806122E+02  0.55446042300E+02 -0.14526406129E+03  0.15806786298E+03  0.10000000000E+01 0.  0.
<mgrwt>
<rscale>  0 0.12499857E+03</rscale>
<asrwt>0</asrwt>
<pdfrwt beam="1">  1        4 0.18312676E-02 0.12499857E+03</pdfrwt>
<pdfrwt beam="2">  1       -4 0.50486071E-01 0.12499857E+03</pdfrwt>
<totfact> 0.70834036E+03</totfact>
</mgrwt>
</event>
<event>
 5    1  0.3236337E-002  0.1250146E+03  0.7818608E-02  0.1235046E+00
         -4   -1    0    0    0  501 -0.00000000000E+00  0.00000000000E+00  0.10825265814E+04  0.10825273264E+04  0.12700000000E+01 0. -1.
          4   -1    0    0  501    0  0.00000000000E+00 -0.00000000000E+00 -0.34968112403E+01  0.37202941887E+01  0.12700000000E+01 0. -1.
         25    2    1    2    0    0  0.00000000000E+00  0.00000000000E+00  0.10790297702E+04  0.10862476206E+04  0.12501459226E+03 0.  0.
    9000005    1    3    3    0    0 -0.34616367187E+02  0.39372992362E+02  0.24388096232E+03  0.24945430281E+03  0.10000000000E+01 0.  0.
    9000005    1    3    3    0    0  0.34616367187E+02 -0.39372992362E+02  0.83514880783E+03  0.83679331775E+03  0.10000000000E+01 0.  0.
<mgrwt>
<rscale>  0 0.12501459E+03</rscale>
<asrwt>0</asrwt>
<pdfrwt beam="2">  1        4 0.55521877E-03 0.12501459E+03</pdfrwt>
<pdfrwt beam="1">  1       -4 0.16655995E+00 0.12501459E+03</pdfrwt>
<totfact> 0.27880501E+03</totfact>
</mgrwt>
</event>
<event>
 5    1  0.3236337E-002  0.1249965E+03  0.7818608E-02  0.1235075E+00
          4   -1    0    0  501    0  0.00000000000E+00  0.00000000000E+00  0.25385687871E+02  0.25417435919E+02  0.12700000000E+01 0. -1.
         -4   -1    0    0    0  501 -0.00000000000E+00 -0.00000000000E+00 -0.15373681867E+03  0.15374206424E+03  0.12700000000E+01 0. -1.
         25    2    1    2    0    0  0.00000000000E+00  0.00000000000E+00 -0.12835113080E+03  0.17915950016E+03  0.12499645482E+03 0.  0.
    9000005    1    3    3    0    0  0.51665002745E+02 -0.25642774750E+02 -0.29710214749E+02  0.64888529540E+02  0.10000000000E+01 0.  0.
    9000005    1    3    3    0    0 -0.51665002745E+02  0.25642774750E+02 -0.98640916055E+02  0.11427097062E+03  0.10000000000E+01 0.  0.
<mgrwt>
<rscale>  0 0.12499645E+03</rscale>
<asrwt>0</asrwt>
<pdfrwt beam="1">  1        4 0.39083362E-02 0.12499645E+03</pdfrwt>
<pdfrwt beam="2">  1       -4 0.23654663E-01 0.12499645E+03</pdfrwt>
<totfact> 0.93775970E+03</totfact>
</mgrwt>
</event>
<event>
 5    1  0.3236337E-002  0.1250017E+03  0.7818608E-02  0.1235067E+00
          4   -1    0    0  501    0  0.00000000000E+00  0.00000000000E+00  0.75198010955E+02  0.75208734543E+02  0.12700000000E+01 0. -1.
         -4   -1    0    0    0  501 -0.00000000000E+00 -0.00000000000E+00 -0.51925424397E+02  0.51940953003E+02  0.12700000000E+01 0. -1.
         25    2    1    2    0    0  0.00000000000E+00  0.00000000000E+00  0.23272586558E+02  0.12714968755E+03  0.12500171902E+03 0.  0.
    9000005    1    3    3    0    0 -0.37374006673E+02  0.25203384590E+02  0.55662017655E+02  0.71633003420E+02  0.10000000000E+01 0.  0.
    9000005    1    3    3    0    0  0.37374006673E+02 -0.25203384590E+02 -0.32389431097E+02  0.55516684126E+02  0.10000000000E+01 0.  0.
<mgrwt>
<rscale>  0 0.12500172E+03</rscale>
<asrwt>0</asrwt>
<pdfrwt beam="1">  1        4 0.11570944E-01 0.12500172E+03</pdfrwt>
<pdfrwt beam="2">  1       -4 0.79905463E-02 0.12500172E+03</pdfrwt>
<totfact> 0.10405491E+04</totfact>
</mgrwt>
</event>
<event>
 5    1  0.3236337E-002  0.1249982E+03  0.7818608E-02  0.1235072E+00
         -4   -1    0    0    0  501 -0.00000000000E+00  0.00000000000E+00  0.45516010330E+02  0.45533724824E+02  0.12700000000E+01 0. -1.
          4   -1    0    0  501    0  0.00000000000E+00 -0.00000000000E+00 -0.85779894321E+02  0.85789295193E+02  0.12700000000E+01 0. -1.
         25    2    1    2    0    0  0.00000000000E+00  0.00000000000E+00 -0.40263883991E+02  0.13132302002E+03  0.12499822092E+03 0.  0.
    9000005    1    3    3    0    0 -0.20373127132E+02 -0.34119981473E+02 -0.70799815356E+02  0.81196374915E+02  0.10000000000E+01 0.  0.
    9000005    1    3    3    0    0  0.20373127132E+02  0.34119981473E+02  0.30535931365E+02  0.50126645102E+02  0.10000000000E+01 0.  0.
<mgrwt>
<rscale>  0 0.12499822E+03</rscale>
<asrwt>0</asrwt>
<pdfrwt beam="2">  1        4 0.13198993E-01 0.12499822E+03</pdfrwt>
<pdfrwt beam="1">  1       -4 0.70045489E-02 0.12499822E+03</pdfrwt>
<totfact> 0.10316583E+04</totfact>
</mgrwt>
</event>
<event>
 5    1  0.3236337E-002  0.1249996E+03  0.7818608E-02  0.1235070E+00
         -4   -1    0    0    0  501 -0.00000000000E+00  0.00000000000E+00  0.21121796699E+02  0.21159943190E+02  0.12700000000E+01 0.  1.
          4   -1    0    0  501    0  0.00000000000E+00 -0.00000000000E+00 -0.18473091508E+03  0.18473528056E+03  0.12700000000E+01 0.  1.
         25    2    1    2    0    0  0.00000000000E+00  0.00000000000E+00 -0.16360911838E+03  0.20589522375E+03  0.12499959819E+03 0.  0.
    9000005    1    3    3    0    0 -0.34452120971E+02 -0.37945772463E+02 -0.14069843266E+03  0.14974604916E+03  0.10000000000E+01 0.  0.
    9000005    1    3    3    0    0  0.34452120971E+02  0.37945772463E+02 -0.22910685718E+02  0.56149174591E+02  0.10000000000E+01 0.  0.
<mgrwt>
<rscale>  0 0.12499960E+03</rscale>
<asrwt>0</asrwt>
<pdfrwt beam="2">  1        4 0.28423410E-01 0.12499960E+03</pdfrwt>
<pdfrwt beam="1">  1       -4 0.32527775E-02 0.12499960E+03</pdfrwt>
<totfact> 0.89151465E+03</totfact>
</mgrwt>
</event>
<event>
 5    1  0.3236337E-002  0.1250017E+03  0.7818608E-02  0.1235067E+00
          4   -1    0    0  501    0  0.00000000000E+00  0.00000000000E+00  0.44232896323E+02  0.44251124473E+02  0.12700000000E+01 0.  1.
         -4   -1    0    0    0  501 -0.00000000000E+00 -0.00000000000E+00 -0.88272337931E+02  0.88281473389E+02  0.12700000000E+01 0.  1.
         25    2    1    2    0    0  0.00000000000E+00  0.00000000000E+00 -0.44039441607E+02  0.13253259786E+03  0.12500166830E+03 0.  0.
    9000005    1    3    3    0    0  0.49775799417E+02 -0.84392536910E+01  0.17029942217E+02  0.53290431996E+02  0.10000000000E+01 0.  0.
    9000005    1    3    3    0    0 -0.49775799417E+02  0.84392536910E+01 -0.61069383824E+02  0.79242165866E+02  0.10000000000E+01 0.  0.
<mgrwt>
<rscale>  0 0.12500167E+03</rscale>
<asrwt>0</asrwt>
<pdfrwt beam="1">  1        4 0.68071659E-02 0.12500167E+03</pdfrwt>
<pdfrwt beam="2">  1       -4 0.13582464E-01 0.12500167E+03</pdfrwt>
<totfact> 0.10289956E+04</totfact>
</mgrwt>
</event>
<event>
 5    1  0.3236337E-002  0.1249967E+03  0.7818608E-02  0.1235074E+00
          4   -1    0    0  501    0  0.00000000000E+00  0.00000000000E+00  0.46140407599E+01  0.47856318427E+01  0.12700000000E+01 0.  1.
         -4   -1    0    0    0  501 -0.00000000000E+00 -0.00000000000E+00 -0.83093058166E+03  0.83093155220E+03  0.12700000000E+01 0.  1.
         25    2    1    2    0    0  0.00000000000E+00  0.00000000000E+00 -0.82631654090E+03  0.83571718404E+03  0.12499674370E+03 0.  0.
    9000005    1    3    3    0    0 -0.32555485584E+02 -0.49678340574E+02 -0.28329842974E+03  0.28945949191E+03  0.10000000000E+01 0.  0.
    9000005    1    3    3    0    0  0.32555485584E+02  0.49678340574E+02 -0.54301811115E+03  0.54625769212E+03  0.10000000000E+01 0.  0.
<mgrwt>
<rscale>  0 0.12499674E+03</rscale>
<asrwt>0</asrwt>
<pdfrwt beam="1">  1        4 0.72312705E-03 0.12499674E+03</pdfrwt>
<pdfrwt beam="2">  1       -4 0.12784863E+00 0.12499674E+03</pdfrwt>
<totfact> 0.36721666E+03</totfact>
</mgrwt>
</event>
<event>
 5    1  0.3236337E-002  0.1249856E+03  0.7818608E-02  0.1235092E+00
         -4   -1    0    0    0  501 -0.00000000000E+00  0.00000000000E+00  0.17871859086E+03  0.17872310320E+03  0.12700000000E+01 0. -1.
          4   -1    0    0  501    0  0.00000000000E+00 -0.00000000000E+00 -0.21828690519E+02  0.21865603806E+02  0.12700000000E+01 0. -1.
         25    2    1    2    0    0  0.00000000000E+00  0.00000000000E+00  0.15688990034E+03  0.20058870701E+03  0.12498555337E+03 0.  0.
    9000005    1    3    3    0    0 -0.60438325199E+02  0.13277434219E+02  0.64521550580E+02  0.89404205167E+02  0.10000000000E+01 0.  0.
    9000005    1    3    3    0    0  0.60438325199E+02 -0.13277434219E+02  0.92368349756E+02  0.11118450184E+03  0.10000000000E+01 0.  0.
<mgrwt>
<rscale>  0 0.12498555E+03</rscale>
<asrwt>0</asrwt>
<pdfrwt beam="2">  1        4 0.33614467E-02 0.12498555E+03</pdfrwt>
<pdfrwt beam="1">  1       -4 0.27498354E-01 0.12498555E+03</pdfrwt>
<totfact> 0.90065422E+03</totfact>
</mgrwt>
</event>
<event>
 5    1  0.3236337E-002  0.1250009E+03  0.7818608E-02  0.1235068E+00
         -4   -1    0    0    0  501 -0.00000000000E+00  0.00000000000E+00  0.19391020080E+02  0.19432564415E+02  0.12700000000E+01 0. -1.
          4   -1    0    0  501    0  0.00000000000E+00 -0.00000000000E+00 -0.20119026193E+03  0.20119427029E+03  0.12700000000E+01 0. -1.
         25    2    1    2    0    0  0.00000000000E+00  0.00000000000E+00 -0.18179924185E+03  0.22062683470E+03  0.12500094341E+03 0.  0.
    9000005    1    3    3    0    0 -0.42309469520E+02 -0.89744893110E+01 -0.17051421884E+03  0.17591683119E+03  0.10000000000E+01 0.  0.
    9000005    1    3    3    0    0  0.42309469520E+02  0.89744893110E+01 -0.11285023011E+02  0.44710003510E+02  0.10000000000E+01 0.  0.
<mgrwt>
<rscale>  0 0.12500094E+03</rscale>
<asrwt>0</asrwt>
<pdfrwt beam="2">  1        4 0.30955851E-01 0.12500094E+03</pdfrwt>
<pdfrwt beam="1">  1       -4 0.29867381E-02 0.12500094E+03</pdfrwt>
<totfact> 0.86767431E+03</totfact>
</mgrwt>
</event>
<event>
 5    1  0.3236337E-002  0.1250012E+03  0.7818608E-02  0.1235067E+00
         -4   -1    0    0    0  501 -0.00000000000E+00  0.00000000000E+00  0.39296715496E+02  0.39317232212E+02  0.12700000000E+01 0. -1.
          4   -1    0    0  501    0  0.00000000000E+00 -0.00000000000E+00 -0.99355419102E+02  0.99363535589E+02  0.12700000000E+01 0. -1.
         25    2    1    2    0    0  0.00000000000E+00  0.00000000000E+00 -0.60058703605E+02  0.13868076780E+03  0.12500122991E+03 0.  0.
    9000005    1    3    3    0    0 -0.79451285249E+01 -0.61798069150E+02 -0.35373151523E+02  0.71654631857E+02  0.10000000000E+01 0.  0.
    9000005    1    3    3    0    0  0.79451285249E+01  0.61798069150E+02 -0.24685552082E+02  0.67026135944E+02  0.10000000000E+01 0.  0.
<mgrwt>
<rscale>  0 0.12500123E+03</rscale>
<asrwt>0</asrwt>
<pdfrwt beam="2">  1        4 0.15287652E-01 0.12500123E+03</pdfrwt>
<pdfrwt beam="1">  1       -4 0.60478511E-02 0.12500123E+03</pdfrwt>
<totfact> 0.10160719E+04</totfact>
</mgrwt>
</event>
<event>
 5    1  0.3236337E-002  0.1250019E+03  0.7818608E-02  0.1235066E+00
         -4   -1    0    0    0  501 -0.00000000000E+00  0.00000000000E+00  0.10327239088E+03  0.10328019955E+03  0.12700000000E+01 0.  1.
          4   -1    0    0  501    0  0.00000000000E+00 -0.00000000000E+00 -0.37805977111E+02  0.37827302379E+02  0.12700000000E+01 0.  1.
         25    2    1    2    0    0  0.00000000000E+00  0.00000000000E+00  0.65466413772E+02  0.14110750193E+03  0.12500190306E+03 0.  0.
    9000005    1    3    3    0    0  0.30880751934E+02  0.14539193092E+02 -0.26359962818E+02  0.43137647311E+02  0.10000000000E+01 0.  0.
    9000005    1    3    3    0    0 -0.30880751934E+02 -0.14539193092E+02  0.91826376589E+02  0.97969854615E+02  0.10000000000E+01 0.  0.
<mgrwt>
<rscale>  0 0.12500190E+03</rscale>
<asrwt>0</asrwt>
<pdfrwt beam="2">  1        4 0.58185453E-02 0.12500190E+03</pdfrwt>
<pdfrwt beam="1">  1       -4 0.15890301E-01 0.12500190E+03</pdfrwt>
<totfact> 0.10110250E+04</totfact>
</mgrwt>
</event>
<event>
 5    1  0.3236337E-002  0.1250043E+03  0.7818608E-02  0.1235063E+00
         -4   -1    0    0    0  501 -0.00000000000E+00  0.00000000000E+00  0.31947700153E+02  0.31972933007E+02  0.12700000000E+01 0.  1.
          4   -1    0    0  501    0  0.00000000000E+00 -0.00000000000E+00 -0.12220166362E+03  0.12220826278E+03  0.12700000000E+01 0.  1.
         25    2    1    2    0    0  0.00000000000E+00  0.00000000000E+00 -0.90253963466E+02  0.15418119579E+03  0.12500425278E+03 0.  0.
    9000005    1    3    3    0    0 -0.74540205303E+01 -0.27433912874E+02  0.23516709241E+02  0.36908232295E+02  0.10000000000E+01 0.  0.
    9000005    1    3    3    0    0  0.74540205303E+01  0.27433912874E+02 -0.11377067271E+03  0.11727296349E+03  0.10000000000E+01 0.  0.
<mgrwt>
<rscale>  0 0.12500425E+03</rscale>
<asrwt>0</asrwt>
<pdfrwt beam="2">  1        4 0.18802704E-01 0.12500425E+03</pdfrwt>
<pdfrwt beam="1">  1       -4 0.49174794E-02 0.12500425E+03</pdfrwt>
<totfact> 0.98467061E+03</totfact>
</mgrwt>
</event>
<event>
 5    1  0.3236337E-002  0.1250152E+03  0.7818608E-02  0.1235046E+00
          4   -1    0    0  501    0  0.00000000000E+00  0.00000000000E+00  0.70961323585E+02  0.70972687317E+02  0.12700000000E+01 0. -1.
         -4   -1    0    0    0  501 -0.00000000000E+00 -0.00000000000E+00 -0.55037851668E+02  0.55052502361E+02  0.12700000000E+01 0. -1.
         25    2    1    2    0    0  0.00000000000E+00  0.00000000000E+00  0.15923471917E+02  0.12602518968E+03  0.12501516498E+03 0.  0.
    9000005    1    3    3    0    0  0.58052431992E+02 -0.16894618161E+02 -0.79992140231E+01  0.60995904846E+02  0.10000000000E+01 0.  0.
    9000005    1    3    3    0    0 -0.58052431992E+02  0.16894618161E+02  0.23922685941E+02  0.65029284831E+02  0.10000000000E+01 0.  0.
<mgrwt>
<rscale>  0 0.12501516E+03</rscale>
<asrwt>0</asrwt>
<pdfrwt beam="1">  1        4 0.10919128E-01 0.12501516E+03</pdfrwt>
<pdfrwt beam="2">  1       -4 0.84693630E-02 0.12501516E+03</pdfrwt>
<totfact> 0.10426836E+04</totfact>
</mgrwt>
</event>
<event>
 5    1  0.3236337E-002  0.1250009E+03  0.7818608E-02  0.1235068E+00
          4   -1    0    0  501    0  0.00000000000E+00  0.00000000000E+00  0.15280575898E+03  0.15281103651E+03  0.12700000000E+01 0.  1.
         -4   -1    0    0    0  501 -0.00000000000E+00 -0.00000000000E+00 -0.25542362060E+02  0.25573915610E+02  0.12700000000E+01 0.  1.
         25    2    1    2    0    0  0.00000000000E+00  0.00000000000E+00  0.12726339692E+03  0.17838495212E+03  0.12500087578E+03 0.  0.
    9000005    1    3    3    0    0 -0.55358417823E+02 -0.48874608572E+00  0.22258702122E+02  0.59676151993E+02  0.10000000000E+01 0.  0.
    9000005    1    3    3    0    0  0.55358417823E+02  0.48874608572E+00  0.10500469480E+03  0.11870880013E+03  0.10000000000E+01 0.  0.
<mgrwt>
<rscale>  0 0.12500088E+03</rscale>
<asrwt>0</asrwt>
<pdfrwt beam="1">  1        4 0.23511411E-01 0.12500088E+03</pdfrwt>
<pdfrwt beam="2">  1       -4 0.39324274E-02 0.12500088E+03</pdfrwt>
<totfact> 0.93906683E+03</totfact>
</mgrwt>
</event>
<event>
 5    1  0.3236337E-002  0.1249992E+03  0.7818608E-02  0.1235071E+00
         -4   -1    0    0    0  501 -0.00000000000E+00  0.00000000000E+00  0.61862611546E+03  0.61862741908E+03  0.12700000000E+01 0. -1.
          4   -1    0    0  501    0  0.00000000000E+00 -0.00000000000E+00 -0.62491288911E+01  0.63768732070E+01  0.12700000000E+01 0. -1.
         25    2    1    2    0    0  0.00000000000E+00  0.00000000000E+00  0.61237698657E+03  0.62500429228E+03  0.12499916676E+03 0.  0.
    9000005    1    3    3    0    0 -0.29793202007E+02 -0.52124514720E+02  0.21949850854E+03  0.22756360687E+03  0.10000000000E+01 0.  0.
    9000005    1    3    3    0    0  0.29793202007E+02  0.52124514720E+02  0.39287847803E+03  0.39744068542E+03  0.10000000000E+01 0.  0.
<mgrwt>
<rscale>  0 0.12499917E+03</rscale>
<asrwt>0</asrwt>
<pdfrwt beam="2">  1        4 0.97133112E-03 0.12499917E+03</pdfrwt>
<pdfrwt beam="1">  1       -4 0.95183184E-01 0.12499917E+03</pdfrwt>
<totfact> 0.47327232E+03</totfact>
</mgrwt>
</event>
<event>
 5    1  0.3236337E-002  0.1250005E+03  0.7818608E-02  0.1235068E+00
         -4   -1    0    0    0  501 -0.00000000000E+00  0.00000000000E+00  0.14666728289E+02  0.14721610601E+02  0.12700000000E+01 0. -1.
          4   -1    0    0  501    0  0.00000000000E+00 -0.00000000000E+00 -0.26578265586E+03  0.26578569009E+03  0.12700000000E+01 0. -1.
         25    2    1    2    0    0  0.00000000000E+00  0.00000000000E+00 -0.25111592758E+03  0.28050730069E+03  0.12500054664E+03 0.  0.
    9000005    1    3    3    0    0 -0.21497397009E+02 -0.47275374294E+02 -0.20355875168E+03  0.21008156625E+03  0.10000000000E+01 0.  0.
    9000005    1    3    3    0    0  0.21497397009E+02  0.47275374294E+02 -0.47557175896E+02  0.70425734444E+02  0.10000000000E+01 0.  0.
<mgrwt>
<rscale>  0 0.12500055E+03</rscale>
<asrwt>0</asrwt>
<pdfrwt beam="2">  1        4 0.40894091E-01 0.12500055E+03</pdfrwt>
<pdfrwt beam="1">  1       -4 0.22608750E-02 0.12500055E+03</pdfrwt>
<totfact> 0.78109941E+03</totfact>
</mgrwt>
</event>
<event>
 5    1  0.3236337E-002  0.1250088E+03  0.7818608E-02  0.1235056E+00
          4   -1    0    0  501    0  0.00000000000E+00  0.00000000000E+00  0.36126433847E+01  0.38293723017E+01  0.12700000000E+01 0. -1.
         -4   -1    0    0    0  501 -0.00000000000E+00 -0.00000000000E+00 -0.10497132660E+04  0.10497140343E+04  0.12700000000E+01 0. -1.
         25    2    1    2    0    0  0.00000000000E+00  0.00000000000E+00 -0.10461006226E+04  0.10535434066E+04  0.12500878716E+03 0.  0.
    9000005    1    3    3    0    0 -0.58542686082E+02  0.12597501417E+02 -0.37232395592E+03  0.37711015803E+03  0.10000000000E+01 0.  0.
    9000005    1    3    3    0    0  0.58542686082E+02 -0.12597501417E+02 -0.67377666671E+03  0.67643324855E+03  0.10000000000E+01 0.  0.
<mgrwt>
<rscale>  0 0.12500879E+03</rscale>
<asrwt>0</asrwt>
<pdfrwt beam="1">  1        4 0.57252268E-03 0.12500879E+03</pdfrwt>
<pdfrwt beam="2">  1       -4 0.16151084E+00 0.12500879E+03</pdfrwt>
<totfact> 0.28878898E+03</totfact>
</mgrwt>
</event>
<event>
 5    1  0.3236337E-002  0.1250006E+03  0.7818608E-02  0.1235068E+00
         -4   -1    0    0    0  501 -0.00000000000E+00  0.00000000000E+00  0.50944208045E+03  0.50944366346E+03  0.12700000000E+01 0.  1.
          4   -1    0    0  501    0  0.00000000000E+00 -0.00000000000E+00 -0.76135781250E+01  0.77187739872E+01  0.12700000000E+01 0.  1.
         25    2    1    2    0    0  0.00000000000E+00  0.00000000000E+00  0.50182850233E+03  0.51716243745E+03  0.12500056382E+03 0.  0.
    9000005    1    3    3    0    0 -0.29155727537E+02 -0.54646101841E+02  0.28528914074E+03  0.29193688824E+03  0.10000000000E+01 0.  0.
    9000005    1    3    3    0    0  0.29155727537E+02  0.54646101841E+02  0.21653936159E+03  0.22522554920E+03  0.10000000000E+01 0.  0.
<mgrwt>
<rscale>  0 0.12500056E+03</rscale>
<asrwt>0</asrwt>
<pdfrwt beam="2">  1        4 0.11795331E-02 0.12500056E+03</pdfrwt>
<pdfrwt beam="1">  1       -4 0.78383944E-01 0.12500056E+03</pdfrwt>
<totfact> 0.54556244E+03</totfact>
</mgrwt>
</event>
<event>
 5    1  0.3236337E-002  0.1250005E+03  0.7818608E-02  0.1235069E+00
         -4   -1    0    0    0  501 -0.00000000000E+00  0.00000000000E+00  0.14346715379E+02  0.14402817161E+02  0.12700000000E+01 0. -1.
          4   -1    0    0  501    0  0.00000000000E+00 -0.00000000000E+00 -0.27168798893E+03  0.27169095721E+03  0.12700000000E+01 0. -1.
         25    2    1    2    0    0  0.00000000000E+00  0.00000000000E+00 -0.25734127356E+03  0.28609377437E+03  0.12500046664E+03 0.  0.
    9000005    1    3    3    0    0 -0.37002022243E+02  0.41207967982E+02 -0.62414317680E+02  0.83449345874E+02  0.10000000000E+01 0.  0.
    9000005    1    3    3    0    0  0.37002022243E+02 -0.41207967982E+02 -0.19492695588E+03  0.20264442850E+03  0.10000000000E+01 0.  0.
<mgrwt>
<rscale>  0 0.12500047E+03</rscale>
<asrwt>0</asrwt>
<pdfrwt beam="2">  1        4 0.41802692E-01 0.12500047E+03</pdfrwt>
<pdfrwt beam="1">  1       -4 0.22117310E-02 0.12500047E+03</pdfrwt>
<totfact> 0.77376191E+03</totfact>
</mgrwt>
</event>
<event>
 5    1  0.3236337E-002  0.1250006E+03  0.7818608E-02  0.1235068E+00
          4   -1    0    0  501    0  0.00000000000E+00  0.00000000000E+00  0.50855211122E+01  0.52417005812E+01  0.12700000000E+01 0.  1.
         -4   -1    0    0    0  501 -0.00000000000E+00 -0.00000000000E+00 -0.75634586468E+03  0.75634693093E+03  0.12700000000E+01 0.  1.
         25    2    1    2    0    0  0.00000000000E+00  0.00000000000E+00 -0.75126034357E+03  0.76158863151E+03  0.12500055928E+03 0.  0.
    9000005    1    3    3    0    0  0.45657871593E+02  0.23576871636E+02 -0.59230831502E+03  0.59453397729E+03  0.10000000000E+01 0.  0.
    9000005    1    3    3    0    0 -0.45657871593E+02 -0.23576871636E+02 -0.15895202856E+03  0.16705465422E+03  0.10000000000E+01 0.  0.
<mgrwt>
<rscale>  0 0.12500056E+03</rscale>
<asrwt>0</asrwt>
<pdfrwt beam="1">  1        4 0.79448429E-03 0.12500056E+03</pdfrwt>
<pdfrwt beam="2">  1       -4 0.11637291E+00 0.12500056E+03</pdfrwt>
<totfact> 0.40025430E+03</totfact>
</mgrwt>
</event>
<event>
 5    1  0.3236337E-002  0.1249981E+03  0.7818608E-02  0.1235072E+00
          4   -1    0    0  501    0  0.00000000000E+00  0.00000000000E+00  0.29684861017E+03  0.29685132686E+03  0.12700000000E+01 0.  1.
         -4   -1    0    0    0  501 -0.00000000000E+00 -0.00000000000E+00 -0.13125237871E+02  0.13186537422E+02  0.12700000000E+01 0.  1.
         25    2    1    2    0    0  0.00000000000E+00  0.00000000000E+00  0.28372337230E+03  0.31003786429E+03  0.12499810119E+03 0.  0.
    9000005    1    3    3    0    0  0.33665744727E+02  0.51408599562E+02  0.11370082399E+03  0.12924822572E+03  0.10000000000E+01 0.  0.
    9000005    1    3    3    0    0 -0.33665744727E+02 -0.51408599562E+02  0.17002254831E+03  0.18078963856E+03  0.10000000000E+01 0.  0.
<mgrwt>
<rscale>  0 0.12499810E+03</rscale>
<asrwt>0</asrwt>
<pdfrwt beam="1">  1        4 0.45673941E-01 0.12499810E+03</pdfrwt>
<pdfrwt beam="2">  1       -4 0.20241917E-02 0.12499810E+03</pdfrwt>
<totfact> 0.74359846E+03</totfact>
</mgrwt>
</event>
<event>
 5    1  0.3236337E-002  0.1249979E+03  0.7818608E-02  0.1235073E+00
         -4   -1    0    0    0  501 -0.00000000000E+00  0.00000000000E+00  0.26975670426E+02  0.27005549336E+02  0.12700000000E+01 0. -1.
          4   -1    0    0  501    0  0.00000000000E+00 -0.00000000000E+00 -0.14468874366E+03  0.14469431724E+03  0.12700000000E+01 0. -1.
         25    2    1    2    0    0  0.00000000000E+00  0.00000000000E+00 -0.11771307324E+03  0.17169986658E+03  0.12499790627E+03 0.  0.
    9000005    1    3    3    0    0 -0.25671019929E+02  0.54685020796E+02 -0.80820162112E+02  0.10090763780E+03  0.10000000000E+01 0.  0.
    9000005    1    3    3    0    0  0.25671019929E+02 -0.54685020796E+02 -0.36892911124E+02  0.70792228774E+02  0.10000000000E+01 0.  0.
<mgrwt>
<rscale>  0 0.12499791E+03</rscale>
<asrwt>0</asrwt>
<pdfrwt beam="2">  1        4 0.22262533E-01 0.12499791E+03</pdfrwt>
<pdfrwt beam="1">  1       -4 0.41528303E-02 0.12499791E+03</pdfrwt>
<totfact> 0.95137221E+03</totfact>
</mgrwt>
</event>
<event>
 5    1  0.3236337E-002  0.1250041E+03  0.7818608E-02  0.1235063E+00
          4   -1    0    0  501    0  0.00000000000E+00  0.00000000000E+00  0.16410301094E+02  0.16459370644E+02  0.12700000000E+01 0.  1.
         -4   -1    0    0    0  501 -0.00000000000E+00 -0.00000000000E+00 -0.23764607817E+03  0.23764947164E+03  0.12700000000E+01 0.  1.
         25    2    1    2    0    0  0.00000000000E+00  0.00000000000E+00 -0.22123577708E+03  0.25410884228E+03  0.12500413860E+03 0.  0.
    9000005    1    3    3    0    0  0.31107696343E+02  0.30583016793E+02 -0.19651377601E+02  0.47855891273E+02  0.10000000000E+01 0.  0.
    9000005    1    3    3    0    0 -0.31107696343E+02 -0.30583016793E+02 -0.20158439948E+03  0.20625295101E+03  0.10000000000E+01 0.  0.
<mgrwt>
<rscale>  0 0.12500414E+03</rscale>
<asrwt>0</asrwt>
<pdfrwt beam="1">  1        4 0.25286975E-02 0.12500414E+03</pdfrwt>
<pdfrwt beam="2">  1       -4 0.36564968E-01 0.12500414E+03</pdfrwt>
<totfact> 0.81732444E+03</totfact>
</mgrwt>
</event>
<event>
 5    1  0.3236337E-002  0.1250061E+03  0.7818608E-02  0.1235060E+00
         -4   -1    0    0    0  501 -0.00000000000E+00  0.00000000000E+00  0.32365203931E+03  0.32365453102E+03  0.12700000000E+01 0. -1.
          4   -1    0    0  501    0  0.00000000000E+00 -0.00000000000E+00 -0.12034511999E+02  0.12101337903E+02  0.12700000000E+01 0. -1.
         25    2    1    2    0    0  0.00000000000E+00  0.00000000000E+00  0.31161752731E+03  0.33575586893E+03  0.12500608061E+03 0.  0.
    9000005    1    3    3    0    0  0.40409506408E+02 -0.41929183448E+02  0.21674091721E+03  0.22442952084E+03  0.10000000000E+01 0.  0.
    9000005    1    3    3    0    0 -0.40409506408E+02  0.41929183448E+02  0.94876610105E+02  0.11132634808E+03  0.10000000000E+01 0.  0.
<mgrwt>
<rscale>  0 0.12500608E+03</rscale>
<asrwt>0</asrwt>
<pdfrwt beam="2">  1        4 0.18567956E-02 0.12500608E+03</pdfrwt>
<pdfrwt beam="1">  1       -4 0.49797951E-01 0.12500608E+03</pdfrwt>
<totfact> 0.71310941E+03</totfact>
</mgrwt>
</event>
<event>
 5    1  0.3236337E-002  0.1249848E+03  0.7818608E-02  0.1235093E+00
          4   -1    0    0  501    0  0.00000000000E+00  0.00000000000E+00  0.74294625847E+02  0.74305479810E+02  0.12700000000E+01 0. -1.
         -4   -1    0    0    0  501 -0.00000000000E+00 -0.00000000000E+00 -0.52542692874E+02  0.52558039104E+02  0.12700000000E+01 0. -1.
         25    2    1    2    0    0  0.00000000000E+00  0.00000000000E+00  0.21751932973E+02  0.12686351891E+03  0.12498482245E+03 0.  0.
    9000005    1    3    3    0    0 -0.32634665477E+02 -0.44912723191E+02  0.39979721651E+02  0.68421869593E+02  0.10000000000E+01 0.  0.
    9000005    1    3    3    0    0  0.32634665477E+02  0.44912723191E+02 -0.18227788678E+02  0.58441649321E+02  0.10000000000E+01 0.  0.
<mgrwt>
<rscale>  0 0.12498482E+03</rscale>
<asrwt>0</asrwt>
<pdfrwt beam="1">  1        4 0.11431958E-01 0.12498482E+03</pdfrwt>
<pdfrwt beam="2">  1       -4 0.80855066E-02 0.12498482E+03</pdfrwt>
<totfact> 0.10415680E+04</totfact>
</mgrwt>
</event>
<event>
 5    1  0.3236337E-002  0.1249964E+03  0.7818608E-02  0.1235075E+00
          4   -1    0    0  501    0  0.00000000000E+00  0.00000000000E+00  0.32779282422E+02  0.32803875626E+02  0.12700000000E+01 0. -1.
         -4   -1    0    0    0  501 -0.00000000000E+00 -0.00000000000E+00 -0.11908869108E+03  0.11909546273E+03  0.12700000000E+01 0. -1.
         25    2    1    2    0    0  0.00000000000E+00  0.00000000000E+00 -0.86309408657E+02  0.15189933836E+03  0.12499637983E+03 0.  0.
    9000005    1    3    3    0    0 -0.40394744051E+01 -0.53775259092E+02 -0.47848348405E+01  0.54147857652E+02  0.10000000000E+01 0.  0.
    9000005    1    3    3    0    0  0.40394744051E+01  0.53775259092E+02 -0.81524573816E+02  0.97751480704E+02  0.10000000000E+01 0.  0.
<mgrwt>
<rscale>  0 0.12499638E+03</rscale>
<asrwt>0</asrwt>
<pdfrwt beam="1">  1        4 0.50453793E-02 0.12499638E+03</pdfrwt>
<pdfrwt beam="2">  1       -4 0.18323750E-01 0.12499638E+03</pdfrwt>
<totfact> 0.98934491E+03</totfact>
</mgrwt>
</event>
<event>
 5    1  0.3236337E-002  0.1250000E+03  0.7818608E-02  0.1235069E+00
         -4   -1    0    0    0  501 -0.00000000000E+00  0.00000000000E+00  0.51030999446E+02  0.51046800139E+02  0.12700000000E+01 0.  1.
          4   -1    0    0  501    0  0.00000000000E+00 -0.00000000000E+00 -0.76513738833E+02  0.76524278045E+02  0.12700000000E+01 0.  1.
         25    2    1    2    0    0  0.00000000000E+00  0.00000000000E+00 -0.25482739387E+02  0.12757107818E+03  0.12500003993E+03 0.  0.
    9000005    1    3    3    0    0 -0.21511584095E+02 -0.57070910502E+02 -0.26638175817E+02  0.66561471488E+02  0.10000000000E+01 0.  0.
    9000005    1    3    3    0    0  0.21511584095E+02  0.57070910502E+02  0.11554364296E+01  0.61009606696E+02  0.10000000000E+01 0.  0.
<mgrwt>
<rscale>  0 0.12500004E+03</rscale>
<asrwt>0</asrwt>
<pdfrwt beam="2">  1        4 0.11773370E-01 0.12500004E+03</pdfrwt>
<pdfrwt beam="1">  1       -4 0.78529492E-02 0.12500004E+03</pdfrwt>
<totfact> 0.10396752E+04</totfact>
</mgrwt>
</event>
<event>
 5    1  0.3236337E-002  0.1250062E+03  0.7818608E-02  0.1235060E+00
          4   -1    0    0  501    0  0.00000000000E+00  0.00000000000E+00  0.17036585474E+02  0.17083856258E+02  0.12700000000E+01 0.  1.
         -4   -1    0    0    0  501 -0.00000000000E+00 -0.00000000000E+00 -0.22894210006E+03  0.22894562254E+03  0.12700000000E+01 0.  1.
         25    2    1    2    0    0  0.00000000000E+00  0.00000000000E+00 -0.21190551458E+03  0.24602947879E+03  0.12500622914E+03 0.  0.
    9000005    1    3    3    0    0  0.34977152758E+01 -0.62277059260E+02 -0.11356851180E+03  0.12957419880E+03  0.10000000000E+01 0.  0.
    9000005    1    3    3    0    0 -0.34977152758E+01  0.62277059260E+02 -0.98337002785E+02  0.11645528000E+03  0.10000000000E+01 0.  0.
<mgrwt>
<rscale>  0 0.12500623E+03</rscale>
<asrwt>0</asrwt>
<pdfrwt beam="1">  1        4 0.26249205E-02 0.12500623E+03</pdfrwt>
<pdfrwt beam="2">  1       -4 0.35225766E-01 0.12500623E+03</pdfrwt>
<totfact> 0.82895994E+03</totfact>
</mgrwt>
</event>
<event>
 5    1  0.3236337E-002  0.1249993E+03  0.7818608E-02  0.1235070E+00
          4   -1    0    0  501    0  0.00000000000E+00  0.00000000000E+00  0.48349920899E+03  0.48350087693E+03  0.12700000000E+01 0.  1.
         -4   -1    0    0    0  501 -0.00000000000E+00 -0.00000000000E+00 -0.80274373546E+01  0.81272781718E+01  0.12700000000E+01 0.  1.
         25    2    1    2    0    0  0.00000000000E+00  0.00000000000E+00  0.47547177163E+03  0.49162815510E+03  0.12499934907E+03 0.  0.
    9000005    1    3    3    0    0 -0.33662960707E+02  0.32027681743E+02  0.40209023817E+03  0.40476725035E+03  0.10000000000E+01 0.  0.
    9000005    1    3    3    0    0  0.33662960707E+02 -0.32027681743E+02  0.73381533462E+02  0.86860904754E+02  0.10000000000E+01 0.  0.
<mgrwt>
<rscale>  0 0.12499935E+03</rscale>
<asrwt>0</asrwt>
<pdfrwt beam="1">  1        4 0.74392303E-01 0.12499935E+03</pdfrwt>
<pdfrwt beam="2">  1       -4 0.12427987E-02 0.12499935E+03</pdfrwt>
<totfact> 0.56520627E+03</totfact>
</mgrwt>
</event>
<event>
 5    1  0.3236337E-002  0.1249985E+03  0.7818608E-02  0.1235072E+00
          4   -1    0    0  501    0  0.00000000000E+00  0.00000000000E+00  0.51052118993E+01  0.52608068333E+01  0.12700000000E+01 0. -1.
         -4   -1    0    0    0  501 -0.00000000000E+00 -0.00000000000E+00 -0.75348977865E+03  0.75349084894E+03  0.12700000000E+01 0. -1.
         25    2    1    2    0    0  0.00000000000E+00  0.00000000000E+00 -0.74838456675E+03  0.75875165577E+03  0.12499846152E+03 0.  0.
    9000005    1    3    3    0    0  0.51575730440E+02 -0.34250698514E+02 -0.42569422582E+03  0.43017408129E+03  0.10000000000E+01 0.  0.
    9000005    1    3    3    0    0 -0.51575730440E+02  0.34250698514E+02 -0.32269034093E+03  0.32857757448E+03  0.10000000000E+01 0.  0.
<mgrwt>
<rscale>  0 0.12499846E+03</rscale>
<asrwt>0</asrwt>
<pdfrwt beam="1">  1        4 0.79746898E-03 0.12499846E+03</pdfrwt>
<pdfrwt beam="2">  1       -4 0.11593347E+00 0.12499846E+03</pdfrwt>
<totfact> 0.40160380E+03</totfact>
</mgrwt>
</event>
<event>
 5    1  0.3236337E-002  0.1250038E+03  0.7818608E-02  0.1235063E+00
         -4   -1    0    0    0  501 -0.00000000000E+00  0.00000000000E+00  0.33439226454E+03  0.33439467622E+03  0.12700000000E+01 0.  1.
          4   -1    0    0  501    0  0.00000000000E+00 -0.00000000000E+00 -0.11645370117E+02  0.11714416126E+02  0.12700000000E+01 0.  1.
         25    2    1    2    0    0  0.00000000000E+00  0.00000000000E+00  0.32274689442E+03  0.34610909234E+03  0.12500378372E+03 0.  0.
    9000005    1    3    3    0    0 -0.14573603088E+02 -0.18550917938E+02  0.32160381564E+03  0.32246944149E+03  0.10000000000E+01 0.  0.
    9000005    1    3    3    0    0  0.14573603088E+02  0.18550917938E+02  0.11430787830E+01  0.23639650852E+02  0.10000000000E+01 0.  0.
<mgrwt>
<rscale>  0 0.12500378E+03</rscale>
<asrwt>0</asrwt>
<pdfrwt beam="2">  1        4 0.17970921E-02 0.12500378E+03</pdfrwt>
<pdfrwt beam="1">  1       -4 0.51450462E-01 0.12500378E+03</pdfrwt>
<totfact> 0.70148857E+03</totfact>
</mgrwt>
</event>
<event>
 5    1  0.3236337E-002  0.1249860E+03  0.7818608E-02  0.1235091E+00
          4   -1    0    0  501    0  0.00000000000E+00  0.00000000000E+00  0.65844995955E+02  0.65857242519E+02  0.12700000000E+01 0. -1.
         -4   -1    0    0    0  501 -0.00000000000E+00 -0.00000000000E+00 -0.59287053136E+02  0.59300654039E+02  0.12700000000E+01 0. -1.
         25    2    1    2    0    0  0.00000000000E+00  0.00000000000E+00  0.65579428190E+01  0.12515789656E+03  0.12498596904E+03 0.  0.
    9000005    1    3    3    0    0  0.60633709014E+02 -0.94528230758E+01  0.15066764754E+02  0.63196597480E+02  0.10000000000E+01 0.  0.
    9000005    1    3    3    0    0 -0.60633709014E+02  0.94528230758E+01 -0.85088219350E+01  0.61961299079E+02  0.10000000000E+01 0.  0.
<mgrwt>
<rscale>  0 0.12498597E+03</rscale>
<asrwt>0</asrwt>
<pdfrwt beam="1">  1        4 0.10131988E-01 0.12498597E+03</pdfrwt>
<pdfrwt beam="2">  1       -4 0.91230734E-02 0.12498597E+03</pdfrwt>
<totfact> 0.10452748E+04</totfact>
</mgrwt>
</event>
<event>
 5    1  0.3236337E-002  0.1250139E+03  0.7818608E-02  0.1235048E+00
         -4   -1    0    0    0  501 -0.00000000000E+00  0.00000000000E+00  0.21188282735E+02  0.21226309742E+02  0.12700000000E+01 0. -1.
          4   -1    0    0  501    0  0.00000000000E+00 -0.00000000000E+00 -0.18419433777E+03  0.18419871598E+03  0.12700000000E+01 0. -1.
         25    2    1    2    0    0  0.00000000000E+00  0.00000000000E+00 -0.16300605504E+03  0.20542502572E+03  0.12501386808E+03 0.  0.
    9000005    1    3    3    0    0  0.34713726054E+02  0.16862833462E+02 -0.16228384131E+03  0.16681259868E+03  0.10000000000E+01 0.  0.
    9000005    1    3    3    0    0 -0.34713726054E+02 -0.16862833462E+02 -0.72221372706E+00  0.38612427036E+02  0.10000000000E+01 0.  0.
<mgrwt>
<rscale>  0 0.12501387E+03</rscale>
<asrwt>0</asrwt>
<pdfrwt beam="2">  1        4 0.28340851E-01 0.12501387E+03</pdfrwt>
<pdfrwt beam="1">  1       -4 0.32629979E-02 0.12501387E+03</pdfrwt>
<totfact> 0.89200857E+03</totfact>
</mgrwt>
</event>
<event>
 5    1  0.3236337E-002  0.1250007E+03  0.7818608E-02  0.1235068E+00
          4   -1    0    0  501    0  0.00000000000E+00  0.00000000000E+00  0.18446815604E+04  0.18446819975E+04  0.12700000000E+01 0. -1.
         -4   -1    0    0    0  501 -0.00000000000E+00 -0.00000000000E+00 -0.19267035063E+01  0.23076148728E+01  0.12700000000E+01 0. -1.
         25    2    1    2    0    0  0.00000000000E+00  0.00000000000E+00  0.18427548569E+04  0.18469896124E+04  0.12500066355E+03 0.  0.
    9000005    1    3    3    0    0  0.27372151923E+02 -0.47008315192E+02  0.46684922673E+03  0.47000874130E+03  0.10000000000E+01 0.  0.
    9000005    1    3    3    0    0 -0.27372151923E+02  0.47008315192E+02  0.13759056301E+04  0.13769808711E+04  0.10000000000E+01 0.  0.
<mgrwt>
<rscale>  0 0.12500066E+03</rscale>
<asrwt>0</asrwt>
<pdfrwt beam="1">  1        4 0.28382738E+00 0.12500066E+03</pdfrwt>
<pdfrwt beam="2">  1       -4 0.32574941E-03 0.12500066E+03</pdfrwt>
<totfact> 0.11993067E+03</totfact>
</mgrwt>
</event>
<event>
 5    1  0.3236337E-002  0.1250454E+03  0.7818608E-02  0.1234998E+00
         -4   -1    0    0    0  501 -0.00000000000E+00  0.00000000000E+00  0.55574290917E+01  0.57006945287E+01  0.12700000000E+01 0. -1.
          4   -1    0    0  501    0  0.00000000000E+00 -0.00000000000E+00 -0.69430318033E+03  0.69430434185E+03  0.12700000000E+01 0. -1.
         25    2    1    2    0    0  0.00000000000E+00  0.00000000000E+00 -0.68874575123E+03  0.70000503638E+03  0.12504535622E+03 0.  0.
    9000005    1    3    3    0    0 -0.34127302691E+02 -0.29668025646E+02 -0.58601116461E+03  0.58775415743E+03  0.10000000000E+01 0.  0.
    9000005    1    3    3    0    0  0.34127302691E+02  0.29668025646E+02 -0.10273458663E+03  0.11225087895E+03  0.10000000000E+01 0.  0.
<mgrwt>
<rscale>  0 0.12504536E+03</rscale>
<asrwt>0</asrwt>
<pdfrwt beam="2">  1        4 0.10682692E+00 0.12504536E+03</pdfrwt>
<pdfrwt beam="1">  1       -4 0.86609941E-03 0.12504536E+03</pdfrwt>
<totfact> 0.43043718E+03</totfact>
</mgrwt>
</event>
<event>
 5    1  0.3236337E-002  0.1249996E+03  0.7818608E-02  0.1235070E+00
         -4   -1    0    0    0  501 -0.00000000000E+00  0.00000000000E+00  0.70068378890E+02  0.70079887416E+02  0.12700000000E+01 0. -1.
          4   -1    0    0  501    0  0.00000000000E+00 -0.00000000000E+00 -0.55725390302E+02  0.55739860282E+02  0.12700000000E+01 0. -1.
         25    2    1    2    0    0  0.00000000000E+00  0.00000000000E+00  0.14342988588E+02  0.12581974770E+03  0.12499955036E+03 0.  0.
    9000005    1    3    3    0    0 -0.60752026671E+02 -0.64300698531E+01 -0.60703335242E+01  0.61400354169E+02  0.10000000000E+01 0.  0.
    9000005    1    3    3    0    0  0.60752026671E+02  0.64300698531E+01  0.20413322113E+02  0.64419393529E+02  0.10000000000E+01 0.  0.
<mgrwt>
<rscale>  0 0.12499955E+03</rscale>
<asrwt>0</asrwt>
<pdfrwt beam="2">  1        4 0.85751354E-02 0.12499955E+03</pdfrwt>
<pdfrwt beam="1">  1       -4 0.10781749E-01 0.12499955E+03</pdfrwt>
<totfact> 0.10435017E+04</totfact>
</mgrwt>
</event>
<event>
 5    1  0.3236337E-002  0.1250061E+03  0.7818608E-02  0.1235060E+00
          4   -1    0    0  501    0  0.00000000000E+00  0.00000000000E+00  0.28920453200E+02  0.28948324879E+02  0.12700000000E+01 0.  1.
         -4   -1    0    0    0  501 -0.00000000000E+00 -0.00000000000E+00 -0.13498600821E+03  0.13499198240E+03  0.12700000000E+01 0.  1.
         25    2    1    2    0    0  0.00000000000E+00  0.00000000000E+00 -0.10606555501E+03  0.16394030728E+03  0.12500608942E+03 0.  0.
    9000005    1    3    3    0    0 -0.43588029425E+02  0.28092487853E+02 -0.72907566922E+01  0.52376133077E+02  0.10000000000E+01 0.  0.
    9000005    1    3    3    0    0  0.43588029425E+02 -0.28092487853E+02 -0.98774798321E+02  0.11156417421E+03  0.10000000000E+01 0.  0.
<mgrwt>
<rscale>  0 0.12500609E+03</rscale>
<asrwt>0</asrwt>
<pdfrwt beam="1">  1        4 0.44519041E-02 0.12500609E+03</pdfrwt>
<pdfrwt beam="2">  1       -4 0.20769681E-01 0.12500609E+03</pdfrwt>
<totfact> 0.96575245E+03</totfact>
</mgrwt>
</event>
<event>
 5    1  0.3236337E-002  0.1250108E+03  0.7818608E-02  0.1235052E+00
         -4   -1    0    0    0  501 -0.00000000000E+00  0.00000000000E+00  0.10862915273E+03  0.10863657636E+03  0.12700000000E+01 0. -1.
          4   -1    0    0  501    0  0.00000000000E+00 -0.00000000000E+00 -0.35945842689E+02  0.35968270832E+02  0.12700000000E+01 0. -1.
         25    2    1    2    0    0  0.00000000000E+00  0.00000000000E+00  0.72683310046E+02  0.14460484719E+03  0.12501079263E+03 0.  0.
    9000005    1    3    3    0    0 -0.34462128975E+02  0.29616747225E+02 -0.13292210796E+02  0.47354756018E+02  0.10000000000E+01 0.  0.
    9000005    1    3    3    0    0  0.34462128975E+02 -0.29616747225E+02  0.85975520842E+02  0.97250091176E+02  0.10000000000E+01 0.  0.
<mgrwt>
<rscale>  0 0.12501079E+03</rscale>
<asrwt>0</asrwt>
<pdfrwt beam="2">  1        4 0.55324260E-02 0.12501079E+03</pdfrwt>
<pdfrwt beam="1">  1       -4 0.16714473E-01 0.12501079E+03</pdfrwt>
<totfact> 0.10036584E+04</totfact>
</mgrwt>
</event>
<event>
 5    1  0.3236337E-002  0.1249961E+03  0.7818608E-02  0.1235075E+00
         -4   -1    0    0    0  501 -0.00000000000E+00  0.00000000000E+00  0.34724337124E+01  0.36973904158E+01  0.12700000000E+01 0.  1.
          4   -1    0    0  501    0  0.00000000000E+00 -0.00000000000E+00 -0.10893422971E+04  0.10893430374E+04  0.12700000000E+01 0.  1.
         25    2    1    2    0    0  0.00000000000E+00  0.00000000000E+00 -0.10858698634E+04  0.10930404279E+04  0.12499606652E+03 0.  0.
    9000005    1    3    3    0    0 -0.13642514449E+02  0.59968917197E+02 -0.44610456907E+03  0.45032507789E+03  0.10000000000E+01 0.  0.
    9000005    1    3    3    0    0  0.13642514449E+02 -0.59968917197E+02 -0.63976529435E+03  0.64271534997E+03  0.10000000000E+01 0.  0.
<mgrwt>
<rscale>  0 0.12499607E+03</rscale>
<asrwt>0</asrwt>
<pdfrwt beam="2">  1        4 0.16760822E+00 0.12499607E+03</pdfrwt>
<pdfrwt beam="1">  1       -4 0.55158275E-03 0.12499607E+03</pdfrwt>
<totfact> 0.27690395E+03</totfact>
</mgrwt>
</event>
<event>
 5    1  0.3236337E-002  0.1250030E+03  0.7818608E-02  0.1235065E+00
          4   -1    0    0  501    0  0.00000000000E+00  0.00000000000E+00  0.35292436832E+02  0.35315279944E+02  0.12700000000E+01 0.  1.
         -4   -1    0    0    0  501 -0.00000000000E+00 -0.00000000000E+00 -0.11062532051E+03  0.11063261019E+03  0.12700000000E+01 0.  1.
         25    2    1    2    0    0  0.00000000000E+00  0.00000000000E+00 -0.75332883679E+02  0.14594789014E+03  0.12500297305E+03 0.  0.
    9000005    1    3    3    0    0 -0.35155297297E+02 -0.34651137191E+02  0.70806342353E+01  0.49877165295E+02  0.10000000000E+01 0.  0.
    9000005    1    3    3    0    0  0.35155297297E+02  0.34651137191E+02 -0.82413517914E+02  0.96070724842E+02  0.10000000000E+01 0.  0.
<mgrwt>
<rscale>  0 0.12500297E+03</rscale>
<asrwt>0</asrwt>
<pdfrwt beam="1">  1        4 0.54319236E-02 0.12500297E+03</pdfrwt>
<pdfrwt beam="2">  1       -4 0.17021598E-01 0.12500297E+03</pdfrwt>
<totfact> 0.10011095E+04</totfact>
</mgrwt>
</event>
<event>
 5    1  0.3236337E-002  0.1250003E+03  0.7818608E-02  0.1235069E+00
          4   -1    0    0  501    0  0.00000000000E+00  0.00000000000E+00  0.10298241994E+03  0.10299025059E+03  0.12700000000E+01 0. -1.
         -4   -1    0    0    0  501 -0.00000000000E+00 -0.00000000000E+00 -0.37911484817E+02  0.37932750770E+02  0.12700000000E+01 0. -1.
         25    2    1    2    0    0  0.00000000000E+00  0.00000000000E+00  0.65070935125E+02  0.14092300136E+03  0.12500026286E+03 0.  0.
    9000005    1    3    3    0    0  0.12075540729E+02  0.26342621492E+02 -0.29884366887E+02  0.41639257621E+02  0.10000000000E+01 0.  0.
    9000005    1    3    3    0    0 -0.12075540729E+02 -0.26342621492E+02  0.94955302013E+02  0.99283743741E+02  0.10000000000E+01 0.  0.
<mgrwt>
<rscale>  0 0.12500026E+03</rscale>
<asrwt>0</asrwt>
<pdfrwt beam="1">  1        4 0.15845687E-01 0.12500026E+03</pdfrwt>
<pdfrwt beam="2">  1       -4 0.58347744E-02 0.12500026E+03</pdfrwt>
<totfact> 0.10114432E+04</totfact>
</mgrwt>
</event>
<event>
 5    1  0.3236337E-002  0.1250012E+03  0.7818608E-02  0.1235067E+00
          4   -1    0    0  501    0  0.00000000000E+00  0.00000000000E+00  0.64873740813E+02  0.64886170692E+02  0.12700000000E+01 0. -1.
         -4   -1    0    0    0  501 -0.00000000000E+00 -0.00000000000E+00 -0.60189374345E+02  0.60202771398E+02  0.12700000000E+01 0. -1.
         25    2    1    2    0    0  0.00000000000E+00  0.00000000000E+00  0.46843664679E+01  0.12508894209E+03  0.12500120057E+03 0.  0.
    9000005    1    3    3    0    0 -0.26946100642E+02  0.29353076910E+02 -0.45833374056E+02  0.60740379002E+02  0.10000000000E+01 0.  0.
    9000005    1    3    3    0    0  0.26946100642E+02 -0.29353076910E+02  0.50517740524E+02  0.64348563089E+02  0.10000000000E+01 0.  0.
<mgrwt>
<rscale>  0 0.12500120E+03</rscale>
<asrwt>0</asrwt>
<pdfrwt beam="1">  1        4 0.99825621E-02 0.12500120E+03</pdfrwt>
<pdfrwt beam="2">  1       -4 0.92618905E-02 0.12500120E+03</pdfrwt>
<totfact> 0.10450648E+04</totfact>
</mgrwt>
</event>
<event>
 5    1  0.3236337E-002  0.1250006E+03  0.7818608E-02  0.1235068E+00
          4   -1    0    0  501    0  0.00000000000E+00  0.00000000000E+00  0.11270689755E+03  0.11271405261E+03  0.12700000000E+01 0.  1.
         -4   -1    0    0    0  501 -0.00000000000E+00 -0.00000000000E+00 -0.34638898624E+02  0.34662172434E+02  0.12700000000E+01 0.  1.
         25    2    1    2    0    0  0.00000000000E+00  0.00000000000E+00  0.78067998925E+02  0.14737622504E+03  0.12500055700E+03 0.  0.
    9000005    1    3    3    0    0  0.25811461391E+02 -0.55709845964E+02  0.52756434155E+02  0.80957148055E+02  0.10000000000E+01 0.  0.
    9000005    1    3    3    0    0 -0.25811461391E+02  0.55709845964E+02  0.25311564770E+02  0.66419076986E+02  0.10000000000E+01 0.  0.
<mgrwt>
<rscale>  0 0.12500056E+03</rscale>
<asrwt>0</asrwt>
<pdfrwt beam="1">  1        4 0.17341863E-01 0.12500056E+03</pdfrwt>
<pdfrwt beam="2">  1       -4 0.53314021E-02 0.12500056E+03</pdfrwt>
<totfact> 0.99828051E+03</totfact>
</mgrwt>
</event>
<event>
 5    1  0.3236337E-002  0.1250029E+03  0.7818608E-02  0.1235065E+00
         -4   -1    0    0    0  501 -0.00000000000E+00  0.00000000000E+00  0.64705521501E+02  0.64717983688E+02  0.12700000000E+01 0.  1.
          4   -1    0    0  501    0  0.00000000000E+00 -0.00000000000E+00 -0.60347521106E+02  0.60360883059E+02  0.12700000000E+01 0.  1.
         25    2    1    2    0    0  0.00000000000E+00  0.00000000000E+00  0.43580003950E+01  0.12507886675E+03  0.12500292292E+03 0.  0.
    9000005    1    3    3    0    0 -0.45792883267E+02 -0.40949769688E+02  0.13655968177E+02  0.62939314123E+02  0.10000000000E+01 0.  0.
    9000005    1    3    3    0    0  0.45792883267E+02  0.40949769688E+02 -0.92979677825E+01  0.62139552624E+02  0.10000000000E+01 0.  0.
<mgrwt>
<rscale>  0 0.12500292E+03</rscale>
<asrwt>0</asrwt>
<pdfrwt beam="2">  1        4 0.92862205E-02 0.12500292E+03</pdfrwt>
<pdfrwt beam="1">  1       -4 0.99566821E-02 0.12500292E+03</pdfrwt>
<totfact> 0.10450459E+04</totfact>
</mgrwt>
</event>
<event>
 5    1  0.3236337E-002  0.1250027E+03  0.7818608E-02  0.1235065E+00
         -4   -1    0    0    0  501 -0.00000000000E+00  0.00000000000E+00  0.80835656770E+01  0.81827216777E+01  0.12700000000E+01 0. -1.
          4   -1    0    0  501    0  0.00000000000E+00 -0.00000000000E+00 -0.48020851388E+03  0.48021019325E+03  0.12700000000E+01 0. -1.
         25    2    1    2    0    0  0.00000000000E+00  0.00000000000E+00 -0.47212494821E+03  0.48839291493E+03  0.12500269052E+03 0.  0.
    9000005    1    3    3    0    0 -0.23925549012E+02 -0.52384893447E+01 -0.46069440897E+03  0.46134608715E+03  0.10000000000E+01 0.  0.
    9000005    1    3    3    0    0  0.23925549012E+02  0.52384893447E+01 -0.11430539233E+02  0.27046827787E+02  0.10000000000E+01 0.  0.
<mgrwt>
<rscale>  0 0.12500269E+03</rscale>
<asrwt>0</asrwt>
<pdfrwt beam="2">  1        4 0.73885967E-01 0.12500269E+03</pdfrwt>
<pdfrwt beam="1">  1       -4 0.12513824E-02 0.12500269E+03</pdfrwt>
<totfact> 0.56772965E+03</totfact>
</mgrwt>
</event>
<event>
 5    1  0.3236337E-002  0.1249965E+03  0.7818608E-02  0.1235075E+00
          4   -1    0    0  501    0  0.00000000000E+00  0.00000000000E+00  0.26419456037E+02  0.26449963275E+02  0.12700000000E+01 0. -1.
         -4   -1    0    0    0  501 -0.00000000000E+00 -0.00000000000E+00 -0.14772811701E+03  0.14773357592E+03  0.12700000000E+01 0. -1.
         25    2    1    2    0    0  0.00000000000E+00  0.00000000000E+00 -0.12130866097E+03  0.17418353920E+03  0.12499645635E+03 0.  0.
    9000005    1    3    3    0    0  0.35237323617E+02 -0.31454975162E+02 -0.11766811678E+03  0.12679854157E+03  0.10000000000E+01 0.  0.
    9000005    1    3    3    0    0 -0.35237323617E+02  0.31454975162E+02 -0.36405441938E+01  0.47384997628E+02  0.10000000000E+01 0.  0.
<mgrwt>
<rscale>  0 0.12499646E+03</rscale>
<asrwt>0</asrwt>
<pdfrwt beam="1">  1        4 0.40672984E-02 0.12499646E+03</pdfrwt>
<pdfrwt beam="2">  1       -4 0.22730169E-01 0.12499646E+03</pdfrwt>
<totfact> 0.94682114E+03</totfact>
</mgrwt>
</event>
<event>
 5    1  0.3236337E-002  0.1250035E+03  0.7818608E-02  0.1235064E+00
         -4   -1    0    0    0  501 -0.00000000000E+00  0.00000000000E+00  0.78403052667E+01  0.79424987677E+01  0.12700000000E+01 0.  1.
          4   -1    0    0  501    0  0.00000000000E+00 -0.00000000000E+00 -0.49492520803E+03  0.49492683746E+03  0.12700000000E+01 0.  1.
         25    2    1    2    0    0  0.00000000000E+00  0.00000000000E+00 -0.48708490276E+03  0.50286933623E+03  0.12500346725E+03 0.  0.
    9000005    1    3    3    0    0  0.21760187897E+02  0.56967849507E+02 -0.29849882466E+03  0.30466603023E+03  0.10000000000E+01 0.  0.
    9000005    1    3    3    0    0 -0.21760187897E+02 -0.56967849507E+02 -0.18858607810E+03  0.19820330600E+03  0.10000000000E+01 0.  0.
<mgrwt>
<rscale>  0 0.12500347E+03</rscale>
<asrwt>0</asrwt>
<pdfrwt beam="2">  1        4 0.76150302E-01 0.12500347E+03</pdfrwt>
<pdfrwt beam="1">  1       -4 0.12141876E-02 0.12500347E+03</pdfrwt>
<totfact> 0.55638196E+03</totfact>
</mgrwt>
</event>
<event>
 5    1  0.3236337E-002  0.1250020E+03  0.7818608E-02  0.1235066E+00
          4   -1    0    0  501    0  0.00000000000E+00  0.00000000000E+00  0.63003107085E+02  0.63015905947E+02  0.12700000000E+01 0.  1.
         -4   -1    0    0    0  501 -0.00000000000E+00 -0.00000000000E+00 -0.61977263622E+02  0.61990274286E+02  0.12700000000E+01 0.  1.
         25    2    1    2    0    0  0.00000000000E+00  0.00000000000E+00  0.10258434627E+01  0.12500618023E+03  0.12500197095E+03 0.  0.
    9000005    1    3    3    0    0 -0.20487018635E+00 -0.23838538660E+02  0.58282117970E+02  0.62977163896E+02  0.10000000000E+01 0.  0.
    9000005    1    3    3    0    0  0.20487018635E+00  0.23838538660E+02 -0.57256274508E+02  0.62029016337E+02  0.10000000000E+01 0.  0.
<mgrwt>
<rscale>  0 0.12500197E+03</rscale>
<asrwt>0</asrwt>
<pdfrwt beam="1">  1        4 0.96947711E-02 0.12500197E+03</pdfrwt>
<pdfrwt beam="2">  1       -4 0.95369490E-02 0.12500197E+03</pdfrwt>
<totfact> 0.10452263E+04</totfact>
</mgrwt>
</event>
<event>
 5    1  0.3236337E-002  0.1250015E+03  0.7818608E-02  0.1235067E+00
         -4   -1    0    0    0  501 -0.00000000000E+00  0.00000000000E+00  0.60209765127E+02  0.60223157645E+02  0.12700000000E+01 0. -1.
          4   -1    0    0  501    0  0.00000000000E+00 -0.00000000000E+00 -0.64852112069E+02  0.64864546093E+02  0.12700000000E+01 0. -1.
         25    2    1    2    0    0  0.00000000000E+00  0.00000000000E+00 -0.46423469416E+01  0.12508770374E+03  0.12500152896E+03 0.  0.
    9000005    1    3    3    0    0 -0.21105743514E+02 -0.12566534764E+02  0.55181257962E+02  0.60409779304E+02  0.10000000000E+01 0.  0.
    9000005    1    3    3    0    0  0.21105743514E+02  0.12566534764E+02 -0.59823604904E+02  0.64677924433E+02  0.10000000000E+01 0.  0.
<mgrwt>
<rscale>  0 0.12500153E+03</rscale>
<asrwt>0</asrwt>
<pdfrwt beam="2">  1        4 0.99792346E-02 0.12500153E+03</pdfrwt>
<pdfrwt beam="1">  1       -4 0.92650275E-02 0.12500153E+03</pdfrwt>
<totfact> 0.10450597E+04</totfact>
</mgrwt>
</event>
<event>
 5    1  0.3236337E-002  0.1249900E+03  0.7818608E-02  0.1235085E+00
          4   -1    0    0  501    0  0.00000000000E+00  0.00000000000E+00  0.31708671784E+02  0.31734094698E+02  0.12700000000E+01 0. -1.
         -4   -1    0    0    0  501 -0.00000000000E+00 -0.00000000000E+00 -0.12309406508E+03  0.12310061640E+03  0.12700000000E+01 0. -1.
         25    2    1    2    0    0  0.00000000000E+00  0.00000000000E+00 -0.91385393292E+02  0.15483471109E+03  0.12498999021E+03 0.  0.
    9000005    1    3    3    0    0 -0.31613222563E+02  0.13508904901E+01  0.21056617026E+02  0.38021071349E+02  0.10000000000E+01 0.  0.
    9000005    1    3    3    0    0  0.31613222563E+02 -0.13508904901E+01 -0.11244201032E+03  0.11681363974E+03  0.10000000000E+01 0.  0.
<mgrwt>
<rscale>  0 0.12498999E+03</rscale>
<asrwt>0</asrwt>
<pdfrwt beam="1">  1        4 0.48807168E-02 0.12498999E+03</pdfrwt>
<pdfrwt beam="2">  1       -4 0.18940008E-01 0.12498999E+03</pdfrwt>
<totfact> 0.98370101E+03</totfact>
</mgrwt>
</event>
<event>
 5    1  0.3236337E-002  0.1249701E+03  0.7818608E-02  0.1235116E+00
         -4   -1    0    0    0  501 -0.00000000000E+00  0.00000000000E+00  0.21818722062E+03  0.21819091672E+03  0.12700000000E+01 0.  1.
          4   -1    0    0  501    0  0.00000000000E+00 -0.00000000000E+00 -0.17868263831E+02  0.17913340066E+02  0.12700000000E+01 0.  1.
         25    2    1    2    0    0  0.00000000000E+00  0.00000000000E+00  0.20031895679E+03  0.23610425679E+03  0.12497013894E+03 0.  0.
    9000005    1    3    3    0    0  0.93588339165E+01 -0.60334063005E+02  0.75123989293E+02  0.96811159988E+02  0.10000000000E+01 0.  0.
    9000005    1    3    3    0    0 -0.93588339165E+01  0.60334063005E+02  0.12519496749E+03  0.13929309680E+03  0.10000000000E+01 0.  0.
<mgrwt>
<rscale>  0 0.12497014E+03</rscale>
<asrwt>0</asrwt>
<pdfrwt beam="2">  1        4 0.27527155E-02 0.12497014E+03</pdfrwt>
<pdfrwt beam="1">  1       -4 0.33571016E-01 0.12497014E+03</pdfrwt>
<totfact> 0.84437227E+03</totfact>
</mgrwt>
</event>
<event>
 4    1  0.3236337E-002  0.1248810E+03  0.7818608E-02  0.1235255E+00
         -4   -1    0    0    0  501 -0.00000000000E+00  0.00000000000E+00  0.19511036350E+02  0.19552325679E+02  0.12700000000E+01 0. -1.
          4   -1    0    0  501    0  0.00000000000E+00 -0.00000000000E+00 -0.19957166045E+03  0.19957570132E+03  0.12700000000E+01 0. -1.
    9000005    1    1    2    0    0 -0.17785256034E+02 -0.32084043937E+02 -0.13858386720E+01  0.36723585832E+02  0.10000000000E+01 0.  0.
    9000005    1    1    2    0    0  0.17785256034E+02  0.32084043937E+02 -0.17867478543E+03  0.18240444116E+03  0.10000000000E+01 0.  0.
<mgrwt>
<rscale>  0 0.12488100E+03</rscale>
<asrwt>0</asrwt>
<pdfrwt beam="2">  1        4 0.30706818E-01 0.12488100E+03</pdfrwt>
<pdfrwt beam="1">  1       -4 0.30051850E-02 0.12488100E+03</pdfrwt>
<totfact> 0.87238210E+03</totfact>
</mgrwt>
</event>
<event>
 5    1  0.3236337E-002  0.1249842E+03  0.7818608E-02  0.1235094E+00
          4   -1    0    0  501    0  0.00000000000E+00  0.00000000000E+00  0.42371070529E+02  0.42390099289E+02  0.12700000000E+01 0. -1.
         -4   -1    0    0    0  501 -0.00000000000E+00 -0.00000000000E+00 -0.92123983499E+02  0.92132737046E+02  0.12700000000E+01 0. -1.
         25    2    1    2    0    0  0.00000000000E+00  0.00000000000E+00 -0.49752912970E+02  0.13452283634E+03  0.12498416358E+03 0.  0.
    9000005    1    3    3    0    0 -0.13263774028E+02 -0.24554491143E+02  0.35295550164E+02  0.45006961663E+02  0.10000000000E+01 0.  0.
    9000005    1    3    3    0    0  0.13263774028E+02  0.24554491143E+02 -0.85048463134E+02  0.89515874672E+02  0.10000000000E+01 0.  0.
<mgrwt>
<rscale>  0 0.12498416E+03</rscale>
<asrwt>0</asrwt>
<pdfrwt beam="1">  1        4 0.65207633E-02 0.12498416E+03</pdfrwt>
<pdfrwt beam="2">  1       -4 0.14175058E-01 0.12498416E+03</pdfrwt>
<totfact> 0.10251799E+04</totfact>
</mgrwt>
</event>
<event>
 5    1  0.3236337E-002  0.1249950E+03  0.7818608E-02  0.1235077E+00
          4   -1    0    0  501    0  0.00000000000E+00  0.00000000000E+00  0.12788455301E+03  0.12789085893E+03  0.12700000000E+01 0. -1.
         -4   -1    0    0    0  501 -0.00000000000E+00 -0.00000000000E+00 -0.30522415023E+02  0.30548825163E+02  0.12700000000E+01 0. -1.
         25    2    1    2    0    0  0.00000000000E+00  0.00000000000E+00  0.97362137989E+02  0.15843968410E+03  0.12499499023E+03 0.  0.
    9000005    1    3    3    0    0  0.47050147686E+02 -0.78441635324E+01  0.99852057606E+02  0.11066472205E+03  0.10000000000E+01 0.  0.
    9000005    1    3    3    0    0 -0.47050147686E+02  0.78441635324E+01 -0.24899196169E+01  0.47774962046E+02  0.10000000000E+01 0.  0.
<mgrwt>
<rscale>  0 0.12499499E+03</rscale>
<asrwt>0</asrwt>
<pdfrwt beam="1">  1        4 0.19677063E-01 0.12499499E+03</pdfrwt>
<pdfrwt beam="2">  1       -4 0.46982728E-02 0.12499499E+03</pdfrwt>
<totfact> 0.97655445E+03</totfact>
</mgrwt>
</event>
<event>
 5    1  0.3236337E-002  0.1249973E+03  0.7818608E-02  0.1235074E+00
          4   -1    0    0  501    0  0.00000000000E+00  0.00000000000E+00  0.23137355391E+03  0.23137703937E+03  0.12700000000E+01 0. -1.
         -4   -1    0    0    0  501 -0.00000000000E+00 -0.00000000000E+00 -0.16854628381E+02  0.16902408050E+02  0.12700000000E+01 0. -1.
         25    2    1    2    0    0  0.00000000000E+00  0.00000000000E+00  0.21451892553E+03  0.24827944742E+03  0.12499725838E+03 0.  0.
    9000005    1    3    3    0    0 -0.19751785084E+02  0.99995228848E+01  0.22333288432E+03  0.22442972328E+03  0.10000000000E+01 0.  0.
    9000005    1    3    3    0    0  0.19751785084E+02 -0.99995228848E+01 -0.88139587957E+01  0.23849724140E+02  0.10000000000E+01 0.  0.
<mgrwt>
<rscale>  0 0.12499726E+03</rscale>
<asrwt>0</asrwt>
<pdfrwt beam="1">  1        4 0.35599871E-01 0.12499726E+03</pdfrwt>
<pdfrwt beam="2">  1       -4 0.25969635E-02 0.12499726E+03</pdfrwt>
<totfact> 0.82584585E+03</totfact>
</mgrwt>
</event>
<event>
 5    1  0.3236337E-002  0.1250125E+03  0.7818608E-02  0.1235050E+00
         -4   -1    0    0    0  501 -0.00000000000E+00  0.00000000000E+00  0.94900920562E+01  0.95746930622E+01  0.12700000000E+01 0. -1.
          4   -1    0    0  501    0  0.00000000000E+00 -0.00000000000E+00 -0.40978328137E+03  0.40978524936E+03  0.12700000000E+01 0. -1.
         25    2    1    2    0    0  0.00000000000E+00  0.00000000000E+00 -0.40029318931E+03  0.41935994242E+03  0.12501249495E+03 0.  0.
    9000005    1    3    3    0    0  0.43763409811E+02 -0.42096228135E+02 -0.15053760216E+03  0.16232651702E+03  0.10000000000E+01 0.  0.
    9000005    1    3    3    0    0 -0.43763409811E+02  0.42096228135E+02 -0.24975558715E+03  0.25703342540E+03  0.10000000000E+01 0.  0.
<mgrwt>
<rscale>  0 0.12501249E+03</rscale>
<asrwt>0</asrwt>
<pdfrwt beam="2">  1        4 0.63050227E-01 0.12501249E+03</pdfrwt>
<pdfrwt beam="1">  1       -4 0.14666736E-02 0.12501249E+03</pdfrwt>
<totfact> 0.62695158E+03</totfact>
</mgrwt>
</event>
<event>
 5    1  0.3236337E-002  0.1250010E+03  0.7818608E-02  0.1235068E+00
         -4   -1    0    0    0  501 -0.00000000000E+00  0.00000000000E+00  0.75096487498E+02  0.75107225581E+02  0.12700000000E+01 0. -1.
          4   -1    0    0  501    0  0.00000000000E+00 -0.00000000000E+00 -0.51995000486E+02  0.52010508318E+02  0.12700000000E+01 0. -1.
         25    2    1    2    0    0  0.00000000000E+00  0.00000000000E+00  0.23101487012E+02  0.12711773390E+03  0.12500095827E+03 0.  0.
    9000005    1    3    3    0    0  0.46620722435E+02  0.93769107337E+01  0.52782268518E+02  0.71051995645E+02  0.10000000000E+01 0.  0.
    9000005    1    3    3    0    0 -0.46620722435E+02 -0.93769107337E+01 -0.29680781506E+02  0.56065738255E+02  0.10000000000E+01 0.  0.
<mgrwt>
<rscale>  0 0.12500096E+03</rscale>
<asrwt>0</asrwt>
<pdfrwt beam="2">  1        4 0.80012498E-02 0.12500096E+03</pdfrwt>
<pdfrwt beam="1">  1       -4 0.11555325E-01 0.12500096E+03</pdfrwt>
<totfact> 0.10406364E+04</totfact>
</mgrwt>
</event>
<event>
 5    1  0.3236337E-002  0.1249949E+03  0.7818608E-02  0.1235077E+00
         -4   -1    0    0    0  501 -0.00000000000E+00  0.00000000000E+00  0.17706312273E+01  0.21789986102E+01  0.12700000000E+01 0. -1.
          4   -1    0    0  501    0  0.00000000000E+00 -0.00000000000E+00 -0.19774648490E+04  0.19774652569E+04  0.12700000000E+01 0. -1.
         25    2    1    2    0    0  0.00000000000E+00  0.00000000000E+00 -0.19756942178E+04  0.19796442555E+04  0.12499494357E+03 0.  0.
    9000005    1    3    3    0    0  0.41088349215E+02  0.33804250088E+02 -0.15068712907E+04  0.15078106866E+04  0.10000000000E+01 0.  0.
    9000005    1    3    3    0    0 -0.41088349215E+02 -0.33804250088E+02 -0.46882292712E+03  0.47183356892E+03  0.10000000000E+01 0.  0.
<mgrwt>
<rscale>  0 0.12499494E+03</rscale>
<asrwt>0</asrwt>
<pdfrwt beam="2">  1        4 0.30425522E+00 0.12499494E+03</pdfrwt>
<pdfrwt beam="1">  1       -4 0.30385063E-03 0.12499494E+03</pdfrwt>
<totfact> 0.10130563E+03</totfact>
</mgrwt>
</event>
<event>
 5    1  0.3236337E-002  0.1250018E+03  0.7818608E-02  0.1235066E+00
          4   -1    0    0  501    0  0.00000000000E+00  0.00000000000E+00  0.20008508727E+02  0.20048773566E+02  0.12700000000E+01 0. -1.
         -4   -1    0    0    0  501 -0.00000000000E+00 -0.00000000000E+00 -0.19499663305E+03  0.19500076872E+03  0.12700000000E+01 0. -1.
         25    2    1    2    0    0  0.00000000000E+00  0.00000000000E+00 -0.17498812433E+03  0.21504954229E+03  0.12500184792E+03 0.  0.
    9000005    1    3    3    0    0 -0.93653549508E+01  0.17652761188E+01  0.18759412980E+02  0.21065176203E+02  0.10000000000E+01 0.  0.
    9000005    1    3    3    0    0  0.93653549508E+01 -0.17652761188E+01 -0.19374753731E+03  0.19398436608E+03  0.10000000000E+01 0.  0.
<mgrwt>
<rscale>  0 0.12500185E+03</rscale>
<asrwt>0</asrwt>
<pdfrwt beam="1">  1        4 0.30816477E-02 0.12500185E+03</pdfrwt>
<pdfrwt beam="2">  1       -4 0.30002896E-01 0.12500185E+03</pdfrwt>
<totfact> 0.87654188E+03</totfact>
</mgrwt>
</event>
<event>
 5    1  0.3236337E-002  0.1249996E+03  0.7818608E-02  0.1235070E+00
         -4   -1    0    0    0  501 -0.00000000000E+00  0.00000000000E+00  0.11399399206E+02  0.11469925991E+02  0.12700000000E+01 0. -1.
          4   -1    0    0  501    0  0.00000000000E+00 -0.00000000000E+00 -0.34154098819E+03  0.34154334939E+03  0.12700000000E+01 0. -1.
         25    2    1    2    0    0  0.00000000000E+00  0.00000000000E+00 -0.33014158898E+03  0.35301327538E+03  0.12499961528E+03 0.  0.
    9000005    1    3    3    0    0  0.81239748597E+01 -0.58274898475E+02 -0.22452919166E+03  0.23211273267E+03  0.10000000000E+01 0.  0.
    9000005    1    3    3    0    0 -0.81239748597E+01  0.58274898475E+02 -0.10561239732E+03  0.12090054271E+03  0.10000000000E+01 0.  0.
<mgrwt>
<rscale>  0 0.12499962E+03</rscale>
<asrwt>0</asrwt>
<pdfrwt beam="2">  1        4 0.52550366E-01 0.12499962E+03</pdfrwt>
<pdfrwt beam="1">  1       -4 0.17593608E-02 0.12499962E+03</pdfrwt>
<totfact> 0.69394920E+03</totfact>
</mgrwt>
</event>
<event>
 5    1  0.3236337E-002  0.1250081E+03  0.7818608E-02  0.1235057E+00
         -4   -1    0    0    0  501 -0.00000000000E+00  0.00000000000E+00  0.11750891372E+04  0.11750898235E+04  0.12700000000E+01 0. -1.
          4   -1    0    0  501    0  0.00000000000E+00 -0.00000000000E+00 -0.32026526174E+01  0.34452697699E+01  0.12700000000E+01 0. -1.
         25    2    1    2    0    0  0.00000000000E+00  0.00000000000E+00  0.11718864846E+04  0.11785350933E+04  0.12500813291E+03 0.  0.
    9000005    1    3    3    0    0 -0.35907758094E+02 -0.51118486784E+02  0.56883899853E+03  0.57225979505E+03  0.10000000000E+01 0.  0.
    9000005    1    3    3    0    0  0.35907758094E+02  0.51118486784E+02  0.60304748605E+03  0.60627529820E+03  0.10000000000E+01 0.  0.
<mgrwt>
<rscale>  0 0.12500813E+03</rscale>
<asrwt>0</asrwt>
<pdfrwt beam="2">  1        4 0.51143113E-03 0.12500813E+03</pdfrwt>
<pdfrwt beam="1">  1       -4 0.18080177E+00 0.12500813E+03</pdfrwt>
<totfact> 0.25277103E+03</totfact>
</mgrwt>
</event>
<event>
 5    1  0.3236337E-002  0.1249904E+03  0.7818608E-02  0.1235084E+00
          4   -1    0    0  501    0  0.00000000000E+00  0.00000000000E+00  0.15288231509E+02  0.15340890543E+02  0.12700000000E+01 0. -1.
         -4   -1    0    0    0  501 -0.00000000000E+00 -0.00000000000E+00 -0.25497416158E+03  0.25497732443E+03  0.12700000000E+01 0. -1.
         25    2    1    2    0    0  0.00000000000E+00  0.00000000000E+00 -0.23968593007E+03  0.27031821497E+03  0.12499036872E+03 0.  0.
    9000005    1    3    3    0    0  0.20075261328E+00 -0.61896156223E+02 -0.10130489772E+03  0.11872176194E+03  0.10000000000E+01 0.  0.
    9000005    1    3    3    0    0 -0.20075261328E+00  0.61896156223E+02 -0.13838103235E+03  0.15159645303E+03  0.10000000000E+01 0.  0.
<mgrwt>
<rscale>  0 0.12499037E+03</rscale>
<asrwt>0</asrwt>
<pdfrwt beam="1">  1        4 0.23563298E-02 0.12499037E+03</pdfrwt>
<pdfrwt beam="2">  1       -4 0.39231085E-01 0.12499037E+03</pdfrwt>
<totfact> 0.79496534E+03</totfact>
</mgrwt>
</event>
<event>
 5    1  0.3236337E-002  0.1250150E+03  0.7818608E-02  0.1235046E+00
          4   -1    0    0  501    0  0.00000000000E+00  0.00000000000E+00  0.23172296045E+02  0.23207072284E+02  0.12700000000E+01 0. -1.
         -4   -1    0    0    0  501 -0.00000000000E+00 -0.00000000000E+00 -0.16845101931E+03  0.16845580669E+03  0.12700000000E+01 0. -1.
         25    2    1    2    0    0  0.00000000000E+00  0.00000000000E+00 -0.14527872327E+03  0.19166287897E+03  0.12501500607E+03 0.  0.
    9000005    1    3    3    0    0 -0.42728898214E+02  0.40582786819E+02 -0.10455868557E+03  0.12002599742E+03  0.10000000000E+01 0.  0.
    9000005    1    3    3    0    0  0.42728898214E+02 -0.40582786819E+02 -0.40720037695E+02  0.71636881552E+02  0.10000000000E+01 0.  0.
<mgrwt>
<rscale>  0 0.12501501E+03</rscale>
<asrwt>0</asrwt>
<pdfrwt beam="1">  1        4 0.35680121E-02 0.12501501E+03</pdfrwt>
<pdfrwt beam="2">  1       -4 0.25918584E-01 0.12501501E+03</pdfrwt>
<totfact> 0.91528018E+03</totfact>
</mgrwt>
</event>
<event>
 5    1  0.3236337E-002  0.1249992E+03  0.7818608E-02  0.1235070E+00
         -4   -1    0    0    0  501 -0.00000000000E+00  0.00000000000E+00  0.14922168589E+02  0.14976114830E+02  0.12700000000E+01 0. -1.
          4   -1    0    0  501    0  0.00000000000E+00 -0.00000000000E+00 -0.26124398499E+03  0.26124707194E+03  0.12700000000E+01 0. -1.
         25    2    1    2    0    0  0.00000000000E+00  0.00000000000E+00 -0.24632181641E+03  0.27622318677E+03  0.12499924668E+03 0.  0.
    9000005    1    3    3    0    0  0.53956891306E+02 -0.16126085066E+02 -0.63299983991E+02  0.84730659812E+02  0.10000000000E+01 0.  0.
    9000005    1    3    3    0    0 -0.53956891306E+02  0.16126085066E+02 -0.18302183241E+03  0.19149252695E+03  0.10000000000E+01 0.  0.
<mgrwt>
<rscale>  0 0.12499925E+03</rscale>
<asrwt>0</asrwt>
<pdfrwt beam="2">  1        4 0.40195766E-01 0.12499925E+03</pdfrwt>
<pdfrwt beam="1">  1       -4 0.23001056E-02 0.12499925E+03</pdfrwt>
<totfact> 0.78682882E+03</totfact>
</mgrwt>
</event>
<event>
 5    1  0.3236337E-002  0.1250021E+03  0.7818608E-02  0.1235066E+00
         -4   -1    0    0    0  501 -0.00000000000E+00  0.00000000000E+00  0.26027030621E+02  0.26057997294E+02  0.12700000000E+01 0.  1.
          4   -1    0    0  501    0  0.00000000000E+00 -0.00000000000E+00 -0.14996638852E+03  0.14997176596E+03  0.12700000000E+01 0.  1.
         25    2    1    2    0    0  0.00000000000E+00  0.00000000000E+00 -0.12393935790E+03  0.17602976326E+03  0.12500205245E+03 0.  0.
    9000005    1    3    3    0    0  0.24161135648E+02 -0.40690720791E+02 -0.11944629817E+03  0.12848312489E+03  0.10000000000E+01 0.  0.
    9000005    1    3    3    0    0 -0.24161135648E+02  0.40690720791E+02 -0.44930597276E+01  0.47546638368E+02  0.10000000000E+01 0.  0.
<mgrwt>
<rscale>  0 0.12500205E+03</rscale>
<asrwt>0</asrwt>
<pdfrwt beam="2">  1        4 0.23074547E-01 0.12500205E+03</pdfrwt>
<pdfrwt beam="1">  1       -4 0.40069543E-02 0.12500205E+03</pdfrwt>
<totfact> 0.94332237E+03</totfact>
</mgrwt>
</event>
<event>
 5    1  0.3236337E-002  0.1249945E+03  0.7818608E-02  0.1235078E+00
         -4   -1    0    0    0  501 -0.00000000000E+00  0.00000000000E+00  0.26387688052E+03  0.26387993666E+03  0.12700000000E+01 0. -1.
          4   -1    0    0  501    0  0.00000000000E+00 -0.00000000000E+00 -0.14771606269E+02  0.14826100356E+02  0.12700000000E+01 0. -1.
         25    2    1    2    0    0  0.00000000000E+00  0.00000000000E+00  0.24910527425E+03  0.27870603702E+03  0.12499446952E+03 0.  0.
    9000005    1    3    3    0    0 -0.10472295808E+02  0.48205226493E+02  0.39019488603E+02  0.62904159891E+02  0.10000000000E+01 0.  0.
    9000005    1    3    3    0    0  0.10472295808E+02 -0.48205226493E+02  0.21008578565E+03  0.21580187713E+03  0.10000000000E+01 0.  0.
<mgrwt>
<rscale>  0 0.12499447E+03</rscale>
<asrwt>0</asrwt>
<pdfrwt beam="2">  1        4 0.22769820E-02 0.12499447E+03</pdfrwt>
<pdfrwt beam="1">  1       -4 0.40600866E-01 0.12499447E+03</pdfrwt>
<totfact> 0.78359625E+03</totfact>
</mgrwt>
</event>
<event>
 5    1  0.3236337E-002  0.1249982E+03  0.7818608E-02  0.1235072E+00
          4   -1    0    0  501    0  0.00000000000E+00  0.00000000000E+00  0.17506305559E+03  0.17506766216E+03  0.12700000000E+01 0. -1.
         -4   -1    0    0    0  501 -0.00000000000E+00 -0.00000000000E+00 -0.22289768790E+02  0.22325919751E+02  0.12700000000E+01 0. -1.
         25    2    1    2    0    0  0.00000000000E+00  0.00000000000E+00  0.15277328680E+03  0.19739358191E+03  0.12499819606E+03 0.  0.
    9000005    1    3    3    0    0 -0.16208634436E+02 -0.41371974778E+02  0.14577639856E+03  0.15240117619E+03  0.10000000000E+01 0.  0.
    9000005    1    3    3    0    0  0.16208634436E+02  0.41371974778E+02  0.69968882438E+01  0.44992405719E+02  0.10000000000E+01 0.  0.
<mgrwt>
<rscale>  0 0.12499820E+03</rscale>
<asrwt>0</asrwt>
<pdfrwt beam="1">  1        4 0.26935913E-01 0.12499820E+03</pdfrwt>
<pdfrwt beam="2">  1       -4 0.34323304E-02 0.12499820E+03</pdfrwt>
<totfact> 0.90580189E+03</totfact>
</mgrwt>
</event>
<event>
 5    1  0.3236337E-002  0.1249946E+03  0.7818608E-02  0.1235078E+00
          4   -1    0    0  501    0  0.00000000000E+00  0.00000000000E+00  0.21706779400E+02  0.21743899649E+02  0.12700000000E+01 0.  1.
         -4   -1    0    0    0  501 -0.00000000000E+00 -0.00000000000E+00 -0.17974676700E+03  0.17975125354E+03  0.12700000000E+01 0.  1.
         25    2    1    2    0    0  0.00000000000E+00  0.00000000000E+00 -0.15803998760E+03  0.20149515319E+03  0.12499463619E+03 0.  0.
    9000005    1    3    3    0    0 -0.15292321507E+02 -0.48835686257E+02 -0.21208182494E+02  0.55403667333E+02  0.10000000000E+01 0.  0.
    9000005    1    3    3    0    0  0.15292321507E+02  0.48835686257E+02 -0.13683180511E+03  0.14609148585E+03  0.10000000000E+01 0.  0.
<mgrwt>
<rscale>  0 0.12499464E+03</rscale>
<asrwt>0</asrwt>
<pdfrwt beam="1">  1        4 0.33427052E-02 0.12499464E+03</pdfrwt>
<pdfrwt beam="2">  1       -4 0.27656548E-01 0.12499464E+03</pdfrwt>
<totfact> 0.89894736E+03</totfact>
</mgrwt>
</event>
<event>
 5    1  0.3236337E-002  0.1250017E+03  0.7818608E-02  0.1235067E+00
         -4   -1    0    0    0  501 -0.00000000000E+00  0.00000000000E+00  0.18811636205E+02  0.18854457211E+02  0.12700000000E+01 0. -1.
          4   -1    0    0  501    0  0.00000000000E+00 -0.00000000000E+00 -0.20737546421E+03  0.20737935301E+03  0.12700000000E+01 0. -1.
         25    2    1    2    0    0  0.00000000000E+00  0.00000000000E+00 -0.18856382800E+03  0.22623381022E+03  0.12500167862E+03 0.  0.
    9000005    1    3    3    0    0 -0.42259530087E+02 -0.11186792935E+02 -0.17510614072E+03  0.18048316469E+03  0.10000000000E+01 0.  0.
    9000005    1    3    3    0    0  0.42259530087E+02  0.11186792935E+02 -0.13457687282E+02  0.45750645529E+02  0.10000000000E+01 0.  0.
<mgrwt>
<rscale>  0 0.12500168E+03</rscale>
<asrwt>0</asrwt>
<pdfrwt beam="2">  1        4 0.31907509E-01 0.12500168E+03</pdfrwt>
<pdfrwt beam="1">  1       -4 0.28976911E-02 0.12500168E+03</pdfrwt>
<totfact> 0.85888057E+03</totfact>
</mgrwt>
</event>
<event>
 5    1  0.3236337E-002  0.1250016E+03  0.7818608E-02  0.1235067E+00
          4   -1    0    0  501    0  0.00000000000E+00  0.00000000000E+00  0.45600532333E+03  0.45600709183E+03  0.12700000000E+01 0.  1.
         -4   -1    0    0    0  501 -0.00000000000E+00 -0.00000000000E+00 -0.85175947723E+01  0.86117547983E+01  0.12700000000E+01 0.  1.
         25    2    1    2    0    0  0.00000000000E+00  0.00000000000E+00  0.44748772855E+03  0.46461884663E+03  0.12500162174E+03 0.  0.
    9000005    1    3    3    0    0  0.33100576394E+02 -0.24573117784E+02  0.49173447747E+02  0.64175651446E+02  0.10000000000E+01 0.  0.
    9000005    1    3    3    0    0 -0.33100576394E+02  0.24573117784E+02  0.39831428081E+03  0.40044319519E+03  0.10000000000E+01 0.  0.
<mgrwt>
<rscale>  0 0.12500162E+03</rscale>
<asrwt>0</asrwt>
<pdfrwt beam="1">  1        4 0.70162049E-01 0.12500162E+03</pdfrwt>
<pdfrwt beam="2">  1       -4 0.13177782E-02 0.12500162E+03</pdfrwt>
<totfact> 0.58715859E+03</totfact>
</mgrwt>
</event>
<event>
 5    1  0.3236337E-002  0.1250282E+03  0.7818608E-02  0.1235025E+00
         -4   -1    0    0    0  501 -0.00000000000E+00  0.00000000000E+00  0.24054007291E+03  0.24054342555E+03  0.12700000000E+01 0. -1.
          4   -1    0    0  501    0  0.00000000000E+00 -0.00000000000E+00 -0.16218524823E+02  0.16268172836E+02  0.12700000000E+01 0. -1.
         25    2    1    2    0    0  0.00000000000E+00  0.00000000000E+00  0.22432154808E+03  0.25681159838E+03  0.12502815735E+03 0.  0.
    9000005    1    3    3    0    0 -0.61581057634E+02 -0.34654456885E+01  0.91337521873E+02  0.11021696274E+03  0.10000000000E+01 0.  0.
    9000005    1    3    3    0    0  0.61581057634E+02  0.34654456885E+01  0.13298402621E+03  0.14659463565E+03  0.10000000000E+01 0.  0.
<mgrwt>
<rscale>  0 0.12502816E+03</rscale>
<asrwt>0</asrwt>
<pdfrwt beam="2">  1        4 0.24992350E-02 0.12502816E+03</pdfrwt>
<pdfrwt beam="1">  1       -4 0.37010237E-01 0.12502816E+03</pdfrwt>
<totfact> 0.81304621E+03</totfact>
</mgrwt>
</event>
<event>
 5    1  0.3236337E-002  0.1249997E+03  0.7818608E-02  0.1235070E+00
         -4   -1    0    0    0  501 -0.00000000000E+00  0.00000000000E+00  0.17093225161E+03  0.17093696949E+03  0.12700000000E+01 0.  1.
          4   -1    0    0  501    0  0.00000000000E+00 -0.00000000000E+00 -0.22829837907E+02  0.22865135007E+02  0.12700000000E+01 0.  1.
         25    2    1    2    0    0  0.00000000000E+00  0.00000000000E+00  0.14810241370E+03  0.19380210450E+03  0.12499972306E+03 0.  0.
    9000005    1    3    3    0    0 -0.42292958178E+02  0.43628108045E+02  0.96685567624E+02  0.11419809591E+03  0.10000000000E+01 0.  0.
    9000005    1    3    3    0    0  0.42292958178E+02 -0.43628108045E+02  0.51416846075E+02  0.79604008588E+02  0.10000000000E+01 0.  0.
<mgrwt>
<rscale>  0 0.12499972E+03</rscale>
<asrwt>0</asrwt>
<pdfrwt beam="2">  1        4 0.35153608E-02 0.12499972E+03</pdfrwt>
<pdfrwt beam="1">  1       -4 0.26300348E-01 0.12499972E+03</pdfrwt>
<totfact> 0.91190503E+03</totfact>
</mgrwt>
</event>
<event>
 5    1  0.3236337E-002  0.1249656E+03  0.7818608E-02  0.1235123E+00
          4   -1    0    0  501    0  0.00000000000E+00  0.00000000000E+00  0.36808439028E+02  0.36830341890E+02  0.12700000000E+01 0.  1.
         -4   -1    0    0    0  501 -0.00000000000E+00 -0.00000000000E+00 -0.10600802394E+03  0.10601563111E+03  0.12700000000E+01 0.  1.
         25    2    1    2    0    0  0.00000000000E+00  0.00000000000E+00 -0.69199584909E+02  0.14284597300E+03  0.12496555305E+03 0.  0.
    9000005    1    3    3    0    0  0.60047391533E+02 -0.83712088922E+00 -0.14909967892E+02  0.61884546891E+02  0.10000000000E+01 0.  0.
    9000005    1    3    3    0    0 -0.60047391533E+02  0.83712088922E+00 -0.54289617016E+02  0.80961426106E+02  0.10000000000E+01 0.  0.
<mgrwt>
<rscale>  0 0.12496555E+03</rscale>
<asrwt>0</asrwt>
<pdfrwt beam="1">  1        4 0.56651068E-02 0.12496555E+03</pdfrwt>
<pdfrwt beam="2">  1       -4 0.16311197E-01 0.12496555E+03</pdfrwt>
<totfact> 0.10082759E+04</totfact>
</mgrwt>
</event>
<event>
 5    1  0.3236337E-002  0.1250031E+03  0.7818608E-02  0.1235065E+00
         -4   -1    0    0    0  501 -0.00000000000E+00  0.00000000000E+00  0.43975403424E+03  0.43975586811E+03  0.12700000000E+01 0. -1.
          4   -1    0    0  501    0  0.00000000000E+00 -0.00000000000E+00 -0.88359876589E+01  0.89267898994E+01  0.12700000000E+01 0. -1.
         25    2    1    2    0    0  0.00000000000E+00  0.00000000000E+00  0.43091804658E+03  0.44868265801E+03  0.12500305885E+03 0.  0.
    9000005    1    3    3    0    0  0.31432727295E+02 -0.27071883191E+02  0.47695150567E+02  0.63219700982E+02  0.10000000000E+01 0.  0.
    9000005    1    3    3    0    0 -0.31432727295E+02  0.27071883191E+02  0.38322289602E+03  0.38546295702E+03  0.10000000000E+01 0.  0.
<mgrwt>
<rscale>  0 0.12500306E+03</rscale>
<asrwt>0</asrwt>
<pdfrwt beam="2">  1        4 0.13665082E-02 0.12500306E+03</pdfrwt>
<pdfrwt beam="1">  1       -4 0.67661611E-01 0.12500306E+03</pdfrwt>
<totfact> 0.60074026E+03</totfact>
</mgrwt>
</event>
<event>
 5    1  0.3236337E-002  0.1249973E+03  0.7818608E-02  0.1235074E+00
         -4   -1    0    0    0  501 -0.00000000000E+00  0.00000000000E+00  0.15537701116E+02  0.15589517503E+02  0.12700000000E+01 0. -1.
          4   -1    0    0  501    0  0.00000000000E+00 -0.00000000000E+00 -0.25092182435E+03  0.25092503828E+03  0.12700000000E+01 0. -1.
         25    2    1    2    0    0  0.00000000000E+00  0.00000000000E+00 -0.23538412324E+03  0.26651455578E+03  0.12499729186E+03 0.  0.
    9000005    1    3    3    0    0 -0.65898110474E+01  0.60404542681E+02 -0.86578091039E+02  0.10577759798E+03  0.10000000000E+01 0.  0.
    9000005    1    3    3    0    0  0.65898110474E+01 -0.60404542681E+02 -0.14880603220E+03  0.16073695781E+03  0.10000000000E+01 0.  0.
<mgrwt>
<rscale>  0 0.12499729E+03</rscale>
<asrwt>0</asrwt>
<pdfrwt beam="2">  1        4 0.38607588E-01 0.12499729E+03</pdfrwt>
<pdfrwt beam="1">  1       -4 0.23946488E-02 0.12499729E+03</pdfrwt>
<totfact> 0.80005262E+03</totfact>
</mgrwt>
</event>
<event>
 5    1  0.3236337E-002  0.1249974E+03  0.7818608E-02  0.1235073E+00
          4   -1    0    0  501    0  0.00000000000E+00  0.00000000000E+00  0.18943756927E+02  0.18986279954E+02  0.12700000000E+01 0.  1.
         -4   -1    0    0    0  501 -0.00000000000E+00 -0.00000000000E+00 -0.20591812636E+03  0.20592204268E+03  0.12700000000E+01 0.  1.
         25    2    1    2    0    0  0.00000000000E+00  0.00000000000E+00 -0.18697436943E+03  0.22490832264E+03  0.12499735504E+03 0.  0.
    9000005    1    3    3    0    0 -0.40896630485E+02  0.81092220961E+01 -0.97317114289E+01  0.42825227091E+02  0.10000000000E+01 0.  0.
    9000005    1    3    3    0    0  0.40896630485E+02 -0.81092220961E+01 -0.17724265800E+03  0.18208309555E+03  0.10000000000E+01 0.  0.
<mgrwt>
<rscale>  0 0.12499736E+03</rscale>
<asrwt>0</asrwt>
<pdfrwt beam="1">  1        4 0.29179965E-02 0.12499736E+03</pdfrwt>
<pdfrwt beam="2">  1       -4 0.31683282E-01 0.12499736E+03</pdfrwt>
<totfact> 0.86102667E+03</totfact>
</mgrwt>
</event>
<event>
 5    1  0.3236337E-002  0.1250013E+03  0.7818608E-02  0.1235067E+00
         -4   -1    0    0    0  501 -0.00000000000E+00  0.00000000000E+00  0.48830898800E+02  0.48847411166E+02  0.12700000000E+01 0.  1.
          4   -1    0    0  501    0  0.00000000000E+00 -0.00000000000E+00 -0.79962095855E+02  0.79972180623E+02  0.12700000000E+01 0.  1.
         25    2    1    2    0    0  0.00000000000E+00  0.00000000000E+00 -0.31131197055E+02  0.12881959179E+03  0.12500134319E+03 0.  0.
    9000005    1    3    3    0    0 -0.26189941159E+02 -0.51273635065E+02  0.94755006578E+01  0.58358236637E+02  0.10000000000E+01 0.  0.
    9000005    1    3    3    0    0  0.26189941159E+02  0.51273635065E+02 -0.40606697712E+02  0.70461355152E+02  0.10000000000E+01 0.  0.
<mgrwt>
<rscale>  0 0.12500134E+03</rscale>
<asrwt>0</asrwt>
<pdfrwt beam="2">  1        4 0.12303907E-01 0.12500134E+03</pdfrwt>
<pdfrwt beam="1">  1       -4 0.75144919E-02 0.12500134E+03</pdfrwt>
<totfact> 0.10369511E+04</totfact>
</mgrwt>
</event>
<event>
 5    1  0.3236337E-002  0.1250043E+03  0.7818608E-02  0.1235063E+00
         -4   -1    0    0    0  501 -0.00000000000E+00  0.00000000000E+00  0.12432730105E+04  0.12432736592E+04  0.12700000000E+01 0.  1.
          4   -1    0    0  501    0  0.00000000000E+00 -0.00000000000E+00 -0.30131209282E+01  0.32698314525E+01  0.12700000000E+01 0.  1.
         25    2    1    2    0    0  0.00000000000E+00  0.00000000000E+00  0.12402598896E+04  0.12465434906E+04  0.12500432106E+03 0.  0.
    9000005    1    3    3    0    0 -0.57919990470E+01 -0.39763908644E+02  0.14284645374E+03  0.14839415429E+03  0.10000000000E+01 0.  0.
    9000005    1    3    3    0    0  0.57919990470E+01  0.39763908644E+02  0.10974134358E+04  0.10981493363E+04  0.10000000000E+01 0.  0.
<mgrwt>
<rscale>  0 0.12500432E+03</rscale>
<asrwt>0</asrwt>
<pdfrwt beam="2">  1        4 0.48335456E-03 0.12500432E+03</pdfrwt>
<pdfrwt beam="1">  1       -4 0.19129232E+00 0.12500432E+03</pdfrwt>
<totfact> 0.23523742E+03</totfact>
</mgrwt>
</event>
<event>
 5    1  0.3236337E-002  0.1249669E+03  0.7818608E-02  0.1235121E+00
          4   -1    0    0  501    0  0.00000000000E+00  0.00000000000E+00  0.31397262198E+03  0.31397519050E+03  0.12700000000E+01 0. -1.
         -4   -1    0    0    0  501 -0.00000000000E+00 -0.00000000000E+00 -0.12399729592E+02  0.12464597625E+02  0.12700000000E+01 0. -1.
         25    2    1    2    0    0  0.00000000000E+00  0.00000000000E+00  0.30157289238E+03  0.32643978813E+03  0.12496689902E+03 0.  0.
    9000005    1    3    3    0    0  0.92433282495E+01 -0.46525941407E+02  0.44579012620E+02  0.65102923952E+02  0.10000000000E+01 0.  0.
    9000005    1    3    3    0    0 -0.92433282495E+01  0.46525941407E+02  0.25699387976E+03  0.26133686417E+03  0.10000000000E+01 0.  0.
<mgrwt>
<rscale>  0 0.12496690E+03</rscale>
<asrwt>0</asrwt>
<pdfrwt beam="1">  1        4 0.48308667E-01 0.12496690E+03</pdfrwt>
<pdfrwt beam="2">  1       -4 0.19128382E-02 0.12496690E+03</pdfrwt>
<totfact> 0.72449814E+03</totfact>
</mgrwt>
</event>
<event>
 5    1  0.3236337E-002  0.1249943E+03  0.7818608E-02  0.1235078E+00
          4   -1    0    0  501    0  0.00000000000E+00  0.00000000000E+00  0.12256331520E+04  0.12256338100E+04  0.12700000000E+01 0.  1.
         -4   -1    0    0    0  501 -0.00000000000E+00 -0.00000000000E+00 -0.30596224315E+01  0.33127314143E+01  0.12700000000E+01 0.  1.
         25    2    1    2    0    0  0.00000000000E+00  0.00000000000E+00  0.12225735296E+04  0.12289465414E+04  0.12499426554E+03 0.  0.
    9000005    1    3    3    0    0 -0.20300945449E+02 -0.58541507582E+02  0.53162000296E+03  0.53521964094E+03  0.10000000000E+01 0.  0.
    9000005    1    3    3    0    0  0.20300945449E+02  0.58541507582E+02  0.69095352663E+03  0.69372690048E+03  0.10000000000E+01 0.  0.
<mgrwt>
<rscale>  0 0.12499427E+03</rscale>
<asrwt>0</asrwt>
<pdfrwt beam="1">  1        4 0.18857854E+00 0.12499427E+03</pdfrwt>
<pdfrwt beam="2">  1       -4 0.49023150E-03 0.12499427E+03</pdfrwt>
<totfact> 0.23970395E+03</totfact>
</mgrwt>
</event>
<event>
 5    1  0.3236337E-002  0.1250041E+03  0.7818608E-02  0.1235063E+00
         -4   -1    0    0    0  501 -0.00000000000E+00  0.00000000000E+00  0.69785208382E+03  0.69785323943E+03  0.12700000000E+01 0. -1.
          4   -1    0    0  501    0  0.00000000000E+00 -0.00000000000E+00 -0.55246911837E+01  0.56687840561E+01  0.12700000000E+01 0. -1.
         25    2    1    2    0    0  0.00000000000E+00  0.00000000000E+00  0.69232739263E+03  0.70352202349E+03  0.12500407571E+03 0.  0.
    9000005    1    3    3    0    0  0.61030689489E+02  0.55736689775E+01  0.41502187993E+03  0.41952350550E+03  0.10000000000E+01 0.  0.
    9000005    1    3    3    0    0 -0.61030689489E+02 -0.55736689775E+01  0.27730551271E+03  0.28399851799E+03  0.10000000000E+01 0.  0.
<mgrwt>
<rscale>  0 0.12500408E+03</rscale>
<asrwt>0</asrwt>
<pdfrwt beam="2">  1        4 0.86112564E-03 0.12500408E+03</pdfrwt>
<pdfrwt beam="1">  1       -4 0.10737301E+00 0.12500408E+03</pdfrwt>
<totfact> 0.42897603E+03</totfact>
</mgrwt>
</event>
<event>
 5    1  0.3236337E-002  0.1250028E+03  0.7818608E-02  0.1235065E+00
          4   -1    0    0  501    0  0.00000000000E+00  0.00000000000E+00  0.54735871982E+02  0.54750603481E+02  0.12700000000E+01 0.  1.
         -4   -1    0    0    0  501 -0.00000000000E+00 -0.00000000000E+00 -0.71338623660E+02  0.71349927299E+02  0.12700000000E+01 0.  1.
         25    2    1    2    0    0  0.00000000000E+00  0.00000000000E+00 -0.16602751678E+02  0.12610053078E+03  0.12500276997E+03 0.  0.
    9000005    1    3    3    0    0  0.44944321468E+02 -0.42591786801E+02 -0.16823689796E+02  0.64172337292E+02  0.10000000000E+01 0.  0.
    9000005    1    3    3    0    0 -0.44944321468E+02  0.42591786801E+02  0.22093811837E+00  0.61928193489E+02  0.10000000000E+01 0.  0.
<mgrwt>
<rscale>  0 0.12500277E+03</rscale>
<asrwt>0</asrwt>
<pdfrwt beam="1">  1        4 0.84229061E-02 0.12500277E+03</pdfrwt>
<pdfrwt beam="2">  1       -4 0.10977176E-01 0.12500277E+03</pdfrwt>
<totfact> 0.10428103E+04</totfact>
</mgrwt>
</event>
<event>
 5    1  0.3236337E-002  0.1249564E+03  0.7818608E-02  0.1235137E+00
          4   -1    0    0  501    0  0.00000000000E+00  0.00000000000E+00  0.54475100651E+03  0.54475248691E+03  0.12700000000E+01 0.  1.
         -4   -1    0    0    0  501 -0.00000000000E+00 -0.00000000000E+00 -0.71079346098E+01  0.72205009810E+01  0.12700000000E+01 0.  1.
         25    2    1    2    0    0  0.00000000000E+00  0.00000000000E+00  0.53764307191E+03  0.55197298790E+03  0.12495641880E+03 0.  0.
    9000005    1    3    3    0    0  0.54139420478E+02  0.25550755952E+02  0.34766905812E+03  0.35278703485E+03  0.10000000000E+01 0.  0.
    9000005    1    3    3    0    0 -0.54139420478E+02 -0.25550755952E+02  0.18997401378E+03  0.19918595305E+03  0.10000000000E+01 0.  0.
<mgrwt>
<rscale>  0 0.12495642E+03</rscale>
<asrwt>0</asrwt>
<pdfrwt beam="1">  1        4 0.83816645E-01 0.12495642E+03</pdfrwt>
<pdfrwt beam="2">  1       -4 0.11023009E-02 0.12495642E+03</pdfrwt>
<totfact> 0.52096505E+03</totfact>
</mgrwt>
</event>
<event>
 5    1  0.3236337E-002  0.1249998E+03  0.7818608E-02  0.1235070E+00
          4   -1    0    0  501    0  0.00000000000E+00  0.00000000000E+00  0.25099383989E+02  0.25131493721E+02  0.12700000000E+01 0. -1.
         -4   -1    0    0    0  501 -0.00000000000E+00 -0.00000000000E+00 -0.15549668065E+03  0.15550186685E+03  0.12700000000E+01 0. -1.
         25    2    1    2    0    0  0.00000000000E+00  0.00000000000E+00 -0.13039729666E+03  0.18063336057E+03  0.12499982390E+03 0.  0.
    9000005    1    3    3    0    0 -0.15948731022E+02  0.58167021978E+02 -0.88832242534E+02  0.10737751990E+03  0.10000000000E+01 0.  0.
    9000005    1    3    3    0    0  0.15948731022E+02 -0.58167021978E+02 -0.41565054128E+02  0.73255840666E+02  0.10000000000E+01 0.  0.
<mgrwt>
<rscale>  0 0.12499982E+03</rscale>
<asrwt>0</asrwt>
<pdfrwt beam="1">  1        4 0.38643127E-02 0.12499982E+03</pdfrwt>
<pdfrwt beam="2">  1       -4 0.23925435E-01 0.12499982E+03</pdfrwt>
<totfact> 0.93503490E+03</totfact>
</mgrwt>
</event>
<event>
 5    1  0.3236337E-002  0.1250120E+03  0.7818608E-02  0.1235050E+00
         -4   -1    0    0    0  501 -0.00000000000E+00  0.00000000000E+00  0.69284165760E+01  0.70438523729E+01  0.12700000000E+01 0.  1.
          4   -1    0    0  501    0  0.00000000000E+00 -0.00000000000E+00 -0.55913489241E+03  0.55913633473E+03  0.12700000000E+01 0.  1.
         25    2    1    2    0    0  0.00000000000E+00  0.00000000000E+00 -0.55220647584E+03  0.56618018710E+03  0.12501204866E+03 0.  0.
    9000005    1    3    3    0    0 -0.10676207904E+02 -0.61567242699E+02 -0.27056322852E+03  0.27768681534E+03  0.10000000000E+01 0.  0.
    9000005    1    3    3    0    0  0.10676207904E+02  0.61567242699E+02 -0.28164324732E+03  0.28849337176E+03  0.10000000000E+01 0.  0.
<mgrwt>
<rscale>  0 0.12501205E+03</rscale>
<asrwt>0</asrwt>
<pdfrwt beam="2">  1        4 0.86029708E-01 0.12501205E+03</pdfrwt>
<pdfrwt beam="1">  1       -4 0.10749013E-02 0.12501205E+03</pdfrwt>
<totfact> 0.51060969E+03</totfact>
</mgrwt>
</event>
<event>
 5    1  0.3236337E-002  0.1250006E+03  0.7818608E-02  0.1235068E+00
         -4   -1    0    0    0  501 -0.00000000000E+00  0.00000000000E+00  0.32607728229E+02  0.32632450724E+02  0.12700000000E+01 0.  1.
          4   -1    0    0  501    0  0.00000000000E+00 -0.00000000000E+00 -0.11972288647E+03  0.11972962225E+03  0.12700000000E+01 0.  1.
         25    2    1    2    0    0  0.00000000000E+00  0.00000000000E+00 -0.87115158243E+02  0.15236207298E+03  0.12500060195E+03 0.  0.
    9000005    1    3    3    0    0 -0.48835626406E+02 -0.36181148382E+01 -0.90879407367E+02  0.10323795738E+03  0.10000000000E+01 0.  0.
    9000005    1    3    3    0    0  0.48835626406E+02  0.36181148382E+01  0.37642491242E+01  0.49124115594E+02  0.10000000000E+01 0.  0.
<mgrwt>
<rscale>  0 0.12500060E+03</rscale>
<asrwt>0</asrwt>
<pdfrwt beam="2">  1        4 0.18421325E-01 0.12500060E+03</pdfrwt>
<pdfrwt beam="1">  1       -4 0.50189935E-02 0.12500060E+03</pdfrwt>
<totfact> 0.98833583E+03</totfact>
</mgrwt>
</event>
<event>
 5    1  0.3236337E-002  0.1249985E+03  0.7818608E-02  0.1235072E+00
          4   -1    0    0  501    0  0.00000000000E+00  0.00000000000E+00  0.17950015636E+02  0.17994887088E+02  0.12700000000E+01 0.  1.
         -4   -1    0    0    0  501 -0.00000000000E+00 -0.00000000000E+00 -0.21729453302E+03  0.21729824431E+03  0.12700000000E+01 0.  1.
         25    2    1    2    0    0  0.00000000000E+00  0.00000000000E+00 -0.19934451738E+03  0.23529313140E+03  0.12499848428E+03 0.  0.
    9000005    1    3    3    0    0  0.51982084812E+02  0.34640858494E+02 -0.96396154655E+02  0.11487099221E+03  0.10000000000E+01 0.  0.
    9000005    1    3    3    0    0 -0.51982084812E+02 -0.34640858494E+02 -0.10294836273E+03  0.12042213919E+03  0.10000000000E+01 0.  0.
<mgrwt>
<rscale>  0 0.12499848E+03</rscale>
<asrwt>0</asrwt>
<pdfrwt beam="1">  1        4 0.27652782E-02 0.12499848E+03</pdfrwt>
<pdfrwt beam="2">  1       -4 0.33433663E-01 0.12499848E+03</pdfrwt>
<totfact> 0.84506261E+03</totfact>
</mgrwt>
</event>
<event>
 5    1  0.3236337E-002  0.1249998E+03  0.7818608E-02  0.1235070E+00
          4   -1    0    0  501    0  0.00000000000E+00  0.00000000000E+00  0.10572689045E+04  0.10572696673E+04  0.12700000000E+01 0. -1.
         -4   -1    0    0    0  501 -0.00000000000E+00 -0.00000000000E+00 -0.35847246797E+01  0.38030449681E+01  0.12700000000E+01 0. -1.
         25    2    1    2    0    0  0.00000000000E+00  0.00000000000E+00  0.10536841798E+04  0.10610727122E+04  0.12499979938E+03 0.  0.
    9000005    1    3    3    0    0 -0.58925909369E+02 -0.19024480735E+02  0.59839032396E+03  0.60158638072E+03  0.10000000000E+01 0.  0.
    9000005    1    3    3    0    0  0.58925909369E+02  0.19024480735E+02  0.45529385585E+03  0.45948633150E+03  0.10000000000E+01 0.  0.
<mgrwt>
<rscale>  0 0.12499980E+03</rscale>
<asrwt>0</asrwt>
<pdfrwt beam="1">  1        4 0.16267359E+00 0.12499980E+03</pdfrwt>
<pdfrwt beam="2">  1       -4 0.56834871E-03 0.12499980E+03</pdfrwt>
<totfact> 0.28651668E+03</totfact>
</mgrwt>
</event>
<event>
 5    1  0.3236337E-002  0.1250011E+03  0.7818608E-02  0.1235068E+00
          4   -1    0    0  501    0  0.00000000000E+00  0.00000000000E+00  0.29091458359E+02  0.29119166359E+02  0.12700000000E+01 0. -1.
         -4   -1    0    0    0  501 -0.00000000000E+00 -0.00000000000E+00 -0.13418249737E+03  0.13418850733E+03  0.12700000000E+01 0. -1.
         25    2    1    2    0    0  0.00000000000E+00  0.00000000000E+00 -0.10509103901E+03  0.16330767369E+03  0.12500107922E+03 0.  0.
    9000005    1    3    3    0    0  0.46983422232E+02  0.35247035544E+02 -0.80429032883E+02  0.99597313266E+02  0.10000000000E+01 0.  0.
    9000005    1    3    3    0    0 -0.46983422232E+02 -0.35247035544E+02 -0.24662006123E+02  0.63710360423E+02  0.10000000000E+01 0.  0.
<mgrwt>
<rscale>  0 0.12500108E+03</rscale>
<asrwt>0</asrwt>
<pdfrwt beam="1">  1        4 0.44782027E-02 0.12500108E+03</pdfrwt>
<pdfrwt beam="2">  1       -4 0.20646055E-01 0.12500108E+03</pdfrwt>
<totfact> 0.96706510E+03</totfact>
</mgrwt>
</event>
<event>
 5    1  0.3236337E-002  0.1249981E+03  0.7818608E-02  0.1235072E+00
         -4   -1    0    0    0  501 -0.00000000000E+00  0.00000000000E+00  0.29666906728E+01  0.32270967677E+01  0.12700000000E+01 0. -1.
          4   -1    0    0  501    0  0.00000000000E+00 -0.00000000000E+00 -0.12610462651E+04  0.12610469046E+04  0.12700000000E+01 0. -1.
         25    2    1    2    0    0  0.00000000000E+00  0.00000000000E+00 -0.12580795744E+04  0.12642740014E+04  0.12499813984E+03 0.  0.
    9000005    1    3    3    0    0  0.49855747926E+02  0.28388031507E+02 -0.37848610543E+03  0.38281092975E+03  0.10000000000E+01 0.  0.
    9000005    1    3    3    0    0 -0.49855747926E+02 -0.28388031507E+02 -0.87959346898E+03  0.88146307161E+03  0.10000000000E+01 0.  0.
<mgrwt>
<rscale>  0 0.12499814E+03</rscale>
<asrwt>0</asrwt>
<pdfrwt beam="2">  1        4 0.19402679E+00 0.12499814E+03</pdfrwt>
<pdfrwt beam="1">  1       -4 0.47649539E-03 0.12499814E+03</pdfrwt>
<totfact> 0.23088732E+03</totfact>
</mgrwt>
</event>
<event>
 5    1  0.3236337E-002  0.1250090E+03  0.7818608E-02  0.1235055E+00
          4   -1    0    0  501    0  0.00000000000E+00  0.00000000000E+00  0.80773048309E+02  0.80783031839E+02  0.12700000000E+01 0. -1.
         -4   -1    0    0    0  501 -0.00000000000E+00 -0.00000000000E+00 -0.48346434105E+02  0.48363111879E+02  0.12700000000E+01 0. -1.
         25    2    1    2    0    0  0.00000000000E+00  0.00000000000E+00  0.32426614204E+02  0.12914614372E+03  0.12500896419E+03 0.  0.
    9000005    1    3    3    0    0 -0.42553088013E+02  0.43641101929E+02  0.30472234903E+02  0.68153269745E+02  0.10000000000E+01 0.  0.
    9000005    1    3    3    0    0  0.42553088013E+02 -0.43641101929E+02  0.19543793016E+01  0.60992873973E+02  0.10000000000E+01 0.  0.
<mgrwt>
<rscale>  0 0.12500896E+03</rscale>
<asrwt>0</asrwt>
<pdfrwt beam="1">  1        4 0.12428674E-01 0.12500896E+03</pdfrwt>
<pdfrwt beam="2">  1       -4 0.74399639E-02 0.12500896E+03</pdfrwt>
<totfact> 0.10360711E+04</totfact>
</mgrwt>
</event>
<event>
 5    1  0.3236337E-002  0.1249960E+03  0.7818608E-02  0.1235076E+00
         -4   -1    0    0    0  501 -0.00000000000E+00  0.00000000000E+00  0.32748916454E+03  0.32749162706E+03  0.12700000000E+01 0. -1.
          4   -1    0    0  501    0  0.00000000000E+00 -0.00000000000E+00 -0.11890792460E+02  0.11958421523E+02  0.12700000000E+01 0. -1.
         25    2    1    2    0    0  0.00000000000E+00  0.00000000000E+00  0.31559837208E+03  0.33945004858E+03  0.12499601202E+03 0.  0.
    9000005    1    3    3    0    0  0.59140661577E+02  0.12050736384E+02  0.20177006348E+03  0.21060625968E+03  0.10000000000E+01 0.  0.
    9000005    1    3    3    0    0 -0.59140661577E+02 -0.12050736384E+02  0.11382830860E+03  0.12884378890E+03  0.10000000000E+01 0.  0.
<mgrwt>
<rscale>  0 0.12499601E+03</rscale>
<asrwt>0</asrwt>
<pdfrwt beam="2">  1        4 0.18347445E-02 0.12499601E+03</pdfrwt>
<pdfrwt beam="1">  1       -4 0.50388337E-01 0.12499601E+03</pdfrwt>
<totfact> 0.70907250E+03</totfact>
</mgrwt>
</event>
<event>
 5    1  0.3236337E-002  0.1250023E+03  0.7818608E-02  0.1235066E+00
         -4   -1    0    0    0  501 -0.00000000000E+00  0.00000000000E+00  0.27610216293E+03  0.27610508375E+03  0.12700000000E+01 0. -1.
          4   -1    0    0  501    0  0.00000000000E+00 -0.00000000000E+00 -0.14116872418E+02  0.14173883972E+02  0.12700000000E+01 0. -1.
         25    2    1    2    0    0  0.00000000000E+00  0.00000000000E+00  0.26198529051E+03  0.29027896772E+03  0.12500234661E+03 0.  0.
    9000005    1    3    3    0    0 -0.44048995358E+02  0.42314440332E+02  0.16167461379E+03  0.17283086124E+03  0.10000000000E+01 0.  0.
    9000005    1    3    3    0    0  0.44048995358E+02 -0.42314440332E+02  0.10031067672E+03  0.11744810648E+03  0.10000000000E+01 0.  0.
<mgrwt>
<rscale>  0 0.12500235E+03</rscale>
<asrwt>0</asrwt>
<pdfrwt beam="2">  1        4 0.21764366E-02 0.12500235E+03</pdfrwt>
<pdfrwt beam="1">  1       -4 0.42481867E-01 0.12500235E+03</pdfrwt>
<totfact> 0.76830627E+03</totfact>
</mgrwt>
</event>
<event>
 5    1  0.3236337E-002  0.1250059E+03  0.7818608E-02  0.1235060E+00
          4   -1    0    0  501    0  0.00000000000E+00  0.00000000000E+00  0.51412858362E+03  0.51413015219E+03  0.12700000000E+01 0.  1.
         -4   -1    0    0    0  501 -0.00000000000E+00 -0.00000000000E+00 -0.75438729082E+01  0.76500273500E+01  0.12700000000E+01 0.  1.
         25    2    1    2    0    0  0.00000000000E+00  0.00000000000E+00  0.50658471071E+03  0.52178017954E+03  0.12500594641E+03 0.  0.
    9000005    1    3    3    0    0 -0.55467894000E+01 -0.61330839282E+02  0.20884655184E+03  0.21773865283E+03  0.10000000000E+01 0.  0.
    9000005    1    3    3    0    0  0.55467894000E+01  0.61330839282E+02  0.29773815887E+03  0.30404152671E+03  0.10000000000E+01 0.  0.
<mgrwt>
<rscale>  0 0.12500595E+03</rscale>
<asrwt>0</asrwt>
<pdfrwt beam="1">  1        4 0.79105007E-01 0.12500595E+03</pdfrwt>
<pdfrwt beam="2">  1       -4 0.11688820E-02 0.12500595E+03</pdfrwt>
<totfact> 0.54206133E+03</totfact>
</mgrwt>
</event>
<event>
 5    1  0.3236337E-002  0.1250016E+03  0.7818608E-02  0.1235067E+00
         -4   -1    0    0    0  501 -0.00000000000E+00  0.00000000000E+00  0.30221609730E+02  0.30248282507E+02  0.12700000000E+01 0.  1.
          4   -1    0    0  501    0  0.00000000000E+00 -0.00000000000E+00 -0.12917007484E+03  0.12917631801E+03  0.12700000000E+01 0.  1.
         25    2    1    2    0    0  0.00000000000E+00  0.00000000000E+00 -0.98948465112E+02  0.15942460052E+03  0.12500161800E+03 0.  0.
    9000005    1    3    3    0    0  0.20729918502E+02 -0.44154342928E+02 -0.99296006895E+02  0.11063468039E+03  0.10000000000E+01 0.  0.
    9000005    1    3    3    0    0 -0.20729918502E+02  0.44154342928E+02  0.34754178246E+00  0.48789920124E+02  0.10000000000E+01 0.  0.
<mgrwt>
<rscale>  0 0.12500162E+03</rscale>
<asrwt>0</asrwt>
<pdfrwt beam="2">  1        4 0.19874851E-01 0.12500162E+03</pdfrwt>
<pdfrwt beam="1">  1       -4 0.46520105E-02 0.12500162E+03</pdfrwt>
<totfact> 0.97450288E+03</totfact>
</mgrwt>
</event>
<event>
 5    1  0.3236337E-002  0.1250022E+03  0.7818608E-02  0.1235066E+00
          4   -1    0    0  501    0  0.00000000000E+00  0.00000000000E+00  0.14052702775E+02  0.14109973610E+02  0.12700000000E+01 0. -1.
         -4   -1    0    0    0  501 -0.00000000000E+00 -0.00000000000E+00 -0.27735722784E+03  0.27736013545E+03  0.12700000000E+01 0. -1.
         25    2    1    2    0    0  0.00000000000E+00  0.00000000000E+00 -0.26330452506E+03  0.29147010905E+03  0.12500220619E+03 0.  0.
    9000005    1    3    3    0    0 -0.51398169864E+02 -0.17232364468E+02 -0.20414818617E+03  0.21122549128E+03  0.10000000000E+01 0.  0.
    9000005    1    3    3    0    0  0.51398169864E+02  0.17232364468E+02 -0.59156338898E+02  0.80244617778E+02  0.10000000000E+01 0.  0.
<mgrwt>
<rscale>  0 0.12500221E+03</rscale>
<asrwt>0</asrwt>
<pdfrwt beam="1">  1        4 0.21665836E-02 0.12500221E+03</pdfrwt>
<pdfrwt beam="2">  1       -4 0.42674968E-01 0.12500221E+03</pdfrwt>
<totfact> 0.76677668E+03</totfact>
</mgrwt>
</event>
<event>
 5    1  0.3236337E-002  0.1249999E+03  0.7818608E-02  0.1235069E+00
         -4   -1    0    0    0  501 -0.00000000000E+00  0.00000000000E+00  0.62792024361E+02  0.62804866240E+02  0.12700000000E+01 0. -1.
          4   -1    0    0  501    0  0.00000000000E+00 -0.00000000000E+00 -0.62183516900E+02  0.62196484419E+02  0.12700000000E+01 0. -1.
         25    2    1    2    0    0  0.00000000000E+00  0.00000000000E+00  0.60850746131E+00  0.12500135066E+03  0.12499986954E+03 0.  0.
    9000005    1    3    3    0    0  0.34192488936E+02  0.34840090026E+02  0.39321169918E+02  0.62690609954E+02  0.10000000000E+01 0.  0.
    9000005    1    3    3    0    0 -0.34192488936E+02 -0.34840090026E+02 -0.38712662457E+02  0.62310740704E+02  0.10000000000E+01 0.  0.
<mgrwt>
<rscale>  0 0.12499987E+03</rscale>
<asrwt>0</asrwt>
<pdfrwt beam="2">  1        4 0.95686802E-02 0.12499987E+03</pdfrwt>
<pdfrwt beam="1">  1       -4 0.96622968E-02 0.12499987E+03</pdfrwt>
<totfact> 0.10452864E+04</totfact>
</mgrwt>
</event>
<event>
 5    1  0.3236337E-002  0.1249981E+03  0.7818608E-02  0.1235072E+00
         -4   -1    0    0    0  501 -0.00000000000E+00  0.00000000000E+00  0.38957451374E+03  0.38957658381E+03  0.12700000000E+01 0.  1.
          4   -1    0    0  501    0  0.00000000000E+00 -0.00000000000E+00 -0.99843365080E+01  0.10064783927E+02  0.12700000000E+01 0.  1.
         25    2    1    2    0    0  0.00000000000E+00  0.00000000000E+00  0.37959017723E+03  0.39964136774E+03  0.12499808062E+03 0.  0.
    9000005    1    3    3    0    0 -0.36465514889E+02 -0.47381687608E+02  0.24790746977E+03  0.25501739483E+03  0.10000000000E+01 0.  0.
    9000005    1    3    3    0    0  0.36465514889E+02  0.47381687608E+02  0.13168270746E+03  0.14462397291E+03  0.10000000000E+01 0.  0.
<mgrwt>
<rscale>  0 0.12499808E+03</rscale>
<asrwt>0</asrwt>
<pdfrwt beam="2">  1        4 0.15423998E-02 0.12499808E+03</pdfrwt>
<pdfrwt beam="1">  1       -4 0.59940869E-01 0.12499808E+03</pdfrwt>
<totfact> 0.64590431E+03</totfact>
</mgrwt>
</event>
<event>
 5    1  0.3236337E-002  0.1249991E+03  0.7818608E-02  0.1235071E+00
          4   -1    0    0  501    0  0.00000000000E+00  0.00000000000E+00  0.98951497858E+01  0.99763164186E+01  0.12700000000E+01 0.  1.
         -4   -1    0    0    0  501 -0.00000000000E+00 -0.00000000000E+00 -0.39306376757E+03  0.39306581927E+03  0.12700000000E+01 0.  1.
         25    2    1    2    0    0  0.00000000000E+00  0.00000000000E+00 -0.38316861778E+03  0.40304213568E+03  0.12499909393E+03 0.  0.
    9000005    1    3    3    0    0 -0.30169246321E+02 -0.49200998551E+02 -0.11431584301E+03  0.12806261611E+03  0.10000000000E+01 0.  0.
    9000005    1    3    3    0    0  0.30169246321E+02  0.49200998551E+02 -0.26885277478E+03  0.27497951958E+03  0.10000000000E+01 0.  0.
<mgrwt>
<rscale>  0 0.12499909E+03</rscale>
<asrwt>0</asrwt>
<pdfrwt beam="1">  1        4 0.15287324E-02 0.12499909E+03</pdfrwt>
<pdfrwt beam="2">  1       -4 0.60477738E-01 0.12499909E+03</pdfrwt>
<totfact> 0.64259277E+03</totfact>
</mgrwt>
</event>
<event>
 5    1  0.3236337E-002  0.1250071E+03  0.7818608E-02  0.1235058E+00
          4   -1    0    0  501    0  0.00000000000E+00  0.00000000000E+00  0.35232850189E+03  0.35233079080E+03  0.12700000000E+01 0. -1.
         -4   -1    0    0    0  501 -0.00000000000E+00 -0.00000000000E+00 -0.11049518001E+02  0.11122263621E+02  0.12700000000E+01 0. -1.
         25    2    1    2    0    0  0.00000000000E+00  0.00000000000E+00  0.34127898389E+03  0.36345305442E+03  0.12500711148E+03 0.  0.
    9000005    1    3    3    0    0 -0.11656834939E+02  0.59741552042E+02  0.21183518428E+03  0.22040889306E+03  0.10000000000E+01 0.  0.
    9000005    1    3    3    0    0  0.11656834939E+02 -0.59741552042E+02  0.12944379961E+03  0.14304416135E+03  0.10000000000E+01 0.  0.
<mgrwt>
<rscale>  0 0.12500711E+03</rscale>
<asrwt>0</asrwt>
<pdfrwt beam="1">  1        4 0.54210162E-01 0.12500711E+03</pdfrwt>
<pdfrwt beam="2">  1       -4 0.17056976E-02 0.12500711E+03</pdfrwt>
<totfact> 0.68258736E+03</totfact>
</mgrwt>
</event>
<event>
 5    1  0.3236337E-002  0.1249985E+03  0.7818608E-02  0.1235072E+00
          4   -1    0    0  501    0  0.00000000000E+00  0.00000000000E+00  0.10833761745E+03  0.10834506105E+03  0.12700000000E+01 0. -1.
         -4   -1    0    0    0  501 -0.00000000000E+00 -0.00000000000E+00 -0.36035511620E+02  0.36057883988E+02  0.12700000000E+01 0. -1.
         25    2    1    2    0    0  0.00000000000E+00  0.00000000000E+00  0.72302105827E+02  0.14440294504E+03  0.12499846411E+03 0.  0.
    9000005    1    3    3    0    0  0.44730006310E+01  0.14315246336E+02  0.10623333965E+03  0.10729145570E+03  0.10000000000E+01 0.  0.
    9000005    1    3    3    0    0 -0.44730006310E+01 -0.14315246336E+02 -0.33931233824E+02  0.37111489341E+02  0.10000000000E+01 0.  0.
<mgrwt>
<rscale>  0 0.12499846E+03</rscale>
<asrwt>0</asrwt>
<pdfrwt beam="1">  1        4 0.16669619E-01 0.12499846E+03</pdfrwt>
<pdfrwt beam="2">  1       -4 0.55462185E-02 0.12499846E+03</pdfrwt>
<totfact> 0.10043481E+04</totfact>
</mgrwt>
</event>
<event>
 5    1  0.3236337E-002  0.1249979E+03  0.7818608E-02  0.1235073E+00
          4   -1    0    0  501    0  0.00000000000E+00  0.00000000000E+00  0.65924455789E+02  0.65936687595E+02  0.12700000000E+01 0. -1.
         -4   -1    0    0    0  501 -0.00000000000E+00 -0.00000000000E+00 -0.59226872747E+02  0.59240487468E+02  0.12700000000E+01 0. -1.
         25    2    1    2    0    0  0.00000000000E+00  0.00000000000E+00  0.66975830418E+01  0.12517717506E+03  0.12499787013E+03 0.  0.
    9000005    1    3    3    0    0 -0.43993287044E+02  0.26584514865E+02 -0.32240492271E+02  0.60684389075E+02  0.10000000000E+01 0.  0.
    9000005    1    3    3    0    0  0.43993287044E+02 -0.26584514865E+02  0.38938075312E+02  0.64492785988E+02  0.10000000000E+01 0.  0.
<mgrwt>
<rscale>  0 0.12499787E+03</rscale>
<asrwt>0</asrwt>
<pdfrwt beam="1">  1        4 0.10144212E-01 0.12499787E+03</pdfrwt>
<pdfrwt beam="2">  1       -4 0.91138148E-02 0.12499787E+03</pdfrwt>
<totfact> 0.10449519E+04</totfact>
</mgrwt>
</event>
<event>
 5    1  0.3236337E-002  0.1250012E+03  0.7818608E-02  0.1235067E+00
          4   -1    0    0  501    0  0.00000000000E+00  0.00000000000E+00  0.77321751269E+02  0.77332180360E+02  0.12700000000E+01 0. -1.
         -4   -1    0    0    0  501 -0.00000000000E+00 -0.00000000000E+00 -0.50498588044E+02  0.50514555273E+02  0.12700000000E+01 0. -1.
         25    2    1    2    0    0  0.00000000000E+00  0.00000000000E+00  0.26823163224E+02  0.12784673563E+03  0.12500122290E+03 0.  0.
    9000005    1    3    3    0    0 -0.23919011555E+02 -0.26187758599E+02 -0.39212662506E+02  0.52882423498E+02  0.10000000000E+01 0.  0.
    9000005    1    3    3    0    0  0.23919011555E+02  0.26187758599E+02  0.66035825730E+02  0.74964312136E+02  0.10000000000E+01 0.  0.
<mgrwt>
<rscale>  0 0.12500122E+03</rscale>
<asrwt>0</asrwt>
<pdfrwt beam="1">  1        4 0.11897684E-01 0.12500122E+03</pdfrwt>
<pdfrwt beam="2">  1       -4 0.77710441E-02 0.12500122E+03</pdfrwt>
<totfact> 0.10390512E+04</totfact>
</mgrwt>
</event>
<event>
 5    1  0.3236337E-002  0.1249865E+03  0.7818608E-02  0.1235090E+00
          4   -1    0    0  501    0  0.00000000000E+00  0.00000000000E+00  0.77518702666E+02  0.77529105264E+02  0.12700000000E+01 0. -1.
         -4   -1    0    0    0  501 -0.00000000000E+00 -0.00000000000E+00 -0.50358365593E+02  0.50374377268E+02  0.12700000000E+01 0. -1.
         25    2    1    2    0    0  0.00000000000E+00  0.00000000000E+00  0.27160337073E+02  0.12790348253E+03  0.12498646700E+03 0.  0.
    9000005    1    3    3    0    0 -0.16041876445E+02  0.54924085372E+02  0.39274066037E+02  0.69407846941E+02  0.10000000000E+01 0.  0.
    9000005    1    3    3    0    0  0.16041876445E+02 -0.54924085372E+02 -0.12113728964E+02  0.58495635591E+02  0.10000000000E+01 0.  0.
<mgrwt>
<rscale>  0 0.12498647E+03</rscale>
<asrwt>0</asrwt>
<pdfrwt beam="1">  1        4 0.11927986E-01 0.12498647E+03</pdfrwt>
<pdfrwt beam="2">  1       -4 0.77494727E-02 0.12498647E+03</pdfrwt>
<totfact> 0.10392747E+04</totfact>
</mgrwt>
</event>
<event>
 5    1  0.3236337E-002  0.1250006E+03  0.7818608E-02  0.1235068E+00
          4   -1    0    0  501    0  0.00000000000E+00  0.00000000000E+00  0.19805190361E+02  0.19845867712E+02  0.12700000000E+01 0. -1.
         -4   -1    0    0    0  501 -0.00000000000E+00 -0.00000000000E+00 -0.19699041765E+03  0.19699451146E+03  0.12700000000E+01 0. -1.
         25    2    1    2    0    0  0.00000000000E+00  0.00000000000E+00 -0.17718522728E+03  0.21684037917E+03  0.12500058108E+03 0.  0.
    9000005    1    3    3    0    0 -0.42882966245E+02  0.39022856483E+02 -0.48149037313E+02  0.75372819479E+02  0.10000000000E+01 0.  0.
    9000005    1    3    3    0    0  0.42882966245E+02 -0.39022856483E+02 -0.12903618997E+03  0.14146755969E+03  0.10000000000E+01 0.  0.
<mgrwt>
<rscale>  0 0.12500058E+03</rscale>
<asrwt>0</asrwt>
<pdfrwt beam="1">  1        4 0.30503964E-02 0.12500058E+03</pdfrwt>
<pdfrwt beam="2">  1       -4 0.30309661E-01 0.12500058E+03</pdfrwt>
<totfact> 0.87369667E+03</totfact>
</mgrwt>
</event>
<event>
 5    1  0.3236337E-002  0.1249998E+03  0.7818608E-02  0.1235070E+00
          4   -1    0    0  501    0  0.00000000000E+00  0.00000000000E+00  0.64030751689E+01  0.65278075660E+01  0.12700000000E+01 0.  1.
         -4   -1    0    0    0  501 -0.00000000000E+00 -0.00000000000E+00 -0.60404608976E+03  0.60404742484E+03  0.12700000000E+01 0.  1.
         25    2    1    2    0    0  0.00000000000E+00  0.00000000000E+00 -0.59764301459E+03  0.61057523241E+03  0.12499976615E+03 0.  0.
    9000005    1    3    3    0    0 -0.43184549580E+02 -0.11748425807E+02 -0.51186585019E+03  0.51381959813E+03  0.10000000000E+01 0.  0.
    9000005    1    3    3    0    0  0.43184549580E+02  0.11748425807E+02 -0.85777164404E+02  0.96755634278E+02  0.10000000000E+01 0.  0.
<mgrwt>
<rscale>  0 0.12499977E+03</rscale>
<asrwt>0</asrwt>
<pdfrwt beam="1">  1        4 0.99478646E-03 0.12499977E+03</pdfrwt>
<pdfrwt beam="2">  1       -4 0.92939821E-01 0.12499977E+03</pdfrwt>
<totfact> 0.48207068E+03</totfact>
</mgrwt>
</event>
<event>
 5    1  0.3236337E-002  0.1250002E+03  0.7818608E-02  0.1235069E+00
         -4   -1    0    0    0  501 -0.00000000000E+00  0.00000000000E+00  0.82849877376E+02  0.82859610675E+02  0.12700000000E+01 0.  1.
          4   -1    0    0  501    0  0.00000000000E+00 -0.00000000000E+00 -0.47127628370E+02  0.47144737308E+02  0.12700000000E+01 0.  1.
         25    2    1    2    0    0  0.00000000000E+00  0.00000000000E+00  0.35722249006E+02  0.13000434798E+03  0.12500020568E+03 0.  0.
    9000005    1    3    3    0    0 -0.22087952326E+02 -0.34405118248E+02 -0.31292659030E+02  0.51495828072E+02  0.10000000000E+01 0.  0.
    9000005    1    3    3    0    0  0.22087952326E+02  0.34405118248E+02  0.67014908036E+02  0.78508519912E+02  0.10000000000E+01 0.  0.
<mgrwt>
<rscale>  0 0.12500021E+03</rscale>
<asrwt>0</asrwt>
<pdfrwt beam="2">  1        4 0.72524692E-02 0.12500021E+03</pdfrwt>
<pdfrwt beam="1">  1       -4 0.12748200E-01 0.12500021E+03</pdfrwt>
<totfact> 0.10344366E+04</totfact>
</mgrwt>
</event>
<event>
 5    1  0.3236337E-002  0.1249991E+03  0.7818608E-02  0.1235071E+00
          4   -1    0    0  501    0  0.00000000000E+00  0.00000000000E+00  0.34358455601E+03  0.34358690317E+03  0.12700000000E+01 0.  1.
         -4   -1    0    0    0  501 -0.00000000000E+00 -0.00000000000E+00 -0.11331082263E+02  0.11402031629E+02  0.12700000000E+01 0.  1.
         25    2    1    2    0    0  0.00000000000E+00  0.00000000000E+00  0.33225347375E+03  0.35498893480E+03  0.12499909204E+03 0.  0.
    9000005    1    3    3    0    0  0.40452693761E+02 -0.32150400557E+01  0.31164619202E+02  0.51176072584E+02  0.10000000000E+01 0.  0.
    9000005    1    3    3    0    0 -0.40452693761E+02  0.32150400557E+01  0.30108885455E+03  0.30381286222E+03  0.10000000000E+01 0.  0.
<mgrwt>
<rscale>  0 0.12499909E+03</rscale>
<asrwt>0</asrwt>
<pdfrwt beam="1">  1        4 0.52864797E-01 0.12499909E+03</pdfrwt>
<pdfrwt beam="2">  1       -4 0.17488817E-02 0.12499909E+03</pdfrwt>
<totfact> 0.69180567E+03</totfact>
</mgrwt>
</event>
