<event>
 5    1  0.3257199E-002  0.1249989E+03  0.7818608E-02  0.1235071E+00
          4   -1    0    0  501    0  0.00000000000E+00  0.00000000000E+00  0.14153289759E+02  0.14210155207E+02  0.12700000000E+01 0. -1.
         -4   -1    0    0    0  501 -0.00000000000E+00 -0.00000000000E+00 -0.27537918420E+03  0.27538211269E+03  0.12700000000E+01 0. -1.
         25    2    1    2    0    0  0.00000000000E+00  0.00000000000E+00 -0.26122589444E+03  0.28959226790E+03  0.12499885479E+03 0.  0.
    9000005    1    3    3    0    0  0.24476862067E+01 -0.85784972164E+01 -0.27390777562E+03  0.27405483270E+03  0.10000000000E+01 0.  0.
    9000005    1    3    3    0    0 -0.24476862067E+01  0.85784972164E+01  0.12681881179E+02  0.15537435197E+02  0.10000000000E+01 0.  0.
<mgrwt>
<rscale>  0 0.12499885E+03</rscale>
<asrwt>0</asrwt>
<pdfrwt beam="1">  1        4 0.21820289E-02 0.12499885E+03</pdfrwt>
<pdfrwt beam="2">  1       -4 0.42370624E-01 0.12499885E+03</pdfrwt>
<totfact> 0.76925150E+03</totfact>
</mgrwt>
</event>
<event>
 5    1  0.3257199E-002  0.1250005E+03  0.7818608E-02  0.1235068E+00
          4   -1    0    0  501    0  0.00000000000E+00  0.00000000000E+00  0.12000289288E+03  0.12000961295E+03  0.12700000000E+01 0.  1.
         -4   -1    0    0    0  501 -0.00000000000E+00 -0.00000000000E+00 -0.32531544265E+02  0.32556324612E+02  0.12700000000E+01 0.  1.
         25    2    1    2    0    0  0.00000000000E+00  0.00000000000E+00  0.87471348616E+02  0.15256593756E+03  0.12500051390E+03 0.  0.
    9000005    1    3    3    0    0 -0.52370576892E+01  0.12359187499E+02 -0.30757261693E+02  0.33573582408E+02  0.10000000000E+01 0.  0.
    9000005    1    3    3    0    0  0.52370576892E+01 -0.12359187499E+02  0.11822861031E+03  0.11899235515E+03  0.10000000000E+01 0.  0.
<mgrwt>
<rscale>  0 0.12500051E+03</rscale>
<asrwt>0</asrwt>
<pdfrwt beam="1">  1        4 0.18464406E-01 0.12500051E+03</pdfrwt>
<pdfrwt beam="2">  1       -4 0.50072761E-02 0.12500051E+03</pdfrwt>
<totfact> 0.98793512E+03</totfact>
</mgrwt>
</event>
<event>
 5    1  0.3257199E-002  0.1250046E+03  0.7818608E-02  0.1235062E+00
         -4   -1    0    0    0  501 -0.00000000000E+00  0.00000000000E+00  0.20078349490E+02  0.20118474551E+02  0.12700000000E+01 0. -1.
          4   -1    0    0  501    0  0.00000000000E+00 -0.00000000000E+00 -0.19432835400E+03  0.19433250389E+03  0.12700000000E+01 0. -1.
         25    2    1    2    0    0  0.00000000000E+00  0.00000000000E+00 -0.17425000451E+03  0.21445097844E+03  0.12500463224E+03 0.  0.
    9000005    1    3    3    0    0 -0.49768497546E+02 -0.28072083787E+02 -0.13054536577E+03  0.14250627270E+03  0.10000000000E+01 0.  0.
    9000005    1    3    3    0    0  0.49768497546E+02  0.28072083787E+02 -0.43704638742E+02  0.71944705738E+02  0.10000000000E+01 0.  0.
<mgrwt>
<rscale>  0 0.12500463E+03</rscale>
<asrwt>0</asrwt>
<pdfrwt beam="2">  1        4 0.29900074E-01 0.12500463E+03</pdfrwt>
<pdfrwt beam="1">  1       -4 0.30923827E-02 0.12500463E+03</pdfrwt>
<totfact> 0.87745015E+03</totfact>
</mgrwt>
</event>
<event>
 5    1  0.3257199E-002  0.1250051E+03  0.7818608E-02  0.1235061E+00
          4   -1    0    0  501    0  0.00000000000E+00  0.00000000000E+00  0.15153862369E+02  0.15206986707E+02  0.12700000000E+01 0. -1.
         -4   -1    0    0    0  501 -0.00000000000E+00 -0.00000000000E+00 -0.25728798066E+03  0.25729111506E+03  0.12700000000E+01 0. -1.
         25    2    1    2    0    0  0.00000000000E+00  0.00000000000E+00 -0.24213411829E+03  0.27249810177E+03  0.12500513681E+03 0.  0.
    9000005    1    3    3    0    0 -0.15509596138E+02  0.58973401177E+02 -0.15088954278E+03  0.16274846770E+03  0.10000000000E+01 0.  0.
    9000005    1    3    3    0    0  0.15509596138E+02 -0.58973401177E+02 -0.91244575513E+02  0.10974963407E+03  0.10000000000E+01 0.  0.
<mgrwt>
<rscale>  0 0.12500514E+03</rscale>
<asrwt>0</asrwt>
<pdfrwt beam="1">  1        4 0.23356912E-02 0.12500514E+03</pdfrwt>
<pdfrwt beam="2">  1       -4 0.39587091E-01 0.12500514E+03</pdfrwt>
<totfact> 0.79174390E+03</totfact>
</mgrwt>
</event>
<event>
 5    1  0.3257199E-002  0.1249983E+03  0.7818608E-02  0.1235072E+00
          4   -1    0    0  501    0  0.00000000000E+00  0.00000000000E+00  0.22929058849E+03  0.22929410561E+03  0.12700000000E+01 0.  1.
         -4   -1    0    0    0  501 -0.00000000000E+00 -0.00000000000E+00 -0.17008470086E+02  0.17055818792E+02  0.12700000000E+01 0.  1.
         25    2    1    2    0    0  0.00000000000E+00  0.00000000000E+00  0.21228211840E+03  0.24634992440E+03  0.12499834984E+03 0.  0.
    9000005    1    3    3    0    0 -0.32896258966E+02  0.52961357512E+02  0.97761545740E+02  0.11595425421E+03  0.10000000000E+01 0.  0.
    9000005    1    3    3    0    0  0.32896258966E+02 -0.52961357512E+02  0.11452057266E+03  0.13039567020E+03  0.10000000000E+01 0.  0.
<mgrwt>
<rscale>  0 0.12499835E+03</rscale>
<asrwt>0</asrwt>
<pdfrwt beam="1">  1        4 0.35279384E-01 0.12499835E+03</pdfrwt>
<pdfrwt beam="2">  1       -4 0.26206007E-02 0.12499835E+03</pdfrwt>
<totfact> 0.82863705E+03</totfact>
</mgrwt>
</event>
<event>
 5    1  0.3257199E-002  0.1250033E+03  0.7818608E-02  0.1235064E+00
         -4   -1    0    0    0  501 -0.00000000000E+00  0.00000000000E+00  0.35366001453E+01  0.37577174704E+01  0.12700000000E+01 0.  1.
          4   -1    0    0  501    0  0.00000000000E+00 -0.00000000000E+00 -0.10708746227E+04  0.10708753758E+04  0.12700000000E+01 0.  1.
         25    2    1    2    0    0  0.00000000000E+00  0.00000000000E+00 -0.10673380225E+04  0.10746330932E+04  0.12500332279E+03 0.  0.
    9000005    1    3    3    0    0  0.52200006628E+02 -0.27063072487E+02 -0.35166623384E+03  0.35654928216E+03  0.10000000000E+01 0.  0.
    9000005    1    3    3    0    0 -0.52200006628E+02  0.27063072487E+02 -0.71567178870E+03  0.71808381107E+03  0.10000000000E+01 0.  0.
<mgrwt>
<rscale>  0 0.12500332E+03</rscale>
<asrwt>0</asrwt>
<pdfrwt beam="2">  1        4 0.16476676E+00 0.12500332E+03</pdfrwt>
<pdfrwt beam="1">  1       -4 0.56116014E-03 0.12500332E+03</pdfrwt>
<totfact> 0.28235926E+03</totfact>
</mgrwt>
</event>
<event>
 5    1  0.3257199E-002  0.1249962E+03  0.7818608E-02  0.1235075E+00
          4   -1    0    0  501    0  0.00000000000E+00  0.00000000000E+00  0.15778608088E+03  0.15779119183E+03  0.12700000000E+01 0.  1.
         -4   -1    0    0    0  501 -0.00000000000E+00 -0.00000000000E+00 -0.24733324078E+02  0.24765908422E+02  0.12700000000E+01 0.  1.
         25    2    1    2    0    0  0.00000000000E+00  0.00000000000E+00  0.13305275681E+03  0.18255710026E+03  0.12499623499E+03 0.  0.
    9000005    1    3    3    0    0 -0.24654599077E+02  0.20273367780E-01  0.15038971534E+03  0.15240051229E+03  0.10000000000E+01 0.  0.
    9000005    1    3    3    0    0  0.24654599077E+02 -0.20273367780E-01 -0.17336958533E+02  0.30156587967E+02  0.10000000000E+01 0.  0.
<mgrwt>
<rscale>  0 0.12499623E+03</rscale>
<asrwt>0</asrwt>
<pdfrwt beam="1">  1        4 0.24277682E-01 0.12499623E+03</pdfrwt>
<pdfrwt beam="2">  1       -4 0.38080263E-02 0.12499623E+03</pdfrwt>
<totfact> 0.93166593E+03</totfact>
</mgrwt>
</event>
<event>
 5    1  0.3257199E-002  0.1250008E+03  0.7818608E-02  0.1235068E+00
         -4   -1    0    0    0  501 -0.00000000000E+00  0.00000000000E+00  0.13871293954E+02  0.13929310678E+02  0.12700000000E+01 0. -1.
          4   -1    0    0  501    0  0.00000000000E+00 -0.00000000000E+00 -0.28096336258E+03  0.28096623287E+03  0.12700000000E+01 0. -1.
         25    2    1    2    0    0  0.00000000000E+00  0.00000000000E+00 -0.26709206863E+03  0.29489554355E+03  0.12500083392E+03 0.  0.
    9000005    1    3    3    0    0 -0.61670224088E+02  0.10092443102E+02 -0.13241912785E+03  0.14642711281E+03  0.10000000000E+01 0.  0.
    9000005    1    3    3    0    0  0.61670224088E+02 -0.10092443102E+02 -0.13467294078E+03  0.14846843073E+03  0.10000000000E+01 0.  0.
<mgrwt>
<rscale>  0 0.12500083E+03</rscale>
<asrwt>0</asrwt>
<pdfrwt beam="2">  1        4 0.43229812E-01 0.12500083E+03</pdfrwt>
<pdfrwt beam="1">  1       -4 0.21387291E-02 0.12500083E+03</pdfrwt>
<totfact> 0.76242216E+03</totfact>
</mgrwt>
</event>
<event>
 5    1  0.3257199E-002  0.1250019E+03  0.7818608E-02  0.1235066E+00
         -4   -1    0    0    0  501 -0.00000000000E+00  0.00000000000E+00  0.69121088027E+01  0.70278124690E+01  0.12700000000E+01 0.  1.
          4   -1    0    0  501    0  0.00000000000E+00 -0.00000000000E+00 -0.56034097463E+03  0.56034241384E+03  0.12700000000E+01 0.  1.
         25    2    1    2    0    0  0.00000000000E+00  0.00000000000E+00 -0.55342886583E+03  0.56737022631E+03  0.12500185668E+03 0.  0.
    9000005    1    3    3    0    0  0.24884185182E+02 -0.52689992333E+02 -0.37920786225E+03  0.38366008492E+03  0.10000000000E+01 0.  0.
    9000005    1    3    3    0    0 -0.24884185182E+02  0.52689992333E+02 -0.17422100358E+03  0.18371014140E+03  0.10000000000E+01 0.  0.
<mgrwt>
<rscale>  0 0.12500186E+03</rscale>
<asrwt>0</asrwt>
<pdfrwt beam="2">  1        4 0.86215279E-01 0.12500186E+03</pdfrwt>
<pdfrwt beam="1">  1       -4 0.10724128E-02 0.12500186E+03</pdfrwt>
<totfact> 0.50992211E+03</totfact>
</mgrwt>
</event>
<event>
 5    1  0.3257199E-002  0.1250001E+03  0.7818608E-02  0.1235069E+00
         -4   -1    0    0    0  501 -0.00000000000E+00  0.00000000000E+00  0.26932878057E+03  0.26933177484E+03  0.12700000000E+01 0.  1.
          4   -1    0    0  501    0  0.00000000000E+00 -0.00000000000E+00 -0.14472788675E+02  0.14528403630E+02  0.12700000000E+01 0.  1.
         25    2    1    2    0    0  0.00000000000E+00  0.00000000000E+00  0.25485599189E+03  0.28386017847E+03  0.12500009728E+03 0.  0.
    9000005    1    3    3    0    0  0.53528238023E+02  0.59697602742E+01  0.55460606498E+02  0.77316163748E+02  0.10000000000E+01 0.  0.
    9000005    1    3    3    0    0 -0.53528238023E+02 -0.59697602742E+01  0.19939538539E+03  0.20654401473E+03  0.10000000000E+01 0.  0.
<mgrwt>
<rscale>  0 0.12500010E+03</rscale>
<asrwt>0</asrwt>
<pdfrwt beam="2">  1        4 0.22310912E-02 0.12500010E+03</pdfrwt>
<pdfrwt beam="1">  1       -4 0.41439706E-01 0.12500010E+03</pdfrwt>
<totfact> 0.77668872E+03</totfact>
</mgrwt>
</event>
<event>
 5    1  0.3257199E-002  0.1249971E+03  0.7818608E-02  0.1235074E+00
         -4   -1    0    0    0  501 -0.00000000000E+00  0.00000000000E+00  0.47621037484E+02  0.47637969216E+02  0.12700000000E+01 0.  1.
          4   -1    0    0  501    0  0.00000000000E+00 -0.00000000000E+00 -0.81987522887E+02  0.81997358550E+02  0.12700000000E+01 0.  1.
         25    2    1    2    0    0  0.00000000000E+00  0.00000000000E+00 -0.34366485403E+02  0.12963532777E+03  0.12499705151E+03 0.  0.
    9000005    1    3    3    0    0 -0.58452071869E+02  0.19277934722E+02 -0.59756583064E+01  0.61846519426E+02  0.10000000000E+01 0.  0.
    9000005    1    3    3    0    0  0.58452071869E+02 -0.19277934722E+02 -0.28390827097E+02  0.67788808340E+02  0.10000000000E+01 0.  0.
<mgrwt>
<rscale>  0 0.12499705E+03</rscale>
<asrwt>0</asrwt>
<pdfrwt beam="2">  1        4 0.12615524E-01 0.12499705E+03</pdfrwt>
<pdfrwt beam="1">  1       -4 0.73283725E-02 0.12499705E+03</pdfrwt>
<totfact> 0.10353004E+04</totfact>
</mgrwt>
</event>
<event>
 5    1  0.3257199E-002  0.1250060E+03  0.7818608E-02  0.1235060E+00
          4   -1    0    0  501    0  0.00000000000E+00  0.00000000000E+00  0.49952843131E+02  0.49968984749E+02  0.12700000000E+01 0.  1.
         -4   -1    0    0    0  501 -0.00000000000E+00 -0.00000000000E+00 -0.78172309405E+02  0.78182625038E+02  0.12700000000E+01 0.  1.
         25    2    1    2    0    0  0.00000000000E+00  0.00000000000E+00 -0.28219466274E+02  0.12815160979E+03  0.12500598711E+03 0.  0.
    9000005    1    3    3    0    0 -0.68071187443E+01  0.20397149755E+02 -0.74265480649E+02  0.77322326657E+02  0.10000000000E+01 0.  0.
    9000005    1    3    3    0    0  0.68071187443E+01 -0.20397149755E+02  0.46046014374E+02  0.50829283130E+02  0.10000000000E+01 0.  0.
<mgrwt>
<rscale>  0 0.12500599E+03</rscale>
<asrwt>0</asrwt>
<pdfrwt beam="1">  1        4 0.76870880E-02 0.12500599E+03</pdfrwt>
<pdfrwt beam="2">  1       -4 0.12028544E-01 0.12500599E+03</pdfrwt>
<totfact> 0.10382811E+04</totfact>
</mgrwt>
</event>
<event>
 5    1  0.3257199E-002  0.1249987E+03  0.7818608E-02  0.1235071E+00
         -4   -1    0    0    0  501 -0.00000000000E+00  0.00000000000E+00  0.83189402495E+01  0.84153233375E+01  0.12700000000E+01 0. -1.
          4   -1    0    0  501    0  0.00000000000E+00 -0.00000000000E+00 -0.46674941176E+03  0.46675113955E+03  0.12700000000E+01 0. -1.
         25    2    1    2    0    0  0.00000000000E+00  0.00000000000E+00 -0.45843047151E+03  0.47516646289E+03  0.12499868100E+03 0.  0.
    9000005    1    3    3    0    0  0.43288151098E+02 -0.64220554356E+01 -0.39879480060E+03  0.40118997970E+03  0.10000000000E+01 0.  0.
    9000005    1    3    3    0    0 -0.43288151098E+02  0.64220554356E+01 -0.59635670901E+02  0.73976483192E+02  0.10000000000E+01 0.  0.
<mgrwt>
<rscale>  0 0.12499868E+03</rscale>
<asrwt>0</asrwt>
<pdfrwt beam="2">  1        4 0.71815128E-01 0.12499868E+03</pdfrwt>
<pdfrwt beam="1">  1       -4 0.12873843E-02 0.12499868E+03</pdfrwt>
<totfact> 0.57845661E+03</totfact>
</mgrwt>
</event>
<event>
 5    1  0.3257199E-002  0.1249994E+03  0.7818608E-02  0.1235070E+00
         -4   -1    0    0    0  501 -0.00000000000E+00  0.00000000000E+00  0.23625782748E+02  0.23659892444E+02  0.12700000000E+01 0.  1.
          4   -1    0    0  501    0  0.00000000000E+00 -0.00000000000E+00 -0.16518108278E+03  0.16518596493E+03  0.12700000000E+01 0.  1.
         25    2    1    2    0    0  0.00000000000E+00  0.00000000000E+00 -0.14155530003E+03  0.18884585737E+03  0.12499941951E+03 0.  0.
    9000005    1    3    3    0    0  0.42982097190E+02 -0.45092581959E+02 -0.63313128497E+02  0.88827663859E+02  0.10000000000E+01 0.  0.
    9000005    1    3    3    0    0 -0.42982097190E+02  0.45092581959E+02 -0.78242171536E+02  0.10001819351E+03  0.10000000000E+01 0.  0.
<mgrwt>
<rscale>  0 0.12499942E+03</rscale>
<asrwt>0</asrwt>
<pdfrwt beam="2">  1        4 0.25415473E-01 0.12499942E+03</pdfrwt>
<pdfrwt beam="1">  1       -4 0.36377353E-02 0.12499942E+03</pdfrwt>
<totfact> 0.92049717E+03</totfact>
</mgrwt>
</event>
<event>
 5    1  0.3257199E-002  0.1249970E+03  0.7818608E-02  0.1235074E+00
          4   -1    0    0  501    0  0.00000000000E+00  0.00000000000E+00  0.36287891115E+02  0.36310107981E+02  0.12700000000E+01 0. -1.
         -4   -1    0    0    0  501 -0.00000000000E+00 -0.00000000000E+00 -0.10758204578E+03  0.10758954165E+03  0.12700000000E+01 0. -1.
         25    2    1    2    0    0  0.00000000000E+00  0.00000000000E+00 -0.71294154661E+02  0.14389964964E+03  0.12499701067E+03 0.  0.
    9000005    1    3    3    0    0  0.33330497236E+02  0.22254510446E+02 -0.90844406129E+02  0.99296985886E+02  0.10000000000E+01 0.  0.
    9000005    1    3    3    0    0 -0.33330497236E+02 -0.22254510446E+02  0.19550251468E+02  0.44602663750E+02  0.10000000000E+01 0.  0.
<mgrwt>
<rscale>  0 0.12499701E+03</rscale>
<asrwt>0</asrwt>
<pdfrwt beam="1">  1        4 0.55850381E-02 0.12499701E+03</pdfrwt>
<pdfrwt beam="2">  1       -4 0.16553369E-01 0.12499701E+03</pdfrwt>
<totfact> 0.10054070E+04</totfact>
</mgrwt>
</event>
<event>
 5    1  0.3257199E-002  0.1249993E+03  0.7818608E-02  0.1235070E+00
         -4   -1    0    0    0  501 -0.00000000000E+00  0.00000000000E+00  0.74379478751E+02  0.74390320333E+02  0.12700000000E+01 0.  1.
          4   -1    0    0  501    0  0.00000000000E+00 -0.00000000000E+00 -0.52494880458E+02  0.52510240661E+02  0.12700000000E+01 0.  1.
         25    2    1    2    0    0  0.00000000000E+00  0.00000000000E+00  0.21884598293E+02  0.12690056099E+03  0.12499926695E+03 0.  0.
    9000005    1    3    3    0    0  0.32887545208E+01  0.40520973827E+02  0.59124051494E+02  0.71759450188E+02  0.10000000000E+01 0.  0.
    9000005    1    3    3    0    0 -0.32887545208E+01 -0.40520973827E+02 -0.37239453201E+02  0.55141110806E+02  0.10000000000E+01 0.  0.
<mgrwt>
<rscale>  0 0.12499927E+03</rscale>
<asrwt>0</asrwt>
<pdfrwt beam="2">  1        4 0.80781510E-02 0.12499927E+03</pdfrwt>
<pdfrwt beam="1">  1       -4 0.11445012E-01 0.12499927E+03</pdfrwt>
<totfact> 0.10411479E+04</totfact>
</mgrwt>
</event>
<event>
 5    1  0.3257199E-002  0.1250008E+03  0.7818608E-02  0.1235068E+00
          4   -1    0    0  501    0  0.00000000000E+00  0.00000000000E+00  0.45377951059E+02  0.45395719427E+02  0.12700000000E+01 0.  1.
         -4   -1    0    0    0  501 -0.00000000000E+00 -0.00000000000E+00 -0.86044314293E+02  0.86053686278E+02  0.12700000000E+01 0.  1.
         25    2    1    2    0    0  0.00000000000E+00  0.00000000000E+00 -0.40666363233E+02  0.13144940571E+03  0.12500077264E+03 0.  0.
    9000005    1    3    3    0    0 -0.16792231727E+02  0.56599052940E+02  0.12145479479E+01  0.59058504610E+02  0.10000000000E+01 0.  0.
    9000005    1    3    3    0    0  0.16792231727E+02 -0.56599052940E+02 -0.41880911181E+02  0.72390901096E+02  0.10000000000E+01 0.  0.
<mgrwt>
<rscale>  0 0.12500077E+03</rscale>
<asrwt>0</asrwt>
<pdfrwt beam="1">  1        4 0.69833110E-02 0.12500077E+03</pdfrwt>
<pdfrwt beam="2">  1       -4 0.13239675E-01 0.12500077E+03</pdfrwt>
<totfact> 0.10313285E+04</totfact>
</mgrwt>
</event>
<event>
 5    1  0.3257199E-002  0.1249958E+03  0.7818608E-02  0.1235076E+00
          4   -1    0    0  501    0  0.00000000000E+00  0.00000000000E+00  0.23301487100E+02  0.23336070815E+02  0.12700000000E+01 0. -1.
         -4   -1    0    0    0  501 -0.00000000000E+00 -0.00000000000E+00 -0.16746690112E+03  0.16747171663E+03  0.12700000000E+01 0. -1.
         25    2    1    2    0    0  0.00000000000E+00  0.00000000000E+00 -0.14416541402E+03  0.19080778744E+03  0.12499578053E+03 0.  0.
    9000005    1    3    3    0    0  0.53914054373E+01  0.83996666385E+01  0.22084324848E+02  0.24255701519E+02  0.10000000000E+01 0.  0.
    9000005    1    3    3    0    0 -0.53914054373E+01 -0.83996666385E+01 -0.16624973887E+03  0.16655208592E+03  0.10000000000E+01 0.  0.
<mgrwt>
<rscale>  0 0.12499578E+03</rscale>
<asrwt>0</asrwt>
<pdfrwt beam="1">  1        4 0.35878750E-02 0.12499578E+03</pdfrwt>
<pdfrwt beam="2">  1       -4 0.25767169E-01 0.12499578E+03</pdfrwt>
<totfact> 0.91715620E+03</totfact>
</mgrwt>
</event>
<event>
 5    1  0.3257199E-002  0.1249931E+03  0.7818608E-02  0.1235080E+00
          4   -1    0    0  501    0  0.00000000000E+00  0.00000000000E+00  0.14172540401E+03  0.14173109412E+03  0.12700000000E+01 0. -1.
         -4   -1    0    0    0  501 -0.00000000000E+00 -0.00000000000E+00 -0.27538192282E+02  0.27567461511E+02  0.12700000000E+01 0. -1.
         25    2    1    2    0    0  0.00000000000E+00  0.00000000000E+00  0.11418721173E+03  0.16929855563E+03  0.12499312628E+03 0.  0.
    9000005    1    3    3    0    0  0.51750012812E+02 -0.13545993162E+02  0.10084218490E+03  0.11415648913E+03  0.10000000000E+01 0.  0.
    9000005    1    3    3    0    0 -0.51750012812E+02  0.13545993162E+02  0.13345026830E+02  0.55142066500E+02  0.10000000000E+01 0.  0.
<mgrwt>
<rscale>  0 0.12499313E+03</rscale>
<asrwt>0</asrwt>
<pdfrwt beam="1">  1        4 0.21806597E-01 0.12499313E+03</pdfrwt>
<pdfrwt beam="2">  1       -4 0.42393342E-02 0.12499313E+03</pdfrwt>
<totfact> 0.95594204E+03</totfact>
</mgrwt>
</event>
<event>
 5    1  0.3257199E-002  0.1250351E+03  0.7818608E-02  0.1235014E+00
          4   -1    0    0  501    0  0.00000000000E+00  0.00000000000E+00  0.85492444672E+02  0.85501877149E+02  0.12700000000E+01 0. -1.
         -4   -1    0    0    0  501 -0.00000000000E+00 -0.00000000000E+00 -0.45696079448E+02  0.45713724164E+02  0.12700000000E+01 0. -1.
         25    2    1    2    0    0  0.00000000000E+00  0.00000000000E+00  0.39796365225E+02  0.13121560131E+03  0.12503512844E+03 0.  0.
    9000005    1    3    3    0    0  0.39627854454E+02 -0.17431307954E+01 -0.30801778074E+02  0.50231015181E+02  0.10000000000E+01 0.  0.
    9000005    1    3    3    0    0 -0.39627854454E+02  0.17431307954E+01  0.70598143299E+02  0.80984586131E+02  0.10000000000E+01 0.  0.
<mgrwt>
<rscale>  0 0.12503513E+03</rscale>
<asrwt>0</asrwt>
<pdfrwt beam="1">  1        4 0.13154766E-01 0.12503513E+03</pdfrwt>
<pdfrwt beam="2">  1       -4 0.70322491E-02 0.12503513E+03</pdfrwt>
<totfact> 0.10310296E+04</totfact>
</mgrwt>
</event>
<event>
 5    1  0.3257199E-002  0.1250044E+03  0.7818608E-02  0.1235062E+00
          4   -1    0    0  501    0  0.00000000000E+00  0.00000000000E+00  0.18036990345E+03  0.18037437448E+03  0.12700000000E+01 0.  1.
         -4   -1    0    0    0  501 -0.00000000000E+00 -0.00000000000E+00 -0.21635037834E+02  0.21672280962E+02  0.12700000000E+01 0.  1.
         25    2    1    2    0    0  0.00000000000E+00  0.00000000000E+00  0.15873486561E+03  0.20204665544E+03  0.12500437358E+03 0.  0.
    9000005    1    3    3    0    0  0.32348909633E+02  0.23684369009E+02  0.18832594974E+01  0.40149071672E+02  0.10000000000E+01 0.  0.
    9000005    1    3    3    0    0 -0.32348909633E+02 -0.23684369009E+02  0.15685160612E+03  0.16189758377E+03  0.10000000000E+01 0.  0.
<mgrwt>
<rscale>  0 0.12500437E+03</rscale>
<asrwt>0</asrwt>
<pdfrwt beam="1">  1        4 0.27752426E-01 0.12500437E+03</pdfrwt>
<pdfrwt beam="2">  1       -4 0.33316760E-02 0.12500437E+03</pdfrwt>
<totfact> 0.89782679E+03</totfact>
</mgrwt>
</event>
<event>
 5    1  0.3257199E-002  0.1250025E+03  0.7818608E-02  0.1235065E+00
         -4   -1    0    0    0  501 -0.00000000000E+00  0.00000000000E+00  0.20762421742E+03  0.20762810156E+03  0.12700000000E+01 0. -1.
          4   -1    0    0  501    0  0.00000000000E+00 -0.00000000000E+00 -0.18789297131E+02  0.18832168932E+02  0.12700000000E+01 0. -1.
         25    2    1    2    0    0  0.00000000000E+00  0.00000000000E+00  0.18883492029E+03  0.22646027050E+03  0.12500250795E+03 0.  0.
    9000005    1    3    3    0    0 -0.32174105723E+01 -0.15439434193E+02  0.20396855129E+03  0.20457980784E+03  0.10000000000E+01 0.  0.
    9000005    1    3    3    0    0  0.32174105723E+01  0.15439434193E+02 -0.15133631001E+02  0.21880462661E+02  0.10000000000E+01 0.  0.
<mgrwt>
<rscale>  0 0.12500251E+03</rscale>
<asrwt>0</asrwt>
<pdfrwt beam="2">  1        4 0.28942576E-02 0.12500251E+03</pdfrwt>
<pdfrwt beam="1">  1       -4 0.31945785E-01 0.12500251E+03</pdfrwt>
<totfact> 0.85851299E+03</totfact>
</mgrwt>
</event>
<event>
 5    1  0.3257199E-002  0.1250006E+03  0.7818608E-02  0.1235068E+00
         -4   -1    0    0    0  501 -0.00000000000E+00  0.00000000000E+00  0.63356910704E+02  0.63369638108E+02  0.12700000000E+01 0.  1.
          4   -1    0    0  501    0  0.00000000000E+00 -0.00000000000E+00 -0.61629796321E+02  0.61642880324E+02  0.12700000000E+01 0.  1.
         25    2    1    2    0    0  0.00000000000E+00  0.00000000000E+00  0.17271143829E+01  0.12501251843E+03  0.12500058736E+03 0.  0.
    9000005    1    3    3    0    0 -0.24079905105E+02 -0.47930999129E+02 -0.31202943487E+02  0.62063243467E+02  0.10000000000E+01 0.  0.
    9000005    1    3    3    0    0  0.24079905105E+02  0.47930999129E+02  0.32930057870E+02  0.62949274965E+02  0.10000000000E+01 0.  0.
<mgrwt>
<rscale>  0 0.12500059E+03</rscale>
<asrwt>0</asrwt>
<pdfrwt beam="2">  1        4 0.94834927E-02 0.12500059E+03</pdfrwt>
<pdfrwt beam="1">  1       -4 0.97492025E-02 0.12500059E+03</pdfrwt>
<totfact> 0.10452452E+04</totfact>
</mgrwt>
</event>
<event>
 5    1  0.3257199E-002  0.1249998E+03  0.7818608E-02  0.1235070E+00
         -4   -1    0    0    0  501 -0.00000000000E+00  0.00000000000E+00  0.98368278511E+02  0.98376476443E+02  0.12700000000E+01 0.  1.
          4   -1    0    0  501    0  0.00000000000E+00 -0.00000000000E+00 -0.39690327482E+02  0.39710640836E+02  0.12700000000E+01 0.  1.
         25    2    1    2    0    0  0.00000000000E+00  0.00000000000E+00  0.58677951030E+02  0.13808711728E+03  0.12499980008E+03 0.  0.
    9000005    1    3    3    0    0 -0.40357033437E+02  0.47712927851E+02  0.29509662660E+02  0.69116089460E+02  0.10000000000E+01 0.  0.
    9000005    1    3    3    0    0  0.40357033437E+02 -0.47712927851E+02  0.29168288370E+02  0.68971027819E+02  0.10000000000E+01 0.  0.
<mgrwt>
<rscale>  0 0.12499980E+03</rscale>
<asrwt>0</asrwt>
<pdfrwt beam="2">  1        4 0.61083974E-02 0.12499980E+03</pdfrwt>
<pdfrwt beam="1">  1       -4 0.15135774E-01 0.12499980E+03</pdfrwt>
<totfact> 0.10173432E+04</totfact>
</mgrwt>
</event>
<event>
 5    1  0.3257199E-002  0.1249966E+03  0.7818608E-02  0.1235075E+00
          4   -1    0    0  501    0  0.00000000000E+00  0.00000000000E+00  0.18718459137E+03  0.18718889964E+03  0.12700000000E+01 0. -1.
         -4   -1    0    0    0  501 -0.00000000000E+00 -0.00000000000E+00 -0.20843411794E+02  0.20882066833E+02  0.12700000000E+01 0. -1.
         25    2    1    2    0    0  0.00000000000E+00  0.00000000000E+00  0.16634117958E+03  0.20807096647E+03  0.12499655621E+03 0.  0.
    9000005    1    3    3    0    0 -0.26241974283E+01  0.57036470552E+02  0.12544618382E+03  0.13783247230E+03  0.10000000000E+01 0.  0.
    9000005    1    3    3    0    0  0.26241974283E+01 -0.57036470552E+02  0.40894995757E+02  0.70238494169E+02  0.10000000000E+01 0.  0.
<mgrwt>
<rscale>  0 0.12499656E+03</rscale>
<asrwt>0</asrwt>
<pdfrwt beam="1">  1        4 0.28800933E-01 0.12499656E+03</pdfrwt>
<pdfrwt beam="2">  1       -4 0.32099838E-02 0.12499656E+03</pdfrwt>
<totfact> 0.88798728E+03</totfact>
</mgrwt>
</event>
<event>
 5    1  0.3257199E-002  0.1249672E+03  0.7818608E-02  0.1235121E+00
         -4   -1    0    0    0  501 -0.00000000000E+00  0.00000000000E+00  0.64661169032E+03  0.64661293752E+03  0.12700000000E+01 0. -1.
          4   -1    0    0  501    0  0.00000000000E+00 -0.00000000000E+00 -0.59698906886E+01  0.61034821892E+01  0.12700000000E+01 0. -1.
         25    2    1    2    0    0  0.00000000000E+00  0.00000000000E+00  0.64064179963E+03  0.65271641970E+03  0.12496723216E+03 0.  0.
    9000005    1    3    3    0    0 -0.49809451352E+02 -0.26580213711E+02  0.46005353909E+03  0.46350593096E+03  0.10000000000E+01 0.  0.
    9000005    1    3    3    0    0  0.49809451352E+02  0.26580213711E+02  0.18058826054E+03  0.18921048874E+03  0.10000000000E+01 0.  0.
<mgrwt>
<rscale>  0 0.12496723E+03</rscale>
<asrwt>0</asrwt>
<pdfrwt beam="2">  1        4 0.92881679E-03 0.12496723E+03</pdfrwt>
<pdfrwt beam="1">  1       -4 0.99489109E-01 0.12496723E+03</pdfrwt>
<totfact> 0.45733146E+03</totfact>
</mgrwt>
</event>
<event>
 5    1  0.3257199E-002  0.1249969E+03  0.7818608E-02  0.1235074E+00
         -4   -1    0    0    0  501 -0.00000000000E+00  0.00000000000E+00  0.19674873464E+02  0.19715819684E+02  0.12700000000E+01 0. -1.
          4   -1    0    0  501    0  0.00000000000E+00 -0.00000000000E+00 -0.19828095784E+03  0.19828502501E+03  0.12700000000E+01 0. -1.
         25    2    1    2    0    0  0.00000000000E+00  0.00000000000E+00 -0.17860608438E+03  0.21800084469E+03  0.12499693960E+03 0.  0.
    9000005    1    3    3    0    0 -0.42682696327E+02  0.25367888077E+02 -0.15547854880E+03  0.16321740547E+03  0.10000000000E+01 0.  0.
    9000005    1    3    3    0    0  0.42682696327E+02 -0.25367888077E+02 -0.23127535579E+02  0.54783439223E+02  0.10000000000E+01 0.  0.
<mgrwt>
<rscale>  0 0.12499694E+03</rscale>
<asrwt>0</asrwt>
<pdfrwt beam="2">  1        4 0.30508224E-01 0.12499694E+03</pdfrwt>
<pdfrwt beam="1">  1       -4 0.30303663E-02 0.12499694E+03</pdfrwt>
<totfact> 0.87191643E+03</totfact>
</mgrwt>
</event>
<event>
 5    1  0.3257199E-002  0.1250003E+03  0.7818608E-02  0.1235069E+00
         -4   -1    0    0    0  501 -0.00000000000E+00  0.00000000000E+00  0.47323382972E+03  0.47323553384E+03  0.12700000000E+01 0.  1.
          4   -1    0    0  501    0  0.00000000000E+00 -0.00000000000E+00 -0.82038360109E+01  0.83015555949E+01  0.12700000000E+01 0.  1.
         25    2    1    2    0    0  0.00000000000E+00  0.00000000000E+00  0.46502999370E+03  0.48153708943E+03  0.12500029382E+03 0.  0.
    9000005    1    3    3    0    0 -0.39921072115E+02 -0.47480120811E+02  0.26165380174E+03  0.26890847111E+03  0.10000000000E+01 0.  0.
    9000005    1    3    3    0    0  0.39921072115E+02  0.47480120811E+02  0.20337619196E+03  0.21262861832E+03  0.10000000000E+01 0.  0.
<mgrwt>
<rscale>  0 0.12500029E+03</rscale>
<asrwt>0</asrwt>
<pdfrwt beam="2">  1        4 0.12697761E-02 0.12500029E+03</pdfrwt>
<pdfrwt beam="1">  1       -4 0.72812878E-01 0.12500029E+03</pdfrwt>
<totfact> 0.57325481E+03</totfact>
</mgrwt>
</event>
<event>
 5    1  0.3257199E-002  0.1250024E+03  0.7818608E-02  0.1235066E+00
          4   -1    0    0  501    0  0.00000000000E+00  0.00000000000E+00  0.75874475555E+01  0.76930007414E+01  0.12700000000E+01 0. -1.
         -4   -1    0    0    0  501 -0.00000000000E+00 -0.00000000000E+00 -0.51118752703E+03  0.51118910463E+03  0.12700000000E+01 0. -1.
         25    2    1    2    0    0  0.00000000000E+00  0.00000000000E+00 -0.50360007947E+03  0.51888210537E+03  0.12500239688E+03 0.  0.
    9000005    1    3    3    0    0 -0.14687552518E+01  0.35871693211E+02 -0.46412827520E+03  0.46551583373E+03  0.10000000000E+01 0.  0.
    9000005    1    3    3    0    0  0.14687552518E+01 -0.35871693211E+02 -0.39471804275E+02  0.53366271638E+02  0.10000000000E+01 0.  0.
<mgrwt>
<rscale>  0 0.12500240E+03</rscale>
<asrwt>0</asrwt>
<pdfrwt beam="1">  1        4 0.11755409E-02 0.12500240E+03</pdfrwt>
<pdfrwt beam="2">  1       -4 0.78652449E-01 0.12500240E+03</pdfrwt>
<totfact> 0.54425687E+03</totfact>
</mgrwt>
</event>
<event>
 5    1  0.3257199E-002  0.1250032E+03  0.7818608E-02  0.1235064E+00
          4   -1    0    0  501    0  0.00000000000E+00  0.00000000000E+00  0.40925181398E+03  0.40925378452E+03  0.12700000000E+01 0.  1.
         -4   -1    0    0    0  501 -0.00000000000E+00 -0.00000000000E+00 -0.95011007267E+01  0.95856045724E+01  0.12700000000E+01 0.  1.
         25    2    1    2    0    0  0.00000000000E+00  0.00000000000E+00  0.39975071325E+03  0.41883938909E+03  0.12500320440E+03 0.  0.
    9000005    1    3    3    0    0  0.25656964763E+02  0.23480856750E+02  0.25906383097E+02  0.43379386346E+02  0.10000000000E+01 0.  0.
    9000005    1    3    3    0    0 -0.25656964763E+02 -0.23480856750E+02  0.37384433016E+03  0.37546000275E+03  0.10000000000E+01 0.  0.
<mgrwt>
<rscale>  0 0.12500320E+03</rscale>
<asrwt>0</asrwt>
<pdfrwt beam="1">  1        4 0.62968480E-01 0.12500320E+03</pdfrwt>
<pdfrwt beam="2">  1       -4 0.14683594E-02 0.12500320E+03</pdfrwt>
<totfact> 0.62756383E+03</totfact>
</mgrwt>
</event>
<event>
 5    1  0.3257199E-002  0.1250048E+03  0.7818608E-02  0.1235062E+00
         -4   -1    0    0    0  501 -0.00000000000E+00  0.00000000000E+00  0.24288637479E+02  0.24321817584E+02  0.12700000000E+01 0. -1.
          4   -1    0    0  501    0  0.00000000000E+00 -0.00000000000E+00 -0.16069314420E+03  0.16069816269E+03  0.12700000000E+01 0. -1.
         25    2    1    2    0    0  0.00000000000E+00  0.00000000000E+00 -0.13640450672E+03  0.18501998028E+03  0.12500481450E+03 0.  0.
    9000005    1    3    3    0    0  0.13087300897E+02  0.18981919787E+02 -0.15417521093E+03  0.15589286831E+03  0.10000000000E+01 0.  0.
    9000005    1    3    3    0    0 -0.13087300897E+02 -0.18981919787E+02  0.17770704210E+02  0.29127111970E+02  0.10000000000E+01 0.  0.
<mgrwt>
<rscale>  0 0.12500481E+03</rscale>
<asrwt>0</asrwt>
<pdfrwt beam="2">  1        4 0.24724960E-01 0.12500481E+03</pdfrwt>
<pdfrwt beam="1">  1       -4 0.37396519E-02 0.12500481E+03</pdfrwt>
<totfact> 0.92711112E+03</totfact>
</mgrwt>
</event>
<event>
 5    1  0.3257199E-002  0.1250008E+03  0.7818608E-02  0.1235068E+00
          4   -1    0    0  501    0  0.00000000000E+00  0.00000000000E+00  0.11474812815E+03  0.11475515594E+03  0.12700000000E+01 0.  1.
         -4   -1    0    0    0  501 -0.00000000000E+00 -0.00000000000E+00 -0.34022465905E+02  0.34046161109E+02  0.12700000000E+01 0.  1.
         25    2    1    2    0    0  0.00000000000E+00  0.00000000000E+00  0.80725662244E+02  0.14880131705E+03  0.12500079764E+03 0.  0.
    9000005    1    3    3    0    0 -0.28964539212E+02 -0.54912115805E+02  0.31860415437E+02  0.69788043860E+02  0.10000000000E+01 0.  0.
    9000005    1    3    3    0    0  0.28964539212E+02  0.54912115805E+02  0.48865246807E+02  0.79013273185E+02  0.10000000000E+01 0.  0.
<mgrwt>
<rscale>  0 0.12500080E+03</rscale>
<asrwt>0</asrwt>
<pdfrwt beam="1">  1        4 0.17655922E-01 0.12500080E+03</pdfrwt>
<pdfrwt beam="2">  1       -4 0.52365888E-02 0.12500080E+03</pdfrwt>
<totfact> 0.99541388E+03</totfact>
</mgrwt>
</event>
<event>
 5    1  0.3257199E-002  0.1249985E+03  0.7818608E-02  0.1235072E+00
          4   -1    0    0  501    0  0.00000000000E+00  0.00000000000E+00  0.24607797663E+02  0.24640548002E+02  0.12700000000E+01 0. -1.
         -4   -1    0    0    0  501 -0.00000000000E+00 -0.00000000000E+00 -0.15859564263E+03  0.15860072749E+03  0.12700000000E+01 0. -1.
         25    2    1    2    0    0  0.00000000000E+00  0.00000000000E+00 -0.13398784497E+03  0.18324127549E+03  0.12499848978E+03 0.  0.
    9000005    1    3    3    0    0  0.53205693712E+02 -0.23094046100E+02 -0.32897637770E+02  0.66689094907E+02  0.10000000000E+01 0.  0.
    9000005    1    3    3    0    0 -0.53205693712E+02  0.23094046100E+02 -0.10109020720E+03  0.11655218059E+03  0.10000000000E+01 0.  0.
<mgrwt>
<rscale>  0 0.12499849E+03</rscale>
<asrwt>0</asrwt>
<pdfrwt beam="1">  1        4 0.37887255E-02 0.12499849E+03</pdfrwt>
<pdfrwt beam="2">  1       -4 0.24402239E-01 0.12499849E+03</pdfrwt>
<totfact> 0.93039945E+03</totfact>
</mgrwt>
</event>
<event>
 5    1  0.3257199E-002  0.1249965E+03  0.7818608E-02  0.1235075E+00
          4   -1    0    0  501    0  0.00000000000E+00  0.00000000000E+00  0.20781899687E+02  0.20820668927E+02  0.12700000000E+01 0. -1.
         -4   -1    0    0    0  501 -0.00000000000E+00 -0.00000000000E+00 -0.18773748279E+03  0.18774177837E+03  0.12700000000E+01 0. -1.
         25    2    1    2    0    0  0.00000000000E+00  0.00000000000E+00 -0.16695558311E+03  0.20856244730E+03  0.12499651072E+03 0.  0.
    9000005    1    3    3    0    0  0.13910836544E+02 -0.58965585354E+02 -0.10903326829E+03  0.12473854747E+03  0.10000000000E+01 0.  0.
    9000005    1    3    3    0    0 -0.13910836544E+02  0.58965585354E+02 -0.57922314816E+02  0.83823899833E+02  0.10000000000E+01 0.  0.
<mgrwt>
<rscale>  0 0.12499651E+03</rscale>
<asrwt>0</asrwt>
<pdfrwt beam="1">  1        4 0.32005281E-02 0.12499651E+03</pdfrwt>
<pdfrwt beam="2">  1       -4 0.28886001E-01 0.12499651E+03</pdfrwt>
<totfact> 0.88718113E+03</totfact>
</mgrwt>
</event>
<event>
 5    1  0.3257199E-002  0.1249985E+03  0.7818608E-02  0.1235072E+00
          4   -1    0    0  501    0  0.00000000000E+00  0.00000000000E+00  0.25409850631E+02  0.25441568527E+02  0.12700000000E+01 0. -1.
         -4   -1    0    0    0  501 -0.00000000000E+00 -0.00000000000E+00 -0.15359585874E+03  0.15360110911E+03  0.12700000000E+01 0. -1.
         25    2    1    2    0    0  0.00000000000E+00  0.00000000000E+00 -0.12818600810E+03  0.17904267764E+03  0.12499851096E+03 0.  0.
    9000005    1    3    3    0    0  0.85064410643E+01 -0.22522742670E+02 -0.14669332458E+03  0.14865922425E+03  0.10000000000E+01 0.  0.
    9000005    1    3    3    0    0 -0.85064410643E+01  0.22522742670E+02  0.18507316476E+02  0.30383453394E+02  0.10000000000E+01 0.  0.
<mgrwt>
<rscale>  0 0.12499851E+03</rscale>
<asrwt>0</asrwt>
<pdfrwt beam="1">  1        4 0.39120516E-02 0.12499851E+03</pdfrwt>
<pdfrwt beam="2">  1       -4 0.23632975E-01 0.12499851E+03</pdfrwt>
<totfact> 0.93792741E+03</totfact>
</mgrwt>
</event>
<event>
 5    1  0.3257199E-002  0.1250032E+03  0.7818608E-02  0.1235064E+00
         -4   -1    0    0    0  501 -0.00000000000E+00  0.00000000000E+00  0.73648879604E+02  0.73659828719E+02  0.12700000000E+01 0.  1.
          4   -1    0    0  501    0  0.00000000000E+00 -0.00000000000E+00 -0.53019068667E+02  0.53034277051E+02  0.12700000000E+01 0.  1.
         25    2    1    2    0    0  0.00000000000E+00  0.00000000000E+00  0.20629810937E+02  0.12669410577E+03  0.12500322931E+03 0.  0.
    9000005    1    3    3    0    0  0.50448838687E+02  0.38944549165E+01  0.47487986955E+02  0.69400007269E+02  0.10000000000E+01 0.  0.
    9000005    1    3    3    0    0 -0.50448838687E+02 -0.38944549165E+01 -0.26858176018E+02  0.57294098501E+02  0.10000000000E+01 0.  0.
<mgrwt>
<rscale>  0 0.12500323E+03</rscale>
<asrwt>0</asrwt>
<pdfrwt beam="2">  1        4 0.81587920E-02 0.12500323E+03</pdfrwt>
<pdfrwt beam="1">  1       -4 0.11332609E-01 0.12500323E+03</pdfrwt>
<totfact> 0.10415039E+04</totfact>
</mgrwt>
</event>
<event>
 5    1  0.3257199E-002  0.1249977E+03  0.7818608E-02  0.1235073E+00
          4   -1    0    0  501    0  0.00000000000E+00  0.00000000000E+00  0.33995185113E+03  0.33995422337E+03  0.12700000000E+01 0. -1.
         -4   -1    0    0    0  501 -0.00000000000E+00 -0.00000000000E+00 -0.11452656463E+02  0.11522857287E+02  0.12700000000E+01 0. -1.
         25    2    1    2    0    0  0.00000000000E+00  0.00000000000E+00  0.32849919466E+03  0.35147708065E+03  0.12499766930E+03 0.  0.
    9000005    1    3    3    0    0  0.33908034206E+02  0.41403500226E+02  0.25497758108E+03  0.26053516359E+03  0.10000000000E+01 0.  0.
    9000005    1    3    3    0    0 -0.33908034206E+02 -0.41403500226E+02  0.73521613584E+02  0.90941917061E+02  0.10000000000E+01 0.  0.
<mgrwt>
<rscale>  0 0.12499767E+03</rscale>
<asrwt>0</asrwt>
<pdfrwt beam="1">  1        4 0.52305860E-01 0.12499767E+03</pdfrwt>
<pdfrwt beam="2">  1       -4 0.17675300E-02 0.12499767E+03</pdfrwt>
<totfact> 0.69565955E+03</totfact>
</mgrwt>
</event>
<event>
 5    1  0.3257199E-002  0.1250010E+03  0.7818608E-02  0.1235068E+00
          4   -1    0    0  501    0  0.00000000000E+00  0.00000000000E+00  0.85725272006E+01  0.86660903876E+01  0.12700000000E+01 0.  1.
         -4   -1    0    0    0  501 -0.00000000000E+00 -0.00000000000E+00 -0.45311006941E+03  0.45311184921E+03  0.12700000000E+01 0.  1.
         25    2    1    2    0    0  0.00000000000E+00  0.00000000000E+00 -0.44453754221E+03  0.46177793960E+03  0.12500095628E+03 0.  0.
    9000005    1    3    3    0    0 -0.34599842680E+02  0.50246307186E+02 -0.17223059042E+03  0.18271895571E+03  0.10000000000E+01 0.  0.
    9000005    1    3    3    0    0  0.34599842680E+02 -0.50246307186E+02 -0.27230695179E+03  0.27905898389E+03  0.10000000000E+01 0.  0.
<mgrwt>
<rscale>  0 0.12500096E+03</rscale>
<asrwt>0</asrwt>
<pdfrwt beam="1">  1        4 0.13261848E-02 0.12500096E+03</pdfrwt>
<pdfrwt beam="2">  1       -4 0.69716557E-01 0.12500096E+03</pdfrwt>
<totfact> 0.58955649E+03</totfact>
</mgrwt>
</event>
<event>
 5    1  0.3257199E-002  0.1250073E+03  0.7818608E-02  0.1235058E+00
          4   -1    0    0  501    0  0.00000000000E+00  0.00000000000E+00  0.12380514183E+02  0.12445482371E+02  0.12700000000E+01 0. -1.
         -4   -1    0    0    0  501 -0.00000000000E+00 -0.00000000000E+00 -0.31466089039E+03  0.31466345330E+03  0.12700000000E+01 0. -1.
         25    2    1    2    0    0  0.00000000000E+00  0.00000000000E+00 -0.30228037621E+03  0.32710893567E+03  0.12500731960E+03 0.  0.
    9000005    1    3    3    0    0 -0.41461585085E+02  0.24699500558E+02 -0.47240354874E+02  0.67540946797E+02  0.10000000000E+01 0.  0.
    9000005    1    3    3    0    0  0.41461585085E+02 -0.24699500558E+02 -0.25504002134E+03  0.25956798888E+03  0.10000000000E+01 0.  0.
<mgrwt>
<rscale>  0 0.12500732E+03</rscale>
<asrwt>0</asrwt>
<pdfrwt beam="1">  1        4 0.19098894E-02 0.12500732E+03</pdfrwt>
<pdfrwt beam="2">  1       -4 0.48414557E-01 0.12500732E+03</pdfrwt>
<totfact> 0.72306788E+03</totfact>
</mgrwt>
</event>
<event>
 5    1  0.3257199E-002  0.1249997E+03  0.7818608E-02  0.1235070E+00
         -4   -1    0    0    0  501 -0.00000000000E+00  0.00000000000E+00  0.10706364602E+02  0.10781425833E+02  0.12700000000E+01 0. -1.
          4   -1    0    0  501    0  0.00000000000E+00 -0.00000000000E+00 -0.36350086532E+03  0.36350308388E+03  0.12700000000E+01 0. -1.
         25    2    1    2    0    0  0.00000000000E+00  0.00000000000E+00 -0.35279450072E+03  0.37428450971E+03  0.12499973789E+03 0.  0.
    9000005    1    3    3    0    0 -0.48994935718E+02 -0.24764052389E+02 -0.26579910075E+03  0.27141098721E+03  0.10000000000E+01 0.  0.
    9000005    1    3    3    0    0  0.48994935718E+02  0.24764052389E+02 -0.86995399967E+02  0.10287352250E+03  0.10000000000E+01 0.  0.
<mgrwt>
<rscale>  0 0.12499974E+03</rscale>
<asrwt>0</asrwt>
<pdfrwt beam="2">  1        4 0.55929145E-01 0.12499974E+03</pdfrwt>
<pdfrwt beam="1">  1       -4 0.16530779E-02 0.12499974E+03</pdfrwt>
<totfact> 0.67133460E+03</totfact>
</mgrwt>
</event>
<event>
 5    1  0.3257199E-002  0.1249997E+03  0.7818608E-02  0.1235070E+00
          4   -1    0    0  501    0  0.00000000000E+00  0.00000000000E+00  0.81946129243E+01  0.82924411954E+01  0.12700000000E+01 0. -1.
         -4   -1    0    0    0  501 -0.00000000000E+00 -0.00000000000E+00 -0.47375592000E+03  0.47375762225E+03  0.12700000000E+01 0. -1.
         25    2    1    2    0    0  0.00000000000E+00  0.00000000000E+00 -0.46556130708E+03  0.48205006344E+03  0.12499973207E+03 0.  0.
    9000005    1    3    3    0    0  0.14500181986E+01  0.57356905642E+02 -0.32828546172E+03  0.33326305159E+03  0.10000000000E+01 0.  0.
    9000005    1    3    3    0    0 -0.14500181986E+01 -0.57356905642E+02 -0.13727584536E+03  0.14878701186E+03  0.10000000000E+01 0.  0.
<mgrwt>
<rscale>  0 0.12499973E+03</rscale>
<asrwt>0</asrwt>
<pdfrwt beam="1">  1        4 0.12683662E-02 0.12499973E+03</pdfrwt>
<pdfrwt beam="2">  1       -4 0.72893161E-01 0.12499973E+03</pdfrwt>
<totfact> 0.57284809E+03</totfact>
</mgrwt>
</event>
<event>
 5    1  0.3257199E-002  0.1249991E+03  0.7818608E-02  0.1235071E+00
          4   -1    0    0  501    0  0.00000000000E+00  0.00000000000E+00  0.87850706943E+03  0.87850798740E+03  0.12700000000E+01 0.  1.
         -4   -1    0    0    0  501 -0.00000000000E+00 -0.00000000000E+00 -0.43547728354E+01  0.45361819240E+01  0.12700000000E+01 0.  1.
         25    2    1    2    0    0  0.00000000000E+00  0.00000000000E+00  0.87415229659E+03  0.88304416933E+03  0.12499906939E+03 0.  0.
    9000005    1    3    3    0    0 -0.62665732372E+01  0.32807180620E+02  0.63957070657E+02  0.72160154707E+02  0.10000000000E+01 0.  0.
    9000005    1    3    3    0    0  0.62665732372E+01 -0.32807180620E+02  0.81019522594E+03  0.81088401462E+03  0.10000000000E+01 0.  0.
<mgrwt>
<rscale>  0 0.12499907E+03</rscale>
<asrwt>0</asrwt>
<pdfrwt beam="1">  1        4 0.13516883E+00 0.12499907E+03</pdfrwt>
<pdfrwt beam="2">  1       -4 0.68399085E-03 0.12499907E+03</pdfrwt>
<totfact> 0.34812667E+03</totfact>
</mgrwt>
</event>
<event>
 5    1  0.3257199E-002  0.1250024E+03  0.7818608E-02  0.1235066E+00
          4   -1    0    0  501    0  0.00000000000E+00  0.00000000000E+00  0.66084977946E+02  0.66097180047E+02  0.12700000000E+01 0.  1.
         -4   -1    0    0    0  501 -0.00000000000E+00 -0.00000000000E+00 -0.59087265763E+02  0.59100912644E+02  0.12700000000E+01 0.  1.
         25    2    1    2    0    0  0.00000000000E+00  0.00000000000E+00  0.69977121831E+01  0.12519809269E+03  0.12500237773E+03 0.  0.
    9000005    1    3    3    0    0 -0.56330692840E+02 -0.26244172870E+02  0.10104259186E+02  0.62968242942E+02  0.10000000000E+01 0.  0.
    9000005    1    3    3    0    0  0.56330692840E+02  0.26244172870E+02 -0.31065470026E+01  0.62229849749E+02  0.10000000000E+01 0.  0.
<mgrwt>
<rscale>  0 0.12500238E+03</rscale>
<asrwt>0</asrwt>
<pdfrwt beam="1">  1        4 0.10168908E-01 0.12500238E+03</pdfrwt>
<pdfrwt beam="2">  1       -4 0.90923369E-02 0.12500238E+03</pdfrwt>
<totfact> 0.10448000E+04</totfact>
</mgrwt>
</event>
<event>
 5    1  0.3257199E-002  0.1250036E+03  0.7818608E-02  0.1235064E+00
         -4   -1    0    0    0  501 -0.00000000000E+00  0.00000000000E+00  0.77212068561E+02  0.77222512466E+02  0.12700000000E+01 0.  1.
          4   -1    0    0  501    0  0.00000000000E+00 -0.00000000000E+00 -0.50572294743E+02  0.50588238708E+02  0.12700000000E+01 0.  1.
         25    2    1    2    0    0  0.00000000000E+00  0.00000000000E+00  0.26639773819E+02  0.12781075117E+03  0.12500364221E+03 0.  0.
    9000005    1    3    3    0    0 -0.17392635159E+02 -0.14389177787E+02 -0.46263308955E+02  0.51486366648E+02  0.10000000000E+01 0.  0.
    9000005    1    3    3    0    0  0.17392635159E+02  0.14389177787E+02  0.72903082774E+02  0.76324384525E+02  0.10000000000E+01 0.  0.
<mgrwt>
<rscale>  0 0.12500364E+03</rscale>
<asrwt>0</asrwt>
<pdfrwt beam="2">  1        4 0.77823830E-02 0.12500364E+03</pdfrwt>
<pdfrwt beam="1">  1       -4 0.11880809E-01 0.12500364E+03</pdfrwt>
<totfact> 0.10390722E+04</totfact>
</mgrwt>
</event>
<event>
 5    1  0.3257199E-002  0.1249981E+03  0.7818608E-02  0.1235072E+00
          4   -1    0    0  501    0  0.00000000000E+00  0.00000000000E+00  0.30409154060E+02  0.30435662481E+02  0.12700000000E+01 0.  1.
         -4   -1    0    0    0  501 -0.00000000000E+00 -0.00000000000E+00 -0.12836683291E+03  0.12837311514E+03  0.12700000000E+01 0.  1.
         25    2    1    2    0    0  0.00000000000E+00  0.00000000000E+00 -0.97957678849E+02  0.15880877762E+03  0.12499808400E+03 0.  0.
    9000005    1    3    3    0    0 -0.16309215796E+02  0.40591345344E+02 -0.10567574869E+03  0.11437662216E+03  0.10000000000E+01 0.  0.
    9000005    1    3    3    0    0  0.16309215796E+02 -0.40591345344E+02  0.77180698391E+01  0.44432155459E+02  0.10000000000E+01 0.  0.
<mgrwt>
<rscale>  0 0.12499808E+03</rscale>
<asrwt>0</asrwt>
<pdfrwt beam="1">  1        4 0.46808538E-02 0.12499808E+03</pdfrwt>
<pdfrwt beam="2">  1       -4 0.19751266E-01 0.12499808E+03</pdfrwt>
<totfact> 0.97577139E+03</totfact>
</mgrwt>
</event>
<event>
 5    1  0.3257199E-002  0.1250039E+03  0.7818608E-02  0.1235063E+00
         -4   -1    0    0    0  501 -0.00000000000E+00  0.00000000000E+00  0.41666251308E+03  0.41666444857E+03  0.12700000000E+01 0. -1.
          4   -1    0    0  501    0  0.00000000000E+00 -0.00000000000E+00 -0.93307094264E+01  0.94167424516E+01  0.12700000000E+01 0. -1.
         25    2    1    2    0    0  0.00000000000E+00  0.00000000000E+00  0.40733180365E+03  0.42608119102E+03  0.12500393225E+03 0.  0.
    9000005    1    3    3    0    0 -0.27067987786E+00  0.52699125537E+02  0.31815561942E+03  0.32249227784E+03  0.10000000000E+01 0.  0.
    9000005    1    3    3    0    0  0.27067987786E+00 -0.52699125537E+02  0.89176184233E+02  0.10358891318E+03  0.10000000000E+01 0.  0.
<mgrwt>
<rscale>  0 0.12500393E+03</rscale>
<asrwt>0</asrwt>
<pdfrwt beam="2">  1        4 0.14422605E-02 0.12500393E+03</pdfrwt>
<pdfrwt beam="1">  1       -4 0.64108694E-01 0.12500393E+03</pdfrwt>
<totfact> 0.62087434E+03</totfact>
</mgrwt>
</event>
<event>
 5    1  0.3257199E-002  0.1249929E+03  0.7818608E-02  0.1235080E+00
         -4   -1    0    0    0  501 -0.00000000000E+00  0.00000000000E+00  0.66601290656E+02  0.66613398180E+02  0.12700000000E+01 0. -1.
          4   -1    0    0  501    0  0.00000000000E+00 -0.00000000000E+00 -0.58620326088E+02  0.58634081648E+02  0.12700000000E+01 0. -1.
         25    2    1    2    0    0  0.00000000000E+00  0.00000000000E+00  0.79809645681E+01  0.12524747983E+03  0.12499294143E+03 0.  0.
    9000005    1    3    3    0    0  0.52922490477E+02  0.29716270783E+02  0.18885547406E+02  0.63572876672E+02  0.10000000000E+01 0.  0.
    9000005    1    3    3    0    0 -0.52922490477E+02 -0.29716270783E+02 -0.10904582838E+02  0.61674603155E+02  0.10000000000E+01 0.  0.
<mgrwt>
<rscale>  0 0.12499294E+03</rscale>
<asrwt>0</asrwt>
<pdfrwt beam="2">  1        4 0.90205011E-02 0.12499294E+03</pdfrwt>
<pdfrwt beam="1">  1       -4 0.10248342E-01 0.12499294E+03</pdfrwt>
<totfact> 0.10449156E+04</totfact>
</mgrwt>
</event>
<event>
 5    1  0.3257199E-002  0.1249998E+03  0.7818608E-02  0.1235070E+00
          4   -1    0    0  501    0  0.00000000000E+00  0.00000000000E+00  0.39366243219E+01  0.41364128242E+01  0.12700000000E+01 0. -1.
         -4   -1    0    0    0  501 -0.00000000000E+00 -0.00000000000E+00 -0.96752412625E+03  0.96752495977E+03  0.12700000000E+01 0. -1.
         25    2    1    2    0    0  0.00000000000E+00  0.00000000000E+00 -0.96358750192E+03  0.97166137259E+03  0.12499979647E+03 0.  0.
    9000005    1    3    3    0    0 -0.48748587251E+02 -0.35235308045E+02 -0.35004013245E+03  0.35517185420E+03  0.10000000000E+01 0.  0.
    9000005    1    3    3    0    0  0.48748587251E+02  0.35235308045E+02 -0.61354736947E+03  0.61648951839E+03  0.10000000000E+01 0.  0.
<mgrwt>
<rscale>  0 0.12499980E+03</rscale>
<asrwt>0</asrwt>
<pdfrwt beam="1">  1        4 0.62106775E-03 0.12499980E+03</pdfrwt>
<pdfrwt beam="2">  1       -4 0.14886511E+00 0.12499980E+03</pdfrwt>
<totfact> 0.31559357E+03</totfact>
</mgrwt>
</event>
<event>
 5    1  0.3257199E-002  0.1250063E+03  0.7818608E-02  0.1235059E+00
          4   -1    0    0  501    0  0.00000000000E+00  0.00000000000E+00  0.23451551188E+03  0.23451895065E+03  0.12700000000E+01 0.  1.
         -4   -1    0    0    0  501 -0.00000000000E+00 -0.00000000000E+00 -0.16630581564E+02  0.16679003062E+02  0.12700000000E+01 0.  1.
         25    2    1    2    0    0  0.00000000000E+00  0.00000000000E+00  0.21788493032E+03  0.25119795371E+03  0.12500627620E+03 0.  0.
    9000005    1    3    3    0    0  0.38738662934E+02  0.86229671975E+01  0.20595288899E+03  0.20974420624E+03  0.10000000000E+01 0.  0.
    9000005    1    3    3    0    0 -0.38738662934E+02 -0.86229671975E+01  0.11932041334E+02  0.41453747473E+02  0.10000000000E+01 0.  0.
<mgrwt>
<rscale>  0 0.12500628E+03</rscale>
<asrwt>0</asrwt>
<pdfrwt beam="1">  1        4 0.36083299E-01 0.12500628E+03</pdfrwt>
<pdfrwt beam="2">  1       -4 0.25625403E-02 0.12500628E+03</pdfrwt>
<totfact> 0.82145909E+03</totfact>
</mgrwt>
</event>
<event>
 5    1  0.3257199E-002  0.1249989E+03  0.7818608E-02  0.1235071E+00
          4   -1    0    0  501    0  0.00000000000E+00  0.00000000000E+00  0.89246062384E+03  0.89246152747E+03  0.12700000000E+01 0.  1.
         -4   -1    0    0    0  501 -0.00000000000E+00 -0.00000000000E+00 -0.42838134628E+01  0.44681044956E+01  0.12700000000E+01 0.  1.
         25    2    1    2    0    0  0.00000000000E+00  0.00000000000E+00  0.88817681038E+03  0.89692963196E+03  0.12499887278E+03 0.  0.
    9000005    1    3    3    0    0 -0.10711674684E+02  0.53912121114E+02  0.65742209091E+03  0.65971665311E+03  0.10000000000E+01 0.  0.
    9000005    1    3    3    0    0  0.10711674684E+02 -0.53912121114E+02  0.23075471947E+03  0.23721297885E+03  0.10000000000E+01 0.  0.
<mgrwt>
<rscale>  0 0.12499887E+03</rscale>
<asrwt>0</asrwt>
<pdfrwt beam="1">  1        4 0.13731590E+00 0.12499887E+03</pdfrwt>
<pdfrwt beam="2">  1       -4 0.67329386E-03 0.12499887E+03</pdfrwt>
<totfact> 0.34278594E+03</totfact>
</mgrwt>
</event>
<event>
 5    1  0.3257199E-002  0.1250022E+03  0.7818608E-02  0.1235066E+00
          4   -1    0    0  501    0  0.00000000000E+00  0.00000000000E+00  0.48230629382E+02  0.48247347187E+02  0.12700000000E+01 0.  1.
         -4   -1    0    0    0  501 -0.00000000000E+00 -0.00000000000E+00 -0.80958228834E+02  0.80968189531E+02  0.12700000000E+01 0.  1.
         25    2    1    2    0    0  0.00000000000E+00  0.00000000000E+00 -0.32727599451E+02  0.12921553672E+03  0.12500223663E+03 0.  0.
    9000005    1    3    3    0    0 -0.21210281539E+02 -0.58781455734E+02 -0.16884986074E+02  0.64739773987E+02  0.10000000000E+01 0.  0.
    9000005    1    3    3    0    0  0.21210281539E+02  0.58781455734E+02 -0.15842613378E+02  0.64475762731E+02  0.10000000000E+01 0.  0.
<mgrwt>
<rscale>  0 0.12500224E+03</rscale>
<asrwt>0</asrwt>
<pdfrwt beam="1">  1        4 0.74221490E-02 0.12500224E+03</pdfrwt>
<pdfrwt beam="2">  1       -4 0.12457164E-01 0.12500224E+03</pdfrwt>
<totfact> 0.10360794E+04</totfact>
</mgrwt>
</event>
<event>
 5    1  0.3257199E-002  0.1249898E+03  0.7818608E-02  0.1235085E+00
         -4   -1    0    0    0  501 -0.00000000000E+00  0.00000000000E+00  0.41367092901E+02  0.41386583274E+02  0.12700000000E+01 0. -1.
          4   -1    0    0  501    0  0.00000000000E+00 -0.00000000000E+00 -0.94367568586E+02  0.94376114037E+02  0.12700000000E+01 0. -1.
         25    2    1    2    0    0  0.00000000000E+00  0.00000000000E+00 -0.53000475684E+02  0.13576269731E+03  0.12498983782E+03 0.  0.
    9000005    1    3    3    0    0 -0.37312691232E+02 -0.48305504530E+02 -0.11969785925E+02  0.62208797367E+02  0.10000000000E+01 0.  0.
    9000005    1    3    3    0    0  0.37312691232E+02  0.48305504530E+02 -0.41030689760E+02  0.73553899944E+02  0.10000000000E+01 0.  0.
<mgrwt>
<rscale>  0 0.12498984E+03</rscale>
<asrwt>0</asrwt>
<pdfrwt beam="2">  1        4 0.14520244E-01 0.12498984E+03</pdfrwt>
<pdfrwt beam="1">  1       -4 0.63663248E-02 0.12498984E+03</pdfrwt>
<totfact> 0.10224363E+04</totfact>
</mgrwt>
</event>
<event>
 5    1  0.3257199E-002  0.1250046E+03  0.7818608E-02  0.1235062E+00
          4   -1    0    0  501    0  0.00000000000E+00  0.00000000000E+00  0.18592182857E+02  0.18635508134E+02  0.12700000000E+01 0. -1.
         -4   -1    0    0    0  501 -0.00000000000E+00 -0.00000000000E+00 -0.20982749336E+03  0.20983133672E+03  0.12700000000E+01 0. -1.
         25    2    1    2    0    0  0.00000000000E+00  0.00000000000E+00 -0.19123531050E+03  0.22846684485E+03  0.12500462077E+03 0.  0.
    9000005    1    3    3    0    0 -0.34712506147E+02  0.44303980506E+02 -0.45975777177E+02  0.72681310243E+02  0.10000000000E+01 0.  0.
    9000005    1    3    3    0    0  0.34712506147E+02 -0.44303980506E+02 -0.14525953332E+03  0.15578553461E+03  0.10000000000E+01 0.  0.
<mgrwt>
<rscale>  0 0.12500462E+03</rscale>
<asrwt>0</asrwt>
<pdfrwt beam="1">  1        4 0.28639643E-02 0.12500462E+03</pdfrwt>
<pdfrwt beam="2">  1       -4 0.32284780E-01 0.12500462E+03</pdfrwt>
<totfact> 0.85536752E+03</totfact>
</mgrwt>
</event>
<event>
 5    1  0.3257199E-002  0.1250028E+03  0.7818608E-02  0.1235065E+00
         -4   -1    0    0    0  501 -0.00000000000E+00  0.00000000000E+00  0.12167822310E+03  0.12168485064E+03  0.12700000000E+01 0.  1.
          4   -1    0    0  501    0  0.00000000000E+00 -0.00000000000E+00 -0.32084468335E+02  0.32109593711E+02  0.12700000000E+01 0.  1.
         25    2    1    2    0    0  0.00000000000E+00  0.00000000000E+00  0.89593754761E+02  0.15379444435E+03  0.12500276086E+03 0.  0.
    9000005    1    3    3    0    0  0.58348468191E+02  0.14312703793E+02  0.65965152717E+02  0.89228911252E+02  0.10000000000E+01 0.  0.
    9000005    1    3    3    0    0 -0.58348468191E+02 -0.14312703793E+02  0.23628602043E+02  0.64565533101E+02  0.10000000000E+01 0.  0.
<mgrwt>
<rscale>  0 0.12500276E+03</rscale>
<asrwt>0</asrwt>
<pdfrwt beam="2">  1        4 0.49385145E-02 0.12500276E+03</pdfrwt>
<pdfrwt beam="1">  1       -4 0.18722170E-01 0.12500276E+03</pdfrwt>
<totfact> 0.98546517E+03</totfact>
</mgrwt>
</event>
<event>
 5    1  0.3257199E-002  0.1250024E+03  0.7818608E-02  0.1235065E+00
         -4   -1    0    0    0  501 -0.00000000000E+00  0.00000000000E+00  0.43216557782E+03  0.43216744389E+03  0.12700000000E+01 0.  1.
          4   -1    0    0  501    0  0.00000000000E+00 -0.00000000000E+00 -0.89926282038E+01  0.90818644569E+01  0.12700000000E+01 0.  1.
         25    2    1    2    0    0  0.00000000000E+00  0.00000000000E+00  0.42317294962E+03  0.44124930834E+03  0.12500242727E+03 0.  0.
    9000005    1    3    3    0    0  0.36834446718E+02  0.73807236794E+01  0.38787615491E+03  0.38969239548E+03  0.10000000000E+01 0.  0.
    9000005    1    3    3    0    0 -0.36834446718E+02 -0.73807236794E+01  0.35296794704E+02  0.51556912858E+02  0.10000000000E+01 0.  0.
<mgrwt>
<rscale>  0 0.12500243E+03</rscale>
<asrwt>0</asrwt>
<pdfrwt beam="2">  1        4 0.13904890E-02 0.12500243E+03</pdfrwt>
<pdfrwt beam="1">  1       -4 0.66494027E-01 0.12500243E+03</pdfrwt>
<totfact> 0.60726125E+03</totfact>
</mgrwt>
</event>
<event>
 5    1  0.3257199E-002  0.1250011E+03  0.7818608E-02  0.1235068E+00
          4   -1    0    0  501    0  0.00000000000E+00  0.00000000000E+00  0.18344257164E+01  0.22311471733E+01  0.12700000000E+01 0.  1.
         -4   -1    0    0    0  501 -0.00000000000E+00 -0.00000000000E+00 -0.19212612539E+04  0.19212616737E+04  0.12700000000E+01 0.  1.
         25    2    1    2    0    0  0.00000000000E+00  0.00000000000E+00 -0.19194268282E+04  0.19234928209E+04  0.12500113203E+03 0.  0.
    9000005    1    3    3    0    0  0.44284753203E+02 -0.39794236677E+02 -0.12519196992E+04  0.12533350127E+04  0.10000000000E+01 0.  0.
    9000005    1    3    3    0    0 -0.44284753203E+02  0.39794236677E+02 -0.66750712898E+03  0.67015780819E+03  0.10000000000E+01 0.  0.
<mgrwt>
<rscale>  0 0.12500113E+03</rscale>
<asrwt>0</asrwt>
<pdfrwt beam="1">  1        4 0.31277020E-03 0.12500113E+03</pdfrwt>
<pdfrwt beam="2">  1       -4 0.29560775E+00 0.12500113E+03</pdfrwt>
<totfact> 0.10892916E+03</totfact>
</mgrwt>
</event>
<event>
 5    1  0.3257199E-002  0.1250000E+03  0.7818608E-02  0.1235069E+00
         -4   -1    0    0    0  501 -0.00000000000E+00  0.00000000000E+00  0.85078742025E+02  0.85088220363E+02  0.12700000000E+01 0.  1.
          4   -1    0    0  501    0  0.00000000000E+00 -0.00000000000E+00 -0.45892545718E+02  0.45910114926E+02  0.12700000000E+01 0.  1.
         25    2    1    2    0    0  0.00000000000E+00  0.00000000000E+00  0.39186196306E+02  0.13099833529E+03  0.12500002347E+03 0.  0.
    9000005    1    3    3    0    0  0.16545143817E+02  0.46092661721E+02  0.60275715102E+02  0.77668765147E+02  0.10000000000E+01 0.  0.
    9000005    1    3    3    0    0 -0.16545143817E+02 -0.46092661721E+02 -0.21089518795E+02  0.53329570142E+02  0.10000000000E+01 0.  0.
<mgrwt>
<rscale>  0 0.12500002E+03</rscale>
<asrwt>0</asrwt>
<pdfrwt beam="2">  1        4 0.70624723E-02 0.12500002E+03</pdfrwt>
<pdfrwt beam="1">  1       -4 0.13091118E-01 0.12500002E+03</pdfrwt>
<totfact> 0.10323120E+04</totfact>
</mgrwt>
</event>
<event>
 5    1  0.3257199E-002  0.1249949E+03  0.7818608E-02  0.1235077E+00
          4   -1    0    0  501    0  0.00000000000E+00  0.00000000000E+00  0.11066321090E+03  0.11067049809E+03  0.12700000000E+01 0. -1.
         -4   -1    0    0    0  501 -0.00000000000E+00 -0.00000000000E+00 -0.35275804893E+02  0.35298658768E+02  0.12700000000E+01 0. -1.
         25    2    1    2    0    0  0.00000000000E+00  0.00000000000E+00  0.75387406008E+02  0.14596915686E+03  0.12499493497E+03 0.  0.
    9000005    1    3    3    0    0 -0.27912289940E+02  0.12844570215E+02 -0.25850687681E+02  0.40166366120E+02  0.10000000000E+01 0.  0.
    9000005    1    3    3    0    0  0.27912289940E+02 -0.12844570215E+02  0.10123809369E+03  0.10580279074E+03  0.10000000000E+01 0.  0.
<mgrwt>
<rscale>  0 0.12499493E+03</rscale>
<asrwt>0</asrwt>
<pdfrwt beam="1">  1        4 0.17027428E-01 0.12499493E+03</pdfrwt>
<pdfrwt beam="2">  1       -4 0.54293654E-02 0.12499493E+03</pdfrwt>
<totfact> 0.10012476E+04</totfact>
</mgrwt>
</event>
<event>
 5    1  0.3257199E-002  0.1250008E+03  0.7818608E-02  0.1235068E+00
         -4   -1    0    0    0  501 -0.00000000000E+00  0.00000000000E+00  0.28618965883E+02  0.28647130890E+02  0.12700000000E+01 0.  1.
          4   -1    0    0  501    0  0.00000000000E+00 -0.00000000000E+00 -0.13639520720E+03  0.13640111967E+03  0.12700000000E+01 0.  1.
         25    2    1    2    0    0  0.00000000000E+00  0.00000000000E+00 -0.10777624132E+03  0.16504825056E+03  0.12500082728E+03 0.  0.
    9000005    1    3    3    0    0  0.40634759734E+02  0.24046202180E+02 -0.10794137560E+03  0.11782081354E+03  0.10000000000E+01 0.  0.
    9000005    1    3    3    0    0 -0.40634759734E+02 -0.24046202180E+02  0.16513428106E+00  0.47227437017E+02  0.10000000000E+01 0.  0.
<mgrwt>
<rscale>  0 0.12500083E+03</rscale>
<asrwt>0</asrwt>
<pdfrwt beam="2">  1        4 0.20986499E-01 0.12500083E+03</pdfrwt>
<pdfrwt beam="1">  1       -4 0.44055393E-02 0.12500083E+03</pdfrwt>
<totfact> 0.96376464E+03</totfact>
</mgrwt>
</event>
<event>
 5    1  0.3257199E-002  0.1250054E+03  0.7818608E-02  0.1235061E+00
          4   -1    0    0  501    0  0.00000000000E+00  0.00000000000E+00  0.54197256374E+03  0.54197405173E+03  0.12700000000E+01 0.  1.
         -4   -1    0    0    0  501 -0.00000000000E+00 -0.00000000000E+00 -0.71506396095E+01  0.72625441014E+01  0.12700000000E+01 0.  1.
         25    2    1    2    0    0  0.00000000000E+00  0.00000000000E+00  0.53482192413E+03  0.54923659583E+03  0.12500539056E+03 0.  0.
    9000005    1    3    3    0    0 -0.30214731228E+02 -0.17724634116E+02  0.40018487948E+02  0.53193721579E+02  0.10000000000E+01 0.  0.
    9000005    1    3    3    0    0  0.30214731228E+02  0.17724634116E+02  0.49480343618E+03  0.49604287425E+03  0.10000000000E+01 0.  0.
<mgrwt>
<rscale>  0 0.12500539E+03</rscale>
<asrwt>0</asrwt>
<pdfrwt beam="1">  1        4 0.83389129E-01 0.12500539E+03</pdfrwt>
<pdfrwt beam="2">  1       -4 0.11088207E-02 0.12500539E+03</pdfrwt>
<totfact> 0.52230992E+03</totfact>
</mgrwt>
</event>
<event>
 5    1  0.3257199E-002  0.1250044E+03  0.7818608E-02  0.1235062E+00
         -4   -1    0    0    0  501 -0.00000000000E+00  0.00000000000E+00  0.45307758885E+02  0.45325554770E+02  0.12700000000E+01 0.  1.
          4   -1    0    0  501    0  0.00000000000E+00 -0.00000000000E+00 -0.86182611652E+02  0.86191968600E+02  0.12700000000E+01 0.  1.
         25    2    1    2    0    0  0.00000000000E+00  0.00000000000E+00 -0.40874852766E+02  0.13151752337E+03  0.12500442138E+03 0.  0.
    9000005    1    3    3    0    0 -0.60720834457E+02  0.12771182991E+02 -0.12606253617E+02  0.63324880438E+02  0.10000000000E+01 0.  0.
    9000005    1    3    3    0    0  0.60720834457E+02 -0.12771182991E+02 -0.28268599149E+02  0.68192642932E+02  0.10000000000E+01 0.  0.
<mgrwt>
<rscale>  0 0.12500442E+03</rscale>
<asrwt>0</asrwt>
<pdfrwt beam="2">  1        4 0.13260952E-01 0.12500442E+03</pdfrwt>
<pdfrwt beam="1">  1       -4 0.69725131E-02 0.12500442E+03</pdfrwt>
<totfact> 0.10310979E+04</totfact>
</mgrwt>
</event>
<event>
 5    1  0.3257199E-002  0.1250015E+03  0.7818608E-02  0.1235067E+00
          4   -1    0    0  501    0  0.00000000000E+00  0.00000000000E+00  0.22800839755E+02  0.22836181676E+02  0.12700000000E+01 0.  1.
         -4   -1    0    0    0  501 -0.00000000000E+00 -0.00000000000E+00 -0.17115406270E+03  0.17115877447E+03  0.12700000000E+01 0.  1.
         25    2    1    2    0    0  0.00000000000E+00  0.00000000000E+00 -0.14835322295E+03  0.19399495615E+03  0.12500145700E+03 0.  0.
    9000005    1    3    3    0    0 -0.18644754777E+02 -0.52130103224E+02 -0.11916060925E+03  0.13139796551E+03  0.10000000000E+01 0.  0.
    9000005    1    3    3    0    0  0.18644754777E+02  0.52130103224E+02 -0.29192613696E+02  0.62596990640E+02  0.10000000000E+01 0.  0.
<mgrwt>
<rscale>  0 0.12500146E+03</rscale>
<asrwt>0</asrwt>
<pdfrwt beam="1">  1        4 0.35109027E-02 0.12500146E+03</pdfrwt>
<pdfrwt beam="2">  1       -4 0.26334475E-01 0.12500146E+03</pdfrwt>
<totfact> 0.91153841E+03</totfact>
</mgrwt>
</event>
<event>
 5    1  0.3257199E-002  0.1250065E+03  0.7818608E-02  0.1235059E+00
         -4   -1    0    0    0  501 -0.00000000000E+00  0.00000000000E+00  0.29762338213E+02  0.29789422215E+02  0.12700000000E+01 0.  1.
          4   -1    0    0  501    0  0.00000000000E+00 -0.00000000000E+00 -0.13117191289E+03  0.13117806078E+03  0.12700000000E+01 0.  1.
         25    2    1    2    0    0  0.00000000000E+00  0.00000000000E+00 -0.10140957467E+03  0.16096748300E+03  0.12500651482E+03 0.  0.
    9000005    1    3    3    0    0  0.51124940685E+01  0.39052807602E+02 -0.11318542144E+03  0.11984656442E+03  0.10000000000E+01 0.  0.
    9000005    1    3    3    0    0 -0.51124940685E+01 -0.39052807602E+02  0.11775846767E+02  0.41120918573E+02  0.10000000000E+01 0.  0.
<mgrwt>
<rscale>  0 0.12500651E+03</rscale>
<asrwt>0</asrwt>
<pdfrwt beam="2">  1        4 0.20182850E-01 0.12500651E+03</pdfrwt>
<pdfrwt beam="1">  1       -4 0.45813777E-02 0.12500651E+03</pdfrwt>
<totfact> 0.97142362E+03</totfact>
</mgrwt>
</event>
<event>
 5    1  0.3257199E-002  0.1249911E+03  0.7818608E-02  0.1235083E+00
         -4   -1    0    0    0  501 -0.00000000000E+00  0.00000000000E+00  0.42278568995E+02  0.42297639370E+02  0.12700000000E+01 0.  1.
          4   -1    0    0  501    0  0.00000000000E+00 -0.00000000000E+00 -0.92335665713E+02  0.92344399195E+02  0.12700000000E+01 0.  1.
         25    2    1    2    0    0  0.00000000000E+00  0.00000000000E+00 -0.50057096718E+02  0.13464203857E+03  0.12499106215E+03 0.  0.
    9000005    1    3    3    0    0  0.21545618536E+02 -0.29849266025E+02  0.29362715027E+02  0.47099484011E+02  0.10000000000E+01 0.  0.
    9000005    1    3    3    0    0 -0.21545618536E+02  0.29849266025E+02 -0.79419811745E+02  0.87542554555E+02  0.10000000000E+01 0.  0.
<mgrwt>
<rscale>  0 0.12499106E+03</rscale>
<asrwt>0</asrwt>
<pdfrwt beam="2">  1        4 0.14207626E-01 0.12499106E+03</pdfrwt>
<pdfrwt beam="1">  1       -4 0.65065340E-02 0.12499106E+03</pdfrwt>
<totfact> 0.10247687E+04</totfact>
</mgrwt>
</event>
<event>
 5    1  0.3257199E-002  0.1250004E+03  0.7818608E-02  0.1235069E+00
         -4   -1    0    0    0  501 -0.00000000000E+00  0.00000000000E+00  0.17910847425E+03  0.17911297677E+03  0.12700000000E+01 0.  1.
          4   -1    0    0  501    0  0.00000000000E+00 -0.00000000000E+00 -0.21786274949E+02  0.21823259980E+02  0.12700000000E+01 0.  1.
         25    2    1    2    0    0  0.00000000000E+00  0.00000000000E+00  0.15732219930E+03  0.20093623675E+03  0.12500038739E+03 0.  0.
    9000005    1    3    3    0    0 -0.58168918629E+02  0.18756912571E+02  0.99609616312E+02  0.11686967325E+03  0.10000000000E+01 0.  0.
    9000005    1    3    3    0    0  0.58168918629E+02 -0.18756912571E+02  0.57712582989E+02  0.84066563501E+02  0.10000000000E+01 0.  0.
<mgrwt>
<rscale>  0 0.12500039E+03</rscale>
<asrwt>0</asrwt>
<pdfrwt beam="2">  1        4 0.33549261E-02 0.12500039E+03</pdfrwt>
<pdfrwt beam="1">  1       -4 0.27558340E-01 0.12500039E+03</pdfrwt>
<totfact> 0.89977063E+03</totfact>
</mgrwt>
</event>
<event>
 5    1  0.3257199E-002  0.1249998E+03  0.7818608E-02  0.1235070E+00
         -4   -1    0    0    0  501 -0.00000000000E+00  0.00000000000E+00  0.15027932591E+02  0.15081500520E+02  0.12700000000E+01 0.  1.
          4   -1    0    0  501    0  0.00000000000E+00 -0.00000000000E+00 -0.25941410187E+03  0.25941721059E+03  0.12700000000E+01 0.  1.
         25    2    1    2    0    0  0.00000000000E+00  0.00000000000E+00 -0.24438616928E+03  0.27449871111E+03  0.12499977066E+03 0.  0.
    9000005    1    3    3    0    0 -0.36808811671E+02 -0.49019747130E+02 -0.14885532806E+03  0.16098674764E+03  0.10000000000E+01 0.  0.
    9000005    1    3    3    0    0  0.36808811671E+02  0.49019747130E+02 -0.95530841224E+02  0.11351196347E+03  0.10000000000E+01 0.  0.
<mgrwt>
<rscale>  0 0.12499977E+03</rscale>
<asrwt>0</asrwt>
<pdfrwt beam="2">  1        4 0.39914218E-01 0.12499977E+03</pdfrwt>
<pdfrwt beam="1">  1       -4 0.23163496E-02 0.12499977E+03</pdfrwt>
<totfact> 0.78913640E+03</totfact>
</mgrwt>
</event>
<event>
 5    1  0.3257199E-002  0.1250030E+03  0.7818608E-02  0.1235065E+00
          4   -1    0    0  501    0  0.00000000000E+00  0.00000000000E+00  0.15478958440E+02  0.15530970813E+02  0.12700000000E+01 0.  1.
         -4   -1    0    0    0  501 -0.00000000000E+00 -0.00000000000E+00 -0.25189384688E+03  0.25189704840E+03  0.12700000000E+01 0.  1.
         25    2    1    2    0    0  0.00000000000E+00  0.00000000000E+00 -0.23641488844E+03  0.26742801922E+03  0.12500298392E+03 0.  0.
    9000005    1    3    3    0    0 -0.23239196816E+02 -0.55014173512E+02 -0.78828045000E+02  0.98901366191E+02  0.10000000000E+01 0.  0.
    9000005    1    3    3    0    0  0.23239196816E+02  0.55014173512E+02 -0.15758684344E+03  0.16852665303E+03  0.10000000000E+01 0.  0.
<mgrwt>
<rscale>  0 0.12500298E+03</rscale>
<asrwt>0</asrwt>
<pdfrwt beam="1">  1        4 0.23856256E-02 0.12500298E+03</pdfrwt>
<pdfrwt beam="2">  1       -4 0.38757144E-01 0.12500298E+03</pdfrwt>
<totfact> 0.79869513E+03</totfact>
</mgrwt>
</event>
<event>
 5    1  0.3257199E-002  0.1249989E+03  0.7818608E-02  0.1235071E+00
          4   -1    0    0  501    0  0.00000000000E+00  0.00000000000E+00  0.13618369380E+02  0.13677458995E+02  0.12700000000E+01 0.  1.
         -4   -1    0    0    0  501 -0.00000000000E+00 -0.00000000000E+00 -0.28615026218E+03  0.28615308044E+03  0.12700000000E+01 0.  1.
         25    2    1    2    0    0  0.00000000000E+00  0.00000000000E+00 -0.27253189280E+03  0.29983053943E+03  0.12499887914E+03 0.  0.
    9000005    1    3    3    0    0  0.43416648346E+02  0.44754469861E+02 -0.12631451229E+03  0.14086988302E+03  0.10000000000E+01 0.  0.
    9000005    1    3    3    0    0 -0.43416648346E+02 -0.44754469861E+02 -0.14621738050E+03  0.15896065641E+03  0.10000000000E+01 0.  0.
<mgrwt>
<rscale>  0 0.12499888E+03</rscale>
<asrwt>0</asrwt>
<pdfrwt beam="1">  1        4 0.20998961E-02 0.12499888E+03</pdfrwt>
<pdfrwt beam="2">  1       -4 0.44027875E-01 0.12499888E+03</pdfrwt>
<totfact> 0.75621984E+03</totfact>
</mgrwt>
</event>
<event>
 5    1  0.3257199E-002  0.1249934E+03  0.7818608E-02  0.1235080E+00
         -4   -1    0    0    0  501 -0.00000000000E+00  0.00000000000E+00  0.73424360133E+01  0.74514607031E+01  0.12700000000E+01 0. -1.
          4   -1    0    0  501    0  0.00000000000E+00 -0.00000000000E+00 -0.52792393865E+03  0.52792546624E+03  0.12700000000E+01 0. -1.
         25    2    1    2    0    0  0.00000000000E+00  0.00000000000E+00 -0.52058150264E+03  0.53537692694E+03  0.12499341187E+03 0.  0.
    9000005    1    3    3    0    0  0.42930033234E+02  0.34294387780E+02 -0.13281517133E+03  0.14373573850E+03  0.10000000000E+01 0.  0.
    9000005    1    3    3    0    0 -0.42930033234E+02 -0.34294387780E+02 -0.38776633131E+03  0.39164118844E+03  0.10000000000E+01 0.  0.
<mgrwt>
<rscale>  0 0.12499341E+03</rscale>
<asrwt>0</asrwt>
<pdfrwt beam="2">  1        4 0.81227542E-01 0.12499341E+03</pdfrwt>
<pdfrwt beam="1">  1       -4 0.11381100E-02 0.12499341E+03</pdfrwt>
<totfact> 0.53228075E+03</totfact>
</mgrwt>
</event>
<event>
 5    1  0.3257199E-002  0.1250027E+03  0.7818608E-02  0.1235065E+00
          4   -1    0    0  501    0  0.00000000000E+00  0.00000000000E+00  0.39342142790E+02  0.39362635828E+02  0.12700000000E+01 0.  1.
         -4   -1    0    0    0  501 -0.00000000000E+00 -0.00000000000E+00 -0.99243103264E+02  0.99251228937E+02  0.12700000000E+01 0.  1.
         25    2    1    2    0    0  0.00000000000E+00  0.00000000000E+00 -0.59900960474E+02  0.13861386476E+03  0.12500271373E+03 0.  0.
    9000005    1    3    3    0    0 -0.59719396759E+02 -0.12406002818E+02 -0.45037225206E+02  0.75826558075E+02  0.10000000000E+01 0.  0.
    9000005    1    3    3    0    0  0.59719396759E+02  0.12406002818E+02 -0.14863735268E+02  0.62787306690E+02  0.10000000000E+01 0.  0.
<mgrwt>
<rscale>  0 0.12500271E+03</rscale>
<asrwt>0</asrwt>
<pdfrwt beam="1">  1        4 0.60548388E-02 0.12500271E+03</pdfrwt>
<pdfrwt beam="2">  1       -4 0.15270371E-01 0.12500271E+03</pdfrwt>
<totfact> 0.10161774E+04</totfact>
</mgrwt>
</event>
<event>
 5    1  0.3257199E-002  0.1250027E+03  0.7818608E-02  0.1235065E+00
          4   -1    0    0  501    0  0.00000000000E+00  0.00000000000E+00  0.46150719553E+02  0.46168190514E+02  0.12700000000E+01 0.  1.
         -4   -1    0    0    0  501 -0.00000000000E+00 -0.00000000000E+00 -0.84606556619E+02  0.84616087849E+02  0.12700000000E+01 0.  1.
         25    2    1    2    0    0  0.00000000000E+00  0.00000000000E+00 -0.38455837065E+02  0.13078427836E+03  0.12500270422E+03 0.  0.
    9000005    1    3    3    0    0 -0.17424017696E+02  0.16674001168E+02  0.41091006601E+02  0.47655949588E+02  0.10000000000E+01 0.  0.
    9000005    1    3    3    0    0  0.17424017696E+02 -0.16674001168E+02 -0.79546843666E+02  0.83128328775E+02  0.10000000000E+01 0.  0.
<mgrwt>
<rscale>  0 0.12500270E+03</rscale>
<asrwt>0</asrwt>
<pdfrwt beam="1">  1        4 0.71021878E-02 0.12500270E+03</pdfrwt>
<pdfrwt beam="2">  1       -4 0.13018470E-01 0.12500270E+03</pdfrwt>
<totfact> 0.10327086E+04</totfact>
</mgrwt>
</event>
<event>
 5    1  0.3257199E-002  0.1249963E+03  0.7818608E-02  0.1235075E+00
          4   -1    0    0  501    0  0.00000000000E+00  0.00000000000E+00  0.35638548481E+03  0.35638774766E+03  0.12700000000E+01 0. -1.
         -4   -1    0    0    0  501 -0.00000000000E+00 -0.00000000000E+00 -0.10920999506E+02  0.10994595500E+02  0.12700000000E+01 0. -1.
         25    2    1    2    0    0  0.00000000000E+00  0.00000000000E+00  0.34546448530E+03  0.36738234316E+03  0.12499630179E+03 0.  0.
    9000005    1    3    3    0    0 -0.16920717100E+02 -0.59831228785E+02  0.15439323109E+03  0.16644625683E+03  0.10000000000E+01 0.  0.
    9000005    1    3    3    0    0  0.16920717100E+02  0.59831228785E+02  0.19107125421E+03  0.20093608633E+03  0.10000000000E+01 0.  0.
<mgrwt>
<rscale>  0 0.12499630E+03</rscale>
<asrwt>0</asrwt>
<pdfrwt beam="1">  1        4 0.54834372E-01 0.12499630E+03</pdfrwt>
<pdfrwt beam="2">  1       -4 0.16859890E-02 0.12499630E+03</pdfrwt>
<totfact> 0.67859231E+03</totfact>
</mgrwt>
</event>
<event>
 5    1  0.3257199E-002  0.1250256E+03  0.7818608E-02  0.1235029E+00
          4   -1    0    0  501    0  0.00000000000E+00  0.00000000000E+00  0.11312498979E+03  0.11313211841E+03  0.12700000000E+01 0.  1.
         -4   -1    0    0    0  501 -0.00000000000E+00 -0.00000000000E+00 -0.34524664759E+02  0.34548015525E+02  0.12700000000E+01 0.  1.
         25    2    1    2    0    0  0.00000000000E+00  0.00000000000E+00  0.78600325031E+02  0.14768013393E+03  0.12502564082E+03 0.  0.
    9000005    1    3    3    0    0  0.49327067942E+02 -0.37896703893E+02  0.46536672295E+02  0.77691580406E+02  0.10000000000E+01 0.  0.
    9000005    1    3    3    0    0 -0.49327067942E+02  0.37896703893E+02  0.32063652736E+02  0.69988553525E+02  0.10000000000E+01 0.  0.
<mgrwt>
<rscale>  0 0.12502564E+03</rscale>
<asrwt>0</asrwt>
<pdfrwt beam="1">  1        4 0.17406189E-01 0.12502564E+03</pdfrwt>
<pdfrwt beam="2">  1       -4 0.53138314E-02 0.12502564E+03</pdfrwt>
<totfact> 0.99710589E+03</totfact>
</mgrwt>
</event>
<event>
 5    1  0.3257199E-002  0.1249953E+03  0.7818608E-02  0.1235077E+00
          4   -1    0    0  501    0  0.00000000000E+00  0.00000000000E+00  0.35991258523E+03  0.35991482590E+03  0.12700000000E+01 0.  1.
         -4   -1    0    0    0  501 -0.00000000000E+00 -0.00000000000E+00 -0.10813079368E+02  0.10887404898E+02  0.12700000000E+01 0.  1.
         25    2    1    2    0    0  0.00000000000E+00  0.00000000000E+00  0.34909950586E+03  0.37080223080E+03  0.12499531742E+03 0.  0.
    9000005    1    3    3    0    0  0.31586946932E+02 -0.23723723362E+02  0.30913156254E+02  0.50171441042E+02  0.10000000000E+01 0.  0.
    9000005    1    3    3    0    0 -0.31586946932E+02  0.23723723362E+02  0.31818634960E+03  0.32063078976E+03  0.10000000000E+01 0.  0.
<mgrwt>
<rscale>  0 0.12499532E+03</rscale>
<asrwt>0</asrwt>
<pdfrwt beam="1">  1        4 0.55377063E-01 0.12499532E+03</pdfrwt>
<pdfrwt beam="2">  1       -4 0.16694402E-02 0.12499532E+03</pdfrwt>
<totfact> 0.67502073E+03</totfact>
</mgrwt>
</event>
<event>
 5    1  0.3257199E-002  0.1249895E+03  0.7818608E-02  0.1235086E+00
          4   -1    0    0  501    0  0.00000000000E+00  0.00000000000E+00  0.48535901348E+03  0.48536067504E+03  0.12700000000E+01 0. -1.
         -4   -1    0    0    0  501 -0.00000000000E+00 -0.00000000000E+00 -0.79950189025E+01  0.80952595543E+01  0.12700000000E+01 0. -1.
         25    2    1    2    0    0  0.00000000000E+00  0.00000000000E+00  0.47736399458E+03  0.49345593459E+03  0.12498950379E+03 0.  0.
    9000005    1    3    3    0    0 -0.50758402315E+02 -0.16486705572E+02  0.36699842955E+03  0.37085991177E+03  0.10000000000E+01 0.  0.
    9000005    1    3    3    0    0  0.50758402315E+02  0.16486705572E+02  0.11036556503E+03  0.12259602282E+03  0.10000000000E+01 0.  0.
<mgrwt>
<rscale>  0 0.12498950E+03</rscale>
<asrwt>0</asrwt>
<pdfrwt beam="1">  1        4 0.74678478E-01 0.12498950E+03</pdfrwt>
<pdfrwt beam="2">  1       -4 0.12378412E-02 0.12498950E+03</pdfrwt>
<totfact> 0.56388708E+03</totfact>
</mgrwt>
</event>
<event>
 5    1  0.3257199E-002  0.1250024E+03  0.7818608E-02  0.1235066E+00
         -4   -1    0    0    0  501 -0.00000000000E+00  0.00000000000E+00  0.23656694765E+02  0.23690759954E+02  0.12700000000E+01 0.  1.
          4   -1    0    0  501    0  0.00000000000E+00 -0.00000000000E+00 -0.16497329094E+03  0.16497817923E+03  0.12700000000E+01 0.  1.
         25    2    1    2    0    0  0.00000000000E+00  0.00000000000E+00 -0.14131659617E+03  0.18866893919E+03  0.12500235302E+03 0.  0.
    9000005    1    3    3    0    0  0.90446705689E+01 -0.59490998616E+02 -0.96112309879E+02  0.11340000482E+03  0.10000000000E+01 0.  0.
    9000005    1    3    3    0    0 -0.90446705689E+01  0.59490998616E+02 -0.45204286293E+02  0.75268934371E+02  0.10000000000E+01 0.  0.
<mgrwt>
<rscale>  0 0.12500235E+03</rscale>
<asrwt>0</asrwt>
<pdfrwt beam="2">  1        4 0.25383502E-01 0.12500235E+03</pdfrwt>
<pdfrwt beam="1">  1       -4 0.36424880E-02 0.12500235E+03</pdfrwt>
<totfact> 0.92074578E+03</totfact>
</mgrwt>
</event>
<event>
 5    1  0.3257199E-002  0.1249948E+03  0.7818608E-02  0.1235077E+00
         -4   -1    0    0    0  501 -0.00000000000E+00  0.00000000000E+00  0.25915833345E+02  0.25946932727E+02  0.12700000000E+01 0.  1.
          4   -1    0    0  501    0  0.00000000000E+00 -0.00000000000E+00 -0.15059172106E+03  0.15059707618E+03  0.12700000000E+01 0.  1.
         25    2    1    2    0    0  0.00000000000E+00  0.00000000000E+00 -0.12467588772E+03  0.17654400890E+03  0.12499484030E+03 0.  0.
    9000005    1    3    3    0    0  0.41053821394E+02  0.26145512300E+01 -0.12877643359E+03  0.13519105731E+03  0.10000000000E+01 0.  0.
    9000005    1    3    3    0    0 -0.41053821394E+02 -0.26145512300E+01  0.41005458670E+01  0.41352951595E+02  0.10000000000E+01 0.  0.
<mgrwt>
<rscale>  0 0.12499484E+03</rscale>
<asrwt>0</asrwt>
<pdfrwt beam="2">  1        4 0.23170761E-01 0.12499484E+03</pdfrwt>
<pdfrwt beam="1">  1       -4 0.39898555E-02 0.12499484E+03</pdfrwt>
<totfact> 0.94253725E+03</totfact>
</mgrwt>
</event>
<event>
 5    1  0.3257199E-002  0.1250005E+03  0.7818608E-02  0.1235068E+00
         -4   -1    0    0    0  501 -0.00000000000E+00  0.00000000000E+00  0.87591278105E+02  0.87600484588E+02  0.12700000000E+01 0.  1.
          4   -1    0    0  501    0  0.00000000000E+00 -0.00000000000E+00 -0.44576105211E+02  0.44594193072E+02  0.12700000000E+01 0.  1.
         25    2    1    2    0    0  0.00000000000E+00  0.00000000000E+00  0.43015172894E+02  0.13219467766E+03  0.12500051081E+03 0.  0.
    9000005    1    3    3    0    0 -0.30857255019E+02  0.54302029202E+02  0.23726272086E+02  0.66819282770E+02  0.10000000000E+01 0.  0.
    9000005    1    3    3    0    0  0.30857255019E+02 -0.54302029202E+02  0.19288900808E+02  0.65375394891E+02  0.10000000000E+01 0.  0.
<mgrwt>
<rscale>  0 0.12500051E+03</rscale>
<asrwt>0</asrwt>
<pdfrwt beam="2">  1        4 0.68599619E-02 0.12500051E+03</pdfrwt>
<pdfrwt beam="1">  1       -4 0.13477681E-01 0.12500051E+03</pdfrwt>
<totfact> 0.10297426E+04</totfact>
</mgrwt>
</event>
<event>
 5    1  0.3257199E-002  0.1250008E+03  0.7818608E-02  0.1235068E+00
         -4   -1    0    0    0  501 -0.00000000000E+00  0.00000000000E+00  0.32801432741E+02  0.32826009350E+02  0.12700000000E+01 0.  1.
          4   -1    0    0  501    0  0.00000000000E+00 -0.00000000000E+00 -0.11901680302E+03  0.11902357876E+03  0.12700000000E+01 0.  1.
         25    2    1    2    0    0  0.00000000000E+00  0.00000000000E+00 -0.86215370280E+02  0.15184958811E+03  0.12500082935E+03 0.  0.
    9000005    1    3    3    0    0 -0.39900397945E+02  0.41885280275E+02 -0.71826156480E+02  0.92230229397E+02  0.10000000000E+01 0.  0.
    9000005    1    3    3    0    0  0.39900397945E+02 -0.41885280275E+02 -0.14389213800E+02  0.59619358716E+02  0.10000000000E+01 0.  0.
<mgrwt>
<rscale>  0 0.12500083E+03</rscale>
<asrwt>0</asrwt>
<pdfrwt beam="2">  1        4 0.18312689E-01 0.12500083E+03</pdfrwt>
<pdfrwt beam="1">  1       -4 0.50487861E-02 0.12500083E+03</pdfrwt>
<totfact> 0.98934434E+03</totfact>
</mgrwt>
</event>
<event>
 5    1  0.3257199E-002  0.1250008E+03  0.7818608E-02  0.1235068E+00
          4   -1    0    0  501    0  0.00000000000E+00  0.00000000000E+00  0.89378572586E+01  0.90276349270E+01  0.12700000000E+01 0. -1.
         -4   -1    0    0    0  501 -0.00000000000E+00 -0.00000000000E+00 -0.43477603733E+03  0.43477789219E+03  0.12700000000E+01 0. -1.
         25    2    1    2    0    0  0.00000000000E+00  0.00000000000E+00 -0.42583818007E+03  0.44380552712E+03  0.12500076117E+03 0.  0.
    9000005    1    3    3    0    0  0.38159785391E+02  0.15523813768E+02 -0.46081730412E+02  0.61819769432E+02  0.10000000000E+01 0.  0.
    9000005    1    3    3    0    0 -0.38159785391E+02 -0.15523813768E+02 -0.37975644966E+03  0.38198575768E+03  0.10000000000E+01 0.  0.
<mgrwt>
<rscale>  0 0.12500076E+03</rscale>
<asrwt>0</asrwt>
<pdfrwt beam="1">  1        4 0.13821040E-02 0.12500076E+03</pdfrwt>
<pdfrwt beam="2">  1       -4 0.66895653E-01 0.12500076E+03</pdfrwt>
<totfact> 0.60503196E+03</totfact>
</mgrwt>
</event>
<event>
 5    1  0.3257199E-002  0.1250105E+03  0.7818608E-02  0.1235053E+00
         -4   -1    0    0    0  501 -0.00000000000E+00  0.00000000000E+00  0.10780601904E+02  0.10855149811E+02  0.12700000000E+01 0. -1.
          4   -1    0    0  501    0  0.00000000000E+00 -0.00000000000E+00 -0.36107733431E+03  0.36107956776E+03  0.12700000000E+01 0. -1.
         25    2    1    2    0    0  0.00000000000E+00  0.00000000000E+00 -0.35029673240E+03  0.37193471757E+03  0.12501053315E+03 0.  0.
    9000005    1    3    3    0    0  0.48461304989E+02  0.37686512677E+02 -0.20998991741E+03  0.21878193877E+03  0.10000000000E+01 0.  0.
    9000005    1    3    3    0    0 -0.48461304989E+02 -0.37686512677E+02 -0.14030681500E+03  0.15315277880E+03  0.10000000000E+01 0.  0.
<mgrwt>
<rscale>  0 0.12501053E+03</rscale>
<asrwt>0</asrwt>
<pdfrwt beam="2">  1        4 0.55556256E-01 0.12501053E+03</pdfrwt>
<pdfrwt beam="1">  1       -4 0.16644607E-02 0.12501053E+03</pdfrwt>
<totfact> 0.67361332E+03</totfact>
</mgrwt>
</event>
<event>
 5    1  0.3257199E-002  0.1250013E+03  0.7818608E-02  0.1235067E+00
          4   -1    0    0  501    0  0.00000000000E+00  0.00000000000E+00  0.18296238074E+03  0.18296678842E+03  0.12700000000E+01 0. -1.
         -4   -1    0    0    0  501 -0.00000000000E+00 -0.00000000000E+00 -0.21326890838E+02  0.21364671138E+02  0.12700000000E+01 0. -1.
         25    2    1    2    0    0  0.00000000000E+00  0.00000000000E+00  0.16163548990E+03  0.20433145956E+03  0.12500125508E+03 0.  0.
    9000005    1    3    3    0    0 -0.26226201992E+02 -0.37359766645E+02  0.15058742889E+03  0.15735672713E+03  0.10000000000E+01 0.  0.
    9000005    1    3    3    0    0  0.26226201992E+02  0.37359766645E+02  0.11048061015E+02  0.46974732430E+02  0.10000000000E+01 0.  0.
<mgrwt>
<rscale>  0 0.12500126E+03</rscale>
<asrwt>0</asrwt>
<pdfrwt beam="1">  1        4 0.28151305E-01 0.12500126E+03</pdfrwt>
<pdfrwt beam="2">  1       -4 0.32843052E-02 0.12500126E+03</pdfrwt>
<totfact> 0.89407565E+03</totfact>
</mgrwt>
</event>
<event>
 5    1  0.3257199E-002  0.1250349E+03  0.7818608E-02  0.1235015E+00
          4   -1    0    0  501    0  0.00000000000E+00  0.00000000000E+00  0.62800404173E+02  0.62813244338E+02  0.12700000000E+01 0. -1.
         -4   -1    0    0    0  501 -0.00000000000E+00 -0.00000000000E+00 -0.62210091118E+02  0.62223053099E+02  0.12700000000E+01 0. -1.
         25    2    1    2    0    0  0.00000000000E+00  0.00000000000E+00  0.59031305452E+00  0.12503629744E+03  0.12503490396E+03 0.  0.
    9000005    1    3    3    0    0  0.64542890864E+01 -0.60296350188E+02  0.15465167653E+02  0.62589768366E+02  0.10000000000E+01 0.  0.
    9000005    1    3    3    0    0 -0.64542890864E+01  0.60296350188E+02 -0.14874854598E+02  0.62446529071E+02  0.10000000000E+01 0.  0.
<mgrwt>
<rscale>  0 0.12503490E+03</rscale>
<asrwt>0</asrwt>
<pdfrwt beam="1">  1        4 0.96635854E-02 0.12503490E+03</pdfrwt>
<pdfrwt beam="2">  1       -4 0.95727680E-02 0.12503490E+03</pdfrwt>
<totfact> 0.10443833E+04</totfact>
</mgrwt>
</event>
<event>
 5    1  0.3257199E-002  0.1250050E+03  0.7818608E-02  0.1235061E+00
          4   -1    0    0  501    0  0.00000000000E+00  0.00000000000E+00  0.11614559029E+03  0.11615253352E+03  0.12700000000E+01 0. -1.
         -4   -1    0    0    0  501 -0.00000000000E+00 -0.00000000000E+00 -0.33615123707E+02  0.33639105842E+02  0.12700000000E+01 0. -1.
         25    2    1    2    0    0  0.00000000000E+00  0.00000000000E+00  0.82530466584E+02  0.14979163937E+03  0.12500502914E+03 0.  0.
    9000005    1    3    3    0    0 -0.74360177708E+01  0.35797773594E+02 -0.19467711026E+02  0.41433883805E+02  0.10000000000E+01 0.  0.
    9000005    1    3    3    0    0  0.74360177708E+01 -0.35797773594E+02  0.10199817761E+03  0.10835775556E+03  0.10000000000E+01 0.  0.
<mgrwt>
<rscale>  0 0.12500503E+03</rscale>
<asrwt>0</asrwt>
<pdfrwt beam="1">  1        4 0.17870931E-01 0.12500503E+03</pdfrwt>
<pdfrwt beam="2">  1       -4 0.51739364E-02 0.12500503E+03</pdfrwt>
<totfact> 0.99334004E+03</totfact>
</mgrwt>
</event>
<event>
 5    1  0.3257199E-002  0.1250033E+03  0.7818608E-02  0.1235064E+00
         -4   -1    0    0    0  501 -0.00000000000E+00  0.00000000000E+00  0.47005084654E+01  0.48690532790E+01  0.12700000000E+01 0. -1.
          4   -1    0    0  501    0  0.00000000000E+00 -0.00000000000E+00 -0.81626512715E+03  0.81626611513E+03  0.12700000000E+01 0. -1.
         25    2    1    2    0    0  0.00000000000E+00  0.00000000000E+00 -0.81156461869E+03  0.82113516841E+03  0.12500333791E+03 0.  0.
    9000005    1    3    3    0    0 -0.57446643586E+02  0.21935624066E+02 -0.33258389672E+03  0.33822231863E+03  0.10000000000E+01 0.  0.
    9000005    1    3    3    0    0  0.57446643586E+02 -0.21935624066E+02 -0.47898072197E+03  0.48291284977E+03  0.10000000000E+01 0.  0.
<mgrwt>
<rscale>  0 0.12500334E+03</rscale>
<asrwt>0</asrwt>
<pdfrwt beam="2">  1        4 0.12559218E+00 0.12500334E+03</pdfrwt>
<pdfrwt beam="1">  1       -4 0.73619678E-03 0.12500334E+03</pdfrwt>
<totfact> 0.37335744E+03</totfact>
</mgrwt>
</event>
<event>
 5    1  0.3257199E-002  0.1249989E+03  0.7818608E-02  0.1235071E+00
          4   -1    0    0  501    0  0.00000000000E+00  0.00000000000E+00  0.45806314731E+01  0.47534287301E+01  0.12700000000E+01 0.  1.
         -4   -1    0    0    0  501 -0.00000000000E+00 -0.00000000000E+00 -0.83679989345E+03  0.83680085718E+03  0.12700000000E+01 0.  1.
         25    2    1    2    0    0  0.00000000000E+00  0.00000000000E+00 -0.83221926198E+03  0.84155428591E+03  0.12499886451E+03 0.  0.
    9000005    1    3    3    0    0  0.33658326445E+02  0.99881090378E+01 -0.68062811757E+02  0.76591067401E+02  0.10000000000E+01 0.  0.
    9000005    1    3    3    0    0 -0.33658326445E+02 -0.99881090378E+01 -0.76415645022E+03  0.76496321851E+03  0.10000000000E+01 0.  0.
<mgrwt>
<rscale>  0 0.12499886E+03</rscale>
<asrwt>0</asrwt>
<pdfrwt beam="1">  1        4 0.71807943E-03 0.12499886E+03</pdfrwt>
<pdfrwt beam="2">  1       -4 0.12875169E+00 0.12499886E+03</pdfrwt>
<totfact> 0.36476380E+03</totfact>
</mgrwt>
</event>
<event>
 5    1  0.3257199E-002  0.1249970E+03  0.7818608E-02  0.1235074E+00
         -4   -1    0    0    0  501 -0.00000000000E+00  0.00000000000E+00  0.99411705442E+02  0.99419817334E+02  0.12700000000E+01 0. -1.
          4   -1    0    0  501    0  0.00000000000E+00 -0.00000000000E+00 -0.39271821558E+02  0.39292351272E+02  0.12700000000E+01 0. -1.
         25    2    1    2    0    0  0.00000000000E+00  0.00000000000E+00  0.60139883883E+02  0.13871216861E+03  0.12499704031E+03 0.  0.
    9000005    1    3    3    0    0 -0.39948262597E+02 -0.43164400293E+02  0.53506818444E+02  0.79517348781E+02  0.10000000000E+01 0.  0.
    9000005    1    3    3    0    0  0.39948262597E+02  0.43164400293E+02  0.66330654394E+01  0.59194819826E+02  0.10000000000E+01 0.  0.
<mgrwt>
<rscale>  0 0.12499704E+03</rscale>
<asrwt>0</asrwt>
<pdfrwt beam="2">  1        4 0.60440219E-02 0.12499704E+03</pdfrwt>
<pdfrwt beam="1">  1       -4 0.15296312E-01 0.12499704E+03</pdfrwt>
<totfact> 0.10161024E+04</totfact>
</mgrwt>
</event>
<event>
 5    1  0.3257199E-002  0.1249993E+03  0.7818608E-02  0.1235070E+00
         -4   -1    0    0    0  501 -0.00000000000E+00  0.00000000000E+00  0.14256534023E+04  0.14256539680E+04  0.12700000000E+01 0.  1.
          4   -1    0    0  501    0  0.00000000000E+00 -0.00000000000E+00 -0.25921775572E+01  0.28865696749E+01  0.12700000000E+01 0.  1.
         25    2    1    2    0    0  0.00000000000E+00  0.00000000000E+00  0.14230612248E+04  0.14285405377E+04  0.12499927332E+03 0.  0.
    9000005    1    3    3    0    0 -0.29515840474E+02  0.33761417681E+02  0.21414131057E+03  0.21878875440E+03  0.10000000000E+01 0.  0.
    9000005    1    3    3    0    0  0.29515840474E+02 -0.33761417681E+02  0.12089199142E+04  0.12097517833E+04  0.10000000000E+01 0.  0.
<mgrwt>
<rscale>  0 0.12499927E+03</rscale>
<asrwt>0</asrwt>
<pdfrwt beam="2">  1        4 0.42148526E-03 0.12499927E+03</pdfrwt>
<pdfrwt beam="1">  1       -4 0.21935417E+00 0.12499927E+03</pdfrwt>
<totfact> 0.19376908E+03</totfact>
</mgrwt>
</event>
<event>
 5    1  0.3257199E-002  0.1249972E+03  0.7818608E-02  0.1235074E+00
         -4   -1    0    0    0  501 -0.00000000000E+00  0.00000000000E+00  0.47634149277E+03  0.47634318578E+03  0.12700000000E+01 0.  1.
          4   -1    0    0  501    0  0.00000000000E+00 -0.00000000000E+00 -0.81492637021E+01  0.82476298951E+01  0.12700000000E+01 0.  1.
         25    2    1    2    0    0  0.00000000000E+00  0.00000000000E+00  0.46819222907E+03  0.48459081567E+03  0.12499718106E+03 0.  0.
    9000005    1    3    3    0    0 -0.22300506234E+02 -0.40877015919E+02  0.39566350743E+03  0.39839534902E+03  0.10000000000E+01 0.  0.
    9000005    1    3    3    0    0  0.22300506234E+02  0.40877015919E+02  0.72528721640E+02  0.86195466653E+02  0.10000000000E+01 0.  0.
<mgrwt>
<rscale>  0 0.12499718E+03</rscale>
<asrwt>0</asrwt>
<pdfrwt beam="2">  1        4 0.12614295E-02 0.12499718E+03</pdfrwt>
<pdfrwt beam="1">  1       -4 0.73291016E-01 0.12499718E+03</pdfrwt>
<totfact> 0.57083601E+03</totfact>
</mgrwt>
</event>
<event>
 5    1  0.3257199E-002  0.1249990E+03  0.7818608E-02  0.1235071E+00
         -4   -1    0    0    0  501 -0.00000000000E+00  0.00000000000E+00  0.11993508688E+02  0.12060561788E+02  0.12700000000E+01 0. -1.
          4   -1    0    0  501    0  0.00000000000E+00 -0.00000000000E+00 -0.32471575045E+03  0.32471823400E+03  0.12700000000E+01 0. -1.
         25    2    1    2    0    0  0.00000000000E+00  0.00000000000E+00 -0.31272224176E+03  0.33677879578E+03  0.12499902719E+03 0.  0.
    9000005    1    3    3    0    0 -0.46824841842E+02  0.33024641286E+02 -0.22355536316E+03  0.23078386673E+03  0.10000000000E+01 0.  0.
    9000005    1    3    3    0    0  0.46824841842E+02 -0.33024641286E+02 -0.89166878596E+02  0.10599492905E+03  0.10000000000E+01 0.  0.
<mgrwt>
<rscale>  0 0.12499903E+03</rscale>
<asrwt>0</asrwt>
<pdfrwt beam="2">  1        4 0.49961612E-01 0.12499903E+03</pdfrwt>
<pdfrwt beam="1">  1       -4 0.18505044E-02 0.12499903E+03</pdfrwt>
<totfact> 0.71205503E+03</totfact>
</mgrwt>
</event>
<event>
 5    1  0.3257199E-002  0.1250001E+03  0.7818608E-02  0.1235069E+00
         -4   -1    0    0    0  501 -0.00000000000E+00  0.00000000000E+00  0.70068702031E+02  0.70080210504E+02  0.12700000000E+01 0. -1.
          4   -1    0    0  501    0  0.00000000000E+00 -0.00000000000E+00 -0.55725603202E+02  0.55740073127E+02  0.12700000000E+01 0. -1.
         25    2    1    2    0    0  0.00000000000E+00  0.00000000000E+00  0.14343098829E+02  0.12582028363E+03  0.12500007716E+03 0.  0.
    9000005    1    3    3    0    0 -0.28114503629E+02 -0.46375132274E+02 -0.24083391027E+02  0.59347181324E+02  0.10000000000E+01 0.  0.
    9000005    1    3    3    0    0  0.28114503629E+02  0.46375132274E+02  0.38426489857E+02  0.66473102308E+02  0.10000000000E+01 0.  0.
<mgrwt>
<rscale>  0 0.12500008E+03</rscale>
<asrwt>0</asrwt>
<pdfrwt beam="2">  1        4 0.85751681E-02 0.12500008E+03</pdfrwt>
<pdfrwt beam="1">  1       -4 0.10781799E-01 0.12500008E+03</pdfrwt>
<totfact> 0.10434882E+04</totfact>
</mgrwt>
</event>
<event>
 5    1  0.3257199E-002  0.1250021E+03  0.7818608E-02  0.1235066E+00
         -4   -1    0    0    0  501 -0.00000000000E+00  0.00000000000E+00  0.10985277905E+03  0.10986011999E+03  0.12700000000E+01 0.  1.
          4   -1    0    0  501    0  0.00000000000E+00 -0.00000000000E+00 -0.35540281549E+02  0.35562965464E+02  0.12700000000E+01 0.  1.
         25    2    1    2    0    0  0.00000000000E+00  0.00000000000E+00  0.74312497496E+02  0.14542308545E+03  0.12500210598E+03 0.  0.
    9000005    1    3    3    0    0 -0.47086444858E+02  0.39300641321E+02  0.23210032742E+02  0.65584901597E+02  0.10000000000E+01 0.  0.
    9000005    1    3    3    0    0  0.47086444858E+02 -0.39300641321E+02  0.51102464755E+02  0.79838183857E+02  0.10000000000E+01 0.  0.
<mgrwt>
<rscale>  0 0.12500211E+03</rscale>
<asrwt>0</asrwt>
<pdfrwt beam="2">  1        4 0.54700452E-02 0.12500211E+03</pdfrwt>
<pdfrwt beam="1">  1       -4 0.16902737E-01 0.12500211E+03</pdfrwt>
<totfact> 0.10021924E+04</totfact>
</mgrwt>
</event>
<event>
 5    1  0.3257199E-002  0.1249982E+03  0.7818608E-02  0.1235072E+00
         -4   -1    0    0    0  501 -0.00000000000E+00  0.00000000000E+00  0.18630524136E+02  0.18673760457E+02  0.12700000000E+01 0. -1.
          4   -1    0    0  501    0  0.00000000000E+00 -0.00000000000E+00 -0.20937522883E+03  0.20937908050E+03  0.12700000000E+01 0. -1.
         25    2    1    2    0    0  0.00000000000E+00  0.00000000000E+00 -0.19074470470E+03  0.22805284095E+03  0.12499822357E+03 0.  0.
    9000005    1    3    3    0    0 -0.36358977423E+02  0.89698647590E+01 -0.41005768142E+01  0.37686183718E+02  0.10000000000E+01 0.  0.
    9000005    1    3    3    0    0  0.36358977423E+02 -0.89698647590E+01 -0.18664412788E+03  0.19036665723E+03  0.10000000000E+01 0.  0.
<mgrwt>
<rscale>  0 0.12499822E+03</rscale>
<asrwt>0</asrwt>
<pdfrwt beam="2">  1        4 0.32215194E-01 0.12499822E+03</pdfrwt>
<pdfrwt beam="1">  1       -4 0.28698568E-02 0.12499822E+03</pdfrwt>
<totfact> 0.85612879E+03</totfact>
</mgrwt>
</event>
<event>
 5    1  0.3257199E-002  0.1250008E+03  0.7818608E-02  0.1235068E+00
         -4   -1    0    0    0  501 -0.00000000000E+00  0.00000000000E+00  0.10423753318E+03  0.10424526955E+03  0.12700000000E+01 0. -1.
          4   -1    0    0  501    0  0.00000000000E+00 -0.00000000000E+00 -0.37455073265E+02  0.37476598209E+02  0.12700000000E+01 0. -1.
         25    2    1    2    0    0  0.00000000000E+00  0.00000000000E+00  0.66782459911E+02  0.14172186775E+03  0.12500076339E+03 0.  0.
    9000005    1    3    3    0    0  0.33993177347E+02  0.27514020784E+01  0.92762054932E+02  0.98837771903E+02  0.10000000000E+01 0.  0.
    9000005    1    3    3    0    0 -0.33993177347E+02 -0.27514020784E+01 -0.25979595021E+02  0.42884095851E+02  0.10000000000E+01 0.  0.
<mgrwt>
<rscale>  0 0.12500076E+03</rscale>
<asrwt>0</asrwt>
<pdfrwt beam="2">  1        4 0.57645699E-02 0.12500076E+03</pdfrwt>
<pdfrwt beam="1">  1       -4 0.16038794E-01 0.12500076E+03</pdfrwt>
<totfact> 0.10097849E+04</totfact>
</mgrwt>
</event>
<event>
 5    1  0.3257199E-002  0.1250012E+03  0.7818608E-02  0.1235067E+00
          4   -1    0    0  501    0  0.00000000000E+00  0.00000000000E+00  0.79115269133E+01  0.80128121219E+01  0.12700000000E+01 0. -1.
         -4   -1    0    0    0  501 -0.00000000000E+00 -0.00000000000E+00 -0.49050843843E+03  0.49051008254E+03  0.12700000000E+01 0. -1.
         25    2    1    2    0    0  0.00000000000E+00  0.00000000000E+00 -0.48259691152E+03  0.49852289466E+03  0.12500118997E+03 0.  0.
    9000005    1    3    3    0    0 -0.51907870111E+01 -0.62254213304E+02 -0.23463332410E+03  0.24280924225E+03  0.10000000000E+01 0.  0.
    9000005    1    3    3    0    0  0.51907870111E+01  0.62254213304E+02 -0.24796358742E+03  0.25571365241E+03  0.10000000000E+01 0.  0.
<mgrwt>
<rscale>  0 0.12500119E+03</rscale>
<asrwt>0</asrwt>
<pdfrwt beam="1">  1        4 0.12250760E-02 0.12500119E+03</pdfrwt>
<pdfrwt beam="2">  1       -4 0.75470731E-01 0.12500119E+03</pdfrwt>
<totfact> 0.55977700E+03</totfact>
</mgrwt>
</event>
<event>
 5    1  0.3257199E-002  0.1250047E+03  0.7818608E-02  0.1235062E+00
          4   -1    0    0  501    0  0.00000000000E+00  0.00000000000E+00  0.17344457499E+03  0.17344922454E+03  0.12700000000E+01 0. -1.
         -4   -1    0    0    0  501 -0.00000000000E+00 -0.00000000000E+00 -0.22500435360E+02  0.22536248387E+02  0.12700000000E+01 0. -1.
         25    2    1    2    0    0  0.00000000000E+00  0.00000000000E+00  0.15094413963E+03  0.19598547292E+03  0.12500468915E+03 0.  0.
    9000005    1    3    3    0    0 -0.15772248791E+02 -0.57403690093E+02  0.45658831554E+02  0.75031169304E+02  0.10000000000E+01 0.  0.
    9000005    1    3    3    0    0  0.15772248791E+02  0.57403690093E+02  0.10528530807E+03  0.12095430362E+03  0.10000000000E+01 0.  0.
<mgrwt>
<rscale>  0 0.12500469E+03</rscale>
<asrwt>0</asrwt>
<pdfrwt beam="1">  1        4 0.26686894E-01 0.12500469E+03</pdfrwt>
<pdfrwt beam="2">  1       -4 0.34647179E-02 0.12500469E+03</pdfrwt>
<totfact> 0.90806632E+03</totfact>
</mgrwt>
</event>
<event>
 5    1  0.3257199E-002  0.1250139E+03  0.7818608E-02  0.1235048E+00
         -4   -1    0    0    0  501 -0.00000000000E+00  0.00000000000E+00  0.32203024843E+03  0.32203275269E+03  0.12700000000E+01 0.  1.
          4   -1    0    0  501    0  0.00000000000E+00 -0.00000000000E+00 -0.12096973750E+02  0.12163456496E+02  0.12700000000E+01 0.  1.
         25    2    1    2    0    0  0.00000000000E+00  0.00000000000E+00  0.30993327468E+03  0.33419620919E+03  0.12501388515E+03 0.  0.
    9000005    1    3    3    0    0 -0.59895945408E+02 -0.92963784331E+01  0.11423356220E+03  0.12932228602E+03  0.10000000000E+01 0.  0.
    9000005    1    3    3    0    0  0.59895945408E+02  0.92963784331E+01  0.19569971248E+03  0.20487392317E+03  0.10000000000E+01 0.  0.
<mgrwt>
<rscale>  0 0.12501389E+03</rscale>
<asrwt>0</asrwt>
<pdfrwt beam="2">  1        4 0.18663794E-02 0.12501389E+03</pdfrwt>
<pdfrwt beam="1">  1       -4 0.49548425E-01 0.12501389E+03</pdfrwt>
<totfact> 0.71476901E+03</totfact>
</mgrwt>
</event>
<event>
 5    1  0.3257199E-002  0.1249917E+03  0.7818608E-02  0.1235082E+00
         -4   -1    0    0    0  501 -0.00000000000E+00  0.00000000000E+00  0.39983882248E+01  0.41952363934E+01  0.12700000000E+01 0.  1.
          4   -1    0    0  501    0  0.00000000000E+00 -0.00000000000E+00 -0.95316160649E+03  0.95316245257E+03  0.12700000000E+01 0.  1.
         25    2    1    2    0    0  0.00000000000E+00  0.00000000000E+00 -0.94916321826E+03  0.95735768896E+03  0.12499171855E+03 0.  0.
    9000005    1    3    3    0    0  0.73084595016E+01 -0.50062883102E+02 -0.19367728539E+03  0.20017891178E+03  0.10000000000E+01 0.  0.
    9000005    1    3    3    0    0 -0.73084595016E+01  0.50062883102E+02 -0.75548593287E+03  0.75717877718E+03  0.10000000000E+01 0.  0.
<mgrwt>
<rscale>  0 0.12499172E+03</rscale>
<asrwt>0</asrwt>
<pdfrwt beam="2">  1        4 0.14665528E+00 0.12499172E+03</pdfrwt>
<pdfrwt beam="1">  1       -4 0.63034466E-03 0.12499172E+03</pdfrwt>
<totfact> 0.32062006E+03</totfact>
</mgrwt>
</event>
<event>
 5    1  0.3257199E-002  0.1250039E+03  0.7818608E-02  0.1235063E+00
          4   -1    0    0  501    0  0.00000000000E+00  0.00000000000E+00  0.44783115458E+03  0.44783295537E+03  0.12700000000E+01 0.  1.
         -4   -1    0    0    0  501 -0.00000000000E+00 -0.00000000000E+00 -0.86750800661E+01  0.87675489251E+01  0.12700000000E+01 0.  1.
         25    2    1    2    0    0  0.00000000000E+00  0.00000000000E+00  0.43915607452E+03  0.45660050429E+03  0.12500385089E+03 0.  0.
    9000005    1    3    3    0    0 -0.58938065014E+02 -0.30569708605E+01  0.14450210975E+03  0.15609260168E+03  0.10000000000E+01 0.  0.
    9000005    1    3    3    0    0  0.58938065014E+02  0.30569708605E+01  0.29465396477E+03  0.30050790261E+03  0.10000000000E+01 0.  0.
<mgrwt>
<rscale>  0 0.12500385E+03</rscale>
<asrwt>0</asrwt>
<pdfrwt beam="1">  1        4 0.68904358E-01 0.12500385E+03</pdfrwt>
<pdfrwt beam="2">  1       -4 0.13418791E-02 0.12500385E+03</pdfrwt>
<totfact> 0.59391187E+03</totfact>
</mgrwt>
</event>
<event>
 5    1  0.3257199E-002  0.1250022E+03  0.7818608E-02  0.1235066E+00
         -4   -1    0    0    0  501 -0.00000000000E+00  0.00000000000E+00  0.25483202638E+02  0.25514829348E+02  0.12700000000E+01 0. -1.
          4   -1    0    0  501    0  0.00000000000E+00 -0.00000000000E+00 -0.15316332373E+03  0.15316858894E+03  0.12700000000E+01 0. -1.
         25    2    1    2    0    0  0.00000000000E+00  0.00000000000E+00 -0.12768012110E+03  0.17868341829E+03  0.12500220257E+03 0.  0.
    9000005    1    3    3    0    0  0.23684127057E+02 -0.57809708079E+02 -0.61585599034E+02  0.87730759891E+02  0.10000000000E+01 0.  0.
    9000005    1    3    3    0    0 -0.23684127057E+02  0.57809708079E+02 -0.66094522063E+02  0.90952658396E+02  0.10000000000E+01 0.  0.
<mgrwt>
<rscale>  0 0.12500220E+03</rscale>
<asrwt>0</asrwt>
<pdfrwt beam="2">  1        4 0.23566426E-01 0.12500220E+03</pdfrwt>
<pdfrwt beam="1">  1       -4 0.39233306E-02 0.12500220E+03</pdfrwt>
<totfact> 0.93849895E+03</totfact>
</mgrwt>
</event>
<event>
 5    1  0.3257199E-002  0.1250058E+03  0.7818608E-02  0.1235060E+00
         -4   -1    0    0    0  501 -0.00000000000E+00  0.00000000000E+00  0.13406379039E+03  0.13406980568E+03  0.12700000000E+01 0. -1.
          4   -1    0    0  501    0  0.00000000000E+00 -0.00000000000E+00 -0.29119429844E+02  0.29147111254E+02  0.12700000000E+01 0. -1.
         25    2    1    2    0    0  0.00000000000E+00  0.00000000000E+00  0.10494436055E+03  0.16321691693E+03  0.12500577251E+03 0.  0.
    9000005    1    3    3    0    0 -0.24993511670E+02 -0.27209757127E+02  0.11828343876E+03  0.12392343763E+03  0.10000000000E+01 0.  0.
    9000005    1    3    3    0    0  0.24993511670E+02  0.27209757127E+02 -0.13339078209E+02  0.39293479306E+02  0.10000000000E+01 0.  0.
<mgrwt>
<rscale>  0 0.12500577E+03</rscale>
<asrwt>0</asrwt>
<pdfrwt beam="2">  1        4 0.44825044E-02 0.12500577E+03</pdfrwt>
<pdfrwt beam="1">  1       -4 0.20627790E-01 0.12500577E+03</pdfrwt>
<totfact> 0.96713605E+03</totfact>
</mgrwt>
</event>
<event>
 5    1  0.3257199E-002  0.1249998E+03  0.7818608E-02  0.1235070E+00
         -4   -1    0    0    0  501 -0.00000000000E+00  0.00000000000E+00  0.81607316793E+01  0.82589612871E+01  0.12700000000E+01 0.  1.
          4   -1    0    0  501    0  0.00000000000E+00 -0.00000000000E+00 -0.47569994559E+03  0.47570164088E+03  0.12700000000E+01 0.  1.
         25    2    1    2    0    0  0.00000000000E+00  0.00000000000E+00 -0.46753921391E+03  0.48396060217E+03  0.12499979162E+03 0.  0.
    9000005    1    3    3    0    0 -0.50330487469E+02 -0.27225230280E+02 -0.13652417124E+03  0.14803452457E+03  0.10000000000E+01 0.  0.
    9000005    1    3    3    0    0  0.50330487469E+02  0.27225230280E+02 -0.33101504267E+03  0.33592607759E+03  0.10000000000E+01 0.  0.
<mgrwt>
<rscale>  0 0.12499979E+03</rscale>
<asrwt>0</asrwt>
<pdfrwt beam="2">  1        4 0.73192272E-01 0.12499979E+03</pdfrwt>
<pdfrwt beam="1">  1       -4 0.12631841E-02 0.12499979E+03</pdfrwt>
<totfact> 0.57130932E+03</totfact>
</mgrwt>
</event>
<event>
 5    1  0.3257199E-002  0.1249998E+03  0.7818608E-02  0.1235070E+00
          4   -1    0    0  501    0  0.00000000000E+00  0.00000000000E+00  0.41070573840E+03  0.41070770197E+03  0.12700000000E+01 0.  1.
         -4   -1    0    0    0  501 -0.00000000000E+00 -0.00000000000E+00 -0.94666499161E+01  0.95514585605E+01  0.12700000000E+01 0.  1.
         25    2    1    2    0    0  0.00000000000E+00  0.00000000000E+00  0.40123908849E+03  0.42025916053E+03  0.12499982352E+03 0.  0.
    9000005    1    3    3    0    0  0.14187281106E+02  0.29182698761E+02  0.21060335617E+02  0.38696855021E+02  0.10000000000E+01 0.  0.
    9000005    1    3    3    0    0 -0.14187281106E+02 -0.29182698761E+02  0.38017875287E+03  0.38156230551E+03  0.10000000000E+01 0.  0.
<mgrwt>
<rscale>  0 0.12499982E+03</rscale>
<asrwt>0</asrwt>
<pdfrwt beam="1">  1        4 0.63192171E-01 0.12499982E+03</pdfrwt>
<pdfrwt beam="2">  1       -4 0.14630825E-02 0.12499982E+03</pdfrwt>
<totfact> 0.62629217E+03</totfact>
</mgrwt>
</event>
<event>
 5    1  0.3257199E-002  0.1249889E+03  0.7818608E-02  0.1235087E+00
          4   -1    0    0  501    0  0.00000000000E+00  0.00000000000E+00  0.50613804142E+02  0.50629735035E+02  0.12700000000E+01 0. -1.
         -4   -1    0    0    0  501 -0.00000000000E+00 -0.00000000000E+00 -0.77130493541E+02  0.77140948489E+02  0.12700000000E+01 0. -1.
         25    2    1    2    0    0  0.00000000000E+00  0.00000000000E+00 -0.26516689399E+02  0.12777068352E+03  0.12498885051E+03 0.  0.
    9000005    1    3    3    0    0 -0.49274868302E+02 -0.11290843306E+02 -0.50805337402E+02  0.71677598295E+02  0.10000000000E+01 0.  0.
    9000005    1    3    3    0    0  0.49274868302E+02  0.11290843306E+02  0.24288648003E+02  0.56093085230E+02  0.10000000000E+01 0.  0.
<mgrwt>
<rscale>  0 0.12498885E+03</rscale>
<asrwt>0</asrwt>
<pdfrwt beam="1">  1        4 0.77887688E-02 0.12498885E+03</pdfrwt>
<pdfrwt beam="2">  1       -4 0.11868259E-01 0.12498885E+03</pdfrwt>
<totfact> 0.10395059E+04</totfact>
</mgrwt>
</event>
<event>
 5    1  0.3257199E-002  0.1249999E+03  0.7818608E-02  0.1235070E+00
         -4   -1    0    0    0  501 -0.00000000000E+00  0.00000000000E+00  0.71409858178E+01  0.72530392561E+01  0.12700000000E+01 0.  1.
          4   -1    0    0  501    0  0.00000000000E+00 -0.00000000000E+00 -0.54264585250E+03  0.54264733864E+03  0.12700000000E+01 0.  1.
         25    2    1    2    0    0  0.00000000000E+00  0.00000000000E+00 -0.53550486668E+03  0.54990037790E+03  0.12499985349E+03 0.  0.
    9000005    1    3    3    0    0  0.32106227667E+02 -0.38683610192E+02 -0.43105784884E+03  0.43398053021E+03  0.10000000000E+01 0.  0.
    9000005    1    3    3    0    0 -0.32106227667E+02  0.38683610192E+02 -0.10444701784E+03  0.11591984769E+03  0.10000000000E+01 0.  0.
<mgrwt>
<rscale>  0 0.12499985E+03</rscale>
<asrwt>0</asrwt>
<pdfrwt beam="2">  1        4 0.83492679E-01 0.12499985E+03</pdfrwt>
<pdfrwt beam="1">  1       -4 0.11073474E-02 0.12499985E+03</pdfrwt>
<totfact> 0.52191055E+03</totfact>
</mgrwt>
</event>
<event>
 5    1  0.3257199E-002  0.1249772E+03  0.7818608E-02  0.1235105E+00
         -4   -1    0    0    0  501 -0.00000000000E+00  0.00000000000E+00  0.73575275729E+03  0.73575385337E+03  0.12700000000E+01 0.  1.
          4   -1    0    0  501    0  0.00000000000E+00 -0.00000000000E+00 -0.52301596345E+01  0.53821436066E+01  0.12700000000E+01 0.  1.
         25    2    1    2    0    0  0.00000000000E+00  0.00000000000E+00  0.73052259765E+03  0.74113599698E+03  0.12497719928E+03 0.  0.
    9000005    1    3    3    0    0  0.18252391750E+02  0.55557631879E+01  0.71808440600E+03  0.71833852079E+03  0.10000000000E+01 0.  0.
    9000005    1    3    3    0    0 -0.18252391750E+02 -0.55557631879E+01  0.12438191654E+02  0.22797476194E+02  0.10000000000E+01 0.  0.
<mgrwt>
<rscale>  0 0.12497720E+03</rscale>
<asrwt>0</asrwt>
<pdfrwt beam="2">  1        4 0.81641535E-03 0.12497720E+03</pdfrwt>
<pdfrwt beam="1">  1       -4 0.11320450E+00 0.12497720E+03</pdfrwt>
<totfact> 0.41022180E+03</totfact>
</mgrwt>
</event>
<event>
 5    1  0.3257199E-002  0.1249966E+03  0.7818608E-02  0.1235075E+00
          4   -1    0    0  501    0  0.00000000000E+00  0.00000000000E+00  0.21090403972E+03  0.21090786346E+03  0.12700000000E+01 0.  1.
         -4   -1    0    0    0  501 -0.00000000000E+00 -0.00000000000E+00 -0.18494676604E+02  0.18538229761E+02  0.12700000000E+01 0.  1.
         25    2    1    2    0    0  0.00000000000E+00  0.00000000000E+00  0.19240936311E+03  0.22944609322E+03  0.12499658668E+03 0.  0.
    9000005    1    3    3    0    0  0.53613589240E+02  0.18234525753E+02  0.47703969993E+02  0.74051223040E+02  0.10000000000E+01 0.  0.
    9000005    1    3    3    0    0 -0.53613589240E+02 -0.18234525753E+02  0.14470539312E+03  0.15539487018E+03  0.10000000000E+01 0.  0.
<mgrwt>
<rscale>  0 0.12499659E+03</rscale>
<asrwt>0</asrwt>
<pdfrwt beam="1">  1        4 0.32450420E-01 0.12499659E+03</pdfrwt>
<pdfrwt beam="2">  1       -4 0.28489792E-02 0.12499659E+03</pdfrwt>
<totfact> 0.85401225E+03</totfact>
</mgrwt>
</event>
<event>
 5    1  0.3257199E-002  0.1249980E+03  0.7818608E-02  0.1235072E+00
         -4   -1    0    0    0  501 -0.00000000000E+00  0.00000000000E+00  0.37226709339E+02  0.37248366249E+02  0.12700000000E+01 0. -1.
          4   -1    0    0  501    0  0.00000000000E+00 -0.00000000000E+00 -0.10487195311E+03  0.10487964268E+03  0.12700000000E+01 0. -1.
         25    2    1    2    0    0  0.00000000000E+00  0.00000000000E+00 -0.67645243766E+02  0.14212800893E+03  0.12499796765E+03 0.  0.
    9000005    1    3    3    0    0  0.20529111678E+02 -0.12523026234E+02 -0.99405954968E+02  0.10227812325E+03  0.10000000000E+01 0.  0.
    9000005    1    3    3    0    0 -0.20529111678E+02  0.12523026234E+02  0.31760711202E+02  0.39849885676E+02  0.10000000000E+01 0.  0.
<mgrwt>
<rscale>  0 0.12499797E+03</rscale>
<asrwt>0</asrwt>
<pdfrwt beam="2">  1        4 0.16136404E-01 0.12499797E+03</pdfrwt>
<pdfrwt beam="1">  1       -4 0.57294435E-02 0.12499797E+03</pdfrwt>
<totfact> 0.10090133E+04</totfact>
</mgrwt>
</event>
<event>
 5    1  0.3257199E-002  0.1249959E+03  0.7818608E-02  0.1235076E+00
          4   -1    0    0  501    0  0.00000000000E+00  0.00000000000E+00  0.35552836362E+02  0.35575512272E+02  0.12700000000E+01 0.  1.
         -4   -1    0    0    0  501 -0.00000000000E+00 -0.00000000000E+00 -0.10980307763E+03  0.10981042190E+03  0.12700000000E+01 0.  1.
         25    2    1    2    0    0  0.00000000000E+00  0.00000000000E+00 -0.74250241270E+02  0.14538593417E+03  0.12499588604E+03 0.  0.
    9000005    1    3    3    0    0  0.61926128414E+02  0.51491686600E+01 -0.29442011330E+02  0.68769116247E+02  0.10000000000E+01 0.  0.
    9000005    1    3    3    0    0 -0.61926128414E+02 -0.51491686600E+01 -0.44808229941E+02  0.76616817923E+02  0.10000000000E+01 0.  0.
<mgrwt>
<rscale>  0 0.12499589E+03</rscale>
<asrwt>0</asrwt>
<pdfrwt beam="1">  1        4 0.54719764E-02 0.12499589E+03</pdfrwt>
<pdfrwt beam="2">  1       -4 0.16895090E-01 0.12499589E+03</pdfrwt>
<totfact> 0.10024082E+04</totfact>
</mgrwt>
</event>
<event>
 5    1  0.3257199E-002  0.1249998E+03  0.7818608E-02  0.1235070E+00
         -4   -1    0    0    0  501 -0.00000000000E+00  0.00000000000E+00  0.14354971037E+02  0.14411040680E+02  0.12700000000E+01 0. -1.
          4   -1    0    0  501    0  0.00000000000E+00 -0.00000000000E+00 -0.27152927767E+03  0.27153224768E+03  0.12700000000E+01 0. -1.
         25    2    1    2    0    0  0.00000000000E+00  0.00000000000E+00 -0.25717430663E+03  0.28594328836E+03  0.12499976067E+03 0.  0.
    9000005    1    3    3    0    0 -0.42415769032E+02  0.42299829198E+02 -0.16930697105E+03  0.17959460866E+03  0.10000000000E+01 0.  0.
    9000005    1    3    3    0    0  0.42415769032E+02 -0.42299829198E+02 -0.87867335579E+02  0.10634867970E+03  0.10000000000E+01 0.  0.
<mgrwt>
<rscale>  0 0.12499976E+03</rscale>
<asrwt>0</asrwt>
<pdfrwt beam="2">  1        4 0.41778273E-01 0.12499976E+03</pdfrwt>
<pdfrwt beam="1">  1       -4 0.22129988E-02 0.12499976E+03</pdfrwt>
<totfact> 0.77397024E+03</totfact>
</mgrwt>
</event>
<event>
 5    1  0.3257199E-002  0.1249950E+03  0.7818608E-02  0.1235077E+00
          4   -1    0    0  501    0  0.00000000000E+00  0.00000000000E+00  0.54995886063E+01  0.56443223542E+01  0.12700000000E+01 0. -1.
         -4   -1    0    0    0  501 -0.00000000000E+00 -0.00000000000E+00 -0.70085378671E+03  0.70085493738E+03  0.12700000000E+01 0. -1.
         25    2    1    2    0    0  0.00000000000E+00  0.00000000000E+00 -0.69535419811E+03  0.70649925973E+03  0.12499497262E+03 0.  0.
    9000005    1    3    3    0    0 -0.24742488494E+02 -0.35163560401E+02 -0.60398331435E+03  0.60551260163E+03  0.10000000000E+01 0.  0.
    9000005    1    3    3    0    0  0.24742488494E+02  0.35163560401E+02 -0.91370883753E+02  0.10098665810E+03  0.10000000000E+01 0.  0.
<mgrwt>
<rscale>  0 0.12499497E+03</rscale>
<asrwt>0</asrwt>
<pdfrwt beam="1">  1        4 0.85731298E-03 0.12499497E+03</pdfrwt>
<pdfrwt beam="2">  1       -4 0.10783481E+00 0.12499497E+03</pdfrwt>
<totfact> 0.42750547E+03</totfact>
</mgrwt>
</event>
<event>
 5    1  0.3257199E-002  0.1250022E+03  0.7818608E-02  0.1235066E+00
          4   -1    0    0  501    0  0.00000000000E+00  0.00000000000E+00  0.29795857503E+03  0.29796128160E+03  0.12700000000E+01 0. -1.
         -4   -1    0    0    0  501 -0.00000000000E+00 -0.00000000000E+00 -0.13076978281E+02  0.13138502996E+02  0.12700000000E+01 0. -1.
         25    2    1    2    0    0  0.00000000000E+00  0.00000000000E+00  0.28488159675E+03  0.31109978460E+03  0.12500220722E+03 0.  0.
    9000005    1    3    3    0    0 -0.59910393285E+02 -0.16218811682E+02  0.12430823293E+03  0.13894546358E+03  0.10000000000E+01 0.  0.
    9000005    1    3    3    0    0  0.59910393285E+02  0.16218811682E+02  0.16057336383E+03  0.17215432102E+03  0.10000000000E+01 0.  0.
<mgrwt>
<rscale>  0 0.12500221E+03</rscale>
<asrwt>0</asrwt>
<pdfrwt beam="1">  1        4 0.45844714E-01 0.12500221E+03</pdfrwt>
<pdfrwt beam="2">  1       -4 0.20167840E-02 0.12500221E+03</pdfrwt>
<totfact> 0.74223638E+03</totfact>
</mgrwt>
</event>
<event>
 5    1  0.3257199E-002  0.1250038E+03  0.7818608E-02  0.1235063E+00
          4   -1    0    0  501    0  0.00000000000E+00  0.00000000000E+00  0.77939629828E+02  0.77949976252E+02  0.12700000000E+01 0.  1.
         -4   -1    0    0    0  501 -0.00000000000E+00 -0.00000000000E+00 -0.50100267374E+02  0.50116361510E+02  0.12700000000E+01 0.  1.
         25    2    1    2    0    0  0.00000000000E+00  0.00000000000E+00  0.27839362453E+02  0.12806633776E+03  0.12500382700E+03 0.  0.
    9000005    1    3    3    0    0 -0.48855322107E+02 -0.10879711739E+02  0.52256749810E+02  0.72366971239E+02  0.10000000000E+01 0.  0.
    9000005    1    3    3    0    0  0.48855322107E+02  0.10879711739E+02 -0.24417387356E+02  0.55699366522E+02  0.10000000000E+01 0.  0.
<mgrwt>
<rscale>  0 0.12500383E+03</rscale>
<asrwt>0</asrwt>
<pdfrwt beam="1">  1        4 0.11992746E-01 0.12500383E+03</pdfrwt>
<pdfrwt beam="2">  1       -4 0.77097674E-02 0.12500383E+03</pdfrwt>
<totfact> 0.10385158E+04</totfact>
</mgrwt>
</event>
<event>
 5    1  0.3257199E-002  0.1250037E+03  0.7818608E-02  0.1235063E+00
          4   -1    0    0  501    0  0.00000000000E+00  0.00000000000E+00  0.22633139999E+02  0.22668743375E+02  0.12700000000E+01 0. -1.
         -4   -1    0    0    0  501 -0.00000000000E+00 -0.00000000000E+00 -0.17242649258E+03  0.17243116958E+03  0.12700000000E+01 0. -1.
         25    2    1    2    0    0  0.00000000000E+00  0.00000000000E+00 -0.14979335258E+03  0.19509991296E+03  0.12500371018E+03 0.  0.
    9000005    1    3    3    0    0  0.56902028027E+02  0.25127547653E+02 -0.65500030146E+02  0.90335421589E+02  0.10000000000E+01 0.  0.
    9000005    1    3    3    0    0 -0.56902028027E+02 -0.25127547653E+02 -0.84293322437E+02  0.10476449137E+03  0.10000000000E+01 0.  0.
<mgrwt>
<rscale>  0 0.12500371E+03</rscale>
<asrwt>0</asrwt>
<pdfrwt beam="1">  1        4 0.34851201E-02 0.12500371E+03</pdfrwt>
<pdfrwt beam="2">  1       -4 0.26530250E-01 0.12500371E+03</pdfrwt>
<totfact> 0.90959885E+03</totfact>
</mgrwt>
</event>
<event>
 5    1  0.3257199E-002  0.1249990E+03  0.7818608E-02  0.1235071E+00
          4   -1    0    0  501    0  0.00000000000E+00  0.00000000000E+00  0.60729976542E+02  0.60743254365E+02  0.12700000000E+01 0. -1.
         -4   -1    0    0    0  501 -0.00000000000E+00 -0.00000000000E+00 -0.64294029235E+02  0.64306571167E+02  0.12700000000E+01 0. -1.
         25    2    1    2    0    0  0.00000000000E+00  0.00000000000E+00 -0.35640526922E+01  0.12504982553E+03  0.12499902557E+03 0.  0.
    9000005    1    3    3    0    0 -0.42970735241E+02 -0.38931972607E+02 -0.25093996849E+02  0.63189328657E+02  0.10000000000E+01 0.  0.
    9000005    1    3    3    0    0  0.42970735241E+02  0.38931972607E+02  0.21529944157E+02  0.61860496875E+02  0.10000000000E+01 0.  0.
<mgrwt>
<rscale>  0 0.12499903E+03</rscale>
<asrwt>0</asrwt>
<pdfrwt beam="1">  1        4 0.93450594E-02 0.12499903E+03</pdfrwt>
<pdfrwt beam="2">  1       -4 0.98933753E-02 0.12499903E+03</pdfrwt>
<totfact> 0.10452011E+04</totfact>
</mgrwt>
</event>
<event>
 5    1  0.3257199E-002  0.1250045E+03  0.7818608E-02  0.1235062E+00
          4   -1    0    0  501    0  0.00000000000E+00  0.00000000000E+00  0.82055926019E+02  0.82065753484E+02  0.12700000000E+01 0. -1.
         -4   -1    0    0    0  501 -0.00000000000E+00 -0.00000000000E+00 -0.47586991142E+02  0.47603934984E+02  0.12700000000E+01 0. -1.
         25    2    1    2    0    0  0.00000000000E+00  0.00000000000E+00  0.34468934877E+02  0.12966968847E+03  0.12500448246E+03 0.  0.
    9000005    1    3    3    0    0  0.28339084447E+01 -0.55258326760E+02 -0.12901721881E+02  0.56824010250E+02  0.10000000000E+01 0.  0.
    9000005    1    3    3    0    0 -0.28339084447E+01  0.55258326760E+02  0.47370656757E+02  0.72845678218E+02  0.10000000000E+01 0.  0.
<mgrwt>
<rscale>  0 0.12500448E+03</rscale>
<asrwt>0</asrwt>
<pdfrwt beam="1">  1        4 0.12626048E-01 0.12500448E+03</pdfrwt>
<pdfrwt beam="2">  1       -4 0.73231350E-02 0.12500448E+03</pdfrwt>
<totfact> 0.10350531E+04</totfact>
</mgrwt>
</event>
<event>
 5    1  0.3257199E-002  0.1250014E+03  0.7818608E-02  0.1235067E+00
          4   -1    0    0  501    0  0.00000000000E+00  0.00000000000E+00  0.19818866308E+03  0.19819273214E+03  0.12700000000E+01 0.  1.
         -4   -1    0    0    0  501 -0.00000000000E+00 -0.00000000000E+00 -0.19685447099E+02  0.19726371372E+02  0.12700000000E+01 0.  1.
         25    2    1    2    0    0  0.00000000000E+00  0.00000000000E+00  0.17850321598E+03  0.21791910351E+03  0.12500135023E+03 0.  0.
    9000005    1    3    3    0    0  0.23177643244E+02  0.57731614079E+02  0.99593558324E+02  0.11743091275E+03  0.10000000000E+01 0.  0.
    9000005    1    3    3    0    0 -0.23177643244E+02 -0.57731614079E+02  0.78909657658E+02  0.10048819076E+03  0.10000000000E+01 0.  0.
<mgrwt>
<rscale>  0 0.12500135E+03</rscale>
<asrwt>0</asrwt>
<pdfrwt beam="1">  1        4 0.30494026E-01 0.12500135E+03</pdfrwt>
<pdfrwt beam="2">  1       -4 0.30319912E-02 0.12500135E+03</pdfrwt>
<totfact> 0.87196067E+03</totfact>
</mgrwt>
</event>
<event>
 5    1  0.3257199E-002  0.1249977E+03  0.7818608E-02  0.1235073E+00
          4   -1    0    0  501    0  0.00000000000E+00  0.00000000000E+00  0.34666031297E+03  0.34666263931E+03  0.12700000000E+01 0.  1.
         -4   -1    0    0    0  501 -0.00000000000E+00 -0.00000000000E+00 -0.11229672019E+02  0.11301258056E+02  0.12700000000E+01 0.  1.
         25    2    1    2    0    0  0.00000000000E+00  0.00000000000E+00  0.33543064096E+03  0.35796389736E+03  0.12499774768E+03 0.  0.
    9000005    1    3    3    0    0 -0.30299823398E+02  0.17788943557E+02  0.31570795946E+03  0.31765868708E+03  0.10000000000E+01 0.  0.
    9000005    1    3    3    0    0  0.30299823398E+02 -0.17788943557E+02  0.19722681499E+02  0.40305210287E+02  0.10000000000E+01 0.  0.
<mgrwt>
<rscale>  0 0.12499775E+03</rscale>
<asrwt>0</asrwt>
<pdfrwt beam="1">  1        4 0.53338038E-01 0.12499775E+03</pdfrwt>
<pdfrwt beam="2">  1       -4 0.17333275E-02 0.12499775E+03</pdfrwt>
<totfact> 0.68860656E+03</totfact>
</mgrwt>
</event>
<event>
 5    1  0.3257199E-002  0.1250191E+03  0.7818608E-02  0.1235039E+00
         -4   -1    0    0    0  501 -0.00000000000E+00  0.00000000000E+00  0.30150899997E+03  0.30151167467E+03  0.12700000000E+01 0. -1.
          4   -1    0    0  501    0  0.00000000000E+00 -0.00000000000E+00 -0.12925771085E+02  0.12988012093E+02  0.12700000000E+01 0. -1.
         25    2    1    2    0    0  0.00000000000E+00  0.00000000000E+00  0.28858322889E+03  0.31449968677E+03  0.12501909047E+03 0.  0.
    9000005    1    3    3    0    0 -0.45336061113E+02 -0.39821832324E+02  0.10331672319E+03  0.11965150253E+03  0.10000000000E+01 0.  0.
    9000005    1    3    3    0    0  0.45336061113E+02  0.39821832324E+02  0.18526650570E+03  0.19484818424E+03  0.10000000000E+01 0.  0.
<mgrwt>
<rscale>  0 0.12501909E+03</rscale>
<asrwt>0</asrwt>
<pdfrwt beam="2">  1        4 0.19935739E-02 0.12501909E+03</pdfrwt>
<pdfrwt beam="1">  1       -4 0.46390988E-01 0.12501909E+03</pdfrwt>
<totfact> 0.73783889E+03</totfact>
</mgrwt>
</event>
<event>
 5    1  0.3257199E-002  0.1250037E+03  0.7818608E-02  0.1235064E+00
          4   -1    0    0  501    0  0.00000000000E+00  0.00000000000E+00  0.78608441059E+01  0.79627740177E+01  0.12700000000E+01 0.  1.
         -4   -1    0    0    0  501 -0.00000000000E+00 -0.00000000000E+00 -0.49365027801E+03  0.49365191166E+03  0.12700000000E+01 0.  1.
         25    2    1    2    0    0  0.00000000000E+00  0.00000000000E+00 -0.48578943391E+03  0.50161468568E+03  0.12500367510E+03 0.  0.
    9000005    1    3    3    0    0  0.24429728564E+02  0.28991403968E+01 -0.47342168560E+03  0.47406150345E+03  0.10000000000E+01 0.  0.
    9000005    1    3    3    0    0 -0.24429728564E+02 -0.28991403968E+01 -0.12367748308E+02  0.27553182230E+02  0.10000000000E+01 0.  0.
<mgrwt>
<rscale>  0 0.12500368E+03</rscale>
<asrwt>0</asrwt>
<pdfrwt beam="1">  1        4 0.12173274E-02 0.12500368E+03</pdfrwt>
<pdfrwt beam="2">  1       -4 0.75954139E-01 0.12500368E+03</pdfrwt>
<totfact> 0.55734811E+03</totfact>
</mgrwt>
</event>
<event>
 5    1  0.3257199E-002  0.1249984E+03  0.7818608E-02  0.1235072E+00
         -4   -1    0    0    0  501 -0.00000000000E+00  0.00000000000E+00  0.92276505940E+01  0.93146355530E+01  0.12700000000E+01 0.  1.
          4   -1    0    0  501    0  0.00000000000E+00 -0.00000000000E+00 -0.42123582062E+03  0.42123773510E+03  0.12700000000E+01 0.  1.
         25    2    1    2    0    0  0.00000000000E+00  0.00000000000E+00 -0.41200817003E+03  0.43055237065E+03  0.12499844682E+03 0.  0.
    9000005    1    3    3    0    0 -0.18672809119E+02 -0.11741809209E+02 -0.40739788049E+03  0.40799580501E+03  0.10000000000E+01 0.  0.
    9000005    1    3    3    0    0  0.18672809119E+02  0.11741809209E+02 -0.46102895407E+01  0.22556565642E+02  0.10000000000E+01 0.  0.
<mgrwt>
<rscale>  0 0.12499845E+03</rscale>
<asrwt>0</asrwt>
<pdfrwt beam="2">  1        4 0.64812334E-01 0.12499845E+03</pdfrwt>
<pdfrwt beam="1">  1       -4 0.14264773E-02 0.12499845E+03</pdfrwt>
<totfact> 0.61688073E+03</totfact>
</mgrwt>
</event>
<event>
 5    1  0.3257199E-002  0.1250011E+03  0.7818608E-02  0.1235068E+00
         -4   -1    0    0    0  501 -0.00000000000E+00  0.00000000000E+00  0.17667979129E+01  0.21758848465E+01  0.12700000000E+01 0. -1.
          4   -1    0    0  501    0  0.00000000000E+00 -0.00000000000E+00 -0.19811439674E+04  0.19811443744E+04  0.12700000000E+01 0. -1.
         25    2    1    2    0    0  0.00000000000E+00  0.00000000000E+00 -0.19793771695E+04  0.19833202593E+04  0.12500108759E+03 0.  0.
    9000005    1    3    3    0    0 -0.35977197413E+01  0.20932455802E+02 -0.19221979806E+04  0.19223155797E+04  0.10000000000E+01 0.  0.
    9000005    1    3    3    0    0  0.35977197413E+01 -0.20932455802E+02 -0.57179188817E+02  0.61004679550E+02  0.10000000000E+01 0.  0.
<mgrwt>
<rscale>  0 0.12500109E+03</rscale>
<asrwt>0</asrwt>
<pdfrwt beam="2">  1        4 0.30482129E+00 0.12500109E+03</pdfrwt>
<pdfrwt beam="1">  1       -4 0.30331619E-03 0.12500109E+03</pdfrwt>
<totfact> 0.10080430E+03</totfact>
</mgrwt>
</event>
<event>
 5    1  0.3257199E-002  0.1250012E+03  0.7818608E-02  0.1235067E+00
         -4   -1    0    0    0  501 -0.00000000000E+00  0.00000000000E+00  0.82460941013E+02  0.82470720215E+02  0.12700000000E+01 0.  1.
          4   -1    0    0  501    0  0.00000000000E+00 -0.00000000000E+00 -0.47350718737E+02  0.47367747095E+02  0.12700000000E+01 0.  1.
         25    2    1    2    0    0  0.00000000000E+00  0.00000000000E+00  0.35110222276E+02  0.12983846731E+03  0.12500119954E+03 0.  0.
    9000005    1    3    3    0    0  0.25762949380E+02 -0.10154910234E+02  0.75745118538E+02  0.80654663504E+02  0.10000000000E+01 0.  0.
    9000005    1    3    3    0    0 -0.25762949380E+02  0.10154910234E+02 -0.40634896262E+02  0.49183803806E+02  0.10000000000E+01 0.  0.
<mgrwt>
<rscale>  0 0.12500120E+03</rscale>
<asrwt>0</asrwt>
<pdfrwt beam="2">  1        4 0.72867881E-02 0.12500120E+03</pdfrwt>
<pdfrwt beam="1">  1       -4 0.12688361E-01 0.12500120E+03</pdfrwt>
<totfact> 0.10347684E+04</totfact>
</mgrwt>
</event>
<event>
 5    1  0.3257199E-002  0.1250004E+03  0.7818608E-02  0.1235069E+00
          4   -1    0    0  501    0  0.00000000000E+00  0.00000000000E+00  0.34468783740E+03  0.34469017705E+03  0.12700000000E+01 0. -1.
         -4   -1    0    0    0  501 -0.00000000000E+00 -0.00000000000E+00 -0.11294833320E+02  0.11366008962E+02  0.12700000000E+01 0. -1.
         25    2    1    2    0    0  0.00000000000E+00  0.00000000000E+00  0.33339300408E+03  0.35605618601E+03  0.12500044970E+03 0.  0.
    9000005    1    3    3    0    0  0.88369567819E+01  0.33273899339E+02  0.18139160064E+02  0.38926511663E+02  0.10000000000E+01 0.  0.
    9000005    1    3    3    0    0 -0.88369567819E+01 -0.33273899339E+02  0.31525384402E+03  0.31712967435E+03  0.10000000000E+01 0.  0.
<mgrwt>
<rscale>  0 0.12500045E+03</rscale>
<asrwt>0</asrwt>
<pdfrwt beam="1">  1        4 0.53034552E-01 0.12500045E+03</pdfrwt>
<pdfrwt beam="2">  1       -4 0.17433217E-02 0.12500045E+03</pdfrwt>
<totfact> 0.69062712E+03</totfact>
</mgrwt>
</event>
<event>
 5    1  0.3257199E-002  0.1250040E+03  0.7818608E-02  0.1235063E+00
         -4   -1    0    0    0  501 -0.00000000000E+00  0.00000000000E+00  0.12434087132E+03  0.12434735695E+03  0.12700000000E+01 0.  1.
          4   -1    0    0  501    0  0.00000000000E+00 -0.00000000000E+00 -0.31397529079E+02  0.31423203723E+02  0.12700000000E+01 0.  1.
         25    2    1    2    0    0  0.00000000000E+00  0.00000000000E+00  0.92943342237E+02  0.15577056067E+03  0.12500401076E+03 0.  0.
    9000005    1    3    3    0    0  0.37780064159E+02  0.56705786750E+01 -0.15158124024E+02  0.41112740535E+02  0.10000000000E+01 0.  0.
    9000005    1    3    3    0    0 -0.37780064159E+02 -0.56705786750E+01  0.10810146626E+03  0.11465782013E+03  0.10000000000E+01 0.  0.
<mgrwt>
<rscale>  0 0.12500401E+03</rscale>
<asrwt>0</asrwt>
<pdfrwt beam="2">  1        4 0.48328629E-02 0.12500401E+03</pdfrwt>
<pdfrwt beam="1">  1       -4 0.19131839E-01 0.12500401E+03</pdfrwt>
<totfact> 0.98155587E+03</totfact>
</mgrwt>
</event>
<event>
 5    1  0.3257199E-002  0.1250005E+03  0.7818608E-02  0.1235069E+00
         -4   -1    0    0    0  501 -0.00000000000E+00  0.00000000000E+00  0.13559603206E+03  0.13560197937E+03  0.12700000000E+01 0. -1.
          4   -1    0    0  501    0  0.00000000000E+00 -0.00000000000E+00 -0.28787642928E+02  0.28815643067E+02  0.12700000000E+01 0. -1.
         25    2    1    2    0    0  0.00000000000E+00  0.00000000000E+00  0.10680838913E+03  0.16441762244E+03  0.12500049032E+03 0.  0.
    9000005    1    3    3    0    0  0.45042300946E+02 -0.43021043178E+02  0.60067329902E+02  0.86537293418E+02  0.10000000000E+01 0.  0.
    9000005    1    3    3    0    0 -0.45042300946E+02  0.43021043178E+02  0.46741059226E+02  0.77880329019E+02  0.10000000000E+01 0.  0.
<mgrwt>
<rscale>  0 0.12500049E+03</rscale>
<asrwt>0</asrwt>
<pdfrwt beam="2">  1        4 0.44314794E-02 0.12500049E+03</pdfrwt>
<pdfrwt beam="1">  1       -4 0.20863540E-01 0.12500049E+03</pdfrwt>
<totfact> 0.96496736E+03</totfact>
</mgrwt>
</event>
<event>
 5    1  0.3257199E-002  0.1250016E+03  0.7818608E-02  0.1235067E+00
          4   -1    0    0  501    0  0.00000000000E+00  0.00000000000E+00  0.68606210118E+01  0.69771785607E+01  0.12700000000E+01 0.  1.
         -4   -1    0    0    0  501 -0.00000000000E+00 -0.00000000000E+00 -0.56447365305E+03  0.56447508173E+03  0.12700000000E+01 0.  1.
         25    2    1    2    0    0  0.00000000000E+00  0.00000000000E+00 -0.55761303204E+03  0.57145226029E+03  0.12500156913E+03 0.  0.
    9000005    1    3    3    0    0  0.35989032193E+01  0.54743762317E+02 -0.41561129702E+03  0.41921782145E+03  0.10000000000E+01 0.  0.
    9000005    1    3    3    0    0 -0.35989032193E+01 -0.54743762317E+02 -0.14200173503E+03  0.15223443883E+03  0.10000000000E+01 0.  0.
<mgrwt>
<rscale>  0 0.12500157E+03</rscale>
<asrwt>0</asrwt>
<pdfrwt beam="1">  1        4 0.10645565E-02 0.12500157E+03</pdfrwt>
<pdfrwt beam="2">  1       -4 0.86851140E-01 0.12500157E+03</pdfrwt>
<totfact> 0.50718945E+03</totfact>
</mgrwt>
</event>
<event>
 5    1  0.3257199E-002  0.1249996E+03  0.7818608E-02  0.1235070E+00
          4   -1    0    0  501    0  0.00000000000E+00  0.00000000000E+00  0.15566880336E+03  0.15567398382E+03  0.12700000000E+01 0.  1.
         -4   -1    0    0    0  501 -0.00000000000E+00 -0.00000000000E+00 -0.25071513071E+02  0.25103658452E+02  0.12700000000E+01 0.  1.
         25    2    1    2    0    0  0.00000000000E+00  0.00000000000E+00  0.13059729029E+03  0.18077764227E+03  0.12499961486E+03 0.  0.
    9000005    1    3    3    0    0  0.47256285556E+02  0.20974280262E+02  0.11606402645E+03  0.12706272149E+03  0.10000000000E+01 0.  0.
    9000005    1    3    3    0    0 -0.47256285556E+02 -0.20974280262E+02  0.14533263841E+02  0.53714920785E+02  0.10000000000E+01 0.  0.
<mgrwt>
<rscale>  0 0.12499961E+03</rscale>
<asrwt>0</asrwt>
<pdfrwt beam="1">  1        4 0.23951918E-01 0.12499961E+03</pdfrwt>
<pdfrwt beam="2">  1       -4 0.38600271E-02 0.12499961E+03</pdfrwt>
<totfact> 0.93478019E+03</totfact>
</mgrwt>
</event>
<event>
 5    1  0.3257199E-002  0.1250012E+03  0.7818608E-02  0.1235067E+00
         -4   -1    0    0    0  501 -0.00000000000E+00  0.00000000000E+00  0.58983981458E+02  0.58997652230E+02  0.12700000000E+01 0. -1.
          4   -1    0    0  501    0  0.00000000000E+00 -0.00000000000E+00 -0.66199420917E+02  0.66211601928E+02  0.12700000000E+01 0. -1.
         25    2    1    2    0    0  0.00000000000E+00  0.00000000000E+00 -0.72154394593E+01  0.12520925416E+03  0.12500117903E+03 0.  0.
    9000005    1    3    3    0    0 -0.21436168569E+02  0.58562383302E+02 -0.76470033150E+01  0.62837399060E+02  0.10000000000E+01 0.  0.
    9000005    1    3    3    0    0  0.21436168569E+02 -0.58562383302E+02  0.43156385566E+00  0.62371855097E+02  0.10000000000E+01 0.  0.
<mgrwt>
<rscale>  0 0.12500118E+03</rscale>
<asrwt>0</asrwt>
<pdfrwt beam="2">  1        4 0.10186515E-01 0.12500118E+03</pdfrwt>
<pdfrwt beam="1">  1       -4 0.90764473E-02 0.12500118E+03</pdfrwt>
<totfact> 0.10448041E+04</totfact>
</mgrwt>
</event>
<event>
 5    1  0.3257199E-002  0.1249997E+03  0.7818608E-02  0.1235070E+00
         -4   -1    0    0    0  501 -0.00000000000E+00  0.00000000000E+00  0.15855292167E+03  0.15855800791E+03  0.12700000000E+01 0.  1.
          4   -1    0    0  501    0  0.00000000000E+00 -0.00000000000E+00 -0.24614894567E+02  0.24647635475E+02  0.12700000000E+01 0.  1.
         25    2    1    2    0    0  0.00000000000E+00  0.00000000000E+00  0.13393802711E+03  0.18320564338E+03  0.12499965065E+03 0.  0.
    9000005    1    3    3    0    0 -0.13725130760E+02  0.51525453884E+02  0.11473156431E+03  0.12652107912E+03  0.10000000000E+01 0.  0.
    9000005    1    3    3    0    0  0.13725130760E+02 -0.51525453884E+02  0.19206462794E+02  0.56684564260E+02  0.10000000000E+01 0.  0.
<mgrwt>
<rscale>  0 0.12499965E+03</rscale>
<asrwt>0</asrwt>
<pdfrwt beam="2">  1        4 0.37898168E-02 0.12499965E+03</pdfrwt>
<pdfrwt beam="1">  1       -4 0.24395666E-01 0.12499965E+03</pdfrwt>
<totfact> 0.93043868E+03</totfact>
</mgrwt>
</event>
<event>
 5    1  0.3257199E-002  0.1250020E+03  0.7818608E-02  0.1235066E+00
         -4   -1    0    0    0  501 -0.00000000000E+00  0.00000000000E+00  0.21428164724E+02  0.21465766780E+02  0.12700000000E+01 0. -1.
          4   -1    0    0  501    0  0.00000000000E+00 -0.00000000000E+00 -0.18210122873E+03  0.18210565726E+03  0.12700000000E+01 0. -1.
         25    2    1    2    0    0  0.00000000000E+00  0.00000000000E+00 -0.16067306401E+03  0.20357142404E+03  0.12500196473E+03 0.  0.
    9000005    1    3    3    0    0 -0.15740761355E+00 -0.62435813838E+02 -0.84681170502E+02  0.10521481010E+03  0.10000000000E+01 0.  0.
    9000005    1    3    3    0    0  0.15740761355E+00  0.62435813838E+02 -0.75991893503E+02  0.98356613936E+02  0.10000000000E+01 0.  0.
<mgrwt>
<rscale>  0 0.12500196E+03</rscale>
<asrwt>0</asrwt>
<pdfrwt beam="2">  1        4 0.28018806E-01 0.12500196E+03</pdfrwt>
<pdfrwt beam="1">  1       -4 0.32998740E-02 0.12500196E+03</pdfrwt>
<totfact> 0.89532698E+03</totfact>
</mgrwt>
</event>
<event>
 5    1  0.3257199E-002  0.1249976E+03  0.7818608E-02  0.1235073E+00
          4   -1    0    0  501    0  0.00000000000E+00  0.00000000000E+00  0.42097722601E+02  0.42116874862E+02  0.12700000000E+01 0.  1.
         -4   -1    0    0    0  501 -0.00000000000E+00 -0.00000000000E+00 -0.92741826178E+02  0.92750521415E+02  0.12700000000E+01 0.  1.
         25    2    1    2    0    0  0.00000000000E+00  0.00000000000E+00 -0.50644103577E+02  0.13486739628E+03  0.12499755738E+03 0.  0.
    9000005    1    3    3    0    0  0.38173307569E+02  0.49351391997E+02 -0.29111650689E+02  0.68856731759E+02  0.10000000000E+01 0.  0.
    9000005    1    3    3    0    0 -0.38173307569E+02 -0.49351391997E+02 -0.21532452888E+02  0.66010664518E+02  0.10000000000E+01 0.  0.
<mgrwt>
<rscale>  0 0.12499756E+03</rscale>
<asrwt>0</asrwt>
<pdfrwt beam="1">  1        4 0.64787148E-02 0.12499756E+03</pdfrwt>
<pdfrwt beam="2">  1       -4 0.14270115E-01 0.12499756E+03</pdfrwt>
<totfact> 0.10241431E+04</totfact>
</mgrwt>
</event>
<event>
 5    1  0.3257199E-002  0.1249984E+03  0.7818608E-02  0.1235072E+00
          4   -1    0    0  501    0  0.00000000000E+00  0.00000000000E+00  0.25190883559E+03  0.25191203693E+03  0.12700000000E+01 0. -1.
         -4   -1    0    0    0  501 -0.00000000000E+00 -0.00000000000E+00 -0.15476894759E+02  0.15528914043E+02  0.12700000000E+01 0. -1.
         25    2    1    2    0    0  0.00000000000E+00  0.00000000000E+00  0.23643194083E+03  0.26744095097E+03  0.12499839843E+03 0.  0.
    9000005    1    3    3    0    0 -0.39281354745E+02  0.48254293806E+02  0.13062690211E+03  0.14469239530E+03  0.10000000000E+01 0.  0.
    9000005    1    3    3    0    0  0.39281354745E+02 -0.48254293806E+02  0.10580503872E+03  0.12274855568E+03  0.10000000000E+01 0.  0.
<mgrwt>
<rscale>  0 0.12499840E+03</rscale>
<asrwt>0</asrwt>
<pdfrwt beam="1">  1        4 0.38759453E-01 0.12499840E+03</pdfrwt>
<pdfrwt beam="2">  1       -4 0.23853085E-02 0.12499840E+03</pdfrwt>
<totfact> 0.79875883E+03</totfact>
</mgrwt>
</event>
<event>
 5    1  0.3257199E-002  0.1249996E+03  0.7818608E-02  0.1235070E+00
          4   -1    0    0  501    0  0.00000000000E+00  0.00000000000E+00  0.22387358455E+03  0.22387718678E+03  0.12700000000E+01 0.  1.
         -4   -1    0    0    0  501 -0.00000000000E+00 -0.00000000000E+00 -0.17421481248E+02  0.17467710465E+02  0.12700000000E+01 0.  1.
         25    2    1    2    0    0  0.00000000000E+00  0.00000000000E+00  0.20645210330E+03  0.24134489724E+03  0.12499955387E+03 0.  0.
    9000005    1    3    3    0    0  0.24528114539E+02  0.32394854322E+02  0.11557005147E+02  0.42256589514E+02  0.10000000000E+01 0.  0.
    9000005    1    3    3    0    0 -0.24528114539E+02 -0.32394854322E+02  0.19489509816E+03  0.19908830773E+03  0.10000000000E+01 0.  0.
<mgrwt>
<rscale>  0 0.12499955E+03</rscale>
<asrwt>0</asrwt>
<pdfrwt beam="1">  1        4 0.34445924E-01 0.12499955E+03</pdfrwt>
<pdfrwt beam="2">  1       -4 0.26840610E-02 0.12499955E+03</pdfrwt>
<totfact> 0.83598306E+03</totfact>
</mgrwt>
</event>
<event>
 5    1  0.3257199E-002  0.1249501E+03  0.7818608E-02  0.1235147E+00
         -4   -1    0    0    0  501 -0.00000000000E+00  0.00000000000E+00  0.97926561888E+02  0.97934796795E+02  0.12700000000E+01 0.  1.
          4   -1    0    0  501    0  0.00000000000E+00 -0.00000000000E+00 -0.39837733437E+02  0.39857971667E+02  0.12700000000E+01 0.  1.
         25    2    1    2    0    0  0.00000000000E+00  0.00000000000E+00  0.58088828451E+02  0.13779276846E+03  0.12495013025E+03 0.  0.
    9000005    1    3    3    0    0 -0.50268598533E+02  0.36296127103E+02  0.37427946414E+02  0.72430601364E+02  0.10000000000E+01 0.  0.
    9000005    1    3    3    0    0  0.50268598533E+02 -0.36296127103E+02  0.20660882037E+02  0.65362167098E+02  0.10000000000E+01 0.  0.
<mgrwt>
<rscale>  0 0.12495013E+03</rscale>
<asrwt>0</asrwt>
<pdfrwt beam="2">  1        4 0.61310723E-02 0.12495013E+03</pdfrwt>
<pdfrwt beam="1">  1       -4 0.15067815E-01 0.12495013E+03</pdfrwt>
<totfact> 0.10190986E+04</totfact>
</mgrwt>
</event>
<event>
 5    1  0.3257199E-002  0.1249974E+03  0.7818608E-02  0.1235073E+00
         -4   -1    0    0    0  501 -0.00000000000E+00  0.00000000000E+00  0.40853758431E+02  0.40873493586E+02  0.12700000000E+01 0.  1.
          4   -1    0    0  501    0  0.00000000000E+00 -0.00000000000E+00 -0.95564425795E+02  0.95572864232E+02  0.12700000000E+01 0.  1.
         25    2    1    2    0    0  0.00000000000E+00  0.00000000000E+00 -0.54710667364E+02  0.13644635782E+03  0.12499740573E+03 0.  0.
    9000005    1    3    3    0    0  0.44729397176E+02  0.41616908272E+02 -0.13022505705E+02  0.62476168902E+02  0.10000000000E+01 0.  0.
    9000005    1    3    3    0    0 -0.44729397176E+02 -0.41616908272E+02 -0.41688161659E+02  0.73970188917E+02  0.10000000000E+01 0.  0.
<mgrwt>
<rscale>  0 0.12499741E+03</rscale>
<asrwt>0</asrwt>
<pdfrwt beam="2">  1        4 0.14704387E-01 0.12499741E+03</pdfrwt>
<pdfrwt beam="1">  1       -4 0.62873608E-02 0.12499741E+03</pdfrwt>
<totfact> 0.10208272E+04</totfact>
</mgrwt>
</event>
<event>
 5    1  0.3257199E-002  0.1250006E+03  0.7818608E-02  0.1235068E+00
         -4   -1    0    0    0  501 -0.00000000000E+00  0.00000000000E+00  0.63541498004E+02  0.63554188442E+02  0.12700000000E+01 0. -1.
          4   -1    0    0  501    0  0.00000000000E+00 -0.00000000000E+00 -0.61450726497E+02  0.61463848618E+02  0.12700000000E+01 0. -1.
         25    2    1    2    0    0  0.00000000000E+00  0.00000000000E+00  0.20907715071E+01  0.12501803706E+03  0.12500055306E+03 0.  0.
    9000005    1    3    3    0    0  0.15477444962E+02  0.90977022618E+01 -0.58820860630E+02  0.61507829861E+02  0.10000000000E+01 0.  0.
    9000005    1    3    3    0    0 -0.15477444962E+02 -0.90977022618E+01  0.60911632137E+02  0.63510207200E+02  0.10000000000E+01 0.  0.
<mgrwt>
<rscale>  0 0.12500055E+03</rscale>
<asrwt>0</asrwt>
<pdfrwt beam="2">  1        4 0.94559435E-02 0.12500055E+03</pdfrwt>
<pdfrwt beam="1">  1       -4 0.97776007E-02 0.12500055E+03</pdfrwt>
<totfact> 0.10452340E+04</totfact>
</mgrwt>
</event>
<event>
 5    1  0.3257199E-002  0.1250017E+03  0.7818608E-02  0.1235067E+00
          4   -1    0    0  501    0  0.00000000000E+00  0.00000000000E+00  0.79616533660E+03  0.79616634952E+03  0.12700000000E+01 0. -1.
         -4   -1    0    0    0  501 -0.00000000000E+00 -0.00000000000E+00 -0.48232454215E+01  0.49876443735E+01  0.12700000000E+01 0. -1.
         25    2    1    2    0    0  0.00000000000E+00  0.00000000000E+00  0.79134209118E+03  0.80115399389E+03  0.12500166661E+03 0.  0.
    9000005    1    3    3    0    0  0.26070579149E+02  0.19632274303E+02  0.54101845585E+02  0.63191067306E+02  0.10000000000E+01 0.  0.
    9000005    1    3    3    0    0 -0.26070579149E+02 -0.19632274303E+02  0.73724024560E+03  0.73796292659E+03  0.10000000000E+01 0.  0.
<mgrwt>
<rscale>  0 0.12500167E+03</rscale>
<asrwt>0</asrwt>
<pdfrwt beam="1">  1        4 0.12249963E+00 0.12500167E+03</pdfrwt>
<pdfrwt beam="2">  1       -4 0.75476218E-03 0.12500167E+03</pdfrwt>
<totfact> 0.38211887E+03</totfact>
</mgrwt>
</event>
<event>
 5    1  0.3257199E-002  0.1250006E+03  0.7818608E-02  0.1235068E+00
         -4   -1    0    0    0  501 -0.00000000000E+00  0.00000000000E+00  0.84309367146E+02  0.84318931970E+02  0.12700000000E+01 0.  1.
          4   -1    0    0  501    0  0.00000000000E+00 -0.00000000000E+00 -0.46311855706E+02  0.46329265901E+02  0.12700000000E+01 0.  1.
         25    2    1    2    0    0  0.00000000000E+00  0.00000000000E+00  0.37997511440E+02  0.13064819787E+03  0.12500056292E+03 0.  0.
    9000005    1    3    3    0    0 -0.37377313111E+02  0.13665386103E+02 -0.31359864497E+02  0.50677878942E+02  0.10000000000E+01 0.  0.
    9000005    1    3    3    0    0  0.37377313111E+02 -0.13665386103E+02  0.69357375938E+02  0.79970318930E+02  0.10000000000E+01 0.  0.
<mgrwt>
<rscale>  0 0.12500056E+03</rscale>
<asrwt>0</asrwt>
<pdfrwt beam="2">  1        4 0.71269759E-02 0.12500056E+03</pdfrwt>
<pdfrwt beam="1">  1       -4 0.12972747E-01 0.12500056E+03</pdfrwt>
<totfact> 0.10330506E+04</totfact>
</mgrwt>
</event>
<event>
 5    1  0.3257199E-002  0.1249966E+03  0.7818608E-02  0.1235075E+00
         -4   -1    0    0    0  501 -0.00000000000E+00  0.00000000000E+00  0.24718352108E+02  0.24750956162E+02  0.12700000000E+01 0. -1.
          4   -1    0    0  501    0  0.00000000000E+00 -0.00000000000E+00 -0.15788243450E+03  0.15788754233E+03  0.12700000000E+01 0. -1.
         25    2    1    2    0    0  0.00000000000E+00  0.00000000000E+00 -0.13316408239E+03  0.18263849849E+03  0.12499659312E+03 0.  0.
    9000005    1    3    3    0    0 -0.54859362948E+02  0.26071325710E+02 -0.88045170894E+02  0.10696829364E+03  0.10000000000E+01 0.  0.
    9000005    1    3    3    0    0  0.54859362948E+02 -0.26071325710E+02 -0.45118911498E+02  0.75670204850E+02  0.10000000000E+01 0.  0.
<mgrwt>
<rscale>  0 0.12499659E+03</rscale>
<asrwt>0</asrwt>
<pdfrwt beam="2">  1        4 0.24292505E-01 0.12499659E+03</pdfrwt>
<pdfrwt beam="1">  1       -4 0.38057244E-02 0.12499659E+03</pdfrwt>
<totfact> 0.93151323E+03</totfact>
</mgrwt>
</event>
<event>
 5    1  0.3257199E-002  0.1249981E+03  0.7818608E-02  0.1235072E+00
          4   -1    0    0  501    0  0.00000000000E+00  0.00000000000E+00  0.50415008968E+02  0.50431002660E+02  0.12700000000E+01 0. -1.
         -4   -1    0    0    0  501 -0.00000000000E+00 -0.00000000000E+00 -0.77446072756E+02  0.77456485108E+02  0.12700000000E+01 0. -1.
         25    2    1    2    0    0  0.00000000000E+00  0.00000000000E+00 -0.27031063787E+02  0.12788748777E+03  0.12499812446E+03 0.  0.
    9000005    1    3    3    0    0 -0.48559511570E-01 -0.42394489877E+02  0.33456910039E+02  0.54015367807E+02  0.10000000000E+01 0.  0.
    9000005    1    3    3    0    0  0.48559511570E-01  0.42394489877E+02 -0.60487973826E+02  0.73872119961E+02  0.10000000000E+01 0.  0.
<mgrwt>
<rscale>  0 0.12499812E+03</rscale>
<asrwt>0</asrwt>
<pdfrwt beam="1">  1        4 0.77581865E-02 0.12499812E+03</pdfrwt>
<pdfrwt beam="2">  1       -4 0.11916812E-01 0.12499812E+03</pdfrwt>
<totfact> 0.10390358E+04</totfact>
</mgrwt>
</event>
<event>
 5    1  0.3257199E-002  0.1249999E+03  0.7818608E-02  0.1235069E+00
         -4   -1    0    0    0  501 -0.00000000000E+00  0.00000000000E+00  0.12165747100E+02  0.12231856053E+02  0.12700000000E+01 0. -1.
          4   -1    0    0  501    0  0.00000000000E+00 -0.00000000000E+00 -0.32014794805E+03  0.32015046703E+03  0.12700000000E+01 0. -1.
         25    2    1    2    0    0  0.00000000000E+00  0.00000000000E+00 -0.30798220095E+03  0.33238232308E+03  0.12499989039E+03 0.  0.
    9000005    1    3    3    0    0  0.54837633895E+02 -0.29764875191E+02 -0.14473036476E+03  0.15761025465E+03  0.10000000000E+01 0.  0.
    9000005    1    3    3    0    0 -0.54837633895E+02  0.29764875191E+02 -0.16325183619E+03  0.17477206844E+03  0.10000000000E+01 0.  0.
<mgrwt>
<rscale>  0 0.12499989E+03</rscale>
<asrwt>0</asrwt>
<pdfrwt beam="2">  1        4 0.49258803E-01 0.12499989E+03</pdfrwt>
<pdfrwt beam="1">  1       -4 0.18769327E-02 0.12499989E+03</pdfrwt>
<totfact> 0.71707394E+03</totfact>
</mgrwt>
</event>
<event>
 5    1  0.3257199E-002  0.1249999E+03  0.7818608E-02  0.1235070E+00
          4   -1    0    0  501    0  0.00000000000E+00  0.00000000000E+00  0.36267960791E+03  0.36268183149E+03  0.12700000000E+01 0. -1.
         -4   -1    0    0    0  501 -0.00000000000E+00 -0.00000000000E+00 -0.10730798211E+02  0.10805689716E+02  0.12700000000E+01 0. -1.
         25    2    1    2    0    0  0.00000000000E+00  0.00000000000E+00  0.35194880970E+03  0.37348752121E+03  0.12499985540E+03 0.  0.
    9000005    1    3    3    0    0 -0.52789796782E+02  0.87584091914E+00  0.76082247923E+02  0.92612300428E+02  0.10000000000E+01 0.  0.
    9000005    1    3    3    0    0  0.52789796782E+02 -0.87584091914E+00  0.27586656178E+03  0.28087522078E+03  0.10000000000E+01 0.  0.
<mgrwt>
<rscale>  0 0.12499986E+03</rscale>
<asrwt>0</asrwt>
<pdfrwt beam="1">  1        4 0.55802779E-01 0.12499986E+03</pdfrwt>
<pdfrwt beam="2">  1       -4 0.16568244E-02 0.12499986E+03</pdfrwt>
<totfact> 0.67215872E+03</totfact>
</mgrwt>
</event>
<event>
 5    1  0.3257199E-002  0.1249945E+03  0.7818608E-02  0.1235078E+00
          4   -1    0    0  501    0  0.00000000000E+00  0.00000000000E+00  0.81389365807E+03  0.81389464893E+03  0.12700000000E+01 0.  1.
         -4   -1    0    0    0  501 -0.00000000000E+00 -0.00000000000E+00 -0.47140073757E+01  0.48820861871E+01  0.12700000000E+01 0.  1.
         25    2    1    2    0    0  0.00000000000E+00  0.00000000000E+00  0.80917965070E+03  0.81877673511E+03  0.12499453932E+03 0.  0.
    9000005    1    3    3    0    0 -0.13256861814E+02 -0.55591363415E+02  0.57014581150E+03  0.57300383109E+03  0.10000000000E+01 0.  0.
    9000005    1    3    3    0    0  0.13256861814E+02  0.55591363415E+02  0.23903383920E+03  0.24577290403E+03  0.10000000000E+01 0.  0.
<mgrwt>
<rscale>  0 0.12499454E+03</rscale>
<asrwt>0</asrwt>
<pdfrwt beam="1">  1        4 0.12522746E+00 0.12499454E+03</pdfrwt>
<pdfrwt beam="2">  1       -4 0.73823698E-03 0.12499454E+03</pdfrwt>
<totfact> 0.37444559E+03</totfact>
</mgrwt>
</event>
<event>
 5    1  0.3257199E-002  0.1250011E+03  0.7818608E-02  0.1235068E+00
          4   -1    0    0  501    0  0.00000000000E+00  0.00000000000E+00  0.21571766675E+02  0.21609118850E+02  0.12700000000E+01 0.  1.
         -4   -1    0    0    0  501 -0.00000000000E+00 -0.00000000000E+00 -0.18088847876E+03  0.18089293698E+03  0.12700000000E+01 0.  1.
         25    2    1    2    0    0  0.00000000000E+00  0.00000000000E+00 -0.15931671208E+03  0.20250205583E+03  0.12500107145E+03 0.  0.
    9000005    1    3    3    0    0  0.59616096610E+02 -0.13161634028E+01 -0.10994442003E+03  0.12507832249E+03  0.10000000000E+01 0.  0.
    9000005    1    3    3    0    0 -0.59616096610E+02  0.13161634028E+01 -0.49372292055E+02  0.77423733337E+02  0.10000000000E+01 0.  0.
<mgrwt>
<rscale>  0 0.12500107E+03</rscale>
<asrwt>0</asrwt>
<pdfrwt beam="1">  1        4 0.33219496E-02 0.12500107E+03</pdfrwt>
<pdfrwt beam="2">  1       -4 0.27832212E-01 0.12500107E+03</pdfrwt>
<totfact> 0.89713074E+03</totfact>
</mgrwt>
</event>
<event>
 5    1  0.3257199E-002  0.1249984E+03  0.7818608E-02  0.1235072E+00
         -4   -1    0    0    0  501 -0.00000000000E+00  0.00000000000E+00  0.13355432409E+03  0.13356036232E+03  0.12700000000E+01 0.  1.
          4   -1    0    0  501    0  0.00000000000E+00 -0.00000000000E+00 -0.29227170023E+02  0.29254749487E+02  0.12700000000E+01 0.  1.
         25    2    1    2    0    0  0.00000000000E+00  0.00000000000E+00  0.10432715407E+03  0.16281511181E+03  0.12499842222E+03 0.  0.
    9000005    1    3    3    0    0 -0.45243163059E+02 -0.37316636535E+01  0.10810118313E+03  0.11725073523E+03  0.10000000000E+01 0.  0.
    9000005    1    3    3    0    0  0.45243163059E+02  0.37316636535E+01 -0.37740290690E+01  0.45564376575E+02  0.10000000000E+01 0.  0.
<mgrwt>
<rscale>  0 0.12499842E+03</rscale>
<asrwt>0</asrwt>
<pdfrwt beam="2">  1        4 0.44990736E-02 0.12499842E+03</pdfrwt>
<pdfrwt beam="1">  1       -4 0.20549405E-01 0.12499842E+03</pdfrwt>
<totfact> 0.96806215E+03</totfact>
</mgrwt>
</event>
<event>
 5    1  0.3257199E-002  0.1250176E+03  0.7818608E-02  0.1235042E+00
         -4   -1    0    0    0  501 -0.00000000000E+00  0.00000000000E+00  0.12176453406E+04  0.12176460029E+04  0.12700000000E+01 0.  1.
          4   -1    0    0  501    0  0.00000000000E+00 -0.00000000000E+00 -0.30825915479E+01  0.33339572059E+01  0.12700000000E+01 0.  1.
         25    2    1    2    0    0  0.00000000000E+00  0.00000000000E+00  0.12145627491E+04  0.12209799602E+04  0.12501756518E+03 0.  0.
    9000005    1    3    3    0    0 -0.19013141478E+02  0.29195630876E+02  0.10050960836E+03  0.10638169854E+03  0.10000000000E+01 0.  0.
    9000005    1    3    3    0    0  0.19013141478E+02 -0.29195630876E+02  0.11140531407E+04  0.11145982616E+04  0.10000000000E+01 0.  0.
<mgrwt>
<rscale>  0 0.12501757E+03</rscale>
<asrwt>0</asrwt>
<pdfrwt beam="2">  1        4 0.49363178E-03 0.12501757E+03</pdfrwt>
<pdfrwt beam="1">  1       -4 0.18734938E+00 0.12501757E+03</pdfrwt>
<totfact> 0.24160867E+03</totfact>
</mgrwt>
</event>
<event>
 5    1  0.3257199E-002  0.1249964E+03  0.7818608E-02  0.1235075E+00
         -4   -1    0    0    0  501 -0.00000000000E+00  0.00000000000E+00  0.46585296344E+02  0.46602604384E+02  0.12700000000E+01 0.  1.
          4   -1    0    0  501    0  0.00000000000E+00 -0.00000000000E+00 -0.83809102245E+02  0.83818724156E+02  0.12700000000E+01 0.  1.
         25    2    1    2    0    0  0.00000000000E+00  0.00000000000E+00 -0.37223805901E+02  0.13042132854E+03  0.12499644480E+03 0.  0.
    9000005    1    3    3    0    0 -0.57274008946E+02  0.23050047076E+02 -0.28696302503E+02  0.68088872426E+02  0.10000000000E+01 0.  0.
    9000005    1    3    3    0    0  0.57274008946E+02 -0.23050047076E+02 -0.85275033981E+01  0.62332456114E+02  0.10000000000E+01 0.  0.
<mgrwt>
<rscale>  0 0.12499644E+03</rscale>
<asrwt>0</asrwt>
<pdfrwt beam="2">  1        4 0.12895780E-01 0.12499644E+03</pdfrwt>
<pdfrwt beam="1">  1       -4 0.71690402E-02 0.12499644E+03</pdfrwt>
<totfact> 0.10336332E+04</totfact>
</mgrwt>
</event>
<event>
 5    1  0.3257199E-002  0.1250019E+03  0.7818608E-02  0.1235066E+00
         -4   -1    0    0    0  501 -0.00000000000E+00  0.00000000000E+00  0.28168328012E+01  0.30898943396E+01  0.12700000000E+01 0. -1.
          4   -1    0    0  501    0  0.00000000000E+00 -0.00000000000E+00 -0.13224111118E+04  0.13224117217E+04  0.12700000000E+01 0. -1.
         25    2    1    2    0    0  0.00000000000E+00  0.00000000000E+00 -0.13195942790E+04  0.13255016160E+04  0.12500189111E+03 0.  0.
    9000005    1    3    3    0    0 -0.38217160152E+02 -0.22896096878E+02 -0.11245055299E+04  0.11253881416E+04  0.10000000000E+01 0.  0.
    9000005    1    3    3    0    0  0.38217160152E+02  0.22896096878E+02 -0.19508874913E+03  0.20011347436E+03  0.10000000000E+01 0.  0.
<mgrwt>
<rscale>  0 0.12500189E+03</rscale>
<asrwt>0</asrwt>
<pdfrwt beam="2">  1        4 0.20346844E+00 0.12500189E+03</pdfrwt>
<pdfrwt beam="1">  1       -4 0.45441159E-03 0.12500189E+03</pdfrwt>
<totfact> 0.21633703E+03</totfact>
</mgrwt>
</event>
<event>
 5    1  0.3257199E-002  0.1249988E+03  0.7818608E-02  0.1235071E+00
          4   -1    0    0  501    0  0.00000000000E+00  0.00000000000E+00  0.16443025297E+03  0.16443515740E+03  0.12700000000E+01 0.  1.
         -4   -1    0    0    0  501 -0.00000000000E+00 -0.00000000000E+00 -0.23733593481E+02  0.23767548454E+02  0.12700000000E+01 0.  1.
         25    2    1    2    0    0  0.00000000000E+00  0.00000000000E+00  0.14069665948E+03  0.18820270586E+03  0.12499883400E+03 0.  0.
    9000005    1    3    3    0    0  0.51774215733E+02 -0.32440702600E+02  0.90106522836E+02  0.10887219139E+03  0.10000000000E+01 0.  0.
    9000005    1    3    3    0    0 -0.51774215733E+02  0.32440702600E+02  0.50590136649E+02  0.79330514470E+02  0.10000000000E+01 0.  0.
<mgrwt>
<rscale>  0 0.12499883E+03</rscale>
<asrwt>0</asrwt>
<pdfrwt beam="1">  1        4 0.25299952E-01 0.12499883E+03</pdfrwt>
<pdfrwt beam="2">  1       -4 0.36543112E-02 0.12499883E+03</pdfrwt>
<totfact> 0.92163388E+03</totfact>
</mgrwt>
</event>
<event>
 5    1  0.3257199E-002  0.1250027E+03  0.7818608E-02  0.1235065E+00
          4   -1    0    0  501    0  0.00000000000E+00  0.00000000000E+00  0.19546585641E+02  0.19587800035E+02  0.12700000000E+01 0.  1.
         -4   -1    0    0    0  501 -0.00000000000E+00 -0.00000000000E+00 -0.19959793025E+03  0.19960197059E+03  0.12700000000E+01 0.  1.
         25    2    1    2    0    0  0.00000000000E+00  0.00000000000E+00 -0.18005134461E+03  0.21918977062E+03  0.12500267536E+03 0.  0.
    9000005    1    3    3    0    0  0.32350811408E+02 -0.16942865256E+02 -0.17894947177E+03  0.18264049148E+03  0.10000000000E+01 0.  0.
    9000005    1    3    3    0    0 -0.32350811408E+02  0.16942865256E+02 -0.11018728425E+01  0.36549279139E+02  0.10000000000E+01 0.  0.
<mgrwt>
<rscale>  0 0.12500268E+03</rscale>
<asrwt>0</asrwt>
<pdfrwt beam="1">  1        4 0.30106483E-02 0.12500268E+03</pdfrwt>
<pdfrwt beam="2">  1       -4 0.30710854E-01 0.12500268E+03</pdfrwt>
<totfact> 0.86991522E+03</totfact>
</mgrwt>
</event>
<event>
 5    1  0.3257199E-002  0.1250023E+03  0.7818608E-02  0.1235066E+00
         -4   -1    0    0    0  501 -0.00000000000E+00  0.00000000000E+00  0.12762040874E+02  0.12825076501E+02  0.12700000000E+01 0.  1.
          4   -1    0    0  501    0  0.00000000000E+00 -0.00000000000E+00 -0.30527632262E+03  0.30527896432E+03  0.12700000000E+01 0.  1.
         25    2    1    2    0    0  0.00000000000E+00  0.00000000000E+00 -0.29251428175E+03  0.31810404082E+03  0.12500230301E+03 0.  0.
    9000005    1    3    3    0    0  0.24060174636E+02 -0.47445595146E+02 -0.62804572270E+02  0.82312762075E+02  0.10000000000E+01 0.  0.
    9000005    1    3    3    0    0 -0.24060174636E+02  0.47445595146E+02 -0.22970970948E+03  0.23579127874E+03  0.10000000000E+01 0.  0.
<mgrwt>
<rscale>  0 0.12500230E+03</rscale>
<asrwt>0</asrwt>
<pdfrwt beam="2">  1        4 0.46970635E-01 0.12500230E+03</pdfrwt>
<pdfrwt beam="1">  1       -4 0.19684432E-02 0.12500230E+03</pdfrwt>
<totfact> 0.73378449E+03</totfact>
</mgrwt>
</event>
<event>
 5    1  0.3257199E-002  0.1250154E+03  0.7818608E-02  0.1235045E+00
         -4   -1    0    0    0  501 -0.00000000000E+00  0.00000000000E+00  0.11172938416E+03  0.11173660181E+03  0.12700000000E+01 0. -1.
          4   -1    0    0  501    0  0.00000000000E+00 -0.00000000000E+00 -0.34950435343E+02  0.34973501836E+02  0.12700000000E+01 0. -1.
         25    2    1    2    0    0  0.00000000000E+00  0.00000000000E+00  0.76778948816E+02  0.14671010365E+03  0.12501538918E+03 0.  0.
    9000005    1    3    3    0    0  0.45096439474E+02 -0.40446936009E+02  0.56439378983E+02  0.82801249905E+02  0.10000000000E+01 0.  0.
    9000005    1    3    3    0    0 -0.45096439474E+02  0.40446936009E+02  0.20339569832E+02  0.63908853743E+02  0.10000000000E+01 0.  0.
<mgrwt>
<rscale>  0 0.12501539E+03</rscale>
<asrwt>0</asrwt>
<pdfrwt beam="2">  1        4 0.53793195E-02 0.12501539E+03</pdfrwt>
<pdfrwt beam="1">  1       -4 0.17191466E-01 0.12501539E+03</pdfrwt>
<totfact> 0.99928953E+03</totfact>
</mgrwt>
</event>
<event>
 5    1  0.3257199E-002  0.1250001E+03  0.7818608E-02  0.1235069E+00
          4   -1    0    0  501    0  0.00000000000E+00  0.00000000000E+00  0.13396420309E+03  0.13397022285E+03  0.12700000000E+01 0.  1.
         -4   -1    0    0    0  501 -0.00000000000E+00 -0.00000000000E+00 -0.29138468957E+02  0.29166132297E+02  0.12700000000E+01 0.  1.
         25    2    1    2    0    0  0.00000000000E+00  0.00000000000E+00  0.10482573413E+03  0.16313635514E+03  0.12500014333E+03 0.  0.
    9000005    1    3    3    0    0  0.39772302346E+02  0.45639947944E+02  0.32176907518E+02  0.68565255485E+02  0.10000000000E+01 0.  0.
    9000005    1    3    3    0    0 -0.39772302346E+02 -0.45639947944E+02  0.72648826615E+02  0.94571099659E+02  0.10000000000E+01 0.  0.
<mgrwt>
<rscale>  0 0.12500014E+03</rscale>
<asrwt>0</asrwt>
<pdfrwt beam="1">  1        4 0.20612468E-01 0.12500014E+03</pdfrwt>
<pdfrwt beam="2">  1       -4 0.44854324E-02 0.12500014E+03</pdfrwt>
<totfact> 0.96741194E+03</totfact>
</mgrwt>
</event>
<event>
 5    1  0.3257199E-002  0.1249969E+03  0.7818608E-02  0.1235074E+00
         -4   -1    0    0    0  501 -0.00000000000E+00  0.00000000000E+00  0.44554819881E+02  0.44572916380E+02  0.12700000000E+01 0. -1.
          4   -1    0    0  501    0  0.00000000000E+00 -0.00000000000E+00 -0.87628074063E+02  0.87637276681E+02  0.12700000000E+01 0. -1.
         25    2    1    2    0    0  0.00000000000E+00  0.00000000000E+00 -0.43073254182E+02  0.13221019306E+03  0.12499691965E+03 0.  0.
    9000005    1    3    3    0    0  0.55450586879E+02 -0.50892050978E+00 -0.52009454908E+02  0.76032953285E+02  0.10000000000E+01 0.  0.
    9000005    1    3    3    0    0 -0.55450586879E+02  0.50892050978E+00  0.89362007260E+01  0.56177239775E+02  0.10000000000E+01 0.  0.
<mgrwt>
<rscale>  0 0.12499692E+03</rscale>
<asrwt>0</asrwt>
<pdfrwt beam="2">  1        4 0.13483342E-01 0.12499692E+03</pdfrwt>
<pdfrwt beam="1">  1       -4 0.68566876E-02 0.12499692E+03</pdfrwt>
<totfact> 0.10297930E+04</totfact>
</mgrwt>
</event>
<event>
 5    1  0.3257199E-002  0.1250032E+03  0.7818608E-02  0.1235064E+00
         -4   -1    0    0    0  501 -0.00000000000E+00  0.00000000000E+00  0.22525961170E+03  0.22526319177E+03  0.12700000000E+01 0. -1.
          4   -1    0    0  501    0  0.00000000000E+00 -0.00000000000E+00 -0.17315018952E+02  0.17361531652E+02  0.12700000000E+01 0. -1.
         25    2    1    2    0    0  0.00000000000E+00  0.00000000000E+00  0.20794459275E+03  0.24262472342E+03  0.12500321100E+03 0.  0.
    9000005    1    3    3    0    0  0.26408541193E+02 -0.44037010194E+02  0.17310877917E+03  0.18056666010E+03  0.10000000000E+01 0.  0.
    9000005    1    3    3    0    0 -0.26408541193E+02  0.44037010194E+02  0.34835813584E+02  0.62058063318E+02  0.10000000000E+01 0.  0.
<mgrwt>
<rscale>  0 0.12500321E+03</rscale>
<asrwt>0</asrwt>
<pdfrwt beam="2">  1        4 0.26677026E-02 0.12500321E+03</pdfrwt>
<pdfrwt beam="1">  1       -4 0.34659175E-01 0.12500321E+03</pdfrwt>
<totfact> 0.83402041E+03</totfact>
</mgrwt>
</event>
<event>
 5    1  0.3257199E-002  0.1249858E+03  0.7818608E-02  0.1235091E+00
          4   -1    0    0  501    0  0.00000000000E+00  0.00000000000E+00  0.40576030702E+02  0.40595900871E+02  0.12700000000E+01 0.  1.
         -4   -1    0    0    0  501 -0.00000000000E+00 -0.00000000000E+00 -0.96200376809E+02  0.96208759467E+02  0.12700000000E+01 0.  1.
         25    2    1    2    0    0  0.00000000000E+00  0.00000000000E+00 -0.55624346107E+02  0.13680466034E+03  0.12498578803E+03 0.  0.
    9000005    1    3    3    0    0 -0.30008940581E+02  0.44236598368E+02  0.76041076037E+01  0.54002181460E+02  0.10000000000E+01 0.  0.
    9000005    1    3    3    0    0  0.30008940581E+02 -0.44236598368E+02 -0.63228453710E+02  0.82802478879E+02  0.10000000000E+01 0.  0.
<mgrwt>
<rscale>  0 0.12498579E+03</rscale>
<asrwt>0</asrwt>
<pdfrwt beam="1">  1        4 0.62446396E-02 0.12498579E+03</pdfrwt>
<pdfrwt beam="2">  1       -4 0.14802231E-01 0.12498579E+03</pdfrwt>
<totfact> 0.10203441E+04</totfact>
</mgrwt>
</event>
<event>
 5    1  0.3257199E-002  0.1249966E+03  0.7818608E-02  0.1235075E+00
          4   -1    0    0  501    0  0.00000000000E+00  0.00000000000E+00  0.12404481422E+02  0.12469324735E+02  0.12700000000E+01 0.  1.
         -4   -1    0    0    0  501 -0.00000000000E+00 -0.00000000000E+00 -0.31400236570E+03  0.31400493398E+03  0.12700000000E+01 0.  1.
         25    2    1    2    0    0  0.00000000000E+00  0.00000000000E+00 -0.30159788428E+03  0.32647425872E+03  0.12499663117E+03 0.  0.
    9000005    1    3    3    0    0  0.35291637469E+02  0.45807752736E+02 -0.21267254845E+03  0.22039614958E+03  0.10000000000E+01 0.  0.
    9000005    1    3    3    0    0 -0.35291637469E+02 -0.45807752736E+02 -0.88925335827E+02  0.10607810914E+03  0.10000000000E+01 0.  0.
<mgrwt>
<rscale>  0 0.12499663E+03</rscale>
<asrwt>0</asrwt>
<pdfrwt beam="1">  1        4 0.19135675E-02 0.12499663E+03</pdfrwt>
<pdfrwt beam="2">  1       -4 0.48313236E-01 0.12499663E+03</pdfrwt>
<totfact> 0.72398065E+03</totfact>
</mgrwt>
</event>
<event>
 5    1  0.3257199E-002  0.1249672E+03  0.7818608E-02  0.1235121E+00
          4   -1    0    0  501    0  0.00000000000E+00  0.00000000000E+00  0.76402817060E+03  0.76402922613E+03  0.12700000000E+01 0.  1.
         -4   -1    0    0    0  501 -0.00000000000E+00 -0.00000000000E+00 -0.50300336032E+01  0.51878837737E+01  0.12700000000E+01 0.  1.
         25    2    1    2    0    0  0.00000000000E+00  0.00000000000E+00  0.75899813700E+03  0.76921710990E+03  0.12496715646E+03 0.  0.
    9000005    1    3    3    0    0 -0.60590247138E+02 -0.14763124355E+02  0.40258752177E+03  0.40739028041E+03  0.10000000000E+01 0.  0.
    9000005    1    3    3    0    0  0.60590247138E+02  0.14763124355E+02  0.35641061523E+03  0.36182682948E+03  0.10000000000E+01 0.  0.
<mgrwt>
<rscale>  0 0.12496716E+03</rscale>
<asrwt>0</asrwt>
<pdfrwt beam="1">  1        4 0.11755507E+00 0.12496716E+03</pdfrwt>
<pdfrwt beam="2">  1       -4 0.78607448E-03 0.12496716E+03</pdfrwt>
<totfact> 0.39699884E+03</totfact>
</mgrwt>
</event>
<event>
 5    1  0.3257199E-002  0.1249906E+03  0.7818608E-02  0.1235084E+00
          4   -1    0    0  501    0  0.00000000000E+00  0.00000000000E+00  0.11607159125E+02  0.11676431088E+02  0.12700000000E+01 0.  1.
         -4   -1    0    0    0  501 -0.00000000000E+00 -0.00000000000E+00 -0.33541560457E+03  0.33541800889E+03  0.12700000000E+01 0.  1.
         25    2    1    2    0    0  0.00000000000E+00  0.00000000000E+00 -0.32380844545E+03  0.34709443998E+03  0.12499056334E+03 0.  0.
    9000005    1    3    3    0    0  0.61311901984E+02 -0.32964385361E+01 -0.12968132614E+03  0.14348610449E+03  0.10000000000E+01 0.  0.
    9000005    1    3    3    0    0 -0.61311901984E+02  0.32964385361E+01 -0.19412711930E+03  0.20360833549E+03  0.10000000000E+01 0.  0.
<mgrwt>
<rscale>  0 0.12499056E+03</rscale>
<asrwt>0</asrwt>
<pdfrwt beam="1">  1        4 0.17912306E-02 0.12499056E+03</pdfrwt>
<pdfrwt beam="2">  1       -4 0.51607907E-01 0.12499056E+03</pdfrwt>
<totfact> 0.70060026E+03</totfact>
</mgrwt>
</event>
<event>
 5    1  0.3257199E-002  0.1249967E+03  0.7818608E-02  0.1235074E+00
          4   -1    0    0  501    0  0.00000000000E+00  0.00000000000E+00  0.69327800304E+01  0.70481443621E+01  0.12700000000E+01 0. -1.
         -4   -1    0    0    0  501 -0.00000000000E+00 -0.00000000000E+00 -0.55865164830E+03  0.55865309187E+03  0.12700000000E+01 0. -1.
         25    2    1    2    0    0  0.00000000000E+00  0.00000000000E+00 -0.55171886827E+03  0.56570123623E+03  0.12499671621E+03 0.  0.
    9000005    1    3    3    0    0  0.91943387484E+01 -0.60743642513E+02 -0.22411572684E+03  0.23238585367E+03  0.10000000000E+01 0.  0.
    9000005    1    3    3    0    0 -0.91943387484E+01  0.60743642513E+02 -0.32760314143E+03  0.33331538256E+03  0.10000000000E+01 0.  0.
<mgrwt>
<rscale>  0 0.12499672E+03</rscale>
<asrwt>0</asrwt>
<pdfrwt beam="1">  1        4 0.10755672E-02 0.12499672E+03</pdfrwt>
<pdfrwt beam="2">  1       -4 0.85955357E-01 0.12499672E+03</pdfrwt>
<totfact> 0.51110480E+03</totfact>
</mgrwt>
</event>
<event>
 5    1  0.3257199E-002  0.1250014E+03  0.7818608E-02  0.1235067E+00
         -4   -1    0    0    0  501 -0.00000000000E+00  0.00000000000E+00  0.22830246635E+02  0.22865543103E+02  0.12700000000E+01 0. -1.
          4   -1    0    0  501    0  0.00000000000E+00 -0.00000000000E+00 -0.17093377999E+03  0.17093849784E+03  0.12700000000E+01 0. -1.
         25    2    1    2    0    0  0.00000000000E+00  0.00000000000E+00 -0.14810353336E+03  0.19380404094E+03  0.12500139876E+03 0.  0.
    9000005    1    3    3    0    0 -0.40259883848E+02 -0.43764317607E+02 -0.10384087053E+03  0.11966662081E+03  0.10000000000E+01 0.  0.
    9000005    1    3    3    0    0  0.40259883848E+02  0.43764317607E+02 -0.44262662822E+02  0.74137420128E+02  0.10000000000E+01 0.  0.
<mgrwt>
<rscale>  0 0.12500140E+03</rscale>
<asrwt>0</asrwt>
<pdfrwt beam="2">  1        4 0.26300582E-01 0.12500140E+03</pdfrwt>
<pdfrwt beam="1">  1       -4 0.35154238E-02 0.12500140E+03</pdfrwt>
<totfact> 0.91186749E+03</totfact>
</mgrwt>
</event>
<event>
 5    1  0.3257199E-002  0.1249975E+03  0.7818608E-02  0.1235073E+00
          4   -1    0    0  501    0  0.00000000000E+00  0.00000000000E+00  0.32775396092E+01  0.35149915917E+01  0.12700000000E+01 0. -1.
         -4   -1    0    0    0  501 -0.00000000000E+00 -0.00000000000E+00 -0.11498771922E+04  0.11498778936E+04  0.12700000000E+01 0. -1.
         25    2    1    2    0    0  0.00000000000E+00  0.00000000000E+00 -0.11465996526E+04  0.11533928852E+04  0.12499753654E+03 0.  0.
    9000005    1    3    3    0    0  0.50464768317E+02  0.36843172459E+02 -0.56414737517E+03  0.56759789738E+03  0.10000000000E+01 0.  0.
    9000005    1    3    3    0    0 -0.50464768317E+02 -0.36843172459E+02 -0.58245227746E+03  0.58579498778E+03  0.10000000000E+01 0.  0.
<mgrwt>
<rscale>  0 0.12499754E+03</rscale>
<asrwt>0</asrwt>
<pdfrwt beam="1">  1        4 0.52255726E-03 0.12499754E+03</pdfrwt>
<pdfrwt beam="2">  1       -4 0.17692219E+00 0.12499754E+03</pdfrwt>
<totfact> 0.25967729E+03</totfact>
</mgrwt>
</event>
<event>
 5    1  0.3257199E-002  0.1250019E+03  0.7818608E-02  0.1235066E+00
          4   -1    0    0  501    0  0.00000000000E+00  0.00000000000E+00  0.10314360403E+03  0.10315142245E+03  0.12700000000E+01 0.  1.
         -4   -1    0    0    0  501 -0.00000000000E+00 -0.00000000000E+00 -0.37853183402E+02  0.37874482091E+02  0.12700000000E+01 0.  1.
         25    2    1    2    0    0  0.00000000000E+00  0.00000000000E+00  0.65290420632E+02  0.14102590454E+03  0.12500186688E+03 0.  0.
    9000005    1    3    3    0    0 -0.36166547794E+02 -0.44226829731E+02  0.61216173201E+02  0.83740381590E+02  0.10000000000E+01 0.  0.
    9000005    1    3    3    0    0  0.36166547794E+02  0.44226829731E+02  0.40742474311E+01  0.57285522949E+02  0.10000000000E+01 0.  0.
<mgrwt>
<rscale>  0 0.12500187E+03</rscale>
<asrwt>0</asrwt>
<pdfrwt beam="1">  1        4 0.15870486E-01 0.12500187E+03</pdfrwt>
<pdfrwt beam="2">  1       -4 0.58258066E-02 0.12500187E+03</pdfrwt>
<totfact> 0.10111942E+04</totfact>
</mgrwt>
</event>
<event>
 5    1  0.3257199E-002  0.1250014E+03  0.7818608E-02  0.1235067E+00
         -4   -1    0    0    0  501 -0.00000000000E+00  0.00000000000E+00  0.11395326839E+02  0.11465878674E+02  0.12700000000E+01 0. -1.
          4   -1    0    0  501    0  0.00000000000E+00 -0.00000000000E+00 -0.34167197964E+03  0.34167433993E+03  0.12700000000E+01 0. -1.
         25    2    1    2    0    0  0.00000000000E+00  0.00000000000E+00 -0.33027665280E+03  0.35314021861E+03  0.12500138645E+03 0.  0.
    9000005    1    3    3    0    0 -0.36763945416E+02 -0.49815103749E+02 -0.18914401744E+03  0.19902158571E+03  0.10000000000E+01 0.  0.
    9000005    1    3    3    0    0  0.36763945416E+02  0.49815103749E+02 -0.14113263535E+03  0.15411863290E+03  0.10000000000E+01 0.  0.
<mgrwt>
<rscale>  0 0.12500139E+03</rscale>
<asrwt>0</asrwt>
<pdfrwt beam="2">  1        4 0.52570521E-01 0.12500139E+03</pdfrwt>
<pdfrwt beam="1">  1       -4 0.17587361E-02 0.12500139E+03</pdfrwt>
<totfact> 0.69378344E+03</totfact>
</mgrwt>
</event>
<event>
 5    1  0.3257199E-002  0.1250017E+03  0.7818608E-02  0.1235067E+00
          4   -1    0    0  501    0  0.00000000000E+00  0.00000000000E+00  0.46635100642E+02  0.46652390205E+02  0.12700000000E+01 0. -1.
         -4   -1    0    0    0  501 -0.00000000000E+00 -0.00000000000E+00 -0.83726695788E+02  0.83736327168E+02  0.12700000000E+01 0. -1.
         25    2    1    2    0    0  0.00000000000E+00  0.00000000000E+00 -0.37091595147E+02  0.13038871737E+03  0.12500172474E+03 0.  0.
    9000005    1    3    3    0    0 -0.47483753195E+02  0.25668895518E+02  0.14303571708E+02  0.55849719589E+02  0.10000000000E+01 0.  0.
    9000005    1    3    3    0    0  0.47483753195E+02 -0.25668895518E+02 -0.51395166854E+02  0.74538997784E+02  0.10000000000E+01 0.  0.
<mgrwt>
<rscale>  0 0.12500172E+03</rscale>
<asrwt>0</asrwt>
<pdfrwt beam="1">  1        4 0.71767017E-02 0.12500172E+03</pdfrwt>
<pdfrwt beam="2">  1       -4 0.12883101E-01 0.12500172E+03</pdfrwt>
<totfact> 0.10335797E+04</totfact>
</mgrwt>
</event>
<event>
 5    1  0.3257199E-002  0.1250037E+03  0.7818608E-02  0.1235064E+00
         -4   -1    0    0    0  501 -0.00000000000E+00  0.00000000000E+00  0.27350367108E+03  0.27350661965E+03  0.12700000000E+01 0.  1.
          4   -1    0    0  501    0  0.00000000000E+00 -0.00000000000E+00 -0.14251833206E+02  0.14308307018E+02  0.12700000000E+01 0.  1.
         25    2    1    2    0    0  0.00000000000E+00  0.00000000000E+00  0.25925183787E+03  0.28781492667E+03  0.12500366624E+03 0.  0.
    9000005    1    3    3    0    0 -0.45037443163E+02 -0.42628885513E+02  0.14744368004E+03  0.15995696906E+03  0.10000000000E+01 0.  0.
    9000005    1    3    3    0    0  0.45037443163E+02  0.42628885513E+02  0.11180815783E+03  0.12785795761E+03  0.10000000000E+01 0.  0.
<mgrwt>
<rscale>  0 0.12500367E+03</rscale>
<asrwt>0</asrwt>
<pdfrwt beam="2">  1        4 0.21971608E-02 0.12500367E+03</pdfrwt>
<pdfrwt beam="1">  1       -4 0.42082056E-01 0.12500367E+03</pdfrwt>
<totfact> 0.77146900E+03</totfact>
</mgrwt>
</event>
<event>
 5    1  0.3257199E-002  0.1249998E+03  0.7818608E-02  0.1235070E+00
         -4   -1    0    0    0  501 -0.00000000000E+00  0.00000000000E+00  0.84081697101E+01  0.85035414901E+01  0.12700000000E+01 0.  1.
          4   -1    0    0  501    0  0.00000000000E+00 -0.00000000000E+00 -0.46186061752E+03  0.46186236361E+03  0.12700000000E+01 0.  1.
         25    2    1    2    0    0  0.00000000000E+00  0.00000000000E+00 -0.45345244781E+03  0.47036590510E+03  0.12499984901E+03 0.  0.
    9000005    1    3    3    0    0  0.53940016597E+02  0.31390053054E+02 -0.23884948955E+03  0.24687028878E+03  0.10000000000E+01 0.  0.
    9000005    1    3    3    0    0 -0.53940016597E+02 -0.31390053054E+02 -0.21460295826E+03  0.22349561632E+03  0.10000000000E+01 0.  0.
<mgrwt>
<rscale>  0 0.12499985E+03</rscale>
<asrwt>0</asrwt>
<pdfrwt beam="2">  1        4 0.71062931E-01 0.12499985E+03</pdfrwt>
<pdfrwt beam="1">  1       -4 0.13010355E-02 0.12499985E+03</pdfrwt>
<totfact> 0.58239424E+03</totfact>
</mgrwt>
</event>
<event>
 5    1  0.3257199E-002  0.1249999E+03  0.7818608E-02  0.1235069E+00
          4   -1    0    0  501    0  0.00000000000E+00  0.00000000000E+00  0.60494557530E+02  0.60507887013E+02  0.12700000000E+01 0.  1.
         -4   -1    0    0    0  501 -0.00000000000E+00 -0.00000000000E+00 -0.64545115362E+02  0.64557608514E+02  0.12700000000E+01 0.  1.
         25    2    1    2    0    0  0.00000000000E+00  0.00000000000E+00 -0.40505578317E+01  0.12506549553E+03  0.12499988461E+03 0.  0.
    9000005    1    3    3    0    0 -0.41032050492E+02  0.17065855847E+02  0.41933760795E+02  0.61109024683E+02  0.10000000000E+01 0.  0.
    9000005    1    3    3    0    0  0.41032050492E+02 -0.17065855847E+02 -0.45984318626E+02  0.63956470844E+02  0.10000000000E+01 0.  0.
<mgrwt>
<rscale>  0 0.12499988E+03</rscale>
<asrwt>0</asrwt>
<pdfrwt beam="1">  1        4 0.93088413E-02 0.12499988E+03</pdfrwt>
<pdfrwt beam="2">  1       -4 0.99320041E-02 0.12499988E+03</pdfrwt>
<totfact> 0.10451467E+04</totfact>
</mgrwt>
</event>
<event>
 5    1  0.3257199E-002  0.1249998E+03  0.7818608E-02  0.1235070E+00
          4   -1    0    0  501    0  0.00000000000E+00  0.00000000000E+00  0.13677719219E+03  0.13678308815E+03  0.12700000000E+01 0.  1.
         -4   -1    0    0    0  501 -0.00000000000E+00 -0.00000000000E+00 -0.28538499109E+02  0.28566743451E+02  0.12700000000E+01 0.  1.
         25    2    1    2    0    0  0.00000000000E+00  0.00000000000E+00  0.10823869309E+03  0.16534983160E+03  0.12499980852E+03 0.  0.
    9000005    1    3    3    0    0 -0.57126611223E+02 -0.23334209680E+02  0.41070939889E+02  0.74133374094E+02  0.10000000000E+01 0.  0.
    9000005    1    3    3    0    0  0.57126611223E+02  0.23334209680E+02  0.67167753196E+02  0.91216457510E+02  0.10000000000E+01 0.  0.
<mgrwt>
<rscale>  0 0.12499981E+03</rscale>
<asrwt>0</asrwt>
<pdfrwt beam="1">  1        4 0.21045272E-01 0.12499981E+03</pdfrwt>
<pdfrwt beam="2">  1       -4 0.43931644E-02 0.12499981E+03</pdfrwt>
<totfact> 0.96321594E+03</totfact>
</mgrwt>
</event>
<event>
 5    1  0.3257199E-002  0.1250003E+03  0.7818608E-02  0.1235069E+00
         -4   -1    0    0    0  501 -0.00000000000E+00  0.00000000000E+00  0.26768222766E+03  0.26768524035E+03  0.12700000000E+01 0.  1.
          4   -1    0    0  501    0  0.00000000000E+00 -0.00000000000E+00 -0.14562191024E+02  0.14617465834E+02  0.12700000000E+01 0.  1.
         25    2    1    2    0    0  0.00000000000E+00  0.00000000000E+00  0.25312003663E+03  0.28230270619E+03  0.12500025990E+03 0.  0.
    9000005    1    3    3    0    0  0.34871843177E+01 -0.33029978915E+02  0.24610957697E+03  0.24834263395E+03  0.10000000000E+01 0.  0.
    9000005    1    3    3    0    0 -0.34871843177E+01  0.33029978915E+02  0.70104596623E+01  0.33960072235E+02  0.10000000000E+01 0.  0.
<mgrwt>
<rscale>  0 0.12500026E+03</rscale>
<asrwt>0</asrwt>
<pdfrwt beam="2">  1        4 0.22448205E-02 0.12500026E+03</pdfrwt>
<pdfrwt beam="1">  1       -4 0.41186369E-01 0.12500026E+03</pdfrwt>
<totfact> 0.77873316E+03</totfact>
</mgrwt>
</event>
<event>
 5    1  0.3257199E-002  0.1249994E+03  0.7818608E-02  0.1235070E+00
         -4   -1    0    0    0  501 -0.00000000000E+00  0.00000000000E+00  0.72631547494E+02  0.72642649948E+02  0.12700000000E+01 0.  1.
          4   -1    0    0  501    0  0.00000000000E+00 -0.00000000000E+00 -0.53758516747E+02  0.53773515998E+02  0.12700000000E+01 0.  1.
         25    2    1    2    0    0  0.00000000000E+00  0.00000000000E+00  0.18873030748E+02  0.12641616595E+03  0.12499942289E+03 0.  0.
    9000005    1    3    3    0    0 -0.25371651630E+02 -0.15125886606E+02  0.65130640733E+02  0.71522818138E+02  0.10000000000E+01 0.  0.
    9000005    1    3    3    0    0  0.25371651630E+02  0.15125886606E+02 -0.46257609985E+02  0.54893347809E+02  0.10000000000E+01 0.  0.
<mgrwt>
<rscale>  0 0.12499942E+03</rscale>
<asrwt>0</asrwt>
<pdfrwt beam="2">  1        4 0.82725489E-02 0.12499942E+03</pdfrwt>
<pdfrwt beam="1">  1       -4 0.11176092E-01 0.12499942E+03</pdfrwt>
<totfact> 0.10421993E+04</totfact>
</mgrwt>
</event>
<event>
 5    1  0.3257199E-002  0.1250042E+03  0.7818608E-02  0.1235063E+00
         -4   -1    0    0    0  501 -0.00000000000E+00  0.00000000000E+00  0.47821732282E+03  0.47821900919E+03  0.12700000000E+01 0.  1.
          4   -1    0    0  501    0  0.00000000000E+00 -0.00000000000E+00 -0.81178342978E+01  0.82165767620E+01  0.12700000000E+01 0.  1.
         25    2    1    2    0    0  0.00000000000E+00  0.00000000000E+00  0.47009948852E+03  0.48643558595E+03  0.12500420059E+03 0.  0.
    9000005    1    3    3    0    0 -0.22809560983E+02 -0.58156384464E+02  0.24186951861E+03  0.24980853700E+03  0.10000000000E+01 0.  0.
    9000005    1    3    3    0    0  0.22809560983E+02  0.58156384464E+02  0.22822996992E+03  0.23662704895E+03  0.10000000000E+01 0.  0.
<mgrwt>
<rscale>  0 0.12500420E+03</rscale>
<asrwt>0</asrwt>
<pdfrwt beam="2">  1        4 0.12566227E-02 0.12500420E+03</pdfrwt>
<pdfrwt beam="1">  1       -4 0.73579631E-01 0.12500420E+03</pdfrwt>
<totfact> 0.56927107E+03</totfact>
</mgrwt>
</event>
<event>
 5    1  0.3257199E-002  0.1250089E+03  0.7818608E-02  0.1235055E+00
          4   -1    0    0  501    0  0.00000000000E+00  0.00000000000E+00  0.26780438010E+03  0.26780739142E+03  0.12700000000E+01 0.  1.
         -4   -1    0    0    0  501 -0.00000000000E+00 -0.00000000000E+00 -0.14557536767E+02  0.14612829182E+02  0.12700000000E+01 0.  1.
         25    2    1    2    0    0  0.00000000000E+00  0.00000000000E+00  0.25324684333E+03  0.28242022060E+03  0.12500886908E+03 0.  0.
    9000005    1    3    3    0    0  0.16225390045E+02 -0.19931496689E+02  0.25532409344E+03  0.25661629047E+03  0.10000000000E+01 0.  0.
    9000005    1    3    3    0    0 -0.16225390045E+02  0.19931496689E+02 -0.20772501095E+01  0.25803930135E+02  0.10000000000E+01 0.  0.
<mgrwt>
<rscale>  0 0.12500887E+03</rscale>
<asrwt>0</asrwt>
<pdfrwt beam="1">  1        4 0.41205158E-01 0.12500887E+03</pdfrwt>
<pdfrwt beam="2">  1       -4 0.22441060E-02 0.12500887E+03</pdfrwt>
<totfact> 0.77842947E+03</totfact>
</mgrwt>
</event>
<event>
 5    1  0.3257199E-002  0.1249995E+03  0.7818608E-02  0.1235070E+00
          4   -1    0    0  501    0  0.00000000000E+00  0.00000000000E+00  0.16527674605E+02  0.16576396709E+02  0.12700000000E+01 0.  1.
         -4   -1    0    0    0  501 -0.00000000000E+00 -0.00000000000E+00 -0.23594579685E+03  0.23594921477E+03  0.12700000000E+01 0.  1.
         25    2    1    2    0    0  0.00000000000E+00  0.00000000000E+00 -0.21941812224E+03  0.25252561148E+03  0.12499948833E+03 0.  0.
    9000005    1    3    3    0    0  0.39863947872E+02  0.89766463236E+01 -0.20522698479E+03  0.20925780703E+03  0.10000000000E+01 0.  0.
    9000005    1    3    3    0    0 -0.39863947872E+02 -0.89766463236E+01 -0.14191137453E+02  0.43267804443E+02  0.10000000000E+01 0.  0.
<mgrwt>
<rscale>  0 0.12499949E+03</rscale>
<asrwt>0</asrwt>
<pdfrwt beam="1">  1        4 0.25467301E-02 0.12499949E+03</pdfrwt>
<pdfrwt beam="2">  1       -4 0.36303362E-01 0.12499949E+03</pdfrwt>
<totfact> 0.81967499E+03</totfact>
</mgrwt>
</event>
<event>
 5    1  0.3257199E-002  0.1250000E+03  0.7818608E-02  0.1235069E+00
         -4   -1    0    0    0  501 -0.00000000000E+00  0.00000000000E+00  0.50030305486E+01  0.51617065657E+01  0.12700000000E+01 0.  1.
          4   -1    0    0  501    0  0.00000000000E+00 -0.00000000000E+00 -0.76842939953E+03  0.76843044900E+03  0.12700000000E+01 0.  1.
         25    2    1    2    0    0  0.00000000000E+00  0.00000000000E+00 -0.76342636898E+03  0.77359215557E+03  0.12500000923E+03 0.  0.
    9000005    1    3    3    0    0  0.23575100344E+01  0.36254889749E+02 -0.67043109521E+02  0.76261087184E+02  0.10000000000E+01 0.  0.
    9000005    1    3    3    0    0 -0.23575100344E+01 -0.36254889749E+02 -0.69638325946E+03  0.69733106839E+03  0.10000000000E+01 0.  0.
<mgrwt>
<rscale>  0 0.12500001E+03</rscale>
<asrwt>0</asrwt>
<pdfrwt beam="2">  1        4 0.11823210E+00 0.12500001E+03</pdfrwt>
<pdfrwt beam="1">  1       -4 0.78198419E-03 0.12500001E+03</pdfrwt>
<totfact> 0.39470333E+03</totfact>
</mgrwt>
</event>
<event>
 5    1  0.3257199E-002  0.1249976E+03  0.7818608E-02  0.1235073E+00
         -4   -1    0    0    0  501 -0.00000000000E+00  0.00000000000E+00  0.49519835728E+03  0.49519998582E+03  0.12700000000E+01 0.  1.
          4   -1    0    0  501    0  0.00000000000E+00 -0.00000000000E+00 -0.78351816680E+01  0.79374411350E+01  0.12700000000E+01 0.  1.
         25    2    1    2    0    0  0.00000000000E+00  0.00000000000E+00  0.48736317562E+03  0.50313742696E+03  0.12499762181E+03 0.  0.
    9000005    1    3    3    0    0  0.61335359031E+02 -0.11165737423E+02  0.22641484733E+03  0.23484331596E+03  0.10000000000E+01 0.  0.
    9000005    1    3    3    0    0 -0.61335359031E+02  0.11165737423E+02  0.26094832829E+03  0.26829411100E+03  0.10000000000E+01 0.  0.
<mgrwt>
<rscale>  0 0.12499762E+03</rscale>
<asrwt>0</asrwt>
<pdfrwt beam="2">  1        4 0.12134035E-02 0.12499762E+03</pdfrwt>
<pdfrwt beam="1">  1       -4 0.76192385E-01 0.12499762E+03</pdfrwt>
<totfact> 0.55624651E+03</totfact>
</mgrwt>
</event>
<event>
 5    1  0.3257199E-002  0.1249991E+03  0.7818608E-02  0.1235071E+00
         -4   -1    0    0    0  501 -0.00000000000E+00  0.00000000000E+00  0.49632691421E+01  0.51231768052E+01  0.12700000000E+01 0. -1.
          4   -1    0    0  501    0  0.00000000000E+00 -0.00000000000E+00 -0.77438263384E+03  0.77438367525E+03  0.12700000000E+01 0. -1.
         25    2    1    2    0    0  0.00000000000E+00  0.00000000000E+00 -0.76941936469E+03  0.77950685205E+03  0.12499909451E+03 0.  0.
    9000005    1    3    3    0    0  0.62204328867E+02  0.52335427522E+01 -0.36660897106E+03  0.37188695347E+03  0.10000000000E+01 0.  0.
    9000005    1    3    3    0    0 -0.62204328867E+02 -0.52335427522E+01 -0.40281039364E+03  0.40761989858E+03  0.10000000000E+01 0.  0.
<mgrwt>
<rscale>  0 0.12499909E+03</rscale>
<asrwt>0</asrwt>
<pdfrwt beam="2">  1        4 0.11914808E+00 0.12499909E+03</pdfrwt>
<pdfrwt beam="1">  1       -4 0.77596118E-03 0.12499909E+03</pdfrwt>
<totfact> 0.39196926E+03</totfact>
</mgrwt>
</event>
<event>
 5    1  0.3257199E-002  0.1250034E+03  0.7818608E-02  0.1235064E+00
         -4   -1    0    0    0  501 -0.00000000000E+00  0.00000000000E+00  0.53302109452E+02  0.53317237100E+02  0.12700000000E+01 0. -1.
          4   -1    0    0  501    0  0.00000000000E+00 -0.00000000000E+00 -0.73258083245E+02  0.73269090760E+02  0.12700000000E+01 0. -1.
         25    2    1    2    0    0  0.00000000000E+00  0.00000000000E+00 -0.19955973794E+02  0.12658632786E+03  0.12500343000E+03 0.  0.
    9000005    1    3    3    0    0  0.12256538062E+02  0.53225854357E+02 -0.40731109712E+02  0.68141306090E+02  0.10000000000E+01 0.  0.
    9000005    1    3    3    0    0 -0.12256538062E+02 -0.53225854357E+02  0.20775135918E+02  0.58445021770E+02  0.10000000000E+01 0.  0.
<mgrwt>
<rscale>  0 0.12500343E+03</rscale>
<asrwt>0</asrwt>
<pdfrwt beam="2">  1        4 0.11272485E-01 0.12500343E+03</pdfrwt>
<pdfrwt beam="1">  1       -4 0.82023350E-02 0.12500343E+03</pdfrwt>
<totfact> 0.10417340E+04</totfact>
</mgrwt>
</event>
<event>
 5    1  0.3257199E-002  0.1250067E+03  0.7818608E-02  0.1235059E+00
          4   -1    0    0  501    0  0.00000000000E+00  0.00000000000E+00  0.20886977259E+02  0.20925551821E+02  0.12700000000E+01 0. -1.
         -4   -1    0    0    0  501 -0.00000000000E+00 -0.00000000000E+00 -0.18682511651E+03  0.18682943307E+03  0.12700000000E+01 0. -1.
         25    2    1    2    0    0  0.00000000000E+00  0.00000000000E+00 -0.16593813925E+03  0.20775498489E+03  0.12500667057E+03 0.  0.
    9000005    1    3    3    0    0  0.56987381815E+02 -0.25578004318E+02 -0.86238905501E+02  0.10648917698E+03  0.10000000000E+01 0.  0.
    9000005    1    3    3    0    0 -0.56987381815E+02  0.25578004318E+02 -0.79699233752E+02  0.10126580791E+03  0.10000000000E+01 0.  0.
<mgrwt>
<rscale>  0 0.12500667E+03</rscale>
<asrwt>0</asrwt>
<pdfrwt beam="1">  1        4 0.32166806E-02 0.12500667E+03</pdfrwt>
<pdfrwt beam="2">  1       -4 0.28745624E-01 0.12500667E+03</pdfrwt>
<totfact> 0.88830588E+03</totfact>
</mgrwt>
</event>
<event>
 5    1  0.3257199E-002  0.1249948E+03  0.7818608E-02  0.1235077E+00
         -4   -1    0    0    0  501 -0.00000000000E+00  0.00000000000E+00  0.78251101006E+02  0.78261406252E+02  0.12700000000E+01 0. -1.
          4   -1    0    0  501    0  0.00000000000E+00 -0.00000000000E+00 -0.49893586913E+02  0.49909747696E+02  0.12700000000E+01 0. -1.
         25    2    1    2    0    0  0.00000000000E+00  0.00000000000E+00  0.28357514092E+02  0.12817115395E+03  0.12499478429E+03 0.  0.
    9000005    1    3    3    0    0  0.33824964624E+02 -0.30854642948E+02 -0.29431846104E+02  0.54436851381E+02  0.10000000000E+01 0.  0.
    9000005    1    3    3    0    0 -0.33824964624E+02  0.30854642948E+02  0.57789360196E+02  0.73734302567E+02  0.10000000000E+01 0.  0.
<mgrwt>
<rscale>  0 0.12499478E+03</rscale>
<asrwt>0</asrwt>
<pdfrwt beam="2">  1        4 0.76779724E-02 0.12499478E+03</pdfrwt>
<pdfrwt beam="1">  1       -4 0.12040667E-01 0.12499478E+03</pdfrwt>
<totfact> 0.10385016E+04</totfact>
</mgrwt>
</event>
<event>
 5    1  0.3257199E-002  0.1249996E+03  0.7818608E-02  0.1235070E+00
          4   -1    0    0  501    0  0.00000000000E+00  0.00000000000E+00  0.51771866428E+03  0.51772022197E+03  0.12700000000E+01 0.  1.
         -4   -1    0    0    0  501 -0.00000000000E+00 -0.00000000000E+00 -0.74900443341E+01  0.75969509757E+01  0.12700000000E+01 0.  1.
         25    2    1    2    0    0  0.00000000000E+00  0.00000000000E+00  0.51022861994E+03  0.52531717295E+03  0.12499955035E+03 0.  0.
    9000005    1    3    3    0    0 -0.17611360717E+02 -0.41332429500E+02  0.43765667289E+03  0.43995783103E+03  0.10000000000E+01 0.  0.
    9000005    1    3    3    0    0  0.17611360717E+02  0.41332429500E+02  0.72571947046E+02  0.85359341918E+02  0.10000000000E+01 0.  0.
<mgrwt>
<rscale>  0 0.12499955E+03</rscale>
<asrwt>0</asrwt>
<pdfrwt beam="1">  1        4 0.79657384E-01 0.12499955E+03</pdfrwt>
<pdfrwt beam="2">  1       -4 0.11606577E-02 0.12499955E+03</pdfrwt>
<totfact> 0.53952738E+03</totfact>
</mgrwt>
</event>
<event>
 5    1  0.3257199E-002  0.1250026E+03  0.7818608E-02  0.1235065E+00
         -4   -1    0    0    0  501 -0.00000000000E+00  0.00000000000E+00  0.34276511589E+02  0.34300031293E+02  0.12700000000E+01 0.  1.
          4   -1    0    0  501    0  0.00000000000E+00 -0.00000000000E+00 -0.11390143528E+03  0.11390851531E+03  0.12700000000E+01 0.  1.
         25    2    1    2    0    0  0.00000000000E+00  0.00000000000E+00 -0.79624923694E+02  0.14820854660E+03  0.12500257922E+03 0.  0.
    9000005    1    3    3    0    0  0.62633658682E+00  0.29453214953E+02 -0.10515776097E+03  0.10921098324E+03  0.10000000000E+01 0.  0.
    9000005    1    3    3    0    0 -0.62633658682E+00 -0.29453214953E+02  0.25532837275E+02  0.38997563358E+02  0.10000000000E+01 0.  0.
<mgrwt>
<rscale>  0 0.12500258E+03</rscale>
<asrwt>0</asrwt>
<pdfrwt beam="2">  1        4 0.17525651E-01 0.12500258E+03</pdfrwt>
<pdfrwt beam="1">  1       -4 0.52756634E-02 0.12500258E+03</pdfrwt>
<totfact> 0.99656217E+03</totfact>
</mgrwt>
</event>
<event>
 5    1  0.3257199E-002  0.1250026E+03  0.7818608E-02  0.1235065E+00
         -4   -1    0    0    0  501 -0.00000000000E+00  0.00000000000E+00  0.32064008638E+02  0.32089150034E+02  0.12700000000E+01 0. -1.
          4   -1    0    0  501    0  0.00000000000E+00 -0.00000000000E+00 -0.12175541119E+03  0.12176203453E+03  0.12700000000E+01 0. -1.
         25    2    1    2    0    0  0.00000000000E+00  0.00000000000E+00 -0.89691402552E+02  0.15385118457E+03  0.12500255718E+03 0.  0.
    9000005    1    3    3    0    0  0.57148348512E+02  0.39229194513E+01 -0.14098581321E+02  0.59000788384E+02  0.10000000000E+01 0.  0.
    9000005    1    3    3    0    0 -0.57148348512E+02 -0.39229194513E+01 -0.75592821231E+02  0.94850396184E+02  0.10000000000E+01 0.  0.
<mgrwt>
<rscale>  0 0.12500256E+03</rscale>
<asrwt>0</asrwt>
<pdfrwt beam="2">  1        4 0.18734045E-01 0.12500256E+03</pdfrwt>
<pdfrwt beam="1">  1       -4 0.49353679E-02 0.12500256E+03</pdfrwt>
<totfact> 0.98535819E+03</totfact>
</mgrwt>
</event>
<event>
 5    1  0.3257199E-002  0.1249913E+03  0.7818608E-02  0.1235083E+00
         -4   -1    0    0    0  501 -0.00000000000E+00  0.00000000000E+00  0.53695515193E+03  0.53695665382E+03  0.12700000000E+01 0. -1.
          4   -1    0    0  501    0  0.00000000000E+00 -0.00000000000E+00 -0.72168501730E+01  0.73277436104E+01  0.12700000000E+01 0. -1.
         25    2    1    2    0    0  0.00000000000E+00  0.00000000000E+00  0.52973830175E+03  0.54428439743E+03  0.12499134746E+03 0.  0.
    9000005    1    3    3    0    0  0.15696499290E+02  0.48589878496E+02  0.10802259360E+03  0.11948739310E+03  0.10000000000E+01 0.  0.
    9000005    1    3    3    0    0 -0.15696499290E+02 -0.48589878496E+02  0.42171570815E+03  0.42479700433E+03  0.10000000000E+01 0.  0.
<mgrwt>
<rscale>  0 0.12499135E+03</rscale>
<asrwt>0</asrwt>
<pdfrwt beam="2">  1        4 0.11189304E-02 0.12499135E+03</pdfrwt>
<pdfrwt beam="1">  1       -4 0.82617130E-01 0.12499135E+03</pdfrwt>
<totfact> 0.52595019E+03</totfact>
</mgrwt>
</event>
<event>
 5    1  0.3257199E-002  0.1250043E+03  0.7818608E-02  0.1235063E+00
          4   -1    0    0  501    0  0.00000000000E+00  0.00000000000E+00  0.16560102093E+02  0.16608729070E+02  0.12700000000E+01 0.  1.
         -4   -1    0    0    0  501 -0.00000000000E+00 -0.00000000000E+00 -0.23550315590E+03  0.23550658024E+03  0.12700000000E+01 0.  1.
         25    2    1    2    0    0  0.00000000000E+00  0.00000000000E+00 -0.21894305380E+03  0.25211530931E+03  0.12500427345E+03 0.  0.
    9000005    1    3    3    0    0 -0.25898605243E+02 -0.48434920799E+02 -0.16960075286E+03  0.17827533390E+03  0.10000000000E+01 0.  0.
    9000005    1    3    3    0    0  0.25898605243E+02  0.48434920799E+02 -0.49342300941E+02  0.73839975409E+02  0.10000000000E+01 0.  0.
<mgrwt>
<rscale>  0 0.12500427E+03</rscale>
<asrwt>0</asrwt>
<pdfrwt beam="1">  1        4 0.25517121E-02 0.12500427E+03</pdfrwt>
<pdfrwt beam="2">  1       -4 0.36235256E-01 0.12500427E+03</pdfrwt>
<totfact> 0.82017652E+03</totfact>
</mgrwt>
</event>
<event>
 5    1  0.3257199E-002  0.1249976E+03  0.7818608E-02  0.1235073E+00
          4   -1    0    0  501    0  0.00000000000E+00  0.00000000000E+00  0.22228182824E+01  0.25600431865E+01  0.12700000000E+01 0. -1.
         -4   -1    0    0    0  501 -0.00000000000E+00 -0.00000000000E+00 -0.16330351625E+04  0.16330356563E+04  0.12700000000E+01 0. -1.
         25    2    1    2    0    0  0.00000000000E+00  0.00000000000E+00 -0.16308123442E+04  0.16355956995E+04  0.12499756094E+03 0.  0.
    9000005    1    3    3    0    0 -0.67912197390E+01 -0.36980931699E+02 -0.16228303474E+03  0.16658479324E+03  0.10000000000E+01 0.  0.
    9000005    1    3    3    0    0  0.67912197390E+01  0.36980931699E+02 -0.14685293095E+04  0.14690109063E+04  0.10000000000E+01 0.  0.
<mgrwt>
<rscale>  0 0.12499756E+03</rscale>
<asrwt>0</asrwt>
<pdfrwt beam="1">  1        4 0.36795171E-03 0.12499756E+03</pdfrwt>
<pdfrwt beam="2">  1       -4 0.25126127E+00 0.12499756E+03</pdfrwt>
<totfact> 0.15412176E+03</totfact>
</mgrwt>
</event>
<event>
 5    1  0.3257199E-002  0.1250150E+03  0.7818608E-02  0.1235046E+00
         -4   -1    0    0    0  501 -0.00000000000E+00  0.00000000000E+00  0.27742563186E+02  0.27771617024E+02  0.12700000000E+01 0.  1.
          4   -1    0    0  501    0  0.00000000000E+00 -0.00000000000E+00 -0.14073163787E+03  0.14073736817E+03  0.12700000000E+01 0.  1.
         25    2    1    2    0    0  0.00000000000E+00  0.00000000000E+00 -0.11298907469E+03  0.16850898519E+03  0.12501498747E+03 0.  0.
    9000005    1    3    3    0    0 -0.12195154767E+02 -0.27831533776E+02  0.17122476265E+02  0.34892624802E+02  0.10000000000E+01 0.  0.
    9000005    1    3    3    0    0  0.12195154767E+02  0.27831533776E+02 -0.13011155095E+03  0.13361636039E+03  0.10000000000E+01 0.  0.
<mgrwt>
<rscale>  0 0.12501499E+03</rscale>
<asrwt>0</asrwt>
<pdfrwt beam="2">  1        4 0.21653696E-01 0.12501499E+03</pdfrwt>
<pdfrwt beam="1">  1       -4 0.42707624E-02 0.12501499E+03</pdfrwt>
<totfact> 0.95694732E+03</totfact>
</mgrwt>
</event>
<event>
 5    1  0.3257199E-002  0.1249999E+03  0.7818608E-02  0.1235069E+00
          4   -1    0    0  501    0  0.00000000000E+00  0.00000000000E+00  0.30415971337E+02  0.30442473822E+02  0.12700000000E+01 0.  1.
         -4   -1    0    0    0  501 -0.00000000000E+00 -0.00000000000E+00 -0.12834178207E+03  0.12834806553E+03  0.12700000000E+01 0.  1.
         25    2    1    2    0    0  0.00000000000E+00  0.00000000000E+00 -0.97925810738E+02  0.15879053935E+03  0.12499988392E+03 0.  0.
    9000005    1    3    3    0    0 -0.20828858133E+02 -0.56485467213E+02 -0.70249611653E+02  0.92522739231E+02  0.10000000000E+01 0.  0.
    9000005    1    3    3    0    0  0.20828858133E+02  0.56485467213E+02 -0.27676199084E+02  0.66267800123E+02  0.10000000000E+01 0.  0.
<mgrwt>
<rscale>  0 0.12499988E+03</rscale>
<asrwt>0</asrwt>
<pdfrwt beam="1">  1        4 0.46819023E-02 0.12499988E+03</pdfrwt>
<pdfrwt beam="2">  1       -4 0.19747411E-01 0.12499988E+03</pdfrwt>
<totfact> 0.97576722E+03</totfact>
</mgrwt>
</event>
<event>
 5    1  0.3257199E-002  0.1249994E+03  0.7818608E-02  0.1235070E+00
         -4   -1    0    0    0  501 -0.00000000000E+00  0.00000000000E+00  0.14844116735E+02  0.14898345601E+02  0.12700000000E+01 0.  1.
          4   -1    0    0  501    0  0.00000000000E+00 -0.00000000000E+00 -0.26261343316E+03  0.26261650401E+03  0.12700000000E+01 0.  1.
         25    2    1    2    0    0  0.00000000000E+00  0.00000000000E+00 -0.24776931643E+03  0.27751484961E+03  0.12499943036E+03 0.  0.
    9000005    1    3    3    0    0  0.39552303951E+02  0.31368708613E+02 -0.42105711066E+02  0.65743984761E+02  0.10000000000E+01 0.  0.
    9000005    1    3    3    0    0 -0.39552303951E+02 -0.31368708613E+02 -0.20566360536E+03  0.21177086485E+03  0.10000000000E+01 0.  0.
<mgrwt>
<rscale>  0 0.12499943E+03</rscale>
<asrwt>0</asrwt>
<pdfrwt beam="2">  1        4 0.40406471E-01 0.12499943E+03</pdfrwt>
<pdfrwt beam="1">  1       -4 0.22881181E-02 0.12499943E+03</pdfrwt>
<totfact> 0.78509772E+03</totfact>
</mgrwt>
</event>
<event>
 5    1  0.3257199E-002  0.1249994E+03  0.7818608E-02  0.1235070E+00
         -4   -1    0    0    0  501 -0.00000000000E+00  0.00000000000E+00  0.65989573396E+02  0.66001793135E+02  0.12700000000E+01 0. -1.
          4   -1    0    0  501    0  0.00000000000E+00 -0.00000000000E+00 -0.59169840518E+02  0.59183468358E+02  0.12700000000E+01 0. -1.
         25    2    1    2    0    0  0.00000000000E+00  0.00000000000E+00  0.68197328784E+01  0.12518526149E+03  0.12499936375E+03 0.  0.
    9000005    1    3    3    0    0  0.38756347025E+02 -0.22478463965E+02 -0.40219523347E+02  0.60215827116E+02  0.10000000000E+01 0.  0.
    9000005    1    3    3    0    0 -0.38756347025E+02  0.22478463965E+02  0.47039256226E+02  0.64969434377E+02  0.10000000000E+01 0.  0.
<mgrwt>
<rscale>  0 0.12499936E+03</rscale>
<asrwt>0</asrwt>
<pdfrwt beam="2">  1        4 0.91050406E-02 0.12499936E+03</pdfrwt>
<pdfrwt beam="1">  1       -4 0.10154230E-01 0.12499936E+03</pdfrwt>
<totfact> 0.10448990E+04</totfact>
</mgrwt>
</event>
<event>
 5    1  0.3257199E-002  0.1250005E+03  0.7818608E-02  0.1235069E+00
         -4   -1    0    0    0  501 -0.00000000000E+00  0.00000000000E+00  0.27779394648E+02  0.27808410005E+02  0.12700000000E+01 0. -1.
          4   -1    0    0  501    0  0.00000000000E+00 -0.00000000000E+00 -0.14051259058E+03  0.14051832980E+03  0.12700000000E+01 0. -1.
         25    2    1    2    0    0  0.00000000000E+00  0.00000000000E+00 -0.11273319593E+03  0.16832673981E+03  0.12500047148E+03 0.  0.
    9000005    1    3    3    0    0  0.21343595345E+01 -0.49910176746E+02 -0.58068920980E+01  0.50302099651E+02  0.10000000000E+01 0.  0.
    9000005    1    3    3    0    0 -0.21343595345E+01  0.49910176746E+02 -0.10692630383E+03  0.11802464016E+03  0.10000000000E+01 0.  0.
<mgrwt>
<rscale>  0 0.12500047E+03</rscale>
<asrwt>0</asrwt>
<pdfrwt beam="2">  1        4 0.21619995E-01 0.12500047E+03</pdfrwt>
<pdfrwt beam="1">  1       -4 0.42764265E-02 0.12500047E+03</pdfrwt>
<totfact> 0.95760030E+03</totfact>
</mgrwt>
</event>
<event>
 5    1  0.3257199E-002  0.1249954E+03  0.7818608E-02  0.1235076E+00
         -4   -1    0    0    0  501 -0.00000000000E+00  0.00000000000E+00  0.64451987452E+02  0.64464498652E+02  0.12700000000E+01 0. -1.
          4   -1    0    0  501    0  0.00000000000E+00 -0.00000000000E+00 -0.60577665866E+02  0.60590977066E+02  0.12700000000E+01 0. -1.
         25    2    1    2    0    0  0.00000000000E+00  0.00000000000E+00  0.38743215851E+01  0.12505547572E+03  0.12499544647E+03 0.  0.
    9000005    1    3    3    0    0 -0.60807093809E+02 -0.51711834226E+01 -0.11512569305E+02  0.62111054149E+02  0.10000000000E+01 0.  0.
    9000005    1    3    3    0    0  0.60807093809E+02  0.51711834226E+01  0.15386890890E+02  0.62944421569E+02  0.10000000000E+01 0.  0.
<mgrwt>
<rscale>  0 0.12499545E+03</rscale>
<asrwt>0</asrwt>
<pdfrwt beam="2">  1        4 0.93216272E-02 0.12499545E+03</pdfrwt>
<pdfrwt beam="1">  1       -4 0.99176768E-02 0.12499545E+03</pdfrwt>
<totfact> 0.10452733E+04</totfact>
</mgrwt>
</event>
<event>
 5    1  0.3257199E-002  0.1249985E+03  0.7818608E-02  0.1235072E+00
         -4   -1    0    0    0  501 -0.00000000000E+00  0.00000000000E+00  0.38519491660E+01  0.40559107951E+01  0.12700000000E+01 0.  1.
          4   -1    0    0  501    0  0.00000000000E+00 -0.00000000000E+00 -0.98771246781E+03  0.98771328430E+03  0.12700000000E+01 0.  1.
         25    2    1    2    0    0  0.00000000000E+00  0.00000000000E+00 -0.98386051865E+03  0.99176919509E+03  0.12499846470E+03 0.  0.
    9000005    1    3    3    0    0 -0.15585509580E+02 -0.21972287388E+02 -0.93931681350E+03  0.93970355200E+03  0.10000000000E+01 0.  0.
    9000005    1    3    3    0    0  0.15585509580E+02  0.21972287388E+02 -0.44543705145E+02  0.52065643086E+02  0.10000000000E+01 0.  0.
<mgrwt>
<rscale>  0 0.12499846E+03</rscale>
<asrwt>0</asrwt>
<pdfrwt beam="2">  1        4 0.15197132E+00 0.12499846E+03</pdfrwt>
<pdfrwt beam="1">  1       -4 0.60836051E-03 0.12499846E+03</pdfrwt>
<totfact> 0.30878889E+03</totfact>
</mgrwt>
</event>
<event>
 5    1  0.3257199E-002  0.1250012E+03  0.7818608E-02  0.1235067E+00
          4   -1    0    0  501    0  0.00000000000E+00  0.00000000000E+00  0.30814719812E+03  0.30814981520E+03  0.12700000000E+01 0. -1.
         -4   -1    0    0    0  501 -0.00000000000E+00 -0.00000000000E+00 -0.12642335793E+02  0.12705965303E+02  0.12700000000E+01 0. -1.
         25    2    1    2    0    0  0.00000000000E+00  0.00000000000E+00  0.29550486233E+03  0.32085578051E+03  0.12500123289E+03 0.  0.
    9000005    1    3    3    0    0 -0.44892669051E+01 -0.58412043949E+02  0.91915570111E+02  0.10900271751E+03  0.10000000000E+01 0.  0.
    9000005    1    3    3    0    0  0.44892669051E+01  0.58412043949E+02  0.20358929222E+03  0.21185306300E+03  0.10000000000E+01 0.  0.
<mgrwt>
<rscale>  0 0.12500123E+03</rscale>
<asrwt>0</asrwt>
<pdfrwt beam="1">  1        4 0.47412354E-01 0.12500123E+03</pdfrwt>
<pdfrwt beam="2">  1       -4 0.19500708E-02 0.12500123E+03</pdfrwt>
<totfact> 0.73052461E+03</totfact>
</mgrwt>
</event>
<event>
 5    1  0.3257199E-002  0.1250013E+03  0.7818608E-02  0.1235067E+00
         -4   -1    0    0    0  501 -0.00000000000E+00  0.00000000000E+00  0.29749433880E+02  0.29776529620E+02  0.12700000000E+01 0.  1.
          4   -1    0    0  501    0  0.00000000000E+00 -0.00000000000E+00 -0.13121787704E+03  0.13122402278E+03  0.12700000000E+01 0.  1.
         25    2    1    2    0    0  0.00000000000E+00  0.00000000000E+00 -0.10146844316E+03  0.16100055240E+03  0.12500133166E+03 0.  0.
    9000005    1    3    3    0    0  0.21950765517E+02  0.11246951456E+01 -0.12608148127E+03  0.12798687810E+03  0.10000000000E+01 0.  0.
    9000005    1    3    3    0    0 -0.21950765517E+02 -0.11246951456E+01  0.24613038111E+02  0.33013674303E+02  0.10000000000E+01 0.  0.
<mgrwt>
<rscale>  0 0.12500133E+03</rscale>
<asrwt>0</asrwt>
<pdfrwt beam="2">  1        4 0.20189922E-01 0.12500133E+03</pdfrwt>
<pdfrwt beam="1">  1       -4 0.45793931E-02 0.12500133E+03</pdfrwt>
<totfact> 0.97147325E+03</totfact>
</mgrwt>
</event>
<event>
 5    1  0.3257199E-002  0.1250028E+03  0.7818608E-02  0.1235065E+00
          4   -1    0    0  501    0  0.00000000000E+00  0.00000000000E+00  0.26917627692E+02  0.26947570959E+02  0.12700000000E+01 0. -1.
         -4   -1    0    0    0  501 -0.00000000000E+00 -0.00000000000E+00 -0.14501172482E+03  0.14501728599E+03  0.12700000000E+01 0. -1.
         25    2    1    2    0    0  0.00000000000E+00  0.00000000000E+00 -0.11809409713E+03  0.17196485695E+03  0.12500278496E+03 0.  0.
    9000005    1    3    3    0    0  0.51952346315E+02  0.34731925101E+02 -0.59414007255E+02  0.86234431446E+02  0.10000000000E+01 0.  0.
    9000005    1    3    3    0    0 -0.51952346315E+02 -0.34731925101E+02 -0.58680089872E+02  0.85730425499E+02  0.10000000000E+01 0.  0.
<mgrwt>
<rscale>  0 0.12500278E+03</rscale>
<asrwt>0</asrwt>
<pdfrwt beam="1">  1        4 0.41439047E-02 0.12500278E+03</pdfrwt>
<pdfrwt beam="2">  1       -4 0.22312227E-01 0.12500278E+03</pdfrwt>
<totfact> 0.95077736E+03</totfact>
</mgrwt>
</event>
<event>
 5    1  0.3257199E-002  0.1249984E+03  0.7818608E-02  0.1235072E+00
          4   -1    0    0  501    0  0.00000000000E+00  0.00000000000E+00  0.27549879674E+03  0.27550172396E+03  0.12700000000E+01 0. -1.
         -4   -1    0    0    0  501 -0.00000000000E+00 -0.00000000000E+00 -0.14147026858E+02  0.14203917380E+02  0.12700000000E+01 0. -1.
         25    2    1    2    0    0  0.00000000000E+00  0.00000000000E+00  0.26135176988E+03  0.28970564134E+03  0.12499844401E+03 0.  0.
    9000005    1    3    3    0    0  0.14221322137E+00  0.27346745457E+02  0.26090540722E+03  0.26233660863E+03  0.10000000000E+01 0.  0.
    9000005    1    3    3    0    0 -0.14221322137E+00 -0.27346745457E+02  0.44636266077E+00  0.27369032707E+02  0.10000000000E+01 0.  0.
<mgrwt>
<rscale>  0 0.12499844E+03</rscale>
<asrwt>0</asrwt>
<pdfrwt beam="1">  1        4 0.42389030E-01 0.12499844E+03</pdfrwt>
<pdfrwt beam="2">  1       -4 0.21810671E-02 0.12499844E+03</pdfrwt>
<totfact> 0.76911218E+03</totfact>
</mgrwt>
</event>
<event>
 5    1  0.3257199E-002  0.1249998E+03  0.7818608E-02  0.1235070E+00
          4   -1    0    0  501    0  0.00000000000E+00  0.00000000000E+00  0.48933453330E+02  0.48949931101E+02  0.12700000000E+01 0. -1.
         -4   -1    0    0    0  501 -0.00000000000E+00 -0.00000000000E+00 -0.79792538343E+02  0.79802644538E+02  0.12700000000E+01 0. -1.
         25    2    1    2    0    0  0.00000000000E+00  0.00000000000E+00 -0.30859085014E+02  0.12875257564E+03  0.12499977042E+03 0.  0.
    9000005    1    3    3    0    0 -0.10875039151E+01 -0.59587665434E+02  0.39327741092E+01  0.59735577748E+02  0.10000000000E+01 0.  0.
    9000005    1    3    3    0    0  0.10875039151E+01  0.59587665434E+02 -0.34791859123E+02  0.69016997891E+02  0.10000000000E+01 0.  0.
<mgrwt>
<rscale>  0 0.12499977E+03</rscale>
<asrwt>0</asrwt>
<pdfrwt beam="1">  1        4 0.75302685E-02 0.12499977E+03</pdfrwt>
<pdfrwt beam="2">  1       -4 0.12277820E-01 0.12499977E+03</pdfrwt>
<totfact> 0.10371320E+04</totfact>
</mgrwt>
</event>
<event>
 5    1  0.3257199E-002  0.1250072E+03  0.7818608E-02  0.1235058E+00
          4   -1    0    0  501    0  0.00000000000E+00  0.00000000000E+00  0.44712522211E+03  0.44712702574E+03  0.12700000000E+01 0.  1.
         -4   -1    0    0    0  501 -0.00000000000E+00 -0.00000000000E+00 -0.86893865352E+01  0.87817047524E+01  0.12700000000E+01 0.  1.
         25    2    1    2    0    0  0.00000000000E+00  0.00000000000E+00  0.43843583557E+03  0.45590873049E+03  0.12500715429E+03 0.  0.
    9000005    1    3    3    0    0 -0.27332264912E+02 -0.16565371695E+02  0.41508353439E+03  0.41631334926E+03  0.10000000000E+01 0.  0.
    9000005    1    3    3    0    0  0.27332264912E+02  0.16565371695E+02  0.23352301178E+02  0.39595381232E+02  0.10000000000E+01 0.  0.
<mgrwt>
<rscale>  0 0.12500715E+03</rscale>
<asrwt>0</asrwt>
<pdfrwt beam="1">  1        4 0.68795747E-01 0.12500715E+03</pdfrwt>
<pdfrwt beam="2">  1       -4 0.13440686E-02 0.12500715E+03</pdfrwt>
<totfact> 0.59445944E+03</totfact>
</mgrwt>
</event>
<event>
 5    1  0.3257199E-002  0.1250018E+03  0.7818608E-02  0.1235066E+00
         -4   -1    0    0    0  501 -0.00000000000E+00  0.00000000000E+00  0.23208036746E+03  0.23208384231E+03  0.12700000000E+01 0. -1.
          4   -1    0    0  501    0  0.00000000000E+00 -0.00000000000E+00 -0.16804389290E+02  0.16852311396E+02  0.12700000000E+01 0. -1.
         25    2    1    2    0    0  0.00000000000E+00  0.00000000000E+00  0.21527597817E+03  0.24893615370E+03  0.12500184736E+03 0.  0.
    9000005    1    3    3    0    0 -0.31423033983E+02 -0.37460592977E+02  0.18514294288E+03  0.19149311316E+03  0.10000000000E+01 0.  0.
    9000005    1    3    3    0    0  0.31423033983E+02  0.37460592977E+02  0.30133035293E+02  0.57443040544E+02  0.10000000000E+01 0.  0.
<mgrwt>
<rscale>  0 0.12500185E+03</rscale>
<asrwt>0</asrwt>
<pdfrwt beam="2">  1        4 0.25892444E-02 0.12500185E+03</pdfrwt>
<pdfrwt beam="1">  1       -4 0.35708623E-01 0.12500185E+03</pdfrwt>
<totfact> 0.82480837E+03</totfact>
</mgrwt>
</event>
<event>
 5    1  0.3257199E-002  0.1249979E+03  0.7818608E-02  0.1235073E+00
          4   -1    0    0  501    0  0.00000000000E+00  0.00000000000E+00  0.18206578891E+01  0.22198412441E+01  0.12700000000E+01 0.  1.
         -4   -1    0    0    0  501 -0.00000000000E+00 -0.00000000000E+00 -0.19330848490E+04  0.19330852662E+04  0.12700000000E+01 0.  1.
         25    2    1    2    0    0  0.00000000000E+00  0.00000000000E+00 -0.19312641912E+04  0.19353051075E+04  0.12499793185E+03 0.  0.
    9000005    1    3    3    0    0  0.20481756097E+02  0.14440856133E+02 -0.18519512654E+04  0.18521210894E+04  0.10000000000E+01 0.  0.
    9000005    1    3    3    0    0 -0.20481756097E+02 -0.14440856133E+02 -0.79312925804E+02  0.83184018046E+02  0.10000000000E+01 0.  0.
<mgrwt>
<rscale>  0 0.12499793E+03</rscale>
<asrwt>0</asrwt>
<pdfrwt beam="1">  1        4 0.31084126E-03 0.12499793E+03</pdfrwt>
<pdfrwt beam="2">  1       -4 0.29742693E+00 0.12499793E+03</pdfrwt>
<totfact> 0.10729998E+03</totfact>
</mgrwt>
</event>
<event>
 5    1  0.3257199E-002  0.1250025E+03  0.7818608E-02  0.1235065E+00
          4   -1    0    0  501    0  0.00000000000E+00  0.00000000000E+00  0.38700592982E+02  0.38721425556E+02  0.12700000000E+01 0. -1.
         -4   -1    0    0    0  501 -0.00000000000E+00 -0.00000000000E+00 -0.10088714312E+03  0.10089513638E+03  0.12700000000E+01 0. -1.
         25    2    1    2    0    0  0.00000000000E+00  0.00000000000E+00 -0.62186550134E+02  0.13961656194E+03  0.12500246938E+03 0.  0.
    9000005    1    3    3    0    0 -0.26552813963E+02  0.47377407192E+02  0.34359471587E+01  0.54428635610E+02  0.10000000000E+01 0.  0.
    9000005    1    3    3    0    0  0.26552813963E+02 -0.47377407192E+02 -0.65622497293E+02  0.85187926331E+02  0.10000000000E+01 0.  0.
<mgrwt>
<rscale>  0 0.12500247E+03</rscale>
<asrwt>0</asrwt>
<pdfrwt beam="1">  1        4 0.59561548E-02 0.12500247E+03</pdfrwt>
<pdfrwt beam="2">  1       -4 0.15523316E-01 0.12500247E+03</pdfrwt>
<totfact> 0.10140975E+04</totfact>
</mgrwt>
</event>
<event>
 5    1  0.3257199E-002  0.1249965E+03  0.7818608E-02  0.1235075E+00
          4   -1    0    0  501    0  0.00000000000E+00  0.00000000000E+00  0.10442702857E+03  0.10443475090E+03  0.12700000000E+01 0.  1.
         -4   -1    0    0    0  501 -0.00000000000E+00 -0.00000000000E+00 -0.37384519262E+02  0.37406084805E+02  0.12700000000E+01 0.  1.
         25    2    1    2    0    0  0.00000000000E+00  0.00000000000E+00  0.67042509309E+02  0.14184083571E+03  0.12499649843E+03 0.  0.
    9000005    1    3    3    0    0  0.36607446572E+02  0.37862474468E+02 -0.46471193813E+01  0.52879748826E+02  0.10000000000E+01 0.  0.
    9000005    1    3    3    0    0 -0.36607446572E+02 -0.37862474468E+02  0.71689628690E+02  0.88961086881E+02  0.10000000000E+01 0.  0.
<mgrwt>
<rscale>  0 0.12499650E+03</rscale>
<asrwt>0</asrwt>
<pdfrwt beam="1">  1        4 0.16067950E-01 0.12499650E+03</pdfrwt>
<pdfrwt beam="2">  1       -4 0.57537174E-02 0.12499650E+03</pdfrwt>
<totfact> 0.10096371E+04</totfact>
</mgrwt>
</event>
<event>
 5    1  0.3257199E-002  0.1250047E+03  0.7818608E-02  0.1235062E+00
         -4   -1    0    0    0  501 -0.00000000000E+00  0.00000000000E+00  0.48172409312E+01  0.49818380332E+01  0.12700000000E+01 0. -1.
          4   -1    0    0  501    0  0.00000000000E+00 -0.00000000000E+00 -0.79716394722E+03  0.79716495887E+03  0.12700000000E+01 0. -1.
         25    2    1    2    0    0  0.00000000000E+00  0.00000000000E+00 -0.79234670629E+03  0.80214679690E+03  0.12500472316E+03 0.  0.
    9000005    1    3    3    0    0  0.31001374947E+02 -0.19719323539E+01 -0.74414455105E+03  0.74479331806E+03  0.10000000000E+01 0.  0.
    9000005    1    3    3    0    0 -0.31001374947E+02  0.19719323539E+01 -0.48202155237E+02  0.57353478843E+02  0.10000000000E+01 0.  0.
<mgrwt>
<rscale>  0 0.12500472E+03</rscale>
<asrwt>0</asrwt>
<pdfrwt beam="2">  1        4 0.12265324E+00 0.12500472E+03</pdfrwt>
<pdfrwt beam="1">  1       -4 0.75385376E-03 0.12500472E+03</pdfrwt>
<totfact> 0.38165156E+03</totfact>
</mgrwt>
</event>
<event>
 5    1  0.3257199E-002  0.1250025E+03  0.7818608E-02  0.1235065E+00
         -4   -1    0    0    0  501 -0.00000000000E+00  0.00000000000E+00  0.13154321481E+03  0.13154934536E+03  0.12700000000E+01 0.  1.
          4   -1    0    0  501    0  0.00000000000E+00 -0.00000000000E+00 -0.29676337045E+02  0.29703499464E+02  0.12700000000E+01 0.  1.
         25    2    1    2    0    0  0.00000000000E+00  0.00000000000E+00  0.10186687777E+03  0.16125284482E+03  0.12500247668E+03 0.  0.
    9000005    1    3    3    0    0  0.54724351807E+02  0.30174618291E+02  0.51420443649E+02  0.80934073757E+02  0.10000000000E+01 0.  0.
    9000005    1    3    3    0    0 -0.54724351807E+02 -0.30174618291E+02  0.50446434120E+02  0.80318771064E+02  0.10000000000E+01 0.  0.
<mgrwt>
<rscale>  0 0.12500248E+03</rscale>
<asrwt>0</asrwt>
<pdfrwt beam="2">  1        4 0.45681513E-02 0.12500248E+03</pdfrwt>
<pdfrwt beam="1">  1       -4 0.20239979E-01 0.12500248E+03</pdfrwt>
<totfact> 0.97096384E+03</totfact>
</mgrwt>
</event>
<event>
 5    1  0.3257199E-002  0.1249972E+03  0.7818608E-02  0.1235074E+00
          4   -1    0    0  501    0  0.00000000000E+00  0.00000000000E+00  0.26990801255E+03  0.26991100040E+03  0.12700000000E+01 0. -1.
         -4   -1    0    0    0  501 -0.00000000000E+00 -0.00000000000E+00 -0.14440940139E+02  0.14496677278E+02  0.12700000000E+01 0. -1.
         25    2    1    2    0    0  0.00000000000E+00  0.00000000000E+00  0.25546707241E+03  0.28440767768E+03  0.12499720812E+03 0.  0.
    9000005    1    3    3    0    0 -0.16598476511E+02  0.42169222070E+02  0.22563339778E+03  0.23014165835E+03  0.10000000000E+01 0.  0.
    9000005    1    3    3    0    0  0.16598476511E+02 -0.42169222070E+02  0.29833674632E+02  0.54266019336E+02  0.10000000000E+01 0.  0.
<mgrwt>
<rscale>  0 0.12499721E+03</rscale>
<asrwt>0</asrwt>
<pdfrwt beam="1">  1        4 0.41528820E-01 0.12499721E+03</pdfrwt>
<pdfrwt beam="2">  1       -4 0.22262008E-02 0.12499721E+03</pdfrwt>
<totfact> 0.77602105E+03</totfact>
</mgrwt>
</event>
<event>
 5    1  0.3257199E-002  0.1250168E+03  0.7818608E-02  0.1235043E+00
          4   -1    0    0  501    0  0.00000000000E+00  0.00000000000E+00  0.35205057971E+01  0.37425741232E+01  0.12700000000E+01 0. -1.
         -4   -1    0    0    0  501 -0.00000000000E+00 -0.00000000000E+00 -0.10757115116E+04  0.10757122613E+04  0.12700000000E+01 0. -1.
         25    2    1    2    0    0  0.00000000000E+00  0.00000000000E+00 -0.10721910058E+04  0.10794548354E+04  0.12501675396E+03 0.  0.
    9000005    1    3    3    0    0  0.26077958121E+02  0.48343403577E+02 -0.27862681789E+03  0.28399128194E+03  0.10000000000E+01 0.  0.
    9000005    1    3    3    0    0 -0.26077958121E+02 -0.48343403577E+02 -0.79356418789E+03  0.79546355346E+03  0.10000000000E+01 0.  0.
<mgrwt>
<rscale>  0 0.12501675E+03</rscale>
<asrwt>0</asrwt>
<pdfrwt beam="1">  1        4 0.55875698E-03 0.12501675E+03</pdfrwt>
<pdfrwt beam="2">  1       -4 0.16551096E+00 0.12501675E+03</pdfrwt>
<totfact> 0.28082388E+03</totfact>
</mgrwt>
</event>
<event>
 5    1  0.3257199E-002  0.1249985E+03  0.7818608E-02  0.1235072E+00
          4   -1    0    0  501    0  0.00000000000E+00  0.00000000000E+00  0.63573746299E+01  0.64829863631E+01  0.12700000000E+01 0.  1.
         -4   -1    0    0    0  501 -0.00000000000E+00 -0.00000000000E+00 -0.60829181092E+03  0.60829313668E+03  0.12700000000E+01 0.  1.
         25    2    1    2    0    0  0.00000000000E+00  0.00000000000E+00 -0.60193443629E+03  0.61477612305E+03  0.12499846348E+03 0.  0.
    9000005    1    3    3    0    0  0.23199970421E+02  0.39369874702E+02 -0.91323809319E+02  0.10212376712E+03  0.10000000000E+01 0.  0.
    9000005    1    3    3    0    0 -0.23199970421E+02 -0.39369874702E+02 -0.51061062697E+03  0.51265235593E+03  0.10000000000E+01 0.  0.
<mgrwt>
<rscale>  0 0.12499846E+03</rscale>
<asrwt>0</asrwt>
<pdfrwt beam="1">  1        4 0.98782254E-03 0.12499846E+03</pdfrwt>
<pdfrwt beam="2">  1       -4 0.93593074E-01 0.12499846E+03</pdfrwt>
<totfact> 0.47949620E+03</totfact>
</mgrwt>
</event>
<event>
 5    1  0.3257199E-002  0.1250001E+03  0.7818608E-02  0.1235069E+00
          4   -1    0    0  501    0  0.00000000000E+00  0.00000000000E+00  0.34364070935E+02  0.34387530752E+02  0.12700000000E+01 0. -1.
         -4   -1    0    0    0  501 -0.00000000000E+00 -0.00000000000E+00 -0.11360692659E+03  0.11361402497E+03  0.12700000000E+01 0. -1.
         25    2    1    2    0    0  0.00000000000E+00  0.00000000000E+00 -0.79242855656E+02  0.14800155572E+03  0.12500012129E+03 0.  0.
    9000005    1    3    3    0    0 -0.65196726099E+01  0.42449722871E+02 -0.93370487269E+02  0.10277904940E+03  0.10000000000E+01 0.  0.
    9000005    1    3    3    0    0  0.65196726099E+01 -0.42449722871E+02  0.14127631614E+02  0.45222506319E+02  0.10000000000E+01 0.  0.
<mgrwt>
<rscale>  0 0.12500012E+03</rscale>
<asrwt>0</asrwt>
<pdfrwt beam="1">  1        4 0.52891308E-02 0.12500012E+03</pdfrwt>
<pdfrwt beam="2">  1       -4 0.17480339E-01 0.12500012E+03</pdfrwt>
<totfact> 0.99703287E+03</totfact>
</mgrwt>
</event>
<event>
 5    1  0.3257199E-002  0.1249972E+03  0.7818608E-02  0.1235074E+00
         -4   -1    0    0    0  501 -0.00000000000E+00  0.00000000000E+00  0.50173718671E+01  0.51756082205E+01  0.12700000000E+01 0. -1.
          4   -1    0    0  501    0  0.00000000000E+00 -0.00000000000E+00 -0.76626608282E+03  0.76626713526E+03  0.12700000000E+01 0. -1.
         25    2    1    2    0    0  0.00000000000E+00  0.00000000000E+00 -0.76124871095E+03  0.77144274348E+03  0.12499722614E+03 0.  0.
    9000005    1    3    3    0    0  0.23341603184E+02  0.51947767375E+02 -0.22186990732E+03  0.22906474357E+03  0.10000000000E+01 0.  0.
    9000005    1    3    3    0    0 -0.23341603184E+02 -0.51947767375E+02 -0.53937880363E+03  0.54237799991E+03  0.10000000000E+01 0.  0.
<mgrwt>
<rscale>  0 0.12499723E+03</rscale>
<asrwt>0</asrwt>
<pdfrwt beam="2">  1        4 0.11789925E+00 0.12499723E+03</pdfrwt>
<pdfrwt beam="1">  1       -4 0.78415696E-03 0.12499723E+03</pdfrwt>
<totfact> 0.39571337E+03</totfact>
</mgrwt>
</event>
<event>
 5    1  0.3257199E-002  0.1249996E+03  0.7818608E-02  0.1235070E+00
          4   -1    0    0  501    0  0.00000000000E+00  0.00000000000E+00  0.44636314180E+01  0.46407871569E+01  0.12700000000E+01 0.  1.
         -4   -1    0    0    0  501 -0.00000000000E+00 -0.00000000000E+00 -0.85791618748E+03  0.85791712749E+03  0.12700000000E+01 0.  1.
         25    2    1    2    0    0  0.00000000000E+00  0.00000000000E+00 -0.85345255607E+03  0.86255791465E+03  0.12499956268E+03 0.  0.
    9000005    1    3    3    0    0  0.54991078573E+02 -0.10775486320E+02 -0.61759591157E+03  0.62013372736E+03  0.10000000000E+01 0.  0.
    9000005    1    3    3    0    0 -0.54991078573E+02  0.10775486320E+02 -0.23585664450E+03  0.24242418729E+03  0.10000000000E+01 0.  0.
<mgrwt>
<rscale>  0 0.12499956E+03</rscale>
<asrwt>0</asrwt>
<pdfrwt beam="1">  1        4 0.70041288E-03 0.12499956E+03</pdfrwt>
<pdfrwt beam="2">  1       -4 0.13200068E+00 0.12499956E+03</pdfrwt>
<totfact> 0.35619255E+03</totfact>
</mgrwt>
</event>
<event>
 5    1  0.3257199E-002  0.1249966E+03  0.7818608E-02  0.1235075E+00
          4   -1    0    0  501    0  0.00000000000E+00  0.00000000000E+00  0.16937423347E+02  0.16984970110E+02  0.12700000000E+01 0. -1.
         -4   -1    0    0    0  501 -0.00000000000E+00 -0.00000000000E+00 -0.23024313603E+03  0.23024663860E+03  0.12700000000E+01 0. -1.
         25    2    1    2    0    0  0.00000000000E+00  0.00000000000E+00 -0.21330571268E+03  0.24723160871E+03  0.12499656509E+03 0.  0.
    9000005    1    3    3    0    0 -0.13847387331E+02  0.53184007075E+02 -0.16548509327E+03  0.17437489738E+03  0.10000000000E+01 0.  0.
    9000005    1    3    3    0    0  0.13847387331E+02 -0.53184007075E+02 -0.47820619415E+02  0.72856711329E+02  0.10000000000E+01 0.  0.
<mgrwt>
<rscale>  0 0.12499657E+03</rscale>
<asrwt>0</asrwt>
<pdfrwt beam="1">  1        4 0.26096845E-02 0.12499657E+03</pdfrwt>
<pdfrwt beam="2">  1       -4 0.35425946E-01 0.12499657E+03</pdfrwt>
<totfact> 0.82738333E+03</totfact>
</mgrwt>
</event>
<event>
 5    1  0.3257199E-002  0.1250012E+03  0.7818608E-02  0.1235067E+00
          4   -1    0    0  501    0  0.00000000000E+00  0.00000000000E+00  0.42722559992E+02  0.42741432268E+02  0.12700000000E+01 0. -1.
         -4   -1    0    0    0  501 -0.00000000000E+00 -0.00000000000E+00 -0.91391303092E+02  0.91400126810E+02  0.12700000000E+01 0. -1.
         25    2    1    2    0    0  0.00000000000E+00  0.00000000000E+00 -0.48668743100E+02  0.13414155908E+03  0.12500124526E+03 0.  0.
    9000005    1    3    3    0    0 -0.23777772150E+02 -0.25872352222E+02  0.31121908052E+02  0.46950337792E+02  0.10000000000E+01 0.  0.
    9000005    1    3    3    0    0  0.23777772150E+02  0.25872352222E+02 -0.79790651152E+02  0.87191221286E+02  0.10000000000E+01 0.  0.
<mgrwt>
<rscale>  0 0.12500125E+03</rscale>
<asrwt>0</asrwt>
<pdfrwt beam="1">  1        4 0.65748320E-02 0.12500125E+03</pdfrwt>
<pdfrwt beam="2">  1       -4 0.14062331E-01 0.12500125E+03</pdfrwt>
<totfact> 0.10255908E+04</totfact>
</mgrwt>
</event>
<event>
 5    1  0.3257199E-002  0.1250410E+03  0.7818608E-02  0.1235005E+00
          4   -1    0    0  501    0  0.00000000000E+00  0.00000000000E+00  0.25393685508E+03  0.25394003085E+03  0.12700000000E+01 0. -1.
         -4   -1    0    0    0  501 -0.00000000000E+00 -0.00000000000E+00 -0.15363379820E+02  0.15415782157E+02  0.12700000000E+01 0. -1.
         25    2    1    2    0    0  0.00000000000E+00  0.00000000000E+00  0.23857347526E+03  0.26935581301E+03  0.12504099689E+03 0.  0.
    9000005    1    3    3    0    0  0.32698836313E+02 -0.36485811563E+02  0.20292132741E+03  0.20875462500E+03  0.10000000000E+01 0.  0.
    9000005    1    3    3    0    0 -0.32698836313E+02  0.36485811563E+02  0.35652147857E+02  0.60601188012E+02  0.10000000000E+01 0.  0.
<mgrwt>
<rscale>  0 0.12504100E+03</rscale>
<asrwt>0</asrwt>
<pdfrwt beam="1">  1        4 0.39071485E-01 0.12504100E+03</pdfrwt>
<pdfrwt beam="2">  1       -4 0.23678720E-02 0.12504100E+03</pdfrwt>
<totfact> 0.79538211E+03</totfact>
</mgrwt>
</event>
<event>
 5    1  0.3257199E-002  0.1249960E+03  0.7818608E-02  0.1235076E+00
         -4   -1    0    0    0  501 -0.00000000000E+00  0.00000000000E+00  0.22414255839E+03  0.22414615630E+03  0.12700000000E+01 0.  1.
          4   -1    0    0  501    0  0.00000000000E+00 -0.00000000000E+00 -0.17399519920E+02  0.17445807331E+02  0.12700000000E+01 0.  1.
         25    2    1    2    0    0  0.00000000000E+00  0.00000000000E+00  0.20674303847E+03  0.24159196363E+03  0.12499597167E+03 0.  0.
    9000005    1    3    3    0    0 -0.44099785543E+02 -0.43281215014E+02  0.12139361172E+03  0.13621844084E+03  0.10000000000E+01 0.  0.
    9000005    1    3    3    0    0  0.44099785543E+02  0.43281215014E+02  0.85349426752E+02  0.10537352279E+03  0.10000000000E+01 0.  0.
<mgrwt>
<rscale>  0 0.12499597E+03</rscale>
<asrwt>0</asrwt>
<pdfrwt beam="2">  1        4 0.26806868E-02 0.12499597E+03</pdfrwt>
<pdfrwt beam="1">  1       -4 0.34487305E-01 0.12499597E+03</pdfrwt>
<totfact> 0.83568348E+03</totfact>
</mgrwt>
</event>
<event>
 5    1  0.3257199E-002  0.1249977E+03  0.7818608E-02  0.1235073E+00
         -4   -1    0    0    0  501 -0.00000000000E+00  0.00000000000E+00  0.31885019625E+03  0.31885272548E+03  0.12700000000E+01 0.  1.
          4   -1    0    0  501    0  0.00000000000E+00 -0.00000000000E+00 -0.12215103364E+02  0.12280946632E+02  0.12700000000E+01 0.  1.
         25    2    1    2    0    0  0.00000000000E+00  0.00000000000E+00  0.30663509289E+03  0.33113367212E+03  0.12499771446E+03 0.  0.
    9000005    1    3    3    0    0  0.58752203571E+02 -0.10492108100E+02  0.10424079616E+03  0.12012097794E+03  0.10000000000E+01 0.  0.
    9000005    1    3    3    0    0 -0.58752203571E+02  0.10492108100E+02  0.20239429673E+03  0.21101269418E+03  0.10000000000E+01 0.  0.
<mgrwt>
<rscale>  0 0.12499771E+03</rscale>
<asrwt>0</asrwt>
<pdfrwt beam="2">  1        4 0.18845057E-02 0.12499771E+03</pdfrwt>
<pdfrwt beam="1">  1       -4 0.49059146E-01 0.12499771E+03</pdfrwt>
<totfact> 0.71854830E+03</totfact>
</mgrwt>
</event>
<event>
 5    1  0.3257199E-002  0.1250000E+03  0.7818608E-02  0.1235069E+00
         -4   -1    0    0    0  501 -0.00000000000E+00  0.00000000000E+00  0.34605327388E+03  0.34605560429E+03  0.12700000000E+01 0. -1.
          4   -1    0    0  501    0  0.00000000000E+00 -0.00000000000E+00 -0.11249897876E+02  0.11321356024E+02  0.12700000000E+01 0. -1.
         25    2    1    2    0    0  0.00000000000E+00  0.00000000000E+00  0.33480337600E+03  0.35737696032E+03  0.12499996473E+03 0.  0.
    9000005    1    3    3    0    0  0.21382224825E+02  0.34841435710E+01 -0.18421610782E+00  0.21688078072E+02  0.10000000000E+01 0.  0.
    9000005    1    3    3    0    0 -0.21382224825E+02 -0.34841435710E+01  0.33498759211E+03  0.33568888224E+03  0.10000000000E+01 0.  0.
<mgrwt>
<rscale>  0 0.12499996E+03</rscale>
<asrwt>0</asrwt>
<pdfrwt beam="2">  1        4 0.17364298E-02 0.12499996E+03</pdfrwt>
<pdfrwt beam="1">  1       -4 0.53244635E-01 0.12499996E+03</pdfrwt>
<totfact> 0.68920608E+03</totfact>
</mgrwt>
</event>
<event>
 5    1  0.3257199E-002  0.1249991E+03  0.7818608E-02  0.1235071E+00
          4   -1    0    0  501    0  0.00000000000E+00  0.00000000000E+00  0.72564096084E+03  0.72564207220E+03  0.12700000000E+01 0. -1.
         -4   -1    0    0    0  501 -0.00000000000E+00 -0.00000000000E+00 -0.53070597393E+01  0.54569023334E+01  0.12700000000E+01 0. -1.
         25    2    1    2    0    0  0.00000000000E+00  0.00000000000E+00  0.72033390110E+03  0.73109897453E+03  0.12499912596E+03 0.  0.
    9000005    1    3    3    0    0 -0.16221945450E+02 -0.44810868888E+02  0.12373879376E+03  0.13260261900E+03  0.10000000000E+01 0.  0.
    9000005    1    3    3    0    0  0.16221945450E+02  0.44810868888E+02  0.59659510734E+03  0.59849635553E+03  0.10000000000E+01 0.  0.
<mgrwt>
<rscale>  0 0.12499913E+03</rscale>
<asrwt>0</asrwt>
<pdfrwt beam="1">  1        4 0.11164872E+00 0.12499913E+03</pdfrwt>
<pdfrwt beam="2">  1       -4 0.82808228E-03 0.12499913E+03</pdfrwt>
<totfact> 0.41495678E+03</totfact>
</mgrwt>
</event>
<event>
 5    1  0.3257199E-002  0.1250019E+03  0.7818608E-02  0.1235066E+00
         -4   -1    0    0    0  501 -0.00000000000E+00  0.00000000000E+00  0.31254671362E+02  0.31280463263E+02  0.12700000000E+01 0. -1.
          4   -1    0    0  501    0  0.00000000000E+00 -0.00000000000E+00 -0.12490459674E+03  0.12491105310E+03  0.12700000000E+01 0. -1.
         25    2    1    2    0    0  0.00000000000E+00  0.00000000000E+00 -0.93649925376E+02  0.15619151636E+03  0.12500192503E+03 0.  0.
    9000005    1    3    3    0    0 -0.21667399011E+02 -0.15167530275E+02 -0.11757255632E+03  0.12051487939E+03  0.10000000000E+01 0.  0.
    9000005    1    3    3    0    0  0.21667399011E+02  0.15167530275E+02  0.23922630942E+02  0.35676636974E+02  0.10000000000E+01 0.  0.
<mgrwt>
<rscale>  0 0.12500193E+03</rscale>
<asrwt>0</asrwt>
<pdfrwt beam="2">  1        4 0.19218572E-01 0.12500193E+03</pdfrwt>
<pdfrwt beam="1">  1       -4 0.48108917E-02 0.12500193E+03</pdfrwt>
<totfact> 0.98077850E+03</totfact>
</mgrwt>
</event>
<event>
 5    1  0.3257199E-002  0.1250017E+03  0.7818608E-02  0.1235067E+00
          4   -1    0    0  501    0  0.00000000000E+00  0.00000000000E+00  0.18636896475E+03  0.18637329187E+03  0.12700000000E+01 0.  1.
         -4   -1    0    0    0  501 -0.00000000000E+00 -0.00000000000E+00 -0.20936520753E+02  0.20975004202E+02  0.12700000000E+01 0.  1.
         25    2    1    2    0    0  0.00000000000E+00  0.00000000000E+00  0.16543244399E+03  0.20734829607E+03  0.12500168941E+03 0.  0.
    9000005    1    3    3    0    0 -0.21282051752E+02  0.73470353597E+01 -0.13983469873E+02  0.26522482633E+02  0.10000000000E+01 0.  0.
    9000005    1    3    3    0    0  0.21282051752E+02 -0.73470353597E+01  0.17941591387E+03  0.18082581343E+03  0.10000000000E+01 0.  0.
<mgrwt>
<rscale>  0 0.12500169E+03</rscale>
<asrwt>0</asrwt>
<pdfrwt beam="1">  1        4 0.28675442E-01 0.12500169E+03</pdfrwt>
<pdfrwt beam="2">  1       -4 0.32242962E-02 0.12500169E+03</pdfrwt>
<totfact> 0.88907418E+03</totfact>
</mgrwt>
</event>
<event>
 5    1  0.3257199E-002  0.1250038E+03  0.7818608E-02  0.1235063E+00
          4   -1    0    0  501    0  0.00000000000E+00  0.00000000000E+00  0.23594465725E+02  0.23628620629E+02  0.12700000000E+01 0. -1.
         -4   -1    0    0    0  501 -0.00000000000E+00 -0.00000000000E+00 -0.16541155017E+03  0.16541642551E+03  0.12700000000E+01 0. -1.
         25    2    1    2    0    0  0.00000000000E+00  0.00000000000E+00 -0.14181708445E+03  0.18904504614E+03  0.12500377607E+03 0.  0.
    9000005    1    3    3    0    0 -0.39052102828E+02  0.42776762768E+02 -0.35423315146E+02  0.67902352125E+02  0.10000000000E+01 0.  0.
    9000005    1    3    3    0    0  0.39052102828E+02 -0.42776762768E+02 -0.10639376930E+03  0.12114269402E+03  0.10000000000E+01 0.  0.
<mgrwt>
<rscale>  0 0.12500378E+03</rscale>
<asrwt>0</asrwt>
<pdfrwt beam="1">  1        4 0.36329202E-02 0.12500378E+03</pdfrwt>
<pdfrwt beam="2">  1       -4 0.25450932E-01 0.12500378E+03</pdfrwt>
<totfact> 0.92005956E+03</totfact>
</mgrwt>
</event>
<event>
 5    1  0.3257199E-002  0.1250025E+03  0.7818608E-02  0.1235065E+00
         -4   -1    0    0    0  501 -0.00000000000E+00  0.00000000000E+00  0.99993128588E+02  0.10000119332E+03  0.12700000000E+01 0.  1.
          4   -1    0    0  501    0  0.00000000000E+00 -0.00000000000E+00 -0.39046771409E+02  0.39067419386E+02  0.12700000000E+01 0.  1.
         25    2    1    2    0    0  0.00000000000E+00  0.00000000000E+00  0.60946357179E+02  0.13906861270E+03  0.12500248232E+03 0.  0.
    9000005    1    3    3    0    0 -0.39412715631E+02 -0.27493830877E+02  0.74920431282E+02  0.89013167078E+02  0.10000000000E+01 0.  0.
    9000005    1    3    3    0    0  0.39412715631E+02  0.27493830877E+02 -0.13974074103E+02  0.50055445625E+02  0.10000000000E+01 0.  0.
<mgrwt>
<rscale>  0 0.12500248E+03</rscale>
<asrwt>0</asrwt>
<pdfrwt beam="2">  1        4 0.60094042E-02 0.12500248E+03</pdfrwt>
<pdfrwt beam="1">  1       -4 0.15385767E-01 0.12500248E+03</pdfrwt>
<totfact> 0.10152358E+04</totfact>
</mgrwt>
</event>
<event>
 5    1  0.3257199E-002  0.1250058E+03  0.7818608E-02  0.1235060E+00
          4   -1    0    0  501    0  0.00000000000E+00  0.00000000000E+00  0.14426545228E+03  0.14427104221E+03  0.12700000000E+01 0.  1.
         -4   -1    0    0    0  501 -0.00000000000E+00 -0.00000000000E+00 -0.27058334712E+02  0.27088122441E+02  0.12700000000E+01 0.  1.
         25    2    1    2    0    0  0.00000000000E+00  0.00000000000E+00  0.11720711756E+03  0.17135916465E+03  0.12500581947E+03 0.  0.
    9000005    1    3    3    0    0  0.33928290038E+02 -0.49151277788E+02  0.33377805131E+02  0.68425542369E+02  0.10000000000E+01 0.  0.
    9000005    1    3    3    0    0 -0.33928290038E+02  0.49151277788E+02  0.83829312432E+02  0.10293362228E+03  0.10000000000E+01 0.  0.
<mgrwt>
<rscale>  0 0.12500582E+03</rscale>
<asrwt>0</asrwt>
<pdfrwt beam="1">  1        4 0.22197406E-01 0.12500582E+03</pdfrwt>
<pdfrwt beam="2">  1       -4 0.41655421E-02 0.12500582E+03</pdfrwt>
<totfact> 0.95183480E+03</totfact>
</mgrwt>
</event>
<event>
 5    1  0.3257199E-002  0.1249990E+03  0.7818608E-02  0.1235071E+00
          4   -1    0    0  501    0  0.00000000000E+00  0.00000000000E+00  0.28851413760E+02  0.28879352069E+02  0.12700000000E+01 0.  1.
         -4   -1    0    0    0  501 -0.00000000000E+00 -0.00000000000E+00 -0.13529343272E+03  0.13529939333E+03  0.12700000000E+01 0.  1.
         25    2    1    2    0    0  0.00000000000E+00  0.00000000000E+00 -0.10644201896E+03  0.16417874540E+03  0.12499902817E+03 0.  0.
    9000005    1    3    3    0    0  0.22906897724E+02 -0.73858276401E+01 -0.12896806031E+03  0.13119846414E+03  0.10000000000E+01 0.  0.
    9000005    1    3    3    0    0 -0.22906897724E+02  0.73858276401E+01  0.22526041350E+02  0.32980281263E+02  0.10000000000E+01 0.  0.
<mgrwt>
<rscale>  0 0.12499903E+03</rscale>
<asrwt>0</asrwt>
<pdfrwt beam="1">  1        4 0.44412867E-02 0.12499903E+03</pdfrwt>
<pdfrwt beam="2">  1       -4 0.20816981E-01 0.12499903E+03</pdfrwt>
<totfact> 0.96545259E+03</totfact>
</mgrwt>
</event>
<event>
 5    1  0.3257199E-002  0.1250026E+03  0.7818608E-02  0.1235065E+00
         -4   -1    0    0    0  501 -0.00000000000E+00  0.00000000000E+00  0.15851014932E+03  0.15851523693E+03  0.12700000000E+01 0.  1.
          4   -1    0    0  501    0  0.00000000000E+00 -0.00000000000E+00 -0.24622718891E+02  0.24655449410E+02  0.12700000000E+01 0.  1.
         25    2    1    2    0    0  0.00000000000E+00  0.00000000000E+00  0.13388743043E+03  0.18317068634E+03  0.12500262520E+03 0.  0.
    9000005    1    3    3    0    0 -0.45726253228E+02 -0.15928331884E+02  0.90525689904E+01  0.49270183643E+02  0.10000000000E+01 0.  0.
    9000005    1    3    3    0    0  0.45726253228E+02  0.15928331884E+02  0.12483486144E+03  0.13390050270E+03  0.10000000000E+01 0.  0.
<mgrwt>
<rscale>  0 0.12500263E+03</rscale>
<asrwt>0</asrwt>
<pdfrwt beam="2">  1        4 0.37910198E-02 0.12500263E+03</pdfrwt>
<pdfrwt beam="1">  1       -4 0.24389085E-01 0.12500263E+03</pdfrwt>
<totfact> 0.93043888E+03</totfact>
</mgrwt>
</event>
<event>
 5    1  0.3257199E-002  0.1250011E+03  0.7818608E-02  0.1235068E+00
          4   -1    0    0  501    0  0.00000000000E+00  0.00000000000E+00  0.10517218045E+03  0.10517984807E+03  0.12700000000E+01 0.  1.
         -4   -1    0    0    0  501 -0.00000000000E+00 -0.00000000000E+00 -0.37122256579E+02  0.37143974390E+02  0.12700000000E+01 0.  1.
         25    2    1    2    0    0  0.00000000000E+00  0.00000000000E+00  0.68049923872E+02  0.14232382246E+03  0.12500111320E+03 0.  0.
    9000005    1    3    3    0    0 -0.53574396151E+02  0.31484087075E+02  0.26484849883E+02  0.67556723834E+02  0.10000000000E+01 0.  0.
    9000005    1    3    3    0    0  0.53574396151E+02 -0.31484087075E+02  0.41565073989E+02  0.74767098630E+02  0.10000000000E+01 0.  0.
<mgrwt>
<rscale>  0 0.12500111E+03</rscale>
<asrwt>0</asrwt>
<pdfrwt beam="1">  1        4 0.16182596E-01 0.12500111E+03</pdfrwt>
<pdfrwt beam="2">  1       -4 0.57133769E-02 0.12500111E+03</pdfrwt>
<totfact> 0.10085396E+04</totfact>
</mgrwt>
</event>
<event>
 5    1  0.3257199E-002  0.1249980E+03  0.7818608E-02  0.1235072E+00
          4   -1    0    0  501    0  0.00000000000E+00  0.00000000000E+00  0.46593903397E+02  0.46611208242E+02  0.12700000000E+01 0. -1.
         -4   -1    0    0    0  501 -0.00000000000E+00 -0.00000000000E+00 -0.83795734645E+02  0.83805358091E+02  0.12700000000E+01 0. -1.
         25    2    1    2    0    0  0.00000000000E+00  0.00000000000E+00 -0.37201831248E+02  0.13041656633E+03  0.12499801809E+03 0.  0.
    9000005    1    3    3    0    0  0.25079652897E+02  0.54411523259E+02 -0.67932184426E-01  0.59921677777E+02  0.10000000000E+01 0.  0.
    9000005    1    3    3    0    0 -0.25079652897E+02 -0.54411523259E+02 -0.37133899064E+02  0.70494888556E+02  0.10000000000E+01 0.  0.
<mgrwt>
<rscale>  0 0.12499802E+03</rscale>
<asrwt>0</asrwt>
<pdfrwt beam="1">  1        4 0.71703643E-02 0.12499802E+03</pdfrwt>
<pdfrwt beam="2">  1       -4 0.12893723E-01 0.12499802E+03</pdfrwt>
<totfact> 0.10336067E+04</totfact>
</mgrwt>
</event>
<event>
 5    1  0.3257199E-002  0.1249950E+03  0.7818608E-02  0.1235077E+00
         -4   -1    0    0    0  501 -0.00000000000E+00  0.00000000000E+00  0.11556203937E+04  0.11556210915E+04  0.12700000000E+01 0.  1.
          4   -1    0    0  501    0  0.00000000000E+00 -0.00000000000E+00 -0.32599263317E+01  0.34985739507E+01  0.12700000000E+01 0.  1.
         25    2    1    2    0    0  0.00000000000E+00  0.00000000000E+00  0.11523604674E+04  0.11591196655E+04  0.12499500869E+03 0.  0.
    9000005    1    3    3    0    0  0.41972550558E+02  0.27661609291E+02  0.23193132747E+03  0.23731835220E+03  0.10000000000E+01 0.  0.
    9000005    1    3    3    0    0 -0.41972550558E+02 -0.27661609291E+02  0.92042913990E+03  0.92180131330E+03  0.10000000000E+01 0.  0.
<mgrwt>
<rscale>  0 0.12499501E+03</rscale>
<asrwt>0</asrwt>
<pdfrwt beam="2">  1        4 0.51993706E-03 0.12499501E+03</pdfrwt>
<pdfrwt beam="1">  1       -4 0.17780659E+00 0.12499501E+03</pdfrwt>
<totfact> 0.25811280E+03</totfact>
</mgrwt>
</event>
<event>
 4    1  0.3257199E-002  0.1250761E+03  0.7818608E-02  0.1234950E+00
         -4   -1    0    0    0  501 -0.00000000000E+00  0.00000000000E+00  0.62804707937E+02  0.62817547222E+02  0.12700000000E+01 0.  1.
          4   -1    0    0  501    0  0.00000000000E+00 -0.00000000000E+00 -0.62246818180E+02  0.62259772514E+02  0.12700000000E+01 0.  1.
    9000005    1    1    2    0    0 -0.47612781968E+02  0.38193061433E+02 -0.13297611629E+02  0.62478103551E+02  0.10000000000E+01 0.  0.
    9000005    1    1    2    0    0  0.47612781968E+02 -0.38193061433E+02  0.13855501386E+02  0.62599216185E+02  0.10000000000E+01 0.  0.
<mgrwt>
<rscale>  0 0.12507608E+03</rscale>
<asrwt>0</asrwt>
<pdfrwt beam="2">  1        4 0.95784178E-02 0.12507608E+03</pdfrwt>
<pdfrwt beam="1">  1       -4 0.96642468E-02 0.12507608E+03</pdfrwt>
<totfact> 0.10433234E+04</totfact>
</mgrwt>
</event>
<event>
 5    1  0.3257199E-002  0.1250020E+03  0.7818608E-02  0.1235066E+00
         -4   -1    0    0    0  501 -0.00000000000E+00  0.00000000000E+00  0.47409418340E+01  0.49080983562E+01  0.12700000000E+01 0. -1.
          4   -1    0    0  501    0  0.00000000000E+00 -0.00000000000E+00 -0.80952472254E+03  0.80952571874E+03  0.12700000000E+01 0. -1.
         25    2    1    2    0    0  0.00000000000E+00  0.00000000000E+00 -0.80478378071E+03  0.81443381710E+03  0.12500203496E+03 0.  0.
    9000005    1    3    3    0    0  0.43205509161E+02 -0.39689929615E+02 -0.26214185584E+03  0.26862866399E+03  0.10000000000E+01 0.  0.
    9000005    1    3    3    0    0 -0.43205509161E+02  0.39689929615E+02 -0.54264192487E+03  0.54580515311E+03  0.10000000000E+01 0.  0.
<mgrwt>
<rscale>  0 0.12500203E+03</rscale>
<asrwt>0</asrwt>
<pdfrwt beam="2">  1        4 0.12455509E+00 0.12500203E+03</pdfrwt>
<pdfrwt beam="1">  1       -4 0.74231114E-03 0.12500203E+03</pdfrwt>
<totfact> 0.37626788E+03</totfact>
</mgrwt>
</event>
<event>
 5    1  0.3257199E-002  0.1249918E+03  0.7818608E-02  0.1235082E+00
          4   -1    0    0  501    0  0.00000000000E+00  0.00000000000E+00  0.41399724566E+01  0.43303893522E+01  0.12700000000E+01 0.  1.
         -4   -1    0    0    0  501 -0.00000000000E+00 -0.00000000000E+00 -0.92202126874E+03  0.92202214339E+03  0.12700000000E+01 0.  1.
         25    2    1    2    0    0  0.00000000000E+00  0.00000000000E+00 -0.91788129628E+03  0.92635253275E+03  0.12499176316E+03 0.  0.
    9000005    1    3    3    0    0 -0.61992960324E+02 -0.37000972284E+01 -0.51024348306E+03  0.51400995113E+03  0.10000000000E+01 0.  0.
    9000005    1    3    3    0    0  0.61992960324E+02  0.37000972284E+01 -0.40763781322E+03  0.41234258162E+03  0.10000000000E+01 0.  0.
<mgrwt>
<rscale>  0 0.12499176E+03</rscale>
<asrwt>0</asrwt>
<pdfrwt beam="1">  1        4 0.65163431E-03 0.12499176E+03</pdfrwt>
<pdfrwt beam="2">  1       -4 0.14186398E+00 0.12499176E+03</pdfrwt>
<totfact> 0.33176701E+03</totfact>
</mgrwt>
</event>
<event>
 5    1  0.3257199E-002  0.1250016E+03  0.7818608E-02  0.1235067E+00
         -4   -1    0    0    0  501 -0.00000000000E+00  0.00000000000E+00  0.26993457509E+02  0.27023316753E+02  0.12700000000E+01 0. -1.
          4   -1    0    0  501    0  0.00000000000E+00 -0.00000000000E+00 -0.14460211854E+03  0.14460769546E+03  0.12700000000E+01 0. -1.
         25    2    1    2    0    0  0.00000000000E+00  0.00000000000E+00 -0.11760866103E+03  0.17163101221E+03  0.12500162880E+03 0.  0.
    9000005    1    3    3    0    0  0.34358213221E+02  0.45741638602E+02 -0.24271392944E+02  0.62152110448E+02  0.10000000000E+01 0.  0.
    9000005    1    3    3    0    0 -0.34358213221E+02 -0.45741638602E+02 -0.93337268083E+02  0.10947890176E+03  0.10000000000E+01 0.  0.
<mgrwt>
<rscale>  0 0.12500163E+03</rscale>
<asrwt>0</asrwt>
<pdfrwt beam="2">  1        4 0.22249205E-01 0.12500163E+03</pdfrwt>
<pdfrwt beam="1">  1       -4 0.41555656E-02 0.12500163E+03</pdfrwt>
<totfact> 0.95142032E+03</totfact>
</mgrwt>
</event>
<event>
 5    1  0.3257199E-002  0.1250041E+03  0.7818608E-02  0.1235063E+00
         -4   -1    0    0    0  501 -0.00000000000E+00  0.00000000000E+00  0.14070836974E+04  0.14070842705E+04  0.12700000000E+01 0.  1.
          4   -1    0    0  501    0  0.00000000000E+00 -0.00000000000E+00 -0.26304730552E+01  0.29210081298E+01  0.12700000000E+01 0.  1.
         25    2    1    2    0    0  0.00000000000E+00  0.00000000000E+00  0.14044532243E+04  0.14100052786E+04  0.12500410590E+03 0.  0.
    9000005    1    3    3    0    0 -0.55140417279E+02  0.26250477487E+01  0.10326555669E+04  0.10341304929E+04  0.10000000000E+01 0.  0.
    9000005    1    3    3    0    0  0.55140417279E+02 -0.26250477487E+01  0.37179765740E+03  0.37587478572E+03  0.10000000000E+01 0.  0.
<mgrwt>
<rscale>  0 0.12500411E+03</rscale>
<asrwt>0</asrwt>
<pdfrwt beam="2">  1        4 0.42708126E-03 0.12500411E+03</pdfrwt>
<pdfrwt beam="1">  1       -4 0.21649673E+00 0.12500411E+03</pdfrwt>
<totfact> 0.19765469E+03</totfact>
</mgrwt>
</event>
<event>
 5    1  0.3257199E-002  0.1249976E+03  0.7818608E-02  0.1235073E+00
          4   -1    0    0  501    0  0.00000000000E+00  0.00000000000E+00  0.54351356597E+01  0.55815409736E+01  0.12700000000E+01 0. -1.
         -4   -1    0    0    0  501 -0.00000000000E+00 -0.00000000000E+00 -0.70897743073E+03  0.70897856821E+03  0.12700000000E+01 0. -1.
         25    2    1    2    0    0  0.00000000000E+00  0.00000000000E+00 -0.70354229507E+03  0.71456010918E+03  0.12499755472E+03 0.  0.
    9000005    1    3    3    0    0  0.18637367415E+02  0.43505594927E+02 -0.11850832170E+03  0.12761391212E+03  0.10000000000E+01 0.  0.
    9000005    1    3    3    0    0 -0.18637367415E+02 -0.43505594927E+02 -0.58503397337E+03  0.58694619707E+03  0.10000000000E+01 0.  0.
<mgrwt>
<rscale>  0 0.12499755E+03</rscale>
<asrwt>0</asrwt>
<pdfrwt beam="1">  1        4 0.84752472E-03 0.12499755E+03</pdfrwt>
<pdfrwt beam="2">  1       -4 0.10908473E+00 0.12499755E+03</pdfrwt>
<totfact> 0.42331439E+03</totfact>
</mgrwt>
</event>
<event>
 5    1  0.3257199E-002  0.1249975E+03  0.7818608E-02  0.1235073E+00
         -4   -1    0    0    0  501 -0.00000000000E+00  0.00000000000E+00  0.25481753568E+02  0.25513382075E+02  0.12700000000E+01 0. -1.
          4   -1    0    0  501    0  0.00000000000E+00 -0.00000000000E+00 -0.15316042965E+03  0.15316569495E+03  0.12700000000E+01 0. -1.
         25    2    1    2    0    0  0.00000000000E+00  0.00000000000E+00 -0.12767867608E+03  0.17867907703E+03  0.12499747294E+03 0.  0.
    9000005    1    3    3    0    0 -0.15674068076E+02  0.23882399276E+02 -0.14328765496E+03  0.14611090811E+03  0.10000000000E+01 0.  0.
    9000005    1    3    3    0    0  0.15674068076E+02 -0.23882399276E+02  0.15608978876E+02  0.32568168919E+02  0.10000000000E+01 0.  0.
<mgrwt>
<rscale>  0 0.12499747E+03</rscale>
<asrwt>0</asrwt>
<pdfrwt beam="2">  1        4 0.23565981E-01 0.12499747E+03</pdfrwt>
<pdfrwt beam="1">  1       -4 0.39231078E-02 0.12499747E+03</pdfrwt>
<totfact> 0.93860634E+03</totfact>
</mgrwt>
</event>
<event>
 5    1  0.3257199E-002  0.1250414E+03  0.7818608E-02  0.1235005E+00
         -4   -1    0    0    0  501 -0.00000000000E+00  0.00000000000E+00  0.14640215938E+02  0.14695197267E+02  0.12700000000E+01 0. -1.
          4   -1    0    0  501    0  0.00000000000E+00 -0.00000000000E+00 -0.26643637450E+03  0.26643940128E+03  0.12700000000E+01 0. -1.
         25    2    1    2    0    0  0.00000000000E+00  0.00000000000E+00 -0.25179615856E+03  0.28113459855E+03  0.12504142128E+03 0.  0.
    9000005    1    3    3    0    0 -0.54104173041E+02 -0.19589801893E+02 -0.70971680456E+02  0.91372869635E+02  0.10000000000E+01 0.  0.
    9000005    1    3    3    0    0  0.54104173041E+02  0.19589801893E+02 -0.18082447810E+03  0.18976172891E+03  0.10000000000E+01 0.  0.
<mgrwt>
<rscale>  0 0.12504142E+03</rscale>
<asrwt>0</asrwt>
<pdfrwt beam="2">  1        4 0.40994670E-01 0.12504142E+03</pdfrwt>
<pdfrwt beam="1">  1       -4 0.22568033E-02 0.12504142E+03</pdfrwt>
<totfact> 0.77956114E+03</totfact>
</mgrwt>
</event>
<event>
 5    1  0.3257199E-002  0.1249939E+03  0.7818608E-02  0.1235079E+00
         -4   -1    0    0    0  501 -0.00000000000E+00  0.00000000000E+00  0.31233575215E+03  0.31233833414E+03  0.12700000000E+01 0. -1.
          4   -1    0    0  501    0  0.00000000000E+00 -0.00000000000E+00 -0.12470465113E+02  0.12534967098E+02  0.12700000000E+01 0. -1.
         25    2    1    2    0    0  0.00000000000E+00  0.00000000000E+00  0.29986528704E+03  0.32487330124E+03  0.12499388579E+03 0.  0.
    9000005    1    3    3    0    0 -0.38788534006E+02 -0.36754808983E+02  0.65735744635E+02  0.84721039160E+02  0.10000000000E+01 0.  0.
    9000005    1    3    3    0    0  0.38788534006E+02  0.36754808983E+02  0.23412954240E+03  0.24015226207E+03  0.10000000000E+01 0.  0.
<mgrwt>
<rscale>  0 0.12499389E+03</rscale>
<asrwt>0</asrwt>
<pdfrwt beam="2">  1        4 0.19236934E-02 0.12499389E+03</pdfrwt>
<pdfrwt beam="1">  1       -4 0.48056815E-01 0.12499389E+03</pdfrwt>
<totfact> 0.72590068E+03</totfact>
</mgrwt>
</event>
<event>
 5    1  0.3257199E-002  0.1249581E+03  0.7818608E-02  0.1235135E+00
         -4   -1    0    0    0  501 -0.00000000000E+00  0.00000000000E+00  0.82953697266E+03  0.82953794483E+03  0.12700000000E+01 0. -1.
          4   -1    0    0  501    0  0.00000000000E+00 -0.00000000000E+00 -0.46191143382E+01  0.47905236947E+01  0.12700000000E+01 0. -1.
         25    2    1    2    0    0  0.00000000000E+00  0.00000000000E+00  0.82491785832E+03  0.83432846852E+03  0.12495807461E+03 0.  0.
    9000005    1    3    3    0    0  0.69510228361E+01 -0.31419041249E+02  0.76997740700E+03  0.77065016718E+03  0.10000000000E+01 0.  0.
    9000005    1    3    3    0    0 -0.69510228361E+01  0.31419041249E+02  0.54940451317E+02  0.63678301346E+02  0.10000000000E+01 0.  0.
<mgrwt>
<rscale>  0 0.12495807E+03</rscale>
<asrwt>0</asrwt>
<pdfrwt beam="2">  1        4 0.72389314E-03 0.12495807E+03</pdfrwt>
<pdfrwt beam="1">  1       -4 0.12763432E+00 0.12495807E+03</pdfrwt>
<totfact> 0.36811034E+03</totfact>
</mgrwt>
</event>
<event>
 5    1  0.3257199E-002  0.1249942E+03  0.7818608E-02  0.1235078E+00
          4   -1    0    0  501    0  0.00000000000E+00  0.00000000000E+00  0.49108228180E+02  0.49124647327E+02  0.12700000000E+01 0.  1.
         -4   -1    0    0    0  501 -0.00000000000E+00 -0.00000000000E+00 -0.79501498666E+02  0.79511641853E+02  0.12700000000E+01 0.  1.
         25    2    1    2    0    0  0.00000000000E+00  0.00000000000E+00 -0.30393270486E+02  0.12863628918E+03  0.12499417588E+03 0.  0.
    9000005    1    3    3    0    0 -0.38143690163E+02  0.37487035726E+02  0.18066461208E+02  0.56458975968E+02  0.10000000000E+01 0.  0.
    9000005    1    3    3    0    0  0.38143690163E+02 -0.37487035726E+02 -0.48459731694E+02  0.72177313212E+02  0.10000000000E+01 0.  0.
<mgrwt>
<rscale>  0 0.12499418E+03</rscale>
<asrwt>0</asrwt>
<pdfrwt beam="1">  1        4 0.75571553E-02 0.12499418E+03</pdfrwt>
<pdfrwt beam="2">  1       -4 0.12233043E-01 0.12499418E+03</pdfrwt>
<totfact> 0.10375133E+04</totfact>
</mgrwt>
</event>
<event>
 5    1  0.3257199E-002  0.1250153E+03  0.7818608E-02  0.1235045E+00
         -4   -1    0    0    0  501 -0.00000000000E+00  0.00000000000E+00  0.11538561871E+03  0.11539260768E+03  0.12700000000E+01 0. -1.
          4   -1    0    0  501    0  0.00000000000E+00 -0.00000000000E+00 -0.33842225210E+02  0.33866046524E+02  0.12700000000E+01 0. -1.
         25    2    1    2    0    0  0.00000000000E+00  0.00000000000E+00  0.81543393504E+02  0.14925865420E+03  0.12501528238E+03 0.  0.
    9000005    1    3    3    0    0 -0.17452156365E+01 -0.35855492038E+02 -0.20311722247E+02  0.41258067666E+02  0.10000000000E+01 0.  0.
    9000005    1    3    3    0    0  0.17452156365E+01  0.35855492038E+02  0.10185511575E+03  0.10800058653E+03  0.10000000000E+01 0.  0.
<mgrwt>
<rscale>  0 0.12501528E+03</rscale>
<asrwt>0</asrwt>
<pdfrwt beam="2">  1        4 0.52088663E-02 0.12501528E+03</pdfrwt>
<pdfrwt beam="1">  1       -4 0.17754004E-01 0.12501528E+03</pdfrwt>
<totfact> 0.99417479E+03</totfact>
</mgrwt>
</event>
<event>
 5    1  0.3257199E-002  0.1250000E+03  0.7818608E-02  0.1235069E+00
          4   -1    0    0  501    0  0.00000000000E+00  0.00000000000E+00  0.65251089552E+02  0.65263447562E+02  0.12700000000E+01 0.  1.
         -4   -1    0    0    0  501 -0.00000000000E+00 -0.00000000000E+00 -0.59840137747E+02  0.59853612970E+02  0.12700000000E+01 0.  1.
         25    2    1    2    0    0  0.00000000000E+00  0.00000000000E+00  0.54109518046E+01  0.12511706053E+03  0.12500000175E+03 0.  0.
    9000005    1    3    3    0    0  0.14527229425E+02 -0.58572735841E+02 -0.13540692174E+02  0.61855930380E+02  0.10000000000E+01 0.  0.
    9000005    1    3    3    0    0 -0.14527229425E+02  0.58572735841E+02  0.18951643979E+02  0.63261130152E+02  0.10000000000E+01 0.  0.
<mgrwt>
<rscale>  0 0.12500000E+03</rscale>
<asrwt>0</asrwt>
<pdfrwt beam="1">  1        4 0.10040616E-01 0.12500000E+03</pdfrwt>
<pdfrwt beam="2">  1       -4 0.92081622E-02 0.12500000E+03</pdfrwt>
<totfact> 0.10450320E+04</totfact>
</mgrwt>
</event>
<event>
 5    1  0.3257199E-002  0.1250037E+03  0.7818608E-02  0.1235064E+00
          4   -1    0    0  501    0  0.00000000000E+00  0.00000000000E+00  0.23349726688E+03  0.23350072064E+03  0.12700000000E+01 0.  1.
         -4   -1    0    0    0  501 -0.00000000000E+00 -0.00000000000E+00 -0.16702615016E+02  0.16750828289E+02  0.12700000000E+01 0.  1.
         25    2    1    2    0    0  0.00000000000E+00  0.00000000000E+00  0.21679465186E+03  0.25025154893E+03  0.12500366661E+03 0.  0.
    9000005    1    3    3    0    0 -0.45980129480E+02 -0.36305250964E+02  0.64846867437E+02  0.87397710330E+02  0.10000000000E+01 0.  0.
    9000005    1    3    3    0    0  0.45980129480E+02  0.36305250964E+02  0.15194778442E+03  0.16285383860E+03  0.10000000000E+01 0.  0.
<mgrwt>
<rscale>  0 0.12500367E+03</rscale>
<asrwt>0</asrwt>
<pdfrwt beam="1">  1        4 0.35926628E-01 0.12500367E+03</pdfrwt>
<pdfrwt beam="2">  1       -4 0.25736077E-02 0.12500367E+03</pdfrwt>
<totfact> 0.82287165E+03</totfact>
</mgrwt>
</event>
<event>
 5    1  0.3257199E-002  0.1249957E+03  0.7818608E-02  0.1235076E+00
         -4   -1    0    0    0  501 -0.00000000000E+00  0.00000000000E+00  0.13939256933E+04  0.13939262719E+04  0.12700000000E+01 0.  1.
          4   -1    0    0  501    0  0.00000000000E+00 -0.00000000000E+00 -0.26576347347E+01  0.29454918745E+01  0.12700000000E+01 0.  1.
         25    2    1    2    0    0  0.00000000000E+00  0.00000000000E+00  0.13912680586E+04  0.13968717637E+04  0.12499565390E+03 0.  0.
    9000005    1    3    3    0    0  0.53053158055E+02  0.27541387591E+02  0.49206665745E+03  0.49568514299E+03  0.10000000000E+01 0.  0.
    9000005    1    3    3    0    0 -0.53053158055E+02 -0.27541387591E+02  0.89920140114E+03  0.90118662076E+03  0.10000000000E+01 0.  0.
<mgrwt>
<rscale>  0 0.12499565E+03</rscale>
<asrwt>0</asrwt>
<pdfrwt beam="2">  1        4 0.43105442E-03 0.12499565E+03</pdfrwt>
<pdfrwt beam="1">  1       -4 0.21447221E+00 0.12499565E+03</pdfrwt>
<totfact> 0.20050070E+03</totfact>
</mgrwt>
</event>
<event>
 5    1  0.3257199E-002  0.1249947E+03  0.7818608E-02  0.1235078E+00
         -4   -1    0    0    0  501 -0.00000000000E+00  0.00000000000E+00  0.62722785344E+03  0.62722913918E+03  0.12700000000E+01 0.  1.
          4   -1    0    0  501    0  0.00000000000E+00 -0.00000000000E+00 -0.61612190656E+01  0.62907487928E+01  0.12700000000E+01 0.  1.
         25    2    1    2    0    0  0.00000000000E+00  0.00000000000E+00  0.62106663437E+03  0.63351988797E+03  0.12499473636E+03 0.  0.
    9000005    1    3    3    0    0  0.34668754587E+02  0.40163341832E+02  0.47785905272E+03  0.48079651708E+03  0.10000000000E+01 0.  0.
    9000005    1    3    3    0    0 -0.34668754587E+02 -0.40163341832E+02  0.14320758166E+03  0.15272337089E+03  0.10000000000E+01 0.  0.
<mgrwt>
<rscale>  0 0.12499474E+03</rscale>
<asrwt>0</asrwt>
<pdfrwt beam="2">  1        4 0.95794253E-03 0.12499474E+03</pdfrwt>
<pdfrwt beam="1">  1       -4 0.96506661E-01 0.12499474E+03</pdfrwt>
<totfact> 0.46823265E+03</totfact>
</mgrwt>
</event>
<event>
 5    1  0.3257199E-002  0.1250000E+03  0.7818608E-02  0.1235069E+00
         -4   -1    0    0    0  501 -0.00000000000E+00  0.00000000000E+00  0.84731242164E+02  0.84740759370E+02  0.12700000000E+01 0. -1.
          4   -1    0    0  501    0  0.00000000000E+00 -0.00000000000E+00 -0.46080773352E+02  0.46098270822E+02  0.12700000000E+01 0. -1.
         25    2    1    2    0    0  0.00000000000E+00  0.00000000000E+00  0.38650468812E+02  0.13083903019E+03  0.12499997233E+03 0.  0.
    9000005    1    3    3    0    0  0.28995876103E+02  0.50619658578E+02  0.42780414556E+02  0.72348286331E+02  0.10000000000E+01 0.  0.
    9000005    1    3    3    0    0 -0.28995876103E+02 -0.50619658578E+02 -0.41299457442E+01  0.58490743860E+02  0.10000000000E+01 0.  0.
<mgrwt>
<rscale>  0 0.12499997E+03</rscale>
<asrwt>0</asrwt>
<pdfrwt beam="2">  1        4 0.70914278E-02 0.12499997E+03</pdfrwt>
<pdfrwt beam="1">  1       -4 0.13037654E-01 0.12499997E+03</pdfrwt>
<totfact> 0.10326548E+04</totfact>
</mgrwt>
</event>
<event>
 5    1  0.3257199E-002  0.1250017E+03  0.7818608E-02  0.1235067E+00
          4   -1    0    0  501    0  0.00000000000E+00  0.00000000000E+00  0.74295800398E+02  0.74306654189E+02  0.12700000000E+01 0. -1.
         -4   -1    0    0    0  501 -0.00000000000E+00 -0.00000000000E+00 -0.52556050801E+02  0.52571393132E+02  0.12700000000E+01 0. -1.
         25    2    1    2    0    0  0.00000000000E+00  0.00000000000E+00  0.21739749597E+02  0.12687804732E+03  0.12500168871E+03 0.  0.
    9000005    1    3    3    0    0  0.12148187059E+02 -0.60888643985E+02  0.18072169745E+02  0.64673091271E+02  0.10000000000E+01 0.  0.
    9000005    1    3    3    0    0 -0.12148187059E+02  0.60888643985E+02  0.36675798518E+01  0.62204956050E+02  0.10000000000E+01 0.  0.
<mgrwt>
<rscale>  0 0.12500169E+03</rscale>
<asrwt>0</asrwt>
<pdfrwt beam="1">  1        4 0.11432138E-01 0.12500169E+03</pdfrwt>
<pdfrwt beam="2">  1       -4 0.80875614E-02 0.12500169E+03</pdfrwt>
<totfact> 0.10411399E+04</totfact>
</mgrwt>
</event>
<event>
 5    1  0.3257199E-002  0.1250071E+03  0.7818608E-02  0.1235058E+00
          4   -1    0    0  501    0  0.00000000000E+00  0.00000000000E+00  0.53682146540E+02  0.53697167124E+02  0.12700000000E+01 0.  1.
         -4   -1    0    0    0  501 -0.00000000000E+00 -0.00000000000E+00 -0.72743852754E+02  0.72754938070E+02  0.12700000000E+01 0.  1.
         25    2    1    2    0    0  0.00000000000E+00  0.00000000000E+00 -0.19061706214E+02  0.12645210519E+03  0.12500714485E+03 0.  0.
    9000005    1    3    3    0    0  0.15309099369E+02  0.56349531801E+02  0.12998960143E+02  0.59829852268E+02  0.10000000000E+01 0.  0.
    9000005    1    3    3    0    0 -0.15309099369E+02 -0.56349531801E+02 -0.32060666357E+02  0.66622252926E+02  0.10000000000E+01 0.  0.
<mgrwt>
<rscale>  0 0.12500714E+03</rscale>
<asrwt>0</asrwt>
<pdfrwt beam="1">  1        4 0.82607999E-02 0.12500714E+03</pdfrwt>
<pdfrwt beam="2">  1       -4 0.11193370E-01 0.12500714E+03</pdfrwt>
<totfact> 0.10419392E+04</totfact>
</mgrwt>
</event>
<event>
 4    1  0.3257199E-002  0.1254361E+03  0.7818608E-02  0.1234389E+00
          4   -1    0    0  501    0  0.00000000000E+00  0.00000000000E+00  0.24643837488E+03  0.24644164728E+03  0.12700000000E+01 0.  1.
         -4   -1    0    0    0  501 -0.00000000000E+00 -0.00000000000E+00 -0.15932954043E+02  0.15983489122E+02  0.12700000000E+01 0.  1.
    9000005    1    1    2    0    0  0.43540769376E+02 -0.39357973039E+02  0.69050751238E+02  0.90630319905E+02  0.10000000000E+01 0.  0.
    9000005    1    1    2    0    0 -0.43540769376E+02  0.39357973039E+02  0.16145466960E+03  0.17179481650E+03  0.10000000000E+01 0.  0.
<mgrwt>
<rscale>  0 0.12543605E+03</rscale>
<asrwt>0</asrwt>
<pdfrwt beam="1">  1        4 0.37917732E-01 0.12543605E+03</pdfrwt>
<pdfrwt beam="2">  1       -4 0.24553629E-02 0.12543605E+03</pdfrwt>
<totfact> 0.79790019E+03</totfact>
</mgrwt>
</event>
<event>
 5    1  0.3257199E-002  0.1250000E+03  0.7818608E-02  0.1235069E+00
         -4   -1    0    0    0  501 -0.00000000000E+00  0.00000000000E+00  0.65813168660E+01  0.67027331508E+01  0.12700000000E+01 0.  1.
          4   -1    0    0  501    0  0.00000000000E+00 -0.00000000000E+00 -0.58798959641E+03  0.58799096794E+03  0.12700000000E+01 0.  1.
         25    2    1    2    0    0  0.00000000000E+00  0.00000000000E+00 -0.58140827954E+03  0.59469370109E+03  0.12500004241E+03 0.  0.
    9000005    1    3    3    0    0  0.39834453720E+01 -0.36167433133E+02 -0.48989723652E+02  0.61032319962E+02  0.10000000000E+01 0.  0.
    9000005    1    3    3    0    0 -0.39834453720E+01  0.36167433133E+02 -0.53241855589E+03  0.53366138113E+03  0.10000000000E+01 0.  0.
<mgrwt>
<rscale>  0 0.12500004E+03</rscale>
<asrwt>0</asrwt>
<pdfrwt beam="2">  1        4 0.90469342E-01 0.12500004E+03</pdfrwt>
<pdfrwt beam="1">  1       -4 0.10219560E-02 0.12500004E+03</pdfrwt>
<totfact> 0.49204252E+03</totfact>
</mgrwt>
</event>
<event>
 5    1  0.3257199E-002  0.1249990E+03  0.7818608E-02  0.1235071E+00
          4   -1    0    0  501    0  0.00000000000E+00  0.00000000000E+00  0.11459197421E+04  0.11459204459E+04  0.12700000000E+01 0.  1.
         -4   -1    0    0    0  501 -0.00000000000E+00 -0.00000000000E+00 -0.32897600530E+01  0.35263892591E+01  0.12700000000E+01 0.  1.
         25    2    1    2    0    0  0.00000000000E+00  0.00000000000E+00  0.11426299821E+04  0.11494468351E+04  0.12499900355E+03 0.  0.
    9000005    1    3    3    0    0 -0.55335465231E+02 -0.99664639621E+01  0.32051751886E+03  0.32541331259E+03  0.10000000000E+01 0.  0.
    9000005    1    3    3    0    0  0.55335465231E+02  0.99664639621E+01  0.82211246321E+03  0.82403352255E+03  0.10000000000E+01 0.  0.
<mgrwt>
<rscale>  0 0.12499900E+03</rscale>
<asrwt>0</asrwt>
<pdfrwt beam="1">  1        4 0.17631379E+00 0.12499900E+03</pdfrwt>
<pdfrwt beam="2">  1       -4 0.52437274E-03 0.12499900E+03</pdfrwt>
<totfact> 0.26076116E+03</totfact>
</mgrwt>
</event>
<event>
 5    1  0.3257199E-002  0.1250020E+03  0.7818608E-02  0.1235066E+00
          4   -1    0    0  501    0  0.00000000000E+00  0.00000000000E+00  0.49566191333E+02  0.49582458826E+02  0.12700000000E+01 0. -1.
         -4   -1    0    0    0  501 -0.00000000000E+00 -0.00000000000E+00 -0.78777014727E+02  0.78787251185E+02  0.12700000000E+01 0. -1.
         25    2    1    2    0    0  0.00000000000E+00  0.00000000000E+00 -0.29210823395E+02  0.12836971001E+03  0.12500204096E+03 0.  0.
    9000005    1    3    3    0    0 -0.60867466336E+02  0.13260217221E+01 -0.29083849861E+02  0.67479456982E+02  0.10000000000E+01 0.  0.
    9000005    1    3    3    0    0  0.60867466336E+02 -0.13260217221E+01 -0.12697353334E+00  0.60890253030E+02  0.10000000000E+01 0.  0.
<mgrwt>
<rscale>  0 0.12500204E+03</rscale>
<asrwt>0</asrwt>
<pdfrwt beam="1">  1        4 0.76276066E-02 0.12500204E+03</pdfrwt>
<pdfrwt beam="2">  1       -4 0.12121580E-01 0.12500204E+03</pdfrwt>
<totfact> 0.10379033E+04</totfact>
</mgrwt>
</event>
<event>
 5    1  0.3257199E-002  0.1250056E+03  0.7818608E-02  0.1235061E+00
          4   -1    0    0  501    0  0.00000000000E+00  0.00000000000E+00  0.16950684762E+02  0.16998194431E+02  0.12700000000E+01 0. -1.
         -4   -1    0    0    0  501 -0.00000000000E+00 -0.00000000000E+00 -0.23009681749E+03  0.23010032229E+03  0.12700000000E+01 0. -1.
         25    2    1    2    0    0  0.00000000000E+00  0.00000000000E+00 -0.21314613273E+03  0.24709851673E+03  0.12500561216E+03 0.  0.
    9000005    1    3    3    0    0  0.39725184588E+02 -0.37701025329E+02 -0.16607609029E+03  0.17487631448E+03  0.10000000000E+01 0.  0.
    9000005    1    3    3    0    0 -0.39725184588E+02  0.37701025329E+02 -0.47070042440E+02  0.72222202242E+02  0.10000000000E+01 0.  0.
<mgrwt>
<rscale>  0 0.12500561E+03</rscale>
<asrwt>0</asrwt>
<pdfrwt beam="1">  1        4 0.26117220E-02 0.12500561E+03</pdfrwt>
<pdfrwt beam="2">  1       -4 0.35403432E-01 0.12500561E+03</pdfrwt>
<totfact> 0.82741053E+03</totfact>
</mgrwt>
</event>
<event>
 5    1  0.3257199E-002  0.1249998E+03  0.7818608E-02  0.1235070E+00
         -4   -1    0    0    0  501 -0.00000000000E+00  0.00000000000E+00  0.72884484789E+02  0.72895548719E+02  0.12700000000E+01 0.  1.
          4   -1    0    0  501    0  0.00000000000E+00 -0.00000000000E+00 -0.53572235409E+02  0.53587286801E+02  0.12700000000E+01 0.  1.
         25    2    1    2    0    0  0.00000000000E+00  0.00000000000E+00  0.19312249380E+02  0.12648283552E+03  0.12499977882E+03 0.  0.
    9000005    1    3    3    0    0  0.23895869906E+02  0.55193706418E+02  0.26824407180E+02  0.65862786514E+02  0.10000000000E+01 0.  0.
    9000005    1    3    3    0    0 -0.23895869906E+02 -0.55193706418E+02 -0.75121578001E+01  0.60620049007E+02  0.10000000000E+01 0.  0.
<mgrwt>
<rscale>  0 0.12499978E+03</rscale>
<asrwt>0</asrwt>
<pdfrwt beam="2">  1        4 0.82438912E-02 0.12499978E+03</pdfrwt>
<pdfrwt beam="1">  1       -4 0.11215007E-01 0.12499978E+03</pdfrwt>
<totfact> 0.10420454E+04</totfact>
</mgrwt>
</event>
<event>
 5    1  0.3257199E-002  0.1250021E+03  0.7818608E-02  0.1235066E+00
          4   -1    0    0  501    0  0.00000000000E+00  0.00000000000E+00  0.18543642646E+04  0.18543646995E+04  0.12700000000E+01 0. -1.
         -4   -1    0    0    0  501 -0.00000000000E+00 -0.00000000000E+00 -0.19147002729E+01  0.22976024754E+01  0.12700000000E+01 0. -1.
         25    2    1    2    0    0  0.00000000000E+00  0.00000000000E+00  0.18524495643E+04  0.18566623019E+04  0.12500206068E+03 0.  0.
    9000005    1    3    3    0    0  0.43347062785E+02 -0.40634364437E+02  0.63849718519E+03  0.64125640341E+03  0.10000000000E+01 0.  0.
    9000005    1    3    3    0    0 -0.43347062785E+02  0.40634364437E+02  0.12139523791E+04  0.12154058985E+04  0.10000000000E+01 0.  0.
<mgrwt>
<rscale>  0 0.12500206E+03</rscale>
<asrwt>0</asrwt>
<pdfrwt beam="1">  1        4 0.28531585E+00 0.12500206E+03</pdfrwt>
<pdfrwt beam="2">  1       -4 0.32405725E-03 0.12500206E+03</pdfrwt>
<totfact> 0.11849830E+03</totfact>
</mgrwt>
</event>
<event>
 5    1  0.3257199E-002  0.1249977E+03  0.7818608E-02  0.1235073E+00
         -4   -1    0    0    0  501 -0.00000000000E+00  0.00000000000E+00  0.55475684891E+02  0.55490219986E+02  0.12700000000E+01 0.  1.
          4   -1    0    0  501    0  0.00000000000E+00 -0.00000000000E+00 -0.70381708242E+02  0.70393165542E+02  0.12700000000E+01 0.  1.
         25    2    1    2    0    0  0.00000000000E+00  0.00000000000E+00 -0.14906023350E+02  0.12588338553E+03  0.12499774886E+03 0.  0.
    9000005    1    3    3    0    0 -0.51914054209E+02  0.27640939275E+02 -0.28721801715E+02  0.65460159198E+02  0.10000000000E+01 0.  0.
    9000005    1    3    3    0    0  0.51914054209E+02 -0.27640939275E+02  0.13815778365E+02  0.60423226331E+02  0.10000000000E+01 0.  0.
<mgrwt>
<rscale>  0 0.12499775E+03</rscale>
<asrwt>0</asrwt>
<pdfrwt beam="2">  1        4 0.10829955E-01 0.12499775E+03</pdfrwt>
<pdfrwt beam="1">  1       -4 0.85367201E-02 0.12499775E+03</pdfrwt>
<totfact> 0.10434044E+04</totfact>
</mgrwt>
</event>
<event>
 5    1  0.3257199E-002  0.1249894E+03  0.7818608E-02  0.1235086E+00
          4   -1    0    0  501    0  0.00000000000E+00  0.00000000000E+00  0.11829632184E+03  0.11830313884E+03  0.12700000000E+01 0.  1.
         -4   -1    0    0    0  501 -0.00000000000E+00 -0.00000000000E+00 -0.32995289894E+02  0.33019722215E+02  0.12700000000E+01 0.  1.
         25    2    1    2    0    0  0.00000000000E+00  0.00000000000E+00  0.85301031942E+02  0.15132286106E+03  0.12498936846E+03 0.  0.
    9000005    1    3    3    0    0  0.44097894191E+02  0.29091100950E+02  0.83053138969E+02  0.98436478600E+02  0.10000000000E+01 0.  0.
    9000005    1    3    3    0    0 -0.44097894191E+02 -0.29091100950E+02  0.22478929728E+01  0.52886382457E+02  0.10000000000E+01 0.  0.
<mgrwt>
<rscale>  0 0.12498937E+03</rscale>
<asrwt>0</asrwt>
<pdfrwt beam="1">  1        4 0.18201838E-01 0.12498937E+03</pdfrwt>
<pdfrwt beam="2">  1       -4 0.50786023E-02 0.12498937E+03</pdfrwt>
<totfact> 0.99064354E+03</totfact>
</mgrwt>
</event>
<event>
 4    1  0.3257199E-002  0.1249093E+03  0.7818608E-02  0.1235211E+00
         -4   -1    0    0    0  501 -0.00000000000E+00  0.00000000000E+00  0.22929184995E+03  0.22929536706E+03  0.12700000000E+01 0. -1.
          4   -1    0    0  501    0  0.00000000000E+00 -0.00000000000E+00 -0.16984090817E+02  0.17031507299E+02  0.12700000000E+01 0. -1.
    9000005    1    1    2    0    0 -0.60298502237E+02  0.11978710818E+02  0.12777339823E+03  0.14179717973E+03  0.10000000000E+01 0.  0.
    9000005    1    1    2    0    0  0.60298502237E+02 -0.11978710818E+02  0.84534360904E+02  0.10452969462E+03  0.10000000000E+01 0.  0.
<mgrwt>
<rscale>  0 0.12490934E+03</rscale>
<asrwt>0</asrwt>
<pdfrwt beam="2">  1        4 0.26168551E-02 0.12490934E+03</pdfrwt>
<pdfrwt beam="1">  1       -4 0.35279587E-01 0.12490934E+03</pdfrwt>
<totfact> 0.83031634E+03</totfact>
</mgrwt>
</event>
<event>
 5    1  0.3257199E-002  0.1250009E+03  0.7818608E-02  0.1235068E+00
         -4   -1    0    0    0  501 -0.00000000000E+00  0.00000000000E+00  0.14851300307E+02  0.14905503038E+02  0.12700000000E+01 0.  1.
          4   -1    0    0  501    0  0.00000000000E+00 -0.00000000000E+00 -0.26249288438E+03  0.26249595663E+03  0.12700000000E+01 0.  1.
         25    2    1    2    0    0  0.00000000000E+00  0.00000000000E+00 -0.24764158407E+03  0.27740145967E+03  0.12500086267E+03 0.  0.
    9000005    1    3    3    0    0  0.62320897109E+02 -0.46175609567E+01 -0.12316310421E+03  0.13811359934E+03  0.10000000000E+01 0.  0.
    9000005    1    3    3    0    0 -0.62320897109E+02  0.46175609567E+01 -0.12447847986E+03  0.13928786033E+03  0.10000000000E+01 0.  0.
<mgrwt>
<rscale>  0 0.12500086E+03</rscale>
<asrwt>0</asrwt>
<pdfrwt beam="2">  1        4 0.40387923E-01 0.12500086E+03</pdfrwt>
<pdfrwt beam="1">  1       -4 0.22892214E-02 0.12500086E+03</pdfrwt>
<totfact> 0.78522414E+03</totfact>
</mgrwt>
</event>
<event>
 5    1  0.3257199E-002  0.1250000E+03  0.7818608E-02  0.1235069E+00
          4   -1    0    0  501    0  0.00000000000E+00  0.00000000000E+00  0.23493019162E+03  0.23493362431E+03  0.12700000000E+01 0. -1.
         -4   -1    0    0    0  501 -0.00000000000E+00 -0.00000000000E+00 -0.16599468661E+02  0.16647980654E+02  0.12700000000E+01 0. -1.
         25    2    1    2    0    0  0.00000000000E+00  0.00000000000E+00  0.21833072296E+03  0.25158160497E+03  0.12499999749E+03 0.  0.
    9000005    1    3    3    0    0 -0.22968346432E+01  0.57009650601E+02  0.16047317460E+03  0.17031739629E+03  0.10000000000E+01 0.  0.
    9000005    1    3    3    0    0  0.22968346432E+01 -0.57009650601E+02  0.57857548353E+02  0.81264208680E+02  0.10000000000E+01 0.  0.
<mgrwt>
<rscale>  0 0.12500000E+03</rscale>
<asrwt>0</asrwt>
<pdfrwt beam="1">  1        4 0.36147100E-01 0.12500000E+03</pdfrwt>
<pdfrwt beam="2">  1       -4 0.25577603E-02 0.12500000E+03</pdfrwt>
<totfact> 0.82102179E+03</totfact>
</mgrwt>
</event>
<event>
 5    1  0.3257199E-002  0.1250007E+03  0.7818608E-02  0.1235068E+00
          4   -1    0    0  501    0  0.00000000000E+00  0.00000000000E+00  0.12303233248E+03  0.12303888709E+03  0.12700000000E+01 0.  1.
         -4   -1    0    0    0  501 -0.00000000000E+00 -0.00000000000E+00 -0.31730058379E+02  0.31755464172E+02  0.12700000000E+01 0.  1.
         25    2    1    2    0    0  0.00000000000E+00  0.00000000000E+00  0.91302274100E+02  0.15479435126E+03  0.12500074370E+03 0.  0.
    9000005    1    3    3    0    0 -0.42548713522E+02 -0.69500669932E+01  0.10167318738E+03  0.11044063331E+03  0.10000000000E+01 0.  0.
    9000005    1    3    3    0    0  0.42548713522E+02  0.69500669932E+01 -0.10370913280E+02  0.44353717949E+02  0.10000000000E+01 0.  0.
<mgrwt>
<rscale>  0 0.12500074E+03</rscale>
<asrwt>0</asrwt>
<pdfrwt beam="1">  1        4 0.18930509E-01 0.12500074E+03</pdfrwt>
<pdfrwt beam="2">  1       -4 0.48840061E-02 0.12500074E+03</pdfrwt>
<totfact> 0.98354241E+03</totfact>
</mgrwt>
</event>
<event>
 5    1  0.3257199E-002  0.1249639E+03  0.7818608E-02  0.1235126E+00
         -4   -1    0    0    0  501 -0.00000000000E+00  0.00000000000E+00  0.47822365398E+02  0.47839225874E+02  0.12700000000E+01 0. -1.
          4   -1    0    0  501    0  0.00000000000E+00 -0.00000000000E+00 -0.81599093840E+02  0.81608976317E+02  0.12700000000E+01 0. -1.
         25    2    1    2    0    0  0.00000000000E+00  0.00000000000E+00 -0.33776728443E+02  0.12944820219E+03  0.12496387344E+03 0.  0.
    9000005    1    3    3    0    0 -0.36063149057E+02 -0.47821122119E+02 -0.35290474985E+02  0.69525736711E+02  0.10000000000E+01 0.  0.
    9000005    1    3    3    0    0  0.36063149057E+02  0.47821122119E+02  0.15137465427E+01  0.59922465480E+02  0.10000000000E+01 0.  0.
<mgrwt>
<rscale>  0 0.12496387E+03</rscale>
<asrwt>0</asrwt>
<pdfrwt beam="2">  1        4 0.12555764E-01 0.12496387E+03</pdfrwt>
<pdfrwt beam="1">  1       -4 0.73593442E-02 0.12496387E+03</pdfrwt>
<totfact> 0.10364776E+04</totfact>
</mgrwt>
</event>
<event>
 5    1  0.3257199E-002  0.1249971E+03  0.7818608E-02  0.1235074E+00
         -4   -1    0    0    0  501 -0.00000000000E+00  0.00000000000E+00  0.14267350377E+03  0.14267915607E+03  0.12700000000E+01 0.  1.
          4   -1    0    0  501    0  0.00000000000E+00 -0.00000000000E+00 -0.27356766152E+02  0.27386229282E+02  0.12700000000E+01 0.  1.
         25    2    1    2    0    0  0.00000000000E+00  0.00000000000E+00  0.11531673761E+03  0.17006538535E+03  0.12499714125E+03 0.  0.
    9000005    1    3    3    0    0 -0.30792421446E+02 -0.44537378219E+02  0.15211693180E+02  0.56250750098E+02  0.10000000000E+01 0.  0.
    9000005    1    3    3    0    0  0.30792421446E+02  0.44537378219E+02  0.10010504443E+03  0.11381463526E+03  0.10000000000E+01 0.  0.
<mgrwt>
<rscale>  0 0.12499714E+03</rscale>
<asrwt>0</asrwt>
<pdfrwt beam="2">  1        4 0.42114344E-02 0.12499714E+03</pdfrwt>
<pdfrwt beam="1">  1       -4 0.21952471E-01 0.12499714E+03</pdfrwt>
<totfact> 0.95442574E+03</totfact>
</mgrwt>
</event>
<event>
 5    1  0.3257199E-002  0.1250090E+03  0.7818608E-02  0.1235055E+00
          4   -1    0    0  501    0  0.00000000000E+00  0.00000000000E+00  0.15363969803E+03  0.15364494690E+03  0.12700000000E+01 0. -1.
         -4   -1    0    0    0  501 -0.00000000000E+00 -0.00000000000E+00 -0.25406842511E+02  0.25438564157E+02  0.12700000000E+01 0. -1.
         25    2    1    2    0    0  0.00000000000E+00  0.00000000000E+00  0.12823285551E+03  0.17908351106E+03  0.12500895448E+03 0.  0.
    9000005    1    3    3    0    0 -0.23472169039E+02  0.27531711074E+02 -0.88864089582E+01  0.37268030512E+02  0.10000000000E+01 0.  0.
    9000005    1    3    3    0    0  0.23472169039E+02 -0.27531711074E+02  0.13711926447E+03  0.14181548055E+03  0.10000000000E+01 0.  0.
<mgrwt>
<rscale>  0 0.12500895E+03</rscale>
<asrwt>0</asrwt>
<pdfrwt beam="1">  1        4 0.23639720E-01 0.12500895E+03</pdfrwt>
<pdfrwt beam="2">  1       -4 0.39115889E-02 0.12500895E+03</pdfrwt>
<totfact> 0.93763406E+03</totfact>
</mgrwt>
</event>
<event>
 5    1  0.3257199E-002  0.1249998E+03  0.7818608E-02  0.1235070E+00
          4   -1    0    0  501    0  0.00000000000E+00  0.00000000000E+00  0.33588535025E+03  0.33588775121E+03  0.12700000000E+01 0.  1.
         -4   -1    0    0    0  501 -0.00000000000E+00 -0.00000000000E+00 -0.11592554782E+02  0.11661913496E+02  0.12700000000E+01 0.  1.
         25    2    1    2    0    0  0.00000000000E+00  0.00000000000E+00  0.32429279547E+03  0.34754966471E+03  0.12499980898E+03 0.  0.
    9000005    1    3    3    0    0  0.32513622653E+02 -0.22937963339E+02  0.28168189357E+02  0.48762000695E+02  0.10000000000E+01 0.  0.
    9000005    1    3    3    0    0 -0.32513622653E+02  0.22937963339E+02  0.29612460611E+03  0.29878766401E+03  0.10000000000E+01 0.  0.
<mgrwt>
<rscale>  0 0.12499981E+03</rscale>
<asrwt>0</asrwt>
<pdfrwt beam="1">  1        4 0.51680183E-01 0.12499981E+03</pdfrwt>
<pdfrwt beam="2">  1       -4 0.17889902E-02 0.12499981E+03</pdfrwt>
<totfact> 0.69995265E+03</totfact>
</mgrwt>
</event>
<event>
 5    1  0.3257199E-002  0.1250129E+03  0.7818608E-02  0.1235049E+00
          4   -1    0    0  501    0  0.00000000000E+00  0.00000000000E+00  0.13857999300E+04  0.13858005120E+04  0.12700000000E+01 0.  1.
         -4   -1    0    0    0  501 -0.00000000000E+00 -0.00000000000E+00 -0.26757201972E+01  0.29618201454E+01  0.12700000000E+01 0.  1.
         25    2    1    2    0    0  0.00000000000E+00  0.00000000000E+00  0.13831242098E+04  0.13887623321E+04  0.12501294042E+03 0.  0.
    9000005    1    3    3    0    0 -0.25914418100E+02  0.27120835419E+02  0.13622999241E+03  0.14130360084E+03  0.10000000000E+01 0.  0.
    9000005    1    3    3    0    0  0.25914418100E+02 -0.27120835419E+02  0.12468942174E+04  0.12474587313E+04  0.10000000000E+01 0.  0.
<mgrwt>
<rscale>  0 0.12501294E+03</rscale>
<asrwt>0</asrwt>
<pdfrwt beam="1">  1        4 0.21322246E+00 0.12501294E+03</pdfrwt>
<pdfrwt beam="2">  1       -4 0.43370086E-03 0.12501294E+03</pdfrwt>
<totfact> 0.20217596E+03</totfact>
</mgrwt>
</event>
<event>
 5    1  0.3257199E-002  0.1250022E+03  0.7818608E-02  0.1235066E+00
          4   -1    0    0  501    0  0.00000000000E+00  0.00000000000E+00  0.12309921326E+02  0.12375260121E+02  0.12700000000E+01 0.  1.
         -4   -1    0    0    0  501 -0.00000000000E+00 -0.00000000000E+00 -0.31642999221E+03  0.31643254079E+03  0.12700000000E+01 0.  1.
         25    2    1    2    0    0  0.00000000000E+00  0.00000000000E+00 -0.30412007088E+03  0.32880780091E+03  0.12500220968E+03 0.  0.
    9000005    1    3    3    0    0 -0.88780966282E+01  0.20216847535E+02 -0.30584033574E+03  0.30663798279E+03  0.10000000000E+01 0.  0.
    9000005    1    3    3    0    0  0.88780966282E+01 -0.20216847535E+02  0.17202648623E+01  0.22169818113E+02  0.10000000000E+01 0.  0.
<mgrwt>
<rscale>  0 0.12500221E+03</rscale>
<asrwt>0</asrwt>
<pdfrwt beam="1">  1        4 0.18990564E-02 0.12500221E+03</pdfrwt>
<pdfrwt beam="2">  1       -4 0.48686753E-01 0.12500221E+03</pdfrwt>
<totfact> 0.72117129E+03</totfact>
</mgrwt>
</event>
<event>
 5    1  0.3257199E-002  0.1249964E+03  0.7818608E-02  0.1235075E+00
         -4   -1    0    0    0  501 -0.00000000000E+00  0.00000000000E+00  0.34680016782E+02  0.34703263017E+02  0.12700000000E+01 0.  1.
          4   -1    0    0  501    0  0.00000000000E+00 -0.00000000000E+00 -0.11256588925E+03  0.11257305327E+03  0.12700000000E+01 0.  1.
         25    2    1    2    0    0  0.00000000000E+00  0.00000000000E+00 -0.77885872465E+02  0.14727631628E+03  0.12499641678E+03 0.  0.
    9000005    1    3    3    0    0  0.72241901220E+01 -0.59747948669E+02 -0.58764765358E+02  0.84120769972E+02  0.10000000000E+01 0.  0.
    9000005    1    3    3    0    0 -0.72241901220E+01  0.59747948669E+02 -0.19121107107E+02  0.63155546313E+02  0.10000000000E+01 0.  0.
<mgrwt>
<rscale>  0 0.12499642E+03</rscale>
<asrwt>0</asrwt>
<pdfrwt beam="2">  1        4 0.17320168E-01 0.12499642E+03</pdfrwt>
<pdfrwt beam="1">  1       -4 0.53377265E-02 0.12499642E+03</pdfrwt>
<totfact> 0.99857476E+03</totfact>
</mgrwt>
</event>
<event>
 5    1  0.3257199E-002  0.1250008E+03  0.7818608E-02  0.1235068E+00
         -4   -1    0    0    0  501 -0.00000000000E+00  0.00000000000E+00  0.33189981950E+03  0.33190224929E+03  0.12700000000E+01 0.  1.
          4   -1    0    0  501    0  0.00000000000E+00 -0.00000000000E+00 -0.11732774376E+02  0.11801309019E+02  0.12700000000E+01 0.  1.
         25    2    1    2    0    0  0.00000000000E+00  0.00000000000E+00  0.32016704512E+03  0.34370355831E+03  0.12500079684E+03 0.  0.
    9000005    1    3    3    0    0  0.83300874649E+01  0.20708807505E+02 -0.41121697631E+00  0.22347576263E+02  0.10000000000E+01 0.  0.
    9000005    1    3    3    0    0 -0.83300874649E+01 -0.20708807505E+02  0.32057826210E+03  0.32135598205E+03  0.10000000000E+01 0.  0.
<mgrwt>
<rscale>  0 0.12500080E+03</rscale>
<asrwt>0</asrwt>
<pdfrwt beam="2">  1        4 0.18105012E-02 0.12500080E+03</pdfrwt>
<pdfrwt beam="1">  1       -4 0.51066965E-01 0.12500080E+03</pdfrwt>
<totfact> 0.70421600E+03</totfact>
</mgrwt>
</event>
<event>
 5    1  0.3257199E-002  0.1249989E+03  0.7818608E-02  0.1235071E+00
          4   -1    0    0  501    0  0.00000000000E+00  0.00000000000E+00  0.66982713376E+03  0.66982833773E+03  0.12700000000E+01 0. -1.
         -4   -1    0    0    0  501 -0.00000000000E+00 -0.00000000000E+00 -0.57612601143E+01  0.58995777904E+01  0.12700000000E+01 0. -1.
         25    2    1    2    0    0  0.00000000000E+00  0.00000000000E+00  0.66406587365E+03  0.67572791552E+03  0.12499892507E+03 0.  0.
    9000005    1    3    3    0    0 -0.15227435081E+02 -0.47611048984E+02  0.53477078902E+03  0.53710286124E+03  0.10000000000E+01 0.  0.
    9000005    1    3    3    0    0  0.15227435081E+02  0.47611048984E+02  0.12929508463E+03  0.13862505428E+03  0.10000000000E+01 0.  0.
<mgrwt>
<rscale>  0 0.12499893E+03</rscale>
<asrwt>0</asrwt>
<pdfrwt beam="1">  1        4 0.10306105E+00 0.12499893E+03</pdfrwt>
<pdfrwt beam="2">  1       -4 0.89708021E-03 0.12499893E+03</pdfrwt>
<totfact> 0.44400378E+03</totfact>
</mgrwt>
</event>
<event>
 5    1  0.3257199E-002  0.1249933E+03  0.7818608E-02  0.1235080E+00
          4   -1    0    0  501    0  0.00000000000E+00  0.00000000000E+00  0.71296298344E+01  0.72418589862E+01  0.12700000000E+01 0.  1.
         -4   -1    0    0    0  501 -0.00000000000E+00 -0.00000000000E+00 -0.54344011383E+03  0.54344159780E+03  0.12700000000E+01 0.  1.
         25    2    1    2    0    0  0.00000000000E+00  0.00000000000E+00 -0.53631048400E+03  0.55068345679E+03  0.12499333716E+03 0.  0.
    9000005    1    3    3    0    0 -0.31336902601E+02  0.45524812427E+02 -0.13968359968E+03  0.15022322734E+03  0.10000000000E+01 0.  0.
    9000005    1    3    3    0    0  0.31336902601E+02 -0.45524812427E+02 -0.39662688431E+03  0.40046022945E+03  0.10000000000E+01 0.  0.
<mgrwt>
<rscale>  0 0.12499334E+03</rscale>
<asrwt>0</asrwt>
<pdfrwt beam="1">  1        4 0.11056137E-02 0.12499334E+03</pdfrwt>
<pdfrwt beam="2">  1       -4 0.83614886E-01 0.12499334E+03</pdfrwt>
<totfact> 0.52143967E+03</totfact>
</mgrwt>
</event>
<event>
 5    1  0.3257199E-002  0.1250307E+03  0.7818608E-02  0.1235021E+00
          4   -1    0    0  501    0  0.00000000000E+00  0.00000000000E+00  0.40690878788E+01  0.42626724207E+01  0.12700000000E+01 0.  1.
         -4   -1    0    0    0  501 -0.00000000000E+00 -0.00000000000E+00 -0.93794350588E+03  0.93794436568E+03  0.12700000000E+01 0.  1.
         25    2    1    2    0    0  0.00000000000E+00  0.00000000000E+00 -0.93387441800E+03  0.94220703811E+03  0.12503069248E+03 0.  0.
    9000005    1    3    3    0    0  0.13433535431E+01  0.26624775507E+02 -0.40881823235E+02  0.48816050030E+02  0.10000000000E+01 0.  0.
    9000005    1    3    3    0    0 -0.13433535431E+01 -0.26624775507E+02 -0.89299259476E+03  0.89339098808E+03  0.10000000000E+01 0.  0.
<mgrwt>
<rscale>  0 0.12503069E+03</rscale>
<asrwt>0</asrwt>
<pdfrwt beam="1">  1        4 0.64097152E-03 0.12503069E+03</pdfrwt>
<pdfrwt beam="2">  1       -4 0.14431379E+00 0.12503069E+03</pdfrwt>
<totfact> 0.32572499E+03</totfact>
</mgrwt>
</event>
<event>
 5    1  0.3257199E-002  0.1250008E+03  0.7818608E-02  0.1235068E+00
          4   -1    0    0  501    0  0.00000000000E+00  0.00000000000E+00  0.27485935785E+03  0.27486229188E+03  0.12700000000E+01 0.  1.
         -4   -1    0    0    0  501 -0.00000000000E+00 -0.00000000000E+00 -0.14180601383E+02  0.14237357746E+02  0.12700000000E+01 0.  1.
         25    2    1    2    0    0  0.00000000000E+00  0.00000000000E+00  0.26067875646E+03  0.28909964962E+03  0.12500077336E+03 0.  0.
    9000005    1    3    3    0    0 -0.54335857142E+01  0.45370545642E+02  0.31746225774E+02  0.55649196907E+02  0.10000000000E+01 0.  0.
    9000005    1    3    3    0    0  0.54335857142E+01 -0.45370545642E+02  0.22893253069E+03  0.23345045272E+03  0.10000000000E+01 0.  0.
<mgrwt>
<rscale>  0 0.12500077E+03</rscale>
<asrwt>0</asrwt>
<pdfrwt beam="1">  1        4 0.42290642E-01 0.12500077E+03</pdfrwt>
<pdfrwt beam="2">  1       -4 0.21862228E-02 0.12500077E+03</pdfrwt>
<totfact> 0.76985503E+03</totfact>
</mgrwt>
</event>
<event>
 5    1  0.3257199E-002  0.1249999E+03  0.7818608E-02  0.1235069E+00
         -4   -1    0    0    0  501 -0.00000000000E+00  0.00000000000E+00  0.52577191949E+02  0.52592528112E+02  0.12700000000E+01 0.  1.
          4   -1    0    0  501    0  0.00000000000E+00 -0.00000000000E+00 -0.74263785872E+02  0.74274644341E+02  0.12700000000E+01 0.  1.
         25    2    1    2    0    0  0.00000000000E+00  0.00000000000E+00 -0.21686593923E+02  0.12686717245E+03  0.12499988436E+03 0.  0.
    9000005    1    3    3    0    0 -0.10308532574E+02  0.58634909394E+02  0.84385099004E+01  0.60137566402E+02  0.10000000000E+01 0.  0.
    9000005    1    3    3    0    0  0.10308532574E+02 -0.58634909394E+02 -0.30125103823E+02  0.66729606052E+02  0.10000000000E+01 0.  0.
<mgrwt>
<rscale>  0 0.12499988E+03</rscale>
<asrwt>0</asrwt>
<pdfrwt beam="2">  1        4 0.11427213E-01 0.12499988E+03</pdfrwt>
<pdfrwt beam="1">  1       -4 0.80908137E-02 0.12499988E+03</pdfrwt>
<totfact> 0.10412060E+04</totfact>
</mgrwt>
</event>
<event>
 5    1  0.3257199E-002  0.1249869E+03  0.7818608E-02  0.1235090E+00
         -4   -1    0    0    0  501 -0.00000000000E+00  0.00000000000E+00  0.54147144134E+02  0.54162035762E+02  0.12700000000E+01 0. -1.
          4   -1    0    0  501    0  0.00000000000E+00 -0.00000000000E+00 -0.72095834879E+02  0.72107019817E+02  0.12700000000E+01 0. -1.
         25    2    1    2    0    0  0.00000000000E+00  0.00000000000E+00 -0.17948690745E+02  0.12626905558E+03  0.12498687490E+03 0.  0.
    9000005    1    3    3    0    0 -0.50250203722E+02  0.35839330732E+02 -0.18815379527E+02  0.64533395294E+02  0.10000000000E+01 0.  0.
    9000005    1    3    3    0    0  0.50250203722E+02 -0.35839330732E+02  0.86668878190E+00  0.61735660285E+02  0.10000000000E+01 0.  0.
<mgrwt>
<rscale>  0 0.12498687E+03</rscale>
<asrwt>0</asrwt>
<pdfrwt beam="2">  1        4 0.11093673E-01 0.12498687E+03</pdfrwt>
<pdfrwt beam="1">  1       -4 0.83323358E-02 0.12498687E+03</pdfrwt>
<totfact> 0.10428158E+04</totfact>
</mgrwt>
</event>
<event>
 5    1  0.3257199E-002  0.1250016E+03  0.7818608E-02  0.1235067E+00
          4   -1    0    0  501    0  0.00000000000E+00  0.00000000000E+00  0.86070107114E+02  0.86079476291E+02  0.12700000000E+01 0.  1.
         -4   -1    0    0    0  501 -0.00000000000E+00 -0.00000000000E+00 -0.45364960095E+02  0.45382733550E+02  0.12700000000E+01 0.  1.
         25    2    1    2    0    0  0.00000000000E+00  0.00000000000E+00  0.40705147019E+02  0.13146220984E+03  0.12500161448E+03 0.  0.
    9000005    1    3    3    0    0  0.39593528273E+02  0.37348280721E+02 -0.11939597740E+02  0.55732356384E+02  0.10000000000E+01 0.  0.
    9000005    1    3    3    0    0 -0.39593528273E+02 -0.37348280721E+02  0.52644744759E+02  0.75729853457E+02  0.10000000000E+01 0.  0.
<mgrwt>
<rscale>  0 0.12500161E+03</rscale>
<asrwt>0</asrwt>
<pdfrwt beam="1">  1        4 0.13243643E-01 0.12500161E+03</pdfrwt>
<pdfrwt beam="2">  1       -4 0.69813125E-02 0.12500161E+03</pdfrwt>
<totfact> 0.10312815E+04</totfact>
</mgrwt>
</event>
<event>
 5    1  0.3257199E-002  0.1249984E+03  0.7818608E-02  0.1235072E+00
         -4   -1    0    0    0  501 -0.00000000000E+00  0.00000000000E+00  0.37395074219E+02  0.37416633679E+02  0.12700000000E+01 0. -1.
          4   -1    0    0  501    0  0.00000000000E+00 -0.00000000000E+00 -0.10440072423E+03  0.10440844850E+03  0.12700000000E+01 0. -1.
         25    2    1    2    0    0  0.00000000000E+00  0.00000000000E+00 -0.67005650007E+02  0.14182508218E+03  0.12499838720E+03 0.  0.
    9000005    1    3    3    0    0 -0.17109936507E+01 -0.35210178545E+02  0.25042280147E+02  0.43252745201E+02  0.10000000000E+01 0.  0.
    9000005    1    3    3    0    0  0.17109936507E+01  0.35210178545E+02 -0.92047930154E+02  0.98572336982E+02  0.10000000000E+01 0.  0.
<mgrwt>
<rscale>  0 0.12499839E+03</rscale>
<asrwt>0</asrwt>
<pdfrwt beam="2">  1        4 0.16063902E-01 0.12499839E+03</pdfrwt>
<pdfrwt beam="1">  1       -4 0.57553410E-02 0.12499839E+03</pdfrwt>
<totfact> 0.10096266E+04</totfact>
</mgrwt>
</event>
<event>
 5    1  0.3257199E-002  0.1249974E+03  0.7818608E-02  0.1235073E+00
         -4   -1    0    0    0  501 -0.00000000000E+00  0.00000000000E+00  0.16214629812E+03  0.16215127164E+03  0.12700000000E+01 0. -1.
          4   -1    0    0  501    0  0.00000000000E+00 -0.00000000000E+00 -0.24067822992E+02  0.24101307092E+02  0.12700000000E+01 0. -1.
         25    2    1    2    0    0  0.00000000000E+00  0.00000000000E+00  0.13807847513E+03  0.18625257873E+03  0.12499743113E+03 0.  0.
    9000005    1    3    3    0    0  0.35286296343E+02  0.44446654159E+02  0.30056191279E+02  0.64226181654E+02  0.10000000000E+01 0.  0.
    9000005    1    3    3    0    0 -0.35286296343E+02 -0.44446654159E+02  0.10802228385E+03  0.12202639708E+03  0.10000000000E+01 0.  0.
<mgrwt>
<rscale>  0 0.12499743E+03</rscale>
<asrwt>0</asrwt>
<pdfrwt beam="2">  1        4 0.37057001E-02 0.12499743E+03</pdfrwt>
<pdfrwt beam="1">  1       -4 0.24948544E-01 0.12499743E+03</pdfrwt>
<totfact> 0.92508796E+03</totfact>
</mgrwt>
</event>
<event>
 5    1  0.3257199E-002  0.1249998E+03  0.7818608E-02  0.1235070E+00
         -4   -1    0    0    0  501 -0.00000000000E+00  0.00000000000E+00  0.20816323424E+03  0.20816710833E+03  0.12700000000E+01 0. -1.
          4   -1    0    0  501    0  0.00000000000E+00 -0.00000000000E+00 -0.18739710066E+02  0.18782695050E+02  0.12700000000E+01 0. -1.
         25    2    1    2    0    0  0.00000000000E+00  0.00000000000E+00  0.18942352418E+03  0.22694980338E+03  0.12499976697E+03 0.  0.
    9000005    1    3    3    0    0  0.82923063344E+01 -0.24023186149E+02  0.19836592477E+03  0.19998978956E+03  0.10000000000E+01 0.  0.
    9000005    1    3    3    0    0 -0.82923063344E+01  0.24023186149E+02 -0.89424005910E+01  0.26960013825E+02  0.10000000000E+01 0.  0.
<mgrwt>
<rscale>  0 0.12499977E+03</rscale>
<asrwt>0</asrwt>
<pdfrwt beam="2">  1        4 0.28866369E-02 0.12499977E+03</pdfrwt>
<pdfrwt beam="1">  1       -4 0.32028717E-01 0.12499977E+03</pdfrwt>
<totfact> 0.85780614E+03</totfact>
</mgrwt>
</event>
<event>
 5    1  0.3257199E-002  0.1250012E+03  0.7818608E-02  0.1235067E+00
         -4   -1    0    0    0  501 -0.00000000000E+00  0.00000000000E+00  0.91067940784E+02  0.91076795830E+02  0.12700000000E+01 0. -1.
          4   -1    0    0  501    0  0.00000000000E+00 -0.00000000000E+00 -0.42874308559E+02  0.42893114068E+02  0.12700000000E+01 0. -1.
         25    2    1    2    0    0  0.00000000000E+00  0.00000000000E+00  0.48193632224E+02  0.13396990990E+03  0.12500124228E+03 0.  0.
    9000005    1    3    3    0    0 -0.24866372383E+02 -0.61655920879E+01 -0.36992636077E+02  0.45008956056E+02  0.10000000000E+01 0.  0.
    9000005    1    3    3    0    0  0.24866372383E+02  0.61655920879E+01  0.85186268302E+02  0.88960953842E+02  0.10000000000E+01 0.  0.
<mgrwt>
<rscale>  0 0.12500124E+03</rscale>
<asrwt>0</asrwt>
<pdfrwt beam="2">  1        4 0.65981753E-02 0.12500124E+03</pdfrwt>
<pdfrwt beam="1">  1       -4 0.14012580E-01 0.12500124E+03</pdfrwt>
<totfact> 0.10259541E+04</totfact>
</mgrwt>
</event>
<event>
 5    1  0.3257199E-002  0.1250017E+03  0.7818608E-02  0.1235067E+00
          4   -1    0    0  501    0  0.00000000000E+00  0.00000000000E+00  0.16396305814E+03  0.16396797655E+03  0.12700000000E+01 0.  1.
         -4   -1    0    0    0  501 -0.00000000000E+00 -0.00000000000E+00 -0.23802424983E+02  0.23836281906E+02  0.12700000000E+01 0.  1.
         25    2    1    2    0    0  0.00000000000E+00  0.00000000000E+00  0.14016063316E+03  0.18780425846E+03  0.12500174562E+03 0.  0.
    9000005    1    3    3    0    0 -0.58364930208E+02 -0.20508210179E+02  0.56785247713E+02  0.83979855446E+02  0.10000000000E+01 0.  0.
    9000005    1    3    3    0    0  0.58364930208E+02  0.20508210179E+02  0.83375385443E+02  0.10382440301E+03  0.10000000000E+01 0.  0.
<mgrwt>
<rscale>  0 0.12500175E+03</rscale>
<asrwt>0</asrwt>
<pdfrwt beam="1">  1        4 0.25228070E-01 0.12500175E+03</pdfrwt>
<pdfrwt beam="2">  1       -4 0.36648941E-02 0.12500175E+03</pdfrwt>
<totfact> 0.92227167E+03</totfact>
</mgrwt>
</event>
<event>
 5    1  0.3257199E-002  0.1250009E+03  0.7818608E-02  0.1235068E+00
          4   -1    0    0  501    0  0.00000000000E+00  0.00000000000E+00  0.77972444663E+02  0.77982786733E+02  0.12700000000E+01 0. -1.
         -4   -1    0    0    0  501 -0.00000000000E+00 -0.00000000000E+00 -0.50076859578E+02  0.50092961234E+02  0.12700000000E+01 0. -1.
         25    2    1    2    0    0  0.00000000000E+00  0.00000000000E+00  0.27895585085E+02  0.12807574797E+03  0.12500093420E+03 0.  0.
    9000005    1    3    3    0    0 -0.12981609854E+02 -0.58998467452E+02  0.30340310120E+02  0.67608252265E+02  0.10000000000E+01 0.  0.
    9000005    1    3    3    0    0  0.12981609854E+02  0.58998467452E+02 -0.24447250353E+01  0.60467495703E+02  0.10000000000E+01 0.  0.
<mgrwt>
<rscale>  0 0.12500093E+03</rscale>
<asrwt>0</asrwt>
<pdfrwt beam="1">  1        4 0.11997795E-01 0.12500093E+03</pdfrwt>
<pdfrwt beam="2">  1       -4 0.77061664E-02 0.12500093E+03</pdfrwt>
<totfact> 0.10385633E+04</totfact>
</mgrwt>
</event>
<event>
 5    1  0.3257199E-002  0.1249998E+03  0.7818608E-02  0.1235070E+00
          4   -1    0    0  501    0  0.00000000000E+00  0.00000000000E+00  0.15424966985E+01  0.19980480637E+01  0.12700000000E+01 0.  1.
         -4   -1    0    0    0  501 -0.00000000000E+00 -0.00000000000E+00 -0.22061173039E+04  0.22061176695E+04  0.12700000000E+01 0.  1.
         25    2    1    2    0    0  0.00000000000E+00  0.00000000000E+00 -0.22045748072E+04  0.22081157175E+04  0.12499976557E+03 0.  0.
    9000005    1    3    3    0    0 -0.12512546174E+01  0.44802216262E+02 -0.18715616052E+04  0.18720984607E+04  0.10000000000E+01 0.  0.
    9000005    1    3    3    0    0  0.12512546174E+01 -0.44802216262E+02 -0.33301320199E+03  0.33601725688E+03  0.10000000000E+01 0.  0.
<mgrwt>
<rscale>  0 0.12499977E+03</rscale>
<asrwt>0</asrwt>
<pdfrwt beam="1">  1        4 0.27237948E-03 0.12499977E+03</pdfrwt>
<pdfrwt beam="2">  1       -4 0.33943553E+00 0.12499977E+03</pdfrwt>
<totfact> 0.73838155E+02</totfact>
</mgrwt>
</event>
<event>
 5    1  0.3257199E-002  0.1249984E+03  0.7818608E-02  0.1235072E+00
          4   -1    0    0  501    0  0.00000000000E+00  0.00000000000E+00  0.25425651945E+03  0.25425969123E+03  0.12700000000E+01 0.  1.
         -4   -1    0    0    0  501 -0.00000000000E+00 -0.00000000000E+00 -0.15333519444E+02  0.15386023480E+02  0.12700000000E+01 0.  1.
         25    2    1    2    0    0  0.00000000000E+00  0.00000000000E+00  0.23892300001E+03  0.26964571471E+03  0.12499844610E+03 0.  0.
    9000005    1    3    3    0    0 -0.10887105245E+02 -0.59646920570E+02  0.86826614112E+02  0.10590630346E+03  0.10000000000E+01 0.  0.
    9000005    1    3    3    0    0  0.10887105245E+02  0.59646920570E+02  0.15209638589E+03  0.16373941125E+03  0.10000000000E+01 0.  0.
<mgrwt>
<rscale>  0 0.12499845E+03</rscale>
<asrwt>0</asrwt>
<pdfrwt beam="1">  1        4 0.39120666E-01 0.12499845E+03</pdfrwt>
<pdfrwt beam="2">  1       -4 0.23632860E-02 0.12499845E+03</pdfrwt>
<totfact> 0.79573946E+03</totfact>
</mgrwt>
</event>
<event>
 5    1  0.3257199E-002  0.1249989E+03  0.7818608E-02  0.1235071E+00
         -4   -1    0    0    0  501 -0.00000000000E+00  0.00000000000E+00  0.50326510865E+03  0.50326671109E+03  0.12700000000E+01 0. -1.
          4   -1    0    0  501    0  0.00000000000E+00 -0.00000000000E+00 -0.77080990620E+01  0.78120222189E+01  0.12700000000E+01 0. -1.
         25    2    1    2    0    0  0.00000000000E+00  0.00000000000E+00  0.49555700959E+03  0.51107873330E+03  0.12499888752E+03 0.  0.
    9000005    1    3    3    0    0 -0.61959444517E+02  0.27064327802E+01  0.27915297190E+03  0.28596097507E+03  0.10000000000E+01 0.  0.
    9000005    1    3    3    0    0  0.61959444517E+02 -0.27064327802E+01  0.21640403769E+03  0.22511775824E+03  0.10000000000E+01 0.  0.
<mgrwt>
<rscale>  0 0.12499889E+03</rscale>
<asrwt>0</asrwt>
<pdfrwt beam="2">  1        4 0.11939787E-02 0.12499889E+03</pdfrwt>
<pdfrwt beam="1">  1       -4 0.77433520E-01 0.12499889E+03</pdfrwt>
<totfact> 0.55016267E+03</totfact>
</mgrwt>
</event>
<event>
 4    1  0.3257199E-002  0.1252908E+03  0.7818608E-02  0.1234615E+00
          4   -1    0    0  501    0  0.00000000000E+00  0.00000000000E+00  0.45613947020E+03  0.45614123819E+03  0.12700000000E+01 0.  1.
         -4   -1    0    0    0  501 -0.00000000000E+00 -0.00000000000E+00 -0.85549535520E+01  0.86487068558E+01  0.12700000000E+01 0.  1.
    9000005    1    1    2    0    0 -0.49532106042E+02  0.37551428032E+02  0.19507891362E+03  0.20474452817E+03  0.10000000000E+01 0.  0.
    9000005    1    1    2    0    0  0.49532106042E+02 -0.37551428032E+02  0.25250560303E+03  0.26004541687E+03  0.10000000000E+01 0.  0.
<mgrwt>
<rscale>  0 0.12529084E+03</rscale>
<asrwt>0</asrwt>
<pdfrwt beam="1">  1        4 0.70182649E-01 0.12529084E+03</pdfrwt>
<pdfrwt beam="2">  1       -4 0.13234945E-02 0.12529084E+03</pdfrwt>
<totfact> 0.58329340E+03</totfact>
</mgrwt>
</event>
<event>
 5    1  0.3257199E-002  0.1249998E+03  0.7818608E-02  0.1235070E+00
         -4   -1    0    0    0  501 -0.00000000000E+00  0.00000000000E+00  0.82789073059E+01  0.83757510815E+01  0.12700000000E+01 0.  1.
          4   -1    0    0  501    0  0.00000000000E+00 -0.00000000000E+00 -0.46898908079E+03  0.46899080034E+03  0.12700000000E+01 0.  1.
         25    2    1    2    0    0  0.00000000000E+00  0.00000000000E+00 -0.46071017349E+03  0.47736655142E+03  0.12499984184E+03 0.  0.
    9000005    1    3    3    0    0  0.17467473073E+01  0.61335474386E+02 -0.27556533154E+03  0.28231603478E+03  0.10000000000E+01 0.  0.
    9000005    1    3    3    0    0 -0.17467473073E+01 -0.61335474386E+02 -0.18514484194E+03  0.19505051664E+03  0.10000000000E+01 0.  0.
<mgrwt>
<rscale>  0 0.12499984E+03</rscale>
<asrwt>0</asrwt>
<pdfrwt beam="2">  1        4 0.72159728E-01 0.12499984E+03</pdfrwt>
<pdfrwt beam="1">  1       -4 0.12812602E-02 0.12499984E+03</pdfrwt>
<totfact> 0.57664435E+03</totfact>
</mgrwt>
</event>
<event>
 5    1  0.3257199E-002  0.1250013E+03  0.7818608E-02  0.1235067E+00
         -4   -1    0    0    0  501 -0.00000000000E+00  0.00000000000E+00  0.19934596737E+03  0.19935001281E+03  0.12700000000E+01 0.  1.
          4   -1    0    0  501    0  0.00000000000E+00 -0.00000000000E+00 -0.19570919306E+02  0.19612082563E+02  0.12700000000E+01 0.  1.
         25    2    1    2    0    0  0.00000000000E+00  0.00000000000E+00  0.17977504807E+03  0.21896209537E+03  0.12500132521E+03 0.  0.
    9000005    1    3    3    0    0  0.56559611519E+02 -0.14232003233E+02  0.12920453534E+03  0.14176160102E+03  0.10000000000E+01 0.  0.
    9000005    1    3    3    0    0 -0.56559611519E+02  0.14232003233E+02  0.50570512730E+02  0.77200494357E+02  0.10000000000E+01 0.  0.
<mgrwt>
<rscale>  0 0.12500133E+03</rscale>
<asrwt>0</asrwt>
<pdfrwt beam="2">  1        4 0.30143885E-02 0.12500133E+03</pdfrwt>
<pdfrwt beam="1">  1       -4 0.30672086E-01 0.12500133E+03</pdfrwt>
<totfact> 0.87030276E+03</totfact>
</mgrwt>
</event>
<event>
 5    1  0.3257199E-002  0.1249989E+03  0.7818608E-02  0.1235071E+00
         -4   -1    0    0    0  501 -0.00000000000E+00  0.00000000000E+00  0.45489490030E+02  0.45507214848E+02  0.12700000000E+01 0. -1.
          4   -1    0    0  501    0  0.00000000000E+00 -0.00000000000E+00 -0.85830804669E+02  0.85840199966E+02  0.12700000000E+01 0. -1.
         25    2    1    2    0    0  0.00000000000E+00  0.00000000000E+00 -0.40341314639E+02  0.13134741481E+03  0.12499888684E+03 0.  0.
    9000005    1    3    3    0    0  0.39598213099E+02 -0.46215129541E+02 -0.35080150756E+02  0.70252926318E+02  0.10000000000E+01 0.  0.
    9000005    1    3    3    0    0 -0.39598213099E+02  0.46215129541E+02 -0.52611638828E+01  0.61094488496E+02  0.10000000000E+01 0.  0.
<mgrwt>
<rscale>  0 0.12499889E+03</rscale>
<asrwt>0</asrwt>
<pdfrwt beam="2">  1        4 0.13206825E-01 0.12499889E+03</pdfrwt>
<pdfrwt beam="1">  1       -4 0.70004693E-02 0.12499889E+03</pdfrwt>
<totfact> 0.10315906E+04</totfact>
</mgrwt>
</event>
<event>
 5    1  0.3257199E-002  0.1250088E+03  0.7818608E-02  0.1235056E+00
          4   -1    0    0  501    0  0.00000000000E+00  0.00000000000E+00  0.85320739104E+01  0.86260758872E+01  0.12700000000E+01 0.  1.
         -4   -1    0    0    0  501 -0.00000000000E+00 -0.00000000000E+00 -0.45529196139E+03  0.45529373267E+03  0.12700000000E+01 0.  1.
         25    2    1    2    0    0  0.00000000000E+00  0.00000000000E+00 -0.44675988748E+03  0.46391980856E+03  0.12500876653E+03 0.  0.
    9000005    1    3    3    0    0  0.50384347295E+02  0.14806161479E+02 -0.97640342911E+02  0.11087128318E+03  0.10000000000E+01 0.  0.
    9000005    1    3    3    0    0 -0.50384347295E+02 -0.14806161479E+02 -0.34911954457E+03  0.35304852538E+03  0.10000000000E+01 0.  0.
<mgrwt>
<rscale>  0 0.12500877E+03</rscale>
<asrwt>0</asrwt>
<pdfrwt beam="1">  1        4 0.13199943E-02 0.12500877E+03</pdfrwt>
<pdfrwt beam="2">  1       -4 0.70052265E-01 0.12500877E+03</pdfrwt>
<totfact> 0.58765275E+03</totfact>
</mgrwt>
</event>
<event>
 4    1  0.3257199E-002  0.1251266E+03  0.7818608E-02  0.1234872E+00
         -4   -1    0    0    0  501 -0.00000000000E+00  0.00000000000E+00  0.16064340651E+04  0.16064345671E+04  0.12700000000E+01 0.  1.
          4   -1    0    0  501    0  0.00000000000E+00 -0.00000000000E+00 -0.22705286874E+01  0.26015765452E+01  0.12700000000E+01 0.  1.
    9000005    1    1    2    0    0 -0.23047128250E+02  0.55975594889E+02  0.59927694162E+03  0.60232739445E+03  0.10000000000E+01 0.  0.
    9000005    1    1    2    0    0  0.23047128250E+02 -0.55975594889E+02  0.10048865948E+04  0.10067087492E+04  0.10000000000E+01 0.  0.
<mgrwt>
<rscale>  0 0.12512658E+03</rscale>
<asrwt>0</asrwt>
<pdfrwt beam="2">  1        4 0.37481552E-03 0.12512658E+03</pdfrwt>
<pdfrwt beam="1">  1       -4 0.24716948E+00 0.12512658E+03</pdfrwt>
<totfact> 0.15839515E+03</totfact>
</mgrwt>
</event>
<event>
 5    1  0.3257199E-002  0.1249989E+03  0.7818608E-02  0.1235071E+00
          4   -1    0    0  501    0  0.00000000000E+00  0.00000000000E+00  0.21772807904E+03  0.21773178294E+03  0.12700000000E+01 0.  1.
         -4   -1    0    0    0  501 -0.00000000000E+00 -0.00000000000E+00 -0.17914309122E+02  0.17959269788E+02  0.12700000000E+01 0.  1.
         25    2    1    2    0    0  0.00000000000E+00  0.00000000000E+00  0.19981376992E+03  0.23569105273E+03  0.12499891875E+03 0.  0.
    9000005    1    3    3    0    0  0.55803907529E+02 -0.18438333691E+02  0.59858066788E+02  0.83893005694E+02  0.10000000000E+01 0.  0.
    9000005    1    3    3    0    0 -0.55803907529E+02  0.18438333691E+02  0.13995570313E+03  0.15179804704E+03  0.10000000000E+01 0.  0.
<mgrwt>
<rscale>  0 0.12499892E+03</rscale>
<asrwt>0</asrwt>
<pdfrwt beam="1">  1        4 0.33500373E-01 0.12499892E+03</pdfrwt>
<pdfrwt beam="2">  1       -4 0.27597908E-02 0.12499892E+03</pdfrwt>
<totfact> 0.84445357E+03</totfact>
</mgrwt>
</event>
<event>
 5    1  0.3257199E-002  0.1249992E+03  0.7818608E-02  0.1235070E+00
          4   -1    0    0  501    0  0.00000000000E+00  0.00000000000E+00  0.18509445827E+03  0.18509881518E+03  0.12700000000E+01 0.  1.
         -4   -1    0    0    0  501 -0.00000000000E+00 -0.00000000000E+00 -0.21080113050E+02  0.21118334834E+02  0.12700000000E+01 0.  1.
         25    2    1    2    0    0  0.00000000000E+00  0.00000000000E+00  0.16401434522E+03  0.20621715002E+03  0.12499923009E+03 0.  0.
    9000005    1    3    3    0    0 -0.35276678042E+02 -0.25664660867E+02  0.81898163916E+01  0.44398107208E+02  0.10000000000E+01 0.  0.
    9000005    1    3    3    0    0  0.35276678042E+02  0.25664660867E+02  0.15582452883E+03  0.16181904281E+03  0.10000000000E+01 0.  0.
<mgrwt>
<rscale>  0 0.12499923E+03</rscale>
<asrwt>0</asrwt>
<pdfrwt beam="1">  1        4 0.28479345E-01 0.12499923E+03</pdfrwt>
<pdfrwt beam="2">  1       -4 0.32463697E-02 0.12499923E+03</pdfrwt>
<totfact> 0.89098955E+03</totfact>
</mgrwt>
</event>
<event>
 5    1  0.3257199E-002  0.1249997E+03  0.7818608E-02  0.1235070E+00
         -4   -1    0    0    0  501 -0.00000000000E+00  0.00000000000E+00  0.60070110325E+03  0.60070244577E+03  0.12700000000E+01 0.  1.
          4   -1    0    0  501    0  0.00000000000E+00 -0.00000000000E+00 -0.64394151983E+01  0.65634570232E+01  0.12700000000E+01 0.  1.
         25    2    1    2    0    0  0.00000000000E+00  0.00000000000E+00  0.59426168805E+03  0.60726590279E+03  0.12499969120E+03 0.  0.
    9000005    1    3    3    0    0  0.28921325536E+02  0.53323003324E+02  0.37007495044E+03  0.37501500597E+03  0.10000000000E+01 0.  0.
    9000005    1    3    3    0    0 -0.28921325536E+02 -0.53323003324E+02  0.22418673761E+03  0.23225089682E+03  0.10000000000E+01 0.  0.
<mgrwt>
<rscale>  0 0.12499969E+03</rscale>
<asrwt>0</asrwt>
<pdfrwt beam="2">  1        4 0.10003243E-02 0.12499969E+03</pdfrwt>
<pdfrwt beam="1">  1       -4 0.92425191E-01 0.12499969E+03</pdfrwt>
<totfact> 0.48412485E+03</totfact>
</mgrwt>
</event>
<event>
 5    1  0.3257199E-002  0.1249970E+03  0.7818608E-02  0.1235074E+00
         -4   -1    0    0    0  501 -0.00000000000E+00  0.00000000000E+00  0.58482187899E+02  0.58495975942E+02  0.12700000000E+01 0. -1.
          4   -1    0    0  501    0  0.00000000000E+00 -0.00000000000E+00 -0.66762899902E+02  0.66774978123E+02  0.12700000000E+01 0. -1.
         25    2    1    2    0    0  0.00000000000E+00  0.00000000000E+00 -0.82807120032E+01  0.12527095406E+03  0.12499696693E+03 0.  0.
    9000005    1    3    3    0    0  0.39662177416E+02  0.38508431995E+01  0.44101870136E+02  0.59446549607E+02  0.10000000000E+01 0.  0.
    9000005    1    3    3    0    0 -0.39662177416E+02 -0.38508431995E+01 -0.52382582139E+02  0.65824404458E+02  0.10000000000E+01 0.  0.
<mgrwt>
<rscale>  0 0.12499697E+03</rscale>
<asrwt>0</asrwt>
<pdfrwt beam="2">  1        4 0.10273205E-01 0.12499697E+03</pdfrwt>
<pdfrwt beam="1">  1       -4 0.89992494E-02 0.12499697E+03</pdfrwt>
<totfact> 0.10447696E+04</totfact>
</mgrwt>
</event>
<event>
 5    1  0.3257199E-002  0.1249988E+03  0.7818608E-02  0.1235071E+00
         -4   -1    0    0    0  501 -0.00000000000E+00  0.00000000000E+00  0.57749572800E+03  0.57749712446E+03  0.12700000000E+01 0. -1.
          4   -1    0    0  501    0  0.00000000000E+00 -0.00000000000E+00 -0.67029558301E+01  0.68222076236E+01  0.12700000000E+01 0. -1.
         25    2    1    2    0    0  0.00000000000E+00  0.00000000000E+00  0.57079277217E+03  0.58431933209E+03  0.12499877233E+03 0.  0.
    9000005    1    3    3    0    0 -0.26288995569E+02  0.55650743836E+02  0.33597217124E+03  0.34156465922E+03  0.10000000000E+01 0.  0.
    9000005    1    3    3    0    0  0.26288995569E+02 -0.55650743836E+02  0.23482060093E+03  0.24275467287E+03  0.10000000000E+01 0.  0.
<mgrwt>
<rscale>  0 0.12499877E+03</rscale>
<asrwt>0</asrwt>
<pdfrwt beam="2">  1        4 0.10405047E-02 0.12499877E+03</pdfrwt>
<pdfrwt beam="1">  1       -4 0.88854770E-01 0.12499877E+03</pdfrwt>
<totfact> 0.49873964E+03</totfact>
</mgrwt>
</event>
<event>
 5    1  0.3257199E-002  0.1249829E+03  0.7818608E-02  0.1235096E+00
          4   -1    0    0  501    0  0.00000000000E+00  0.00000000000E+00  0.50581492495E+01  0.52151484955E+01  0.12700000000E+01 0. -1.
         -4   -1    0    0    0  501 -0.00000000000E+00 -0.00000000000E+00 -0.76010061186E+03  0.76010167283E+03  0.12700000000E+01 0. -1.
         25    2    1    2    0    0  0.00000000000E+00  0.00000000000E+00 -0.75504246261E+03  0.76531682133E+03  0.12498286550E+03 0.  0.
    9000005    1    3    3    0    0 -0.95668083110E+01 -0.55731661265E+02 -0.54029673726E+03  0.54324865962E+03  0.10000000000E+01 0.  0.
    9000005    1    3    3    0    0  0.95668083110E+01  0.55731661265E+02 -0.21474572535E+03  0.22206816170E+03  0.10000000000E+01 0.  0.
<mgrwt>
<rscale>  0 0.12498287E+03</rscale>
<asrwt>0</asrwt>
<pdfrwt beam="1">  1        4 0.79033589E-03 0.12498287E+03</pdfrwt>
<pdfrwt beam="2">  1       -4 0.11695063E+00 0.12498287E+03</pdfrwt>
<totfact> 0.39866985E+03</totfact>
</mgrwt>
</event>
<event>
 5    1  0.3257199E-002  0.1250007E+03  0.7818608E-02  0.1235068E+00
         -4   -1    0    0    0  501 -0.00000000000E+00  0.00000000000E+00  0.32324643813E+01  0.34729995647E+01  0.12700000000E+01 0. -1.
          4   -1    0    0  501    0  0.00000000000E+00 -0.00000000000E+00 -0.11648668717E+04  0.11648675640E+04  0.12700000000E+01 0. -1.
         25    2    1    2    0    0  0.00000000000E+00  0.00000000000E+00 -0.11616344073E+04  0.11683405635E+04  0.12500070491E+03 0.  0.
    9000005    1    3    3    0    0 -0.55152171125E+02  0.14325483320E+02 -0.34100400683E+03  0.34573358837E+03  0.10000000000E+01 0.  0.
    9000005    1    3    3    0    0  0.55152171125E+02 -0.14325483320E+02 -0.82063040045E+03  0.82260697517E+03  0.10000000000E+01 0.  0.
<mgrwt>
<rscale>  0 0.12500070E+03</rscale>
<asrwt>0</asrwt>
<pdfrwt beam="2">  1        4 0.17922852E+00 0.12500070E+03</pdfrwt>
<pdfrwt beam="1">  1       -4 0.51585911E-03 0.12500070E+03</pdfrwt>
<totfact> 0.25556459E+03</totfact>
</mgrwt>
</event>
<event>
 5    1  0.3257199E-002  0.1250017E+03  0.7818608E-02  0.1235067E+00
          4   -1    0    0  501    0  0.00000000000E+00  0.00000000000E+00  0.54603463139E+01  0.56060932803E+01  0.12700000000E+01 0. -1.
         -4   -1    0    0    0  501 -0.00000000000E+00 -0.00000000000E+00 -0.70583575241E+03  0.70583689496E+03  0.12700000000E+01 0. -1.
         25    2    1    2    0    0  0.00000000000E+00  0.00000000000E+00 -0.70037540610E+03  0.71144298824E+03  0.12500166417E+03 0.  0.
    9000005    1    3    3    0    0 -0.20395831517E+02  0.55128852550E+02 -0.22943013429E+03  0.23684249375E+03  0.10000000000E+01 0.  0.
    9000005    1    3    3    0    0  0.20395831517E+02 -0.55128852550E+02 -0.47094527181E+03  0.47460049449E+03  0.10000000000E+01 0.  0.
<mgrwt>
<rscale>  0 0.12500166E+03</rscale>
<asrwt>0</asrwt>
<pdfrwt beam="1">  1        4 0.85135303E-03 0.12500166E+03</pdfrwt>
<pdfrwt beam="2">  1       -4 0.10860134E+00 0.12500166E+03</pdfrwt>
<totfact> 0.42487960E+03</totfact>
</mgrwt>
</event>
<event>
 5    1  0.3257199E-002  0.1249981E+03  0.7818608E-02  0.1235072E+00
         -4   -1    0    0    0  501 -0.00000000000E+00  0.00000000000E+00  0.48498970238E+02  0.48515595576E+02  0.12700000000E+01 0. -1.
          4   -1    0    0  501    0  0.00000000000E+00 -0.00000000000E+00 -0.80505105802E+02  0.80515122555E+02  0.12700000000E+01 0. -1.
         25    2    1    2    0    0  0.00000000000E+00  0.00000000000E+00 -0.32006135564E+02  0.12903071813E+03  0.12499813402E+03 0.  0.
    9000005    1    3    3    0    0 -0.54982152757E+02  0.14485541946E+02 -0.42767617522E+02  0.71154319305E+02  0.10000000000E+01 0.  0.
    9000005    1    3    3    0    0  0.54982152757E+02 -0.14485541946E+02  0.10761481958E+02  0.57876398827E+02  0.10000000000E+01 0.  0.
<mgrwt>
<rscale>  0 0.12499813E+03</rscale>
<asrwt>0</asrwt>
<pdfrwt beam="2">  1        4 0.12387450E-01 0.12499813E+03</pdfrwt>
<pdfrwt beam="1">  1       -4 0.74634294E-02 0.12499813E+03</pdfrwt>
<totfact> 0.10365723E+04</totfact>
</mgrwt>
</event>
<event>
 5    1  0.3257199E-002  0.1249988E+03  0.7818608E-02  0.1235071E+00
          4   -1    0    0  501    0  0.00000000000E+00  0.00000000000E+00  0.74313544361E+02  0.74324395561E+02  0.12700000000E+01 0.  1.
         -4   -1    0    0    0  501 -0.00000000000E+00 -0.00000000000E+00 -0.52541037637E+02  0.52556384350E+02  0.12700000000E+01 0.  1.
         25    2    1    2    0    0  0.00000000000E+00  0.00000000000E+00  0.21772506724E+02  0.12688077991E+03  0.12499876104E+03 0.  0.
    9000005    1    3    3    0    0  0.53173062988E+02  0.19422389390E+02 -0.15980519572E+02  0.58830101504E+02  0.10000000000E+01 0.  0.
    9000005    1    3    3    0    0 -0.53173062988E+02 -0.19422389390E+02  0.37753026296E+02  0.68050678407E+02  0.10000000000E+01 0.  0.
<mgrwt>
<rscale>  0 0.12499876E+03</rscale>
<asrwt>0</asrwt>
<pdfrwt beam="1">  1        4 0.11434868E-01 0.12499876E+03</pdfrwt>
<pdfrwt beam="2">  1       -4 0.80852518E-02 0.12499876E+03</pdfrwt>
<totfact> 0.10412028E+04</totfact>
</mgrwt>
</event>
<event>
 5    1  0.3257199E-002  0.1249950E+03  0.7818608E-02  0.1235077E+00
         -4   -1    0    0    0  501 -0.00000000000E+00  0.00000000000E+00  0.42580067073E+01  0.44433682179E+01  0.12700000000E+01 0. -1.
          4   -1    0    0  501    0  0.00000000000E+00 -0.00000000000E+00 -0.89758960281E+03  0.89759050127E+03  0.12700000000E+01 0. -1.
         25    2    1    2    0    0  0.00000000000E+00  0.00000000000E+00 -0.89333159610E+03  0.90203386949E+03  0.12499504434E+03 0.  0.
    9000005    1    3    3    0    0 -0.32426086311E+02 -0.90107632400E+01 -0.82663622602E+03  0.82732163944E+03  0.10000000000E+01 0.  0.
    9000005    1    3    3    0    0  0.32426086311E+02  0.90107632400E+01 -0.66695370086E+02  0.74712230047E+02  0.10000000000E+01 0.  0.
<mgrwt>
<rscale>  0 0.12499504E+03</rscale>
<asrwt>0</asrwt>
<pdfrwt beam="2">  1        4 0.13810489E+00 0.12499504E+03</pdfrwt>
<pdfrwt beam="1">  1       -4 0.66940636E-03 0.12499504E+03</pdfrwt>
<totfact> 0.34085879E+03</totfact>
</mgrwt>
</event>
<event>
 5    1  0.3257199E-002  0.1249981E+03  0.7818608E-02  0.1235072E+00
          4   -1    0    0  501    0  0.00000000000E+00  0.00000000000E+00  0.37606300300E+02  0.37627738734E+02  0.12700000000E+01 0.  1.
         -4   -1    0    0    0  501 -0.00000000000E+00 -0.00000000000E+00 -0.10381411800E+03  0.10382188592E+03  0.12700000000E+01 0.  1.
         25    2    1    2    0    0  0.00000000000E+00  0.00000000000E+00 -0.66207817703E+02  0.14144962466E+03  0.12499808475E+03 0.  0.
    9000005    1    3    3    0    0 -0.43250208350E+02  0.31933796217E+02 -0.69152219027E+02  0.87597815381E+02  0.10000000000E+01 0.  0.
    9000005    1    3    3    0    0  0.43250208350E+02 -0.31933796217E+02  0.29444013239E+01  0.53851809276E+02  0.10000000000E+01 0.  0.
<mgrwt>
<rscale>  0 0.12499808E+03</rscale>
<asrwt>0</asrwt>
<pdfrwt beam="1">  1        4 0.57878314E-02 0.12499808E+03</pdfrwt>
<pdfrwt beam="2">  1       -4 0.15973649E-01 0.12499808E+03</pdfrwt>
<totfact> 0.10104065E+04</totfact>
</mgrwt>
</event>
<event>
 5    1  0.3257199E-002  0.1250008E+03  0.7818608E-02  0.1235068E+00
          4   -1    0    0  501    0  0.00000000000E+00  0.00000000000E+00  0.25811697946E+02  0.25842922645E+02  0.12700000000E+01 0. -1.
         -4   -1    0    0    0  501 -0.00000000000E+00 -0.00000000000E+00 -0.15121290574E+03  0.15121823886E+03  0.12700000000E+01 0. -1.
         25    2    1    2    0    0  0.00000000000E+00  0.00000000000E+00 -0.12540120780E+03  0.17706116150E+03  0.12500076798E+03 0.  0.
    9000005    1    3    3    0    0 -0.12115190810E+02  0.12885581607E+02  0.22199441835E+02  0.28401254893E+02  0.10000000000E+01 0.  0.
    9000005    1    3    3    0    0  0.12115190810E+02 -0.12885581607E+02 -0.14760064963E+03  0.14865990661E+03  0.10000000000E+01 0.  0.
<mgrwt>
<rscale>  0 0.12500077E+03</rscale>
<asrwt>0</asrwt>
<pdfrwt beam="1">  1        4 0.39738427E-02 0.12500077E+03</pdfrwt>
<pdfrwt beam="2">  1       -4 0.23266336E-01 0.12500077E+03</pdfrwt>
<totfact> 0.94147073E+03</totfact>
</mgrwt>
</event>
<event>
 5    1  0.3257199E-002  0.1249995E+03  0.7818608E-02  0.1235070E+00
         -4   -1    0    0    0  501 -0.00000000000E+00  0.00000000000E+00  0.83526592659E+02  0.83536247110E+02  0.12700000000E+01 0. -1.
          4   -1    0    0  501    0  0.00000000000E+00 -0.00000000000E+00 -0.46745217329E+02  0.46762466179E+02  0.12700000000E+01 0. -1.
         25    2    1    2    0    0  0.00000000000E+00  0.00000000000E+00  0.36781375330E+02  0.13029871329E+03  0.12499954045E+03 0.  0.
    9000005    1    3    3    0    0  0.42297133540E+02  0.30972521041E+02  0.53845504841E+02  0.75157720541E+02  0.10000000000E+01 0.  0.
    9000005    1    3    3    0    0 -0.42297133540E+02 -0.30972521041E+02 -0.17064129511E+02  0.55140992748E+02  0.10000000000E+01 0.  0.
<mgrwt>
<rscale>  0 0.12499954E+03</rscale>
<asrwt>0</asrwt>
<pdfrwt beam="2">  1        4 0.71936414E-02 0.12499954E+03</pdfrwt>
<pdfrwt beam="1">  1       -4 0.12852314E-01 0.12499954E+03</pdfrwt>
<totfact> 0.10338229E+04</totfact>
</mgrwt>
</event>
<event>
 5    1  0.3257199E-002  0.1250010E+03  0.7818608E-02  0.1235068E+00
         -4   -1    0    0    0  501 -0.00000000000E+00  0.00000000000E+00  0.52658686972E+02  0.52673999408E+02  0.12700000000E+01 0. -1.
          4   -1    0    0  501    0  0.00000000000E+00 -0.00000000000E+00 -0.74150245491E+02  0.74161120585E+02  0.12700000000E+01 0. -1.
         25    2    1    2    0    0  0.00000000000E+00  0.00000000000E+00 -0.21491558519E+02  0.12683511999E+03  0.12500104230E+03 0.  0.
    9000005    1    3    3    0    0 -0.64198864957E+01 -0.29047428321E+02  0.45018272041E+02  0.53968628408E+02  0.10000000000E+01 0.  0.
    9000005    1    3    3    0    0  0.64198864957E+01  0.29047428321E+02 -0.66509830560E+02  0.72866491584E+02  0.10000000000E+01 0.  0.
<mgrwt>
<rscale>  0 0.12500104E+03</rscale>
<asrwt>0</asrwt>
<pdfrwt beam="2">  1        4 0.11409745E-01 0.12500104E+03</pdfrwt>
<pdfrwt beam="1">  1       -4 0.81033508E-02 0.12500104E+03</pdfrwt>
<totfact> 0.10412485E+04</totfact>
</mgrwt>
</event>
<event>
 5    1  0.3257199E-002  0.1250046E+03  0.7818608E-02  0.1235062E+00
         -4   -1    0    0    0  501 -0.00000000000E+00  0.00000000000E+00  0.30939254288E+02  0.30965308910E+02  0.12700000000E+01 0. -1.
          4   -1    0    0  501    0  0.00000000000E+00 -0.00000000000E+00 -0.12618245333E+03  0.12618884431E+03  0.12700000000E+01 0. -1.
         25    2    1    2    0    0  0.00000000000E+00  0.00000000000E+00 -0.95243199037E+02  0.15715415322E+03  0.12500464355E+03 0.  0.
    9000005    1    3    3    0    0 -0.15208089766E+02  0.57516468847E+02 -0.71676609366E+02  0.93155603767E+02  0.10000000000E+01 0.  0.
    9000005    1    3    3    0    0  0.15208089766E+02 -0.57516468847E+02 -0.23566589671E+02  0.63998549449E+02  0.10000000000E+01 0.  0.
<mgrwt>
<rscale>  0 0.12500464E+03</rscale>
<asrwt>0</asrwt>
<pdfrwt beam="2">  1        4 0.19415181E-01 0.12500464E+03</pdfrwt>
<pdfrwt beam="1">  1       -4 0.47623811E-02 0.12500464E+03</pdfrwt>
<totfact> 0.97884044E+03</totfact>
</mgrwt>
</event>
<event>
 5    1  0.3257199E-002  0.1249939E+03  0.7818608E-02  0.1235079E+00
          4   -1    0    0  501    0  0.00000000000E+00  0.00000000000E+00  0.53305778736E+03  0.53305930024E+03  0.12700000000E+01 0. -1.
         -4   -1    0    0    0  501 -0.00000000000E+00 -0.00000000000E+00 -0.72707209013E+01  0.73808049984E+01  0.12700000000E+01 0. -1.
         25    2    1    2    0    0  0.00000000000E+00  0.00000000000E+00  0.52578706646E+03  0.54044010523E+03  0.12499387220E+03 0.  0.
    9000005    1    3    3    0    0 -0.38682115903E+02 -0.48646692220E+02  0.29093462129E+03  0.29750085818E+03  0.10000000000E+01 0.  0.
    9000005    1    3    3    0    0  0.38682115903E+02  0.48646692220E+02  0.23485244517E+03  0.24293924705E+03  0.10000000000E+01 0.  0.
<mgrwt>
<rscale>  0 0.12499387E+03</rscale>
<asrwt>0</asrwt>
<pdfrwt beam="1">  1        4 0.82017479E-01 0.12499387E+03</pdfrwt>
<pdfrwt beam="2">  1       -4 0.11271568E-02 0.12499387E+03</pdfrwt>
<totfact> 0.52864895E+03</totfact>
</mgrwt>
</event>
<event>
 5    1  0.3257199E-002  0.1249997E+03  0.7818608E-02  0.1235070E+00
         -4   -1    0    0    0  501 -0.00000000000E+00  0.00000000000E+00  0.87377915378E+01  0.88296036693E+01  0.12700000000E+01 0. -1.
          4   -1    0    0  501    0  0.00000000000E+00 -0.00000000000E+00 -0.44462133357E+03  0.44462314736E+03  0.12700000000E+01 0. -1.
         25    2    1    2    0    0  0.00000000000E+00  0.00000000000E+00 -0.43588354204E+03  0.45345275103E+03  0.12499974080E+03 0.  0.
    9000005    1    3    3    0    0 -0.55396630999E+02  0.27702549427E+02 -0.18780496084E+03  0.19775722815E+03  0.10000000000E+01 0.  0.
    9000005    1    3    3    0    0  0.55396630999E+02 -0.27702549427E+02 -0.24807858120E+03  0.25569552288E+03  0.10000000000E+01 0.  0.
<mgrwt>
<rscale>  0 0.12499974E+03</rscale>
<asrwt>0</asrwt>
<pdfrwt beam="2">  1        4 0.68410467E-01 0.12499974E+03</pdfrwt>
<pdfrwt beam="1">  1       -4 0.13514780E-02 0.12499974E+03</pdfrwt>
<totfact> 0.59666194E+03</totfact>
</mgrwt>
</event>
<event>
 5    1  0.3257199E-002  0.1249997E+03  0.7818608E-02  0.1235070E+00
          4   -1    0    0  501    0  0.00000000000E+00  0.00000000000E+00  0.32922216179E+02  0.32946702690E+02  0.12700000000E+01 0.  1.
         -4   -1    0    0    0  501 -0.00000000000E+00 -0.00000000000E+00 -0.11857828423E+03  0.11858508503E+03  0.12700000000E+01 0.  1.
         25    2    1    2    0    0  0.00000000000E+00  0.00000000000E+00 -0.85656068054E+02  0.15153178772E+03  0.12499968278E+03 0.  0.
    9000005    1    3    3    0    0 -0.32728223077E+01  0.61888011028E+02 -0.33100252137E+02  0.70267090208E+02  0.10000000000E+01 0.  0.
    9000005    1    3    3    0    0  0.32728223077E+01 -0.61888011028E+02 -0.52555815917E+02  0.81264697511E+02  0.10000000000E+01 0.  0.
<mgrwt>
<rscale>  0 0.12499968E+03</rscale>
<asrwt>0</asrwt>
<pdfrwt beam="1">  1        4 0.50673631E-02 0.12499968E+03</pdfrwt>
<pdfrwt beam="2">  1       -4 0.18245219E-01 0.12499968E+03</pdfrwt>
<totfact> 0.98999938E+03</totfact>
</mgrwt>
</event>
<event>
 5    1  0.3257199E-002  0.1249997E+03  0.7818608E-02  0.1235070E+00
         -4   -1    0    0    0  501 -0.00000000000E+00  0.00000000000E+00  0.37022372734E+02  0.37044149104E+02  0.12700000000E+01 0. -1.
          4   -1    0    0  501    0  0.00000000000E+00 -0.00000000000E+00 -0.10545337785E+03  0.10546102503E+03  0.12700000000E+01 0. -1.
         25    2    1    2    0    0  0.00000000000E+00  0.00000000000E+00 -0.68431005115E+02  0.14250517413E+03  0.12499968877E+03 0.  0.
    9000005    1    3    3    0    0 -0.34408776310E+02  0.47648432790E+02 -0.58423490561E+02  0.82877266387E+02  0.10000000000E+01 0.  0.
    9000005    1    3    3    0    0  0.34408776310E+02 -0.47648432790E+02 -0.10007514555E+02  0.59627907745E+02  0.10000000000E+01 0.  0.
<mgrwt>
<rscale>  0 0.12499969E+03</rscale>
<asrwt>0</asrwt>
<pdfrwt beam="2">  1        4 0.16225860E-01 0.12499969E+03</pdfrwt>
<pdfrwt beam="1">  1       -4 0.56980130E-02 0.12499969E+03</pdfrwt>
<totfact> 0.10081997E+04</totfact>
</mgrwt>
</event>
<event>
 5    1  0.3257199E-002  0.1249990E+03  0.7818608E-02  0.1235071E+00
          4   -1    0    0  501    0  0.00000000000E+00  0.00000000000E+00  0.11138646600E+02  0.11210813890E+02  0.12700000000E+01 0. -1.
         -4   -1    0    0    0  501 -0.00000000000E+00 -0.00000000000E+00 -0.34948187459E+03  0.34948418214E+03  0.12700000000E+01 0. -1.
         25    2    1    2    0    0  0.00000000000E+00  0.00000000000E+00 -0.33834322799E+03  0.36069499603E+03  0.12499896094E+03 0.  0.
    9000005    1    3    3    0    0 -0.53599556149E+02 -0.29052318977E+02 -0.20876151055E+03  0.21748406365E+03  0.10000000000E+01 0.  0.
    9000005    1    3    3    0    0  0.53599556149E+02  0.29052318977E+02 -0.12958171745E+03  0.14321093238E+03  0.10000000000E+01 0.  0.
<mgrwt>
<rscale>  0 0.12499896E+03</rscale>
<asrwt>0</asrwt>
<pdfrwt beam="1">  1        4 0.17193670E-02 0.12499896E+03</pdfrwt>
<pdfrwt beam="2">  1       -4 0.53772163E-01 0.12499896E+03</pdfrwt>
<totfact> 0.68565362E+03</totfact>
</mgrwt>
</event>
<event>
 5    1  0.3257199E-002  0.1249969E+03  0.7818608E-02  0.1235074E+00
          4   -1    0    0  501    0  0.00000000000E+00  0.00000000000E+00  0.80825252705E+03  0.80825352482E+03  0.12700000000E+01 0. -1.
         -4   -1    0    0    0  501 -0.00000000000E+00 -0.00000000000E+00 -0.47482633024E+01  0.49151708403E+01  0.12700000000E+01 0. -1.
         25    2    1    2    0    0  0.00000000000E+00  0.00000000000E+00  0.80350426375E+03  0.81316869566E+03  0.12499690292E+03 0.  0.
    9000005    1    3    3    0    0 -0.45822107589E+02  0.37268043799E+02  0.26898809270E+03  0.27539819652E+03  0.10000000000E+01 0.  0.
    9000005    1    3    3    0    0  0.45822107589E+02 -0.37268043799E+02  0.53451617105E+03  0.53777049914E+03  0.10000000000E+01 0.  0.
<mgrwt>
<rscale>  0 0.12499690E+03</rscale>
<asrwt>0</asrwt>
<pdfrwt beam="1">  1        4 0.12435952E+00 0.12499690E+03</pdfrwt>
<pdfrwt beam="2">  1       -4 0.74341749E-03 0.12499690E+03</pdfrwt>
<totfact> 0.37686093E+03</totfact>
</mgrwt>
</event>
<event>
 5    1  0.3257199E-002  0.1249834E+03  0.7818608E-02  0.1235095E+00
          4   -1    0    0  501    0  0.00000000000E+00  0.00000000000E+00  0.33978271814E+03  0.33978509156E+03  0.12700000000E+01 0.  1.
         -4   -1    0    0    0  501 -0.00000000000E+00 -0.00000000000E+00 -0.11455751621E+02  0.11525933593E+02  0.12700000000E+01 0.  1.
         25    2    1    2    0    0  0.00000000000E+00  0.00000000000E+00  0.32832696651E+03  0.35131102515E+03  0.12498335669E+03 0.  0.
    9000005    1    3    3    0    0  0.62045243876E+02 -0.18030524809E+01  0.14402181947E+03  0.15683159047E+03  0.10000000000E+01 0.  0.
    9000005    1    3    3    0    0 -0.62045243876E+02  0.18030524809E+01  0.18430514704E+03  0.19447943468E+03  0.10000000000E+01 0.  0.
<mgrwt>
<rscale>  0 0.12498336E+03</rscale>
<asrwt>0</asrwt>
<pdfrwt beam="1">  1        4 0.52279842E-01 0.12498336E+03</pdfrwt>
<pdfrwt beam="2">  1       -4 0.17680046E-02 0.12498336E+03</pdfrwt>
<totfact> 0.69606200E+03</totfact>
</mgrwt>
</event>
<event>
 5    1  0.3257199E-002  0.1249994E+03  0.7818608E-02  0.1235070E+00
         -4   -1    0    0    0  501 -0.00000000000E+00  0.00000000000E+00  0.17935747775E+03  0.17936197402E+03  0.12700000000E+01 0.  1.
          4   -1    0    0  501    0  0.00000000000E+00 -0.00000000000E+00 -0.21755637690E+02  0.21792674717E+02  0.12700000000E+01 0.  1.
         25    2    1    2    0    0  0.00000000000E+00  0.00000000000E+00  0.15760184006E+03  0.20115464874E+03  0.12499941087E+03 0.  0.
    9000005    1    3    3    0    0  0.56070750654E+02 -0.17576618744E+02  0.44574792807E+02  0.73761634738E+02  0.10000000000E+01 0.  0.
    9000005    1    3    3    0    0 -0.56070750654E+02  0.17576618744E+02  0.11302704725E+03  0.12739301400E+03  0.10000000000E+01 0.  0.
<mgrwt>
<rscale>  0 0.12499941E+03</rscale>
<asrwt>0</asrwt>
<pdfrwt beam="2">  1        4 0.33502159E-02 0.12499941E+03</pdfrwt>
<pdfrwt beam="1">  1       -4 0.27596654E-01 0.12499941E+03</pdfrwt>
<totfact> 0.89942314E+03</totfact>
</mgrwt>
</event>
<event>
 5    1  0.3257199E-002  0.1249788E+03  0.7818608E-02  0.1235102E+00
          4   -1    0    0  501    0  0.00000000000E+00  0.00000000000E+00  0.45288368104E+02  0.45306171605E+02  0.12700000000E+01 0. -1.
         -4   -1    0    0    0  501 -0.00000000000E+00 -0.00000000000E+00 -0.86184193008E+02  0.86193549784E+02  0.12700000000E+01 0. -1.
         25    2    1    2    0    0  0.00000000000E+00  0.00000000000E+00 -0.40895824904E+02  0.13149972139E+03  0.12497883113E+03 0.  0.
    9000005    1    3    3    0    0  0.16282541647E+02 -0.57569646340E+02 -0.39402905864E+02  0.71644778824E+02  0.10000000000E+01 0.  0.
    9000005    1    3    3    0    0 -0.16282541647E+02  0.57569646340E+02 -0.14929190401E+01  0.59854942565E+02  0.10000000000E+01 0.  0.
<mgrwt>
<rscale>  0 0.12497883E+03</rscale>
<asrwt>0</asrwt>
<pdfrwt beam="1">  1        4 0.69695305E-02 0.12497883E+03</pdfrwt>
<pdfrwt beam="2">  1       -4 0.13261196E-01 0.12497883E+03</pdfrwt>
<totfact> 0.10317314E+04</totfact>
</mgrwt>
</event>
<event>
 5    1  0.3257199E-002  0.1250026E+03  0.7818608E-02  0.1235065E+00
          4   -1    0    0  501    0  0.00000000000E+00  0.00000000000E+00  0.16382791052E+02  0.16431942754E+02  0.12700000000E+01 0. -1.
         -4   -1    0    0    0  501 -0.00000000000E+00 -0.00000000000E+00 -0.23803792328E+03  0.23804131116E+03  0.12700000000E+01 0. -1.
         25    2    1    2    0    0  0.00000000000E+00  0.00000000000E+00 -0.22165513222E+03  0.25447325391E+03  0.12500255723E+03 0.  0.
    9000005    1    3    3    0    0  0.60722319593E+02 -0.51583882432E+01 -0.13900632508E+03  0.15178131465E+03  0.10000000000E+01 0.  0.
    9000005    1    3    3    0    0 -0.60722319593E+02  0.51583882432E+01 -0.82648807146E+02  0.10269193926E+03  0.10000000000E+01 0.  0.
<mgrwt>
<rscale>  0 0.12500256E+03</rscale>
<asrwt>0</asrwt>
<pdfrwt beam="1">  1        4 0.25244711E-02 0.12500256E+03</pdfrwt>
<pdfrwt beam="2">  1       -4 0.36625258E-01 0.12500256E+03</pdfrwt>
<totfact> 0.81683321E+03</totfact>
</mgrwt>
</event>
<event>
 5    1  0.3257199E-002  0.1250010E+03  0.7818608E-02  0.1235068E+00
          4   -1    0    0  501    0  0.00000000000E+00  0.00000000000E+00  0.13021944506E+03  0.13022563792E+03  0.12700000000E+01 0.  1.
         -4   -1    0    0    0  501 -0.00000000000E+00 -0.00000000000E+00 -0.29977579493E+02  0.30004469205E+02  0.12700000000E+01 0.  1.
         25    2    1    2    0    0  0.00000000000E+00  0.00000000000E+00  0.10024186557E+03  0.16023010713E+03  0.12500102247E+03 0.  0.
    9000005    1    3    3    0    0 -0.42159729814E+02  0.45907480102E+02  0.44335011600E+02  0.76495312281E+02  0.10000000000E+01 0.  0.
    9000005    1    3    3    0    0  0.42159729814E+02 -0.45907480102E+02  0.55906853972E+02  0.83734794849E+02  0.10000000000E+01 0.  0.
<mgrwt>
<rscale>  0 0.12500102E+03</rscale>
<asrwt>0</asrwt>
<pdfrwt beam="1">  1        4 0.20036306E-01 0.12500102E+03</pdfrwt>
<pdfrwt beam="2">  1       -4 0.46144801E-02 0.12500102E+03</pdfrwt>
<totfact> 0.97296204E+03</totfact>
</mgrwt>
</event>
<event>
 5    1  0.3257199E-002  0.1249944E+03  0.7818608E-02  0.1235078E+00
          4   -1    0    0  501    0  0.00000000000E+00  0.00000000000E+00  0.92732802468E+02  0.92741498552E+02  0.12700000000E+01 0. -1.
         -4   -1    0    0    0  501 -0.00000000000E+00 -0.00000000000E+00 -0.42099680878E+02  0.42118832249E+02  0.12700000000E+01 0. -1.
         25    2    1    2    0    0  0.00000000000E+00  0.00000000000E+00  0.50633121590E+02  0.13486033080E+03  0.12499438316E+03 0.  0.
    9000005    1    3    3    0    0  0.81269450572E+01  0.53712463939E+01 -0.41280688618E+02  0.42426321742E+02  0.10000000000E+01 0.  0.
    9000005    1    3    3    0    0 -0.81269450572E+01 -0.53712463939E+01  0.91913810208E+02  0.92434009059E+02  0.10000000000E+01 0.  0.
<mgrwt>
<rscale>  0 0.12499438E+03</rscale>
<asrwt>0</asrwt>
<pdfrwt beam="1">  1        4 0.14268727E-01 0.12499438E+03</pdfrwt>
<pdfrwt beam="2">  1       -4 0.64790161E-02 0.12499438E+03</pdfrwt>
<totfact> 0.10242313E+04</totfact>
</mgrwt>
</event>
<event>
 5    1  0.3257199E-002  0.1249973E+03  0.7818608E-02  0.1235074E+00
         -4   -1    0    0    0  501 -0.00000000000E+00  0.00000000000E+00  0.14253466490E+02  0.14309933856E+02  0.12700000000E+01 0.  1.
          4   -1    0    0  501    0  0.00000000000E+00 -0.00000000000E+00 -0.27344456235E+03  0.27344751156E+03  0.12700000000E+01 0.  1.
         25    2    1    2    0    0  0.00000000000E+00  0.00000000000E+00 -0.25919109586E+03  0.28775744541E+03  0.12499729285E+03 0.  0.
    9000005    1    3    3    0    0 -0.32387184810E+02 -0.95932784763E+01 -0.85623761624E+01  0.34860794847E+02  0.10000000000E+01 0.  0.
    9000005    1    3    3    0    0  0.32387184810E+02  0.95932784763E+01 -0.25062871969E+03  0.25289665057E+03  0.10000000000E+01 0.  0.
<mgrwt>
<rscale>  0 0.12499729E+03</rscale>
<asrwt>0</asrwt>
<pdfrwt beam="2">  1        4 0.42072961E-01 0.12499729E+03</pdfrwt>
<pdfrwt beam="1">  1       -4 0.21974117E-02 0.12499729E+03</pdfrwt>
<totfact> 0.77165283E+03</totfact>
</mgrwt>
</event>
<event>
 5    1  0.3257199E-002  0.1250155E+03  0.7818608E-02  0.1235045E+00
         -4   -1    0    0    0  501 -0.00000000000E+00  0.00000000000E+00  0.14469052355E+03  0.14469609706E+03  0.12700000000E+01 0. -1.
          4   -1    0    0  501    0  0.00000000000E+00 -0.00000000000E+00 -0.26982949249E+02  0.27012820108E+02  0.12700000000E+01 0. -1.
         25    2    1    2    0    0  0.00000000000E+00  0.00000000000E+00  0.11770757430E+03  0.17170891717E+03  0.12501551579E+03 0.  0.
    9000005    1    3    3    0    0  0.37464226196E+01  0.41309216840E+02 -0.53598780137E+01  0.41835575420E+02  0.10000000000E+01 0.  0.
    9000005    1    3    3    0    0 -0.37464226196E+01 -0.41309216840E+02  0.12306745231E+03  0.12987334175E+03  0.10000000000E+01 0.  0.
<mgrwt>
<rscale>  0 0.12501552E+03</rscale>
<asrwt>0</asrwt>
<pdfrwt beam="2">  1        4 0.41539494E-02 0.12501552E+03</pdfrwt>
<pdfrwt beam="1">  1       -4 0.22262807E-01 0.12501552E+03</pdfrwt>
<totfact> 0.95097957E+03</totfact>
</mgrwt>
</event>
<event>
 5    1  0.3257199E-002  0.1249998E+03  0.7818608E-02  0.1235070E+00
         -4   -1    0    0    0  501 -0.00000000000E+00  0.00000000000E+00  0.25715999929E+03  0.25716313525E+03  0.12700000000E+01 0.  1.
          4   -1    0    0  501    0  0.00000000000E+00 -0.00000000000E+00 -0.15160120559E+02  0.15213223044E+02  0.12700000000E+01 0.  1.
         25    2    1    2    0    0  0.00000000000E+00  0.00000000000E+00  0.24199987873E+03  0.27237635830E+03  0.12499975702E+03 0.  0.
    9000005    1    3    3    0    0  0.26442013547E+02  0.52151955701E+02  0.16904849467E+03  0.17887817115E+03  0.10000000000E+01 0.  0.
    9000005    1    3    3    0    0 -0.26442013547E+02 -0.52151955701E+02  0.72951384059E+02  0.93498187148E+02  0.10000000000E+01 0.  0.
<mgrwt>
<rscale>  0 0.12499976E+03</rscale>
<asrwt>0</asrwt>
<pdfrwt beam="2">  1        4 0.23366523E-02 0.12499976E+03</pdfrwt>
<pdfrwt beam="1">  1       -4 0.39567402E-01 0.12499976E+03</pdfrwt>
<totfact> 0.79200354E+03</totfact>
</mgrwt>
</event>
<event>
 5    1  0.3257199E-002  0.1250010E+03  0.7818608E-02  0.1235068E+00
         -4   -1    0    0    0  501 -0.00000000000E+00  0.00000000000E+00  0.42625959767E+02  0.42644874793E+02  0.12700000000E+01 0. -1.
          4   -1    0    0  501    0  0.00000000000E+00 -0.00000000000E+00 -0.91597941228E+02  0.91606745042E+02  0.12700000000E+01 0. -1.
         25    2    1    2    0    0  0.00000000000E+00  0.00000000000E+00 -0.48971981461E+02  0.13425161984E+03  0.12500096984E+03 0.  0.
    9000005    1    3    3    0    0 -0.51010218414E+02  0.11288373712E+02  0.12342203432E+02  0.53691710247E+02  0.10000000000E+01 0.  0.
    9000005    1    3    3    0    0  0.51010218414E+02 -0.11288373712E+02 -0.61314184893E+02  0.80559909588E+02  0.10000000000E+01 0.  0.
<mgrwt>
<rscale>  0 0.12500097E+03</rscale>
<asrwt>0</asrwt>
<pdfrwt beam="2">  1        4 0.14094123E-01 0.12500097E+03</pdfrwt>
<pdfrwt beam="1">  1       -4 0.65599722E-02 0.12500097E+03</pdfrwt>
<totfact> 0.10253645E+04</totfact>
</mgrwt>
</event>
<event>
 5    1  0.3257199E-002  0.1249987E+03  0.7818608E-02  0.1235071E+00
         -4   -1    0    0    0  501 -0.00000000000E+00  0.00000000000E+00  0.70178281985E+02  0.70189772491E+02  0.12700000000E+01 0. -1.
          4   -1    0    0  501    0  0.00000000000E+00 -0.00000000000E+00 -0.55637311625E+02  0.55651804507E+02  0.12700000000E+01 0. -1.
         25    2    1    2    0    0  0.00000000000E+00  0.00000000000E+00  0.14540970360E+02  0.12584157700E+03  0.12499865072E+03 0.  0.
    9000005    1    3    3    0    0 -0.10604785026E+02 -0.59093073128E+02  0.24728500334E+02  0.64938058840E+02  0.10000000000E+01 0.  0.
    9000005    1    3    3    0    0  0.10604785026E+02  0.59093073128E+02 -0.10187529974E+02  0.60903518159E+02  0.10000000000E+01 0.  0.
<mgrwt>
<rscale>  0 0.12499865E+03</rscale>
<asrwt>0</asrwt>
<pdfrwt beam="2">  1        4 0.85615851E-02 0.12499865E+03</pdfrwt>
<pdfrwt beam="1">  1       -4 0.10798658E-01 0.12499865E+03</pdfrwt>
<totfact> 0.10434750E+04</totfact>
</mgrwt>
</event>
<event>
 5    1  0.3257199E-002  0.1250065E+03  0.7818608E-02  0.1235059E+00
          4   -1    0    0  501    0  0.00000000000E+00  0.00000000000E+00  0.17697604107E+04  0.17697608664E+04  0.12700000000E+01 0. -1.
         -4   -1    0    0    0  501 -0.00000000000E+00 -0.00000000000E+00 -0.20242882835E+01  0.23896951803E+01  0.12700000000E+01 0. -1.
         25    2    1    2    0    0  0.00000000000E+00  0.00000000000E+00  0.17677361224E+04  0.17721505616E+04  0.12500645725E+03 0.  0.
    9000005    1    3    3    0    0  0.18756809093E+02  0.19198102254E+02  0.83773722030E+02  0.87973982065E+02  0.10000000000E+01 0.  0.
    9000005    1    3    3    0    0 -0.18756809093E+02 -0.19198102254E+02  0.16839624004E+04  0.16841765795E+04  0.10000000000E+01 0.  0.
<mgrwt>
<rscale>  0 0.12500646E+03</rscale>
<asrwt>0</asrwt>
<pdfrwt beam="1">  1        4 0.27229839E+00 0.12500646E+03</pdfrwt>
<pdfrwt beam="2">  1       -4 0.33957297E-03 0.12500646E+03</pdfrwt>
<totfact> 0.13135673E+03</totfact>
</mgrwt>
</event>
<event>
 5    1  0.3257199E-002  0.1249981E+03  0.7818608E-02  0.1235072E+00
         -4   -1    0    0    0  501 -0.00000000000E+00  0.00000000000E+00  0.77730232045E+02  0.77740606338E+02  0.12700000000E+01 0.  1.
          4   -1    0    0  501    0  0.00000000000E+00 -0.00000000000E+00 -0.50230644558E+02  0.50246696933E+02  0.12700000000E+01 0.  1.
         25    2    1    2    0    0  0.00000000000E+00  0.00000000000E+00  0.27499587487E+02  0.12798730327E+03  0.12499808993E+03 0.  0.
    9000005    1    3    3    0    0 -0.17573514142E+02 -0.55969370591E+01  0.74885065707E+02  0.77129288663E+02  0.10000000000E+01 0.  0.
    9000005    1    3    3    0    0  0.17573514142E+02  0.55969370591E+01 -0.47385478220E+02  0.50858014608E+02  0.10000000000E+01 0.  0.
<mgrwt>
<rscale>  0 0.12499809E+03</rscale>
<asrwt>0</asrwt>
<pdfrwt beam="2">  1        4 0.77298243E-02 0.12499809E+03</pdfrwt>
<pdfrwt beam="1">  1       -4 0.11960530E-01 0.12499809E+03</pdfrwt>
<totfact> 0.10388210E+04</totfact>
</mgrwt>
</event>
<event>
 5    1  0.3257199E-002  0.1250025E+03  0.7818608E-02  0.1235065E+00
         -4   -1    0    0    0  501 -0.00000000000E+00  0.00000000000E+00  0.28262129413E+01  0.30984479324E+01  0.12700000000E+01 0.  1.
          4   -1    0    0  501    0  0.00000000000E+00 -0.00000000000E+00 -0.13184201500E+04  0.13184207617E+04  0.12700000000E+01 0.  1.
         25    2    1    2    0    0  0.00000000000E+00  0.00000000000E+00 -0.13155939371E+04  0.13215192096E+04  0.12500245656E+03 0.  0.
    9000005    1    3    3    0    0 -0.42481966806E+02 -0.45645897101E+02 -0.61403101407E+03  0.61718988299E+03  0.10000000000E+01 0.  0.
    9000005    1    3    3    0    0  0.42481966806E+02  0.45645897101E+02 -0.70156292299E+03  0.70432932662E+03  0.10000000000E+01 0.  0.
<mgrwt>
<rscale>  0 0.12500246E+03</rscale>
<asrwt>0</asrwt>
<pdfrwt beam="2">  1        4 0.20285439E+00 0.12500246E+03</pdfrwt>
<pdfrwt beam="1">  1       -4 0.45579125E-03 0.12500246E+03</pdfrwt>
<totfact> 0.21725164E+03</totfact>
</mgrwt>
</event>
<event>
 5    1  0.3257199E-002  0.1250011E+03  0.7818608E-02  0.1235068E+00
         -4   -1    0    0    0  501 -0.00000000000E+00  0.00000000000E+00  0.13455412263E+02  0.13515214359E+02  0.12700000000E+01 0. -1.
          4   -1    0    0  501    0  0.00000000000E+00 -0.00000000000E+00 -0.28961096446E+03  0.28961374905E+03  0.12700000000E+01 0. -1.
         25    2    1    2    0    0  0.00000000000E+00  0.00000000000E+00 -0.27615555220E+03  0.30312896340E+03  0.12500111777E+03 0.  0.
    9000005    1    3    3    0    0 -0.51156157393E+02  0.35335962828E+02 -0.12279114056E+03  0.13763810122E+03  0.10000000000E+01 0.  0.
    9000005    1    3    3    0    0  0.51156157393E+02 -0.35335962828E+02 -0.15336441164E+03  0.16549086218E+03  0.10000000000E+01 0.  0.
<mgrwt>
<rscale>  0 0.12500112E+03</rscale>
<asrwt>0</asrwt>
<pdfrwt beam="2">  1        4 0.44560343E-01 0.12500112E+03</pdfrwt>
<pdfrwt beam="1">  1       -4 0.20748780E-02 0.12500112E+03</pdfrwt>
<totfact> 0.75206152E+03</totfact>
</mgrwt>
</event>
<event>
 5    1  0.3257199E-002  0.1250009E+03  0.7818608E-02  0.1235068E+00
         -4   -1    0    0    0  501 -0.00000000000E+00  0.00000000000E+00  0.17414690983E+02  0.17460938177E+02  0.12700000000E+01 0. -1.
          4   -1    0    0  501    0  0.00000000000E+00 -0.00000000000E+00 -0.22396556122E+03  0.22396916196E+03  0.12700000000E+01 0. -1.
         25    2    1    2    0    0  0.00000000000E+00  0.00000000000E+00 -0.20655087023E+03  0.24143010014E+03  0.12500092504E+03 0.  0.
    9000005    1    3    3    0    0  0.18076878249E+02  0.33359587817E+02 -0.73694179204E+01  0.38664505002E+02  0.10000000000E+01 0.  0.
    9000005    1    3    3    0    0 -0.18076878249E+02 -0.33359587817E+02 -0.19918145231E+03  0.20276559514E+03  0.10000000000E+01 0.  0.
<mgrwt>
<rscale>  0 0.12500093E+03</rscale>
<asrwt>0</asrwt>
<pdfrwt beam="2">  1        4 0.34460073E-01 0.12500093E+03</pdfrwt>
<pdfrwt beam="1">  1       -4 0.26830178E-02 0.12500093E+03</pdfrwt>
<totfact> 0.83583117E+03</totfact>
</mgrwt>
</event>
<event>
 5    1  0.3257199E-002  0.1250045E+03  0.7818608E-02  0.1235062E+00
          4   -1    0    0  501    0  0.00000000000E+00  0.00000000000E+00  0.86521563960E+02  0.86530884256E+02  0.12700000000E+01 0.  1.
         -4   -1    0    0    0  501 -0.00000000000E+00 -0.00000000000E+00 -0.45130247125E+02  0.45148112979E+02  0.12700000000E+01 0.  1.
         25    2    1    2    0    0  0.00000000000E+00  0.00000000000E+00  0.41391316835E+02  0.13167899723E+03  0.12500446873E+03 0.  0.
    9000005    1    3    3    0    0  0.16476737407E+02  0.48957672316E+02 -0.16356170879E+02  0.54192812070E+02  0.10000000000E+01 0.  0.
    9000005    1    3    3    0    0 -0.16476737407E+02 -0.48957672316E+02  0.57747487713E+02  0.77486185165E+02  0.10000000000E+01 0.  0.
<mgrwt>
<rscale>  0 0.12500447E+03</rscale>
<asrwt>0</asrwt>
<pdfrwt beam="1">  1        4 0.13313101E-01 0.12500447E+03</pdfrwt>
<pdfrwt beam="2">  1       -4 0.69452063E-02 0.12500447E+03</pdfrwt>
<totfact> 0.10307516E+04</totfact>
</mgrwt>
</event>
<event>
 5    1  0.3257199E-002  0.1250004E+03  0.7818608E-02  0.1235069E+00
         -4   -1    0    0    0  501 -0.00000000000E+00  0.00000000000E+00  0.26598370005E+02  0.26628672272E+02  0.12700000000E+01 0. -1.
          4   -1    0    0  501    0  0.00000000000E+00 -0.00000000000E+00 -0.14674470542E+03  0.14675020092E+03  0.12700000000E+01 0. -1.
         25    2    1    2    0    0  0.00000000000E+00  0.00000000000E+00 -0.12014633542E+03  0.17337887319E+03  0.12500036702E+03 0.  0.
    9000005    1    3    3    0    0  0.43425183580E+02  0.44800416497E+02 -0.55179291089E+02  0.83298127544E+02  0.10000000000E+01 0.  0.
    9000005    1    3    3    0    0 -0.43425183580E+02 -0.44800416497E+02 -0.64967044328E+02  0.90080745645E+02  0.10000000000E+01 0.  0.
<mgrwt>
<rscale>  0 0.12500037E+03</rscale>
<asrwt>0</asrwt>
<pdfrwt beam="2">  1        4 0.22578862E-01 0.12500037E+03</pdfrwt>
<pdfrwt beam="1">  1       -4 0.40948107E-02 0.12500037E+03</pdfrwt>
<totfact> 0.94821807E+03</totfact>
</mgrwt>
</event>
<event>
 5    1  0.3257199E-002  0.1250002E+03  0.7818608E-02  0.1235069E+00
         -4   -1    0    0    0  501 -0.00000000000E+00  0.00000000000E+00  0.20267894941E+02  0.20307645490E+02  0.12700000000E+01 0. -1.
          4   -1    0    0  501    0  0.00000000000E+00 -0.00000000000E+00 -0.19250096814E+03  0.19250515742E+03  0.12700000000E+01 0. -1.
         25    2    1    2    0    0  0.00000000000E+00  0.00000000000E+00 -0.17223307320E+03  0.21281280291E+03  0.12500023032E+03 0.  0.
    9000005    1    3    3    0    0 -0.61511399881E+01  0.43329957727E+02 -0.16206294093E+03  0.16787113683E+03  0.10000000000E+01 0.  0.
    9000005    1    3    3    0    0  0.61511399881E+01 -0.43329957727E+02 -0.10170132273E+02  0.44941666082E+02  0.10000000000E+01 0.  0.
<mgrwt>
<rscale>  0 0.12500023E+03</rscale>
<asrwt>0</asrwt>
<pdfrwt beam="2">  1        4 0.29618912E-01 0.12500023E+03</pdfrwt>
<pdfrwt beam="1">  1       -4 0.31215178E-02 0.12500023E+03</pdfrwt>
<totfact> 0.88018111E+03</totfact>
</mgrwt>
</event>
<event>
 5    1  0.3257199E-002  0.1249929E+03  0.7818608E-02  0.1235080E+00
          4   -1    0    0  501    0  0.00000000000E+00  0.00000000000E+00  0.51240550390E+02  0.51256286486E+02  0.12700000000E+01 0.  1.
         -4   -1    0    0    0  501 -0.00000000000E+00 -0.00000000000E+00 -0.76192142717E+02  0.76202726407E+02  0.12700000000E+01 0.  1.
         25    2    1    2    0    0  0.00000000000E+00  0.00000000000E+00 -0.24951592327E+02  0.12745901289E+03  0.12499287183E+03 0.  0.
    9000005    1    3    3    0    0 -0.10652566922E+02  0.49728214817E+02 -0.49502424534E+02  0.70977901953E+02  0.10000000000E+01 0.  0.
    9000005    1    3    3    0    0  0.10652566922E+02 -0.49728214817E+02  0.24550832207E+02  0.56481110940E+02  0.10000000000E+01 0.  0.
<mgrwt>
<rscale>  0 0.12499287E+03</rscale>
<asrwt>0</asrwt>
<pdfrwt beam="1">  1        4 0.78851863E-02 0.12499287E+03</pdfrwt>
<pdfrwt beam="2">  1       -4 0.11723893E-01 0.12499287E+03</pdfrwt>
<totfact> 0.10400862E+04</totfact>
</mgrwt>
</event>
<event>
 5    1  0.3257199E-002  0.1250042E+03  0.7818608E-02  0.1235063E+00
          4   -1    0    0  501    0  0.00000000000E+00  0.00000000000E+00  0.22241177294E+02  0.22277407107E+02  0.12700000000E+01 0. -1.
         -4   -1    0    0    0  501 -0.00000000000E+00 -0.00000000000E+00 -0.17546174288E+03  0.17546633898E+03  0.12700000000E+01 0. -1.
         25    2    1    2    0    0  0.00000000000E+00  0.00000000000E+00 -0.15322056559E+03  0.19774374609E+03  0.12500418952E+03 0.  0.
    9000005    1    3    3    0    0  0.20749900571E+02 -0.32383684572E+02  0.13091895629E+01  0.38496433308E+02  0.10000000000E+01 0.  0.
    9000005    1    3    3    0    0 -0.20749900571E+02  0.32383684572E+02 -0.15452975515E+03  0.15924731278E+03  0.10000000000E+01 0.  0.
<mgrwt>
<rscale>  0 0.12500419E+03</rscale>
<asrwt>0</asrwt>
<pdfrwt beam="1">  1        4 0.34248601E-02 0.12500419E+03</pdfrwt>
<pdfrwt beam="2">  1       -4 0.26997254E-01 0.12500419E+03</pdfrwt>
<totfact> 0.90508625E+03</totfact>
</mgrwt>
</event>
<event>
 5    1  0.3257199E-002  0.1249913E+03  0.7818608E-02  0.1235083E+00
         -4   -1    0    0    0  501 -0.00000000000E+00  0.00000000000E+00  0.57185366718E+03  0.57185507742E+03  0.12700000000E+01 0.  1.
          4   -1    0    0  501    0  0.00000000000E+00 -0.00000000000E+00 -0.67694413422E+01  0.68875420932E+01  0.12700000000E+01 0.  1.
         25    2    1    2    0    0  0.00000000000E+00  0.00000000000E+00  0.56508422584E+03  0.57874261951E+03  0.12499134909E+03 0.  0.
    9000005    1    3    3    0    0  0.46606657158E+02 -0.36437996542E+02  0.37570145961E+03  0.38033208494E+03  0.10000000000E+01 0.  0.
    9000005    1    3    3    0    0 -0.46606657158E+02  0.36437996542E+02  0.18938276623E+03  0.19841053457E+03  0.10000000000E+01 0.  0.
<mgrwt>
<rscale>  0 0.12499135E+03</rscale>
<asrwt>0</asrwt>
<pdfrwt beam="2">  1        4 0.10506459E-02 0.12499135E+03</pdfrwt>
<pdfrwt beam="1">  1       -4 0.87986658E-01 0.12499135E+03</pdfrwt>
<totfact> 0.50247076E+03</totfact>
</mgrwt>
</event>
<event>
 5    1  0.3257199E-002  0.1249975E+03  0.7818608E-02  0.1235073E+00
         -4   -1    0    0    0  501 -0.00000000000E+00  0.00000000000E+00  0.71119844326E+02  0.71131182733E+02  0.12700000000E+01 0. -1.
          4   -1    0    0  501    0  0.00000000000E+00 -0.00000000000E+00 -0.54899631426E+02  0.54914318996E+02  0.12700000000E+01 0. -1.
         25    2    1    2    0    0  0.00000000000E+00  0.00000000000E+00  0.16220212900E+02  0.12604550173E+03  0.12499749277E+03 0.  0.
    9000005    1    3    3    0    0 -0.18614355717E+02 -0.49378036156E+02  0.41863253192E+02  0.67366287275E+02  0.10000000000E+01 0.  0.
    9000005    1    3    3    0    0  0.18614355717E+02  0.49378036156E+02 -0.25643040292E+02  0.58679214453E+02  0.10000000000E+01 0.  0.
<mgrwt>
<rscale>  0 0.12499749E+03</rscale>
<asrwt>0</asrwt>
<pdfrwt beam="2">  1        4 0.84480991E-02 0.12499749E+03</pdfrwt>
<pdfrwt beam="1">  1       -4 0.10943517E-01 0.12499749E+03</pdfrwt>
<totfact> 0.10430550E+04</totfact>
</mgrwt>
</event>
<event>
 5    1  0.3257199E-002  0.1249968E+03  0.7818608E-02  0.1235074E+00
         -4   -1    0    0    0  501 -0.00000000000E+00  0.00000000000E+00  0.68816166985E+02  0.68827884891E+02  0.12700000000E+01 0. -1.
          4   -1    0    0  501    0  0.00000000000E+00 -0.00000000000E+00 -0.56736986299E+02  0.56751198351E+02  0.12700000000E+01 0. -1.
         25    2    1    2    0    0  0.00000000000E+00  0.00000000000E+00  0.12079180686E+02  0.12557908324E+03  0.12499679813E+03 0.  0.
    9000005    1    3    3    0    0  0.41459959874E+01 -0.58404938089E+02 -0.15896127002E+02  0.60679592365E+02  0.10000000000E+01 0.  0.
    9000005    1    3    3    0    0 -0.41459959874E+01  0.58404938089E+02  0.27975307688E+02  0.64899490877E+02  0.10000000000E+01 0.  0.
<mgrwt>
<rscale>  0 0.12499680E+03</rscale>
<asrwt>0</asrwt>
<pdfrwt beam="2">  1        4 0.87307617E-02 0.12499680E+03</pdfrwt>
<pdfrwt beam="1">  1       -4 0.10589097E-01 0.12499680E+03</pdfrwt>
<totfact> 0.10440962E+04</totfact>
</mgrwt>
</event>
<event>
 5    1  0.3257199E-002  0.1249974E+03  0.7818608E-02  0.1235073E+00
         -4   -1    0    0    0  501 -0.00000000000E+00  0.00000000000E+00  0.23815463833E+02  0.23849302245E+02  0.12700000000E+01 0. -1.
          4   -1    0    0  501    0  0.00000000000E+00 -0.00000000000E+00 -0.16386192215E+03  0.16386684360E+03  0.12700000000E+01 0. -1.
         25    2    1    2    0    0  0.00000000000E+00  0.00000000000E+00 -0.14004645832E+03  0.18771614584E+03  0.12499736366E+03 0.  0.
    9000005    1    3    3    0    0 -0.41122670286E+02  0.22846867548E+01 -0.14060265634E+03  0.14651416578E+03  0.10000000000E+01 0.  0.
    9000005    1    3    3    0    0  0.41122670286E+02 -0.22846867548E+01  0.55619801974E+00  0.41201980064E+02  0.10000000000E+01 0.  0.
<mgrwt>
<rscale>  0 0.12499736E+03</rscale>
<asrwt>0</asrwt>
<pdfrwt beam="2">  1        4 0.25212507E-01 0.12499736E+03</pdfrwt>
<pdfrwt beam="1">  1       -4 0.36668991E-02 0.12499736E+03</pdfrwt>
<totfact> 0.92251672E+03</totfact>
</mgrwt>
</event>
<event>
 5    1  0.3257199E-002  0.1250007E+03  0.7818608E-02  0.1235068E+00
          4   -1    0    0  501    0  0.00000000000E+00  0.00000000000E+00  0.23861715059E+03  0.23862053025E+03  0.12700000000E+01 0. -1.
         -4   -1    0    0    0  501 -0.00000000000E+00 -0.00000000000E+00 -0.16342427545E+02  0.16391700279E+02  0.12700000000E+01 0. -1.
         25    2    1    2    0    0  0.00000000000E+00  0.00000000000E+00  0.22227472305E+03  0.25501223053E+03  0.12500074085E+03 0.  0.
    9000005    1    3    3    0    0  0.53366559527E+02 -0.21747136120E+02  0.61820901460E+02  0.84520716174E+02  0.10000000000E+01 0.  0.
    9000005    1    3    3    0    0 -0.53366559527E+02  0.21747136120E+02  0.16045382159E+03  0.17049151436E+03  0.10000000000E+01 0.  0.
<mgrwt>
<rscale>  0 0.12500074E+03</rscale>
<asrwt>0</asrwt>
<pdfrwt beam="1">  1        4 0.36714381E-01 0.12500074E+03</pdfrwt>
<pdfrwt beam="2">  1       -4 0.25182698E-02 0.12500074E+03</pdfrwt>
<totfact> 0.81609812E+03</totfact>
</mgrwt>
</event>
<event>
 5    1  0.3257199E-002  0.1249997E+03  0.7818608E-02  0.1235070E+00
          4   -1    0    0  501    0  0.00000000000E+00  0.00000000000E+00  0.22887550923E+02  0.22922759155E+02  0.12700000000E+01 0. -1.
         -4   -1    0    0    0  501 -0.00000000000E+00 -0.00000000000E+00 -0.17050193747E+03  0.17050666726E+03  0.12700000000E+01 0. -1.
         25    2    1    2    0    0  0.00000000000E+00  0.00000000000E+00 -0.14761438654E+03  0.19342942641E+03  0.12499974355E+03 0.  0.
    9000005    1    3    3    0    0  0.38727487566E+02 -0.48745377781E+02 -0.82183943571E+02  0.10310737476E+03  0.10000000000E+01 0.  0.
    9000005    1    3    3    0    0 -0.38727487566E+02  0.48745377781E+02 -0.65430442972E+02  0.90322051658E+02  0.10000000000E+01 0.  0.
<mgrwt>
<rscale>  0 0.12499974E+03</rscale>
<asrwt>0</asrwt>
<pdfrwt beam="1">  1        4 0.35242339E-02 0.12499974E+03</pdfrwt>
<pdfrwt beam="2">  1       -4 0.26234139E-01 0.12499974E+03</pdfrwt>
<totfact> 0.91254531E+03</totfact>
</mgrwt>
</event>
<event>
 5    1  0.3257199E-002  0.1250000E+03  0.7818608E-02  0.1235069E+00
         -4   -1    0    0    0  501 -0.00000000000E+00  0.00000000000E+00  0.12980851813E+03  0.12981473060E+03  0.12700000000E+01 0. -1.
          4   -1    0    0  501    0  0.00000000000E+00 -0.00000000000E+00 -0.30072076421E+02  0.30098881711E+02  0.12700000000E+01 0. -1.
         25    2    1    2    0    0  0.00000000000E+00  0.00000000000E+00  0.99736441713E+02  0.15991361231E+03  0.12500002238E+03 0.  0.
    9000005    1    3    3    0    0  0.35634846883E+02 -0.15200164899E+02 -0.12861803761E+02  0.40832748148E+02  0.10000000000E+01 0.  0.
    9000005    1    3    3    0    0 -0.35634846883E+02  0.15200164899E+02  0.11259824547E+03  0.11908086416E+03  0.10000000000E+01 0.  0.
<mgrwt>
<rscale>  0 0.12500002E+03</rscale>
<asrwt>0</asrwt>
<pdfrwt beam="2">  1        4 0.46290131E-02 0.12500002E+03</pdfrwt>
<pdfrwt beam="1">  1       -4 0.19973081E-01 0.12500002E+03</pdfrwt>
<totfact> 0.97359393E+03</totfact>
</mgrwt>
</event>
<event>
 5    1  0.3257199E-002  0.1249947E+03  0.7818608E-02  0.1235078E+00
          4   -1    0    0  501    0  0.00000000000E+00  0.00000000000E+00  0.13105326130E+02  0.13166718383E+02  0.12700000000E+01 0.  1.
         -4   -1    0    0    0  501 -0.00000000000E+00 -0.00000000000E+00 -0.29728125598E+03  0.29728396872E+03  0.12700000000E+01 0.  1.
         25    2    1    2    0    0  0.00000000000E+00  0.00000000000E+00 -0.28417592985E+03  0.31045068710E+03  0.12499467995E+03 0.  0.
    9000005    1    3    3    0    0  0.85057037916E+01 -0.23948502654E+02 -0.28387806981E+03  0.28501515100E+03  0.10000000000E+01 0.  0.
    9000005    1    3    3    0    0 -0.85057037916E+01  0.23948502654E+02 -0.29786003646E+00  0.25435536105E+02  0.10000000000E+01 0.  0.
<mgrwt>
<rscale>  0 0.12499468E+03</rscale>
<asrwt>0</asrwt>
<pdfrwt beam="1">  1        4 0.20211354E-02 0.12499468E+03</pdfrwt>
<pdfrwt beam="2">  1       -4 0.45740504E-01 0.12499468E+03</pdfrwt>
<totfact> 0.74315121E+03</totfact>
</mgrwt>
</event>
<event>
 5    1  0.3257199E-002  0.1249998E+03  0.7818608E-02  0.1235070E+00
          4   -1    0    0  501    0  0.00000000000E+00  0.00000000000E+00  0.22024288644E+03  0.22024654804E+03  0.12700000000E+01 0.  1.
         -4   -1    0    0    0  501 -0.00000000000E+00 -0.00000000000E+00 -0.17709508964E+02  0.17754988250E+02  0.12700000000E+01 0.  1.
         25    2    1    2    0    0  0.00000000000E+00  0.00000000000E+00  0.20253337747E+03  0.23800153629E+03  0.12499984915E+03 0.  0.
    9000005    1    3    3    0    0 -0.53317029561E+02 -0.42204419027E+01  0.16280857569E+03  0.17137138060E+03  0.10000000000E+01 0.  0.
    9000005    1    3    3    0    0  0.53317029561E+02  0.42204419027E+01  0.39724801780E+02  0.66630155691E+02  0.10000000000E+01 0.  0.
<mgrwt>
<rscale>  0 0.12499985E+03</rscale>
<asrwt>0</asrwt>
<pdfrwt beam="1">  1        4 0.33887301E-01 0.12499985E+03</pdfrwt>
<pdfrwt beam="2">  1       -4 0.27283199E-02 0.12499985E+03</pdfrwt>
<totfact> 0.84096188E+03</totfact>
</mgrwt>
</event>
<event>
 5    1  0.3257199E-002  0.1249987E+03  0.7818608E-02  0.1235071E+00
         -4   -1    0    0    0  501 -0.00000000000E+00  0.00000000000E+00  0.40210501853E+01  0.42168405937E+01  0.12700000000E+01 0.  1.
          4   -1    0    0  501    0  0.00000000000E+00 -0.00000000000E+00 -0.94814504506E+03  0.94814589562E+03  0.12700000000E+01 0.  1.
         25    2    1    2    0    0  0.00000000000E+00  0.00000000000E+00 -0.94412399488E+03  0.95236273621E+03  0.12499865448E+03 0.  0.
    9000005    1    3    3    0    0  0.29071124694E+02 -0.31350918600E+02 -0.12482054613E+03  0.13194384837E+03  0.10000000000E+01 0.  0.
    9000005    1    3    3    0    0 -0.29071124694E+02  0.31350918600E+02 -0.81930344875E+03  0.82041888784E+03  0.10000000000E+01 0.  0.
<mgrwt>
<rscale>  0 0.12499865E+03</rscale>
<asrwt>0</asrwt>
<pdfrwt beam="2">  1        4 0.14588342E+00 0.12499865E+03</pdfrwt>
<pdfrwt beam="1">  1       -4 0.63375009E-03 0.12499865E+03</pdfrwt>
<totfact> 0.32233216E+03</totfact>
</mgrwt>
</event>
<event>
 5    1  0.3257199E-002  0.1249977E+03  0.7818608E-02  0.1235073E+00
          4   -1    0    0  501    0  0.00000000000E+00  0.00000000000E+00  0.12624026621E+03  0.12624665426E+03  0.12700000000E+01 0.  1.
         -4   -1    0    0    0  501 -0.00000000000E+00 -0.00000000000E+00 -0.30921619058E+02  0.30947688527E+02  0.12700000000E+01 0.  1.
         25    2    1    2    0    0  0.00000000000E+00  0.00000000000E+00  0.95318647148E+02  0.15719434279E+03  0.12499766762E+03 0.  0.
    9000005    1    3    3    0    0 -0.17190633164E+02  0.60051559062E+02  0.49977027964E+02  0.80002568325E+02  0.10000000000E+01 0.  0.
    9000005    1    3    3    0    0  0.17190633164E+02 -0.60051559062E+02  0.45341619183E+02  0.77191774462E+02  0.10000000000E+01 0.  0.
<mgrwt>
<rscale>  0 0.12499767E+03</rscale>
<asrwt>0</asrwt>
<pdfrwt beam="1">  1        4 0.19424076E-01 0.12499767E+03</pdfrwt>
<pdfrwt beam="2">  1       -4 0.47596690E-02 0.12499767E+03</pdfrwt>
<totfact> 0.97891570E+03</totfact>
</mgrwt>
</event>
<event>
 5    1  0.3257199E-002  0.1250174E+03  0.7818608E-02  0.1235042E+00
         -4   -1    0    0    0  501 -0.00000000000E+00  0.00000000000E+00  0.38370242660E+01  0.40417391328E+01  0.12700000000E+01 0. -1.
          4   -1    0    0  501    0  0.00000000000E+00 -0.00000000000E+00 -0.99165990949E+03  0.99166072273E+03  0.12700000000E+01 0. -1.
         25    2    1    2    0    0  0.00000000000E+00  0.00000000000E+00 -0.98782288523E+03  0.99570246186E+03  0.12501735868E+03 0.  0.
    9000005    1    3    3    0    0  0.17143478246E+02 -0.20934980808E+02 -0.45193066290E+02  0.52683825872E+02  0.10000000000E+01 0.  0.
    9000005    1    3    3    0    0 -0.17143478246E+02  0.20934980808E+02 -0.94262981894E+03  0.94301863599E+03  0.10000000000E+01 0.  0.
<mgrwt>
<rscale>  0 0.12501736E+03</rscale>
<asrwt>0</asrwt>
<pdfrwt beam="2">  1        4 0.15257867E+00 0.12501736E+03</pdfrwt>
<pdfrwt beam="1">  1       -4 0.60612207E-03 0.12501736E+03</pdfrwt>
<totfact> 0.30735206E+03</totfact>
</mgrwt>
</event>
<event>
 5    1  0.3257199E-002  0.1250009E+03  0.7818608E-02  0.1235068E+00
         -4   -1    0    0    0  501 -0.00000000000E+00  0.00000000000E+00  0.53974810430E+02  0.53989749591E+02  0.12700000000E+01 0.  1.
          4   -1    0    0  501    0  0.00000000000E+00 -0.00000000000E+00 -0.72342229000E+02  0.72353375848E+02  0.12700000000E+01 0.  1.
         25    2    1    2    0    0  0.00000000000E+00  0.00000000000E+00 -0.18367418570E+02  0.12634312544E+03  0.12500089312E+03 0.  0.
    9000005    1    3    3    0    0  0.55614081685E+02 -0.15002190781E+02  0.15311078467E+02  0.59610577364E+02  0.10000000000E+01 0.  0.
    9000005    1    3    3    0    0 -0.55614081685E+02  0.15002190781E+02 -0.33678497038E+02  0.66732548075E+02  0.10000000000E+01 0.  0.
<mgrwt>
<rscale>  0 0.12500089E+03</rscale>
<asrwt>0</asrwt>
<pdfrwt beam="2">  1        4 0.11131580E-01 0.12500089E+03</pdfrwt>
<pdfrwt beam="1">  1       -4 0.83058236E-02 0.12500089E+03</pdfrwt>
<totfact> 0.10423241E+04</totfact>
</mgrwt>
</event>
<event>
 5    1  0.3257199E-002  0.1249995E+03  0.7818608E-02  0.1235070E+00
          4   -1    0    0  501    0  0.00000000000E+00  0.00000000000E+00  0.27025176392E+03  0.27025474798E+03  0.12700000000E+01 0. -1.
         -4   -1    0    0    0  501 -0.00000000000E+00 -0.00000000000E+00 -0.14423030011E+02  0.14478836097E+02  0.12700000000E+01 0. -1.
         25    2    1    2    0    0  0.00000000000E+00  0.00000000000E+00  0.25582873391E+03  0.28473358407E+03  0.12499949121E+03 0.  0.
    9000005    1    3    3    0    0 -0.57929677382E+02  0.43058530577E+01  0.75432617279E+02  0.95212749365E+02  0.10000000000E+01 0.  0.
    9000005    1    3    3    0    0  0.57929677382E+02 -0.43058530577E+01  0.18039611663E+03  0.18952083471E+03  0.10000000000E+01 0.  0.
<mgrwt>
<rscale>  0 0.12499949E+03</rscale>
<asrwt>0</asrwt>
<pdfrwt beam="1">  1        4 0.41581713E-01 0.12499949E+03</pdfrwt>
<pdfrwt beam="2">  1       -4 0.22234502E-02 0.12499949E+03</pdfrwt>
<totfact> 0.77555503E+03</totfact>
</mgrwt>
</event>
<event>
 5    1  0.3257199E-002  0.1250033E+03  0.7818608E-02  0.1235064E+00
         -4   -1    0    0    0  501 -0.00000000000E+00  0.00000000000E+00  0.82899645806E+01  0.83866806752E+01  0.12700000000E+01 0.  1.
          4   -1    0    0  501    0  0.00000000000E+00 -0.00000000000E+00 -0.46839672435E+03  0.46839844607E+03  0.12700000000E+01 0.  1.
         25    2    1    2    0    0  0.00000000000E+00  0.00000000000E+00 -0.46010675977E+03  0.47678512675E+03  0.12500330676E+03 0.  0.
    9000005    1    3    3    0    0  0.58190463127E+02 -0.22245432636E+02 -0.24892004482E+03  0.25659925562E+03  0.10000000000E+01 0.  0.
    9000005    1    3    3    0    0 -0.58190463127E+02  0.22245432636E+02 -0.21118671495E+03  0.22018587113E+03  0.10000000000E+01 0.  0.
<mgrwt>
<rscale>  0 0.12500331E+03</rscale>
<asrwt>0</asrwt>
<pdfrwt beam="2">  1        4 0.72068586E-01 0.12500331E+03</pdfrwt>
<pdfrwt beam="1">  1       -4 0.12829517E-02 0.12500331E+03</pdfrwt>
<totfact> 0.57707453E+03</totfact>
</mgrwt>
</event>
<event>
 5    1  0.3257199E-002  0.1249965E+03  0.7818608E-02  0.1235075E+00
         -4   -1    0    0    0  501 -0.00000000000E+00  0.00000000000E+00  0.14027250685E+03  0.14027825590E+03  0.12700000000E+01 0.  1.
          4   -1    0    0  501    0  0.00000000000E+00 -0.00000000000E+00 -0.27825195647E+02  0.27854163294E+02  0.12700000000E+01 0.  1.
         25    2    1    2    0    0  0.00000000000E+00  0.00000000000E+00  0.11244731120E+03  0.16813241919E+03  0.12499645030E+03 0.  0.
    9000005    1    3    3    0    0  0.20063054893E+02 -0.29903266076E+02  0.12491978597E+03  0.13001032428E+03  0.10000000000E+01 0.  0.
    9000005    1    3    3    0    0 -0.20063054893E+02  0.29903266076E+02 -0.12472474764E+02  0.38122094911E+02  0.10000000000E+01 0.  0.
<mgrwt>
<rscale>  0 0.12499645E+03</rscale>
<asrwt>0</asrwt>
<pdfrwt beam="2">  1        4 0.42834699E-02 0.12499645E+03</pdfrwt>
<pdfrwt beam="1">  1       -4 0.21583056E-01 0.12499645E+03</pdfrwt>
<totfact> 0.95805066E+03</totfact>
</mgrwt>
</event>
<event>
 5    1  0.3257199E-002  0.1249998E+03  0.7818608E-02  0.1235070E+00
          4   -1    0    0  501    0  0.00000000000E+00  0.00000000000E+00  0.13472329371E+04  0.13472335357E+04  0.12700000000E+01 0. -1.
         -4   -1    0    0    0  501 -0.00000000000E+00 -0.00000000000E+00 -0.27597530488E+01  0.30379494549E+01  0.12700000000E+01 0. -1.
         25    2    1    2    0    0  0.00000000000E+00  0.00000000000E+00  0.13444731840E+04  0.13502714851E+04  0.12499976393E+03 0.  0.
    9000005    1    3    3    0    0 -0.31194064014E+02 -0.39015627873E+02  0.26662234156E+03  0.27126327040E+03  0.10000000000E+01 0.  0.
    9000005    1    3    3    0    0  0.31194064014E+02  0.39015627873E+02  0.10778508425E+04  0.10790082147E+04  0.10000000000E+01 0.  0.
<mgrwt>
<rscale>  0 0.12499976E+03</rscale>
<asrwt>0</asrwt>
<pdfrwt beam="1">  1        4 0.20728850E+00 0.12499976E+03</pdfrwt>
<pdfrwt beam="2">  1       -4 0.44602219E-03 0.12499976E+03</pdfrwt>
<totfact> 0.21072206E+03</totfact>
</mgrwt>
</event>
<event>
 5    1  0.3257199E-002  0.1249988E+03  0.7818608E-02  0.1235071E+00
          4   -1    0    0  501    0  0.00000000000E+00  0.00000000000E+00  0.28160052262E+03  0.28160338641E+03  0.12700000000E+01 0. -1.
         -4   -1    0    0    0  501 -0.00000000000E+00 -0.00000000000E+00 -0.13839326981E+02  0.13897477155E+02  0.12700000000E+01 0. -1.
         25    2    1    2    0    0  0.00000000000E+00  0.00000000000E+00  0.26776119564E+03  0.29550086357E+03  0.12499880991E+03 0.  0.
    9000005    1    3    3    0    0 -0.15198005140E+01 -0.23591219868E+02 -0.28723264431E+01  0.23834968170E+02  0.10000000000E+01 0.  0.
    9000005    1    3    3    0    0  0.15198005140E+01  0.23591219868E+02  0.27063352208E+03  0.27166589540E+03  0.10000000000E+01 0.  0.
<mgrwt>
<rscale>  0 0.12499881E+03</rscale>
<asrwt>0</asrwt>
<pdfrwt beam="1">  1        4 0.43327851E-01 0.12499881E+03</pdfrwt>
<pdfrwt beam="2">  1       -4 0.21338206E-02 0.12499881E+03</pdfrwt>
<totfact> 0.76168701E+03</totfact>
</mgrwt>
</event>
<event>
 5    1  0.3257199E-002  0.1250092E+03  0.7818608E-02  0.1235055E+00
         -4   -1    0    0    0  501 -0.00000000000E+00  0.00000000000E+00  0.35280940152E+03  0.35281168731E+03  0.12700000000E+01 0. -1.
          4   -1    0    0  501    0  0.00000000000E+00 -0.00000000000E+00 -0.11034734688E+02  0.11107577127E+02  0.12700000000E+01 0. -1.
         25    2    1    2    0    0  0.00000000000E+00  0.00000000000E+00  0.34177466683E+03  0.36391926443E+03  0.12500923221E+03 0.  0.
    9000005    1    3    3    0    0 -0.28499960834E+02  0.25025118330E+01  0.33264078229E+03  0.33387033467E+03  0.10000000000E+01 0.  0.
    9000005    1    3    3    0    0  0.28499960834E+02 -0.25025118330E+01  0.91338845433E+01  0.30048929762E+02  0.10000000000E+01 0.  0.
<mgrwt>
<rscale>  0 0.12500923E+03</rscale>
<asrwt>0</asrwt>
<pdfrwt beam="2">  1        4 0.17034306E-02 0.12500923E+03</pdfrwt>
<pdfrwt beam="1">  1       -4 0.54284147E-01 0.12500923E+03</pdfrwt>
<totfact> 0.68206003E+03</totfact>
</mgrwt>
</event>
<event>
 5    1  0.3257199E-002  0.1249998E+03  0.7818608E-02  0.1235070E+00
          4   -1    0    0  501    0  0.00000000000E+00  0.00000000000E+00  0.41636623134E+02  0.41655987397E+02  0.12700000000E+01 0. -1.
         -4   -1    0    0    0  501 -0.00000000000E+00 -0.00000000000E+00 -0.93771910702E+02  0.93780510432E+02  0.12700000000E+01 0. -1.
         25    2    1    2    0    0  0.00000000000E+00  0.00000000000E+00 -0.52135287569E+02  0.13543649783E+03  0.12499982694E+03 0.  0.
    9000005    1    3    3    0    0 -0.24549751486E+02 -0.53692983818E+02 -0.48262403459E+02  0.76261959042E+02  0.10000000000E+01 0.  0.
    9000005    1    3    3    0    0  0.24549751486E+02  0.53692983818E+02 -0.38728841091E+01  0.59174538786E+02  0.10000000000E+01 0.  0.
<mgrwt>
<rscale>  0 0.12499983E+03</rscale>
<asrwt>0</asrwt>
<pdfrwt beam="1">  1        4 0.64077854E-02 0.12499983E+03</pdfrwt>
<pdfrwt beam="2">  1       -4 0.14428599E-01 0.12499983E+03</pdfrwt>
<totfact> 0.10228919E+04</totfact>
</mgrwt>
</event>
<event>
 5    1  0.3257199E-002  0.1250003E+03  0.7818608E-02  0.1235069E+00
          4   -1    0    0  501    0  0.00000000000E+00  0.00000000000E+00  0.34503811280E+03  0.34504045007E+03  0.12700000000E+01 0. -1.
         -4   -1    0    0    0  501 -0.00000000000E+00 -0.00000000000E+00 -0.11283258732E+02  0.11354506930E+02  0.12700000000E+01 0. -1.
         25    2    1    2    0    0  0.00000000000E+00  0.00000000000E+00  0.33375485407E+03  0.35639495700E+03  0.12500025105E+03 0.  0.
    9000005    1    3    3    0    0  0.26498256083E+02  0.22035070255E+02  0.18246037219E+02  0.39007944970E+02  0.10000000000E+01 0.  0.
    9000005    1    3    3    0    0 -0.26498256083E+02 -0.22035070255E+02  0.31550881685E+03  0.31738701203E+03  0.10000000000E+01 0.  0.
<mgrwt>
<rscale>  0 0.12500025E+03</rscale>
<asrwt>0</asrwt>
<pdfrwt beam="1">  1        4 0.53088439E-01 0.12500025E+03</pdfrwt>
<pdfrwt beam="2">  1       -4 0.17415467E-02 0.12500025E+03</pdfrwt>
<totfact> 0.69026336E+03</totfact>
</mgrwt>
</event>
<event>
 4    1  0.3257199E-002  0.1251595E+03  0.7818608E-02  0.1234820E+00
         -4   -1    0    0    0  501 -0.00000000000E+00  0.00000000000E+00  0.11152562997E+03  0.11153286081E+03  0.12700000000E+01 0. -1.
          4   -1    0    0  501    0  0.00000000000E+00 -0.00000000000E+00 -0.35095194688E+02  0.35118166099E+02  0.12700000000E+01 0. -1.
    9000005    1    1    2    0    0 -0.49456142295E+02 -0.31768436492E+02  0.13082472663E+02  0.60227025983E+02  0.10000000000E+01 0.  0.
    9000005    1    1    2    0    0  0.49456142295E+02  0.31768436492E+02  0.63347962619E+02  0.86424000925E+02  0.10000000000E+01 0.  0.
<mgrwt>
<rscale>  0 0.12515955E+03</rscale>
<asrwt>0</asrwt>
<pdfrwt beam="2">  1        4 0.54015841E-02 0.12515955E+03</pdfrwt>
<pdfrwt beam="1">  1       -4 0.17160112E-01 0.12515955E+03</pdfrwt>
<totfact> 0.99617237E+03</totfact>
</mgrwt>
</event>
<event>
 5    1  0.3257199E-002  0.1249794E+03  0.7818608E-02  0.1235102E+00
          4   -1    0    0  501    0  0.00000000000E+00  0.00000000000E+00  0.16303185216E+03  0.16303679866E+03  0.12700000000E+01 0.  1.
         -4   -1    0    0    0  501 -0.00000000000E+00 -0.00000000000E+00 -0.23929978917E+02  0.23963655626E+02  0.12700000000E+01 0.  1.
         25    2    1    2    0    0  0.00000000000E+00  0.00000000000E+00  0.13910187324E+03  0.18700045429E+03  0.12497935335E+03 0.  0.
    9000005    1    3    3    0    0 -0.52170590499E+02  0.17861534845E+02  0.11351002941E+03  0.12619957098E+03  0.10000000000E+01 0.  0.
    9000005    1    3    3    0    0  0.52170590499E+02 -0.17861534845E+02  0.25591843835E+02  0.60800883307E+02  0.10000000000E+01 0.  0.
<mgrwt>
<rscale>  0 0.12497935E+03</rscale>
<asrwt>0</asrwt>
<pdfrwt beam="1">  1        4 0.25084794E-01 0.12497935E+03</pdfrwt>
<pdfrwt beam="2">  1       -4 0.36845063E-02 0.12497935E+03</pdfrwt>
<totfact> 0.92414607E+03</totfact>
</mgrwt>
</event>
<event>
 5    1  0.3257199E-002  0.1250011E+03  0.7818608E-02  0.1235068E+00
         -4   -1    0    0    0  501 -0.00000000000E+00  0.00000000000E+00  0.59940088149E+01  0.61270744791E+01  0.12700000000E+01 0.  1.
          4   -1    0    0  501    0  0.00000000000E+00 -0.00000000000E+00 -0.64441581034E+03  0.64441706178E+03  0.12700000000E+01 0.  1.
         25    2    1    2    0    0  0.00000000000E+00  0.00000000000E+00 -0.63842180152E+03  0.65054413626E+03  0.12500110624E+03 0.  0.
    9000005    1    3    3    0    0  0.34878902273E+02  0.26301337462E+02 -0.55178118423E+03  0.55350860287E+03  0.10000000000E+01 0.  0.
    9000005    1    3    3    0    0 -0.34878902273E+02 -0.26301337462E+02 -0.86640617291E+02  0.97035533392E+02  0.10000000000E+01 0.  0.
<mgrwt>
<rscale>  0 0.12500111E+03</rscale>
<asrwt>0</asrwt>
<pdfrwt beam="2">  1        4 0.99151172E-01 0.12500111E+03</pdfrwt>
<pdfrwt beam="1">  1       -4 0.93248780E-03 0.12500111E+03</pdfrwt>
<totfact> 0.45823747E+03</totfact>
</mgrwt>
</event>
<event>
 5    1  0.3257199E-002  0.1249989E+03  0.7818608E-02  0.1235071E+00
          4   -1    0    0  501    0  0.00000000000E+00  0.00000000000E+00  0.11622963072E+02  0.11692141402E+02  0.12700000000E+01 0. -1.
         -4   -1    0    0    0  501 -0.00000000000E+00 -0.00000000000E+00 -0.33500706522E+03  0.33500947247E+03  0.12700000000E+01 0. -1.
         25    2    1    2    0    0  0.00000000000E+00  0.00000000000E+00 -0.32338410215E+03  0.34670161388E+03  0.12499892617E+03 0.  0.
    9000005    1    3    3    0    0 -0.13685554604E+02  0.38729437300E+02 -0.29231588851E+03  0.29518950251E+03  0.10000000000E+01 0.  0.
    9000005    1    3    3    0    0  0.13685554604E+02 -0.38729437300E+02 -0.31068213636E+02  0.51512111362E+02  0.10000000000E+01 0.  0.
<mgrwt>
<rscale>  0 0.12499893E+03</rscale>
<asrwt>0</asrwt>
<pdfrwt beam="1">  1        4 0.17936550E-02 0.12499893E+03</pdfrwt>
<pdfrwt beam="2">  1       -4 0.51545048E-01 0.12499893E+03</pdfrwt>
<totfact> 0.70090618E+03</totfact>
</mgrwt>
</event>
<event>
 5    1  0.3257199E-002  0.1249932E+03  0.7818608E-02  0.1235080E+00
         -4   -1    0    0    0  501 -0.00000000000E+00  0.00000000000E+00  0.26387837258E+03  0.26388142871E+03  0.12700000000E+01 0. -1.
          4   -1    0    0  501    0  0.00000000000E+00 -0.00000000000E+00 -0.14771219123E+02  0.14825714633E+02  0.12700000000E+01 0. -1.
         25    2    1    2    0    0  0.00000000000E+00  0.00000000000E+00  0.24910715346E+03  0.27870714334E+03  0.12499319119E+03 0.  0.
    9000005    1    3    3    0    0 -0.53757756876E+02 -0.31845736954E+02  0.12258798613E+03  0.13759673590E+03  0.10000000000E+01 0.  0.
    9000005    1    3    3    0    0  0.53757756876E+02  0.31845736954E+02  0.12651916733E+03  0.14111040744E+03  0.10000000000E+01 0.  0.
<mgrwt>
<rscale>  0 0.12499319E+03</rscale>
<asrwt>0</asrwt>
<pdfrwt beam="2">  1        4 0.22769225E-02 0.12499319E+03</pdfrwt>
<pdfrwt beam="1">  1       -4 0.40601096E-01 0.12499319E+03</pdfrwt>
<totfact> 0.78361704E+03</totfact>
</mgrwt>
</event>
<event>
 5    1  0.3257199E-002  0.1250002E+03  0.7818608E-02  0.1235069E+00
         -4   -1    0    0    0  501 -0.00000000000E+00  0.00000000000E+00  0.92246177839E+02  0.92254919793E+02  0.12700000000E+01 0. -1.
          4   -1    0    0  501    0  0.00000000000E+00 -0.00000000000E+00 -0.42325770650E+02  0.42344819767E+02  0.12700000000E+01 0. -1.
         25    2    1    2    0    0  0.00000000000E+00  0.00000000000E+00  0.49920407189E+02  0.13459973956E+03  0.12500017134E+03 0.  0.
    9000005    1    3    3    0    0  0.27469728106E+02 -0.16241499700E+02 -0.32895823994E+02  0.45842202291E+02  0.10000000000E+01 0.  0.
    9000005    1    3    3    0    0 -0.27469728106E+02  0.16241499700E+02  0.82816231183E+02  0.88757537269E+02  0.10000000000E+01 0.  0.
<mgrwt>
<rscale>  0 0.12500017E+03</rscale>
<asrwt>0</asrwt>
<pdfrwt beam="2">  1        4 0.65137948E-02 0.12500017E+03</pdfrwt>
<pdfrwt beam="1">  1       -4 0.14193857E-01 0.12500017E+03</pdfrwt>
<totfact> 0.10246475E+04</totfact>
</mgrwt>
</event>
<event>
 5    1  0.3257199E-002  0.1249954E+03  0.7818608E-02  0.1235076E+00
          4   -1    0    0  501    0  0.00000000000E+00  0.00000000000E+00  0.24869897723E+02  0.24902303362E+02  0.12700000000E+01 0. -1.
         -4   -1    0    0    0  501 -0.00000000000E+00 -0.00000000000E+00 -0.15691863093E+03  0.15692377013E+03  0.12700000000E+01 0. -1.
         25    2    1    2    0    0  0.00000000000E+00  0.00000000000E+00 -0.13204873320E+03  0.18182607349E+03  0.12499541216E+03 0.  0.
    9000005    1    3    3    0    0 -0.29355577116E+02 -0.41320855935E+02 -0.11919022657E+03  0.12952402539E+03  0.10000000000E+01 0.  0.
    9000005    1    3    3    0    0  0.29355577116E+02  0.41320855935E+02 -0.12858506632E+02  0.52302048103E+02  0.10000000000E+01 0.  0.
<mgrwt>
<rscale>  0 0.12499541E+03</rscale>
<asrwt>0</asrwt>
<pdfrwt beam="1">  1        4 0.38290263E-02 0.12499541E+03</pdfrwt>
<pdfrwt beam="2">  1       -4 0.24144215E-01 0.12499541E+03</pdfrwt>
<totfact> 0.93298929E+03</totfact>
</mgrwt>
</event>
<event>
 5    1  0.3257199E-002  0.1249952E+03  0.7818608E-02  0.1235077E+00
         -4   -1    0    0    0  501 -0.00000000000E+00  0.00000000000E+00  0.19642385593E+01  0.23390453433E+01  0.12700000000E+01 0. -1.
          4   -1    0    0  501    0  0.00000000000E+00 -0.00000000000E+00 -0.18149595594E+04  0.18149600037E+04  0.12700000000E+01 0. -1.
         25    2    1    2    0    0  0.00000000000E+00  0.00000000000E+00 -0.18129953208E+04  0.18172990491E+04  0.12499520147E+03 0.  0.
    9000005    1    3    3    0    0 -0.14915428351E+02  0.58361250187E+02 -0.66476402059E+03  0.66748835839E+03  0.10000000000E+01 0.  0.
    9000005    1    3    3    0    0  0.14915428351E+02 -0.58361250187E+02 -0.11482313003E+04  0.11498106907E+04  0.10000000000E+01 0.  0.
<mgrwt>
<rscale>  0 0.12499520E+03</rscale>
<asrwt>0</asrwt>
<pdfrwt beam="2">  1        4 0.27925219E+00 0.12499520E+03</pdfrwt>
<pdfrwt beam="1">  1       -4 0.33105747E-03 0.12499520E+03</pdfrwt>
<totfact> 0.12440290E+03</totfact>
</mgrwt>
</event>
<event>
 5    1  0.3257199E-002  0.1250006E+03  0.7818608E-02  0.1235068E+00
         -4   -1    0    0    0  501 -0.00000000000E+00  0.00000000000E+00  0.17225140754E+03  0.17225608930E+03  0.12700000000E+01 0. -1.
          4   -1    0    0  501    0  0.00000000000E+00 -0.00000000000E+00 -0.22655058746E+02  0.22690627730E+02  0.12700000000E+01 0. -1.
         25    2    1    2    0    0  0.00000000000E+00  0.00000000000E+00  0.14959634879E+03  0.19494671703E+03  0.12500061963E+03 0.  0.
    9000005    1    3    3    0    0  0.17328345350E+02  0.43746655940E+02  0.13893497830E+03  0.14669004620E+03  0.10000000000E+01 0.  0.
    9000005    1    3    3    0    0 -0.17328345350E+02 -0.43746655940E+02  0.10661370493E+02  0.48256670827E+02  0.10000000000E+01 0.  0.
<mgrwt>
<rscale>  0 0.12500062E+03</rscale>
<asrwt>0</asrwt>
<pdfrwt beam="2">  1        4 0.34884897E-02 0.12500062E+03</pdfrwt>
<pdfrwt beam="1">  1       -4 0.26503314E-01 0.12500062E+03</pdfrwt>
<totfact> 0.90992391E+03</totfact>
</mgrwt>
</event>
<event>
 5    1  0.3257199E-002  0.1249992E+03  0.7818608E-02  0.1235070E+00
         -4   -1    0    0    0  501 -0.00000000000E+00  0.00000000000E+00  0.16326999604E+02  0.16376318758E+02  0.12700000000E+01 0.  1.
          4   -1    0    0  501    0  0.00000000000E+00 -0.00000000000E+00 -0.23883624051E+03  0.23883961706E+03  0.12700000000E+01 0.  1.
         25    2    1    2    0    0  0.00000000000E+00  0.00000000000E+00 -0.22250924090E+03  0.25521593582E+03  0.12499924644E+03 0.  0.
    9000005    1    3    3    0    0  0.19382552216E+01 -0.36431193862E+02 -0.21484578922E+03  0.21792361474E+03  0.10000000000E+01 0.  0.
    9000005    1    3    3    0    0 -0.19382552216E+01  0.36431193862E+02 -0.76634516853E+01  0.37292321076E+02  0.10000000000E+01 0.  0.
<mgrwt>
<rscale>  0 0.12499925E+03</rscale>
<asrwt>0</asrwt>
<pdfrwt beam="2">  1        4 0.36748088E-01 0.12499925E+03</pdfrwt>
<pdfrwt beam="1">  1       -4 0.25158998E-02 0.12499925E+03</pdfrwt>
<totfact> 0.81583529E+03</totfact>
</mgrwt>
</event>
<event>
 5    1  0.3257199E-002  0.1250005E+03  0.7818608E-02  0.1235069E+00
          4   -1    0    0  501    0  0.00000000000E+00  0.00000000000E+00  0.14476249987E+03  0.14476807061E+03  0.12700000000E+01 0. -1.
         -4   -1    0    0    0  501 -0.00000000000E+00 -0.00000000000E+00 -0.26963018429E+02  0.26992911344E+02  0.12700000000E+01 0. -1.
         25    2    1    2    0    0  0.00000000000E+00  0.00000000000E+00  0.11779948144E+03  0.17176098195E+03  0.12500046838E+03 0.  0.
    9000005    1    3    3    0    0  0.11714643012E+02 -0.61315361489E+02  0.62899444617E+02  0.88623622972E+02  0.10000000000E+01 0.  0.
    9000005    1    3    3    0    0 -0.11714643012E+02  0.61315361489E+02  0.54900036819E+02  0.83137358980E+02  0.10000000000E+01 0.  0.
<mgrwt>
<rscale>  0 0.12500047E+03</rscale>
<asrwt>0</asrwt>
<pdfrwt beam="1">  1        4 0.22273882E-01 0.12500047E+03</pdfrwt>
<pdfrwt beam="2">  1       -4 0.41508847E-02 0.12500047E+03</pdfrwt>
<totfact> 0.95120429E+03</totfact>
</mgrwt>
</event>
<event>
 5    1  0.3257199E-002  0.1250019E+03  0.7818608E-02  0.1235066E+00
          4   -1    0    0  501    0  0.00000000000E+00  0.00000000000E+00  0.15991169684E+03  0.15991673986E+03  0.12700000000E+01 0. -1.
         -4   -1    0    0    0  501 -0.00000000000E+00 -0.00000000000E+00 -0.24406335401E+02  0.24439355714E+02  0.12700000000E+01 0. -1.
         25    2    1    2    0    0  0.00000000000E+00  0.00000000000E+00  0.13550536144E+03  0.18435609557E+03  0.12500186797E+03 0.  0.
    9000005    1    3    3    0    0 -0.23052574902E+02  0.14599313224E+02 -0.15163614918E+02  0.31232937320E+02  0.10000000000E+01 0.  0.
    9000005    1    3    3    0    0  0.23052574902E+02 -0.14599313224E+02  0.15066897636E+03  0.15312315825E+03  0.10000000000E+01 0.  0.
<mgrwt>
<rscale>  0 0.12500187E+03</rscale>
<asrwt>0</asrwt>
<pdfrwt beam="1">  1        4 0.24604727E-01 0.12500187E+03</pdfrwt>
<pdfrwt beam="2">  1       -4 0.37577489E-02 0.12500187E+03</pdfrwt>
<totfact> 0.92834830E+03</totfact>
</mgrwt>
</event>
<event>
 5    1  0.3257199E-002  0.1250014E+03  0.7818608E-02  0.1235067E+00
         -4   -1    0    0    0  501 -0.00000000000E+00  0.00000000000E+00  0.13057315596E+03  0.13057933205E+03  0.12700000000E+01 0. -1.
          4   -1    0    0  501    0  0.00000000000E+00 -0.00000000000E+00 -0.29896503625E+02  0.29923466192E+02  0.12700000000E+01 0. -1.
         25    2    1    2    0    0  0.00000000000E+00  0.00000000000E+00  0.10067665234E+03  0.16050279824E+03  0.12500143966E+03 0.  0.
    9000005    1    3    3    0    0  0.44991732549E+02 -0.30723246349E+02  0.11030784606E+02  0.55595432124E+02  0.10000000000E+01 0.  0.
    9000005    1    3    3    0    0 -0.44991732549E+02  0.30723246349E+02  0.89645867734E+02  0.10490736612E+03  0.10000000000E+01 0.  0.
<mgrwt>
<rscale>  0 0.12500144E+03</rscale>
<asrwt>0</asrwt>
<pdfrwt beam="2">  1        4 0.46020113E-02 0.12500144E+03</pdfrwt>
<pdfrwt beam="1">  1       -4 0.20090727E-01 0.12500144E+03</pdfrwt>
<totfact> 0.97242790E+03</totfact>
</mgrwt>
</event>
<event>
 5    1  0.3257199E-002  0.1250055E+03  0.7818608E-02  0.1235061E+00
          4   -1    0    0  501    0  0.00000000000E+00  0.00000000000E+00  0.13525215672E+03  0.13525811916E+03  0.12700000000E+01 0. -1.
         -4   -1    0    0    0  501 -0.00000000000E+00 -0.00000000000E+00 -0.28863237235E+02  0.28891164110E+02  0.12700000000E+01 0. -1.
         25    2    1    2    0    0  0.00000000000E+00  0.00000000000E+00  0.10638891949E+03  0.16414928327E+03  0.12500553991E+03 0.  0.
    9000005    1    3    3    0    0  0.18112065872E+02  0.58592323481E+01  0.13135880806E+03  0.13273475049E+03  0.10000000000E+01 0.  0.
    9000005    1    3    3    0    0 -0.18112065872E+02 -0.58592323481E+01 -0.24969888574E+02  0.31414532772E+02  0.10000000000E+01 0.  0.
<mgrwt>
<rscale>  0 0.12500554E+03</rscale>
<asrwt>0</asrwt>
<pdfrwt beam="1">  1        4 0.20810631E-01 0.12500554E+03</pdfrwt>
<pdfrwt beam="2">  1       -4 0.44431049E-02 0.12500554E+03</pdfrwt>
<totfact> 0.96536731E+03</totfact>
</mgrwt>
</event>
<event>
 5    1  0.3257199E-002  0.1249992E+03  0.7818608E-02  0.1235071E+00
          4   -1    0    0  501    0  0.00000000000E+00  0.00000000000E+00  0.18437320658E+03  0.18437758054E+03  0.12700000000E+01 0.  1.
         -4   -1    0    0    0  501 -0.00000000000E+00 -0.00000000000E+00 -0.21162699721E+02  0.21200772616E+02  0.12700000000E+01 0.  1.
         25    2    1    2    0    0  0.00000000000E+00  0.00000000000E+00  0.16321050686E+03  0.20557835315E+03  0.12499915894E+03 0.  0.
    9000005    1    3    3    0    0 -0.45117741838E+02  0.12966813485E+02  0.14944429488E+03  0.15664720282E+03  0.10000000000E+01 0.  0.
    9000005    1    3    3    0    0  0.45117741838E+02 -0.12966813485E+02  0.13766211983E+02  0.48931150333E+02  0.10000000000E+01 0.  0.
<mgrwt>
<rscale>  0 0.12499916E+03</rscale>
<asrwt>0</asrwt>
<pdfrwt beam="1">  1        4 0.28368374E-01 0.12499916E+03</pdfrwt>
<pdfrwt beam="2">  1       -4 0.32590651E-02 0.12499916E+03</pdfrwt>
<totfact> 0.89204801E+03</totfact>
</mgrwt>
</event>
<event>
 5    1  0.3257199E-002  0.1250047E+03  0.7818608E-02  0.1235062E+00
         -4   -1    0    0    0  501 -0.00000000000E+00  0.00000000000E+00  0.31373353959E+03  0.31373611007E+03  0.12700000000E+01 0. -1.
          4   -1    0    0  501    0  0.00000000000E+00 -0.00000000000E+00 -0.12416781088E+02  0.12481560503E+02  0.12700000000E+01 0. -1.
         25    2    1    2    0    0  0.00000000000E+00  0.00000000000E+00  0.30131675850E+03  0.32621767058E+03  0.12500471848E+03 0.  0.
    9000005    1    3    3    0    0  0.18294549004E+02  0.12854955117E+02  0.30295076226E+03  0.30377640585E+03  0.10000000000E+01 0.  0.
    9000005    1    3    3    0    0 -0.18294549004E+02 -0.12854955117E+02 -0.16340037598E+01  0.22441264729E+02  0.10000000000E+01 0.  0.
<mgrwt>
<rscale>  0 0.12500472E+03</rscale>
<asrwt>0</asrwt>
<pdfrwt beam="2">  1        4 0.19154549E-02 0.12500472E+03</pdfrwt>
<pdfrwt beam="1">  1       -4 0.48271875E-01 0.12500472E+03</pdfrwt>
<totfact> 0.72415097E+03</totfact>
</mgrwt>
</event>
<event>
 5    1  0.3257199E-002  0.1249963E+03  0.7818608E-02  0.1235075E+00
          4   -1    0    0  501    0  0.00000000000E+00  0.00000000000E+00  0.41922160393E+02  0.41941392824E+02  0.12700000000E+01 0.  1.
         -4   -1    0    0    0  501 -0.00000000000E+00 -0.00000000000E+00 -0.93128256050E+02  0.93136915210E+02  0.12700000000E+01 0.  1.
         25    2    1    2    0    0  0.00000000000E+00  0.00000000000E+00 -0.51206095657E+02  0.13507830803E+03  0.12499634022E+03 0.  0.
    9000005    1    3    3    0    0  0.17292419098E+02 -0.60023774667E+02 -0.23688121764E+02  0.66813235188E+02  0.10000000000E+01 0.  0.
    9000005    1    3    3    0    0 -0.17292419098E+02  0.60023774667E+02 -0.27517973893E+02  0.68265072847E+02  0.10000000000E+01 0.  0.
<mgrwt>
<rscale>  0 0.12499634E+03</rscale>
<asrwt>0</asrwt>
<pdfrwt beam="1">  1        4 0.64517087E-02 0.12499634E+03</pdfrwt>
<pdfrwt beam="2">  1       -4 0.14329569E-01 0.12499634E+03</pdfrwt>
<totfact> 0.10237266E+04</totfact>
</mgrwt>
</event>
<event>
 5    1  0.3257199E-002  0.1249986E+03  0.7818608E-02  0.1235071E+00
         -4   -1    0    0    0  501 -0.00000000000E+00  0.00000000000E+00  0.49710375671E+03  0.49710537901E+03  0.12700000000E+01 0.  1.
          4   -1    0    0  501    0  0.00000000000E+00 -0.00000000000E+00 -0.78048802095E+01  0.79075315418E+01  0.12700000000E+01 0.  1.
         25    2    1    2    0    0  0.00000000000E+00  0.00000000000E+00  0.48929887650E+03  0.50501291055E+03  0.12499859709E+03 0.  0.
    9000005    1    3    3    0    0  0.60260406741E+02 -0.14523147719E+02  0.27669774458E+03  0.28355754318E+03  0.10000000000E+01 0.  0.
    9000005    1    3    3    0    0 -0.60260406741E+02  0.14523147719E+02  0.21260113193E+03  0.22145536737E+03  0.10000000000E+01 0.  0.
<mgrwt>
<rscale>  0 0.12499860E+03</rscale>
<asrwt>0</asrwt>
<pdfrwt beam="2">  1        4 0.12087715E-02 0.12499860E+03</pdfrwt>
<pdfrwt beam="1">  1       -4 0.76485541E-01 0.12499860E+03</pdfrwt>
<totfact> 0.55479214E+03</totfact>
</mgrwt>
</event>
<event>
 5    1  0.3257199E-002  0.1250000E+03  0.7818608E-02  0.1235069E+00
         -4   -1    0    0    0  501 -0.00000000000E+00  0.00000000000E+00  0.14141911290E+01  0.19007463138E+01  0.12700000000E+01 0. -1.
          4   -1    0    0  501    0  0.00000000000E+00 -0.00000000000E+00 -0.23562684797E+04  0.23562688219E+04  0.12700000000E+01 0. -1.
         25    2    1    2    0    0  0.00000000000E+00  0.00000000000E+00 -0.23548542886E+04  0.23581695683E+04  0.12499996927E+03 0.  0.
    9000005    1    3    3    0    0  0.49510481933E+02  0.32884893353E+02 -0.81329925920E+03  0.81546881549E+03  0.10000000000E+01 0.  0.
    9000005    1    3    3    0    0 -0.49510481933E+02 -0.32884893353E+02 -0.15415550294E+04  0.15427007528E+04  0.10000000000E+01 0.  0.
<mgrwt>
<rscale>  0 0.12499997E+03</rscale>
<asrwt>0</asrwt>
<pdfrwt beam="2">  1        4 0.36253762E+00 0.12499997E+03</pdfrwt>
<pdfrwt beam="1">  1       -4 0.25502340E-03 0.12499997E+03</pdfrwt>
<totfact> 0.58814826E+02</totfact>
</mgrwt>
</event>
<event>
 5    1  0.3257199E-002  0.1249977E+03  0.7818608E-02  0.1235073E+00
          4   -1    0    0  501    0  0.00000000000E+00  0.00000000000E+00  0.16087376950E+02  0.16137428454E+02  0.12700000000E+01 0. -1.
         -4   -1    0    0    0  501 -0.00000000000E+00 -0.00000000000E+00 -0.24237697862E+03  0.24238030586E+03  0.12700000000E+01 0. -1.
         25    2    1    2    0    0  0.00000000000E+00  0.00000000000E+00 -0.22628960167E+03  0.25851773431E+03  0.12499774049E+03 0.  0.
    9000005    1    3    3    0    0 -0.17265791375E+02  0.59066804215E+02 -0.90667786232E+02  0.10958395125E+03  0.10000000000E+01 0.  0.
    9000005    1    3    3    0    0  0.17265791375E+02 -0.59066804215E+02 -0.13562181544E+03  0.14893378306E+03  0.10000000000E+01 0.  0.
<mgrwt>
<rscale>  0 0.12499774E+03</rscale>
<asrwt>0</asrwt>
<pdfrwt beam="1">  1        4 0.24790873E-02 0.12499774E+03</pdfrwt>
<pdfrwt beam="2">  1       -4 0.37292869E-01 0.12499774E+03</pdfrwt>
<totfact> 0.81118608E+03</totfact>
</mgrwt>
</event>
<event>
 5    1  0.3257199E-002  0.1249971E+03  0.7818608E-02  0.1235074E+00
          4   -1    0    0  501    0  0.00000000000E+00  0.00000000000E+00  0.11767015235E+04  0.11767022088E+04  0.12700000000E+01 0. -1.
         -4   -1    0    0    0  501 -0.00000000000E+00 -0.00000000000E+00 -0.31973249365E+01  0.34403178268E+01  0.12700000000E+01 0. -1.
         25    2    1    2    0    0  0.00000000000E+00  0.00000000000E+00  0.11735041986E+04  0.11801425267E+04  0.12499711684E+03 0.  0.
    9000005    1    3    3    0    0 -0.30583109019E+02  0.54484329030E+02  0.59709949067E+03  0.60036045042E+03  0.10000000000E+01 0.  0.
    9000005    1    3    3    0    0  0.30583109019E+02 -0.54484329030E+02  0.57640470789E+03  0.57978207625E+03  0.10000000000E+01 0.  0.
<mgrwt>
<rscale>  0 0.12499712E+03</rscale>
<asrwt>0</asrwt>
<pdfrwt beam="1">  1        4 0.18105006E+00 0.12499712E+03</pdfrwt>
<pdfrwt beam="2">  1       -4 0.51063975E-03 0.12499712E+03</pdfrwt>
<totfact> 0.25240047E+03</totfact>
</mgrwt>
</event>
<event>
 5    1  0.3257199E-002  0.1249991E+03  0.7818608E-02  0.1235071E+00
          4   -1    0    0  501    0  0.00000000000E+00  0.00000000000E+00  0.52387068260E+02  0.52402460065E+02  0.12700000000E+01 0.  1.
         -4   -1    0    0    0  501 -0.00000000000E+00 -0.00000000000E+00 -0.74532350357E+02  0.74543169705E+02  0.12700000000E+01 0.  1.
         25    2    1    2    0    0  0.00000000000E+00  0.00000000000E+00 -0.22145282097E+02  0.12694562977E+03  0.12499911759E+03 0.  0.
    9000005    1    3    3    0    0  0.31641961367E+01 -0.61652456652E+02 -0.12180681083E+01  0.61753714369E+02  0.10000000000E+01 0.  0.
    9000005    1    3    3    0    0 -0.31641961367E+01  0.61652456652E+02 -0.20927213989E+02  0.65191915402E+02  0.10000000000E+01 0.  0.
<mgrwt>
<rscale>  0 0.12499912E+03</rscale>
<asrwt>0</asrwt>
<pdfrwt beam="1">  1        4 0.80615652E-02 0.12499912E+03</pdfrwt>
<pdfrwt beam="2">  1       -4 0.11468532E-01 0.12499912E+03</pdfrwt>
<totfact> 0.10410534E+04</totfact>
</mgrwt>
</event>
<event>
 5    1  0.3257199E-002  0.1250003E+03  0.7818608E-02  0.1235069E+00
         -4   -1    0    0    0  501 -0.00000000000E+00  0.00000000000E+00  0.24965644909E+02  0.24997926429E+02  0.12700000000E+01 0.  1.
          4   -1    0    0  501    0  0.00000000000E+00 -0.00000000000E+00 -0.15632973481E+03  0.15633489338E+03  0.12700000000E+01 0.  1.
         25    2    1    2    0    0  0.00000000000E+00  0.00000000000E+00 -0.13136408990E+03  0.18133281981E+03  0.12500026969E+03 0.  0.
    9000005    1    3    3    0    0 -0.50321492227E+02 -0.35732649107E+02 -0.79909757598E+02  0.10097348242E+03  0.10000000000E+01 0.  0.
    9000005    1    3    3    0    0  0.50321492227E+02  0.35732649107E+02 -0.51454332307E+02  0.80359337387E+02  0.10000000000E+01 0.  0.
<mgrwt>
<rscale>  0 0.12500027E+03</rscale>
<asrwt>0</asrwt>
<pdfrwt beam="2">  1        4 0.24053608E-01 0.12500027E+03</pdfrwt>
<pdfrwt beam="1">  1       -4 0.38437486E-02 0.12500027E+03</pdfrwt>
<totfact> 0.93377076E+03</totfact>
</mgrwt>
</event>
<event>
 5    1  0.3257199E-002  0.1250014E+03  0.7818608E-02  0.1235067E+00
          4   -1    0    0  501    0  0.00000000000E+00  0.00000000000E+00  0.17053760620E+03  0.17054233500E+03  0.12700000000E+01 0. -1.
         -4   -1    0    0    0  501 -0.00000000000E+00 -0.00000000000E+00 -0.22883371860E+02  0.22918586511E+02  0.12700000000E+01 0. -1.
         25    2    1    2    0    0  0.00000000000E+00  0.00000000000E+00  0.14765423434E+03  0.19346092152E+03  0.12500142093E+03 0.  0.
    9000005    1    3    3    0    0 -0.78186876060E+01 -0.60628320921E+02  0.53742344186E+02  0.81401257559E+02  0.10000000000E+01 0.  0.
    9000005    1    3    3    0    0  0.78186876060E+01  0.60628320921E+02  0.93911890155E+02  0.11205966396E+03  0.10000000000E+01 0.  0.
<mgrwt>
<rscale>  0 0.12500142E+03</rscale>
<asrwt>0</asrwt>
<pdfrwt beam="1">  1        4 0.26239627E-01 0.12500142E+03</pdfrwt>
<pdfrwt beam="2">  1       -4 0.35235914E-02 0.12500142E+03</pdfrwt>
<totfact> 0.91245686E+03</totfact>
</mgrwt>
</event>
<event>
 5    1  0.3257199E-002  0.1250110E+03  0.7818608E-02  0.1235052E+00
         -4   -1    0    0    0  501 -0.00000000000E+00  0.00000000000E+00  0.85423289898E+01  0.86362193448E+01  0.12700000000E+01 0. -1.
          4   -1    0    0  501    0  0.00000000000E+00 -0.00000000000E+00 -0.45476766279E+03  0.45476943611E+03  0.12700000000E+01 0. -1.
         25    2    1    2    0    0  0.00000000000E+00  0.00000000000E+00 -0.44622533380E+03  0.46340565546E+03  0.12501101144E+03 0.  0.
    9000005    1    3    3    0    0 -0.34990121232E+02 -0.51463120016E+02 -0.24446430617E+03  0.25226287538E+03  0.10000000000E+01 0.  0.
    9000005    1    3    3    0    0  0.34990121232E+02  0.51463120016E+02 -0.20176102764E+03  0.21114278008E+03  0.10000000000E+01 0.  0.
<mgrwt>
<rscale>  0 0.12501101E+03</rscale>
<asrwt>0</asrwt>
<pdfrwt beam="2">  1        4 0.69971596E-01 0.12501101E+03</pdfrwt>
<pdfrwt beam="1">  1       -4 0.13215636E-02 0.12501101E+03</pdfrwt>
<totfact> 0.58805556E+03</totfact>
</mgrwt>
</event>
<event>
 5    1  0.3257199E-002  0.1250022E+03  0.7818608E-02  0.1235066E+00
          4   -1    0    0  501    0  0.00000000000E+00  0.00000000000E+00  0.56607482444E+02  0.56621727002E+02  0.12700000000E+01 0.  1.
         -4   -1    0    0    0  501 -0.00000000000E+00 -0.00000000000E+00 -0.68979600183E+02  0.68991290330E+02  0.12700000000E+01 0.  1.
         25    2    1    2    0    0  0.00000000000E+00  0.00000000000E+00 -0.12372117739E+02  0.12561301733E+03  0.12500224328E+03 0.  0.
    9000005    1    3    3    0    0  0.29305995454E+02 -0.37519075959E+01 -0.61523011941E+02  0.68256861768E+02  0.10000000000E+01 0.  0.
    9000005    1    3    3    0    0 -0.29305995454E+02  0.37519075959E+01  0.49150894202E+02  0.57356155563E+02  0.10000000000E+01 0.  0.
<mgrwt>
<rscale>  0 0.12500224E+03</rscale>
<asrwt>0</asrwt>
<pdfrwt beam="1">  1        4 0.87108384E-02 0.12500224E+03</pdfrwt>
<pdfrwt beam="2">  1       -4 0.10614241E-01 0.12500224E+03</pdfrwt>
<totfact> 0.10438932E+04</totfact>
</mgrwt>
</event>
<event>
 5    1  0.3257199E-002  0.1250014E+03  0.7818608E-02  0.1235067E+00
         -4   -1    0    0    0  501 -0.00000000000E+00  0.00000000000E+00  0.32486646474E+03  0.32486894713E+03  0.12700000000E+01 0.  1.
          4   -1    0    0  501    0  0.00000000000E+00 -0.00000000000E+00 -0.11988375624E+02  0.12055457275E+02  0.12700000000E+01 0.  1.
         25    2    1    2    0    0  0.00000000000E+00  0.00000000000E+00  0.31287808912E+03  0.33692440441E+03  0.12500142254E+03 0.  0.
    9000005    1    3    3    0    0 -0.35568126520E+02  0.46720962775E+02  0.21408450105E+03  0.22199349895E+03  0.10000000000E+01 0.  0.
    9000005    1    3    3    0    0  0.35568126520E+02 -0.46720962775E+02  0.98793588067E+02  0.11493090546E+03  0.10000000000E+01 0.  0.
<mgrwt>
<rscale>  0 0.12500142E+03</rscale>
<asrwt>0</asrwt>
<pdfrwt beam="2">  1        4 0.18497169E-02 0.12500142E+03</pdfrwt>
<pdfrwt beam="1">  1       -4 0.49984798E-01 0.12500142E+03</pdfrwt>
<totfact> 0.71185159E+03</totfact>
</mgrwt>
</event>
<event>
 5    1  0.3257199E-002  0.1249976E+03  0.7818608E-02  0.1235073E+00
          4   -1    0    0  501    0  0.00000000000E+00  0.00000000000E+00  0.32350150409E+02  0.32375069598E+02  0.12700000000E+01 0.  1.
         -4   -1    0    0    0  501 -0.00000000000E+00 -0.00000000000E+00 -0.12066967372E+03  0.12067635666E+03  0.12700000000E+01 0.  1.
         25    2    1    2    0    0  0.00000000000E+00  0.00000000000E+00 -0.88319523310E+02  0.15305142625E+03  0.12499760350E+03 0.  0.
    9000005    1    3    3    0    0  0.47071249986E+02 -0.32400855096E+02 -0.75125674720E+02  0.94394835602E+02  0.10000000000E+01 0.  0.
    9000005    1    3    3    0    0 -0.47071249986E+02  0.32400855096E+02 -0.13193848590E+02  0.58656590651E+02  0.10000000000E+01 0.  0.
<mgrwt>
<rscale>  0 0.12499760E+03</rscale>
<asrwt>0</asrwt>
<pdfrwt beam="1">  1        4 0.49793772E-02 0.12499760E+03</pdfrwt>
<pdfrwt beam="2">  1       -4 0.18566996E-01 0.12499760E+03</pdfrwt>
<totfact> 0.98704205E+03</totfact>
</mgrwt>
</event>
<event>
 5    1  0.3257199E-002  0.1249961E+03  0.7818608E-02  0.1235075E+00
          4   -1    0    0  501    0  0.00000000000E+00  0.00000000000E+00  0.50062835442E+02  0.50078941607E+02  0.12700000000E+01 0.  1.
         -4   -1    0    0    0  501 -0.00000000000E+00 -0.00000000000E+00 -0.77988263149E+02  0.77998603122E+02  0.12700000000E+01 0.  1.
         25    2    1    2    0    0  0.00000000000E+00  0.00000000000E+00 -0.27925427707E+02  0.12807754473E+03  0.12499611174E+03 0.  0.
    9000005    1    3    3    0    0 -0.38634702962E+02  0.45358100155E+02  0.53434708135E+01  0.59829342324E+02  0.10000000000E+01 0.  0.
    9000005    1    3    3    0    0  0.38634702962E+02 -0.45358100155E+02 -0.33268898520E+02  0.68248202404E+02  0.10000000000E+01 0.  0.
<mgrwt>
<rscale>  0 0.12499611E+03</rscale>
<asrwt>0</asrwt>
<pdfrwt beam="1">  1        4 0.77040089E-02 0.12499611E+03</pdfrwt>
<pdfrwt beam="2">  1       -4 0.12000229E-01 0.12499611E+03</pdfrwt>
<totfact> 0.10386725E+04</totfact>
</mgrwt>
</event>
<event>
 5    1  0.3257199E-002  0.1249492E+03  0.7818608E-02  0.1235149E+00
         -4   -1    0    0    0  501 -0.00000000000E+00  0.00000000000E+00  0.16176298851E+03  0.16176797382E+03  0.12700000000E+01 0.  1.
          4   -1    0    0  501    0  0.00000000000E+00 -0.00000000000E+00 -0.24106298064E+02  0.24139728796E+02  0.12700000000E+01 0.  1.
         25    2    1    2    0    0  0.00000000000E+00  0.00000000000E+00  0.13765669045E+03  0.18590770261E+03  0.12494922755E+03 0.  0.
    9000005    1    3    3    0    0  0.12622959036E+01 -0.46049091843E+02  0.13160086381E+03  0.13943421246E+03  0.10000000000E+01 0.  0.
    9000005    1    3    3    0    0 -0.12622959036E+01  0.46049091843E+02  0.60558266452E+01  0.46473490152E+02  0.10000000000E+01 0.  0.
<mgrwt>
<rscale>  0 0.12494923E+03</rscale>
<asrwt>0</asrwt>
<pdfrwt beam="2">  1        4 0.37116162E-02 0.12494923E+03</pdfrwt>
<pdfrwt beam="1">  1       -4 0.24889569E-01 0.12494923E+03</pdfrwt>
<totfact> 0.92669669E+03</totfact>
</mgrwt>
</event>
<event>
 5    1  0.3257199E-002  0.1250008E+03  0.7818608E-02  0.1235068E+00
         -4   -1    0    0    0  501 -0.00000000000E+00  0.00000000000E+00  0.16840769029E+03  0.16841247890E+03  0.12700000000E+01 0. -1.
          4   -1    0    0  501    0  0.00000000000E+00 -0.00000000000E+00 -0.23172985058E+02  0.23207760265E+02  0.12700000000E+01 0. -1.
         25    2    1    2    0    0  0.00000000000E+00  0.00000000000E+00  0.14523470524E+03  0.19162023917E+03  0.12500078581E+03 0.  0.
    9000005    1    3    3    0    0  0.42245122870E+02  0.84082972163E+01  0.14202385971E+03  0.14841538530E+03  0.10000000000E+01 0.  0.
    9000005    1    3    3    0    0 -0.42245122870E+02 -0.84082972163E+01  0.32108455272E+01  0.43204853864E+02  0.10000000000E+01 0.  0.
<mgrwt>
<rscale>  0 0.12500079E+03</rscale>
<asrwt>0</asrwt>
<pdfrwt beam="2">  1        4 0.35681181E-02 0.12500079E+03</pdfrwt>
<pdfrwt beam="1">  1       -4 0.25911918E-01 0.12500079E+03</pdfrwt>
<totfact> 0.91564549E+03</totfact>
</mgrwt>
</event>
<event>
 5    1  0.3257199E-002  0.1250083E+03  0.7818608E-02  0.1235056E+00
         -4   -1    0    0    0  501 -0.00000000000E+00  0.00000000000E+00  0.34106971887E+02  0.34130608423E+02  0.12700000000E+01 0. -1.
          4   -1    0    0  501    0  0.00000000000E+00 -0.00000000000E+00 -0.11447770356E+03  0.11448474794E+03  0.12700000000E+01 0. -1.
         25    2    1    2    0    0  0.00000000000E+00  0.00000000000E+00 -0.80370731670E+02  0.14861535637E+03  0.12500827828E+03 0.  0.
    9000005    1    3    3    0    0 -0.62711976989E+01 -0.10595001171E+02  0.32656787193E+02  0.34914863885E+02  0.10000000000E+01 0.  0.
    9000005    1    3    3    0    0  0.62711976989E+01  0.10595001171E+02 -0.11302751886E+03  0.11370049248E+03  0.10000000000E+01 0.  0.
<mgrwt>
<rscale>  0 0.12500828E+03</rscale>
<asrwt>0</asrwt>
<pdfrwt beam="2">  1        4 0.17614314E-01 0.12500828E+03</pdfrwt>
<pdfrwt beam="1">  1       -4 0.52495866E-02 0.12500828E+03</pdfrwt>
<totfact> 0.99561872E+03</totfact>
</mgrwt>
</event>
<event>
 4    1  0.3257199E-002  0.1248534E+03  0.7818608E-02  0.1235299E+00
          4   -1    0    0  501    0  0.00000000000E+00  0.00000000000E+00  0.85442481477E+02  0.85451919469E+02  0.12700000000E+01 0.  1.
         -4   -1    0    0    0  501 -0.00000000000E+00 -0.00000000000E+00 -0.45589937911E+02  0.45607623691E+02  0.12700000000E+01 0.  1.
    9000005    1    1    2    0    0 -0.53285199489E+02  0.21244549361E+02 -0.59027395459E+01  0.57675694155E+02  0.10000000000E+01 0.  0.
    9000005    1    1    2    0    0  0.53285199489E+02 -0.21244549361E+02  0.45755283112E+02  0.73383849005E+02  0.10000000000E+01 0.  0.
<mgrwt>
<rscale>  0 0.12485343E+03</rscale>
<asrwt>0</asrwt>
<pdfrwt beam="1">  1        4 0.13147083E-01 0.12485343E+03</pdfrwt>
<pdfrwt beam="2">  1       -4 0.70159231E-02 0.12485343E+03</pdfrwt>
<totfact> 0.10356019E+04</totfact>
</mgrwt>
</event>
<event>
 5    1  0.3257199E-002  0.1250028E+03  0.7818608E-02  0.1235065E+00
         -4   -1    0    0    0  501 -0.00000000000E+00  0.00000000000E+00  0.42575460605E+03  0.42575650021E+03  0.12700000000E+01 0. -1.
          4   -1    0    0  501    0  0.00000000000E+00 -0.00000000000E+00 -0.91294211480E+01  0.92173331554E+01  0.12700000000E+01 0. -1.
         25    2    1    2    0    0  0.00000000000E+00  0.00000000000E+00  0.41662518490E+03  0.43497383337E+03  0.12500276405E+03 0.  0.
    9000005    1    3    3    0    0  0.27428535130E+02  0.27597872978E+02  0.37847933247E+03  0.38047545550E+03  0.10000000000E+01 0.  0.
    9000005    1    3    3    0    0 -0.27428535130E+02 -0.27597872978E+02  0.38145852434E+02  0.54498377868E+02  0.10000000000E+01 0.  0.
<mgrwt>
<rscale>  0 0.12500276E+03</rscale>
<asrwt>0</asrwt>
<pdfrwt beam="2">  1        4 0.14114346E-02 0.12500276E+03</pdfrwt>
<pdfrwt beam="1">  1       -4 0.65507612E-01 0.12500276E+03</pdfrwt>
<totfact> 0.61283984E+03</totfact>
</mgrwt>
</event>
<event>
 5    1  0.3257199E-002  0.1249918E+03  0.7818608E-02  0.1235082E+00
         -4   -1    0    0    0  501 -0.00000000000E+00  0.00000000000E+00  0.32929840362E+03  0.32930085260E+03  0.12700000000E+01 0. -1.
          4   -1    0    0  501    0  0.00000000000E+00 -0.00000000000E+00 -0.11824281468E+02  0.11892288772E+02  0.12700000000E+01 0. -1.
         25    2    1    2    0    0  0.00000000000E+00  0.00000000000E+00  0.31747412215E+03  0.34119314138E+03  0.12499176567E+03 0.  0.
    9000005    1    3    3    0    0 -0.36184474254E+02  0.49403595170E+02  0.12478472734E+03  0.13900453076E+03  0.10000000000E+01 0.  0.
    9000005    1    3    3    0    0  0.36184474254E+02 -0.49403595170E+02  0.19268939481E+03  0.20218861062E+03  0.10000000000E+01 0.  0.
<mgrwt>
<rscale>  0 0.12499177E+03</rscale>
<asrwt>0</asrwt>
<pdfrwt beam="2">  1        4 0.18245398E-02 0.12499177E+03</pdfrwt>
<pdfrwt beam="1">  1       -4 0.50666717E-01 0.12499177E+03</pdfrwt>
<totfact> 0.70717296E+03</totfact>
</mgrwt>
</event>
<event>
 5    1  0.3257199E-002  0.1249965E+03  0.7818608E-02  0.1235075E+00
         -4   -1    0    0    0  501 -0.00000000000E+00  0.00000000000E+00  0.32658789252E+02  0.32683473123E+02  0.12700000000E+01 0. -1.
          4   -1    0    0  501    0  0.00000000000E+00 -0.00000000000E+00 -0.11952795324E+03  0.11953470001E+03  0.12700000000E+01 0. -1.
         25    2    1    2    0    0  0.00000000000E+00  0.00000000000E+00 -0.86869163989E+02  0.15221817313E+03  0.12499648227E+03 0.  0.
    9000005    1    3    3    0    0  0.29945215572E+02 -0.31714959326E+02 -0.97929038679E+02  0.10720844742E+03  0.10000000000E+01 0.  0.
    9000005    1    3    3    0    0 -0.29945215572E+02  0.31714959326E+02  0.11059874690E+02  0.45009725714E+02  0.10000000000E+01 0.  0.
<mgrwt>
<rscale>  0 0.12499648E+03</rscale>
<asrwt>0</asrwt>
<pdfrwt beam="2">  1        4 0.18391333E-01 0.12499648E+03</pdfrwt>
<pdfrwt beam="1">  1       -4 0.50268469E-02 0.12499648E+03</pdfrwt>
<totfact> 0.98871188E+03</totfact>
</mgrwt>
</event>
<event>
 5    1  0.3257199E-002  0.1250000E+03  0.7818608E-02  0.1235069E+00
         -4   -1    0    0    0  501 -0.00000000000E+00  0.00000000000E+00  0.25717226548E+02  0.25748565811E+02  0.12700000000E+01 0. -1.
          4   -1    0    0  501    0  0.00000000000E+00 -0.00000000000E+00 -0.15176578388E+03  0.15177109756E+03  0.12700000000E+01 0. -1.
         25    2    1    2    0    0  0.00000000000E+00  0.00000000000E+00 -0.12604855733E+03  0.17751966337E+03  0.12499996832E+03 0.  0.
    9000005    1    3    3    0    0  0.28261591531E+02 -0.46324132563E+02 -0.19008434967E+02  0.57506203260E+02  0.10000000000E+01 0.  0.
    9000005    1    3    3    0    0 -0.28261591531E+02  0.46324132563E+02 -0.10704012236E+03  0.12001346011E+03  0.10000000000E+01 0.  0.
<mgrwt>
<rscale>  0 0.12499997E+03</rscale>
<asrwt>0</asrwt>
<pdfrwt beam="2">  1        4 0.23351401E-01 0.12499997E+03</pdfrwt>
<pdfrwt beam="1">  1       -4 0.39593160E-02 0.12499997E+03</pdfrwt>
<totfact> 0.94065454E+03</totfact>
</mgrwt>
</event>
<event>
 5    1  0.3257199E-002  0.1250077E+03  0.7818608E-02  0.1235057E+00
         -4   -1    0    0    0  501 -0.00000000000E+00  0.00000000000E+00  0.33536082524E+03  0.33536322996E+03  0.12700000000E+01 0.  1.
          4   -1    0    0  501    0  0.00000000000E+00 -0.00000000000E+00 -0.11612266381E+02  0.11681508058E+02  0.12700000000E+01 0.  1.
         25    2    1    2    0    0  0.00000000000E+00  0.00000000000E+00  0.32374855886E+03  0.34704473802E+03  0.12500768304E+03 0.  0.
    9000005    1    3    3    0    0  0.35613638016E+02 -0.46902997594E+02  0.21994292046E+03  0.22769301846E+03  0.10000000000E+01 0.  0.
    9000005    1    3    3    0    0 -0.35613638016E+02  0.46902997594E+02  0.10380563840E+03  0.11935171955E+03  0.10000000000E+01 0.  0.
<mgrwt>
<rscale>  0 0.12500768E+03</rscale>
<asrwt>0</asrwt>
<pdfrwt beam="2">  1        4 0.17920139E-02 0.12500768E+03</pdfrwt>
<pdfrwt beam="1">  1       -4 0.51599481E-01 0.12500768E+03</pdfrwt>
<totfact> 0.70038988E+03</totfact>
</mgrwt>
</event>
<event>
 5    1  0.3257199E-002  0.1249741E+03  0.7818608E-02  0.1235110E+00
         -4   -1    0    0    0  501 -0.00000000000E+00  0.00000000000E+00  0.33534319338E+03  0.33534559822E+03  0.12700000000E+01 0. -1.
          4   -1    0    0  501    0  0.00000000000E+00 -0.00000000000E+00 -0.11606612581E+02  0.11675887787E+02  0.12700000000E+01 0. -1.
         25    2    1    2    0    0  0.00000000000E+00  0.00000000000E+00  0.32373658080E+03  0.34702148601E+03  0.12497414934E+03 0.  0.
    9000005    1    3    3    0    0 -0.26567563964E+02 -0.49038228830E+02  0.83671887072E+02  0.10056126505E+03  0.10000000000E+01 0.  0.
    9000005    1    3    3    0    0  0.26567563964E+02  0.49038228830E+02  0.24006469372E+03  0.24646022096E+03  0.10000000000E+01 0.  0.
<mgrwt>
<rscale>  0 0.12497415E+03</rscale>
<asrwt>0</asrwt>
<pdfrwt beam="2">  1        4 0.17911470E-02 0.12497415E+03</pdfrwt>
<pdfrwt beam="1">  1       -4 0.51596761E-01 0.12497415E+03</pdfrwt>
<totfact> 0.70093582E+03</totfact>
</mgrwt>
</event>
<event>
 5    1  0.3257199E-002  0.1249967E+03  0.7818608E-02  0.1235074E+00
          4   -1    0    0  501    0  0.00000000000E+00  0.00000000000E+00  0.33881565924E+02  0.33905359598E+02  0.12700000000E+01 0. -1.
         -4   -1    0    0    0  501 -0.00000000000E+00 -0.00000000000E+00 -0.11521739046E+03  0.11522438962E+03  0.12700000000E+01 0. -1.
         25    2    1    2    0    0  0.00000000000E+00  0.00000000000E+00 -0.81335824532E+02  0.14912974922E+03  0.12499666296E+03 0.  0.
    9000005    1    3    3    0    0 -0.51878868035E+02  0.33891265401E+02 -0.50287238555E+02  0.79811284794E+02  0.10000000000E+01 0.  0.
    9000005    1    3    3    0    0  0.51878868035E+02 -0.33891265401E+02 -0.31048585978E+02  0.69318464425E+02  0.10000000000E+01 0.  0.
<mgrwt>
<rscale>  0 0.12499666E+03</rscale>
<asrwt>0</asrwt>
<pdfrwt beam="1">  1        4 0.52149173E-02 0.12499666E+03</pdfrwt>
<pdfrwt beam="2">  1       -4 0.17728121E-01 0.12499666E+03</pdfrwt>
<totfact> 0.99484925E+03</totfact>
</mgrwt>
</event>
<event>
 5    1  0.3257199E-002  0.1250019E+03  0.7818608E-02  0.1235066E+00
         -4   -1    0    0    0  501 -0.00000000000E+00  0.00000000000E+00  0.50549146504E+02  0.50565097768E+02  0.12700000000E+01 0. -1.
          4   -1    0    0  501    0  0.00000000000E+00 -0.00000000000E+00 -0.77245293881E+02  0.77255733293E+02  0.12700000000E+01 0. -1.
         25    2    1    2    0    0  0.00000000000E+00  0.00000000000E+00 -0.26696147377E+02  0.12782083106E+03  0.12500192226E+03 0.  0.
    9000005    1    3    3    0    0  0.61956464933E+01  0.62145791823E+02 -0.15608042024E+02  0.64382423475E+02  0.10000000000E+01 0.  0.
    9000005    1    3    3    0    0 -0.61956464933E+01 -0.62145791823E+02 -0.11088105353E+02  0.63438407586E+02  0.10000000000E+01 0.  0.
<mgrwt>
<rscale>  0 0.12500192E+03</rscale>
<asrwt>0</asrwt>
<pdfrwt beam="2">  1        4 0.11885921E-01 0.12500192E+03</pdfrwt>
<pdfrwt beam="1">  1       -4 0.77788218E-02 0.12500192E+03</pdfrwt>
<totfact> 0.10390908E+04</totfact>
</mgrwt>
</event>
<event>
 5    1  0.3257199E-002  0.1250087E+03  0.7818608E-02  0.1235056E+00
         -4   -1    0    0    0  501 -0.00000000000E+00  0.00000000000E+00  0.19439024647E+03  0.19439439504E+03  0.12700000000E+01 0. -1.
          4   -1    0    0  501    0  0.00000000000E+00 -0.00000000000E+00 -0.20073251597E+02  0.20113386828E+02  0.12700000000E+01 0. -1.
         25    2    1    2    0    0  0.00000000000E+00  0.00000000000E+00  0.17431699487E+03  0.21450778187E+03  0.12500869482E+03 0.  0.
    9000005    1    3    3    0    0 -0.57844665028E+02 -0.23228952482E+02  0.79445541323E+02  0.10098605617E+03  0.10000000000E+01 0.  0.
    9000005    1    3    3    0    0  0.57844665028E+02  0.23228952482E+02  0.94871453548E+02  0.11352172569E+03  0.10000000000E+01 0.  0.
<mgrwt>
<rscale>  0 0.12500869E+03</rscale>
<asrwt>0</asrwt>
<pdfrwt beam="2">  1        4 0.30915989E-02 0.12500869E+03</pdfrwt>
<pdfrwt beam="1">  1       -4 0.29909599E-01 0.12500869E+03</pdfrwt>
<totfact> 0.87727903E+03</totfact>
</mgrwt>
</event>
<event>
 5    1  0.3257199E-002  0.1249973E+03  0.7818608E-02  0.1235073E+00
         -4   -1    0    0    0  501 -0.00000000000E+00  0.00000000000E+00  0.18666762415E+03  0.18667194435E+03  0.12700000000E+01 0.  1.
          4   -1    0    0  501    0  0.00000000000E+00 -0.00000000000E+00 -0.20901492887E+02  0.20940040710E+02  0.12700000000E+01 0.  1.
         25    2    1    2    0    0  0.00000000000E+00  0.00000000000E+00  0.16576613126E+03  0.20761198506E+03  0.12499730423E+03 0.  0.
    9000005    1    3    3    0    0 -0.31068435040E+02  0.41963398022E+02  0.25854616235E+02  0.58272082595E+02  0.10000000000E+01 0.  0.
    9000005    1    3    3    0    0  0.31068435040E+02 -0.41963398022E+02  0.13991151503E+03  0.14933990246E+03  0.10000000000E+01 0.  0.
<mgrwt>
<rscale>  0 0.12499730E+03</rscale>
<asrwt>0</asrwt>
<pdfrwt beam="2">  1        4 0.32189118E-02 0.12499730E+03</pdfrwt>
<pdfrwt beam="1">  1       -4 0.28721394E-01 0.12499730E+03</pdfrwt>
<totfact> 0.88872722E+03</totfact>
</mgrwt>
</event>
<event>
 5    1  0.3257199E-002  0.1249933E+03  0.7818608E-02  0.1235080E+00
         -4   -1    0    0    0  501 -0.00000000000E+00  0.00000000000E+00  0.31510708513E+03  0.31510964440E+03  0.12700000000E+01 0.  1.
          4   -1    0    0  501    0  0.00000000000E+00 -0.00000000000E+00 -0.12360104159E+02  0.12425179066E+02  0.12700000000E+01 0.  1.
         25    2    1    2    0    0  0.00000000000E+00  0.00000000000E+00  0.30274698097E+03  0.32753482347E+03  0.12499330422E+03 0.  0.
    9000005    1    3    3    0    0 -0.12704280054E+00 -0.56805049095E+02  0.83141797076E+02  0.10069949436E+03  0.10000000000E+01 0.  0.
    9000005    1    3    3    0    0  0.12704280054E+00  0.56805049095E+02  0.21960518389E+03  0.22683532911E+03  0.10000000000E+01 0.  0.
<mgrwt>
<rscale>  0 0.12499330E+03</rscale>
<asrwt>0</asrwt>
<pdfrwt beam="2">  1        4 0.19067575E-02 0.12499330E+03</pdfrwt>
<pdfrwt beam="1">  1       -4 0.48483206E-01 0.12499330E+03</pdfrwt>
<totfact> 0.72279558E+03</totfact>
</mgrwt>
</event>
<event>
 5    1  0.3257199E-002  0.1250084E+03  0.7818608E-02  0.1235056E+00
          4   -1    0    0  501    0  0.00000000000E+00  0.00000000000E+00  0.22701797461E+03  0.22702152694E+03  0.12700000000E+01 0. -1.
         -4   -1    0    0    0  501 -0.00000000000E+00 -0.00000000000E+00 -0.17181980595E+02  0.17228852462E+02  0.12700000000E+01 0. -1.
         25    2    1    2    0    0  0.00000000000E+00  0.00000000000E+00  0.20983599401E+03  0.24425037940E+03  0.12500841354E+03 0.  0.
    9000005    1    3    3    0    0  0.54515789030E+01 -0.15411113170E+02 -0.12940364816E+02  0.20872833139E+02  0.10000000000E+01 0.  0.
    9000005    1    3    3    0    0 -0.54515789030E+01  0.15411113170E+02  0.22277635883E+03  0.22337754626E+03  0.10000000000E+01 0.  0.
<mgrwt>
<rscale>  0 0.12500841E+03</rscale>
<asrwt>0</asrwt>
<pdfrwt beam="1">  1        4 0.34929720E-01 0.12500841E+03</pdfrwt>
<pdfrwt beam="2">  1       -4 0.26472605E-02 0.12500841E+03</pdfrwt>
<totfact> 0.83152801E+03</totfact>
</mgrwt>
</event>
<event>
 4    1  0.3257199E-002  0.1251867E+03  0.7818608E-02  0.1234778E+00
         -4   -1    0    0    0  501 -0.00000000000E+00  0.00000000000E+00  0.47837413852E+02  0.47854269027E+02  0.12700000000E+01 0. -1.
          4   -1    0    0  501    0  0.00000000000E+00 -0.00000000000E+00 -0.81864730238E+02  0.81874580652E+02  0.12700000000E+01 0. -1.
    9000005    1    1    2    0    0  0.44741510695E+02 -0.17380757554E+02 -0.58633483727E+02  0.75781125133E+02  0.10000000000E+01 0.  0.
    9000005    1    1    2    0    0 -0.44741510695E+02  0.17380757554E+02  0.24606167342E+02  0.53947724546E+02  0.10000000000E+01 0.  0.
<mgrwt>
<rscale>  0 0.12518673E+03</rscale>
<asrwt>0</asrwt>
<pdfrwt beam="2">  1        4 0.12596628E-01 0.12518673E+03</pdfrwt>
<pdfrwt beam="1">  1       -4 0.73616564E-02 0.12518673E+03</pdfrwt>
<totfact> 0.10306806E+04</totfact>
</mgrwt>
</event>
<event>
 5    1  0.3257199E-002  0.1249999E+03  0.7818608E-02  0.1235069E+00
          4   -1    0    0  501    0  0.00000000000E+00  0.00000000000E+00  0.93179927272E+02  0.93188581631E+02  0.12700000000E+01 0.  1.
         -4   -1    0    0    0  501 -0.00000000000E+00 -0.00000000000E+00 -0.41901293733E+02  0.41920535737E+02  0.12700000000E+01 0.  1.
         25    2    1    2    0    0  0.00000000000E+00  0.00000000000E+00  0.51278633539E+02  0.13510911737E+03  0.12499990135E+03 0.  0.
    9000005    1    3    3    0    0 -0.43661505057E+02  0.54941160877E+00  0.73960721753E+02  0.85894221221E+02  0.10000000000E+01 0.  0.
    9000005    1    3    3    0    0  0.43661505057E+02 -0.54941160877E+00 -0.22682088214E+02  0.49214896146E+02  0.10000000000E+01 0.  0.
<mgrwt>
<rscale>  0 0.12499990E+03</rscale>
<asrwt>0</asrwt>
<pdfrwt beam="1">  1        4 0.14337519E-01 0.12499990E+03</pdfrwt>
<pdfrwt beam="2">  1       -4 0.64484988E-02 0.12499990E+03</pdfrwt>
<totfact> 0.10235794E+04</totfact>
</mgrwt>
</event>
<event>
 5    1  0.3257199E-002  0.1249994E+03  0.7818608E-02  0.1235070E+00
          4   -1    0    0  501    0  0.00000000000E+00  0.00000000000E+00  0.14306468835E+02  0.14362727824E+02  0.12700000000E+01 0.  1.
         -4   -1    0    0    0  501 -0.00000000000E+00 -0.00000000000E+00 -0.27244455707E+03  0.27244751710E+03  0.12700000000E+01 0.  1.
         25    2    1    2    0    0  0.00000000000E+00  0.00000000000E+00 -0.25813808823E+03  0.28681024493E+03  0.12499937599E+03 0.  0.
    9000005    1    3    3    0    0 -0.53300732574E+02 -0.24835296811E+02 -0.17760454628E+03  0.18708857507E+03  0.10000000000E+01 0.  0.
    9000005    1    3    3    0    0  0.53300732574E+02  0.24835296811E+02 -0.80533541951E+02  0.99721669861E+02  0.10000000000E+01 0.  0.
<mgrwt>
<rscale>  0 0.12499938E+03</rscale>
<asrwt>0</asrwt>
<pdfrwt beam="1">  1        4 0.22055507E-02 0.12499938E+03</pdfrwt>
<pdfrwt beam="2">  1       -4 0.41919099E-01 0.12499938E+03</pdfrwt>
<totfact> 0.77284769E+03</totfact>
</mgrwt>
</event>
<event>
 5    1  0.3257199E-002  0.1249997E+03  0.7818608E-02  0.1235070E+00
         -4   -1    0    0    0  501 -0.00000000000E+00  0.00000000000E+00  0.57125061881E+02  0.57139177409E+02  0.12700000000E+01 0. -1.
          4   -1    0    0  501    0  0.00000000000E+00 -0.00000000000E+00 -0.68351904787E+02  0.68363702269E+02  0.12700000000E+01 0. -1.
         25    2    1    2    0    0  0.00000000000E+00  0.00000000000E+00 -0.11226842906E+02  0.12550287968E+03  0.12499972322E+03 0.  0.
    9000005    1    3    3    0    0 -0.56116636857E+02  0.18402013296E+02  0.14902175248E+02  0.60916219947E+02  0.10000000000E+01 0.  0.
    9000005    1    3    3    0    0  0.56116636857E+02 -0.18402013296E+02 -0.26129018153E+02  0.64586659731E+02  0.10000000000E+01 0.  0.
<mgrwt>
<rscale>  0 0.12499972E+03</rscale>
<asrwt>0</asrwt>
<pdfrwt beam="2">  1        4 0.10517671E-01 0.12499972E+03</pdfrwt>
<pdfrwt beam="1">  1       -4 0.87904644E-02 0.12499972E+03</pdfrwt>
<totfact> 0.10441956E+04</totfact>
</mgrwt>
</event>
<event>
 5    1  0.3257199E-002  0.1250031E+03  0.7818608E-02  0.1235064E+00
         -4   -1    0    0    0  501 -0.00000000000E+00  0.00000000000E+00  0.80772669268E+02  0.80782652845E+02  0.12700000000E+01 0.  1.
          4   -1    0    0  501    0  0.00000000000E+00 -0.00000000000E+00 -0.48342123780E+02  0.48358803041E+02  0.12700000000E+01 0.  1.
         25    2    1    2    0    0  0.00000000000E+00  0.00000000000E+00  0.32430545488E+02  0.12914145589E+03  0.12500310135E+03 0.  0.
    9000005    1    3    3    0    0 -0.92068432956E+01  0.55368661896E+01  0.79816529515E+02  0.80542543009E+02  0.10000000000E+01 0.  0.
    9000005    1    3    3    0    0  0.92068432956E+01 -0.55368661896E+01 -0.47385984027E+02  0.48598912877E+02  0.10000000000E+01 0.  0.
<mgrwt>
<rscale>  0 0.12500310E+03</rscale>
<asrwt>0</asrwt>
<pdfrwt beam="2">  1        4 0.74393008E-02 0.12500310E+03</pdfrwt>
<pdfrwt beam="1">  1       -4 0.12428615E-01 0.12500310E+03</pdfrwt>
<totfact> 0.10362183E+04</totfact>
</mgrwt>
</event>
<event>
 5    1  0.3257199E-002  0.1250049E+03  0.7818608E-02  0.1235062E+00
          4   -1    0    0  501    0  0.00000000000E+00  0.00000000000E+00  0.51817241757E+03  0.51817397391E+03  0.12700000000E+01 0. -1.
         -4   -1    0    0    0  501 -0.00000000000E+00 -0.00000000000E+00 -0.74840444469E+01  0.75910355870E+01  0.12700000000E+01 0. -1.
         25    2    1    2    0    0  0.00000000000E+00  0.00000000000E+00  0.51068837313E+03  0.52576500949E+03  0.12500492295E+03 0.  0.
    9000005    1    3    3    0    0 -0.56056247027E+02  0.32213285921E+01  0.13993859859E+03  0.15078624329E+03  0.10000000000E+01 0.  0.
    9000005    1    3    3    0    0  0.56056247027E+02 -0.32213285921E+01  0.37074977453E+03  0.37497876620E+03  0.10000000000E+01 0.  0.
<mgrwt>
<rscale>  0 0.12500492E+03</rscale>
<asrwt>0</asrwt>
<pdfrwt beam="1">  1        4 0.79727188E-01 0.12500492E+03</pdfrwt>
<pdfrwt beam="2">  1       -4 0.11597412E-02 0.12500492E+03</pdfrwt>
<totfact> 0.53913468E+03</totfact>
</mgrwt>
</event>
<event>
 5    1  0.3257199E-002  0.1250004E+03  0.7818608E-02  0.1235069E+00
         -4   -1    0    0    0  501 -0.00000000000E+00  0.00000000000E+00  0.59477353450E+01  0.60818135234E+01  0.12700000000E+01 0.  1.
          4   -1    0    0  501    0  0.00000000000E+00 -0.00000000000E+00 -0.64931171981E+03  0.64931296181E+03  0.12700000000E+01 0.  1.
         25    2    1    2    0    0  0.00000000000E+00  0.00000000000E+00 -0.64336398446E+03  0.65539477533E+03  0.12500038014E+03 0.  0.
    9000005    1    3    3    0    0 -0.27459490362E+02  0.42269800091E+02 -0.12800382678E+03  0.13757448630E+03  0.10000000000E+01 0.  0.
    9000005    1    3    3    0    0  0.27459490362E+02 -0.42269800091E+02 -0.51536015768E+03  0.51782028903E+03  0.10000000000E+01 0.  0.
<mgrwt>
<rscale>  0 0.12500038E+03</rscale>
<asrwt>0</asrwt>
<pdfrwt beam="2">  1        4 0.99904465E-01 0.12500038E+03</pdfrwt>
<pdfrwt beam="1">  1       -4 0.92544596E-03 0.12500038E+03</pdfrwt>
<totfact> 0.45547166E+03</totfact>
</mgrwt>
</event>
<event>
 5    1  0.3257199E-002  0.1249974E+03  0.7818608E-02  0.1235073E+00
         -4   -1    0    0    0  501 -0.00000000000E+00  0.00000000000E+00  0.16864328015E+03  0.16864806207E+03  0.12700000000E+01 0.  1.
          4   -1    0    0  501    0  0.00000000000E+00 -0.00000000000E+00 -0.23139312954E+02  0.23174138689E+02  0.12700000000E+01 0.  1.
         25    2    1    2    0    0  0.00000000000E+00  0.00000000000E+00  0.14550396719E+03  0.19182220076E+03  0.12499740891E+03 0.  0.
    9000005    1    3    3    0    0  0.19480562865E+02  0.56981567618E+02  0.47132890202E+02  0.76478106125E+02  0.10000000000E+01 0.  0.
    9000005    1    3    3    0    0 -0.19480562865E+02 -0.56981567618E+02  0.98371076993E+02  0.11534409463E+03  0.10000000000E+01 0.  0.
<mgrwt>
<rscale>  0 0.12499741E+03</rscale>
<asrwt>0</asrwt>
<pdfrwt beam="2">  1        4 0.35629411E-02 0.12499741E+03</pdfrwt>
<pdfrwt beam="1">  1       -4 0.25948166E-01 0.12499741E+03</pdfrwt>
<totfact> 0.91536533E+03</totfact>
</mgrwt>
</event>
<event>
 5    1  0.3257199E-002  0.1250011E+03  0.7818608E-02  0.1235068E+00
          4   -1    0    0  501    0  0.00000000000E+00  0.00000000000E+00  0.43173024701E+01  0.45002222854E+01  0.12700000000E+01 0.  1.
         -4   -1    0    0    0  501 -0.00000000000E+00 -0.00000000000E+00 -0.88585200035E+03  0.88585291071E+03  0.12700000000E+01 0.  1.
         25    2    1    2    0    0  0.00000000000E+00  0.00000000000E+00 -0.88153469788E+03  0.89035313300E+03  0.12500111151E+03 0.  0.
    9000005    1    3    3    0    0 -0.91842349041E+01 -0.46213083866E+02 -0.73317560243E+03  0.73468868460E+03  0.10000000000E+01 0.  0.
    9000005    1    3    3    0    0  0.91842349041E+01  0.46213083866E+02 -0.14835909545E+03  0.15566444840E+03  0.10000000000E+01 0.  0.
<mgrwt>
<rscale>  0 0.12500111E+03</rscale>
<asrwt>0</asrwt>
<pdfrwt beam="1">  1        4 0.67834187E-03 0.12500111E+03</pdfrwt>
<pdfrwt beam="2">  1       -4 0.13629892E+00 0.12500111E+03</pdfrwt>
<totfact> 0.34529625E+03</totfact>
</mgrwt>
</event>
<event>
 5    1  0.3257199E-002  0.1249855E+03  0.7818608E-02  0.1235092E+00
          4   -1    0    0  501    0  0.00000000000E+00  0.00000000000E+00  0.20442573095E+02  0.20481984639E+02  0.12700000000E+01 0.  1.
         -4   -1    0    0    0  501 -0.00000000000E+00 -0.00000000000E+00 -0.19081437442E+03  0.19081860073E+03  0.12700000000E+01 0.  1.
         25    2    1    2    0    0  0.00000000000E+00  0.00000000000E+00 -0.17037180132E+03  0.21130058537E+03  0.12498554593E+03 0.  0.
    9000005    1    3    3    0    0 -0.34689001497E+01 -0.50191085484E+02 -0.22538536961E+02  0.55137682021E+02  0.10000000000E+01 0.  0.
    9000005    1    3    3    0    0  0.34689001497E+01  0.50191085484E+02 -0.14783326436E+03  0.15616290335E+03  0.10000000000E+01 0.  0.
<mgrwt>
<rscale>  0 0.12498555E+03</rscale>
<asrwt>0</asrwt>
<pdfrwt beam="1">  1        4 0.31483681E-02 0.12498555E+03</pdfrwt>
<pdfrwt beam="2">  1       -4 0.29359413E-01 0.12498555E+03</pdfrwt>
<totfact> 0.88292443E+03</totfact>
</mgrwt>
</event>
<event>
 5    1  0.3257199E-002  0.1249998E+03  0.7818608E-02  0.1235070E+00
         -4   -1    0    0    0  501 -0.00000000000E+00  0.00000000000E+00  0.40463479559E+03  0.40463678862E+03  0.12700000000E+01 0.  1.
          4   -1    0    0  501    0  0.00000000000E+00 -0.00000000000E+00 -0.96099372594E+01  0.96934923598E+01  0.12700000000E+01 0.  1.
         25    2    1    2    0    0  0.00000000000E+00  0.00000000000E+00  0.39502485833E+03  0.41433028098E+03  0.12499977214E+03 0.  0.
    9000005    1    3    3    0    0  0.60798831853E+02 -0.12949373358E+02  0.21874986829E+03  0.22741303635E+03  0.10000000000E+01 0.  0.
    9000005    1    3    3    0    0 -0.60798831853E+02  0.12949373358E+02  0.17627499004E+03  0.18691724463E+03  0.10000000000E+01 0.  0.
<mgrwt>
<rscale>  0 0.12499977E+03</rscale>
<asrwt>0</asrwt>
<pdfrwt beam="2">  1        4 0.14850327E-02 0.12499977E+03</pdfrwt>
<pdfrwt beam="1">  1       -4 0.62258079E-01 0.12499977E+03</pdfrwt>
<totfact> 0.63182826E+03</totfact>
</mgrwt>
</event>
<event>
 5    1  0.3257199E-002  0.1249952E+03  0.7818608E-02  0.1235077E+00
          4   -1    0    0  501    0  0.00000000000E+00  0.00000000000E+00  0.16203724602E+02  0.16253417824E+02  0.12700000000E+01 0. -1.
         -4   -1    0    0    0  501 -0.00000000000E+00 -0.00000000000E+00 -0.24063213986E+03  0.24063549122E+03  0.12700000000E+01 0. -1.
         25    2    1    2    0    0  0.00000000000E+00  0.00000000000E+00 -0.22442841526E+03  0.25688890904E+03  0.12499519196E+03 0.  0.
    9000005    1    3    3    0    0 -0.17959708889E+02  0.27557446116E+02 -0.30182975901E+01  0.33046544451E+02  0.10000000000E+01 0.  0.
    9000005    1    3    3    0    0  0.17959708889E+02 -0.27557446116E+02 -0.22141011767E+03  0.22384236459E+03  0.10000000000E+01 0.  0.
<mgrwt>
<rscale>  0 0.12499519E+03</rscale>
<asrwt>0</asrwt>
<pdfrwt beam="1">  1        4 0.24969612E-02 0.12499519E+03</pdfrwt>
<pdfrwt beam="2">  1       -4 0.37024407E-01 0.12499519E+03</pdfrwt>
<totfact> 0.81353360E+03</totfact>
</mgrwt>
</event>
<event>
 5    1  0.3257199E-002  0.1250004E+03  0.7818608E-02  0.1235069E+00
         -4   -1    0    0    0  501 -0.00000000000E+00  0.00000000000E+00  0.40112015589E+02  0.40132115501E+02  0.12700000000E+01 0.  1.
          4   -1    0    0  501    0  0.00000000000E+00 -0.00000000000E+00 -0.97335452172E+02  0.97343737084E+02  0.12700000000E+01 0.  1.
         25    2    1    2    0    0  0.00000000000E+00  0.00000000000E+00 -0.57223436583E+02  0.13747585259E+03  0.12500035340E+03 0.  0.
    9000005    1    3    3    0    0 -0.61117828777E+02  0.12588867422E+02 -0.24897781954E+02  0.67192024256E+02  0.10000000000E+01 0.  0.
    9000005    1    3    3    0    0  0.61117828777E+02 -0.12588867422E+02 -0.32325654629E+02  0.70283828329E+02  0.10000000000E+01 0.  0.
<mgrwt>
<rscale>  0 0.12500035E+03</rscale>
<asrwt>0</asrwt>
<pdfrwt beam="2">  1        4 0.14976868E-01 0.12500035E+03</pdfrwt>
<pdfrwt beam="1">  1       -4 0.61732628E-02 0.12500035E+03</pdfrwt>
<totfact> 0.10186064E+04</totfact>
</mgrwt>
</event>
<event>
 5    1  0.3257199E-002  0.1250002E+03  0.7818608E-02  0.1235069E+00
          4   -1    0    0  501    0  0.00000000000E+00  0.00000000000E+00  0.21953122779E+02  0.21989827188E+02  0.12700000000E+01 0. -1.
         -4   -1    0    0    0  501 -0.00000000000E+00 -0.00000000000E+00 -0.17774886437E+03  0.17775340133E+03  0.12700000000E+01 0. -1.
         25    2    1    2    0    0  0.00000000000E+00  0.00000000000E+00 -0.15579574159E+03  0.19974322852E+03  0.12500017696E+03 0.  0.
    9000005    1    3    3    0    0 -0.14975620992E+02  0.70631659473E+01 -0.17418777460E+03  0.17497582221E+03  0.10000000000E+01 0.  0.
    9000005    1    3    3    0    0  0.14975620992E+02 -0.70631659473E+01  0.18392033007E+02  0.24767406312E+02  0.10000000000E+01 0.  0.
<mgrwt>
<rscale>  0 0.12500018E+03</rscale>
<asrwt>0</asrwt>
<pdfrwt beam="1">  1        4 0.33805760E-02 0.12500018E+03</pdfrwt>
<pdfrwt beam="2">  1       -4 0.27349151E-01 0.12500018E+03</pdfrwt>
<totfact> 0.90178474E+03</totfact>
</mgrwt>
</event>
<event>
 5    1  0.3257199E-002  0.1250002E+03  0.7818608E-02  0.1235069E+00
          4   -1    0    0  501    0  0.00000000000E+00  0.00000000000E+00  0.13933683071E+03  0.13934261836E+03  0.12700000000E+01 0. -1.
         -4   -1    0    0    0  501 -0.00000000000E+00 -0.00000000000E+00 -0.28013911395E+02  0.28042684102E+02  0.12700000000E+01 0. -1.
         25    2    1    2    0    0  0.00000000000E+00  0.00000000000E+00  0.11132291931E+03  0.16738530246E+03  0.12500018846E+03 0.  0.
    9000005    1    3    3    0    0 -0.52298589644E+02 -0.33995447485E+02  0.60748000340E+02  0.87075556121E+02  0.10000000000E+01 0.  0.
    9000005    1    3    3    0    0  0.52298589644E+02  0.33995447485E+02  0.50574918970E+02  0.80309746340E+02  0.10000000000E+01 0.  0.
<mgrwt>
<rscale>  0 0.12500019E+03</rscale>
<asrwt>0</asrwt>
<pdfrwt beam="1">  1        4 0.21439094E-01 0.12500019E+03</pdfrwt>
<pdfrwt beam="2">  1       -4 0.43124910E-02 0.12500019E+03</pdfrwt>
<totfact> 0.95937145E+03</totfact>
</mgrwt>
</event>
<event>
 5    1  0.3257199E-002  0.1250123E+03  0.7818608E-02  0.1235050E+00
          4   -1    0    0  501    0  0.00000000000E+00  0.00000000000E+00  0.20825002195E+03  0.20825389443E+03  0.12700000000E+01 0.  1.
         -4   -1    0    0    0  501 -0.00000000000E+00 -0.00000000000E+00 -0.18735645810E+02  0.18778640098E+02  0.12700000000E+01 0.  1.
         25    2    1    2    0    0  0.00000000000E+00  0.00000000000E+00  0.18951437614E+03  0.22703253452E+03  0.12501229126E+03 0.  0.
    9000005    1    3    3    0    0  0.52777321510E+02  0.31177599020E+02  0.11689029183E+03  0.13199177501E+03  0.10000000000E+01 0.  0.
    9000005    1    3    3    0    0 -0.52777321510E+02 -0.31177599020E+02  0.72624084313E+02  0.95040759512E+02  0.10000000000E+01 0.  0.
<mgrwt>
<rscale>  0 0.12501229E+03</rscale>
<asrwt>0</asrwt>
<pdfrwt beam="1">  1        4 0.32042069E-01 0.12501229E+03</pdfrwt>
<pdfrwt beam="2">  1       -4 0.28860122E-02 0.12501229E+03</pdfrwt>
<totfact> 0.85743824E+03</totfact>
</mgrwt>
</event>
<event>
 5    1  0.3257199E-002  0.1249990E+03  0.7818608E-02  0.1235071E+00
          4   -1    0    0  501    0  0.00000000000E+00  0.00000000000E+00  0.14053247848E+02  0.14110516471E+02  0.12700000000E+01 0. -1.
         -4   -1    0    0    0  501 -0.00000000000E+00 -0.00000000000E+00 -0.27733224939E+03  0.27733515725E+03  0.12700000000E+01 0. -1.
         25    2    1    2    0    0  0.00000000000E+00  0.00000000000E+00 -0.26327900154E+03  0.29144567373E+03  0.12499899233E+03 0.  0.
    9000005    1    3    3    0    0 -0.23462546163E+02 -0.55276939291E+02 -0.17196687167E+03  0.18215278214E+03  0.10000000000E+01 0.  0.
    9000005    1    3    3    0    0  0.23462546163E+02  0.55276939291E+02 -0.91312129870E+02  0.10929289159E+03  0.10000000000E+01 0.  0.
<mgrwt>
<rscale>  0 0.12499899E+03</rscale>
<asrwt>0</asrwt>
<pdfrwt beam="1">  1        4 0.21666673E-02 0.12499899E+03</pdfrwt>
<pdfrwt beam="2">  1       -4 0.42671125E-01 0.12499899E+03</pdfrwt>
<totfact> 0.76686279E+03</totfact>
</mgrwt>
</event>
<event>
 5    1  0.3257199E-002  0.1250004E+03  0.7818608E-02  0.1235069E+00
          4   -1    0    0  501    0  0.00000000000E+00  0.00000000000E+00  0.43639332894E+02  0.43657808871E+02  0.12700000000E+01 0. -1.
         -4   -1    0    0    0  501 -0.00000000000E+00 -0.00000000000E+00 -0.89470853512E+02  0.89479866608E+02  0.12700000000E+01 0. -1.
         25    2    1    2    0    0  0.00000000000E+00  0.00000000000E+00 -0.45831520618E+02  0.13313767548E+03  0.12500044940E+03 0.  0.
    9000005    1    3    3    0    0  0.74405725343E+01  0.37718870774E+02 -0.75389549227E+02  0.84632496505E+02  0.10000000000E+01 0.  0.
    9000005    1    3    3    0    0 -0.74405725343E+01 -0.37718870774E+02  0.29558028608E+02  0.48505178974E+02  0.10000000000E+01 0.  0.
<mgrwt>
<rscale>  0 0.12500045E+03</rscale>
<asrwt>0</asrwt>
<pdfrwt beam="1">  1        4 0.67158581E-02 0.12500045E+03</pdfrwt>
<pdfrwt beam="2">  1       -4 0.13766861E-01 0.12500045E+03</pdfrwt>
<totfact> 0.10277371E+04</totfact>
</mgrwt>
</event>
<event>
 5    1  0.3257199E-002  0.1250067E+03  0.7818608E-02  0.1235059E+00
         -4   -1    0    0    0  501 -0.00000000000E+00  0.00000000000E+00  0.36060316833E+02  0.36082673822E+02  0.12700000000E+01 0. -1.
          4   -1    0    0  501    0  0.00000000000E+00 -0.00000000000E+00 -0.10827736757E+03  0.10828481532E+03  0.12700000000E+01 0. -1.
         25    2    1    2    0    0  0.00000000000E+00  0.00000000000E+00 -0.72217050739E+02  0.14436748914E+03  0.12500667783E+03 0.  0.
    9000005    1    3    3    0    0  0.56860575153E+02 -0.14408534706E+02 -0.61010455432E+02  0.84640454578E+02  0.10000000000E+01 0.  0.
    9000005    1    3    3    0    0 -0.56860575153E+02  0.14408534706E+02 -0.11206595307E+02  0.59727034561E+02  0.10000000000E+01 0.  0.
<mgrwt>
<rscale>  0 0.12500668E+03</rscale>
<asrwt>0</asrwt>
<pdfrwt beam="2">  1        4 0.16660349E-01 0.12500668E+03</pdfrwt>
<pdfrwt beam="1">  1       -4 0.55500338E-02 0.12500668E+03</pdfrwt>
<totfact> 0.10042345E+04</totfact>
</mgrwt>
</event>
<event>
 5    1  0.3257199E-002  0.1250008E+03  0.7818608E-02  0.1235068E+00
          4   -1    0    0  501    0  0.00000000000E+00  0.00000000000E+00  0.84718814286E+01  0.85665439321E+01  0.12700000000E+01 0. -1.
         -4   -1    0    0    0  501 -0.00000000000E+00 -0.00000000000E+00 -0.45843291373E+03  0.45843467288E+03  0.12700000000E+01 0. -1.
         25    2    1    2    0    0  0.00000000000E+00  0.00000000000E+00 -0.44996103231E+03  0.46700121681E+03  0.12500082362E+03 0.  0.
    9000005    1    3    3    0    0  0.41736100193E+02  0.46485153914E+02 -0.21903820557E+03  0.22777512395E+03  0.10000000000E+01 0.  0.
    9000005    1    3    3    0    0 -0.41736100193E+02 -0.46485153914E+02 -0.23092282674E+03  0.23922609286E+03  0.10000000000E+01 0.  0.
<mgrwt>
<rscale>  0 0.12500082E+03</rscale>
<asrwt>0</asrwt>
<pdfrwt beam="1">  1        4 0.13107838E-02 0.12500082E+03</pdfrwt>
<pdfrwt beam="2">  1       -4 0.70535538E-01 0.12500082E+03</pdfrwt>
<totfact> 0.58517711E+03</totfact>
</mgrwt>
</event>
<event>
 5    1  0.3257199E-002  0.1249993E+03  0.7818608E-02  0.1235070E+00
         -4   -1    0    0    0  501 -0.00000000000E+00  0.00000000000E+00  0.20503859261E+03  0.20504252574E+03  0.12700000000E+01 0. -1.
          4   -1    0    0  501    0  0.00000000000E+00 -0.00000000000E+00 -0.19025779852E+02  0.19068119964E+02  0.12700000000E+01 0. -1.
         25    2    1    2    0    0  0.00000000000E+00  0.00000000000E+00  0.18601281276E+03  0.22411064570E+03  0.12499926002E+03 0.  0.
    9000005    1    3    3    0    0 -0.27842028927E+02  0.50836386971E+02  0.13488834957E+03  0.14681751825E+03  0.10000000000E+01 0.  0.
    9000005    1    3    3    0    0  0.27842028927E+02 -0.50836386971E+02  0.51124463192E+02  0.77293127454E+02  0.10000000000E+01 0.  0.
<mgrwt>
<rscale>  0 0.12499926E+03</rscale>
<asrwt>0</asrwt>
<pdfrwt beam="2">  1        4 0.29306025E-02 0.12499926E+03</pdfrwt>
<pdfrwt beam="1">  1       -4 0.31547958E-01 0.12499926E+03</pdfrwt>
<totfact> 0.86223468E+03</totfact>
</mgrwt>
</event>
<event>
 5    1  0.3257199E-002  0.1250010E+03  0.7818608E-02  0.1235068E+00
          4   -1    0    0  501    0  0.00000000000E+00  0.00000000000E+00  0.14635158714E+02  0.14690158971E+02  0.12700000000E+01 0.  1.
         -4   -1    0    0    0  501 -0.00000000000E+00 -0.00000000000E+00 -0.26635573522E+03  0.26635876292E+03  0.12700000000E+01 0.  1.
         25    2    1    2    0    0  0.00000000000E+00  0.00000000000E+00 -0.25172057651E+03  0.28104892190E+03  0.12500099144E+03 0.  0.
    9000005    1    3    3    0    0 -0.72763939789E+01 -0.13281133722E+02  0.10458240691E+02  0.18431202365E+02  0.10000000000E+01 0.  0.
    9000005    1    3    3    0    0  0.72763939789E+01  0.13281133722E+02 -0.26217881720E+03  0.26261771953E+03  0.10000000000E+01 0.  0.
<mgrwt>
<rscale>  0 0.12500099E+03</rscale>
<asrwt>0</asrwt>
<pdfrwt beam="1">  1        4 0.22560268E-02 0.12500099E+03</pdfrwt>
<pdfrwt beam="2">  1       -4 0.40982266E-01 0.12500099E+03</pdfrwt>
<totfact> 0.78037513E+03</totfact>
</mgrwt>
</event>
<event>
 5    1  0.3257199E-002  0.1250039E+03  0.7818608E-02  0.1235063E+00
         -4   -1    0    0    0  501 -0.00000000000E+00  0.00000000000E+00  0.35462286026E+03  0.35462513436E+03  0.12700000000E+01 0. -1.
          4   -1    0    0  501    0  0.00000000000E+00 -0.00000000000E+00 -0.10976994579E+02  0.11050217645E+02  0.12700000000E+01 0. -1.
         25    2    1    2    0    0  0.00000000000E+00  0.00000000000E+00  0.34364586568E+03  0.36567535200E+03  0.12500392819E+03 0.  0.
    9000005    1    3    3    0    0  0.53450898573E+02  0.45638760158E+00  0.77109304761E+02  0.93829908498E+02  0.10000000000E+01 0.  0.
    9000005    1    3    3    0    0 -0.53450898573E+02 -0.45638760158E+00  0.26653656092E+03  0.27184544351E+03  0.10000000000E+01 0.  0.
<mgrwt>
<rscale>  0 0.12500393E+03</rscale>
<asrwt>0</asrwt>
<pdfrwt beam="2">  1        4 0.16945758E-02 0.12500393E+03</pdfrwt>
<pdfrwt beam="1">  1       -4 0.54563172E-01 0.12500393E+03</pdfrwt>
<totfact> 0.68027904E+03</totfact>
</mgrwt>
</event>
<event>
 5    1  0.3257199E-002  0.1249956E+03  0.7818608E-02  0.1235076E+00
         -4   -1    0    0    0  501 -0.00000000000E+00  0.00000000000E+00  0.23655312429E+03  0.23655653344E+03  0.12700000000E+01 0.  1.
          4   -1    0    0  501    0  0.00000000000E+00 -0.00000000000E+00 -0.16484086813E+02  0.16532937370E+02  0.12700000000E+01 0.  1.
         25    2    1    2    0    0  0.00000000000E+00  0.00000000000E+00  0.22006903748E+03  0.25308947081E+03  0.12499559583E+03 0.  0.
    9000005    1    3    3    0    0 -0.18102534051E+02  0.32513339891E+02  0.21168116550E+03  0.21492960437E+03  0.10000000000E+01 0.  0.
    9000005    1    3    3    0    0  0.18102534051E+02 -0.32513339891E+02  0.83878719827E+01  0.38159866435E+02  0.10000000000E+01 0.  0.
<mgrwt>
<rscale>  0 0.12499560E+03</rscale>
<asrwt>0</asrwt>
<pdfrwt beam="2">  1        4 0.25400335E-02 0.12499560E+03</pdfrwt>
<pdfrwt beam="1">  1       -4 0.36396805E-01 0.12499560E+03</pdfrwt>
<totfact> 0.81893778E+03</totfact>
</mgrwt>
</event>
<event>
 5    1  0.3257199E-002  0.1249990E+03  0.7818608E-02  0.1235071E+00
         -4   -1    0    0    0  501 -0.00000000000E+00  0.00000000000E+00  0.28511719562E+02  0.28539990406E+02  0.12700000000E+01 0.  1.
          4   -1    0    0  501    0  0.00000000000E+00 -0.00000000000E+00 -0.13690382111E+03  0.13690971162E+03  0.12700000000E+01 0.  1.
         25    2    1    2    0    0  0.00000000000E+00  0.00000000000E+00 -0.10839210155E+03  0.16544970202E+03  0.12499902488E+03 0.  0.
    9000005    1    3    3    0    0 -0.29510853016E+02  0.46843092051E+02 -0.92558386342E+02  0.10785740865E+03  0.10000000000E+01 0.  0.
    9000005    1    3    3    0    0  0.29510853016E+02 -0.46843092051E+02 -0.15833715208E+02  0.57592293373E+02  0.10000000000E+01 0.  0.
<mgrwt>
<rscale>  0 0.12499902E+03</rscale>
<asrwt>0</asrwt>
<pdfrwt beam="2">  1        4 0.21064754E-01 0.12499902E+03</pdfrwt>
<pdfrwt beam="1">  1       -4 0.43890463E-02 0.12499902E+03</pdfrwt>
<totfact> 0.96304403E+03</totfact>
</mgrwt>
</event>
<event>
 5    1  0.3257199E-002  0.1249897E+03  0.7818608E-02  0.1235085E+00
         -4   -1    0    0    0  501 -0.00000000000E+00  0.00000000000E+00  0.65046898207E+02  0.65059295003E+02  0.12700000000E+01 0. -1.
          4   -1    0    0  501    0  0.00000000000E+00 -0.00000000000E+00 -0.60018093046E+02  0.60031528324E+02  0.12700000000E+01 0. -1.
         25    2    1    2    0    0  0.00000000000E+00  0.00000000000E+00  0.50288051605E+01  0.12509082333E+03  0.12498970037E+03 0.  0.
    9000005    1    3    3    0    0  0.42261711806E+02  0.14057831215E+02  0.46378293358E+02  0.64308794096E+02  0.10000000000E+01 0.  0.
    9000005    1    3    3    0    0 -0.42261711806E+02 -0.14057831215E+02 -0.41349488198E+02  0.60782029231E+02  0.10000000000E+01 0.  0.
<mgrwt>
<rscale>  0 0.12498970E+03</rscale>
<asrwt>0</asrwt>
<pdfrwt beam="2">  1        4 0.92355399E-02 0.12498970E+03</pdfrwt>
<pdfrwt beam="1">  1       -4 0.10009202E-01 0.12498970E+03</pdfrwt>
<totfact> 0.10453323E+04</totfact>
</mgrwt>
</event>
<event>
 5    1  0.3257199E-002  0.1249981E+03  0.7818608E-02  0.1235072E+00
          4   -1    0    0  501    0  0.00000000000E+00  0.00000000000E+00  0.14089515429E+02  0.14146637234E+02  0.12700000000E+01 0.  1.
         -4   -1    0    0    0  501 -0.00000000000E+00 -0.00000000000E+00 -0.27661743398E+03  0.27662034937E+03  0.12700000000E+01 0.  1.
         25    2    1    2    0    0  0.00000000000E+00  0.00000000000E+00 -0.26252791855E+03  0.29076698660E+03  0.12499812989E+03 0.  0.
    9000005    1    3    3    0    0 -0.56674026617E+02 -0.21318636442E+02 -0.16720337678E+03  0.17783250197E+03  0.10000000000E+01 0.  0.
    9000005    1    3    3    0    0  0.56674026617E+02  0.21318636442E+02 -0.95324541777E+02  0.11293448463E+03  0.10000000000E+01 0.  0.
<mgrwt>
<rscale>  0 0.12499813E+03</rscale>
<asrwt>0</asrwt>
<pdfrwt beam="1">  1        4 0.21722362E-02 0.12499813E+03</pdfrwt>
<pdfrwt beam="2">  1       -4 0.42561143E-01 0.12499813E+03</pdfrwt>
<totfact> 0.76774992E+03</totfact>
</mgrwt>
</event>
<event>
 5    1  0.3257199E-002  0.1250056E+03  0.7818608E-02  0.1235061E+00
          4   -1    0    0  501    0  0.00000000000E+00  0.00000000000E+00  0.21056655055E+03  0.21057038042E+03  0.12700000000E+01 0. -1.
         -4   -1    0    0    0  501 -0.00000000000E+00 -0.00000000000E+00 -0.18527070807E+02  0.18570547991E+02  0.12700000000E+01 0. -1.
         25    2    1    2    0    0  0.00000000000E+00  0.00000000000E+00  0.19203947974E+03  0.22914092841E+03  0.12500561305E+03 0.  0.
    9000005    1    3    3    0    0 -0.28990234052E+02  0.52448496633E+02  0.12851805070E+03  0.14180679753E+03  0.10000000000E+01 0.  0.
    9000005    1    3    3    0    0  0.28990234052E+02 -0.52448496633E+02  0.63521429042E+02  0.87334130883E+02  0.10000000000E+01 0.  0.
<mgrwt>
<rscale>  0 0.12500561E+03</rscale>
<asrwt>0</asrwt>
<pdfrwt beam="1">  1        4 0.32398493E-01 0.12500561E+03</pdfrwt>
<pdfrwt beam="2">  1       -4 0.28539576E-02 0.12500561E+03</pdfrwt>
<totfact> 0.85430981E+03</totfact>
</mgrwt>
</event>
<event>
 5    1  0.3257199E-002  0.1250152E+03  0.7818608E-02  0.1235046E+00
          4   -1    0    0  501    0  0.00000000000E+00  0.00000000000E+00  0.24362773700E+02  0.24395852974E+02  0.12700000000E+01 0.  1.
         -4   -1    0    0    0  501 -0.00000000000E+00 -0.00000000000E+00 -0.16023142173E+03  0.16023645468E+03  0.12700000000E+01 0.  1.
         25    2    1    2    0    0  0.00000000000E+00  0.00000000000E+00 -0.13586864803E+03  0.18463230766E+03  0.12501519713E+03 0.  0.
    9000005    1    3    3    0    0 -0.39315860879E+02 -0.46167897851E+01 -0.13936319046E+03  0.14487977954E+03  0.10000000000E+01 0.  0.
    9000005    1    3    3    0    0  0.39315860879E+02  0.46167897851E+01  0.34945424330E+01  0.39752528114E+02  0.10000000000E+01 0.  0.
<mgrwt>
<rscale>  0 0.12501520E+03</rscale>
<asrwt>0</asrwt>
<pdfrwt beam="1">  1        4 0.37510508E-02 0.12501520E+03</pdfrwt>
<pdfrwt beam="2">  1       -4 0.24653919E-01 0.12501520E+03</pdfrwt>
<totfact> 0.92758160E+03</totfact>
</mgrwt>
</event>
<event>
 5    1  0.3257199E-002  0.1250001E+03  0.7818608E-02  0.1235069E+00
         -4   -1    0    0    0  501 -0.00000000000E+00  0.00000000000E+00  0.96642029562E+02  0.96650373914E+02  0.12700000000E+01 0. -1.
          4   -1    0    0  501    0  0.00000000000E+00 -0.00000000000E+00 -0.40399757493E+02  0.40419714317E+02  0.12700000000E+01 0. -1.
         25    2    1    2    0    0  0.00000000000E+00  0.00000000000E+00  0.56242272069E+02  0.13707008823E+03  0.12500006368E+03 0.  0.
    9000005    1    3    3    0    0  0.60599802659E+02 -0.12695989667E+02  0.37408278311E+02  0.72345722210E+02  0.10000000000E+01 0.  0.
    9000005    1    3    3    0    0 -0.60599802659E+02  0.12695989667E+02  0.18833993758E+02  0.64724366021E+02  0.10000000000E+01 0.  0.
<mgrwt>
<rscale>  0 0.12500006E+03</rscale>
<asrwt>0</asrwt>
<pdfrwt beam="2">  1        4 0.62175243E-02 0.12500006E+03</pdfrwt>
<pdfrwt beam="1">  1       -4 0.14870182E-01 0.12500006E+03</pdfrwt>
<totfact> 0.10194606E+04</totfact>
</mgrwt>
</event>
<event>
 5    1  0.3257199E-002  0.1249972E+03  0.7818608E-02  0.1235074E+00
         -4   -1    0    0    0  501 -0.00000000000E+00  0.00000000000E+00  0.30776486461E+03  0.30776748495E+03  0.12700000000E+01 0.  1.
          4   -1    0    0  501    0  0.00000000000E+00 -0.00000000000E+00 -0.12657289787E+02  0.12720844498E+02  0.12700000000E+01 0.  1.
         25    2    1    2    0    0  0.00000000000E+00  0.00000000000E+00  0.29510757482E+03  0.32048832944E+03  0.12499715433E+03 0.  0.
    9000005    1    3    3    0    0 -0.54763705761E+02  0.22774666459E+02  0.19801397667E+03  0.20670820946E+03  0.10000000000E+01 0.  0.
    9000005    1    3    3    0    0  0.54763705761E+02 -0.22774666459E+02  0.97093598152E+02  0.11378011998E+03  0.10000000000E+01 0.  0.
<mgrwt>
<rscale>  0 0.12499715E+03</rscale>
<asrwt>0</asrwt>
<pdfrwt beam="2">  1        4 0.19523657E-02 0.12499715E+03</pdfrwt>
<pdfrwt beam="1">  1       -4 0.47353533E-01 0.12499715E+03</pdfrwt>
<totfact> 0.73102690E+03</totfact>
</mgrwt>
</event>
<event>
 5    1  0.3257199E-002  0.1249992E+03  0.7818608E-02  0.1235071E+00
          4   -1    0    0  501    0  0.00000000000E+00  0.00000000000E+00  0.54825457654E+02  0.54840165089E+02  0.12700000000E+01 0.  1.
         -4   -1    0    0    0  501 -0.00000000000E+00 -0.00000000000E+00 -0.71217987421E+02  0.71229310205E+02  0.12700000000E+01 0.  1.
         25    2    1    2    0    0  0.00000000000E+00  0.00000000000E+00 -0.16392529767E+02  0.12606947529E+03  0.12499919027E+03 0.  0.
    9000005    1    3    3    0    0 -0.31819266604E+02  0.53679081826E+02 -0.11585070257E+02  0.63475376373E+02  0.10000000000E+01 0.  0.
    9000005    1    3    3    0    0  0.31819266604E+02 -0.53679081826E+02 -0.48074595094E+01  0.62594098921E+02  0.10000000000E+01 0.  0.
<mgrwt>
<rscale>  0 0.12499919E+03</rscale>
<asrwt>0</asrwt>
<pdfrwt beam="1">  1        4 0.84366881E-02 0.12499919E+03</pdfrwt>
<pdfrwt beam="2">  1       -4 0.10958616E-01 0.12499919E+03</pdfrwt>
<totfact> 0.10429626E+04</totfact>
</mgrwt>
</event>
<event>
 5    1  0.3257199E-002  0.1250579E+03  0.7818608E-02  0.1234979E+00
         -4   -1    0    0    0  501 -0.00000000000E+00  0.00000000000E+00  0.69829997399E+01  0.70975478419E+01  0.12700000000E+01 0. -1.
          4   -1    0    0  501    0  0.00000000000E+00 -0.00000000000E+00 -0.55524275154E+03  0.55524420397E+03  0.12700000000E+01 0. -1.
         25    2    1    2    0    0  0.00000000000E+00  0.00000000000E+00 -0.54825975180E+03  0.56234175181E+03  0.12505794810E+03 0.  0.
    9000005    1    3    3    0    0 -0.31480856826E+02 -0.46542251186E+01 -0.51612175337E+03  0.51710286255E+03  0.10000000000E+01 0.  0.
    9000005    1    3    3    0    0  0.31480856826E+02  0.46542251186E+01 -0.32137998428E+02  0.45238889254E+02  0.10000000000E+01 0.  0.
<mgrwt>
<rscale>  0 0.12505795E+03</rscale>
<asrwt>0</asrwt>
<pdfrwt beam="2">  1        4 0.85430851E-01 0.12505795E+03</pdfrwt>
<pdfrwt beam="1">  1       -4 0.10832312E-02 0.12505795E+03</pdfrwt>
<totfact> 0.51269170E+03</totfact>
</mgrwt>
</event>
<event>
 5    1  0.3257199E-002  0.1249950E+03  0.7818608E-02  0.1235077E+00
          4   -1    0    0  501    0  0.00000000000E+00  0.00000000000E+00  0.30725548828E+02  0.30751784514E+02  0.12700000000E+01 0.  1.
         -4   -1    0    0    0  501 -0.00000000000E+00 -0.00000000000E+00 -0.12703974238E+03  0.12704609023E+03  0.12700000000E+01 0.  1.
         25    2    1    2    0    0  0.00000000000E+00  0.00000000000E+00 -0.96314193548E+02  0.15779787474E+03  0.12499498148E+03 0.  0.
    9000005    1    3    3    0    0  0.22107927050E+01  0.51833270066E+02 -0.41823280808E+01  0.52058307294E+02  0.10000000000E+01 0.  0.
    9000005    1    3    3    0    0 -0.22107927050E+01 -0.51833270066E+02 -0.92131865468E+02  0.10573956745E+03  0.10000000000E+01 0.  0.
<mgrwt>
<rscale>  0 0.12499498E+03</rscale>
<asrwt>0</asrwt>
<pdfrwt beam="1">  1        4 0.47295140E-02 0.12499498E+03</pdfrwt>
<pdfrwt beam="2">  1       -4 0.19547082E-01 0.12499498E+03</pdfrwt>
<totfact> 0.97780057E+03</totfact>
</mgrwt>
</event>
<event>
 5    1  0.3257199E-002  0.1249991E+03  0.7818608E-02  0.1235071E+00
          4   -1    0    0  501    0  0.00000000000E+00  0.00000000000E+00  0.72822098570E+02  0.72833171976E+02  0.12700000000E+01 0. -1.
         -4   -1    0    0    0  501 -0.00000000000E+00 -0.00000000000E+00 -0.53617550149E+02  0.53632588824E+02  0.12700000000E+01 0. -1.
         25    2    1    2    0    0  0.00000000000E+00  0.00000000000E+00  0.19204548421E+02  0.12646576080E+03  0.12499909590E+03 0.  0.
    9000005    1    3    3    0    0 -0.41239194828E+02  0.25983951144E+02 -0.29963572869E+02  0.57224580436E+02  0.10000000000E+01 0.  0.
    9000005    1    3    3    0    0  0.41239194828E+02 -0.25983951144E+02  0.49168121289E+02  0.69241180364E+02  0.10000000000E+01 0.  0.
<mgrwt>
<rscale>  0 0.12499910E+03</rscale>
<asrwt>0</asrwt>
<pdfrwt beam="1">  1        4 0.11205408E-01 0.12499910E+03</pdfrwt>
<pdfrwt beam="2">  1       -4 0.82508625E-02 0.12499910E+03</pdfrwt>
<totfact> 0.10420987E+04</totfact>
</mgrwt>
</event>
<event>
 5    1  0.3257199E-002  0.1249981E+03  0.7818608E-02  0.1235072E+00
         -4   -1    0    0    0  501 -0.00000000000E+00  0.00000000000E+00  0.13176364938E+03  0.13176976967E+03  0.12700000000E+01 0.  1.
          4   -1    0    0  501    0  0.00000000000E+00 -0.00000000000E+00 -0.29624576742E+02  0.29651786576E+02  0.12700000000E+01 0.  1.
         25    2    1    2    0    0  0.00000000000E+00  0.00000000000E+00  0.10213907264E+03  0.16142155624E+03  0.12499811463E+03 0.  0.
    9000005    1    3    3    0    0  0.55792804111E+01  0.37276891406E+02 -0.13298769095E+02  0.39981899183E+02  0.10000000000E+01 0.  0.
    9000005    1    3    3    0    0 -0.55792804111E+01 -0.37276891406E+02  0.11543784173E+03  0.12143965706E+03  0.10000000000E+01 0.  0.
<mgrwt>
<rscale>  0 0.12499811E+03</rscale>
<asrwt>0</asrwt>
<pdfrwt beam="2">  1        4 0.45601912E-02 0.12499811E+03</pdfrwt>
<pdfrwt beam="1">  1       -4 0.20273894E-01 0.12499811E+03</pdfrwt>
<totfact> 0.97073532E+03</totfact>
</mgrwt>
</event>
<event>
 5    1  0.3257199E-002  0.1249996E+03  0.7818608E-02  0.1235070E+00
          4   -1    0    0  501    0  0.00000000000E+00  0.00000000000E+00  0.43977591159E+02  0.43995925086E+02  0.12700000000E+01 0. -1.
         -4   -1    0    0    0  501 -0.00000000000E+00 -0.00000000000E+00 -0.88781685029E+02  0.88790768082E+02  0.12700000000E+01 0. -1.
         25    2    1    2    0    0  0.00000000000E+00  0.00000000000E+00 -0.44804093871E+02  0.13278669317E+03  0.12499959622E+03 0.  0.
    9000005    1    3    3    0    0 -0.23291844439E+02  0.42915838497E+02 -0.63830887493E+02  0.80372018821E+02  0.10000000000E+01 0.  0.
    9000005    1    3    3    0    0  0.23291844439E+02 -0.42915838497E+02  0.19026793622E+02  0.52414674347E+02  0.10000000000E+01 0.  0.
<mgrwt>
<rscale>  0 0.12499960E+03</rscale>
<asrwt>0</asrwt>
<pdfrwt beam="1">  1        4 0.67678923E-02 0.12499960E+03</pdfrwt>
<pdfrwt beam="2">  1       -4 0.13660830E-01 0.12499960E+03</pdfrwt>
<totfact> 0.10285029E+04</totfact>
</mgrwt>
</event>
<event>
 5    1  0.3257199E-002  0.1249939E+03  0.7818608E-02  0.1235079E+00
         -4   -1    0    0    0  501 -0.00000000000E+00  0.00000000000E+00  0.72637981324E+02  0.72649082795E+02  0.12700000000E+01 0. -1.
          4   -1    0    0  501    0  0.00000000000E+00 -0.00000000000E+00 -0.53749012412E+02  0.53764014315E+02  0.12700000000E+01 0. -1.
         25    2    1    2    0    0  0.00000000000E+00  0.00000000000E+00  0.18888968912E+02  0.12641309711E+03  0.12499391175E+03 0.  0.
    9000005    1    3    3    0    0 -0.39359440604E+02 -0.38052749784E+02 -0.21025519088E+02  0.58653642544E+02  0.10000000000E+01 0.  0.
    9000005    1    3    3    0    0  0.39359440604E+02  0.38052749784E+02  0.39914488000E+02  0.67759454566E+02  0.10000000000E+01 0.  0.
<mgrwt>
<rscale>  0 0.12499391E+03</rscale>
<asrwt>0</asrwt>
<pdfrwt beam="2">  1        4 0.82710868E-02 0.12499391E+03</pdfrwt>
<pdfrwt beam="1">  1       -4 0.11177082E-01 0.12499391E+03</pdfrwt>
<totfact> 0.10423356E+04</totfact>
</mgrwt>
</event>
<event>
 5    1  0.3257199E-002  0.1250026E+03  0.7818608E-02  0.1235065E+00
          4   -1    0    0  501    0  0.00000000000E+00  0.00000000000E+00  0.93918295621E+01  0.94773077676E+01  0.12700000000E+01 0. -1.
         -4   -1    0    0    0  501 -0.00000000000E+00 -0.00000000000E+00 -0.41396669986E+03  0.41396864796E+03  0.12700000000E+01 0. -1.
         25    2    1    2    0    0  0.00000000000E+00  0.00000000000E+00 -0.40457487030E+03  0.42344595573E+03  0.12500260695E+03 0.  0.
    9000005    1    3    3    0    0  0.43470287027E+02 -0.12906610908E+02 -0.56618506966E+02  0.72545859912E+02  0.10000000000E+01 0.  0.
    9000005    1    3    3    0    0 -0.43470287027E+02  0.12906610908E+02 -0.34795636333E+03  0.35090009581E+03  0.10000000000E+01 0.  0.
<mgrwt>
<rscale>  0 0.12500261E+03</rscale>
<asrwt>0</asrwt>
<pdfrwt beam="1">  1        4 0.14516223E-02 0.12500261E+03</pdfrwt>
<pdfrwt beam="2">  1       -4 0.63693896E-01 0.12500261E+03</pdfrwt>
<totfact> 0.62331024E+03</totfact>
</mgrwt>
</event>
<event>
 5    1  0.3257199E-002  0.1250062E+03  0.7818608E-02  0.1235060E+00
          4   -1    0    0  501    0  0.00000000000E+00  0.00000000000E+00  0.34851619194E+03  0.34851850588E+03  0.12700000000E+01 0.  1.
         -4   -1    0    0    0  501 -0.00000000000E+00 -0.00000000000E+00 -0.11171017346E+02  0.11242976854E+02  0.12700000000E+01 0.  1.
         25    2    1    2    0    0  0.00000000000E+00  0.00000000000E+00  0.33734517459E+03  0.35976148274E+03  0.12500623041E+03 0.  0.
    9000005    1    3    3    0    0 -0.14404690182E+02 -0.56785905446E+02  0.10604792365E+03  0.12115814569E+03  0.10000000000E+01 0.  0.
    9000005    1    3    3    0    0  0.14404690182E+02  0.56785905446E+02  0.23129725095E+03  0.23860333705E+03  0.10000000000E+01 0.  0.
<mgrwt>
<rscale>  0 0.12500623E+03</rscale>
<asrwt>0</asrwt>
<pdfrwt beam="1">  1        4 0.53623594E-01 0.12500623E+03</pdfrwt>
<pdfrwt beam="2">  1       -4 0.17243312E-02 0.12500623E+03</pdfrwt>
<totfact> 0.68654390E+03</totfact>
</mgrwt>
</event>
<event>
 5    1  0.3257199E-002  0.1249980E+03  0.7818608E-02  0.1235072E+00
         -4   -1    0    0    0  501 -0.00000000000E+00  0.00000000000E+00  0.24624221053E+02  0.24656949578E+02  0.12700000000E+01 0. -1.
          4   -1    0    0  501    0  0.00000000000E+00 -0.00000000000E+00 -0.15848880494E+03  0.15849389323E+03  0.12700000000E+01 0. -1.
         25    2    1    2    0    0  0.00000000000E+00  0.00000000000E+00 -0.13386458389E+03  0.18315084281E+03  0.12499801759E+03 0.  0.
    9000005    1    3    3    0    0 -0.55067478041E+02 -0.10288925451E+02 -0.26357404940E+02  0.61919317825E+02  0.10000000000E+01 0.  0.
    9000005    1    3    3    0    0  0.55067478041E+02  0.10288925451E+02 -0.10750717895E+03  0.12123152499E+03  0.10000000000E+01 0.  0.
<mgrwt>
<rscale>  0 0.12499802E+03</rscale>
<asrwt>0</asrwt>
<pdfrwt beam="2">  1        4 0.24385801E-01 0.12499802E+03</pdfrwt>
<pdfrwt beam="1">  1       -4 0.37912508E-02 0.12499802E+03</pdfrwt>
<totfact> 0.93057032E+03</totfact>
</mgrwt>
</event>
<event>
 5    1  0.3257199E-002  0.1250038E+03  0.7818608E-02  0.1235063E+00
          4   -1    0    0  501    0  0.00000000000E+00  0.00000000000E+00  0.97085294837E+02  0.97093601095E+02  0.12700000000E+01 0.  1.
         -4   -1    0    0    0  501 -0.00000000000E+00 -0.00000000000E+00 -0.40217643382E+02  0.40237690530E+02  0.12700000000E+01 0.  1.
         25    2    1    2    0    0  0.00000000000E+00  0.00000000000E+00  0.56867651456E+02  0.13733129162E+03  0.12500381545E+03 0.  0.
    9000005    1    3    3    0    0 -0.28224882713E+02 -0.46427836268E+02 -0.54865881439E+01  0.54619507817E+02  0.10000000000E+01 0.  0.
    9000005    1    3    3    0    0  0.28224882713E+02  0.46427836268E+02  0.62354239600E+02  0.82711783808E+02  0.10000000000E+01 0.  0.
<mgrwt>
<rscale>  0 0.12500382E+03</rscale>
<asrwt>0</asrwt>
<pdfrwt beam="1">  1        4 0.14938380E-01 0.12500382E+03</pdfrwt>
<pdfrwt beam="2">  1       -4 0.61895109E-02 0.12500382E+03</pdfrwt>
<totfact> 0.10188287E+04</totfact>
</mgrwt>
</event>
<event>
 5    1  0.3257199E-002  0.1250032E+03  0.7818608E-02  0.1235064E+00
          4   -1    0    0  501    0  0.00000000000E+00  0.00000000000E+00  0.40853726260E+02  0.40873461431E+02  0.12700000000E+01 0. -1.
         -4   -1    0    0    0  501 -0.00000000000E+00 -0.00000000000E+00 -0.95573359559E+02  0.95581797207E+02  0.12700000000E+01 0. -1.
         25    2    1    2    0    0  0.00000000000E+00  0.00000000000E+00 -0.54719633299E+02  0.13645525864E+03  0.12500319733E+03 0.  0.
    9000005    1    3    3    0    0  0.31153250862E+02 -0.81622363101E+01  0.31103257210E+02  0.44783476305E+02  0.10000000000E+01 0.  0.
    9000005    1    3    3    0    0 -0.31153250862E+02  0.81622363101E+01 -0.85822890509E+02  0.91671782334E+02  0.10000000000E+01 0.  0.
<mgrwt>
<rscale>  0 0.12500320E+03</rscale>
<asrwt>0</asrwt>
<pdfrwt beam="1">  1        4 0.62873558E-02 0.12500320E+03</pdfrwt>
<pdfrwt beam="2">  1       -4 0.14705761E-01 0.12500320E+03</pdfrwt>
<totfact> 0.10206752E+04</totfact>
</mgrwt>
</event>
<event>
 5    1  0.3257199E-002  0.1250059E+03  0.7818608E-02  0.1235060E+00
          4   -1    0    0  501    0  0.00000000000E+00  0.00000000000E+00  0.38530965563E+02  0.38551889801E+02  0.12700000000E+01 0. -1.
         -4   -1    0    0    0  501 -0.00000000000E+00 -0.00000000000E+00 -0.10133659535E+03  0.10134455317E+03  0.12700000000E+01 0. -1.
         25    2    1    2    0    0  0.00000000000E+00  0.00000000000E+00 -0.62805629792E+02  0.13989644298E+03  0.12500587036E+03 0.  0.
    9000005    1    3    3    0    0  0.11254454275E+02  0.33695009024E+02 -0.88943387483E+02  0.95780700306E+02  0.10000000000E+01 0.  0.
    9000005    1    3    3    0    0 -0.11254454275E+02 -0.33695009024E+02  0.26137757691E+02  0.44115742669E+02  0.10000000000E+01 0.  0.
<mgrwt>
<rscale>  0 0.12500587E+03</rscale>
<asrwt>0</asrwt>
<pdfrwt beam="1">  1        4 0.59300626E-02 0.12500587E+03</pdfrwt>
<pdfrwt beam="2">  1       -4 0.15592467E-01 0.12500587E+03</pdfrwt>
<totfact> 0.10134392E+04</totfact>
</mgrwt>
</event>
<event>
 5    1  0.3257199E-002  0.1250002E+03  0.7818608E-02  0.1235069E+00
          4   -1    0    0  501    0  0.00000000000E+00  0.00000000000E+00  0.10298703868E+03  0.10299486898E+03  0.12700000000E+01 0. -1.
         -4   -1    0    0    0  501 -0.00000000000E+00 -0.00000000000E+00 -0.37909744551E+02  0.37931011480E+02  0.12700000000E+01 0. -1.
         25    2    1    2    0    0  0.00000000000E+00  0.00000000000E+00  0.65077294128E+02  0.14092588046E+03  0.12500019829E+03 0.  0.
    9000005    1    3    3    0    0  0.85068575294E+01  0.50212990991E+02  0.73368018743E+02  0.89317284237E+02  0.10000000000E+01 0.  0.
    9000005    1    3    3    0    0 -0.85068575294E+01 -0.50212990991E+02 -0.82907246144E+01  0.51608596221E+02  0.10000000000E+01 0.  0.
<mgrwt>
<rscale>  0 0.12500020E+03</rscale>
<asrwt>0</asrwt>
<pdfrwt beam="1">  1        4 0.15846398E-01 0.12500020E+03</pdfrwt>
<pdfrwt beam="2">  1       -4 0.58345067E-02 0.12500020E+03</pdfrwt>
<totfact> 0.10114387E+04</totfact>
</mgrwt>
</event>
<event>
 5    1  0.3257199E-002  0.1250011E+03  0.7818608E-02  0.1235067E+00
          4   -1    0    0  501    0  0.00000000000E+00  0.00000000000E+00  0.63591634596E+01  0.64847405427E+01  0.12700000000E+01 0. -1.
         -4   -1    0    0    0  501 -0.00000000000E+00 -0.00000000000E+00 -0.60815012547E+03  0.60815145154E+03  0.12700000000E+01 0. -1.
         25    2    1    2    0    0  0.00000000000E+00  0.00000000000E+00 -0.60179096201E+03  0.61463619208E+03  0.12500114663E+03 0.  0.
    9000005    1    3    3    0    0 -0.26726497040E+02 -0.44581516087E+02 -0.47147543068E+03  0.47433310969E+03  0.10000000000E+01 0.  0.
    9000005    1    3    3    0    0  0.26726497040E+02  0.44581516087E+02 -0.13031553133E+03  0.14030308239E+03  0.10000000000E+01 0.  0.
<mgrwt>
<rscale>  0 0.12500115E+03</rscale>
<asrwt>0</asrwt>
<pdfrwt beam="1">  1        4 0.98809511E-03 0.12500115E+03</pdfrwt>
<pdfrwt beam="2">  1       -4 0.93571274E-01 0.12500115E+03</pdfrwt>
<totfact> 0.47955388E+03</totfact>
</mgrwt>
</event>
<event>
 5    1  0.3257199E-002  0.1249986E+03  0.7818608E-02  0.1235071E+00
         -4   -1    0    0    0  501 -0.00000000000E+00  0.00000000000E+00  0.98672771545E+02  0.98680944180E+02  0.12700000000E+01 0. -1.
          4   -1    0    0  501    0  0.00000000000E+00 -0.00000000000E+00 -0.39567039327E+02  0.39587415943E+02  0.12700000000E+01 0. -1.
         25    2    1    2    0    0  0.00000000000E+00  0.00000000000E+00  0.59105732218E+02  0.13826836012E+03  0.12499860731E+03 0.  0.
    9000005    1    3    3    0    0 -0.36636693841E+02  0.40726123416E+00  0.85550636902E+02  0.93071610450E+02  0.10000000000E+01 0.  0.
    9000005    1    3    3    0    0  0.36636693841E+02 -0.40726123416E+00 -0.26444904685E+02  0.45196749674E+02  0.10000000000E+01 0.  0.
<mgrwt>
<rscale>  0 0.12499861E+03</rscale>
<asrwt>0</asrwt>
<pdfrwt beam="2">  1        4 0.60894329E-02 0.12499861E+03</pdfrwt>
<pdfrwt beam="1">  1       -4 0.15182622E-01 0.12499861E+03</pdfrwt>
<totfact> 0.10169921E+04</totfact>
</mgrwt>
</event>
<event>
 5    1  0.3257199E-002  0.1249951E+03  0.7818608E-02  0.1235077E+00
          4   -1    0    0  501    0  0.00000000000E+00  0.00000000000E+00  0.73306077680E+02  0.73317077989E+02  0.12700000000E+01 0.  1.
         -4   -1    0    0    0  501 -0.00000000000E+00 -0.00000000000E+00 -0.53260111944E+02  0.53275251518E+02  0.12700000000E+01 0.  1.
         25    2    1    2    0    0  0.00000000000E+00  0.00000000000E+00  0.20045965736E+02  0.12659232951E+03  0.12499510849E+03 0.  0.
    9000005    1    3    3    0    0 -0.21842309254E+02 -0.58121075754E+02  0.17169952262E+02  0.64427891329E+02  0.10000000000E+01 0.  0.
    9000005    1    3    3    0    0  0.21842309254E+02  0.58121075754E+02  0.28760134738E+01  0.62164438177E+02  0.10000000000E+01 0.  0.
<mgrwt>
<rscale>  0 0.12499511E+03</rscale>
<asrwt>0</asrwt>
<pdfrwt beam="1">  1        4 0.11279869E-01 0.12499511E+03</pdfrwt>
<pdfrwt beam="2">  1       -4 0.81958742E-02 0.12499511E+03</pdfrwt>
<totfact> 0.10419166E+04</totfact>
</mgrwt>
</event>
<event>
 5    1  0.3257199E-002  0.1249990E+03  0.7818608E-02  0.1235071E+00
          4   -1    0    0  501    0  0.00000000000E+00  0.00000000000E+00  0.46955883990E+01  0.48643036925E+01  0.12700000000E+01 0.  1.
         -4   -1    0    0    0  501 -0.00000000000E+00 -0.00000000000E+00 -0.81703448000E+03  0.81703546705E+03  0.12700000000E+01 0.  1.
         25    2    1    2    0    0  0.00000000000E+00  0.00000000000E+00 -0.81233889160E+03  0.82189977074E+03  0.12499903332E+03 0.  0.
    9000005    1    3    3    0    0  0.43862555742E+02 -0.11537492946E+02 -0.68884031429E+03  0.69033254025E+03  0.10000000000E+01 0.  0.
    9000005    1    3    3    0    0 -0.43862555742E+02  0.11537492946E+02 -0.12349857731E+03  0.13156723049E+03  0.10000000000E+01 0.  0.
<mgrwt>
<rscale>  0 0.12499903E+03</rscale>
<asrwt>0</asrwt>
<pdfrwt beam="1">  1        4 0.73545289E-03 0.12499903E+03</pdfrwt>
<pdfrwt beam="2">  1       -4 0.12571056E+00 0.12499903E+03</pdfrwt>
<totfact> 0.37306382E+03</totfact>
</mgrwt>
</event>
<event>
 5    1  0.3257199E-002  0.1250003E+03  0.7818608E-02  0.1235069E+00
         -4   -1    0    0    0  501 -0.00000000000E+00  0.00000000000E+00  0.46820026600E+02  0.46837247900E+02  0.12700000000E+01 0. -1.
          4   -1    0    0  501    0  0.00000000000E+00 -0.00000000000E+00 -0.83394129942E+02  0.83403799727E+02  0.12700000000E+01 0. -1.
         25    2    1    2    0    0  0.00000000000E+00  0.00000000000E+00 -0.36574103342E+02  0.13024104763E+03  0.12500026181E+03 0.  0.
    9000005    1    3    3    0    0  0.26005937879E+01 -0.38918221409E+02  0.32584938349E+02  0.50834724873E+02  0.10000000000E+01 0.  0.
    9000005    1    3    3    0    0 -0.26005937879E+01  0.38918221409E+02 -0.69159041691E+02  0.79406322754E+02  0.10000000000E+01 0.  0.
<mgrwt>
<rscale>  0 0.12500026E+03</rscale>
<asrwt>0</asrwt>
<pdfrwt beam="2">  1        4 0.12831935E-01 0.12500026E+03</pdfrwt>
<pdfrwt beam="1">  1       -4 0.72051495E-02 0.12500026E+03</pdfrwt>
<totfact> 0.10339293E+04</totfact>
</mgrwt>
</event>
<event>
 5    1  0.3257199E-002  0.1249913E+03  0.7818608E-02  0.1235083E+00
          4   -1    0    0  501    0  0.00000000000E+00  0.00000000000E+00  0.68499151197E+02  0.68510923324E+02  0.12700000000E+01 0. -1.
         -4   -1    0    0    0  501 -0.00000000000E+00 -0.00000000000E+00 -0.56994599375E+02  0.57008747206E+02  0.12700000000E+01 0. -1.
         25    2    1    2    0    0  0.00000000000E+00  0.00000000000E+00  0.11504551822E+02  0.12551967053E+03  0.12499133161E+03 0.  0.
    9000005    1    3    3    0    0 -0.37935982943E+02 -0.66362127135E+01 -0.43664776081E+02  0.58230497089E+02  0.10000000000E+01 0.  0.
    9000005    1    3    3    0    0  0.37935982943E+02  0.66362127135E+01  0.55169327903E+02  0.67289173440E+02  0.10000000000E+01 0.  0.
<mgrwt>
<rscale>  0 0.12499133E+03</rscale>
<asrwt>0</asrwt>
<pdfrwt beam="1">  1        4 0.10540325E-01 0.12499133E+03</pdfrwt>
<pdfrwt beam="2">  1       -4 0.87703938E-02 0.12499133E+03</pdfrwt>
<totfact> 0.10443561E+04</totfact>
</mgrwt>
</event>
<event>
 5    1  0.3257199E-002  0.1249857E+03  0.7818608E-02  0.1235092E+00
         -4   -1    0    0    0  501 -0.00000000000E+00  0.00000000000E+00  0.53595732399E+02  0.53610777195E+02  0.12700000000E+01 0.  1.
          4   -1    0    0  501    0  0.00000000000E+00 -0.00000000000E+00 -0.72836143603E+02  0.72847214874E+02  0.12700000000E+01 0.  1.
         25    2    1    2    0    0  0.00000000000E+00  0.00000000000E+00 -0.19240411204E+02  0.12645799207E+03  0.12498572052E+03 0.  0.
    9000005    1    3    3    0    0  0.28478924756E+02  0.43099410273E+02 -0.45187519148E+02  0.68640514333E+02  0.10000000000E+01 0.  0.
    9000005    1    3    3    0    0 -0.28478924756E+02 -0.43099410273E+02  0.25947107945E+02  0.57817477736E+02  0.10000000000E+01 0.  0.
<mgrwt>
<rscale>  0 0.12498572E+03</rscale>
<asrwt>0</asrwt>
<pdfrwt beam="2">  1        4 0.11207569E-01 0.12498572E+03</pdfrwt>
<pdfrwt beam="1">  1       -4 0.82475063E-02 0.12498572E+03</pdfrwt>
<totfact> 0.10424304E+04</totfact>
</mgrwt>
</event>
<event>
 5    1  0.3257199E-002  0.1250009E+03  0.7818608E-02  0.1235068E+00
         -4   -1    0    0    0  501 -0.00000000000E+00  0.00000000000E+00  0.39301316417E+03  0.39301521613E+03  0.12700000000E+01 0.  1.
          4   -1    0    0  501    0  0.00000000000E+00 -0.00000000000E+00 -0.98967216216E+01  0.99778754680E+01  0.12700000000E+01 0.  1.
         25    2    1    2    0    0  0.00000000000E+00  0.00000000000E+00  0.38311644255E+03  0.40299309160E+03  0.12500089330E+03 0.  0.
    9000005    1    3    3    0    0 -0.33050736111E+02  0.21387189363E+02  0.34802782581E+03  0.35024866961E+03  0.10000000000E+01 0.  0.
    9000005    1    3    3    0    0  0.33050736111E+02 -0.21387189363E+02  0.35088616740E+02  0.52744421990E+02  0.10000000000E+01 0.  0.
<mgrwt>
<rscale>  0 0.12500089E+03</rscale>
<asrwt>0</asrwt>
<pdfrwt beam="2">  1        4 0.15289729E-02 0.12500089E+03</pdfrwt>
<pdfrwt beam="1">  1       -4 0.60469966E-01 0.12500089E+03</pdfrwt>
<totfact> 0.64261452E+03</totfact>
</mgrwt>
</event>
<event>
 5    1  0.3257199E-002  0.1249993E+03  0.7818608E-02  0.1235070E+00
         -4   -1    0    0    0  501 -0.00000000000E+00  0.00000000000E+00  0.46888021682E+02  0.46905218017E+02  0.12700000000E+01 0. -1.
          4   -1    0    0  501    0  0.00000000000E+00 -0.00000000000E+00 -0.83271959739E+02  0.83281643708E+02  0.12700000000E+01 0. -1.
         25    2    1    2    0    0  0.00000000000E+00  0.00000000000E+00 -0.36383938056E+02  0.13018686173E+03  0.12499931207E+03 0.  0.
    9000005    1    3    3    0    0  0.22738062124E+02 -0.24701177867E+02 -0.73086456108E+02  0.80435052829E+02  0.10000000000E+01 0.  0.
    9000005    1    3    3    0    0 -0.22738062124E+02  0.24701177867E+02  0.36702518051E+02  0.49751808897E+02  0.10000000000E+01 0.  0.
<mgrwt>
<rscale>  0 0.12499931E+03</rscale>
<asrwt>0</asrwt>
<pdfrwt beam="2">  1        4 0.12813138E-01 0.12499931E+03</pdfrwt>
<pdfrwt beam="1">  1       -4 0.72156095E-02 0.12499931E+03</pdfrwt>
<totfact> 0.10340672E+04</totfact>
</mgrwt>
</event>
<event>
 5    1  0.3257199E-002  0.1250005E+03  0.7818608E-02  0.1235068E+00
         -4   -1    0    0    0  501 -0.00000000000E+00  0.00000000000E+00  0.14154462076E+03  0.14155031815E+03  0.12700000000E+01 0. -1.
          4   -1    0    0  501    0  0.00000000000E+00 -0.00000000000E+00 -0.27576669643E+02  0.27605898076E+02  0.12700000000E+01 0. -1.
         25    2    1    2    0    0  0.00000000000E+00  0.00000000000E+00  0.11396795112E+03  0.16915621622E+03  0.12500052641E+03 0.  0.
    9000005    1    3    3    0    0 -0.53222833291E+02 -0.18677833973E+02  0.93389797377E+02  0.10910630467E+03  0.10000000000E+01 0.  0.
    9000005    1    3    3    0    0  0.53222833291E+02  0.18677833973E+02  0.20578153745E+02  0.60049911549E+02  0.10000000000E+01 0.  0.
<mgrwt>
<rscale>  0 0.12500053E+03</rscale>
<asrwt>0</asrwt>
<pdfrwt beam="2">  1        4 0.42452511E-02 0.12500053E+03</pdfrwt>
<pdfrwt beam="1">  1       -4 0.21778782E-01 0.12500053E+03</pdfrwt>
<totfact> 0.95604879E+03</totfact>
</mgrwt>
</event>
<event>
 5    1  0.3257199E-002  0.1250013E+03  0.7818608E-02  0.1235067E+00
         -4   -1    0    0    0  501 -0.00000000000E+00  0.00000000000E+00  0.27128386466E+02  0.27158097360E+02  0.12700000000E+01 0. -1.
          4   -1    0    0  501    0  0.00000000000E+00 -0.00000000000E+00 -0.14388299422E+03  0.14388859901E+03  0.12700000000E+01 0. -1.
         25    2    1    2    0    0  0.00000000000E+00  0.00000000000E+00 -0.11675460776E+03  0.17104669637E+03  0.12500133563E+03 0.  0.
    9000005    1    3    3    0    0  0.36293963834E+02  0.12234276115E+02 -0.12594714253E+03  0.13164578244E+03  0.10000000000E+01 0.  0.
    9000005    1    3    3    0    0 -0.36293963834E+02 -0.12234276115E+02  0.91925347783E+01  0.39400913930E+02  0.10000000000E+01 0.  0.
<mgrwt>
<rscale>  0 0.12500134E+03</rscale>
<asrwt>0</asrwt>
<pdfrwt beam="2">  1        4 0.22138562E-01 0.12500134E+03</pdfrwt>
<pdfrwt beam="1">  1       -4 0.41763146E-02 0.12500134E+03</pdfrwt>
<totfact> 0.95251051E+03</totfact>
</mgrwt>
</event>
<event>
 5    1  0.3257199E-002  0.1249996E+03  0.7818608E-02  0.1235070E+00
         -4   -1    0    0    0  501 -0.00000000000E+00  0.00000000000E+00  0.11136744133E+03  0.11137468244E+03  0.12700000000E+01 0. -1.
          4   -1    0    0  501    0  0.00000000000E+00 -0.00000000000E+00 -0.35055232242E+02  0.35078229823E+02  0.12700000000E+01 0. -1.
         25    2    1    2    0    0  0.00000000000E+00  0.00000000000E+00  0.76312209085E+02  0.14645291226E+03  0.12499960902E+03 0.  0.
    9000005    1    3    3    0    0  0.85591966059E+01 -0.57596919108E+02  0.11579001930E+02  0.59377927069E+02  0.10000000000E+01 0.  0.
    9000005    1    3    3    0    0 -0.85591966059E+01  0.57596919108E+02  0.64733207156E+02  0.87074985191E+02  0.10000000000E+01 0.  0.
<mgrwt>
<rscale>  0 0.12499961E+03</rscale>
<asrwt>0</asrwt>
<pdfrwt beam="2">  1        4 0.53954387E-02 0.12499961E+03</pdfrwt>
<pdfrwt beam="1">  1       -4 0.17135779E-01 0.12499961E+03</pdfrwt>
<totfact> 0.10001640E+04</totfact>
</mgrwt>
</event>
<event>
 5    1  0.3257199E-002  0.1249955E+03  0.7818608E-02  0.1235076E+00
          4   -1    0    0  501    0  0.00000000000E+00  0.00000000000E+00  0.76983780743E+02  0.76994255613E+02  0.12700000000E+01 0. -1.
         -4   -1    0    0    0  501 -0.00000000000E+00 -0.00000000000E+00 -0.50715681987E+02  0.50731580888E+02  0.12700000000E+01 0. -1.
         25    2    1    2    0    0  0.00000000000E+00  0.00000000000E+00  0.26268098756E+02  0.12772583650E+03  0.12499550511E+03 0.  0.
    9000005    1    3    3    0    0  0.49965030330E+02 -0.26606179817E+02  0.40180606634E+02  0.69425313898E+02  0.10000000000E+01 0.  0.
    9000005    1    3    3    0    0 -0.49965030330E+02  0.26606179817E+02 -0.13912507878E+02  0.58300522603E+02  0.10000000000E+01 0.  0.
<mgrwt>
<rscale>  0 0.12499551E+03</rscale>
<asrwt>0</asrwt>
<pdfrwt beam="1">  1        4 0.11845687E-01 0.12499551E+03</pdfrwt>
<pdfrwt beam="2">  1       -4 0.78044414E-02 0.12499551E+03</pdfrwt>
<totfact> 0.10394467E+04</totfact>
</mgrwt>
</event>
<event>
 5    1  0.3257199E-002  0.1249945E+03  0.7818608E-02  0.1235078E+00
         -4   -1    0    0    0  501 -0.00000000000E+00  0.00000000000E+00  0.11948502658E+02  0.12015806913E+02  0.12700000000E+01 0. -1.
          4   -1    0    0  501    0  0.00000000000E+00 -0.00000000000E+00 -0.32590817959E+03  0.32591065405E+03  0.12700000000E+01 0. -1.
         25    2    1    2    0    0  0.00000000000E+00  0.00000000000E+00 -0.31395967693E+03  0.33792646096E+03  0.12499445700E+03 0.  0.
    9000005    1    3    3    0    0  0.23150299340E+02  0.33788435249E+02 -0.29388360666E+02  0.50420932744E+02  0.10000000000E+01 0.  0.
    9000005    1    3    3    0    0 -0.23150299340E+02 -0.33788435249E+02 -0.28457131626E+03  0.28750552822E+03  0.10000000000E+01 0.  0.
<mgrwt>
<rscale>  0 0.12499446E+03</rscale>
<asrwt>0</asrwt>
<pdfrwt beam="2">  1        4 0.50145081E-01 0.12499446E+03</pdfrwt>
<pdfrwt beam="1">  1       -4 0.18435990E-02 0.12499446E+03</pdfrwt>
<totfact> 0.71082267E+03</totfact>
</mgrwt>
</event>
<event>
 5    1  0.3257199E-002  0.1249944E+03  0.7818608E-02  0.1235078E+00
         -4   -1    0    0    0  501 -0.00000000000E+00  0.00000000000E+00  0.10231293984E+03  0.10232082173E+03  0.12700000000E+01 0.  1.
          4   -1    0    0  501    0  0.00000000000E+00 -0.00000000000E+00 -0.38156095859E+02  0.38177225556E+02  0.12700000000E+01 0.  1.
         25    2    1    2    0    0  0.00000000000E+00  0.00000000000E+00  0.64156843985E+02  0.14049804729E+03  0.12499440252E+03 0.  0.
    9000005    1    3    3    0    0  0.49114652624E+02  0.38577882824E+02  0.29721157523E+02  0.69172605488E+02  0.10000000000E+01 0.  0.
    9000005    1    3    3    0    0 -0.49114652624E+02 -0.38577882824E+02  0.34435686463E+02  0.71325441798E+02  0.10000000000E+01 0.  0.
<mgrwt>
<rscale>  0 0.12499440E+03</rscale>
<asrwt>0</asrwt>
<pdfrwt beam="2">  1        4 0.58724003E-02 0.12499440E+03</pdfrwt>
<pdfrwt beam="1">  1       -4 0.15742684E-01 0.12499440E+03</pdfrwt>
<totfact> 0.10124551E+04</totfact>
</mgrwt>
</event>
<event>
 5    1  0.3257199E-002  0.1250198E+03  0.7818608E-02  0.1235038E+00
          4   -1    0    0  501    0  0.00000000000E+00  0.00000000000E+00  0.65796904144E+01  0.67011361686E+01  0.12700000000E+01 0.  1.
         -4   -1    0    0    0  501 -0.00000000000E+00 -0.00000000000E+00 -0.58831869566E+03  0.58832006643E+03  0.12700000000E+01 0.  1.
         25    2    1    2    0    0  0.00000000000E+00  0.00000000000E+00 -0.58173900524E+03  0.59502120260E+03  0.12501984369E+03 0.  0.
    9000005    1    3    3    0    0 -0.25577421480E+02 -0.56846503354E+02 -0.31255535698E+03  0.31871237913E+03  0.10000000000E+01 0.  0.
    9000005    1    3    3    0    0  0.25577421480E+02  0.56846503354E+02 -0.26918364826E+03  0.27630882346E+03  0.10000000000E+01 0.  0.
<mgrwt>
<rscale>  0 0.12501984E+03</rscale>
<asrwt>0</asrwt>
<pdfrwt beam="1">  1        4 0.10217080E-02 0.12501984E+03</pdfrwt>
<pdfrwt beam="2">  1       -4 0.90519975E-01 0.12501984E+03</pdfrwt>
<totfact> 0.49162022E+03</totfact>
</mgrwt>
</event>
<event>
 5    1  0.3257199E-002  0.1250166E+03  0.7818608E-02  0.1235043E+00
          4   -1    0    0  501    0  0.00000000000E+00  0.00000000000E+00  0.59725744145E+03  0.59725879170E+03  0.12700000000E+01 0. -1.
         -4   -1    0    0    0  501 -0.00000000000E+00 -0.00000000000E+00 -0.64790471874E+01  0.66023444667E+01  0.12700000000E+01 0. -1.
         25    2    1    2    0    0  0.00000000000E+00  0.00000000000E+00  0.59077839426E+03  0.60386113617E+03  0.12501664149E+03 0.  0.
    9000005    1    3    3    0    0 -0.55120205295E+02 -0.29451394854E+02  0.29933841199E+03  0.30579422261E+03  0.10000000000E+01 0.  0.
    9000005    1    3    3    0    0  0.55120205295E+02  0.29451394854E+02  0.29143998227E+03  0.29806691355E+03  0.10000000000E+01 0.  0.
<mgrwt>
<rscale>  0 0.12501664E+03</rscale>
<asrwt>0</asrwt>
<pdfrwt beam="1">  1        4 0.91895347E-01 0.12501664E+03</pdfrwt>
<pdfrwt beam="2">  1       -4 0.10063648E-02 0.12501664E+03</pdfrwt>
<totfact> 0.48607050E+03</totfact>
</mgrwt>
</event>
<event>
 5    1  0.3257199E-002  0.1250009E+03  0.7818608E-02  0.1235068E+00
         -4   -1    0    0    0  501 -0.00000000000E+00  0.00000000000E+00  0.19724880210E+02  0.19765722838E+02  0.12700000000E+01 0. -1.
          4   -1    0    0  501    0  0.00000000000E+00 -0.00000000000E+00 -0.19779190999E+03  0.19779598721E+03  0.12700000000E+01 0. -1.
         25    2    1    2    0    0  0.00000000000E+00  0.00000000000E+00 -0.17806702978E+03  0.21756171005E+03  0.12500092234E+03 0.  0.
    9000005    1    3    3    0    0  0.51794004285E+02  0.31917536080E+02 -0.64176934394E+02  0.88436569910E+02  0.10000000000E+01 0.  0.
    9000005    1    3    3    0    0 -0.51794004285E+02 -0.31917536080E+02 -0.11389009538E+03  0.12912514014E+03  0.10000000000E+01 0.  0.
<mgrwt>
<rscale>  0 0.12500092E+03</rscale>
<asrwt>0</asrwt>
<pdfrwt beam="2">  1        4 0.30432979E-01 0.12500092E+03</pdfrwt>
<pdfrwt beam="1">  1       -4 0.30380525E-02 0.12500092E+03</pdfrwt>
<totfact> 0.87253856E+03</totfact>
</mgrwt>
</event>
<event>
 5    1  0.3257199E-002  0.1250016E+03  0.7818608E-02  0.1235067E+00
          4   -1    0    0  501    0  0.00000000000E+00  0.00000000000E+00  0.18365477313E+02  0.18409336135E+02  0.12700000000E+01 0. -1.
         -4   -1    0    0    0  501 -0.00000000000E+00 -0.00000000000E+00 -0.21240112119E+03  0.21240491799E+03  0.12700000000E+01 0. -1.
         25    2    1    2    0    0  0.00000000000E+00  0.00000000000E+00 -0.19403564388E+03  0.23081425412E+03  0.12500155523E+03 0.  0.
    9000005    1    3    3    0    0 -0.22608489757E+02  0.47833495608E+02 -0.35605403278E+02  0.63780340653E+02  0.10000000000E+01 0.  0.
    9000005    1    3    3    0    0  0.22608489757E+02 -0.47833495608E+02 -0.15843024060E+03  0.16703391347E+03  0.10000000000E+01 0.  0.
<mgrwt>
<rscale>  0 0.12500156E+03</rscale>
<asrwt>0</asrwt>
<pdfrwt beam="1">  1        4 0.28291240E-02 0.12500156E+03</pdfrwt>
<pdfrwt beam="2">  1       -4 0.32680760E-01 0.12500156E+03</pdfrwt>
<totfact> 0.85181769E+03</totfact>
</mgrwt>
</event>
<event>
 5    1  0.3257199E-002  0.1249937E+03  0.7818608E-02  0.1235079E+00
         -4   -1    0    0    0  501 -0.00000000000E+00  0.00000000000E+00  0.22399291219E+02  0.22435265702E+02  0.12700000000E+01 0.  1.
          4   -1    0    0  501    0  0.00000000000E+00 -0.00000000000E+00 -0.17419577656E+03  0.17420040606E+03  0.12700000000E+01 0.  1.
         25    2    1    2    0    0  0.00000000000E+00  0.00000000000E+00 -0.15179648534E+03  0.19663567176E+03  0.12499365763E+03 0.  0.
    9000005    1    3    3    0    0 -0.51188928371E+02  0.33356232517E+02 -0.55271834555E+02  0.82394904762E+02  0.10000000000E+01 0.  0.
    9000005    1    3    3    0    0  0.51188928371E+02 -0.33356232517E+02 -0.96524650786E+02  0.11424076700E+03  0.10000000000E+01 0.  0.
<mgrwt>
<rscale>  0 0.12499366E+03</rscale>
<asrwt>0</asrwt>
<pdfrwt beam="2">  1        4 0.26802473E-01 0.12499366E+03</pdfrwt>
<pdfrwt beam="1">  1       -4 0.34491683E-02 0.12499366E+03</pdfrwt>
<totfact> 0.90718256E+03</totfact>
</mgrwt>
</event>
<event>
 5    1  0.3257199E-002  0.1250041E+03  0.7818608E-02  0.1235063E+00
         -4   -1    0    0    0  501 -0.00000000000E+00  0.00000000000E+00  0.85196658607E+02  0.85206123828E+02  0.12700000000E+01 0. -1.
          4   -1    0    0  501    0  0.00000000000E+00 -0.00000000000E+00 -0.45831982235E+02  0.45849574650E+02  0.12700000000E+01 0. -1.
         25    2    1    2    0    0  0.00000000000E+00  0.00000000000E+00  0.39364676372E+02  0.13105569848E+03  0.12500407337E+03 0.  0.
    9000005    1    3    3    0    0 -0.53421537175E+02  0.25677731285E+02  0.40447715694E+02  0.71765062690E+02  0.10000000000E+01 0.  0.
    9000005    1    3    3    0    0  0.53421537175E+02 -0.25677731285E+02 -0.10830393216E+01  0.59290635789E+02  0.10000000000E+01 0.  0.
<mgrwt>
<rscale>  0 0.12500407E+03</rscale>
<asrwt>0</asrwt>
<pdfrwt beam="2">  1        4 0.70531556E-02 0.12500407E+03</pdfrwt>
<pdfrwt beam="1">  1       -4 0.13109260E-01 0.12500407E+03</pdfrwt>
<totfact> 0.10320947E+04</totfact>
</mgrwt>
</event>
<event>
 5    1  0.3257199E-002  0.1250009E+03  0.7818608E-02  0.1235068E+00
          4   -1    0    0  501    0  0.00000000000E+00  0.00000000000E+00  0.44909868246E+02  0.44927821735E+02  0.12700000000E+01 0. -1.
         -4   -1    0    0    0  501 -0.00000000000E+00 -0.00000000000E+00 -0.86941024116E+02  0.86950299449E+02  0.12700000000E+01 0. -1.
         25    2    1    2    0    0  0.00000000000E+00  0.00000000000E+00 -0.42031155870E+02  0.13187812118E+03  0.12500088313E+03 0.  0.
    9000005    1    3    3    0    0  0.10188708698E+02 -0.20689636249E+01  0.43996231320E+02  0.45219008898E+02  0.10000000000E+01 0.  0.
    9000005    1    3    3    0    0 -0.10188708698E+02  0.20689636249E+01 -0.86027387190E+02  0.86659112286E+02  0.10000000000E+01 0.  0.
<mgrwt>
<rscale>  0 0.12500088E+03</rscale>
<asrwt>0</asrwt>
<pdfrwt beam="1">  1        4 0.69113051E-02 0.12500088E+03</pdfrwt>
<pdfrwt beam="2">  1       -4 0.13377637E-01 0.12500088E+03</pdfrwt>
<totfact> 0.10304095E+04</totfact>
</mgrwt>
</event>
<event>
 5    1  0.3257199E-002  0.1249996E+03  0.7818608E-02  0.1235070E+00
         -4   -1    0    0    0  501 -0.00000000000E+00  0.00000000000E+00  0.31547664630E+01  0.34008015873E+01  0.12700000000E+01 0.  1.
          4   -1    0    0  501    0  0.00000000000E+00 -0.00000000000E+00 -0.11914808470E+04  0.11914815239E+04  0.12700000000E+01 0.  1.
         25    2    1    2    0    0  0.00000000000E+00  0.00000000000E+00 -0.11883260806E+04  0.11948823255E+04  0.12499959180E+03 0.  0.
    9000005    1    3    3    0    0 -0.58535998778E+02  0.19946247156E+02 -0.68014627431E+03  0.68295261211E+03  0.10000000000E+01 0.  0.
    9000005    1    3    3    0    0  0.58535998778E+02 -0.19946247156E+02 -0.50817980628E+03  0.51192971338E+03  0.10000000000E+01 0.  0.
<mgrwt>
<rscale>  0 0.12499959E+03</rscale>
<asrwt>0</asrwt>
<pdfrwt beam="2">  1        4 0.18332338E+00 0.12499959E+03</pdfrwt>
<pdfrwt beam="1">  1       -4 0.50432748E-03 0.12499959E+03</pdfrwt>
<totfact> 0.24847376E+03</totfact>
</mgrwt>
</event>
<event>
 5    1  0.3257199E-002  0.1249992E+03  0.7818608E-02  0.1235071E+00
          4   -1    0    0  501    0  0.00000000000E+00  0.00000000000E+00  0.38083881715E+02  0.38105051457E+02  0.12700000000E+01 0.  1.
         -4   -1    0    0    0  501 -0.00000000000E+00 -0.00000000000E+00 -0.10251471210E+03  0.10252257847E+03  0.12700000000E+01 0.  1.
         25    2    1    2    0    0  0.00000000000E+00  0.00000000000E+00 -0.64430830386E+02  0.14062762993E+03  0.12499919358E+03 0.  0.
    9000005    1    3    3    0    0  0.55840805750E+02 -0.17479578903E+02 -0.56901221130E+02  0.81624017492E+02  0.10000000000E+01 0.  0.
    9000005    1    3    3    0    0 -0.55840805750E+02  0.17479578903E+02 -0.75296092562E+01  0.59003612440E+02  0.10000000000E+01 0.  0.
<mgrwt>
<rscale>  0 0.12499919E+03</rscale>
<asrwt>0</asrwt>
<pdfrwt beam="1">  1        4 0.58612923E-02 0.12499919E+03</pdfrwt>
<pdfrwt beam="2">  1       -4 0.15773728E-01 0.12499919E+03</pdfrwt>
<totfact> 0.10120778E+04</totfact>
</mgrwt>
</event>
<event>
 5    1  0.3257199E-002  0.1250006E+03  0.7818608E-02  0.1235068E+00
         -4   -1    0    0    0  501 -0.00000000000E+00  0.00000000000E+00  0.15127843404E+03  0.15128376484E+03  0.12700000000E+01 0. -1.
          4   -1    0    0  501    0  0.00000000000E+00 -0.00000000000E+00 -0.25800431383E+02  0.25831669701E+02  0.12700000000E+01 0. -1.
         25    2    1    2    0    0  0.00000000000E+00  0.00000000000E+00  0.12547800265E+03  0.17711543454E+03  0.12500059201E+03 0.  0.
    9000005    1    3    3    0    0 -0.31515443478E+02 -0.51862589269E+02  0.41611462981E+02  0.73589844372E+02  0.10000000000E+01 0.  0.
    9000005    1    3    3    0    0  0.31515443478E+02  0.51862589269E+02  0.83866539674E+02  0.10352559017E+03  0.10000000000E+01 0.  0.
<mgrwt>
<rscale>  0 0.12500059E+03</rscale>
<asrwt>0</asrwt>
<pdfrwt beam="2">  1        4 0.39721102E-02 0.12500059E+03</pdfrwt>
<pdfrwt beam="1">  1       -4 0.23276418E-01 0.12500059E+03</pdfrwt>
<totfact> 0.94137576E+03</totfact>
</mgrwt>
</event>
<event>
 5    1  0.3257199E-002  0.1250095E+03  0.7818608E-02  0.1235054E+00
         -4   -1    0    0    0  501 -0.00000000000E+00  0.00000000000E+00  0.81486390266E+01  0.82470126704E+01  0.12700000000E+01 0.  1.
          4   -1    0    0  501    0  0.00000000000E+00 -0.00000000000E+00 -0.47647179469E+03  0.47647348723E+03  0.12700000000E+01 0.  1.
         25    2    1    2    0    0  0.00000000000E+00  0.00000000000E+00 -0.46832315566E+03  0.48472049990E+03  0.12500953922E+03 0.  0.
    9000005    1    3    3    0    0  0.10556533668E+02  0.13699704202E+02 -0.46702682724E+03  0.46734802841E+03  0.10000000000E+01 0.  0.
    9000005    1    3    3    0    0 -0.10556533668E+02 -0.13699704202E+02 -0.12963284231E+01  0.17372471491E+02  0.10000000000E+01 0.  0.
<mgrwt>
<rscale>  0 0.12500954E+03</rscale>
<asrwt>0</asrwt>
<pdfrwt beam="2">  1        4 0.73311029E-01 0.12500954E+03</pdfrwt>
<pdfrwt beam="1">  1       -4 0.12613345E-02 0.12500954E+03</pdfrwt>
<totfact> 0.57057701E+03</totfact>
</mgrwt>
</event>
<event>
 5    1  0.3257199E-002  0.1249990E+03  0.7818608E-02  0.1235071E+00
          4   -1    0    0  501    0  0.00000000000E+00  0.00000000000E+00  0.13634128344E+02  0.13693149955E+02  0.12700000000E+01 0.  1.
         -4   -1    0    0    0  501 -0.00000000000E+00 -0.00000000000E+00 -0.28582132587E+03  0.28582414737E+03  0.12700000000E+01 0.  1.
         25    2    1    2    0    0  0.00000000000E+00  0.00000000000E+00 -0.27218719752E+03  0.29951729733E+03  0.12499896360E+03 0.  0.
    9000005    1    3    3    0    0 -0.15561333957E+00  0.56514723667E+02 -0.19999725775E+03  0.20783128088E+03  0.10000000000E+01 0.  0.
    9000005    1    3    3    0    0  0.15561333957E+00 -0.56514723667E+02 -0.72189939778E+02  0.91686016446E+02  0.10000000000E+01 0.  0.
<mgrwt>
<rscale>  0 0.12499896E+03</rscale>
<asrwt>0</asrwt>
<pdfrwt beam="1">  1        4 0.21023156E-02 0.12499896E+03</pdfrwt>
<pdfrwt beam="2">  1       -4 0.43977265E-01 0.12499896E+03</pdfrwt>
<totfact> 0.75661171E+03</totfact>
</mgrwt>
</event>
<event>
 5    1  0.3257199E-002  0.1249989E+03  0.7818608E-02  0.1235071E+00
          4   -1    0    0  501    0  0.00000000000E+00  0.00000000000E+00  0.68527649306E+02  0.68539416538E+02  0.12700000000E+01 0.  1.
         -4   -1    0    0    0  501 -0.00000000000E+00 -0.00000000000E+00 -0.56977778602E+02  0.56991930608E+02  0.12700000000E+01 0.  1.
         25    2    1    2    0    0  0.00000000000E+00  0.00000000000E+00  0.11549870704E+02  0.12553134715E+03  0.12499887841E+03 0.  0.
    9000005    1    3    3    0    0 -0.30317596529E+02  0.51595033707E+02  0.23850934717E+02  0.64428807605E+02  0.10000000000E+01 0.  0.
    9000005    1    3    3    0    0  0.30317596529E+02 -0.51595033707E+02 -0.12301064013E+02  0.61102539541E+02  0.10000000000E+01 0.  0.
<mgrwt>
<rscale>  0 0.12499888E+03</rscale>
<asrwt>0</asrwt>
<pdfrwt beam="1">  1        4 0.10544709E-01 0.12499888E+03</pdfrwt>
<pdfrwt beam="2">  1       -4 0.87678059E-02 0.12499888E+03</pdfrwt>
<totfact> 0.10441526E+04</totfact>
</mgrwt>
</event>
<event>
 5    1  0.3257199E-002  0.1250080E+03  0.7818608E-02  0.1235057E+00
          4   -1    0    0  501    0  0.00000000000E+00  0.00000000000E+00  0.33198693114E+02  0.33222975852E+02  0.12700000000E+01 0.  1.
         -4   -1    0    0    0  501 -0.00000000000E+00 -0.00000000000E+00 -0.11760713686E+03  0.11761399381E+03  0.12700000000E+01 0.  1.
         25    2    1    2    0    0  0.00000000000E+00  0.00000000000E+00 -0.84408443744E+02  0.15083696966E+03  0.12500802391E+03 0.  0.
    9000005    1    3    3    0    0 -0.23591456253E+02  0.55628670608E+02 -0.61458980982E+02  0.86193457670E+02  0.10000000000E+01 0.  0.
    9000005    1    3    3    0    0  0.23591456253E+02 -0.55628670608E+02 -0.22949462763E+02  0.64643511993E+02  0.10000000000E+01 0.  0.
<mgrwt>
<rscale>  0 0.12500802E+03</rscale>
<asrwt>0</asrwt>
<pdfrwt beam="1">  1        4 0.51098867E-02 0.12500802E+03</pdfrwt>
<pdfrwt beam="2">  1       -4 0.18095801E-01 0.12500802E+03</pdfrwt>
<totfact> 0.99119223E+03</totfact>
</mgrwt>
</event>
<event>
 5    1  0.3257199E-002  0.1250088E+03  0.7818608E-02  0.1235056E+00
         -4   -1    0    0    0  501 -0.00000000000E+00  0.00000000000E+00  0.11920381880E+03  0.11921058392E+03  0.12700000000E+01 0.  1.
          4   -1    0    0  501    0  0.00000000000E+00 -0.00000000000E+00 -0.32754121724E+02  0.32778733805E+02  0.12700000000E+01 0.  1.
         25    2    1    2    0    0  0.00000000000E+00  0.00000000000E+00  0.86449697081E+02  0.15198931772E+03  0.12500880999E+03 0.  0.
    9000005    1    3    3    0    0  0.37657290143E+02  0.49841852319E+02  0.40944107711E+02  0.74697400890E+02  0.10000000000E+01 0.  0.
    9000005    1    3    3    0    0 -0.37657290143E+02 -0.49841852319E+02  0.45505589371E+02  0.77291916831E+02  0.10000000000E+01 0.  0.
<mgrwt>
<rscale>  0 0.12500881E+03</rscale>
<asrwt>0</asrwt>
<pdfrwt beam="2">  1        4 0.50415093E-02 0.12500881E+03</pdfrwt>
<pdfrwt beam="1">  1       -4 0.18341463E-01 0.12500881E+03</pdfrwt>
<totfact> 0.98889022E+03</totfact>
</mgrwt>
</event>
<event>
 5    1  0.3257199E-002  0.1250011E+03  0.7818608E-02  0.1235068E+00
         -4   -1    0    0    0  501 -0.00000000000E+00  0.00000000000E+00  0.15021864755E+04  0.15021870123E+04  0.12700000000E+01 0. -1.
          4   -1    0    0  501    0  0.00000000000E+00 -0.00000000000E+00 -0.24447923996E+01  0.27549791065E+01  0.12700000000E+01 0. -1.
         25    2    1    2    0    0  0.00000000000E+00  0.00000000000E+00  0.14997416831E+04  0.15049419914E+04  0.12500112648E+03 0.  0.
    9000005    1    3    3    0    0 -0.58626298660E+02  0.21378120702E+02  0.70948315411E+03  0.71222286744E+03  0.10000000000E+01 0.  0.
    9000005    1    3    3    0    0  0.58626298660E+02 -0.21378120702E+02  0.79025852894E+03  0.79271912396E+03  0.10000000000E+01 0.  0.
<mgrwt>
<rscale>  0 0.12500113E+03</rscale>
<asrwt>0</asrwt>
<pdfrwt beam="2">  1        4 0.40002263E-03 0.12500113E+03</pdfrwt>
<pdfrwt beam="1">  1       -4 0.23113014E+00 0.12500113E+03</pdfrwt>
<totfact> 0.17832962E+03</totfact>
</mgrwt>
</event>
<event>
 5    1  0.3257199E-002  0.1250060E+03  0.7818608E-02  0.1235060E+00
          4   -1    0    0  501    0  0.00000000000E+00  0.00000000000E+00  0.23716553145E+03  0.23716893179E+03  0.12700000000E+01 0.  1.
         -4   -1    0    0    0  501 -0.00000000000E+00 -0.00000000000E+00 -0.16444150092E+02  0.16493118936E+02  0.12700000000E+01 0.  1.
         25    2    1    2    0    0  0.00000000000E+00  0.00000000000E+00  0.22072138135E+03  0.25366205073E+03  0.12500603102E+03 0.  0.
    9000005    1    3    3    0    0 -0.30452303797E+02 -0.37018622407E+02  0.19172891246E+03  0.19763273283E+03  0.10000000000E+01 0.  0.
    9000005    1    3    3    0    0  0.30452303797E+02  0.37018622407E+02  0.28992468890E+02  0.56029317895E+02  0.10000000000E+01 0.  0.
<mgrwt>
<rscale>  0 0.12500603E+03</rscale>
<asrwt>0</asrwt>
<pdfrwt beam="1">  1        4 0.36491035E-01 0.12500603E+03</pdfrwt>
<pdfrwt beam="2">  1       -4 0.25338975E-02 0.12500603E+03</pdfrwt>
<totfact> 0.81792823E+03</totfact>
</mgrwt>
</event>
<event>
 5    1  0.3257199E-002  0.1250052E+03  0.7818608E-02  0.1235061E+00
         -4   -1    0    0    0  501 -0.00000000000E+00  0.00000000000E+00  0.10168950547E+02  0.10247948830E+02  0.12700000000E+01 0. -1.
          4   -1    0    0  501    0  0.00000000000E+00 -0.00000000000E+00 -0.38260050327E+03  0.38260261108E+03  0.12700000000E+01 0. -1.
         25    2    1    2    0    0  0.00000000000E+00  0.00000000000E+00 -0.37243155273E+03  0.39285055991E+03  0.12500520371E+03 0.  0.
    9000005    1    3    3    0    0 -0.50560379625E+02  0.24094766421E+02 -0.99085724261E+02  0.11382394524E+03  0.10000000000E+01 0.  0.
    9000005    1    3    3    0    0  0.50560379625E+02 -0.24094766421E+02 -0.27334582846E+03  0.27902661467E+03  0.10000000000E+01 0.  0.
<mgrwt>
<rscale>  0 0.12500520E+03</rscale>
<asrwt>0</asrwt>
<pdfrwt beam="2">  1        4 0.58867844E-01 0.12500520E+03</pdfrwt>
<pdfrwt beam="1">  1       -4 0.15706932E-02 0.12500520E+03</pdfrwt>
<totfact> 0.65246632E+03</totfact>
</mgrwt>
</event>
<event>
 5    1  0.3257199E-002  0.1249970E+03  0.7818608E-02  0.1235074E+00
          4   -1    0    0  501    0  0.00000000000E+00  0.00000000000E+00  0.19029679184E+02  0.19072010639E+02  0.12700000000E+01 0. -1.
         -4   -1    0    0    0  501 -0.00000000000E+00 -0.00000000000E+00 -0.20498928394E+03  0.20499321801E+03  0.12700000000E+01 0. -1.
         25    2    1    2    0    0  0.00000000000E+00  0.00000000000E+00 -0.18595960476E+03  0.22406522865E+03  0.12499700832E+03 0.  0.
    9000005    1    3    3    0    0  0.52372240333E+02 -0.21329185458E+02 -0.45307106581E+02  0.72467369322E+02  0.10000000000E+01 0.  0.
    9000005    1    3    3    0    0 -0.52372240333E+02  0.21329185458E+02 -0.14065249818E+03  0.15159785933E+03  0.10000000000E+01 0.  0.
<mgrwt>
<rscale>  0 0.12499701E+03</rscale>
<asrwt>0</asrwt>
<pdfrwt beam="1">  1        4 0.29312020E-02 0.12499701E+03</pdfrwt>
<pdfrwt beam="2">  1       -4 0.31540370E-01 0.12499701E+03</pdfrwt>
<totfact> 0.86234901E+03</totfact>
</mgrwt>
</event>
<event>
 5    1  0.3257199E-002  0.1249990E+03  0.7818608E-02  0.1235071E+00
         -4   -1    0    0    0  501 -0.00000000000E+00  0.00000000000E+00  0.17379906619E+03  0.17380370626E+03  0.12700000000E+01 0.  1.
          4   -1    0    0  501    0  0.00000000000E+00 -0.00000000000E+00 -0.22452417466E+02  0.22488306963E+02  0.12700000000E+01 0.  1.
         25    2    1    2    0    0  0.00000000000E+00  0.00000000000E+00  0.15134664873E+03  0.19629201322E+03  0.12499898549E+03 0.  0.
    9000005    1    3    3    0    0  0.40835660122E+02 -0.42259178388E+02  0.42294736771E+02  0.72410179216E+02  0.10000000000E+01 0.  0.
    9000005    1    3    3    0    0 -0.40835660122E+02  0.42259178388E+02  0.10905191195E+03  0.12388183401E+03  0.10000000000E+01 0.  0.
<mgrwt>
<rscale>  0 0.12499899E+03</rscale>
<asrwt>0</asrwt>
<pdfrwt beam="2">  1        4 0.34573357E-02 0.12499899E+03</pdfrwt>
<pdfrwt beam="1">  1       -4 0.26741436E-01 0.12499899E+03</pdfrwt>
<totfact> 0.90765965E+03</totfact>
</mgrwt>
</event>
<event>
 5    1  0.3257199E-002  0.1250016E+03  0.7818608E-02  0.1235067E+00
         -4   -1    0    0    0  501 -0.00000000000E+00  0.00000000000E+00  0.59680508365E+03  0.59680643493E+03  0.12700000000E+01 0. -1.
          4   -1    0    0  501    0  0.00000000000E+00 -0.00000000000E+00 -0.64824621927E+01  0.66056957302E+01  0.12700000000E+01 0. -1.
         25    2    1    2    0    0  0.00000000000E+00  0.00000000000E+00  0.59032262146E+03  0.60341213066E+03  0.12500160807E+03 0.  0.
    9000005    1    3    3    0    0 -0.40917078228E+02  0.47232514370E+02  0.29283219797E+03  0.29942747681E+03  0.10000000000E+01 0.  0.
    9000005    1    3    3    0    0  0.40917078228E+02 -0.47232514370E+02  0.29749042349E+03  0.30398465385E+03  0.10000000000E+01 0.  0.
<mgrwt>
<rscale>  0 0.12500161E+03</rscale>
<asrwt>0</asrwt>
<pdfrwt beam="2">  1        4 0.10068846E-02 0.12500161E+03</pdfrwt>
<pdfrwt beam="1">  1       -4 0.91825813E-01 0.12500161E+03</pdfrwt>
<totfact> 0.48651192E+03</totfact>
</mgrwt>
</event>
<event>
 5    1  0.3257199E-002  0.1249910E+03  0.7818608E-02  0.1235083E+00
         -4   -1    0    0    0  501 -0.00000000000E+00  0.00000000000E+00  0.55425311657E+02  0.55439859959E+02  0.12700000000E+01 0.  1.
          4   -1    0    0  501    0  0.00000000000E+00 -0.00000000000E+00 -0.70438013578E+02  0.70449461721E+02  0.12700000000E+01 0.  1.
         25    2    1    2    0    0  0.00000000000E+00  0.00000000000E+00 -0.15012701921E+02  0.12588932168E+03  0.12499096005E+03 0.  0.
    9000005    1    3    3    0    0  0.17121295704E+02 -0.48340890067E+02  0.28453266819E+02  0.58656362073E+02  0.10000000000E+01 0.  0.
    9000005    1    3    3    0    0 -0.17121295704E+02  0.48340890067E+02 -0.43465968740E+02  0.67232959607E+02  0.10000000000E+01 0.  0.
<mgrwt>
<rscale>  0 0.12499096E+03</rscale>
<asrwt>0</asrwt>
<pdfrwt beam="2">  1        4 0.10838617E-01 0.12499096E+03</pdfrwt>
<pdfrwt beam="1">  1       -4 0.85289708E-02 0.12499096E+03</pdfrwt>
<totfact> 0.10435513E+04</totfact>
</mgrwt>
</event>
<event>
 5    1  0.3257199E-002  0.1249989E+03  0.7818608E-02  0.1235071E+00
          4   -1    0    0  501    0  0.00000000000E+00  0.00000000000E+00  0.20829416166E+02  0.20868097130E+02  0.12700000000E+01 0.  1.
         -4   -1    0    0    0  501 -0.00000000000E+00 -0.00000000000E+00 -0.18731722365E+03  0.18732152886E+03  0.12700000000E+01 0.  1.
         25    2    1    2    0    0  0.00000000000E+00  0.00000000000E+00 -0.16648780748E+03  0.20818962599E+03  0.12499892132E+03 0.  0.
    9000005    1    3    3    0    0 -0.33849502390E+02 -0.31283018649E+02 -0.15352787784E+03  0.16030042215E+03  0.10000000000E+01 0.  0.
    9000005    1    3    3    0    0  0.33849502390E+02  0.31283018649E+02 -0.12959929636E+02  0.47889203835E+02  0.10000000000E+01 0.  0.
<mgrwt>
<rscale>  0 0.12499892E+03</rscale>
<asrwt>0</asrwt>
<pdfrwt beam="1">  1        4 0.32078323E-02 0.12499892E+03</pdfrwt>
<pdfrwt beam="2">  1       -4 0.28821340E-01 0.12499892E+03</pdfrwt>
<totfact> 0.88774536E+03</totfact>
</mgrwt>
</event>
<event>
 5    1  0.3257199E-002  0.1249997E+03  0.7818608E-02  0.1235070E+00
          4   -1    0    0  501    0  0.00000000000E+00  0.00000000000E+00  0.42921432683E+02  0.42940217554E+02  0.12700000000E+01 0. -1.
         -4   -1    0    0    0  501 -0.00000000000E+00 -0.00000000000E+00 -0.90965770522E+02  0.90974635513E+02  0.12700000000E+01 0. -1.
         25    2    1    2    0    0  0.00000000000E+00  0.00000000000E+00 -0.48044337838E+02  0.13391485307E+03  0.12499971789E+03 0.  0.
    9000005    1    3    3    0    0  0.37278328909E+02  0.49696293905E+02 -0.16769004917E+02  0.64355224808E+02  0.10000000000E+01 0.  0.
    9000005    1    3    3    0    0 -0.37278328909E+02 -0.49696293905E+02 -0.31275332922E+02  0.69559628259E+02  0.10000000000E+01 0.  0.
<mgrwt>
<rscale>  0 0.12499972E+03</rscale>
<asrwt>0</asrwt>
<pdfrwt beam="1">  1        4 0.66054243E-02 0.12499972E+03</pdfrwt>
<pdfrwt beam="2">  1       -4 0.13996861E-01 0.12499972E+03</pdfrwt>
<totfact> 0.10261059E+04</totfact>
</mgrwt>
</event>
<event>
 5    1  0.3257199E-002  0.1249997E+03  0.7818608E-02  0.1235070E+00
          4   -1    0    0  501    0  0.00000000000E+00  0.00000000000E+00  0.28424337568E+02  0.28452695236E+02  0.12700000000E+01 0. -1.
         -4   -1    0    0    0  501 -0.00000000000E+00 -0.00000000000E+00 -0.13732574511E+03  0.13733161752E+03  0.12700000000E+01 0. -1.
         25    2    1    2    0    0  0.00000000000E+00  0.00000000000E+00 -0.10890140754E+03  0.16578431275E+03  0.12499968716E+03 0.  0.
    9000005    1    3    3    0    0  0.23406240397E+02  0.24784876376E+02  0.15012434119E+02  0.37262787935E+02  0.10000000000E+01 0.  0.
    9000005    1    3    3    0    0 -0.23406240397E+02 -0.24784876376E+02 -0.12391384166E+03  0.12852152482E+03  0.10000000000E+01 0.  0.
<mgrwt>
<rscale>  0 0.12499969E+03</rscale>
<asrwt>0</asrwt>
<pdfrwt beam="1">  1        4 0.43756082E-02 0.12499969E+03</pdfrwt>
<pdfrwt beam="2">  1       -4 0.21129670E-01 0.12499969E+03</pdfrwt>
<totfact> 0.96239738E+03</totfact>
</mgrwt>
</event>
<event>
 5    1  0.3257199E-002  0.1249983E+03  0.7818608E-02  0.1235072E+00
         -4   -1    0    0    0  501 -0.00000000000E+00  0.00000000000E+00  0.10726518499E+02  0.10801439677E+02  0.12700000000E+01 0.  1.
          4   -1    0    0  501    0  0.00000000000E+00 -0.00000000000E+00 -0.36281444769E+03  0.36281667044E+03  0.12700000000E+01 0.  1.
         25    2    1    2    0    0  0.00000000000E+00  0.00000000000E+00 -0.35208792919E+03  0.37361811012E+03  0.12499832930E+03 0.  0.
    9000005    1    3    3    0    0  0.12820311230E+02  0.14944257780E+02 -0.35331506744E+03  0.35386470310E+03  0.10000000000E+01 0.  0.
    9000005    1    3    3    0    0 -0.12820311230E+02 -0.14944257780E+02  0.12271382498E+01  0.19753407020E+02  0.10000000000E+01 0.  0.
<mgrwt>
<rscale>  0 0.12499833E+03</rscale>
<asrwt>0</asrwt>
<pdfrwt beam="2">  1        4 0.55823532E-01 0.12499833E+03</pdfrwt>
<pdfrwt beam="1">  1       -4 0.16561680E-02 0.12499833E+03</pdfrwt>
<totfact> 0.67204592E+03</totfact>
</mgrwt>
</event>
<event>
 5    1  0.3257199E-002  0.1250014E+03  0.7818608E-02  0.1235067E+00
         -4   -1    0    0    0  501 -0.00000000000E+00  0.00000000000E+00  0.42235758433E+03  0.42235949373E+03  0.12700000000E+01 0.  1.
          4   -1    0    0  501    0  0.00000000000E+00 -0.00000000000E+00 -0.92033537790E+01  0.92905662250E+01  0.12700000000E+01 0.  1.
         25    2    1    2    0    0  0.00000000000E+00  0.00000000000E+00  0.41315423055E+03  0.43165005995E+03  0.12500142413E+03 0.  0.
    9000005    1    3    3    0    0 -0.31769705545E+02  0.30009447375E+02  0.36083171670E+03  0.36346995598E+03  0.10000000000E+01 0.  0.
    9000005    1    3    3    0    0  0.31769705545E+02 -0.30009447375E+02  0.52322513852E+02  0.68180103974E+02  0.10000000000E+01 0.  0.
<mgrwt>
<rscale>  0 0.12500142E+03</rscale>
<asrwt>0</asrwt>
<pdfrwt beam="2">  1        4 0.14227560E-02 0.12500142E+03</pdfrwt>
<pdfrwt beam="1">  1       -4 0.64984949E-01 0.12500142E+03</pdfrwt>
<totfact> 0.61584771E+03</totfact>
</mgrwt>
</event>
<event>
 5    1  0.3257199E-002  0.1250080E+03  0.7818608E-02  0.1235057E+00
         -4   -1    0    0    0  501 -0.00000000000E+00  0.00000000000E+00  0.30315956588E+03  0.30316222602E+03  0.12700000000E+01 0.  1.
          4   -1    0    0  501    0  0.00000000000E+00 -0.00000000000E+00 -0.12852769473E+02  0.12915362292E+02  0.12700000000E+01 0.  1.
         25    2    1    2    0    0  0.00000000000E+00  0.00000000000E+00  0.29030679640E+03  0.31607758831E+03  0.12500802291E+03 0.  0.
    9000005    1    3    3    0    0 -0.39687494207E+02  0.45036259011E+02  0.18912165628E+03  0.19842218297E+03  0.10000000000E+01 0.  0.
    9000005    1    3    3    0    0  0.39687494207E+02 -0.45036259011E+02  0.10118514013E+03  0.11765540533E+03  0.10000000000E+01 0.  0.
<mgrwt>
<rscale>  0 0.12500802E+03</rscale>
<asrwt>0</asrwt>
<pdfrwt beam="2">  1        4 0.19823684E-02 0.12500802E+03</pdfrwt>
<pdfrwt beam="1">  1       -4 0.46644959E-01 0.12500802E+03</pdfrwt>
<totfact> 0.73611984E+03</totfact>
</mgrwt>
</event>
<event>
 5    1  0.3257199E-002  0.1249993E+03  0.7818608E-02  0.1235070E+00
          4   -1    0    0  501    0  0.00000000000E+00  0.00000000000E+00  0.45794963421E+01  0.47523348732E+01  0.12700000000E+01 0. -1.
         -4   -1    0    0    0  501 -0.00000000000E+00 -0.00000000000E+00 -0.83700559199E+03  0.83700655549E+03  0.12700000000E+01 0. -1.
         25    2    1    2    0    0  0.00000000000E+00  0.00000000000E+00 -0.83242609565E+03  0.84175889036E+03  0.12499929911E+03 0.  0.
    9000005    1    3    3    0    0  0.56425400986E+02  0.20772693022E+02 -0.53086617947E+03  0.53426138842E+03  0.10000000000E+01 0.  0.
    9000005    1    3    3    0    0 -0.56425400986E+02 -0.20772693022E+02 -0.30155991618E+03  0.30749750194E+03  0.10000000000E+01 0.  0.
<mgrwt>
<rscale>  0 0.12499930E+03</rscale>
<asrwt>0</asrwt>
<pdfrwt beam="1">  1        4 0.71790795E-03 0.12499930E+03</pdfrwt>
<pdfrwt beam="2">  1       -4 0.12878334E+00 0.12499930E+03</pdfrwt>
<totfact> 0.36467541E+03</totfact>
</mgrwt>
</event>
<event>
 5    1  0.3257199E-002  0.1250005E+03  0.7818608E-02  0.1235069E+00
          4   -1    0    0  501    0  0.00000000000E+00  0.00000000000E+00  0.14437584343E+02  0.14493334387E+02  0.12700000000E+01 0. -1.
         -4   -1    0    0    0  501 -0.00000000000E+00 -0.00000000000E+00 -0.26998459236E+03  0.26998757936E+03  0.12700000000E+01 0. -1.
         25    2    1    2    0    0  0.00000000000E+00  0.00000000000E+00 -0.25554700802E+03  0.28448091375E+03  0.12500046793E+03 0.  0.
    9000005    1    3    3    0    0 -0.51143205913E+02  0.34235732774E+02 -0.10309703662E+03  0.12007377678E+03  0.10000000000E+01 0.  0.
    9000005    1    3    3    0    0  0.51143205913E+02 -0.34235732774E+02 -0.15244997139E+03  0.16440713697E+03  0.10000000000E+01 0.  0.
<mgrwt>
<rscale>  0 0.12500047E+03</rscale>
<asrwt>0</asrwt>
<pdfrwt beam="1">  1        4 0.22256853E-02 0.12500047E+03</pdfrwt>
<pdfrwt beam="2">  1       -4 0.41540606E-01 0.12500047E+03</pdfrwt>
<totfact> 0.77586891E+03</totfact>
</mgrwt>
</event>
<event>
 5    1  0.3257199E-002  0.1250027E+03  0.7818608E-02  0.1235065E+00
          4   -1    0    0  501    0  0.00000000000E+00  0.00000000000E+00  0.22146191418E+03  0.22146555563E+03  0.12700000000E+01 0.  1.
         -4   -1    0    0    0  501 -0.00000000000E+00 -0.00000000000E+00 -0.17612595749E+02  0.17658324638E+02  0.12700000000E+01 0.  1.
         25    2    1    2    0    0  0.00000000000E+00  0.00000000000E+00  0.20384931843E+03  0.23912388027E+03  0.12500274194E+03 0.  0.
    9000005    1    3    3    0    0  0.34222895571E+01 -0.58657932140E+02  0.61211803670E+02  0.84854875978E+02  0.10000000000E+01 0.  0.
    9000005    1    3    3    0    0 -0.34222895571E+01  0.58657932140E+02  0.14263751476E+03  0.15426900429E+03  0.10000000000E+01 0.  0.
<mgrwt>
<rscale>  0 0.12500274E+03</rscale>
<asrwt>0</asrwt>
<pdfrwt beam="1">  1        4 0.34074861E-01 0.12500274E+03</pdfrwt>
<pdfrwt beam="2">  1       -4 0.27134278E-02 0.12500274E+03</pdfrwt>
<totfact> 0.83922892E+03</totfact>
</mgrwt>
</event>
<event>
 5    1  0.3257199E-002  0.1250019E+03  0.7818608E-02  0.1235066E+00
         -4   -1    0    0    0  501 -0.00000000000E+00  0.00000000000E+00  0.10336432113E+03  0.10337212285E+03  0.12700000000E+01 0.  1.
          4   -1    0    0  501    0  0.00000000000E+00 -0.00000000000E+00 -0.37772359409E+02  0.37793703646E+02  0.12700000000E+01 0.  1.
         25    2    1    2    0    0  0.00000000000E+00  0.00000000000E+00  0.65591961723E+02  0.14116582650E+03  0.12500194050E+03 0.  0.
    9000005    1    3    3    0    0 -0.56575106031E+02  0.17635273197E+02  0.55201478684E+02  0.80993510431E+02  0.10000000000E+01 0.  0.
    9000005    1    3    3    0    0  0.56575106031E+02 -0.17635273197E+02  0.10390483039E+02  0.60172316067E+02  0.10000000000E+01 0.  0.
<mgrwt>
<rscale>  0 0.12500194E+03</rscale>
<asrwt>0</asrwt>
<pdfrwt beam="2">  1        4 0.58133743E-02 0.12500194E+03</pdfrwt>
<pdfrwt beam="1">  1       -4 0.15904445E-01 0.12500194E+03</pdfrwt>
<totfact> 0.10109039E+04</totfact>
</mgrwt>
</event>
<event>
 5    1  0.3257199E-002  0.1249997E+03  0.7818608E-02  0.1235070E+00
         -4   -1    0    0    0  501 -0.00000000000E+00  0.00000000000E+00  0.79058752506E+03  0.79058854513E+03  0.12700000000E+01 0.  1.
          4   -1    0    0  501    0  0.00000000000E+00 -0.00000000000E+00 -0.48582733266E+01  0.50215256362E+01  0.12700000000E+01 0.  1.
         25    2    1    2    0    0  0.00000000000E+00  0.00000000000E+00  0.78572925174E+03  0.79561007076E+03  0.12499971066E+03 0.  0.
    9000005    1    3    3    0    0 -0.47831722520E+02  0.40214337263E+02  0.39027672277E+03  0.39524927190E+03  0.10000000000E+01 0.  0.
    9000005    1    3    3    0    0  0.47831722520E+02 -0.40214337263E+02  0.39545252897E+03  0.40036079887E+03  0.10000000000E+01 0.  0.
<mgrwt>
<rscale>  0 0.12499971E+03</rscale>
<asrwt>0</asrwt>
<pdfrwt beam="2">  1        4 0.76006247E-03 0.12499971E+03</pdfrwt>
<pdfrwt beam="1">  1       -4 0.12164157E+00 0.12499971E+03</pdfrwt>
<totfact> 0.38461674E+03</totfact>
</mgrwt>
</event>
<event>
 5    1  0.3257199E-002  0.1249985E+03  0.7818608E-02  0.1235072E+00
          4   -1    0    0  501    0  0.00000000000E+00  0.00000000000E+00  0.83364692479E+02  0.83374365677E+02  0.12700000000E+01 0. -1.
         -4   -1    0    0    0  501 -0.00000000000E+00 -0.00000000000E+00 -0.46835258556E+02  0.46852474257E+02  0.12700000000E+01 0. -1.
         25    2    1    2    0    0  0.00000000000E+00  0.00000000000E+00  0.36529433923E+02  0.13022683993E+03  0.12499852118E+03 0.  0.
    9000005    1    3    3    0    0 -0.12710470465E+02  0.51255068245E+02  0.53076701517E+02  0.74878396912E+02  0.10000000000E+01 0.  0.
    9000005    1    3    3    0    0  0.12710470465E+02 -0.51255068245E+02 -0.16547267594E+02  0.55348443023E+02  0.10000000000E+01 0.  0.
<mgrwt>
<rscale>  0 0.12499852E+03</rscale>
<asrwt>0</asrwt>
<pdfrwt beam="1">  1        4 0.12827406E-01 0.12499852E+03</pdfrwt>
<pdfrwt beam="2">  1       -4 0.72074928E-02 0.12499852E+03</pdfrwt>
<totfact> 0.10340003E+04</totfact>
</mgrwt>
</event>
<event>
 5    1  0.3257199E-002  0.1249999E+03  0.7818608E-02  0.1235069E+00
         -4   -1    0    0    0  501 -0.00000000000E+00  0.00000000000E+00  0.19121568440E+02  0.19163696919E+02  0.12700000000E+01 0.  1.
          4   -1    0    0  501    0  0.00000000000E+00 -0.00000000000E+00 -0.20401580315E+03  0.20401975600E+03  0.12700000000E+01 0.  1.
         25    2    1    2    0    0  0.00000000000E+00  0.00000000000E+00 -0.18489423471E+03  0.22318345292E+03  0.12499990250E+03 0.  0.
    9000005    1    3    3    0    0  0.30970128882E+02  0.53269229327E+02 -0.73850428552E+02  0.96185474337E+02  0.10000000000E+01 0.  0.
    9000005    1    3    3    0    0 -0.30970128882E+02 -0.53269229327E+02 -0.11104380616E+03  0.12699797858E+03  0.10000000000E+01 0.  0.
<mgrwt>
<rscale>  0 0.12499990E+03</rscale>
<asrwt>0</asrwt>
<pdfrwt beam="2">  1        4 0.31390590E-01 0.12499990E+03</pdfrwt>
<pdfrwt beam="1">  1       -4 0.29453246E-02 0.12499990E+03</pdfrwt>
<totfact> 0.86367292E+03</totfact>
</mgrwt>
</event>
<event>
 5    1  0.3257199E-002  0.1249953E+03  0.7818608E-02  0.1235077E+00
          4   -1    0    0  501    0  0.00000000000E+00  0.00000000000E+00  0.53456477535E+02  0.53471561511E+02  0.12700000000E+01 0.  1.
         -4   -1    0    0    0  501 -0.00000000000E+00 -0.00000000000E+00 -0.73037098042E+02  0.73048138857E+02  0.12700000000E+01 0.  1.
         25    2    1    2    0    0  0.00000000000E+00  0.00000000000E+00 -0.19580620507E+02  0.12651970037E+03  0.12499533544E+03 0.  0.
    9000005    1    3    3    0    0  0.38000139611E+02  0.32941550723E+02 -0.47334465042E+02  0.69070311678E+02  0.10000000000E+01 0.  0.
    9000005    1    3    3    0    0 -0.38000139611E+02 -0.32941550723E+02  0.27753844534E+02  0.57449388691E+02  0.10000000000E+01 0.  0.
<mgrwt>
<rscale>  0 0.12499534E+03</rscale>
<asrwt>0</asrwt>
<pdfrwt beam="1">  1        4 0.82260831E-02 0.12499534E+03</pdfrwt>
<pdfrwt beam="2">  1       -4 0.11238486E-01 0.12499534E+03</pdfrwt>
<totfact> 0.10420696E+04</totfact>
</mgrwt>
</event>
<event>
 5    1  0.3257199E-002  0.1250005E+03  0.7818608E-02  0.1235068E+00
         -4   -1    0    0    0  501 -0.00000000000E+00  0.00000000000E+00  0.56091892562E+03  0.56092036335E+03  0.12700000000E+01 0.  1.
          4   -1    0    0  501    0  0.00000000000E+00 -0.00000000000E+00 -0.69047190568E+01  0.70205445126E+01  0.12700000000E+01 0.  1.
         25    2    1    2    0    0  0.00000000000E+00  0.00000000000E+00  0.55401420657E+03  0.56794090786E+03  0.12500053499E+03 0.  0.
    9000005    1    3    3    0    0 -0.44528305826E+02  0.35433732919E+02  0.39434612753E+03  0.39843216204E+03  0.10000000000E+01 0.  0.
    9000005    1    3    3    0    0  0.44528305826E+02 -0.35433732919E+02  0.15966807903E+03  0.16950874582E+03  0.10000000000E+01 0.  0.
<mgrwt>
<rscale>  0 0.12500053E+03</rscale>
<asrwt>0</asrwt>
<pdfrwt beam="2">  1        4 0.10712850E-02 0.12500053E+03</pdfrwt>
<pdfrwt beam="1">  1       -4 0.86304220E-01 0.12500053E+03</pdfrwt>
<totfact> 0.50955300E+03</totfact>
</mgrwt>
</event>
<event>
 5    1  0.3257199E-002  0.1249986E+03  0.7818608E-02  0.1235072E+00
         -4   -1    0    0    0  501 -0.00000000000E+00  0.00000000000E+00  0.13369545162E+04  0.13369551194E+04  0.12700000000E+01 0. -1.
          4   -1    0    0  501    0  0.00000000000E+00 -0.00000000000E+00 -0.27830410223E+01  0.30591203526E+01  0.12700000000E+01 0. -1.
         25    2    1    2    0    0  0.00000000000E+00  0.00000000000E+00  0.13341714751E+04  0.13400142397E+04  0.12499855023E+03 0.  0.
    9000005    1    3    3    0    0  0.50358602626E+02  0.27587567906E+02  0.40272878598E+03  0.40680282425E+03  0.10000000000E+01 0.  0.
    9000005    1    3    3    0    0 -0.50358602626E+02 -0.27587567906E+02  0.93144268916E+03  0.93321141547E+03  0.10000000000E+01 0.  0.
<mgrwt>
<rscale>  0 0.12499855E+03</rscale>
<asrwt>0</asrwt>
<pdfrwt beam="2">  1        4 0.44944339E-03 0.12499855E+03</pdfrwt>
<pdfrwt beam="1">  1       -4 0.20570661E+00 0.12499855E+03</pdfrwt>
<totfact> 0.21304012E+03</totfact>
</mgrwt>
</event>
<event>
 5    1  0.3257199E-002  0.1250057E+03  0.7818608E-02  0.1235060E+00
         -4   -1    0    0    0  501 -0.00000000000E+00  0.00000000000E+00  0.39317859390E+02  0.39338365078E+02  0.12700000000E+01 0.  1.
          4   -1    0    0  501    0  0.00000000000E+00 -0.00000000000E+00 -0.99309068667E+02  0.99317188943E+02  0.12700000000E+01 0.  1.
         25    2    1    2    0    0  0.00000000000E+00  0.00000000000E+00 -0.59991209277E+02  0.13865555402E+03  0.12500566975E+03 0.  0.
    9000005    1    3    3    0    0  0.30901765323E+02  0.39974325092E+02 -0.70791315085E+02  0.86978595402E+02  0.10000000000E+01 0.  0.
    9000005    1    3    3    0    0 -0.30901765323E+02 -0.39974325092E+02  0.10800105808E+02  0.51676958619E+02  0.10000000000E+01 0.  0.
<mgrwt>
<rscale>  0 0.12500567E+03</rscale>
<asrwt>0</asrwt>
<pdfrwt beam="2">  1        4 0.15280520E-01 0.12500567E+03</pdfrwt>
<pdfrwt beam="1">  1       -4 0.60511035E-02 0.12500567E+03</pdfrwt>
<totfact> 0.10160228E+04</totfact>
</mgrwt>
</event>
<event>
 5    1  0.3257199E-002  0.1250160E+03  0.7818608E-02  0.1235044E+00
         -4   -1    0    0    0  501 -0.00000000000E+00  0.00000000000E+00  0.21468632713E+03  0.21469008351E+03  0.12700000000E+01 0.  1.
          4   -1    0    0  501    0  0.00000000000E+00 -0.00000000000E+00 -0.18173719176E+02  0.18218039650E+02  0.12700000000E+01 0.  1.
         25    2    1    2    0    0  0.00000000000E+00  0.00000000000E+00  0.19651260796E+03  0.23290812316E+03  0.12501595397E+03 0.  0.
    9000005    1    3    3    0    0 -0.64359141383E+01 -0.10971898342E+02 -0.15745794523E+02  0.20266563329E+02  0.10000000000E+01 0.  0.
    9000005    1    3    3    0    0  0.64359141383E+01  0.10971898342E+02  0.21225840248E+03  0.21264155983E+03  0.10000000000E+01 0.  0.
<mgrwt>
<rscale>  0 0.12501595E+03</rscale>
<asrwt>0</asrwt>
<pdfrwt beam="2">  1        4 0.27996551E-02 0.12501595E+03</pdfrwt>
<pdfrwt beam="1">  1       -4 0.33032363E-01 0.12501595E+03</pdfrwt>
<totfact> 0.84834849E+03</totfact>
</mgrwt>
</event>
<event>
 5    1  0.3257199E-002  0.1250220E+03  0.7818608E-02  0.1235035E+00
          4   -1    0    0  501    0  0.00000000000E+00  0.00000000000E+00  0.66979019947E+01  0.68172421939E+01  0.12700000000E+01 0. -1.
         -4   -1    0    0    0  501 -0.00000000000E+00 -0.00000000000E+00 -0.57813876253E+03  0.57814015744E+03  0.12700000000E+01 0. -1.
         25    2    1    2    0    0  0.00000000000E+00  0.00000000000E+00 -0.57144086054E+03  0.58495739963E+03  0.12502200723E+03 0.  0.
    9000005    1    3    3    0    0 -0.11639519752E+02  0.23767175893E+02 -0.20786418257E+02  0.33666485618E+02  0.10000000000E+01 0.  0.
    9000005    1    3    3    0    0  0.11639519752E+02 -0.23767175893E+02 -0.55065444228E+03  0.55129091401E+03  0.10000000000E+01 0.  0.
<mgrwt>
<rscale>  0 0.12502201E+03</rscale>
<asrwt>0</asrwt>
<pdfrwt beam="1">  1        4 0.10397342E-02 0.12502201E+03</pdfrwt>
<pdfrwt beam="2">  1       -4 0.88953673E-01 0.12502201E+03</pdfrwt>
<totfact> 0.49807089E+03</totfact>
</mgrwt>
</event>
<event>
 5    1  0.3257199E-002  0.1250013E+03  0.7818608E-02  0.1235067E+00
         -4   -1    0    0    0  501 -0.00000000000E+00  0.00000000000E+00  0.33069855874E+02  0.33094233146E+02  0.12700000000E+01 0. -1.
          4   -1    0    0  501    0  0.00000000000E+00 -0.00000000000E+00 -0.11805239070E+03  0.11805922180E+03  0.12700000000E+01 0. -1.
         25    2    1    2    0    0  0.00000000000E+00  0.00000000000E+00 -0.84982534830E+02  0.15115345494E+03  0.12500134285E+03 0.  0.
    9000005    1    3    3    0    0  0.20859445136E+02  0.54890269360E+02 -0.68349123393E+02  0.90114709068E+02  0.10000000000E+01 0.  0.
    9000005    1    3    3    0    0 -0.20859445136E+02 -0.54890269360E+02 -0.16633411437E+02  0.61038745874E+02  0.10000000000E+01 0.  0.
<mgrwt>
<rscale>  0 0.12500134E+03</rscale>
<asrwt>0</asrwt>
<pdfrwt beam="2">  1        4 0.18164307E-01 0.12500134E+03</pdfrwt>
<pdfrwt beam="1">  1       -4 0.50900708E-02 0.12500134E+03</pdfrwt>
<totfact> 0.99071276E+03</totfact>
</mgrwt>
</event>
<event>
 5    1  0.3257199E-002  0.1250131E+03  0.7818608E-02  0.1235049E+00
          4   -1    0    0  501    0  0.00000000000E+00  0.00000000000E+00  0.50625424178E+02  0.50641351416E+02  0.12700000000E+01 0. -1.
         -4   -1    0    0    0  501 -0.00000000000E+00 -0.00000000000E+00 -0.77142759100E+02  0.77153212386E+02  0.12700000000E+01 0. -1.
         25    2    1    2    0    0  0.00000000000E+00  0.00000000000E+00 -0.26517334921E+02  0.12779456380E+03  0.12501312525E+03 0.  0.
    9000005    1    3    3    0    0  0.17417138181E+02 -0.59334242568E+01  0.47798865733E+02  0.51227861473E+02  0.10000000000E+01 0.  0.
    9000005    1    3    3    0    0 -0.17417138181E+02  0.59334242568E+01 -0.74316200654E+02  0.76566702329E+02  0.10000000000E+01 0.  0.
<mgrwt>
<rscale>  0 0.12501313E+03</rscale>
<asrwt>0</asrwt>
<pdfrwt beam="1">  1        4 0.77905561E-02 0.12501313E+03</pdfrwt>
<pdfrwt beam="2">  1       -4 0.11870146E-01 0.12501313E+03</pdfrwt>
<totfact> 0.10388848E+04</totfact>
</mgrwt>
</event>
<event>
 5    1  0.3257199E-002  0.1249995E+03  0.7818608E-02  0.1235070E+00
         -4   -1    0    0    0  501 -0.00000000000E+00  0.00000000000E+00  0.15012887276E+02  0.15066508698E+02  0.12700000000E+01 0. -1.
          4   -1    0    0  501    0  0.00000000000E+00 -0.00000000000E+00 -0.25967208352E+03  0.25967518915E+03  0.12700000000E+01 0. -1.
         25    2    1    2    0    0  0.00000000000E+00  0.00000000000E+00 -0.24465919624E+03  0.27474169785E+03  0.12499951291E+03 0.  0.
    9000005    1    3    3    0    0 -0.25032042977E+02  0.51558327874E+02 -0.17707359138E+03  0.18612071651E+03  0.10000000000E+01 0.  0.
    9000005    1    3    3    0    0  0.25032042977E+02 -0.51558327874E+02 -0.67585604863E+02  0.88620981339E+02  0.10000000000E+01 0.  0.
<mgrwt>
<rscale>  0 0.12499951E+03</rscale>
<asrwt>0</asrwt>
<pdfrwt beam="2">  1        4 0.39953912E-01 0.12499951E+03</pdfrwt>
<pdfrwt beam="1">  1       -4 0.23140388E-02 0.12499951E+03</pdfrwt>
<totfact> 0.78881379E+03</totfact>
</mgrwt>
</event>
<event>
 5    1  0.3257199E-002  0.1250022E+03  0.7818608E-02  0.1235066E+00
         -4   -1    0    0    0  501 -0.00000000000E+00  0.00000000000E+00  0.13216806457E+02  0.13277683266E+02  0.12700000000E+01 0. -1.
          4   -1    0    0  501    0  0.00000000000E+00 -0.00000000000E+00 -0.29482060430E+03  0.29482333968E+03  0.12700000000E+01 0. -1.
         25    2    1    2    0    0  0.00000000000E+00  0.00000000000E+00 -0.28160379785E+03  0.30810102295E+03  0.12500216551E+03 0.  0.
    9000005    1    3    3    0    0  0.34297058952E+02  0.72984291785E+01 -0.26830033709E+03  0.27058386169E+03  0.10000000000E+01 0.  0.
    9000005    1    3    3    0    0 -0.34297058952E+02 -0.72984291785E+01 -0.13303460755E+02  0.37517161264E+02  0.10000000000E+01 0.  0.
<mgrwt>
<rscale>  0 0.12500217E+03</rscale>
<asrwt>0</asrwt>
<pdfrwt beam="2">  1        4 0.45361905E-01 0.12500217E+03</pdfrwt>
<pdfrwt beam="1">  1       -4 0.20382483E-02 0.12500217E+03</pdfrwt>
<totfact> 0.74590187E+03</totfact>
</mgrwt>
</event>
<event>
 5    1  0.3257199E-002  0.1249958E+03  0.7818608E-02  0.1235076E+00
          4   -1    0    0  501    0  0.00000000000E+00  0.00000000000E+00  0.13670486918E+03  0.13671076826E+03  0.12700000000E+01 0.  1.
         -4   -1    0    0    0  501 -0.00000000000E+00 -0.00000000000E+00 -0.28551795204E+02  0.28580026406E+02  0.12700000000E+01 0.  1.
         25    2    1    2    0    0  0.00000000000E+00  0.00000000000E+00  0.10815307398E+03  0.16529079466E+03  0.12499583749E+03 0.  0.
    9000005    1    3    3    0    0  0.47897758313E+02 -0.17718449313E+02  0.64555729917E+01  0.51486047820E+02  0.10000000000E+01 0.  0.
    9000005    1    3    3    0    0 -0.47897758313E+02  0.17718449313E+02  0.10169750098E+03  0.11380474684E+03  0.10000000000E+01 0.  0.
<mgrwt>
<rscale>  0 0.12499584E+03</rscale>
<asrwt>0</asrwt>
<pdfrwt beam="1">  1        4 0.21034143E-01 0.12499584E+03</pdfrwt>
<pdfrwt beam="2">  1       -4 0.43952093E-02 0.12499584E+03</pdfrwt>
<totfact> 0.96341357E+03</totfact>
</mgrwt>
</event>
<event>
 5    1  0.3257199E-002  0.1250044E+03  0.7818608E-02  0.1235062E+00
         -4   -1    0    0    0  501 -0.00000000000E+00  0.00000000000E+00  0.40734866560E+02  0.40754659287E+02  0.12700000000E+01 0.  1.
          4   -1    0    0  501    0  0.00000000000E+00 -0.00000000000E+00 -0.95853976493E+02  0.95862389442E+02  0.12700000000E+01 0.  1.
         25    2    1    2    0    0  0.00000000000E+00  0.00000000000E+00 -0.55119109933E+02  0.13661704873E+03  0.12500440682E+03 0.  0.
    9000005    1    3    3    0    0 -0.43643287630E+01 -0.25002069270E-01  0.40573466873E+02  0.40819777127E+02  0.10000000000E+01 0.  0.
    9000005    1    3    3    0    0  0.43643287630E+01  0.25002069270E-01 -0.95692576806E+02  0.95797271602E+02  0.10000000000E+01 0.  0.
<mgrwt>
<rscale>  0 0.12500441E+03</rscale>
<asrwt>0</asrwt>
<pdfrwt beam="2">  1        4 0.14748935E-01 0.12500441E+03</pdfrwt>
<pdfrwt beam="1">  1       -4 0.62690723E-02 0.12500441E+03</pdfrwt>
<totfact> 0.10203085E+04</totfact>
</mgrwt>
</event>
<event>
 5    1  0.3257199E-002  0.1250001E+03  0.7818608E-02  0.1235069E+00
          4   -1    0    0  501    0  0.00000000000E+00  0.00000000000E+00  0.94286386265E+01  0.95137861206E+01  0.12700000000E+01 0. -1.
         -4   -1    0    0    0  501 -0.00000000000E+00 -0.00000000000E+00 -0.41234843997E+03  0.41235039572E+03  0.12700000000E+01 0. -1.
         25    2    1    2    0    0  0.00000000000E+00  0.00000000000E+00 -0.40291980135E+03  0.42186418184E+03  0.12500008640E+03 0.  0.
    9000005    1    3    3    0    0 -0.44624896921E+02  0.12389737672E+02 -0.59859618375E+02  0.75690560421E+02  0.10000000000E+01 0.  0.
    9000005    1    3    3    0    0  0.44624896921E+02 -0.12389737672E+02 -0.34306018297E+03  0.34617362142E+03  0.10000000000E+01 0.  0.
<mgrwt>
<rscale>  0 0.12500009E+03</rscale>
<asrwt>0</asrwt>
<pdfrwt beam="1">  1        4 0.14572604E-02 0.12500009E+03</pdfrwt>
<pdfrwt beam="2">  1       -4 0.63444908E-01 0.12500009E+03</pdfrwt>
<totfact> 0.62480328E+03</totfact>
</mgrwt>
</event>
<event>
 5    1  0.3257199E-002  0.1249995E+03  0.7818608E-02  0.1235070E+00
         -4   -1    0    0    0  501 -0.00000000000E+00  0.00000000000E+00  0.19029897270E+02  0.19072228241E+02  0.12700000000E+01 0.  1.
          4   -1    0    0  501    0  0.00000000000E+00 -0.00000000000E+00 -0.20499510788E+03  0.20499904184E+03  0.12700000000E+01 0.  1.
         25    2    1    2    0    0  0.00000000000E+00  0.00000000000E+00 -0.18596521061E+03  0.22407127008E+03  0.12499949807E+03 0.  0.
    9000005    1    3    3    0    0  0.10313232351E+01  0.45136348933E+02 -0.17043491340E+03  0.17631623104E+03  0.10000000000E+01 0.  0.
    9000005    1    3    3    0    0 -0.10313232351E+01 -0.45136348933E+02 -0.15530297217E+02  0.47755039046E+02  0.10000000000E+01 0.  0.
<mgrwt>
<rscale>  0 0.12499950E+03</rscale>
<asrwt>0</asrwt>
<pdfrwt beam="2">  1        4 0.31541266E-01 0.12499950E+03</pdfrwt>
<pdfrwt beam="1">  1       -4 0.29312355E-02 0.12499950E+03</pdfrwt>
<totfact> 0.86229163E+03</totfact>
</mgrwt>
</event>
<event>
 5    1  0.3257199E-002  0.1250015E+03  0.7818608E-02  0.1235067E+00
          4   -1    0    0  501    0  0.00000000000E+00  0.00000000000E+00  0.10809901628E+02  0.10884248858E+02  0.12700000000E+01 0.  1.
         -4   -1    0    0    0  501 -0.00000000000E+00 -0.00000000000E+00 -0.36005335208E+03  0.36005559188E+03  0.12700000000E+01 0.  1.
         25    2    1    2    0    0  0.00000000000E+00  0.00000000000E+00 -0.34924345045E+03  0.37093984074E+03  0.12500151104E+03 0.  0.
    9000005    1    3    3    0    0  0.46080689261E+02  0.20768374036E+02 -0.65565654068E+02  0.82792573799E+02  0.10000000000E+01 0.  0.
    9000005    1    3    3    0    0 -0.46080689261E+02 -0.20768374036E+02 -0.28367779638E+03  0.28814726694E+03  0.10000000000E+01 0.  0.
<mgrwt>
<rscale>  0 0.12500151E+03</rscale>
<asrwt>0</asrwt>
<pdfrwt beam="1">  1        4 0.16689534E-02 0.12500151E+03</pdfrwt>
<pdfrwt beam="2">  1       -4 0.55398706E-01 0.12500151E+03</pdfrwt>
<totfact> 0.67478477E+03</totfact>
</mgrwt>
</event>
<event>
 5    1  0.3257199E-002  0.1250086E+03  0.7818608E-02  0.1235056E+00
         -4   -1    0    0    0  501 -0.00000000000E+00  0.00000000000E+00  0.10552068714E+03  0.10552832944E+03  0.12700000000E+01 0. -1.
          4   -1    0    0  501    0  0.00000000000E+00 -0.00000000000E+00 -0.37004002908E+02  0.37025790082E+02  0.12700000000E+01 0. -1.
         25    2    1    2    0    0  0.00000000000E+00  0.00000000000E+00  0.68516684236E+02  0.14255411953E+03  0.12500856361E+03 0.  0.
    9000005    1    3    3    0    0 -0.40970560594E+02  0.16109709169E+02 -0.16326076848E+02  0.46964351908E+02  0.10000000000E+01 0.  0.
    9000005    1    3    3    0    0  0.40970560594E+02 -0.16109709169E+02  0.84842761084E+02  0.95589767618E+02  0.10000000000E+01 0.  0.
<mgrwt>
<rscale>  0 0.12500856E+03</rscale>
<asrwt>0</asrwt>
<pdfrwt beam="2">  1        4 0.56951873E-02 0.12500856E+03</pdfrwt>
<pdfrwt beam="1">  1       -4 0.16236216E-01 0.12500856E+03</pdfrwt>
<totfact> 0.10078978E+04</totfact>
</mgrwt>
</event>
<event>
 5    1  0.3257199E-002  0.1249916E+03  0.7818608E-02  0.1235082E+00
         -4   -1    0    0    0  501 -0.00000000000E+00  0.00000000000E+00  0.90279629837E+03  0.90279719165E+03  0.12700000000E+01 0. -1.
          4   -1    0    0  501    0  0.00000000000E+00 -0.00000000000E+00 -0.42321337349E+01  0.44185807620E+01  0.12700000000E+01 0. -1.
         25    2    1    2    0    0  0.00000000000E+00  0.00000000000E+00  0.89856416463E+03  0.90721577241E+03  0.12499159870E+03 0.  0.
    9000005    1    3    3    0    0 -0.33986195618E+02  0.41197435606E+02  0.68474762214E+03  0.68682792330E+03  0.10000000000E+01 0.  0.
    9000005    1    3    3    0    0  0.33986195618E+02 -0.41197435606E+02  0.21381654249E+03  0.22038784911E+03  0.10000000000E+01 0.  0.
<mgrwt>
<rscale>  0 0.12499160E+03</rscale>
<asrwt>0</asrwt>
<pdfrwt beam="2">  1        4 0.66550749E-03 0.12499160E+03</pdfrwt>
<pdfrwt beam="1">  1       -4 0.13890632E+00 0.12499160E+03</pdfrwt>
<totfact> 0.33891293E+03</totfact>
</mgrwt>
</event>
<event>
 5    1  0.3257199E-002  0.1250089E+03  0.7818608E-02  0.1235055E+00
          4   -1    0    0  501    0  0.00000000000E+00  0.00000000000E+00  0.41824034358E+01  0.43709722602E+01  0.12700000000E+01 0.  1.
         -4   -1    0    0    0  501 -0.00000000000E+00 -0.00000000000E+00 -0.91332370680E+03  0.91332458978E+03  0.12700000000E+01 0.  1.
         25    2    1    2    0    0  0.00000000000E+00  0.00000000000E+00 -0.90914130336E+03  0.91769556204E+03  0.12500894013E+03 0.  0.
    9000005    1    3    3    0    0  0.99354890861E+01  0.88523476975E+01 -0.90283899693E+03  0.90293761268E+03  0.10000000000E+01 0.  0.
    9000005    1    3    3    0    0 -0.99354890861E+01 -0.88523476975E+01 -0.63023064297E+01  0.14757949365E+02  0.10000000000E+01 0.  0.
<mgrwt>
<rscale>  0 0.12500894E+03</rscale>
<asrwt>0</asrwt>
<pdfrwt beam="1">  1        4 0.65802062E-03 0.12500894E+03</pdfrwt>
<pdfrwt beam="2">  1       -4 0.14052576E+00 0.12500894E+03</pdfrwt>
<totfact> 0.33484845E+03</totfact>
</mgrwt>
</event>
<event>
 5    1  0.3257199E-002  0.1249962E+03  0.7818608E-02  0.1235075E+00
          4   -1    0    0  501    0  0.00000000000E+00  0.00000000000E+00  0.25908993082E+01  0.28854218453E+01  0.12700000000E+01 0. -1.
         -4   -1    0    0    0  501 -0.00000000000E+00 -0.00000000000E+00 -0.14262158380E+04  0.14262164034E+04  0.12700000000E+01 0. -1.
         25    2    1    2    0    0  0.00000000000E+00  0.00000000000E+00 -0.14236249387E+04  0.14291018253E+04  0.12499624390E+03 0.  0.
    9000005    1    3    3    0    0  0.62232461491E+02  0.56097710589E+01 -0.72114610577E+03  0.72384877887E+03  0.10000000000E+01 0.  0.
    9000005    1    3    3    0    0 -0.62232461491E+02 -0.56097710589E+01 -0.70247883292E+03  0.70525304642E+03  0.10000000000E+01 0.  0.
<mgrwt>
<rscale>  0 0.12499624E+03</rscale>
<asrwt>0</asrwt>
<pdfrwt beam="1">  1        4 0.42130011E-03 0.12499624E+03</pdfrwt>
<pdfrwt beam="2">  1       -4 0.21943993E+00 0.12499624E+03</pdfrwt>
<totfact> 0.19366572E+03</totfact>
</mgrwt>
</event>
<event>
 5    1  0.3257199E-002  0.1249995E+03  0.7818608E-02  0.1235070E+00
         -4   -1    0    0    0  501 -0.00000000000E+00  0.00000000000E+00  0.15461352566E+03  0.15461874148E+03  0.12700000000E+01 0.  1.
          4   -1    0    0  501    0  0.00000000000E+00 -0.00000000000E+00 -0.25242781227E+02  0.25274708784E+02  0.12700000000E+01 0.  1.
         25    2    1    2    0    0  0.00000000000E+00  0.00000000000E+00  0.12937074444E+03  0.17989345027E+03  0.12499945573E+03 0.  0.
    9000005    1    3    3    0    0 -0.63157576238E-01 -0.36599244918E+02  0.13758256117E+03  0.14237088837E+03  0.10000000000E+01 0.  0.
    9000005    1    3    3    0    0  0.63157576238E-01  0.36599244918E+02 -0.82118167316E+01  0.37522561899E+02  0.10000000000E+01 0.  0.
<mgrwt>
<rscale>  0 0.12499946E+03</rscale>
<asrwt>0</asrwt>
<pdfrwt beam="2">  1        4 0.38863619E-02 0.12499946E+03</pdfrwt>
<pdfrwt beam="1">  1       -4 0.23789554E-01 0.12499946E+03</pdfrwt>
<totfact> 0.93637328E+03</totfact>
</mgrwt>
</event>
<event>
 5    1  0.3257199E-002  0.1249984E+03  0.7818608E-02  0.1235072E+00
          4   -1    0    0  501    0  0.00000000000E+00  0.00000000000E+00  0.52088298735E+02  0.52103778799E+02  0.12700000000E+01 0.  1.
         -4   -1    0    0    0  501 -0.00000000000E+00 -0.00000000000E+00 -0.74958885623E+02  0.74969643415E+02  0.12700000000E+01 0.  1.
         25    2    1    2    0    0  0.00000000000E+00  0.00000000000E+00 -0.22870586888E+02  0.12707342221E+03  0.12499836354E+03 0.  0.
    9000005    1    3    3    0    0 -0.47423706208E+02  0.39249453491E+02 -0.22366479338E+02  0.65504098405E+02  0.10000000000E+01 0.  0.
    9000005    1    3    3    0    0  0.47423706208E+02 -0.39249453491E+02 -0.50410754946E+00  0.61569323809E+02  0.10000000000E+01 0.  0.
<mgrwt>
<rscale>  0 0.12499836E+03</rscale>
<asrwt>0</asrwt>
<pdfrwt beam="1">  1        4 0.80156027E-02 0.12499836E+03</pdfrwt>
<pdfrwt beam="2">  1       -4 0.11534155E-01 0.12499836E+03</pdfrwt>
<totfact> 0.10407935E+04</totfact>
</mgrwt>
</event>
<event>
 5    1  0.3257199E-002  0.1249968E+03  0.7818608E-02  0.1235074E+00
          4   -1    0    0  501    0  0.00000000000E+00  0.00000000000E+00  0.82489054691E+01  0.83460973777E+01  0.12700000000E+01 0. -1.
         -4   -1    0    0    0  501 -0.00000000000E+00 -0.00000000000E+00 -0.47065217299E+03  0.47065388646E+03  0.12700000000E+01 0. -1.
         25    2    1    2    0    0  0.00000000000E+00  0.00000000000E+00 -0.46240326752E+03  0.47899998384E+03  0.12499681077E+03 0.  0.
    9000005    1    3    3    0    0 -0.17802011097E+02 -0.32304244568E+02 -0.42450712108E+03  0.42610769960E+03  0.10000000000E+01 0.  0.
    9000005    1    3    3    0    0  0.17802011097E+02  0.32304244568E+02 -0.37896146444E+02  0.52892284234E+02  0.10000000000E+01 0.  0.
<mgrwt>
<rscale>  0 0.12499681E+03</rscale>
<asrwt>0</asrwt>
<pdfrwt beam="1">  1        4 0.12766709E-02 0.12499681E+03</pdfrwt>
<pdfrwt beam="2">  1       -4 0.72415614E-01 0.12499681E+03</pdfrwt>
<totfact> 0.57535381E+03</totfact>
</mgrwt>
</event>
<event>
 5    1  0.3257199E-002  0.1249840E+03  0.7818608E-02  0.1235094E+00
          4   -1    0    0  501    0  0.00000000000E+00  0.00000000000E+00  0.20559283720E+01  0.24165557041E+01  0.12700000000E+01 0.  1.
         -4   -1    0    0    0  501 -0.00000000000E+00 -0.00000000000E+00 -0.17459850959E+04  0.17459855578E+04  0.12700000000E+01 0.  1.
         25    2    1    2    0    0  0.00000000000E+00  0.00000000000E+00 -0.17439291675E+04  0.17484021135E+04  0.12498403542E+03 0.  0.
    9000005    1    3    3    0    0 -0.35460857851E+02 -0.79251527586E+01 -0.15830645600E+04  0.15834818223E+04  0.10000000000E+01 0.  0.
    9000005    1    3    3    0    0  0.35460857851E+02  0.79251527586E+01 -0.16086460754E+03  0.16492029119E+03  0.10000000000E+01 0.  0.
<mgrwt>
<rscale>  0 0.12498404E+03</rscale>
<asrwt>0</asrwt>
<pdfrwt beam="1">  1        4 0.34407416E-03 0.12498404E+03</pdfrwt>
<pdfrwt beam="2">  1       -4 0.26863978E+00 0.12498404E+03</pdfrwt>
<totfact> 0.13520278E+03</totfact>
</mgrwt>
</event>
<event>
 5    1  0.3257199E-002  0.1249998E+03  0.7818608E-02  0.1235070E+00
         -4   -1    0    0    0  501 -0.00000000000E+00  0.00000000000E+00  0.15655216513E+04  0.15655221664E+04  0.12700000000E+01 0.  1.
          4   -1    0    0  501    0  0.00000000000E+00 -0.00000000000E+00 -0.23330171780E+01  0.26562886050E+01  0.12700000000E+01 0.  1.
         25    2    1    2    0    0  0.00000000000E+00  0.00000000000E+00  0.15631886341E+04  0.15681784550E+04  0.12499984397E+03 0.  0.
    9000005    1    3    3    0    0  0.54362291738E+02  0.18045382958E+02  0.10950661716E+04  0.10965636392E+04  0.10000000000E+01 0.  0.
    9000005    1    3    3    0    0 -0.54362291738E+02 -0.18045382958E+02  0.46812246248E+03  0.47161481581E+03  0.10000000000E+01 0.  0.
<mgrwt>
<rscale>  0 0.12499984E+03</rscale>
<asrwt>0</asrwt>
<pdfrwt beam="2">  1        4 0.38383238E-03 0.12499984E+03</pdfrwt>
<pdfrwt beam="1">  1       -4 0.24087439E+00 0.12499984E+03</pdfrwt>
<totfact> 0.16628541E+03</totfact>
</mgrwt>
</event>
<event>
 5    1  0.3257199E-002  0.1250039E+03  0.7818608E-02  0.1235063E+00
          4   -1    0    0  501    0  0.00000000000E+00  0.00000000000E+00  0.57319741163E+01  0.58709817978E+01  0.12700000000E+01 0.  1.
         -4   -1    0    0    0  501 -0.00000000000E+00 -0.00000000000E+00 -0.67322222126E+03  0.67322341916E+03  0.12700000000E+01 0.  1.
         25    2    1    2    0    0  0.00000000000E+00  0.00000000000E+00 -0.66749024715E+03  0.67909440096E+03  0.12500390143E+03 0.  0.
    9000005    1    3    3    0    0 -0.12154424042E+02  0.10201492096E+02 -0.53681990426E+01  0.16781478652E+02  0.10000000000E+01 0.  0.
    9000005    1    3    3    0    0  0.12154424042E+02 -0.10201492096E+02 -0.66212204811E+03  0.66231292230E+03  0.10000000000E+01 0.  0.
<mgrwt>
<rscale>  0 0.12500390E+03</rscale>
<asrwt>0</asrwt>
<pdfrwt beam="1">  1        4 0.89262774E-03 0.12500390E+03</pdfrwt>
<pdfrwt beam="2">  1       -4 0.10358337E+00 0.12500390E+03</pdfrwt>
<totfact> 0.44209738E+03</totfact>
</mgrwt>
</event>
<event>
 5    1  0.3257199E-002  0.1250050E+03  0.7818608E-02  0.1235061E+00
         -4   -1    0    0    0  501 -0.00000000000E+00  0.00000000000E+00  0.89284816431E+02  0.89293848305E+02  0.12700000000E+01 0.  1.
          4   -1    0    0  501    0  0.00000000000E+00 -0.00000000000E+00 -0.43733507420E+02  0.43751943628E+02  0.12700000000E+01 0.  1.
         25    2    1    2    0    0  0.00000000000E+00  0.00000000000E+00  0.45551309011E+02  0.13304579193E+03  0.12500504389E+03 0.  0.
    9000005    1    3    3    0    0 -0.74080424101E+01 -0.61956574948E+02  0.19078148787E+02  0.65256969228E+02  0.10000000000E+01 0.  0.
    9000005    1    3    3    0    0  0.74080424101E+01  0.61956574948E+02  0.26473160224E+02  0.67788822706E+02  0.10000000000E+01 0.  0.
<mgrwt>
<rscale>  0 0.12500504E+03</rscale>
<asrwt>0</asrwt>
<pdfrwt beam="2">  1        4 0.67303448E-02 0.12500504E+03</pdfrwt>
<pdfrwt beam="1">  1       -4 0.13738239E-01 0.12500504E+03</pdfrwt>
<totfact> 0.10278257E+04</totfact>
</mgrwt>
</event>
<event>
 5    1  0.3257199E-002  0.1250015E+03  0.7818608E-02  0.1235067E+00
         -4   -1    0    0    0  501 -0.00000000000E+00  0.00000000000E+00  0.17250109375E+03  0.17250576873E+03  0.12700000000E+01 0.  1.
          4   -1    0    0  501    0  0.00000000000E+00 -0.00000000000E+00 -0.22622517496E+02  0.22658137564E+02  0.12700000000E+01 0.  1.
         25    2    1    2    0    0  0.00000000000E+00  0.00000000000E+00  0.14987857626E+03  0.19516390630E+03  0.12500145079E+03 0.  0.
    9000005    1    3    3    0    0  0.30367524615E+01  0.13193200028E+02 -0.20313135162E+02  0.24431656771E+02  0.10000000000E+01 0.  0.
    9000005    1    3    3    0    0 -0.30367524615E+01 -0.13193200028E+02  0.17019171142E+03  0.17073224953E+03  0.10000000000E+01 0.  0.
<mgrwt>
<rscale>  0 0.12500145E+03</rscale>
<asrwt>0</asrwt>
<pdfrwt beam="2">  1        4 0.34834870E-02 0.12500145E+03</pdfrwt>
<pdfrwt beam="1">  1       -4 0.26541729E-01 0.12500145E+03</pdfrwt>
<totfact> 0.90953540E+03</totfact>
</mgrwt>
</event>
<event>
 5    1  0.3257199E-002  0.1250179E+03  0.7818608E-02  0.1235041E+00
          4   -1    0    0  501    0  0.00000000000E+00  0.00000000000E+00  0.20291290019E+03  0.20291687451E+03  0.12700000000E+01 0. -1.
         -4   -1    0    0    0  501 -0.00000000000E+00 -0.00000000000E+00 -0.19231273456E+02  0.19273162137E+02  0.12700000000E+01 0. -1.
         25    2    1    2    0    0  0.00000000000E+00  0.00000000000E+00  0.18368162673E+03  0.22219003665E+03  0.12501788827E+03 0.  0.
    9000005    1    3    3    0    0  0.23590794996E+02 -0.46731774951E+02  0.15252823146E+03  0.16126452118E+03  0.10000000000E+01 0.  0.
    9000005    1    3    3    0    0 -0.23590794996E+02  0.46731774951E+02  0.31153395272E+02  0.60925515473E+02  0.10000000000E+01 0.  0.
<mgrwt>
<rscale>  0 0.12501789E+03</rscale>
<asrwt>0</asrwt>
<pdfrwt beam="1">  1        4 0.31220897E-01 0.12501789E+03</pdfrwt>
<pdfrwt beam="2">  1       -4 0.29621854E-02 0.12501789E+03</pdfrwt>
<totfact> 0.86488431E+03</totfact>
</mgrwt>
</event>
<event>
 5    1  0.3257199E-002  0.1249999E+03  0.7818608E-02  0.1235069E+00
          4   -1    0    0  501    0  0.00000000000E+00  0.00000000000E+00  0.62904184762E+02  0.62917003747E+02  0.12700000000E+01 0.  1.
         -4   -1    0    0    0  501 -0.00000000000E+00 -0.00000000000E+00 -0.62072708556E+02  0.62085699219E+02  0.12700000000E+01 0.  1.
         25    2    1    2    0    0  0.00000000000E+00  0.00000000000E+00  0.83147620579E+00  0.12500270297E+03  0.12499993758E+03 0.  0.
    9000005    1    3    3    0    0  0.32437253919E+02  0.30397816704E+02  0.44337586316E+02  0.62793504939E+02  0.10000000000E+01 0.  0.
    9000005    1    3    3    0    0 -0.32437253919E+02 -0.30397816704E+02 -0.43506110110E+02  0.62209198027E+02  0.10000000000E+01 0.  0.
<mgrwt>
<rscale>  0 0.12499994E+03</rscale>
<asrwt>0</asrwt>
<pdfrwt beam="1">  1        4 0.96795522E-02 0.12499994E+03</pdfrwt>
<pdfrwt beam="2">  1       -4 0.95516328E-02 0.12499994E+03</pdfrwt>
<totfact> 0.10452819E+04</totfact>
</mgrwt>
</event>
<event>
 5    1  0.3257199E-002  0.1249977E+03  0.7818608E-02  0.1235073E+00
         -4   -1    0    0    0  501 -0.00000000000E+00  0.00000000000E+00  0.20655767049E+02  0.20694772586E+02  0.12700000000E+01 0. -1.
          4   -1    0    0  501    0  0.00000000000E+00 -0.00000000000E+00 -0.18888538350E+03  0.18888965297E+03  0.12700000000E+01 0. -1.
         25    2    1    2    0    0  0.00000000000E+00  0.00000000000E+00 -0.16822961645E+03  0.20958442556E+03  0.12499771032E+03 0.  0.
    9000005    1    3    3    0    0  0.52133073405E+02 -0.26998532363E+00 -0.26343177840E+02  0.58419973070E+02  0.10000000000E+01 0.  0.
    9000005    1    3    3    0    0 -0.52133073405E+02  0.26998532363E+00 -0.14188643861E+03  0.15116445249E+03  0.10000000000E+01 0.  0.
<mgrwt>
<rscale>  0 0.12499771E+03</rscale>
<asrwt>0</asrwt>
<pdfrwt beam="2">  1        4 0.29062617E-01 0.12499771E+03</pdfrwt>
<pdfrwt beam="1">  1       -4 0.31811393E-02 0.12499771E+03</pdfrwt>
<totfact> 0.88548328E+03</totfact>
</mgrwt>
</event>
<event>
 5    1  0.3257199E-002  0.1250015E+03  0.7818608E-02  0.1235067E+00
          4   -1    0    0  501    0  0.00000000000E+00  0.00000000000E+00  0.88888767984E+02  0.88897840096E+02  0.12700000000E+01 0. -1.
         -4   -1    0    0    0  501 -0.00000000000E+00 -0.00000000000E+00 -0.43925964411E+02  0.43944319876E+02  0.12700000000E+01 0. -1.
         25    2    1    2    0    0  0.00000000000E+00  0.00000000000E+00  0.44962803573E+02  0.13284215997E+03  0.12500154303E+03 0.  0.
    9000005    1    3    3    0    0  0.28444964448E+02  0.54108381567E+02  0.36276915609E+02  0.71090418232E+02  0.10000000000E+01 0.  0.
    9000005    1    3    3    0    0 -0.28444964448E+02 -0.54108381567E+02  0.86858879645E+01  0.61751741740E+02  0.10000000000E+01 0.  0.
<mgrwt>
<rscale>  0 0.12500154E+03</rscale>
<asrwt>0</asrwt>
<pdfrwt beam="1">  1        4 0.13677305E-01 0.12500154E+03</pdfrwt>
<pdfrwt beam="2">  1       -4 0.67599506E-02 0.12500154E+03</pdfrwt>
<totfact> 0.10283398E+04</totfact>
</mgrwt>
</event>
<event>
 5    1  0.3257199E-002  0.1250040E+03  0.7818608E-02  0.1235063E+00
         -4   -1    0    0    0  501 -0.00000000000E+00  0.00000000000E+00  0.18559428943E+02  0.18602830502E+02  0.12700000000E+01 0. -1.
          4   -1    0    0  501    0  0.00000000000E+00 -0.00000000000E+00 -0.21019470792E+03  0.21019854456E+03  0.12700000000E+01 0. -1.
         25    2    1    2    0    0  0.00000000000E+00  0.00000000000E+00 -0.19163527897E+03  0.22880137506E+03  0.12500395627E+03 0.  0.
    9000005    1    3    3    0    0 -0.45044802702E+01  0.61031558080E+01  0.17722665642E+02  0.19303671432E+02  0.10000000000E+01 0.  0.
    9000005    1    3    3    0    0  0.45044802702E+01 -0.61031558080E+01 -0.20935794462E+03  0.20949770363E+03  0.10000000000E+01 0.  0.
<mgrwt>
<rscale>  0 0.12500396E+03</rscale>
<asrwt>0</asrwt>
<pdfrwt beam="2">  1        4 0.32341279E-01 0.12500396E+03</pdfrwt>
<pdfrwt beam="1">  1       -4 0.28589306E-02 0.12500396E+03</pdfrwt>
<totfact> 0.85486441E+03</totfact>
</mgrwt>
</event>
<event>
 5    1  0.3257199E-002  0.1249707E+03  0.7818608E-02  0.1235115E+00
          4   -1    0    0  501    0  0.00000000000E+00  0.00000000000E+00  0.42182596707E+03  0.42182787887E+03  0.12700000000E+01 0. -1.
         -4   -1    0    0    0  501 -0.00000000000E+00 -0.00000000000E+00 -0.92104830182E+01  0.92976285917E+01  0.12700000000E+01 0. -1.
         25    2    1    2    0    0  0.00000000000E+00  0.00000000000E+00  0.41261548405E+03  0.43112550746E+03  0.12497065859E+03 0.  0.
    9000005    1    3    3    0    0 -0.24855431875E+02 -0.39486501866E+02  0.34964906603E+03  0.35274983444E+03  0.10000000000E+01 0.  0.
    9000005    1    3    3    0    0  0.24855431875E+02  0.39486501866E+02  0.62966418023E+02  0.78375673024E+02  0.10000000000E+01 0.  0.
<mgrwt>
<rscale>  0 0.12497066E+03</rscale>
<asrwt>0</asrwt>
<pdfrwt beam="1">  1        4 0.64903149E-01 0.12497066E+03</pdfrwt>
<pdfrwt beam="2">  1       -4 0.14238480E-02 0.12497066E+03</pdfrwt>
<totfact> 0.61673992E+03</totfact>
</mgrwt>
</event>
<event>
 5    1  0.3257199E-002  0.1249956E+03  0.7818608E-02  0.1235076E+00
         -4   -1    0    0    0  501 -0.00000000000E+00  0.00000000000E+00  0.22132580210E+02  0.22168987500E+02  0.12700000000E+01 0.  1.
          4   -1    0    0  501    0  0.00000000000E+00 -0.00000000000E+00 -0.17629699162E+03  0.17630156595E+03  0.12700000000E+01 0.  1.
         25    2    1    2    0    0  0.00000000000E+00  0.00000000000E+00 -0.15416441141E+03  0.19847055345E+03  0.12499557928E+03 0.  0.
    9000005    1    3    3    0    0 -0.50713426660E+02 -0.18006422521E+02 -0.12751621697E+03  0.13841050714E+03  0.10000000000E+01 0.  0.
    9000005    1    3    3    0    0  0.50713426660E+02  0.18006422521E+02 -0.26648194442E+02  0.60060046309E+02  0.10000000000E+01 0.  0.
<mgrwt>
<rscale>  0 0.12499558E+03</rscale>
<asrwt>0</asrwt>
<pdfrwt beam="2">  1        4 0.27125766E-01 0.12499558E+03</pdfrwt>
<pdfrwt beam="1">  1       -4 0.34081649E-02 0.12499558E+03</pdfrwt>
<totfact> 0.90402942E+03</totfact>
</mgrwt>
</event>
<event>
 5    1  0.3257199E-002  0.1250547E+03  0.7818608E-02  0.1234984E+00
          4   -1    0    0  501    0  0.00000000000E+00  0.00000000000E+00  0.41355478306E+03  0.41355673310E+03  0.12700000000E+01 0.  1.
         -4   -1    0    0    0  501 -0.00000000000E+00 -0.00000000000E+00 -0.94091860954E+01  0.94945080430E+01  0.12700000000E+01 0.  1.
         25    2    1    2    0    0  0.00000000000E+00  0.00000000000E+00  0.40414559697E+03  0.42305124115E+03  0.12505474436E+03 0.  0.
    9000005    1    3    3    0    0 -0.53151118726E+02 -0.70643645597E+00  0.90737352400E+02  0.10516561983E+03  0.10000000000E+01 0.  0.
    9000005    1    3    3    0    0  0.53151118726E+02  0.70643645597E+00  0.31340824457E+03  0.31788562131E+03  0.10000000000E+01 0.  0.
<mgrwt>
<rscale>  0 0.12505474E+03</rscale>
<asrwt>0</asrwt>
<pdfrwt beam="1">  1        4 0.63630534E-01 0.12505474E+03</pdfrwt>
<pdfrwt beam="2">  1       -4 0.14542801E-02 0.12505474E+03</pdfrwt>
<totfact> 0.62295692E+03</totfact>
</mgrwt>
</event>
<event>
 5    1  0.3257199E-002  0.1250042E+03  0.7818608E-02  0.1235063E+00
         -4   -1    0    0    0  501 -0.00000000000E+00  0.00000000000E+00  0.21888857258E+03  0.21889225684E+03  0.12700000000E+01 0.  1.
          4   -1    0    0  501    0  0.00000000000E+00 -0.00000000000E+00 -0.17820601359E+02  0.17865797850E+02  0.12700000000E+01 0.  1.
         25    2    1    2    0    0  0.00000000000E+00  0.00000000000E+00  0.20106797122E+03  0.23675805469E+03  0.12500418958E+03 0.  0.
    9000005    1    3    3    0    0  0.19169127594E+02  0.28117253661E+02  0.19981065145E+03  0.20269023617E+03  0.10000000000E+01 0.  0.
    9000005    1    3    3    0    0 -0.19169127594E+02 -0.28117253661E+02  0.12573197748E+01  0.34067818526E+02  0.10000000000E+01 0.  0.
<mgrwt>
<rscale>  0 0.12500419E+03</rscale>
<asrwt>0</asrwt>
<pdfrwt beam="2">  1        4 0.27453910E-02 0.12500419E+03</pdfrwt>
<pdfrwt beam="1">  1       -4 0.33678926E-01 0.12500419E+03</pdfrwt>
<totfact> 0.84274704E+03</totfact>
</mgrwt>
</event>
<event>
 5    1  0.3257199E-002  0.1249992E+03  0.7818608E-02  0.1235071E+00
         -4   -1    0    0    0  501 -0.00000000000E+00  0.00000000000E+00  0.25943786755E+02  0.25974852669E+02  0.12700000000E+01 0. -1.
          4   -1    0    0  501    0  0.00000000000E+00 -0.00000000000E+00 -0.15044005257E+03  0.15044541308E+03  0.12700000000E+01 0. -1.
         25    2    1    2    0    0  0.00000000000E+00  0.00000000000E+00 -0.12449626581E+03  0.17642026575E+03  0.12499915986E+03 0.  0.
    9000005    1    3    3    0    0  0.34727429052E+02  0.49345441240E+02 -0.39306045694E+02  0.72020359121E+02  0.10000000000E+01 0.  0.
    9000005    1    3    3    0    0 -0.34727429052E+02 -0.49345441240E+02 -0.85190220119E+02  0.10439990663E+03  0.10000000000E+01 0.  0.
<mgrwt>
<rscale>  0 0.12499916E+03</rscale>
<asrwt>0</asrwt>
<pdfrwt beam="2">  1        4 0.23147425E-01 0.12499916E+03</pdfrwt>
<pdfrwt beam="1">  1       -4 0.39941539E-02 0.12499916E+03</pdfrwt>
<totfact> 0.94267141E+03</totfact>
</mgrwt>
</event>
<event>
 5    1  0.3257199E-002  0.1249979E+03  0.7818608E-02  0.1235073E+00
          4   -1    0    0  501    0  0.00000000000E+00  0.00000000000E+00  0.16878213570E+03  0.16878691369E+03  0.12700000000E+01 0.  1.
         -4   -1    0    0    0  501 -0.00000000000E+00 -0.00000000000E+00 -0.23120436226E+02  0.23155290352E+02  0.12700000000E+01 0.  1.
         25    2    1    2    0    0  0.00000000000E+00  0.00000000000E+00  0.14566169948E+03  0.19194220404E+03  0.12499791597E+03 0.  0.
    9000005    1    3    3    0    0 -0.13083584315E+02  0.20802569631E+02  0.16105818066E+03  0.16292533456E+03  0.10000000000E+01 0.  0.
    9000005    1    3    3    0    0  0.13083584315E+02 -0.20802569631E+02 -0.15396481186E+02  0.29016869484E+02  0.10000000000E+01 0.  0.
<mgrwt>
<rscale>  0 0.12499792E+03</rscale>
<asrwt>0</asrwt>
<pdfrwt beam="1">  1        4 0.25969533E-01 0.12499792E+03</pdfrwt>
<pdfrwt beam="2">  1       -4 0.35600385E-02 0.12499792E+03</pdfrwt>
<totfact> 0.91514741E+03</totfact>
</mgrwt>
</event>
<event>
 5    1  0.3257199E-002  0.1249975E+03  0.7818608E-02  0.1235073E+00
         -4   -1    0    0    0  501 -0.00000000000E+00  0.00000000000E+00  0.20676592330E+02  0.20715558655E+02  0.12700000000E+01 0. -1.
          4   -1    0    0  501    0  0.00000000000E+00 -0.00000000000E+00 -0.18869476992E+03  0.18869904371E+03  0.12700000000E+01 0. -1.
         25    2    1    2    0    0  0.00000000000E+00  0.00000000000E+00 -0.16801817759E+03  0.20941460236E+03  0.12499747070E+03 0.  0.
    9000005    1    3    3    0    0 -0.48746846386E+02  0.38894201677E+02 -0.90726798877E+02  0.11009707531E+03  0.10000000000E+01 0.  0.
    9000005    1    3    3    0    0  0.48746846386E+02 -0.38894201677E+02 -0.77291378717E+02  0.99317527056E+02  0.10000000000E+01 0.  0.
<mgrwt>
<rscale>  0 0.12499747E+03</rscale>
<asrwt>0</asrwt>
<pdfrwt beam="2">  1        4 0.29033290E-01 0.12499747E+03</pdfrwt>
<pdfrwt beam="1">  1       -4 0.31843405E-02 0.12499747E+03</pdfrwt>
<totfact> 0.88576583E+03</totfact>
</mgrwt>
</event>
<event>
 5    1  0.3257199E-002  0.1250023E+03  0.7818608E-02  0.1235066E+00
         -4   -1    0    0    0  501 -0.00000000000E+00  0.00000000000E+00  0.28195107830E+02  0.28223695817E+02  0.12700000000E+01 0. -1.
          4   -1    0    0  501    0  0.00000000000E+00 -0.00000000000E+00 -0.13844688729E+03  0.13845271215E+03  0.12700000000E+01 0. -1.
         25    2    1    2    0    0  0.00000000000E+00  0.00000000000E+00 -0.11025177946E+03  0.16667640796E+03  0.12500228037E+03 0.  0.
    9000005    1    3    3    0    0 -0.47452385099E+02  0.38525871455E+02 -0.37770287402E+02  0.71857958734E+02  0.10000000000E+01 0.  0.
    9000005    1    3    3    0    0  0.47452385099E+02 -0.38525871455E+02 -0.72481492060E+02  0.94818449229E+02  0.10000000000E+01 0.  0.
<mgrwt>
<rscale>  0 0.12500228E+03</rscale>
<asrwt>0</asrwt>
<pdfrwt beam="2">  1        4 0.21302168E-01 0.12500228E+03</pdfrwt>
<pdfrwt beam="1">  1       -4 0.43403561E-02 0.12500228E+03</pdfrwt>
<totfact> 0.96065926E+03</totfact>
</mgrwt>
</event>
<event>
 5    1  0.3257199E-002  0.1249823E+03  0.7818608E-02  0.1235097E+00
         -4   -1    0    0    0  501 -0.00000000000E+00  0.00000000000E+00  0.20356971661E+01  0.23993671982E+01  0.12700000000E+01 0.  1.
          4   -1    0    0  501    0  0.00000000000E+00 -0.00000000000E+00 -0.17606675681E+04  0.17606680261E+04  0.12700000000E+01 0.  1.
         25    2    1    2    0    0  0.00000000000E+00  0.00000000000E+00 -0.17586318709E+04  0.17630673933E+04  0.12498230265E+03 0.  0.
    9000005    1    3    3    0    0 -0.21270144622E+02  0.66537031887E+01 -0.17027623447E+04  0.17029084806E+04  0.10000000000E+01 0.  0.
    9000005    1    3    3    0    0  0.21270144622E+02 -0.66537031887E+01 -0.55869526258E+02  0.60158912745E+02  0.10000000000E+01 0.  0.
<mgrwt>
<rscale>  0 0.12498230E+03</rscale>
<asrwt>0</asrwt>
<pdfrwt beam="2">  1        4 0.27089883E+00 0.12498230E+03</pdfrwt>
<pdfrwt beam="1">  1       -4 0.34119544E-03 0.12498230E+03</pdfrwt>
<totfact> 0.13286441E+03</totfact>
</mgrwt>
</event>
<event>
 5    1  0.3257199E-002  0.1249970E+03  0.7818608E-02  0.1235074E+00
         -4   -1    0    0    0  501 -0.00000000000E+00  0.00000000000E+00  0.20193160301E+03  0.20193559665E+03  0.12700000000E+01 0.  1.
          4   -1    0    0  501    0  0.00000000000E+00 -0.00000000000E+00 -0.19318443876E+02  0.19360143950E+02  0.12700000000E+01 0.  1.
         25    2    1    2    0    0  0.00000000000E+00  0.00000000000E+00  0.18261315914E+03  0.22129574060E+03  0.12499695564E+03 0.  0.
    9000005    1    3    3    0    0 -0.49867383766E+02  0.42633896451E+01  0.15755223131E+03  0.16531375637E+03  0.10000000000E+01 0.  0.
    9000005    1    3    3    0    0  0.49867383766E+02 -0.42633896451E+01  0.25060927828E+02  0.55981984232E+02  0.10000000000E+01 0.  0.
<mgrwt>
<rscale>  0 0.12499696E+03</rscale>
<asrwt>0</asrwt>
<pdfrwt beam="2">  1        4 0.29755832E-02 0.12499696E+03</pdfrwt>
<pdfrwt beam="1">  1       -4 0.31069915E-01 0.12499696E+03</pdfrwt>
<totfact> 0.86669622E+03</totfact>
</mgrwt>
</event>
<event>
 5    1  0.3257199E-002  0.1249991E+03  0.7818608E-02  0.1235071E+00
          4   -1    0    0  501    0  0.00000000000E+00  0.00000000000E+00  0.66555697793E+02  0.66567813609E+02  0.12700000000E+01 0.  1.
         -4   -1    0    0    0  501 -0.00000000000E+00 -0.00000000000E+00 -0.58666240876E+02  0.58679985673E+02  0.12700000000E+01 0.  1.
         25    2    1    2    0    0  0.00000000000E+00  0.00000000000E+00  0.78894569166E+01  0.12524779928E+03  0.12499907077E+03 0.  0.
    9000005    1    3    3    0    0 -0.31205813154E+02  0.28932843790E+02 -0.41909634109E+02  0.59735497449E+02  0.10000000000E+01 0.  0.
    9000005    1    3    3    0    0  0.31205813154E+02 -0.28932843790E+02  0.49799091026E+02  0.65512301832E+02  0.10000000000E+01 0.  0.
<mgrwt>
<rscale>  0 0.12499907E+03</rscale>
<asrwt>0</asrwt>
<pdfrwt beam="1">  1        4 0.10241327E-01 0.12499907E+03</pdfrwt>
<pdfrwt beam="2">  1       -4 0.90275648E-02 0.12499907E+03</pdfrwt>
<totfact> 0.10447702E+04</totfact>
</mgrwt>
</event>
<event>
 5    1  0.3257199E-002  0.1250039E+03  0.7818608E-02  0.1235063E+00
         -4   -1    0    0    0  501 -0.00000000000E+00  0.00000000000E+00  0.35535494878E+01  0.37736738018E+01  0.12700000000E+01 0.  1.
          4   -1    0    0  501    0  0.00000000000E+00 -0.00000000000E+00 -0.10660761183E+04  0.10660768747E+04  0.12700000000E+01 0.  1.
         25    2    1    2    0    0  0.00000000000E+00  0.00000000000E+00 -0.10625225688E+04  0.10698505485E+04  0.12500394807E+03 0.  0.
    9000005    1    3    3    0    0  0.38405985475E+02  0.48254249275E+02 -0.44482243541E+03  0.44907849128E+03  0.10000000000E+01 0.  0.
    9000005    1    3    3    0    0 -0.38405985475E+02 -0.48254249275E+02 -0.61770013337E+03  0.62077205724E+03  0.10000000000E+01 0.  0.
<mgrwt>
<rscale>  0 0.12500395E+03</rscale>
<asrwt>0</asrwt>
<pdfrwt beam="2">  1        4 0.16402845E+00 0.12500395E+03</pdfrwt>
<pdfrwt beam="1">  1       -4 0.56369160E-03 0.12500395E+03</pdfrwt>
<totfact> 0.28380570E+03</totfact>
</mgrwt>
</event>
<event>
 5    1  0.3257199E-002  0.1249963E+03  0.7818608E-02  0.1235075E+00
          4   -1    0    0  501    0  0.00000000000E+00  0.00000000000E+00  0.65247659185E+03  0.65247782783E+03  0.12700000000E+01 0. -1.
         -4   -1    0    0    0  501 -0.00000000000E+00 -0.00000000000E+00 -0.59178363277E+01  0.60525768729E+01  0.12700000000E+01 0. -1.
         25    2    1    2    0    0  0.00000000000E+00  0.00000000000E+00  0.64655875552E+03  0.65853040470E+03  0.12499627826E+03 0.  0.
    9000005    1    3    3    0    0 -0.18182268861E+02  0.55211752670E+02  0.20244050890E+03  0.21062310457E+03  0.10000000000E+01 0.  0.
    9000005    1    3    3    0    0  0.18182268861E+02 -0.55211752670E+02  0.44411824662E+03  0.44790730013E+03  0.10000000000E+01 0.  0.
<mgrwt>
<rscale>  0 0.12499628E+03</rscale>
<asrwt>0</asrwt>
<pdfrwt beam="1">  1        4 0.10039140E+00 0.12499628E+03</pdfrwt>
<pdfrwt beam="2">  1       -4 0.92089680E-03 0.12499628E+03</pdfrwt>
<totfact> 0.45371602E+03</totfact>
</mgrwt>
</event>
<event>
 5    1  0.3257199E-002  0.1250020E+03  0.7818608E-02  0.1235066E+00
          4   -1    0    0  501    0  0.00000000000E+00  0.00000000000E+00  0.18612949631E+02  0.18656226681E+02  0.12700000000E+01 0.  1.
         -4   -1    0    0    0  501 -0.00000000000E+00 -0.00000000000E+00 -0.20958530139E+03  0.20958914919E+03  0.12700000000E+01 0.  1.
         25    2    1    2    0    0  0.00000000000E+00  0.00000000000E+00 -0.19097235176E+03  0.22824537588E+03  0.12500204987E+03 0.  0.
    9000005    1    3    3    0    0  0.47009700392E+02  0.19471592767E+02 -0.29239188862E+02  0.58693994762E+02  0.10000000000E+01 0.  0.
    9000005    1    3    3    0    0 -0.47009700392E+02 -0.19471592767E+02 -0.16173316290E+03  0.16955138111E+03  0.10000000000E+01 0.  0.
<mgrwt>
<rscale>  0 0.12500205E+03</rscale>
<asrwt>0</asrwt>
<pdfrwt beam="1">  1        4 0.28671559E-02 0.12500205E+03</pdfrwt>
<pdfrwt beam="2">  1       -4 0.32247516E-01 0.12500205E+03</pdfrwt>
<totfact> 0.85575837E+03</totfact>
</mgrwt>
</event>
<event>
 5    1  0.3257199E-002  0.1249984E+03  0.7818608E-02  0.1235072E+00
         -4   -1    0    0    0  501 -0.00000000000E+00  0.00000000000E+00  0.96123577554E+02  0.96131966909E+02  0.12700000000E+01 0.  1.
          4   -1    0    0  501    0  0.00000000000E+00 -0.00000000000E+00 -0.40616677858E+02  0.40636528151E+02  0.12700000000E+01 0.  1.
         25    2    1    2    0    0  0.00000000000E+00  0.00000000000E+00  0.55506899696E+02  0.13676849506E+03  0.12499842130E+03 0.  0.
    9000005    1    3    3    0    0 -0.39403758245E+02  0.19120367395E+02 -0.21018518055E+02  0.48590356187E+02  0.10000000000E+01 0.  0.
    9000005    1    3    3    0    0  0.39403758245E+02 -0.19120367395E+02  0.76525417751E+02  0.88178138873E+02  0.10000000000E+01 0.  0.
<mgrwt>
<rscale>  0 0.12499842E+03</rscale>
<asrwt>0</asrwt>
<pdfrwt beam="2">  1        4 0.62508919E-02 0.12499842E+03</pdfrwt>
<pdfrwt beam="1">  1       -4 0.14790415E-01 0.12499842E+03</pdfrwt>
<totfact> 0.10201292E+04</totfact>
</mgrwt>
</event>
<event>
 5    1  0.3257199E-002  0.1249991E+03  0.7818608E-02  0.1235071E+00
          4   -1    0    0  501    0  0.00000000000E+00  0.00000000000E+00  0.12548813273E+03  0.12549455907E+03  0.12700000000E+01 0. -1.
         -4   -1    0    0    0  501 -0.00000000000E+00 -0.00000000000E+00 -0.31107789628E+02  0.31133703210E+02  0.12700000000E+01 0. -1.
         25    2    1    2    0    0  0.00000000000E+00  0.00000000000E+00  0.94380343106E+02  0.15662826228E+03  0.12499905352E+03 0.  0.
    9000005    1    3    3    0    0  0.14195609704E+02  0.60307761717E+02  0.57419838277E+02  0.84478277006E+02  0.10000000000E+01 0.  0.
    9000005    1    3    3    0    0 -0.14195609704E+02 -0.60307761717E+02  0.36960504829E+02  0.72149985277E+02  0.10000000000E+01 0.  0.
<mgrwt>
<rscale>  0 0.12499905E+03</rscale>
<asrwt>0</asrwt>
<pdfrwt beam="1">  1        4 0.19308354E-01 0.12499905E+03</pdfrwt>
<pdfrwt beam="2">  1       -4 0.47883015E-02 0.12499905E+03</pdfrwt>
<totfact> 0.97998881E+03</totfact>
</mgrwt>
</event>
<event>
 5    1  0.3257199E-002  0.1249845E+03  0.7818608E-02  0.1235093E+00
          4   -1    0    0  501    0  0.00000000000E+00  0.00000000000E+00  0.11914646896E+03  0.11915323733E+03  0.12700000000E+01 0.  1.
         -4   -1    0    0    0  501 -0.00000000000E+00 -0.00000000000E+00 -0.32757152802E+02  0.32781762608E+02  0.12700000000E+01 0.  1.
         25    2    1    2    0    0  0.00000000000E+00  0.00000000000E+00  0.86389316160E+02  0.15193499994E+03  0.12498452008E+03 0.  0.
    9000005    1    3    3    0    0 -0.29661436459E+02  0.36536635741E+01  0.10990090948E+03  0.11389626848E+03  0.10000000000E+01 0.  0.
    9000005    1    3    3    0    0  0.29661436459E+02 -0.36536635741E+01 -0.23511593318E+02  0.38038731455E+02  0.10000000000E+01 0.  0.
<mgrwt>
<rscale>  0 0.12498452E+03</rscale>
<asrwt>0</asrwt>
<pdfrwt beam="1">  1        4 0.18332640E-01 0.12498452E+03</pdfrwt>
<pdfrwt beam="2">  1       -4 0.50419756E-02 0.12498452E+03</pdfrwt>
<totfact> 0.98953837E+03</totfact>
</mgrwt>
</event>
<event>
 5    1  0.3257199E-002  0.1249982E+03  0.7818608E-02  0.1235072E+00
          4   -1    0    0  501    0  0.00000000000E+00  0.00000000000E+00  0.16246180055E+03  0.16246676441E+03  0.12700000000E+01 0.  1.
         -4   -1    0    0    0  501 -0.00000000000E+00 -0.00000000000E+00 -0.24021334119E+02  0.24054882932E+02  0.12700000000E+01 0.  1.
         25    2    1    2    0    0  0.00000000000E+00  0.00000000000E+00  0.13844046643E+03  0.18652164734E+03  0.12499824871E+03 0.  0.
    9000005    1    3    3    0    0  0.42473996140E+02  0.44488187645E+02  0.85695391083E+02  0.10548904797E+03  0.10000000000E+01 0.  0.
    9000005    1    3    3    0    0 -0.42473996140E+02 -0.44488187645E+02  0.52745075345E+02  0.81032599373E+02  0.10000000000E+01 0.  0.
<mgrwt>
<rscale>  0 0.12499825E+03</rscale>
<asrwt>0</asrwt>
<pdfrwt beam="1">  1        4 0.24997086E-01 0.12499825E+03</pdfrwt>
<pdfrwt beam="2">  1       -4 0.36985523E-02 0.12499825E+03</pdfrwt>
<totfact> 0.92459711E+03</totfact>
</mgrwt>
</event>
<event>
 5    1  0.3257199E-002  0.1249998E+03  0.7818608E-02  0.1235070E+00
         -4   -1    0    0    0  501 -0.00000000000E+00  0.00000000000E+00  0.20726945279E+02  0.20765817118E+02  0.12700000000E+01 0.  1.
          4   -1    0    0  501    0  0.00000000000E+00 -0.00000000000E+00 -0.18824421920E+03  0.18824850322E+03  0.12700000000E+01 0.  1.
         25    2    1    2    0    0  0.00000000000E+00  0.00000000000E+00 -0.16751727393E+03  0.20901432034E+03  0.12499979617E+03 0.  0.
    9000005    1    3    3    0    0  0.33909410875E+02  0.52138999652E+02 -0.73599395299E+02  0.96364902423E+02  0.10000000000E+01 0.  0.
    9000005    1    3    3    0    0 -0.33909410875E+02 -0.52138999652E+02 -0.93917878627E+02  0.11264941791E+03  0.10000000000E+01 0.  0.
<mgrwt>
<rscale>  0 0.12499980E+03</rscale>
<asrwt>0</asrwt>
<pdfrwt beam="2">  1        4 0.28963968E-01 0.12499980E+03</pdfrwt>
<pdfrwt beam="1">  1       -4 0.31920806E-02 0.12499980E+03</pdfrwt>
<totfact> 0.88637513E+03</totfact>
</mgrwt>
</event>
<event>
 5    1  0.3257199E-002  0.1249967E+03  0.7818608E-02  0.1235074E+00
         -4   -1    0    0    0  501 -0.00000000000E+00  0.00000000000E+00  0.87293123455E+02  0.87302361380E+02  0.12700000000E+01 0. -1.
          4   -1    0    0  501    0  0.00000000000E+00 -0.00000000000E+00 -0.44725666168E+02  0.44743693569E+02  0.12700000000E+01 0. -1.
         25    2    1    2    0    0  0.00000000000E+00  0.00000000000E+00  0.42567457286E+02  0.13204605495E+03  0.12499668879E+03 0.  0.
    9000005    1    3    3    0    0  0.48820425696E+02  0.22586173510E+02 -0.12313561690E+02  0.55192327369E+02  0.10000000000E+01 0.  0.
    9000005    1    3    3    0    0 -0.48820425696E+02 -0.22586173510E+02  0.54881018976E+02  0.76853727579E+02  0.10000000000E+01 0.  0.
<mgrwt>
<rscale>  0 0.12499669E+03</rscale>
<asrwt>0</asrwt>
<pdfrwt beam="2">  1        4 0.68829692E-02 0.12499669E+03</pdfrwt>
<pdfrwt beam="1">  1       -4 0.13431808E-01 0.12499669E+03</pdfrwt>
<totfact> 0.10301485E+04</totfact>
</mgrwt>
</event>
<event>
 5    1  0.3257199E-002  0.1250149E+03  0.7818608E-02  0.1235046E+00
          4   -1    0    0  501    0  0.00000000000E+00  0.00000000000E+00  0.87994073715E+02  0.88003238060E+02  0.12700000000E+01 0. -1.
         -4   -1    0    0    0  501 -0.00000000000E+00 -0.00000000000E+00 -0.44382222150E+02  0.44400388996E+02  0.12700000000E+01 0. -1.
         25    2    1    2    0    0  0.00000000000E+00  0.00000000000E+00  0.43611851565E+02  0.13240362706E+03  0.12501490655E+03 0.  0.
    9000005    1    3    3    0    0  0.43847166016E+02 -0.35913390433E+02 -0.60916546786E+01  0.57012751527E+02  0.10000000000E+01 0.  0.
    9000005    1    3    3    0    0 -0.43847166016E+02  0.35913390433E+02  0.49703506243E+02  0.75390875528E+02  0.10000000000E+01 0.  0.
<mgrwt>
<rscale>  0 0.12501491E+03</rscale>
<asrwt>0</asrwt>
<pdfrwt beam="1">  1        4 0.13539652E-01 0.12501491E+03</pdfrwt>
<pdfrwt beam="2">  1       -4 0.68301366E-02 0.12501491E+03</pdfrwt>
<totfact> 0.10289630E+04</totfact>
</mgrwt>
</event>
<event>
 5    1  0.3257199E-002  0.1250076E+03  0.7818608E-02  0.1235057E+00
          4   -1    0    0  501    0  0.00000000000E+00  0.00000000000E+00  0.37989694138E+01  0.40056296143E+01  0.12700000000E+01 0.  1.
         -4   -1    0    0    0  501 -0.00000000000E+00 -0.00000000000E+00 -0.10009274719E+04  0.10009282776E+04  0.12700000000E+01 0.  1.
         25    2    1    2    0    0  0.00000000000E+00  0.00000000000E+00 -0.99712850245E+03  0.10049339072E+04  0.12500762938E+03 0.  0.
    9000005    1    3    3    0    0  0.40326180944E+02 -0.22388928420E+02 -0.83756357984E+03  0.83883324640E+03  0.10000000000E+01 0.  0.
    9000005    1    3    3    0    0 -0.40326180944E+02  0.22388928420E+02 -0.15956492260E+03  0.16610066078E+03  0.10000000000E+01 0.  0.
<mgrwt>
<rscale>  0 0.12500763E+03</rscale>
<asrwt>0</asrwt>
<pdfrwt beam="1">  1        4 0.60041655E-03 0.12500763E+03</pdfrwt>
<pdfrwt beam="2">  1       -4 0.15400460E+00 0.12500763E+03</pdfrwt>
<totfact> 0.30437104E+03</totfact>
</mgrwt>
</event>
<event>
 5    1  0.3257199E-002  0.1250008E+03  0.7818608E-02  0.1235068E+00
          4   -1    0    0  501    0  0.00000000000E+00  0.00000000000E+00  0.59684509619E+01  0.61020739822E+01  0.12700000000E+01 0.  1.
         -4   -1    0    0    0  501 -0.00000000000E+00 -0.00000000000E+00 -0.64711138751E+03  0.64711263374E+03  0.12700000000E+01 0.  1.
         25    2    1    2    0    0  0.00000000000E+00  0.00000000000E+00 -0.64114293655E+03  0.65321470772E+03  0.12500075719E+03 0.  0.
    9000005    1    3    3    0    0  0.36808675777E+02 -0.29063323038E+02 -0.10474734857E+03  0.11477178395E+03  0.10000000000E+01 0.  0.
    9000005    1    3    3    0    0 -0.36808675777E+02  0.29063323038E+02 -0.53639558797E+03  0.53844292377E+03  0.10000000000E+01 0.  0.
<mgrwt>
<rscale>  0 0.12500076E+03</rscale>
<asrwt>0</asrwt>
<pdfrwt beam="1">  1        4 0.92859829E-03 0.12500076E+03</pdfrwt>
<pdfrwt beam="2">  1       -4 0.99565918E-01 0.12500076E+03</pdfrwt>
<totfact> 0.45671119E+03</totfact>
</mgrwt>
</event>
<event>
 5    1  0.3257199E-002  0.1250001E+03  0.7818608E-02  0.1235069E+00
         -4   -1    0    0    0  501 -0.00000000000E+00  0.00000000000E+00  0.21200620824E+03  0.21201001210E+03  0.12700000000E+01 0.  1.
          4   -1    0    0  501    0  0.00000000000E+00 -0.00000000000E+00 -0.18399345542E+02  0.18443123824E+02  0.12700000000E+01 0.  1.
         25    2    1    2    0    0  0.00000000000E+00  0.00000000000E+00  0.19360686270E+03  0.23045313593E+03  0.12500012230E+03 0.  0.
    9000005    1    3    3    0    0  0.46835513875E+02  0.44516502985E+01  0.20970763882E+02  0.51518496563E+02  0.10000000000E+01 0.  0.
    9000005    1    3    3    0    0 -0.46835513875E+02 -0.44516502985E+01  0.17263609881E+03  0.17893463936E+03  0.10000000000E+01 0.  0.
<mgrwt>
<rscale>  0 0.12500012E+03</rscale>
<asrwt>0</asrwt>
<pdfrwt beam="2">  1        4 0.28343288E-02 0.12500012E+03</pdfrwt>
<pdfrwt beam="1">  1       -4 0.32619999E-01 0.12500012E+03</pdfrwt>
<totfact> 0.85239833E+03</totfact>
</mgrwt>
</event>
<event>
 5    1  0.3257199E-002  0.1249978E+03  0.7818608E-02  0.1235073E+00
          4   -1    0    0  501    0  0.00000000000E+00  0.00000000000E+00  0.75997504638E+01  0.77051351131E+01  0.12700000000E+01 0.  1.
         -4   -1    0    0    0  501 -0.00000000000E+00 -0.00000000000E+00 -0.51033358540E+03  0.51033516564E+03  0.12700000000E+01 0.  1.
         25    2    1    2    0    0  0.00000000000E+00  0.00000000000E+00 -0.50273383493E+03  0.51804030075E+03  0.12499777763E+03 0.  0.
    9000005    1    3    3    0    0 -0.75144701581E+01 -0.49177743306E+02 -0.40809926580E+03  0.41112154948E+03  0.10000000000E+01 0.  0.
    9000005    1    3    3    0    0  0.75144701581E+01  0.49177743306E+02 -0.94634569137E+02  0.10691875127E+03  0.10000000000E+01 0.  0.
<mgrwt>
<rscale>  0 0.12499778E+03</rscale>
<asrwt>0</asrwt>
<pdfrwt beam="1">  1        4 0.11774208E-02 0.12499778E+03</pdfrwt>
<pdfrwt beam="2">  1       -4 0.78521061E-01 0.12499778E+03</pdfrwt>
<totfact> 0.54494007E+03</totfact>
</mgrwt>
</event>
<event>
 5    1  0.3257199E-002  0.1249981E+03  0.7818608E-02  0.1235072E+00
          4   -1    0    0  501    0  0.00000000000E+00  0.00000000000E+00  0.80237282039E+02  0.80247332224E+02  0.12700000000E+01 0.  1.
         -4   -1    0    0    0  501 -0.00000000000E+00 -0.00000000000E+00 -0.48660881656E+02  0.48677451695E+02  0.12700000000E+01 0.  1.
         25    2    1    2    0    0  0.00000000000E+00  0.00000000000E+00  0.31576400383E+02  0.12892478392E+03  0.12499812338E+03 0.  0.
    9000005    1    3    3    0    0  0.34080452472E+02 -0.16574030375E+02  0.67037705936E+02  0.77014477475E+02  0.10000000000E+01 0.  0.
    9000005    1    3    3    0    0 -0.34080452472E+02  0.16574030375E+02 -0.35461305553E+02  0.51910306444E+02  0.10000000000E+01 0.  0.
<mgrwt>
<rscale>  0 0.12499812E+03</rscale>
<asrwt>0</asrwt>
<pdfrwt beam="1">  1        4 0.12346245E-01 0.12499812E+03</pdfrwt>
<pdfrwt beam="2">  1       -4 0.74883373E-02 0.12499812E+03</pdfrwt>
<totfact> 0.10368003E+04</totfact>
</mgrwt>
</event>
<event>
 5    1  0.3257199E-002  0.1250022E+03  0.7818608E-02  0.1235066E+00
         -4   -1    0    0    0  501 -0.00000000000E+00  0.00000000000E+00  0.12947850498E+03  0.12948473328E+03  0.12700000000E+01 0. -1.
          4   -1    0    0  501    0  0.00000000000E+00 -0.00000000000E+00 -0.30149846802E+02  0.30176583011E+02  0.12700000000E+01 0. -1.
         25    2    1    2    0    0  0.00000000000E+00  0.00000000000E+00  0.99328658180E+02  0.15966131629E+03  0.12500221432E+03 0.  0.
    9000005    1    3    3    0    0  0.28427061380E+02 -0.54244277389E+02  0.65558435945E+02  0.89718715839E+02  0.10000000000E+01 0.  0.
    9000005    1    3    3    0    0 -0.28427061380E+02  0.54244277389E+02  0.33770222235E+02  0.69942600452E+02  0.10000000000E+01 0.  0.
<mgrwt>
<rscale>  0 0.12500221E+03</rscale>
<asrwt>0</asrwt>
<pdfrwt beam="2">  1        4 0.46409736E-02 0.12500221E+03</pdfrwt>
<pdfrwt beam="1">  1       -4 0.19922306E-01 0.12500221E+03</pdfrwt>
<totfact> 0.97403271E+03</totfact>
</mgrwt>
</event>
<event>
 5    1  0.3257199E-002  0.1249990E+03  0.7818608E-02  0.1235071E+00
          4   -1    0    0  501    0  0.00000000000E+00  0.00000000000E+00  0.10292554749E+04  0.10292562584E+04  0.12700000000E+01 0.  1.
         -4   -1    0    0    0  501 -0.00000000000E+00 -0.00000000000E+00 -0.36881011101E+01  0.39006396653E+01  0.12700000000E+01 0.  1.
         25    2    1    2    0    0  0.00000000000E+00  0.00000000000E+00  0.10255673738E+04  0.10331568981E+04  0.12499895157E+03 0.  0.
    9000005    1    3    3    0    0 -0.47824442597E+02  0.14276512575E+02  0.20196040816E+03  0.20803846420E+03  0.10000000000E+01 0.  0.
    9000005    1    3    3    0    0  0.47824442597E+02 -0.14276512575E+02  0.82360696562E+03  0.82511843389E+03  0.10000000000E+01 0.  0.
<mgrwt>
<rscale>  0 0.12499895E+03</rscale>
<asrwt>0</asrwt>
<pdfrwt beam="1">  1        4 0.15836350E+00 0.12499895E+03</pdfrwt>
<pdfrwt beam="2">  1       -4 0.58380923E-03 0.12499895E+03</pdfrwt>
<totfact> 0.29527212E+03</totfact>
</mgrwt>
</event>
<event>
 5    1  0.3257199E-002  0.1250011E+03  0.7818608E-02  0.1235068E+00
         -4   -1    0    0    0  501 -0.00000000000E+00  0.00000000000E+00  0.13484093835E+02  0.13543769289E+02  0.12700000000E+01 0. -1.
          4   -1    0    0  501    0  0.00000000000E+00 -0.00000000000E+00 -0.28899773350E+03  0.28900052399E+03  0.12700000000E+01 0. -1.
         25    2    1    2    0    0  0.00000000000E+00  0.00000000000E+00 -0.27551363967E+03  0.30254429328E+03  0.12500113502E+03 0.  0.
    9000005    1    3    3    0    0 -0.34151065296E+02  0.52333301673E+02 -0.13654371858E+03  0.15016742925E+03  0.10000000000E+01 0.  0.
    9000005    1    3    3    0    0  0.34151065296E+02 -0.52333301673E+02 -0.13896992109E+03  0.15237686403E+03  0.10000000000E+01 0.  0.
<mgrwt>
<rscale>  0 0.12500114E+03</rscale>
<asrwt>0</asrwt>
<pdfrwt beam="2">  1        4 0.44465990E-01 0.12500114E+03</pdfrwt>
<pdfrwt beam="1">  1       -4 0.20792813E-02 0.12500114E+03</pdfrwt>
<totfact> 0.75278897E+03</totfact>
</mgrwt>
</event>
<event>
 5    1  0.3257199E-002  0.1249974E+03  0.7818608E-02  0.1235073E+00
          4   -1    0    0  501    0  0.00000000000E+00  0.00000000000E+00  0.47526864078E+02  0.47543829348E+02  0.12700000000E+01 0.  1.
         -4   -1    0    0    0  501 -0.00000000000E+00 -0.00000000000E+00 -0.82150341505E+02  0.82160157677E+02  0.12700000000E+01 0.  1.
         25    2    1    2    0    0  0.00000000000E+00  0.00000000000E+00 -0.34623477428E+02  0.12970398702E+03  0.12499735622E+03 0.  0.
    9000005    1    3    3    0    0 -0.30436232902E+02 -0.30976275682E+02 -0.63939136867E+02  0.77298817272E+02  0.10000000000E+01 0.  0.
    9000005    1    3    3    0    0  0.30436232902E+02  0.30976275682E+02  0.29315659440E+02  0.52405169752E+02  0.10000000000E+01 0.  0.
<mgrwt>
<rscale>  0 0.12499736E+03</rscale>
<asrwt>0</asrwt>
<pdfrwt beam="1">  1        4 0.73138853E-02 0.12499736E+03</pdfrwt>
<pdfrwt beam="2">  1       -4 0.12640574E-01 0.12499736E+03</pdfrwt>
<totfact> 0.10351462E+04</totfact>
</mgrwt>
</event>
<event>
 5    1  0.3257199E-002  0.1249764E+03  0.7818608E-02  0.1235106E+00
         -4   -1    0    0    0  501 -0.00000000000E+00  0.00000000000E+00  0.57990578020E+02  0.58004482923E+02  0.12700000000E+01 0. -1.
          4   -1    0    0  501    0  0.00000000000E+00 -0.00000000000E+00 -0.67306697865E+02  0.67318678518E+02  0.12700000000E+01 0. -1.
         25    2    1    2    0    0  0.00000000000E+00  0.00000000000E+00 -0.93161198445E+01  0.12532316144E+03  0.12497641659E+03 0.  0.
    9000005    1    3    3    0    0 -0.56055570771E+02  0.25205514886E+02 -0.15924497027E+02  0.63499091338E+02  0.10000000000E+01 0.  0.
    9000005    1    3    3    0    0  0.56055570771E+02 -0.25205514886E+02  0.66083771822E+01  0.61824070103E+02  0.10000000000E+01 0.  0.
<mgrwt>
<rscale>  0 0.12497642E+03</rscale>
<asrwt>0</asrwt>
<pdfrwt beam="2">  1        4 0.10356868E-01 0.12497642E+03</pdfrwt>
<pdfrwt beam="1">  1       -4 0.89236186E-02 0.12497642E+03</pdfrwt>
<totfact> 0.10451417E+04</totfact>
</mgrwt>
</event>
<event>
 4    1  0.3257199E-002  0.1220533E+03  0.7818608E-02  0.1239748E+00
         -4   -1    0    0    0  501 -0.00000000000E+00  0.00000000000E+00  0.11448149429E+04  0.11448156473E+04  0.12700000000E+01 0.  1.
          4   -1    0    0  501    0  0.00000000000E+00 -0.00000000000E+00 -0.31284659974E+01  0.33764181461E+01  0.12700000000E+01 0.  1.
    9000005    1    1    2    0    0  0.57404817364E+02 -0.72229163819E+01  0.75320136299E+03  0.75542092690E+03  0.10000000000E+01 0.  0.
    9000005    1    1    2    0    0 -0.57404817364E+02  0.72229163819E+01  0.38848511391E+03  0.39277113859E+03  0.10000000000E+01 0.  0.
<mgrwt>
<rscale>  0 0.12205330E+03</rscale>
<asrwt>0</asrwt>
<pdfrwt beam="2">  1        4 0.50043048E-03 0.12205330E+03</pdfrwt>
<pdfrwt beam="1">  1       -4 0.17614430E+00 0.12205330E+03</pdfrwt>
<totfact> 0.27862878E+03</totfact>
</mgrwt>
</event>
<event>
 5    1  0.3257199E-002  0.1250031E+03  0.7818608E-02  0.1235064E+00
         -4   -1    0    0    0  501 -0.00000000000E+00  0.00000000000E+00  0.22465992482E+02  0.22501860327E+02  0.12700000000E+01 0.  1.
          4   -1    0    0  501    0  0.00000000000E+00 -0.00000000000E+00 -0.17370563615E+03  0.17371027871E+03  0.12700000000E+01 0.  1.
         25    2    1    2    0    0  0.00000000000E+00  0.00000000000E+00 -0.15123964367E+03  0.19621213904E+03  0.12500309472E+03 0.  0.
    9000005    1    3    3    0    0 -0.19356443535E+02 -0.64092287431E+00  0.17644309455E+02  0.26218397064E+02  0.10000000000E+01 0.  0.
    9000005    1    3    3    0    0  0.19356443535E+02  0.64092287431E+00 -0.16888395312E+03  0.16999374198E+03  0.10000000000E+01 0.  0.
<mgrwt>
<rscale>  0 0.12500309E+03</rscale>
<asrwt>0</asrwt>
<pdfrwt beam="2">  1        4 0.26727059E-01 0.12500309E+03</pdfrwt>
<pdfrwt beam="1">  1       -4 0.34594228E-02 0.12500309E+03</pdfrwt>
<totfact> 0.90771228E+03</totfact>
</mgrwt>
</event>
<event>
 5    1  0.3257199E-002  0.1250037E+03  0.7818608E-02  0.1235063E+00
          4   -1    0    0  501    0  0.00000000000E+00  0.00000000000E+00  0.59436293714E+02  0.59449860475E+02  0.12700000000E+01 0. -1.
         -4   -1    0    0    0  501 -0.00000000000E+00 -0.00000000000E+00 -0.65698347401E+02  0.65710621297E+02  0.12700000000E+01 0. -1.
         25    2    1    2    0    0  0.00000000000E+00  0.00000000000E+00 -0.62620536871E+01  0.12516048177E+03  0.12500373147E+03 0.  0.
    9000005    1    3    3    0    0 -0.58954985786E+02 -0.19726023982E+02  0.32548112153E+01  0.62260743388E+02  0.10000000000E+01 0.  0.
    9000005    1    3    3    0    0  0.58954985786E+02  0.19726023982E+02 -0.95168649023E+01  0.62899738384E+02  0.10000000000E+01 0.  0.
<mgrwt>
<rscale>  0 0.12500373E+03</rscale>
<asrwt>0</asrwt>
<pdfrwt beam="1">  1        4 0.91460330E-02 0.12500373E+03</pdfrwt>
<pdfrwt beam="2">  1       -4 0.10109426E-01 0.12500373E+03</pdfrwt>
<totfact> 0.10448497E+04</totfact>
</mgrwt>
</event>
<event>
 5    1  0.3257199E-002  0.1250029E+03  0.7818608E-02  0.1235065E+00
          4   -1    0    0  501    0  0.00000000000E+00  0.00000000000E+00  0.38522702681E+02  0.38543631404E+02  0.12700000000E+01 0.  1.
         -4   -1    0    0    0  501 -0.00000000000E+00 -0.00000000000E+00 -0.10135354656E+03  0.10136150305E+03  0.12700000000E+01 0.  1.
         25    2    1    2    0    0  0.00000000000E+00  0.00000000000E+00 -0.62830843876E+02  0.13990513445E+03  0.12500292678E+03 0.  0.
    9000005    1    3    3    0    0  0.52141290707E+02  0.33367306660E+02 -0.21830499801E+02  0.65648016511E+02  0.10000000000E+01 0.  0.
    9000005    1    3    3    0    0 -0.52141290707E+02 -0.33367306660E+02 -0.41000344075E+02  0.74257117939E+02  0.10000000000E+01 0.  0.
<mgrwt>
<rscale>  0 0.12500293E+03</rscale>
<asrwt>0</asrwt>
<pdfrwt beam="1">  1        4 0.59287916E-02 0.12500293E+03</pdfrwt>
<pdfrwt beam="2">  1       -4 0.15595075E-01 0.12500293E+03</pdfrwt>
<totfact> 0.10134884E+04</totfact>
</mgrwt>
</event>
<event>
 5    1  0.3257199E-002  0.1249994E+03  0.7818608E-02  0.1235070E+00
          4   -1    0    0  501    0  0.00000000000E+00  0.00000000000E+00  0.23525414999E+03  0.23525757796E+03  0.12700000000E+01 0.  1.
         -4   -1    0    0    0  501 -0.00000000000E+00 -0.00000000000E+00 -0.16576382294E+02  0.16624961653E+02  0.12700000000E+01 0.  1.
         25    2    1    2    0    0  0.00000000000E+00  0.00000000000E+00  0.21867776770E+03  0.25188253962E+03  0.12499939071E+03 0.  0.
    9000005    1    3    3    0    0  0.29352004077E+02 -0.34511645193E+02  0.19607163479E+03  0.20124035323E+03  0.10000000000E+01 0.  0.
    9000005    1    3    3    0    0 -0.29352004077E+02  0.34511645193E+02  0.22606132910E+02  0.50642186390E+02  0.10000000000E+01 0.  0.
<mgrwt>
<rscale>  0 0.12499939E+03</rscale>
<asrwt>0</asrwt>
<pdfrwt beam="1">  1        4 0.36196945E-01 0.12499939E+03</pdfrwt>
<pdfrwt beam="2">  1       -4 0.25542133E-02 0.12499939E+03</pdfrwt>
<totfact> 0.82060016E+03</totfact>
</mgrwt>
</event>
<event>
 5    1  0.3257199E-002  0.1249960E+03  0.7818608E-02  0.1235075E+00
         -4   -1    0    0    0  501 -0.00000000000E+00  0.00000000000E+00  0.12986145947E+02  0.13048098963E+02  0.12700000000E+01 0.  1.
          4   -1    0    0  501    0  0.00000000000E+00 -0.00000000000E+00 -0.30000320245E+03  0.30000589058E+03  0.12700000000E+01 0.  1.
         25    2    1    2    0    0  0.00000000000E+00  0.00000000000E+00 -0.28701705651E+03  0.31305398954E+03  0.12499603851E+03 0.  0.
    9000005    1    3    3    0    0  0.39510816245E+02  0.24022576528E+02 -0.24878185898E+03  0.25304466432E+03  0.10000000000E+01 0.  0.
    9000005    1    3    3    0    0 -0.39510816245E+02 -0.24022576528E+02 -0.38235197520E+02  0.60009325216E+02  0.10000000000E+01 0.  0.
<mgrwt>
<rscale>  0 0.12499604E+03</rscale>
<asrwt>0</asrwt>
<pdfrwt beam="2">  1        4 0.46159306E-01 0.12499604E+03</pdfrwt>
<pdfrwt beam="1">  1       -4 0.20028412E-02 0.12499604E+03</pdfrwt>
<totfact> 0.73996452E+03</totfact>
</mgrwt>
</event>
<event>
 5    1  0.3257199E-002  0.1249985E+03  0.7818608E-02  0.1235072E+00
          4   -1    0    0  501    0  0.00000000000E+00  0.00000000000E+00  0.15384419913E+03  0.15384944103E+03  0.12700000000E+01 0. -1.
         -4   -1    0    0    0  501 -0.00000000000E+00 -0.00000000000E+00 -0.25368787649E+02  0.25400556820E+02  0.12700000000E+01 0. -1.
         25    2    1    2    0    0  0.00000000000E+00  0.00000000000E+00  0.12847541148E+03  0.17924999785E+03  0.12499852149E+03 0.  0.
    9000005    1    3    3    0    0 -0.29933779865E+02 -0.53317087940E+02  0.82736777238E+02  0.10288399949E+03  0.10000000000E+01 0.  0.
    9000005    1    3    3    0    0  0.29933779865E+02  0.53317087940E+02  0.45738634240E+02  0.76365998359E+02  0.10000000000E+01 0.  0.
<mgrwt>
<rscale>  0 0.12499852E+03</rscale>
<asrwt>0</asrwt>
<pdfrwt beam="1">  1        4 0.23671185E-01 0.12499852E+03</pdfrwt>
<pdfrwt beam="2">  1       -4 0.39057374E-02 0.12499852E+03</pdfrwt>
<totfact> 0.93755288E+03</totfact>
</mgrwt>
</event>
<event>
 5    1  0.3257199E-002  0.1250074E+03  0.7818608E-02  0.1235058E+00
         -4   -1    0    0    0  501 -0.00000000000E+00  0.00000000000E+00  0.90353995098E+03  0.90354084352E+03  0.12700000000E+01 0. -1.
          4   -1    0    0  501    0  0.00000000000E+00 -0.00000000000E+00 -0.42296167196E+01  0.44161700143E+01  0.12700000000E+01 0. -1.
         25    2    1    2    0    0  0.00000000000E+00  0.00000000000E+00  0.89931033426E+03  0.90795701353E+03  0.12500744428E+03 0.  0.
    9000005    1    3    3    0    0 -0.42913304882E+02  0.37639238146E+02  0.26484197677E+03  0.27092533408E+03  0.10000000000E+01 0.  0.
    9000005    1    3    3    0    0  0.42913304882E+02 -0.37639238146E+02  0.63446835748E+03  0.63703167946E+03  0.10000000000E+01 0.  0.
<mgrwt>
<rscale>  0 0.12500744E+03</rscale>
<asrwt>0</asrwt>
<pdfrwt beam="2">  1        4 0.66512871E-03 0.12500744E+03</pdfrwt>
<pdfrwt beam="1">  1       -4 0.13902066E+00 0.12500744E+03</pdfrwt>
<totfact> 0.33851538E+03</totfact>
</mgrwt>
</event>
<event>
 5    1  0.3257199E-002  0.1250010E+03  0.7818608E-02  0.1235068E+00
         -4   -1    0    0    0  501 -0.00000000000E+00  0.00000000000E+00  0.14273958406E+02  0.14330345026E+02  0.12700000000E+01 0.  1.
          4   -1    0    0  501    0  0.00000000000E+00 -0.00000000000E+00 -0.27306993317E+03  0.27307288643E+03  0.12700000000E+01 0.  1.
         25    2    1    2    0    0  0.00000000000E+00  0.00000000000E+00 -0.25879597477E+03  0.28740323145E+03  0.12500104358E+03 0.  0.
    9000005    1    3    3    0    0 -0.18597480759E+02 -0.55898123222E+02 -0.81452567878E+02  0.10052853965E+03  0.10000000000E+01 0.  0.
    9000005    1    3    3    0    0  0.18597480759E+02  0.55898123222E+02 -0.17734340689E+03  0.18687469180E+03  0.10000000000E+01 0.  0.
<mgrwt>
<rscale>  0 0.12500104E+03</rscale>
<asrwt>0</asrwt>
<pdfrwt beam="2">  1        4 0.42015320E-01 0.12500104E+03</pdfrwt>
<pdfrwt beam="1">  1       -4 0.22005584E-02 0.12500104E+03</pdfrwt>
<totfact> 0.77204832E+03</totfact>
</mgrwt>
</event>
<event>
 5    1  0.3257199E-002  0.1249999E+03  0.7818608E-02  0.1235069E+00
         -4   -1    0    0    0  501 -0.00000000000E+00  0.00000000000E+00  0.59195116247E+03  0.59195252482E+03  0.12700000000E+01 0.  1.
          4   -1    0    0  501    0  0.00000000000E+00 -0.00000000000E+00 -0.65364456518E+01  0.66586801814E+01  0.12700000000E+01 0.  1.
         25    2    1    2    0    0  0.00000000000E+00  0.00000000000E+00  0.58541471681E+03  0.59861120500E+03  0.12499993638E+03 0.  0.
    9000005    1    3    3    0    0 -0.41584151521E+02 -0.46202385878E+02  0.26191515282E+03  0.26919221645E+03  0.10000000000E+01 0.  0.
    9000005    1    3    3    0    0  0.41584151521E+02  0.46202385878E+02  0.32349956399E+03  0.32941898855E+03  0.10000000000E+01 0.  0.
<mgrwt>
<rscale>  0 0.12499994E+03</rscale>
<asrwt>0</asrwt>
<pdfrwt beam="2">  1        4 0.10151137E-02 0.12499994E+03</pdfrwt>
<pdfrwt beam="1">  1       -4 0.91078985E-01 0.12499994E+03</pdfrwt>
<totfact> 0.48955433E+03</totfact>
</mgrwt>
</event>
<event>
 5    1  0.3257199E-002  0.1250001E+03  0.7818608E-02  0.1235069E+00
          4   -1    0    0  501    0  0.00000000000E+00  0.00000000000E+00  0.46582695190E+03  0.46582868312E+03  0.12700000000E+01 0. -1.
         -4   -1    0    0    0  501 -0.00000000000E+00 -0.00000000000E+00 -0.83357989249E+01  0.84319893096E+01  0.12700000000E+01 0. -1.
         25    2    1    2    0    0  0.00000000000E+00  0.00000000000E+00  0.45749115298E+03  0.47426067243E+03  0.12500012145E+03 0.  0.
    9000005    1    3    3    0    0 -0.44151848386E+02 -0.37345811240E+02  0.13886809287E+03  0.15043085638E+03  0.10000000000E+01 0.  0.
    9000005    1    3    3    0    0  0.44151848386E+02  0.37345811240E+02  0.31862306011E+03  0.32382981606E+03  0.10000000000E+01 0.  0.
<mgrwt>
<rscale>  0 0.12500012E+03</rscale>
<asrwt>0</asrwt>
<pdfrwt beam="1">  1        4 0.71673226E-01 0.12500012E+03</pdfrwt>
<pdfrwt beam="2">  1       -4 0.12899629E-02 0.12500012E+03</pdfrwt>
<totfact> 0.57918069E+03</totfact>
</mgrwt>
</event>
<event>
 5    1  0.3257199E-002  0.1250004E+03  0.7818608E-02  0.1235069E+00
         -4   -1    0    0    0  501 -0.00000000000E+00  0.00000000000E+00  0.48438601355E+02  0.48455247407E+02  0.12700000000E+01 0.  1.
          4   -1    0    0  501    0  0.00000000000E+00 -0.00000000000E+00 -0.80608327004E+02  0.80618330933E+02  0.12700000000E+01 0.  1.
         25    2    1    2    0    0  0.00000000000E+00  0.00000000000E+00 -0.32169725649E+02  0.12907357834E+03  0.12500038951E+03 0.  0.
    9000005    1    3    3    0    0  0.93848516105E+01  0.58540229375E+02 -0.36483075966E+02  0.69620749256E+02  0.10000000000E+01 0.  0.
    9000005    1    3    3    0    0 -0.93848516105E+01 -0.58540229375E+02  0.43133503175E+01  0.59452829083E+02  0.10000000000E+01 0.  0.
<mgrwt>
<rscale>  0 0.12500039E+03</rscale>
<asrwt>0</asrwt>
<pdfrwt beam="2">  1        4 0.12403331E-01 0.12500039E+03</pdfrwt>
<pdfrwt beam="1">  1       -4 0.74541425E-02 0.12500039E+03</pdfrwt>
<totfact> 0.10364275E+04</totfact>
</mgrwt>
</event>
<event>
 5    1  0.3257199E-002  0.1250008E+03  0.7818608E-02  0.1235068E+00
         -4   -1    0    0    0  501 -0.00000000000E+00  0.00000000000E+00  0.34926387752E+03  0.34926618652E+03  0.12700000000E+01 0. -1.
          4   -1    0    0  501    0  0.00000000000E+00 -0.00000000000E+00 -0.11145980772E+02  0.11218100881E+02  0.12700000000E+01 0. -1.
         25    2    1    2    0    0  0.00000000000E+00  0.00000000000E+00  0.33811789675E+03  0.36048428740E+03  0.12500083742E+03 0.  0.
    9000005    1    3    3    0    0  0.12331083996E+02 -0.54856860051E+02  0.90399372713E+02  0.10646303262E+03  0.10000000000E+01 0.  0.
    9000005    1    3    3    0    0 -0.12331083996E+02  0.54856860051E+02  0.24771852404E+03  0.25402125478E+03  0.10000000000E+01 0.  0.
<mgrwt>
<rscale>  0 0.12500084E+03</rscale>
<asrwt>0</asrwt>
<pdfrwt beam="2">  1        4 0.17204917E-02 0.12500084E+03</pdfrwt>
<pdfrwt beam="1">  1       -4 0.53738625E-01 0.12500084E+03</pdfrwt>
<totfact> 0.68585081E+03</totfact>
</mgrwt>
</event>
<event>
 5    1  0.3257199E-002  0.1249980E+03  0.7818608E-02  0.1235072E+00
         -4   -1    0    0    0  501 -0.00000000000E+00  0.00000000000E+00  0.22894482082E+02  0.22929679671E+02  0.12700000000E+01 0.  1.
          4   -1    0    0  501    0  0.00000000000E+00 -0.00000000000E+00 -0.17044569562E+03  0.17045042697E+03  0.12700000000E+01 0.  1.
         25    2    1    2    0    0  0.00000000000E+00  0.00000000000E+00 -0.14755121353E+03  0.19338010664E+03  0.12499802010E+03 0.  0.
    9000005    1    3    3    0    0  0.41815132160E+02 -0.34616755296E+02 -0.25883969479E+02  0.60148191168E+02  0.10000000000E+01 0.  0.
    9000005    1    3    3    0    0 -0.41815132160E+02  0.34616755296E+02 -0.12166724406E+03  0.13323191547E+03  0.10000000000E+01 0.  0.
<mgrwt>
<rscale>  0 0.12499802E+03</rscale>
<asrwt>0</asrwt>
<pdfrwt beam="2">  1        4 0.26225485E-01 0.12499802E+03</pdfrwt>
<pdfrwt beam="1">  1       -4 0.35252996E-02 0.12499802E+03</pdfrwt>
<totfact> 0.91266538E+03</totfact>
</mgrwt>
</event>
<event>
 5    1  0.3257199E-002  0.1250116E+03  0.7818608E-02  0.1235051E+00
          4   -1    0    0  501    0  0.00000000000E+00  0.00000000000E+00  0.67409369095E+02  0.67421331504E+02  0.12700000000E+01 0. -1.
         -4   -1    0    0    0  501 -0.00000000000E+00 -0.00000000000E+00 -0.57934902561E+02  0.57948820823E+02  0.12700000000E+01 0. -1.
         25    2    1    2    0    0  0.00000000000E+00  0.00000000000E+00  0.94744665341E+01  0.12537015233E+03  0.12501163777E+03 0.  0.
    9000005    1    3    3    0    0 -0.36513316369E+02 -0.50525425664E+02  0.92150672818E+01  0.63023474799E+02  0.10000000000E+01 0.  0.
    9000005    1    3    3    0    0  0.36513316369E+02  0.50525425664E+02  0.25939925231E+00  0.62346677528E+02  0.10000000000E+01 0.  0.
<mgrwt>
<rscale>  0 0.12501164E+03</rscale>
<asrwt>0</asrwt>
<pdfrwt beam="1">  1        4 0.10372663E-01 0.12501164E+03</pdfrwt>
<pdfrwt beam="2">  1       -4 0.89150528E-02 0.12501164E+03</pdfrwt>
<totfact> 0.10442081E+04</totfact>
</mgrwt>
</event>
<event>
 5    1  0.3257199E-002  0.1249957E+03  0.7818608E-02  0.1235076E+00
          4   -1    0    0  501    0  0.00000000000E+00  0.00000000000E+00  0.10727327327E+02  0.10802242896E+02  0.12700000000E+01 0.  1.
         -4   -1    0    0    0  501 -0.00000000000E+00 -0.00000000000E+00 -0.36277177929E+03  0.36277400231E+03  0.12700000000E+01 0.  1.
         25    2    1    2    0    0  0.00000000000E+00  0.00000000000E+00 -0.35204445196E+03  0.37357624520E+03  0.12499565921E+03 0.  0.
    9000005    1    3    3    0    0 -0.29456979778E+02  0.18820176001E+02 -0.21211872876E+02  0.40900565195E+02  0.10000000000E+01 0.  0.
    9000005    1    3    3    0    0  0.29456979778E+02 -0.18820176001E+02 -0.33083257909E+03  0.33267568001E+03  0.10000000000E+01 0.  0.
<mgrwt>
<rscale>  0 0.12499566E+03</rscale>
<asrwt>0</asrwt>
<pdfrwt beam="1">  1        4 0.16562921E-02 0.12499566E+03</pdfrwt>
<pdfrwt beam="2">  1       -4 0.55816967E-01 0.12499566E+03</pdfrwt>
<totfact> 0.67212900E+03</totfact>
</mgrwt>
</event>
<event>
 5    1  0.3257199E-002  0.1249813E+03  0.7818608E-02  0.1235099E+00
         -4   -1    0    0    0  501 -0.00000000000E+00  0.00000000000E+00  0.43908538484E+03  0.43908722150E+03  0.12700000000E+01 0. -1.
          4   -1    0    0  501    0  0.00000000000E+00 -0.00000000000E+00 -0.88464627665E+01  0.89371585797E+01  0.12700000000E+01 0. -1.
         25    2    1    2    0    0  0.00000000000E+00  0.00000000000E+00  0.43023892208E+03  0.44802438008E+03  0.12498125889E+03 0.  0.
    9000005    1    3    3    0    0  0.23955570586E+02 -0.59051569706E+01  0.93377515480E+01  0.26399504634E+02  0.10000000000E+01 0.  0.
    9000005    1    3    3    0    0 -0.23955570586E+02  0.59051569706E+01  0.42090117053E+03  0.42162487545E+03  0.10000000000E+01 0.  0.
<mgrwt>
<rscale>  0 0.12498126E+03</rscale>
<asrwt>0</asrwt>
<pdfrwt beam="2">  1        4 0.13681118E-02 0.12498126E+03</pdfrwt>
<pdfrwt beam="1">  1       -4 0.67558733E-01 0.12498126E+03</pdfrwt>
<totfact> 0.60160147E+03</totfact>
</mgrwt>
</event>
<event>
 5    1  0.3257199E-002  0.1250025E+03  0.7818608E-02  0.1235065E+00
         -4   -1    0    0    0  501 -0.00000000000E+00  0.00000000000E+00  0.24603326937E+02  0.24636083219E+02  0.12700000000E+01 0.  1.
          4   -1    0    0  501    0  0.00000000000E+00 -0.00000000000E+00 -0.15863467779E+03  0.15863976140E+03  0.12700000000E+01 0.  1.
         25    2    1    2    0    0  0.00000000000E+00  0.00000000000E+00 -0.13403135085E+03  0.18327584462E+03  0.12500252881E+03 0.  0.
    9000005    1    3    3    0    0 -0.19080474707E+02  0.52413325506E+02 -0.25696868225E+02  0.61421089556E+02  0.10000000000E+01 0.  0.
    9000005    1    3    3    0    0  0.19080474707E+02 -0.52413325506E+02 -0.10833448263E+03  0.12185475506E+03  0.10000000000E+01 0.  0.
<mgrwt>
<rscale>  0 0.12500253E+03</rscale>
<asrwt>0</asrwt>
<pdfrwt beam="2">  1        4 0.24408245E-01 0.12500253E+03</pdfrwt>
<pdfrwt beam="1">  1       -4 0.37880381E-02 0.12500253E+03</pdfrwt>
<totfact> 0.93025369E+03</totfact>
</mgrwt>
</event>
<event>
 5    1  0.3257199E-002  0.1250029E+03  0.7818608E-02  0.1235065E+00
          4   -1    0    0  501    0  0.00000000000E+00  0.00000000000E+00  0.61320637569E+02  0.61333787522E+02  0.12700000000E+01 0.  1.
         -4   -1    0    0    0  501 -0.00000000000E+00 -0.00000000000E+00 -0.63678651069E+02  0.63691314180E+02  0.12700000000E+01 0.  1.
         25    2    1    2    0    0  0.00000000000E+00  0.00000000000E+00 -0.23580135006E+01  0.12502510170E+03  0.12500286328E+03 0.  0.
    9000005    1    3    3    0    0  0.47668490268E+02  0.22154343745E+02 -0.34983378216E+02  0.63150112135E+02  0.10000000000E+01 0.  0.
    9000005    1    3    3    0    0 -0.47668490268E+02 -0.22154343745E+02  0.32625364715E+02  0.61874989568E+02  0.10000000000E+01 0.  0.
<mgrwt>
<rscale>  0 0.12500286E+03</rscale>
<asrwt>0</asrwt>
<pdfrwt beam="1">  1        4 0.94359299E-02 0.12500286E+03</pdfrwt>
<pdfrwt beam="2">  1       -4 0.97987011E-02 0.12500286E+03</pdfrwt>
<totfact> 0.10451641E+04</totfact>
</mgrwt>
</event>
<event>
 5    1  0.3257199E-002  0.1250004E+03  0.7818608E-02  0.1235069E+00
          4   -1    0    0  501    0  0.00000000000E+00  0.00000000000E+00  0.39280625088E+02  0.39301150204E+02  0.12700000000E+01 0.  1.
         -4   -1    0    0    0  501 -0.00000000000E+00 -0.00000000000E+00 -0.99394824766E+02  0.99402938037E+02  0.12700000000E+01 0.  1.
         25    2    1    2    0    0  0.00000000000E+00  0.00000000000E+00 -0.60114199678E+02  0.13870408824E+03  0.12500042837E+03 0.  0.
    9000005    1    3    3    0    0 -0.53366427789E+01 -0.24760034236E+02 -0.93449235911E+02  0.96826126349E+02  0.10000000000E+01 0.  0.
    9000005    1    3    3    0    0  0.53366427789E+01  0.24760034236E+02  0.33335036233E+02  0.41877961891E+02  0.10000000000E+01 0.  0.
<mgrwt>
<rscale>  0 0.12500043E+03</rscale>
<asrwt>0</asrwt>
<pdfrwt beam="1">  1        4 0.60453761E-02 0.12500043E+03</pdfrwt>
<pdfrwt beam="2">  1       -4 0.15293714E-01 0.12500043E+03</pdfrwt>
<totfact> 0.10160417E+04</totfact>
</mgrwt>
</event>
<event>
 5    1  0.3257199E-002  0.1250072E+03  0.7818608E-02  0.1235058E+00
         -4   -1    0    0    0  501 -0.00000000000E+00  0.00000000000E+00  0.19080369032E+03  0.19080791687E+03  0.12700000000E+01 0. -1.
          4   -1    0    0  501    0  0.00000000000E+00 -0.00000000000E+00 -0.20450819828E+02  0.20490215510E+02  0.12700000000E+01 0. -1.
         25    2    1    2    0    0  0.00000000000E+00  0.00000000000E+00  0.17035287050E+03  0.21129813238E+03  0.12500720084E+03 0.  0.
    9000005    1    3    3    0    0  0.62182724560E+02  0.54976728094E+01  0.90186199719E+02  0.10968804064E+03  0.10000000000E+01 0.  0.
    9000005    1    3    3    0    0 -0.62182724560E+02 -0.54976728094E+01  0.80166670778E+02  0.10161009174E+03  0.10000000000E+01 0.  0.
<mgrwt>
<rscale>  0 0.12500720E+03</rscale>
<asrwt>0</asrwt>
<pdfrwt beam="2">  1        4 0.31496354E-02 0.12500720E+03</pdfrwt>
<pdfrwt beam="1">  1       -4 0.29357770E-01 0.12500720E+03</pdfrwt>
<totfact> 0.88250109E+03</totfact>
</mgrwt>
</event>
<event>
 5    1  0.3257199E-002  0.1250141E+03  0.7818608E-02  0.1235047E+00
          4   -1    0    0  501    0  0.00000000000E+00  0.00000000000E+00  0.50315760829E+03  0.50315921106E+03  0.12700000000E+01 0. -1.
         -4   -1    0    0    0  501 -0.00000000000E+00 -0.00000000000E+00 -0.77116756484E+01  0.78155512477E+01  0.12700000000E+01 0. -1.
         25    2    1    2    0    0  0.00000000000E+00  0.00000000000E+00  0.49544593264E+03  0.51097476231E+03  0.12501414140E+03 0.  0.
    9000005    1    3    3    0    0 -0.28614852254E+02  0.44982798256E+02  0.38103980076E+03  0.38475263700E+03  0.10000000000E+01 0.  0.
    9000005    1    3    3    0    0  0.28614852254E+02 -0.44982798256E+02  0.11440613187E+03  0.12622212531E+03  0.10000000000E+01 0.  0.
<mgrwt>
<rscale>  0 0.12501414E+03</rscale>
<asrwt>0</asrwt>
<pdfrwt beam="1">  1        4 0.77417003E-01 0.12501414E+03</pdfrwt>
<pdfrwt beam="2">  1       -4 0.11945250E-02 0.12501414E+03</pdfrwt>
<totfact> 0.55005688E+03</totfact>
</mgrwt>
</event>
<event>
 5    1  0.3257199E-002  0.1249859E+03  0.7818608E-02  0.1235091E+00
         -4   -1    0    0    0  501 -0.00000000000E+00  0.00000000000E+00  0.31715873864E+03  0.31716128136E+03  0.12700000000E+01 0.  1.
          4   -1    0    0  501    0  0.00000000000E+00 -0.00000000000E+00 -0.12278269577E+02  0.12343775914E+02  0.12700000000E+01 0.  1.
         25    2    1    2    0    0  0.00000000000E+00  0.00000000000E+00  0.30488046906E+03  0.32950505728E+03  0.12498592863E+03 0.  0.
    9000005    1    3    3    0    0 -0.54270277513E+02  0.30571276662E+02  0.16549066589E+03  0.17682767452E+03  0.10000000000E+01 0.  0.
    9000005    1    3    3    0    0  0.54270277513E+02 -0.30571276662E+02  0.13938980317E+03  0.15267738276E+03  0.10000000000E+01 0.  0.
<mgrwt>
<rscale>  0 0.12498593E+03</rscale>
<asrwt>0</asrwt>
<pdfrwt beam="2">  1        4 0.18941993E-02 0.12498593E+03</pdfrwt>
<pdfrwt beam="1">  1       -4 0.48798881E-01 0.12498593E+03</pdfrwt>
<totfact> 0.72062172E+03</totfact>
</mgrwt>
</event>
<event>
 5    1  0.3257199E-002  0.1250065E+03  0.7818608E-02  0.1235059E+00
          4   -1    0    0  501    0  0.00000000000E+00  0.00000000000E+00  0.32743788373E+02  0.32768408216E+02  0.12700000000E+01 0. -1.
         -4   -1    0    0    0  501 -0.00000000000E+00 -0.00000000000E+00 -0.11923705238E+03  0.11924381560E+03  0.12700000000E+01 0. -1.
         25    2    1    2    0    0  0.00000000000E+00  0.00000000000E+00 -0.86493264003E+02  0.15201222382E+03  0.12500652572E+03 0.  0.
    9000005    1    3    3    0    0  0.15636059219E+02 -0.59030020834E+02 -0.59407913702E+02  0.85201701380E+02  0.10000000000E+01 0.  0.
    9000005    1    3    3    0    0 -0.15636059219E+02  0.59030020834E+02 -0.27085350301E+02  0.66810522439E+02  0.10000000000E+01 0.  0.
<mgrwt>
<rscale>  0 0.12500653E+03</rscale>
<asrwt>0</asrwt>
<pdfrwt beam="1">  1        4 0.50399200E-02 0.12500653E+03</pdfrwt>
<pdfrwt beam="2">  1       -4 0.18346576E-01 0.12500653E+03</pdfrwt>
<totfact> 0.98889573E+03</totfact>
</mgrwt>
</event>
<event>
 5    1  0.3257199E-002  0.1249975E+03  0.7818608E-02  0.1235073E+00
          4   -1    0    0  501    0  0.00000000000E+00  0.00000000000E+00  0.18052843496E+03  0.18053290207E+03  0.12700000000E+01 0. -1.
         -4   -1    0    0    0  501 -0.00000000000E+00 -0.00000000000E+00 -0.21613623931E+02  0.21650903894E+02  0.12700000000E+01 0. -1.
         25    2    1    2    0    0  0.00000000000E+00  0.00000000000E+00  0.15891481103E+03  0.20218380596E+03  0.12499749689E+03 0.  0.
    9000005    1    3    3    0    0  0.58123907010E+01 -0.60739343346E+00 -0.21178582098E+02  0.21992843202E+02  0.10000000000E+01 0.  0.
    9000005    1    3    3    0    0 -0.58123907010E+01  0.60739343346E+00  0.18009339313E+03  0.18019096276E+03  0.10000000000E+01 0.  0.
<mgrwt>
<rscale>  0 0.12499750E+03</rscale>
<asrwt>0</asrwt>
<pdfrwt beam="1">  1        4 0.27776816E-01 0.12499750E+03</pdfrwt>
<pdfrwt beam="2">  1       -4 0.33283843E-02 0.12499750E+03</pdfrwt>
<totfact> 0.89773520E+03</totfact>
</mgrwt>
</event>
<event>
 5    1  0.3257199E-002  0.1250013E+03  0.7818608E-02  0.1235067E+00
          4   -1    0    0  501    0  0.00000000000E+00  0.00000000000E+00  0.50405071365E+03  0.50405231359E+03  0.12700000000E+01 0. -1.
         -4   -1    0    0    0  501 -0.00000000000E+00 -0.00000000000E+00 -0.76962218473E+01  0.78003032456E+01  0.12700000000E+01 0. -1.
         25    2    1    2    0    0  0.00000000000E+00  0.00000000000E+00  0.49635449181E+03  0.51185261683E+03  0.12500127929E+03 0.  0.
    9000005    1    3    3    0    0  0.38346826302E+02  0.47912002471E+02  0.29650446705E+03  0.30279025422E+03  0.10000000000E+01 0.  0.
    9000005    1    3    3    0    0 -0.38346826302E+02 -0.47912002471E+02  0.19985002475E+03  0.20906236261E+03  0.10000000000E+01 0.  0.
<mgrwt>
<rscale>  0 0.12500128E+03</rscale>
<asrwt>0</asrwt>
<pdfrwt beam="1">  1        4 0.77554387E-01 0.12500128E+03</pdfrwt>
<pdfrwt beam="2">  1       -4 0.11921636E-02 0.12500128E+03</pdfrwt>
<totfact> 0.54954791E+03</totfact>
</mgrwt>
</event>
<event>
 5    1  0.3257199E-002  0.1250488E+03  0.7818608E-02  0.1234993E+00
          4   -1    0    0  501    0  0.00000000000E+00  0.00000000000E+00  0.70815871256E+03  0.70815985136E+03  0.12700000000E+01 0. -1.
         -4   -1    0    0    0  501 -0.00000000000E+00 -0.00000000000E+00 -0.54461725772E+01  0.55922889536E+01  0.12700000000E+01 0. -1.
         25    2    1    2    0    0  0.00000000000E+00  0.00000000000E+00  0.70271253999E+03  0.71375214031E+03  0.12504880627E+03 0.  0.
    9000005    1    3    3    0    0  0.16837049070E+02 -0.55398817240E+02  0.48591801246E+03  0.48935654691E+03  0.10000000000E+01 0.  0.
    9000005    1    3    3    0    0 -0.16837049070E+02  0.55398817240E+02  0.21679452753E+03  0.22439559341E+03  0.10000000000E+01 0.  0.
<mgrwt>
<rscale>  0 0.12504881E+03</rscale>
<asrwt>0</asrwt>
<pdfrwt beam="1">  1        4 0.10895875E+00 0.12504881E+03</pdfrwt>
<pdfrwt beam="2">  1       -4 0.84920062E-03 0.12504881E+03</pdfrwt>
<totfact> 0.42325437E+03</totfact>
</mgrwt>
</event>
<event>
 5    1  0.3257199E-002  0.1250087E+03  0.7818608E-02  0.1235056E+00
         -4   -1    0    0    0  501 -0.00000000000E+00  0.00000000000E+00  0.25080776779E+03  0.25081098318E+03  0.12700000000E+01 0.  1.
          4   -1    0    0  501    0  0.00000000000E+00 -0.00000000000E+00 -0.15547633919E+02  0.15599417312E+02  0.12700000000E+01 0.  1.
         25    2    1    2    0    0  0.00000000000E+00  0.00000000000E+00  0.23526013387E+03  0.26641040049E+03  0.12500868330E+03 0.  0.
    9000005    1    3    3    0    0 -0.13851161603E+02  0.60931939759E+02  0.12000010083E+03  0.13529811588E+03  0.10000000000E+01 0.  0.
    9000005    1    3    3    0    0  0.13851161603E+02 -0.60931939759E+02  0.11526003304E+03  0.13111228461E+03  0.10000000000E+01 0.  0.
<mgrwt>
<rscale>  0 0.12500868E+03</rscale>
<asrwt>0</asrwt>
<pdfrwt beam="2">  1        4 0.23961745E-02 0.12500868E+03</pdfrwt>
<pdfrwt beam="1">  1       -4 0.38590039E-01 0.12500868E+03</pdfrwt>
<totfact> 0.79999328E+03</totfact>
</mgrwt>
</event>
<event>
 5    1  0.3257199E-002  0.1249898E+03  0.7818608E-02  0.1235085E+00
          4   -1    0    0  501    0  0.00000000000E+00  0.00000000000E+00  0.11026445287E+03  0.11027176641E+03  0.12700000000E+01 0. -1.
         -4   -1    0    0    0  501 -0.00000000000E+00 -0.00000000000E+00 -0.35400555911E+02  0.35423329302E+02  0.12700000000E+01 0. -1.
         25    2    1    2    0    0  0.00000000000E+00  0.00000000000E+00  0.74863896958E+02  0.14569509571E+03  0.12498983097E+03 0.  0.
    9000005    1    3    3    0    0 -0.18566544479E+02  0.20035662073E+02 -0.28078208420E+02  0.39185840767E+02  0.10000000000E+01 0.  0.
    9000005    1    3    3    0    0  0.18566544479E+02 -0.20035662073E+02  0.10294210538E+03  0.10650925494E+03  0.10000000000E+01 0.  0.
<mgrwt>
<rscale>  0 0.12498983E+03</rscale>
<asrwt>0</asrwt>
<pdfrwt beam="1">  1        4 0.16966076E-01 0.12498983E+03</pdfrwt>
<pdfrwt beam="2">  1       -4 0.54485538E-02 0.12498983E+03</pdfrwt>
<totfact> 0.10019179E+04</totfact>
</mgrwt>
</event>
<event>
 5    1  0.3257199E-002  0.1250016E+03  0.7818608E-02  0.1235067E+00
          4   -1    0    0  501    0  0.00000000000E+00  0.00000000000E+00  0.16899474547E+03  0.16899951745E+03  0.12700000000E+01 0. -1.
         -4   -1    0    0    0  501 -0.00000000000E+00 -0.00000000000E+00 -0.23092659809E+02  0.23127555796E+02  0.12700000000E+01 0. -1.
         25    2    1    2    0    0  0.00000000000E+00  0.00000000000E+00  0.14590208566E+03  0.19212707324E+03  0.12500157468E+03 0.  0.
    9000005    1    3    3    0    0  0.34287249016E+02 -0.44092132961E+02  0.11603131711E+03  0.12877887320E+03  0.10000000000E+01 0.  0.
    9000005    1    3    3    0    0 -0.34287249016E+02  0.44092132961E+02  0.29870768559E+02  0.63348200041E+02  0.10000000000E+01 0.  0.
<mgrwt>
<rscale>  0 0.12500157E+03</rscale>
<asrwt>0</asrwt>
<pdfrwt beam="1">  1        4 0.26002243E-01 0.12500157E+03</pdfrwt>
<pdfrwt beam="2">  1       -4 0.35557682E-02 0.12500157E+03</pdfrwt>
<totfact> 0.91475296E+03</totfact>
</mgrwt>
</event>
<event>
 5    1  0.3257199E-002  0.1250020E+03  0.7818608E-02  0.1235066E+00
          4   -1    0    0  501    0  0.00000000000E+00  0.00000000000E+00  0.17487498019E+02  0.17533553176E+02  0.12700000000E+01 0. -1.
         -4   -1    0    0    0  501 -0.00000000000E+00 -0.00000000000E+00 -0.22303929839E+03  0.22304291409E+03  0.12700000000E+01 0. -1.
         25    2    1    2    0    0  0.00000000000E+00  0.00000000000E+00 -0.20555180037E+03  0.24057646726E+03  0.12500197585E+03 0.  0.
    9000005    1    3    3    0    0 -0.20504328463E+02 -0.58986638481E+02 -0.98253139558E+02  0.11642392554E+03  0.10000000000E+01 0.  0.
    9000005    1    3    3    0    0  0.20504328463E+02  0.58986638481E+02 -0.10729866081E+03  0.12415254172E+03  0.10000000000E+01 0.  0.
<mgrwt>
<rscale>  0 0.12500198E+03</rscale>
<asrwt>0</asrwt>
<pdfrwt beam="1">  1        4 0.26942053E-02 0.12500198E+03</pdfrwt>
<pdfrwt beam="2">  1       -4 0.34317557E-01 0.12500198E+03</pdfrwt>
<totfact> 0.83707902E+03</totfact>
</mgrwt>
</event>
<event>
 5    1  0.3257199E-002  0.1250021E+03  0.7818608E-02  0.1235066E+00
         -4   -1    0    0    0  501 -0.00000000000E+00  0.00000000000E+00  0.70650709056E+02  0.70662122740E+02  0.12700000000E+01 0. -1.
          4   -1    0    0  501    0  0.00000000000E+00 -0.00000000000E+00 -0.55268289445E+02  0.55282879070E+02  0.12700000000E+01 0. -1.
         25    2    1    2    0    0  0.00000000000E+00  0.00000000000E+00  0.15382419610E+02  0.12594500181E+03  0.12500209857E+03 0.  0.
    9000005    1    3    3    0    0 -0.16097066215E+01 -0.60971804207E+02  0.21403760278E+02  0.64647297064E+02  0.10000000000E+01 0.  0.
    9000005    1    3    3    0    0  0.16097066215E+01  0.60971804207E+02 -0.60213406680E+01  0.61297704745E+02  0.10000000000E+01 0.  0.
<mgrwt>
<rscale>  0 0.12500210E+03</rscale>
<asrwt>0</asrwt>
<pdfrwt beam="2">  1        4 0.85048140E-02 0.12500210E+03</pdfrwt>
<pdfrwt beam="1">  1       -4 0.10871340E-01 0.12500210E+03</pdfrwt>
<totfact> 0.10431669E+04</totfact>
</mgrwt>
</event>
<event>
 5    1  0.3257199E-002  0.1250080E+03  0.7818608E-02  0.1235057E+00
          4   -1    0    0  501    0  0.00000000000E+00  0.00000000000E+00  0.78396671446E+02  0.78406957560E+02  0.12700000000E+01 0. -1.
         -4   -1    0    0    0  501 -0.00000000000E+00 -0.00000000000E+00 -0.49811435150E+02  0.49827622577E+02  0.12700000000E+01 0. -1.
         25    2    1    2    0    0  0.00000000000E+00  0.00000000000E+00  0.28585236297E+02  0.12823458014E+03  0.12500796698E+03 0.  0.
    9000005    1    3    3    0    0 -0.60870254168E+02  0.71453814410E+01  0.26835384615E+02  0.66913243725E+02  0.10000000000E+01 0.  0.
    9000005    1    3    3    0    0  0.60870254168E+02 -0.71453814410E+01  0.17498516818E+01  0.61321336412E+02  0.10000000000E+01 0.  0.
<mgrwt>
<rscale>  0 0.12500797E+03</rscale>
<asrwt>0</asrwt>
<pdfrwt beam="1">  1        4 0.12063063E-01 0.12500797E+03</pdfrwt>
<pdfrwt beam="2">  1       -4 0.76653342E-02 0.12500797E+03</pdfrwt>
<totfact> 0.10380558E+04</totfact>
</mgrwt>
</event>
<event>
 5    1  0.3257199E-002  0.1250008E+03  0.7818608E-02  0.1235068E+00
          4   -1    0    0  501    0  0.00000000000E+00  0.00000000000E+00  0.28060159057E+02  0.28088884391E+02  0.12700000000E+01 0. -1.
         -4   -1    0    0    0  501 -0.00000000000E+00 -0.00000000000E+00 -0.13910878299E+03  0.13911458013E+03  0.12700000000E+01 0. -1.
         25    2    1    2    0    0  0.00000000000E+00  0.00000000000E+00 -0.11104862393E+03  0.16720346452E+03  0.12500080668E+03 0.  0.
    9000005    1    3    3    0    0 -0.15232223852E+02 -0.58401711046E+01  0.25168297100E+02  0.30009522171E+02  0.10000000000E+01 0.  0.
    9000005    1    3    3    0    0  0.15232223852E+02  0.58401711046E+01 -0.13621692103E+03  0.13719394235E+03  0.10000000000E+01 0.  0.
<mgrwt>
<rscale>  0 0.12500081E+03</rscale>
<asrwt>0</asrwt>
<pdfrwt beam="1">  1        4 0.43196032E-02 0.12500081E+03</pdfrwt>
<pdfrwt beam="2">  1       -4 0.21404006E-01 0.12500081E+03</pdfrwt>
<totfact> 0.95969972E+03</totfact>
</mgrwt>
</event>
<event>
 5    1  0.3257199E-002  0.1249992E+03  0.7818608E-02  0.1235071E+00
         -4   -1    0    0    0  501 -0.00000000000E+00  0.00000000000E+00  0.10936287734E+04  0.10936295109E+04  0.12700000000E+01 0. -1.
          4   -1    0    0  501    0  0.00000000000E+00 -0.00000000000E+00 -0.34581219148E+01  0.36839526568E+01  0.12700000000E+01 0. -1.
         25    2    1    2    0    0  0.00000000000E+00  0.00000000000E+00  0.10901706515E+04  0.10973134635E+04  0.12499915096E+03 0.  0.
    9000005    1    3    3    0    0  0.83592024628E+01 -0.38214691761E+01  0.24649691163E+01  0.95684881367E+01  0.10000000000E+01 0.  0.
    9000005    1    3    3    0    0 -0.83592024628E+01  0.38214691761E+01  0.10877056824E+04  0.10877449754E+04  0.10000000000E+01 0.  0.
<mgrwt>
<rscale>  0 0.12499915E+03</rscale>
<asrwt>0</asrwt>
<pdfrwt beam="2">  1        4 0.54944651E-03 0.12499915E+03</pdfrwt>
<pdfrwt beam="1">  1       -4 0.16826818E+00 0.12499915E+03</pdfrwt>
<totfact> 0.27562624E+03</totfact>
</mgrwt>
</event>
<event>
 5    1  0.3257199E-002  0.1250029E+03  0.7818608E-02  0.1235065E+00
         -4   -1    0    0    0  501 -0.00000000000E+00  0.00000000000E+00  0.26991730864E+02  0.27021592015E+02  0.12700000000E+01 0.  1.
          4   -1    0    0  501    0  0.00000000000E+00 -0.00000000000E+00 -0.14461441204E+03  0.14461998849E+03  0.12700000000E+01 0.  1.
         25    2    1    2    0    0  0.00000000000E+00  0.00000000000E+00 -0.11762268118E+03  0.17164158050E+03  0.12500294809E+03 0.  0.
    9000005    1    3    3    0    0  0.11183398335E+02 -0.61453494155E+02 -0.56122757177E+02  0.83978355636E+02  0.10000000000E+01 0.  0.
    9000005    1    3    3    0    0 -0.11183398335E+02  0.61453494155E+02 -0.61499924001E+02  0.87663224868E+02  0.10000000000E+01 0.  0.
<mgrwt>
<rscale>  0 0.12500295E+03</rscale>
<asrwt>0</asrwt>
<pdfrwt beam="2">  1        4 0.22251097E-01 0.12500295E+03</pdfrwt>
<pdfrwt beam="1">  1       -4 0.41553000E-02 0.12500295E+03</pdfrwt>
<totfact> 0.95137257E+03</totfact>
</mgrwt>
</event>
<event>
 5    1  0.3257199E-002  0.1249951E+03  0.7818608E-02  0.1235077E+00
         -4   -1    0    0    0  501 -0.00000000000E+00  0.00000000000E+00  0.15014257875E+03  0.15014794988E+03  0.12700000000E+01 0. -1.
          4   -1    0    0  501    0  0.00000000000E+00 -0.00000000000E+00 -0.25993572999E+02  0.26024579483E+02  0.12700000000E+01 0. -1.
         25    2    1    2    0    0  0.00000000000E+00  0.00000000000E+00  0.12414900575E+03  0.17617252937E+03  0.12499513780E+03 0.  0.
    9000005    1    3    3    0    0  0.38389151573E+02 -0.47697940144E+02  0.44463575666E+02  0.75675821855E+02  0.10000000000E+01 0.  0.
    9000005    1    3    3    0    0 -0.38389151573E+02  0.47697940144E+02  0.79685430085E+02  0.10049670751E+03  0.10000000000E+01 0.  0.
<mgrwt>
<rscale>  0 0.12499514E+03</rscale>
<asrwt>0</asrwt>
<pdfrwt beam="2">  1        4 0.40018095E-02 0.12499514E+03</pdfrwt>
<pdfrwt beam="1">  1       -4 0.23101657E-01 0.12499514E+03</pdfrwt>
<totfact> 0.94320818E+03</totfact>
</mgrwt>
</event>
<event>
 5    1  0.3257199E-002  0.1249993E+03  0.7818608E-02  0.1235070E+00
         -4   -1    0    0    0  501 -0.00000000000E+00  0.00000000000E+00  0.12368756892E+02  0.12433786513E+02  0.12700000000E+01 0.  1.
          4   -1    0    0  501    0  0.00000000000E+00 -0.00000000000E+00 -0.31491789425E+03  0.31492045506E+03  0.12700000000E+01 0.  1.
         25    2    1    2    0    0  0.00000000000E+00  0.00000000000E+00 -0.30254913736E+03  0.32735424158E+03  0.12499927585E+03 0.  0.
    9000005    1    3    3    0    0  0.38962450894E+02 -0.39357551592E+02 -0.22709082892E+03  0.23374844176E+03  0.10000000000E+01 0.  0.
    9000005    1    3    3    0    0 -0.38962450894E+02  0.39357551592E+02 -0.75458308440E+02  0.93605799818E+02  0.10000000000E+01 0.  0.
<mgrwt>
<rscale>  0 0.12499928E+03</rscale>
<asrwt>0</asrwt>
<pdfrwt beam="2">  1        4 0.48454100E-01 0.12499928E+03</pdfrwt>
<pdfrwt beam="1">  1       -4 0.19080852E-02 0.12499928E+03</pdfrwt>
<totfact> 0.72291052E+03</totfact>
</mgrwt>
</event>
<event>
 5    1  0.3257199E-002  0.1249999E+03  0.7818608E-02  0.1235069E+00
          4   -1    0    0  501    0  0.00000000000E+00  0.00000000000E+00  0.80911486958E+03  0.80911586629E+03  0.12700000000E+01 0.  1.
         -4   -1    0    0    0  501 -0.00000000000E+00 -0.00000000000E+00 -0.47432633418E+01  0.49103408364E+01  0.12700000000E+01 0.  1.
         25    2    1    2    0    0  0.00000000000E+00  0.00000000000E+00  0.80437160624E+03  0.81402620713E+03  0.12499993984E+03 0.  0.
    9000005    1    3    3    0    0 -0.14550791397E+01  0.32178944889E+02  0.53454254929E+02  0.62417618662E+02  0.10000000000E+01 0.  0.
    9000005    1    3    3    0    0  0.14550791397E+01 -0.32178944889E+02  0.75091735131E+03  0.75160858846E+03  0.10000000000E+01 0.  0.
<mgrwt>
<rscale>  0 0.12499994E+03</rscale>
<asrwt>0</asrwt>
<pdfrwt beam="1">  1        4 0.12449205E+00 0.12499994E+03</pdfrwt>
<pdfrwt beam="2">  1       -4 0.74266211E-03 0.12499994E+03</pdfrwt>
<totfact> 0.37646253E+03</totfact>
</mgrwt>
</event>
<event>
 5    1  0.3257199E-002  0.1249995E+03  0.7818608E-02  0.1235070E+00
          4   -1    0    0  501    0  0.00000000000E+00  0.00000000000E+00  0.33080641597E+03  0.33080885379E+03  0.12700000000E+01 0.  1.
         -4   -1    0    0    0  501 -0.00000000000E+00 -0.00000000000E+00 -0.11771531848E+02  0.11839842146E+02  0.12700000000E+01 0.  1.
         25    2    1    2    0    0  0.00000000000E+00  0.00000000000E+00  0.31903488412E+03  0.34264869593E+03  0.12499948616E+03 0.  0.
    9000005    1    3    3    0    0 -0.40803193923E+02  0.46826034322E+02  0.14059724564E+03  0.15370804665E+03  0.10000000000E+01 0.  0.
    9000005    1    3    3    0    0  0.40803193923E+02 -0.46826034322E+02  0.17843763848E+03  0.18894064928E+03  0.10000000000E+01 0.  0.
<mgrwt>
<rscale>  0 0.12499949E+03</rscale>
<asrwt>0</asrwt>
<pdfrwt beam="1">  1        4 0.50898743E-01 0.12499949E+03</pdfrwt>
<pdfrwt beam="2">  1       -4 0.18164469E-02 0.12499949E+03</pdfrwt>
<totfact> 0.70541729E+03</totfact>
</mgrwt>
</event>
<event>
 5    1  0.3257199E-002  0.1250019E+03  0.7818608E-02  0.1235066E+00
          4   -1    0    0  501    0  0.00000000000E+00  0.00000000000E+00  0.32733267801E+02  0.32757895551E+02  0.12700000000E+01 0.  1.
         -4   -1    0    0    0  501 -0.00000000000E+00 -0.00000000000E+00 -0.11926651077E+03  0.11927327233E+03  0.12700000000E+01 0.  1.
         25    2    1    2    0    0  0.00000000000E+00  0.00000000000E+00 -0.86533242972E+02  0.15203116788E+03  0.12500189546E+03 0.  0.
    9000005    1    3    3    0    0  0.54527889202E+02  0.21523040324E+02 -0.16932020563E+02  0.61026431044E+02  0.10000000000E+01 0.  0.
    9000005    1    3    3    0    0 -0.54527889202E+02 -0.21523040324E+02 -0.69601222409E+02  0.91004736835E+02  0.10000000000E+01 0.  0.
<mgrwt>
<rscale>  0 0.12500190E+03</rscale>
<asrwt>0</asrwt>
<pdfrwt beam="1">  1        4 0.50383020E-02 0.12500190E+03</pdfrwt>
<pdfrwt beam="2">  1       -4 0.18351108E-01 0.12500190E+03</pdfrwt>
<totfact> 0.98896128E+03</totfact>
</mgrwt>
</event>
<event>
 5    1  0.3257199E-002  0.1249956E+03  0.7818608E-02  0.1235076E+00
         -4   -1    0    0    0  501 -0.00000000000E+00  0.00000000000E+00  0.18753680790E+02  0.18796633826E+02  0.12700000000E+01 0. -1.
          4   -1    0    0  501    0  0.00000000000E+00 -0.00000000000E+00 -0.20799450370E+03  0.20799838093E+03  0.12700000000E+01 0. -1.
         25    2    1    2    0    0  0.00000000000E+00  0.00000000000E+00 -0.18924082291E+03  0.22679501475E+03  0.12499555857E+03 0.  0.
    9000005    1    3    3    0    0 -0.31096274961E+02 -0.45077071420E+02 -0.40004973615E+02  0.67825648528E+02  0.10000000000E+01 0.  0.
    9000005    1    3    3    0    0  0.31096274961E+02  0.45077071420E+02 -0.14923584929E+03  0.15896936622E+03  0.10000000000E+01 0.  0.
<mgrwt>
<rscale>  0 0.12499556E+03</rscale>
<asrwt>0</asrwt>
<pdfrwt beam="2">  1        4 0.32002755E-01 0.12499556E+03</pdfrwt>
<pdfrwt beam="1">  1       -4 0.28887841E-02 0.12499556E+03</pdfrwt>
<totfact> 0.85812674E+03</totfact>
</mgrwt>
</event>
<event>
 5    1  0.3257199E-002  0.1249996E+03  0.7818608E-02  0.1235070E+00
          4   -1    0    0  501    0  0.00000000000E+00  0.00000000000E+00  0.26208633728E+02  0.26239386080E+02  0.12700000000E+01 0.  1.
         -4   -1    0    0    0  501 -0.00000000000E+00 -0.00000000000E+00 -0.14892247293E+03  0.14892788806E+03  0.12700000000E+01 0.  1.
         25    2    1    2    0    0  0.00000000000E+00  0.00000000000E+00 -0.12271383920E+03  0.17516727414E+03  0.12499955040E+03 0.  0.
    9000005    1    3    3    0    0 -0.23165418569E+02 -0.33368267539E+02  0.51905674642E+01  0.40963641032E+02  0.10000000000E+01 0.  0.
    9000005    1    3    3    0    0  0.23165418569E+02  0.33368267539E+02 -0.12790440666E+03  0.13420363311E+03  0.10000000000E+01 0.  0.
<mgrwt>
<rscale>  0 0.12499955E+03</rscale>
<asrwt>0</asrwt>
<pdfrwt beam="1">  1        4 0.40348797E-02 0.12499955E+03</pdfrwt>
<pdfrwt beam="2">  1       -4 0.22913931E-01 0.12499955E+03</pdfrwt>
<totfact> 0.94495167E+03</totfact>
</mgrwt>
</event>
<event>
 5    1  0.3257199E-002  0.1249986E+03  0.7818608E-02  0.1235071E+00
          4   -1    0    0  501    0  0.00000000000E+00  0.00000000000E+00  0.19200501650E+03  0.19200921660E+03  0.12700000000E+01 0.  1.
         -4   -1    0    0    0  501 -0.00000000000E+00 -0.00000000000E+00 -0.20319817049E+02  0.20359466224E+02  0.12700000000E+01 0.  1.
         25    2    1    2    0    0  0.00000000000E+00  0.00000000000E+00  0.17168519945E+03  0.21236868282E+03  0.12499859893E+03 0.  0.
    9000005    1    3    3    0    0 -0.51855659842E+02  0.34830000277E+02  0.88797074630E+02  0.10857282736E+03  0.10000000000E+01 0.  0.
    9000005    1    3    3    0    0  0.51855659842E+02 -0.34830000277E+02  0.82888124817E+02  0.10379585547E+03  0.10000000000E+01 0.  0.
<mgrwt>
<rscale>  0 0.12499860E+03</rscale>
<asrwt>0</asrwt>
<pdfrwt beam="1">  1        4 0.29542605E-01 0.12499860E+03</pdfrwt>
<pdfrwt beam="2">  1       -4 0.31294988E-02 0.12499860E+03</pdfrwt>
<totfact> 0.88093258E+03</totfact>
</mgrwt>
</event>
<event>
 5    1  0.3257199E-002  0.1249954E+03  0.7818608E-02  0.1235077E+00
         -4   -1    0    0    0  501 -0.00000000000E+00  0.00000000000E+00  0.14397169754E+03  0.14397729887E+03  0.12700000000E+01 0.  1.
          4   -1    0    0  501    0  0.00000000000E+00 -0.00000000000E+00 -0.27109058177E+02  0.27138790231E+02  0.12700000000E+01 0.  1.
         25    2    1    2    0    0  0.00000000000E+00  0.00000000000E+00  0.11686263936E+03  0.17111608911E+03  0.12499535781E+03 0.  0.
    9000005    1    3    3    0    0 -0.27110859942E+02  0.31825137325E+02 -0.51506962012E+01  0.42135113195E+02  0.10000000000E+01 0.  0.
    9000005    1    3    3    0    0  0.27110859942E+02 -0.31825137325E+02  0.12201333556E+03  0.12898097591E+03  0.10000000000E+01 0.  0.
<mgrwt>
<rscale>  0 0.12499536E+03</rscale>
<asrwt>0</asrwt>
<pdfrwt beam="2">  1        4 0.41733424E-02 0.12499536E+03</pdfrwt>
<pdfrwt beam="1">  1       -4 0.22152210E-01 0.12499536E+03</pdfrwt>
<totfact> 0.95250944E+03</totfact>
</mgrwt>
</event>
<event>
 5    1  0.3257199E-002  0.1250164E+03  0.7818608E-02  0.1235044E+00
         -4   -1    0    0    0  501 -0.00000000000E+00  0.00000000000E+00  0.21877878705E+03  0.21878247316E+03  0.12700000000E+01 0.  1.
          4   -1    0    0  501    0  0.00000000000E+00 -0.00000000000E+00 -0.17833070877E+02  0.17878235844E+02  0.12700000000E+01 0.  1.
         25    2    1    2    0    0  0.00000000000E+00  0.00000000000E+00  0.20094571617E+03  0.23666070901E+03  0.12501644028E+03 0.  0.
    9000005    1    3    3    0    0  0.16864555977E+02  0.19491377459E+02  0.20825882579E+03  0.20985010260E+03  0.10000000000E+01 0.  0.
    9000005    1    3    3    0    0 -0.16864555977E+02 -0.19491377459E+02 -0.73131096146E+01  0.26810606405E+02  0.10000000000E+01 0.  0.
<mgrwt>
<rscale>  0 0.12501644E+03</rscale>
<asrwt>0</asrwt>
<pdfrwt beam="2">  1        4 0.27473072E-02 0.12501644E+03</pdfrwt>
<pdfrwt beam="1">  1       -4 0.33662032E-01 0.12501644E+03</pdfrwt>
<totfact> 0.84266325E+03</totfact>
</mgrwt>
</event>
<event>
 5    1  0.3257199E-002  0.1249982E+03  0.7818608E-02  0.1235072E+00
          4   -1    0    0  501    0  0.00000000000E+00  0.00000000000E+00  0.82712192529E+02  0.82721942029E+02  0.12700000000E+01 0.  1.
         -4   -1    0    0    0  501 -0.00000000000E+00 -0.00000000000E+00 -0.47204545685E+02  0.47221626754E+02  0.12700000000E+01 0.  1.
         25    2    1    2    0    0  0.00000000000E+00  0.00000000000E+00  0.35507646844E+02  0.12994356878E+03  0.12499815232E+03 0.  0.
    9000005    1    3    3    0    0 -0.38911798796E+02 -0.15176187365E+02  0.66076102002E+02  0.78176057743E+02  0.10000000000E+01 0.  0.
    9000005    1    3    3    0    0  0.38911798796E+02  0.15176187365E+02 -0.30568455158E+02  0.51767511040E+02  0.10000000000E+01 0.  0.
<mgrwt>
<rscale>  0 0.12499815E+03</rscale>
<asrwt>0</asrwt>
<pdfrwt beam="1">  1        4 0.12727016E-01 0.12499815E+03</pdfrwt>
<pdfrwt beam="2">  1       -4 0.72643018E-02 0.12499815E+03</pdfrwt>
<totfact> 0.10346146E+04</totfact>
</mgrwt>
</event>
<event>
 5    1  0.3257199E-002  0.1249999E+03  0.7818608E-02  0.1235069E+00
         -4   -1    0    0    0  501 -0.00000000000E+00  0.00000000000E+00  0.23181122305E+02  0.23215885323E+02  0.12700000000E+01 0. -1.
          4   -1    0    0  501    0  0.00000000000E+00 -0.00000000000E+00 -0.16834619431E+03  0.16835098467E+03  0.12700000000E+01 0. -1.
         25    2    1    2    0    0  0.00000000000E+00  0.00000000000E+00 -0.14516507200E+03  0.19156686999E+03  0.12499987019E+03 0.  0.
    9000005    1    3    3    0    0  0.32674922807E+02 -0.27950041368E+02 -0.14207908076E+03  0.14844635590E+03  0.10000000000E+01 0.  0.
    9000005    1    3    3    0    0 -0.32674922807E+02  0.27950041368E+02 -0.30859912468E+01  0.43120514084E+02  0.10000000000E+01 0.  0.
<mgrwt>
<rscale>  0 0.12499987E+03</rscale>
<asrwt>0</asrwt>
<pdfrwt beam="2">  1        4 0.25902456E-01 0.12499987E+03</pdfrwt>
<pdfrwt beam="1">  1       -4 0.35693692E-02 0.12499987E+03</pdfrwt>
<totfact> 0.91575664E+03</totfact>
</mgrwt>
</event>
<event>
 5    1  0.3257199E-002  0.1249980E+03  0.7818608E-02  0.1235072E+00
          4   -1    0    0  501    0  0.00000000000E+00  0.00000000000E+00  0.21624199438E+03  0.21624572374E+03  0.12700000000E+01 0. -1.
         -4   -1    0    0    0  501 -0.00000000000E+00 -0.00000000000E+00 -0.18037450840E+02  0.18082105320E+02  0.12700000000E+01 0. -1.
         25    2    1    2    0    0  0.00000000000E+00  0.00000000000E+00  0.19820454354E+03  0.23432782906E+03  0.12499796154E+03 0.  0.
    9000005    1    3    3    0    0  0.50153268039E+02 -0.10267916517E+02  0.16628556885E+03  0.17399043311E+03  0.10000000000E+01 0.  0.
    9000005    1    3    3    0    0 -0.50153268039E+02  0.10267916517E+02  0.31918974691E+02  0.60337395949E+02  0.10000000000E+01 0.  0.
<mgrwt>
<rscale>  0 0.12499796E+03</rscale>
<asrwt>0</asrwt>
<pdfrwt beam="1">  1        4 0.33271718E-01 0.12499796E+03</pdfrwt>
<pdfrwt beam="2">  1       -4 0.27787145E-02 0.12499796E+03</pdfrwt>
<totfact> 0.84653305E+03</totfact>
</mgrwt>
</event>
<event>
 5    1  0.3257199E-002  0.1250002E+03  0.7818608E-02  0.1235069E+00
          4   -1    0    0  501    0  0.00000000000E+00  0.00000000000E+00  0.25030306974E+02  0.25062505206E+02  0.12700000000E+01 0. -1.
         -4   -1    0    0    0  501 -0.00000000000E+00 -0.00000000000E+00 -0.15592631896E+03  0.15593149087E+03  0.12700000000E+01 0. -1.
         25    2    1    2    0    0  0.00000000000E+00  0.00000000000E+00 -0.13089601199E+03  0.18099399608E+03  0.12500024264E+03 0.  0.
    9000005    1    3    3    0    0  0.35240590931E-02 -0.11811896423E+02  0.23406350064E+02  0.26236961197E+02  0.10000000000E+01 0.  0.
    9000005    1    3    3    0    0 -0.35240590931E-02  0.11811896423E+02 -0.15430236205E+03  0.15475703488E+03  0.10000000000E+01 0.  0.
<mgrwt>
<rscale>  0 0.12500024E+03</rscale>
<asrwt>0</asrwt>
<pdfrwt beam="1">  1        4 0.38536912E-02 0.12500024E+03</pdfrwt>
<pdfrwt beam="2">  1       -4 0.23991539E-01 0.12500024E+03</pdfrwt>
<totfact> 0.93437878E+03</totfact>
</mgrwt>
</event>
<event>
 5    1  0.3257199E-002  0.1249925E+03  0.7818608E-02  0.1235081E+00
         -4   -1    0    0    0  501 -0.00000000000E+00  0.00000000000E+00  0.12895777294E+02  0.12958162370E+02  0.12700000000E+01 0.  1.
          4   -1    0    0  501    0  0.00000000000E+00 -0.00000000000E+00 -0.30207838523E+03  0.30208105489E+03  0.12700000000E+01 0.  1.
         25    2    1    2    0    0  0.00000000000E+00  0.00000000000E+00 -0.28918260793E+03  0.31503921726E+03  0.12499251049E+03 0.  0.
    9000005    1    3    3    0    0  0.44580554613E+02  0.41041127307E+02 -0.18306303756E+03  0.19283380332E+03  0.10000000000E+01 0.  0.
    9000005    1    3    3    0    0 -0.44580554613E+02 -0.41041127307E+02 -0.10611957037E+03  0.12220541394E+03  0.10000000000E+01 0.  0.
<mgrwt>
<rscale>  0 0.12499251E+03</rscale>
<asrwt>0</asrwt>
<pdfrwt beam="2">  1        4 0.46478597E-01 0.12499251E+03</pdfrwt>
<pdfrwt beam="1">  1       -4 0.19889702E-02 0.12499251E+03</pdfrwt>
<totfact> 0.73762306E+03</totfact>
</mgrwt>
</event>
<event>
 5    1  0.3257199E-002  0.1250003E+03  0.7818608E-02  0.1235069E+00
          4   -1    0    0  501    0  0.00000000000E+00  0.00000000000E+00  0.10992594161E+03  0.10993327767E+03  0.12700000000E+01 0. -1.
         -4   -1    0    0    0  501 -0.00000000000E+00 -0.00000000000E+00 -0.35515581539E+02  0.35538281220E+02  0.12700000000E+01 0. -1.
         25    2    1    2    0    0  0.00000000000E+00  0.00000000000E+00  0.74410360071E+02  0.14547155889E+03  0.12500029104E+03 0.  0.
    9000005    1    3    3    0    0  0.78353161106E+01  0.20012281165E+02 -0.31085248171E+02  0.37804447223E+02  0.10000000000E+01 0.  0.
    9000005    1    3    3    0    0 -0.78353161106E+01 -0.20012281165E+02  0.10549560824E+03  0.10766711166E+03  0.10000000000E+01 0.  0.
<mgrwt>
<rscale>  0 0.12500029E+03</rscale>
<asrwt>0</asrwt>
<pdfrwt beam="1">  1        4 0.16913994E-01 0.12500029E+03</pdfrwt>
<pdfrwt beam="2">  1       -4 0.54662461E-02 0.12500029E+03</pdfrwt>
<totfact> 0.10021351E+04</totfact>
</mgrwt>
</event>
<event>
 5    1  0.3257199E-002  0.1250014E+03  0.7818608E-02  0.1235067E+00
         -4   -1    0    0    0  501 -0.00000000000E+00  0.00000000000E+00  0.40380357496E+02  0.40400323903E+02  0.12700000000E+01 0.  1.
          4   -1    0    0  501    0  0.00000000000E+00 -0.00000000000E+00 -0.96690442624E+02  0.96698782799E+02  0.12700000000E+01 0.  1.
         25    2    1    2    0    0  0.00000000000E+00  0.00000000000E+00 -0.56310085128E+02  0.13709910670E+03  0.12500135748E+03 0.  0.
    9000005    1    3    3    0    0 -0.63355585211E+01  0.17857748196E+02 -0.93469212144E+02  0.95375741629E+02  0.10000000000E+01 0.  0.
    9000005    1    3    3    0    0  0.63355585211E+01 -0.17857748196E+02  0.37159127016E+02  0.41723365073E+02  0.10000000000E+01 0.  0.
<mgrwt>
<rscale>  0 0.12500136E+03</rscale>
<asrwt>0</asrwt>
<pdfrwt beam="2">  1        4 0.14877630E-01 0.12500136E+03</pdfrwt>
<pdfrwt beam="1">  1       -4 0.62145402E-02 0.12500136E+03</pdfrwt>
<totfact> 0.10193702E+04</totfact>
</mgrwt>
</event>
<event>
 5    1  0.3257199E-002  0.1249984E+03  0.7818608E-02  0.1235072E+00
         -4   -1    0    0    0  501 -0.00000000000E+00  0.00000000000E+00  0.10818709490E+02  0.10892996605E+02  0.12700000000E+01 0. -1.
          4   -1    0    0  501    0  0.00000000000E+00 -0.00000000000E+00 -0.35974428571E+03  0.35974652743E+03  0.12700000000E+01 0. -1.
         25    2    1    2    0    0  0.00000000000E+00  0.00000000000E+00 -0.34892557622E+03  0.37063952404E+03  0.12499839615E+03 0.  0.
    9000005    1    3    3    0    0 -0.33815184648E+02  0.51914398388E+02 -0.19865711798E+03  0.20809666503E+03  0.10000000000E+01 0.  0.
    9000005    1    3    3    0    0  0.33815184648E+02 -0.51914398388E+02 -0.15026845824E+03  0.16254285901E+03  0.10000000000E+01 0.  0.
<mgrwt>
<rscale>  0 0.12499840E+03</rscale>
<asrwt>0</asrwt>
<pdfrwt beam="2">  1        4 0.55351152E-01 0.12499840E+03</pdfrwt>
<pdfrwt beam="1">  1       -4 0.16703040E-02 0.12499840E+03</pdfrwt>
<totfact> 0.67514482E+03</totfact>
</mgrwt>
</event>
<event>
 5    1  0.3257199E-002  0.1249993E+03  0.7818608E-02  0.1235070E+00
         -4   -1    0    0    0  501 -0.00000000000E+00  0.00000000000E+00  0.10872903779E+02  0.10946823128E+02  0.12700000000E+01 0. -1.
          4   -1    0    0  501    0  0.00000000000E+00 -0.00000000000E+00 -0.35796867309E+03  0.35797092593E+03  0.12700000000E+01 0. -1.
         25    2    1    2    0    0  0.00000000000E+00  0.00000000000E+00 -0.34709576931E+03  0.36891774906E+03  0.12499932999E+03 0.  0.
    9000005    1    3    3    0    0  0.47693931198E+02  0.34340533993E+02 -0.11085498830E+03  0.12547434709E+03  0.10000000000E+01 0.  0.
    9000005    1    3    3    0    0 -0.47693931198E+02 -0.34340533993E+02 -0.23624078101E+03  0.24344340197E+03  0.10000000000E+01 0.  0.
<mgrwt>
<rscale>  0 0.12499933E+03</rscale>
<asrwt>0</asrwt>
<pdfrwt beam="2">  1        4 0.55077954E-01 0.12499933E+03</pdfrwt>
<pdfrwt beam="1">  1       -4 0.16786141E-02 0.12499933E+03</pdfrwt>
<totfact> 0.67693319E+03</totfact>
</mgrwt>
</event>
<event>
 5    1  0.3257199E-002  0.1250101E+03  0.7818608E-02  0.1235053E+00
         -4   -1    0    0    0  501 -0.00000000000E+00  0.00000000000E+00  0.25378806909E+02  0.25410563554E+02  0.12700000000E+01 0.  1.
          4   -1    0    0  501    0  0.00000000000E+00 -0.00000000000E+00 -0.15381206726E+03  0.15381731026E+03  0.12700000000E+01 0.  1.
         25    2    1    2    0    0  0.00000000000E+00  0.00000000000E+00 -0.12843326035E+03  0.17922787381E+03  0.12501011314E+03 0.  0.
    9000005    1    3    3    0    0 -0.31267635261E+02  0.39007182253E+02 -0.11798841868E+03  0.12814637031E+03  0.10000000000E+01 0.  0.
    9000005    1    3    3    0    0  0.31267635261E+02 -0.39007182253E+02 -0.10444841674E+02  0.51081503500E+02  0.10000000000E+01 0.  0.
<mgrwt>
<rscale>  0 0.12501011E+03</rscale>
<asrwt>0</asrwt>
<pdfrwt beam="2">  1        4 0.23666241E-01 0.12501011E+03</pdfrwt>
<pdfrwt beam="1">  1       -4 0.39072781E-02 0.12501011E+03</pdfrwt>
<totfact> 0.93734915E+03</totfact>
</mgrwt>
</event>
<event>
 5    1  0.3257199E-002  0.1250014E+03  0.7818608E-02  0.1235067E+00
         -4   -1    0    0    0  501 -0.00000000000E+00  0.00000000000E+00  0.23401381914E+02  0.23435818216E+02  0.12700000000E+01 0. -1.
          4   -1    0    0  501    0  0.00000000000E+00 -0.00000000000E+00 -0.16676803533E+03  0.16677287102E+03  0.12700000000E+01 0. -1.
         25    2    1    2    0    0  0.00000000000E+00  0.00000000000E+00 -0.14336665342E+03  0.19020868924E+03  0.12500139259E+03 0.  0.
    9000005    1    3    3    0    0  0.33992592603E+02 -0.19537964025E+01 -0.15142174480E+03  0.15520585836E+03  0.10000000000E+01 0.  0.
    9000005    1    3    3    0    0 -0.33992592603E+02  0.19537964025E+01  0.80550913780E+01  0.35002830877E+02  0.10000000000E+01 0.  0.
<mgrwt>
<rscale>  0 0.12500139E+03</rscale>
<asrwt>0</asrwt>
<pdfrwt beam="2">  1        4 0.25659641E-01 0.12500139E+03</pdfrwt>
<pdfrwt beam="1">  1       -4 0.36032336E-02 0.12500139E+03</pdfrwt>
<totfact> 0.91808153E+03</totfact>
</mgrwt>
</event>
<event>
 5    1  0.3257199E-002  0.1249926E+03  0.7818608E-02  0.1235081E+00
         -4   -1    0    0    0  501 -0.00000000000E+00  0.00000000000E+00  0.70897878375E+02  0.70909252274E+02  0.12700000000E+01 0.  1.
          4   -1    0    0  501    0  0.00000000000E+00 -0.00000000000E+00 -0.55067193481E+02  0.55081836369E+02  0.12700000000E+01 0.  1.
         25    2    1    2    0    0  0.00000000000E+00  0.00000000000E+00  0.15830684895E+02  0.12599108864E+03  0.12499257511E+03 0.  0.
    9000005    1    3    3    0    0 -0.26669353078E+02  0.18376436631E+02  0.61782295141E+02  0.69763886143E+02  0.10000000000E+01 0.  0.
    9000005    1    3    3    0    0  0.26669353078E+02 -0.18376436631E+02 -0.45951610247E+02  0.56227202501E+02  0.10000000000E+01 0.  0.
<mgrwt>
<rscale>  0 0.12499258E+03</rscale>
<asrwt>0</asrwt>
<pdfrwt beam="2">  1        4 0.84738772E-02 0.12499258E+03</pdfrwt>
<pdfrwt beam="1">  1       -4 0.10909367E-01 0.12499258E+03</pdfrwt>
<totfact> 0.10432900E+04</totfact>
</mgrwt>
</event>
<event>
 5    1  0.3257199E-002  0.1249836E+03  0.7818608E-02  0.1235095E+00
          4   -1    0    0  501    0  0.00000000000E+00  0.00000000000E+00  0.13823023745E+02  0.13881242216E+02  0.12700000000E+01 0.  1.
         -4   -1    0    0    0  501 -0.00000000000E+00 -0.00000000000E+00 -0.28186282416E+03  0.28186568529E+03  0.12700000000E+01 0.  1.
         25    2    1    2    0    0  0.00000000000E+00  0.00000000000E+00 -0.26803980042E+03  0.29574692751E+03  0.12498364102E+03 0.  0.
    9000005    1    3    3    0    0  0.58724914939E+02  0.73547626472E+01 -0.18143540404E+03  0.19084683389E+03  0.10000000000E+01 0.  0.
    9000005    1    3    3    0    0 -0.58724914939E+02 -0.73547626472E+01 -0.86604396378E+02  0.10490009361E+03  0.10000000000E+01 0.  0.
<mgrwt>
<rscale>  0 0.12498364E+03</rscale>
<asrwt>0</asrwt>
<pdfrwt beam="1">  1        4 0.21313177E-02 0.12498364E+03</pdfrwt>
<pdfrwt beam="2">  1       -4 0.43368206E-01 0.12498364E+03</pdfrwt>
<totfact> 0.76163117E+03</totfact>
</mgrwt>
</event>
<event>
 5    1  0.3257199E-002  0.1249996E+03  0.7818608E-02  0.1235070E+00
          4   -1    0    0  501    0  0.00000000000E+00  0.00000000000E+00  0.96841693968E+03  0.96841777243E+03  0.12700000000E+01 0.  1.
         -4   -1    0    0    0  501 -0.00000000000E+00 -0.00000000000E+00 -0.39327988622E+01  0.41327723008E+01  0.12700000000E+01 0.  1.
         25    2    1    2    0    0  0.00000000000E+00  0.00000000000E+00  0.96448414082E+03  0.97255054473E+03  0.12499961667E+03 0.  0.
    9000005    1    3    3    0    0  0.49233996687E+02  0.32539905716E+02  0.32233692201E+03  0.32769638873E+03  0.10000000000E+01 0.  0.
    9000005    1    3    3    0    0 -0.49233996687E+02 -0.32539905716E+02  0.64214721880E+03  0.64485415600E+03  0.10000000000E+01 0.  0.
<mgrwt>
<rscale>  0 0.12499962E+03</rscale>
<asrwt>0</asrwt>
<pdfrwt beam="1">  1        4 0.14900268E+00 0.12499962E+03</pdfrwt>
<pdfrwt beam="2">  1       -4 0.62049255E-03 0.12499962E+03</pdfrwt>
<totfact> 0.31528886E+03</totfact>
</mgrwt>
</event>
<event>
 5    1  0.3257199E-002  0.1250079E+03  0.7818608E-02  0.1235057E+00
         -4   -1    0    0    0  501 -0.00000000000E+00  0.00000000000E+00  0.30160579029E+03  0.30160846414E+03  0.12700000000E+01 0. -1.
          4   -1    0    0  501    0  0.00000000000E+00 -0.00000000000E+00 -0.12919275686E+02  0.12981547837E+02  0.12700000000E+01 0. -1.
         25    2    1    2    0    0  0.00000000000E+00  0.00000000000E+00  0.28868651461E+03  0.31459001197E+03  0.12500788742E+03 0.  0.
    9000005    1    3    3    0    0  0.16507598814E+02  0.51175418840E+01  0.29548477241E+03  0.29599145389E+03  0.10000000000E+01 0.  0.
    9000005    1    3    3    0    0 -0.16507598814E+02 -0.51175418840E+01 -0.67982577999E+01  0.18598558080E+02  0.10000000000E+01 0.  0.
<mgrwt>
<rscale>  0 0.12500789E+03</rscale>
<asrwt>0</asrwt>
<pdfrwt beam="2">  1        4 0.19925768E-02 0.12500789E+03</pdfrwt>
<pdfrwt beam="1">  1       -4 0.46405884E-01 0.12500789E+03</pdfrwt>
<totfact> 0.73791319E+03</totfact>
</mgrwt>
</event>
<event>
 5    1  0.3257199E-002  0.1249970E+03  0.7818608E-02  0.1235074E+00
         -4   -1    0    0    0  501 -0.00000000000E+00  0.00000000000E+00  0.53149213028E+01  0.54645483304E+01  0.12700000000E+01 0. -1.
          4   -1    0    0  501    0  0.00000000000E+00 -0.00000000000E+00 -0.72457289297E+03  0.72457400597E+03  0.12700000000E+01 0. -1.
         25    2    1    2    0    0  0.00000000000E+00  0.00000000000E+00 -0.71925797167E+03  0.73003855430E+03  0.12499704380E+03 0.  0.
    9000005    1    3    3    0    0  0.52877301009E+02  0.23003579653E+01 -0.55366586952E+03  0.55619079072E+03  0.10000000000E+01 0.  0.
    9000005    1    3    3    0    0 -0.52877301009E+02 -0.23003579653E+01 -0.16559210215E+03  0.17384776358E+03  0.10000000000E+01 0.  0.
<mgrwt>
<rscale>  0 0.12499704E+03</rscale>
<asrwt>0</asrwt>
<pdfrwt beam="2">  1        4 0.11148427E+00 0.12499704E+03</pdfrwt>
<pdfrwt beam="1">  1       -4 0.82927616E-03 0.12499704E+03</pdfrwt>
<totfact> 0.41550282E+03</totfact>
</mgrwt>
</event>
<event>
 5    1  0.3257199E-002  0.1249982E+03  0.7818608E-02  0.1235072E+00
          4   -1    0    0  501    0  0.00000000000E+00  0.00000000000E+00  0.23508865477E+03  0.23509208515E+03  0.12700000000E+01 0. -1.
         -4   -1    0    0    0  501 -0.00000000000E+00 -0.00000000000E+00 -0.16587755650E+02  0.16636301798E+02  0.12700000000E+01 0. -1.
         25    2    1    2    0    0  0.00000000000E+00  0.00000000000E+00  0.21850089912E+03  0.25172838695E+03  0.12499815151E+03 0.  0.
    9000005    1    3    3    0    0 -0.19561162487E+02  0.58369152324E+02  0.87603834708E+02  0.10707487509E+03  0.10000000000E+01 0.  0.
    9000005    1    3    3    0    0  0.19561162487E+02 -0.58369152324E+02  0.13089706441E+03  0.14465351186E+03  0.10000000000E+01 0.  0.
<mgrwt>
<rscale>  0 0.12499815E+03</rscale>
<asrwt>0</asrwt>
<pdfrwt beam="1">  1        4 0.36171483E-01 0.12499815E+03</pdfrwt>
<pdfrwt beam="2">  1       -4 0.25559607E-02 0.12499815E+03</pdfrwt>
<totfact> 0.82084442E+03</totfact>
</mgrwt>
</event>
<event>
 5    1  0.3257199E-002  0.1250026E+03  0.7818608E-02  0.1235065E+00
         -4   -1    0    0    0  501 -0.00000000000E+00  0.00000000000E+00  0.22310290749E+02  0.22346408510E+02  0.12700000000E+01 0.  1.
          4   -1    0    0  501    0  0.00000000000E+00 -0.00000000000E+00 -0.17491467860E+03  0.17491928907E+03  0.12700000000E+01 0.  1.
         25    2    1    2    0    0  0.00000000000E+00  0.00000000000E+00 -0.15260438785E+03  0.19726569758E+03  0.12500262498E+03 0.  0.
    9000005    1    3    3    0    0  0.33250763633E+02  0.23721920624E+02 -0.15094231737E+03  0.15637431367E+03  0.10000000000E+01 0.  0.
    9000005    1    3    3    0    0 -0.33250763633E+02 -0.23721920624E+02 -0.16620704769E+01  0.40891383916E+02  0.10000000000E+01 0.  0.
<mgrwt>
<rscale>  0 0.12500262E+03</rscale>
<asrwt>0</asrwt>
<pdfrwt beam="2">  1        4 0.26913083E-01 0.12500262E+03</pdfrwt>
<pdfrwt beam="1">  1       -4 0.34354855E-02 0.12500262E+03</pdfrwt>
<totfact> 0.90592927E+03</totfact>
</mgrwt>
</event>
<event>
 5    1  0.3257199E-002  0.1250007E+03  0.7818608E-02  0.1235068E+00
         -4   -1    0    0    0  501 -0.00000000000E+00  0.00000000000E+00  0.38664429041E+02  0.38685281091E+02  0.12700000000E+01 0. -1.
          4   -1    0    0  501    0  0.00000000000E+00 -0.00000000000E+00 -0.10097863795E+03  0.10098662397E+03  0.12700000000E+01 0. -1.
         25    2    1    2    0    0  0.00000000000E+00  0.00000000000E+00 -0.62314208906E+02  0.13967190507E+03  0.12500072173E+03 0.  0.
    9000005    1    3    3    0    0 -0.44628472697E+02 -0.69982855693E+01 -0.79406461933E+02  0.91362261207E+02  0.10000000000E+01 0.  0.
    9000005    1    3    3    0    0  0.44628472697E+02  0.69982855693E+01  0.17092253027E+02  0.48309643858E+02  0.10000000000E+01 0.  0.
<mgrwt>
<rscale>  0 0.12500072E+03</rscale>
<asrwt>0</asrwt>
<pdfrwt beam="2">  1        4 0.15537393E-01 0.12500072E+03</pdfrwt>
<pdfrwt beam="1">  1       -4 0.59505920E-02 0.12500072E+03</pdfrwt>
<totfact> 0.10140225E+04</totfact>
</mgrwt>
</event>
<event>
 5    1  0.3257199E-002  0.1250003E+03  0.7818608E-02  0.1235069E+00
          4   -1    0    0  501    0  0.00000000000E+00  0.00000000000E+00  0.75111421706E+02  0.75122157654E+02  0.12700000000E+01 0.  1.
         -4   -1    0    0    0  501 -0.00000000000E+00 -0.00000000000E+00 -0.51984091594E+02  0.51999602679E+02  0.12700000000E+01 0.  1.
         25    2    1    2    0    0  0.00000000000E+00  0.00000000000E+00  0.23127330112E+02  0.12712176033E+03  0.12500027421E+03 0.  0.
    9000005    1    3    3    0    0 -0.11628205463E+02 -0.32947949999E+02  0.64255022639E+02  0.73147047143E+02  0.10000000000E+01 0.  0.
    9000005    1    3    3    0    0  0.11628205463E+02  0.32947949999E+02 -0.41127692527E+02  0.53974713191E+02  0.10000000000E+01 0.  0.
<mgrwt>
<rscale>  0 0.12500027E+03</rscale>
<asrwt>0</asrwt>
<pdfrwt beam="1">  1        4 0.11557622E-01 0.12500027E+03</pdfrwt>
<pdfrwt beam="2">  1       -4 0.79995716E-02 0.12500027E+03</pdfrwt>
<totfact> 0.10406437E+04</totfact>
</mgrwt>
</event>
<event>
 5    1  0.3257199E-002  0.1250035E+03  0.7818608E-02  0.1235064E+00
          4   -1    0    0  501    0  0.00000000000E+00  0.00000000000E+00  0.26296259804E+02  0.26326909801E+02  0.12700000000E+01 0. -1.
         -4   -1    0    0    0  501 -0.00000000000E+00 -0.00000000000E+00 -0.14843610367E+03  0.14844153654E+03  0.12700000000E+01 0. -1.
         25    2    1    2    0    0  0.00000000000E+00  0.00000000000E+00 -0.12213984386E+03  0.17476844635E+03  0.12500347347E+03 0.  0.
    9000005    1    3    3    0    0 -0.63755709566E+01  0.61070154082E+02 -0.77329840408E+02  0.98747738415E+02  0.10000000000E+01 0.  0.
    9000005    1    3    3    0    0  0.63755709566E+01 -0.61070154082E+02 -0.44810003454E+02  0.76020707930E+02  0.10000000000E+01 0.  0.
<mgrwt>
<rscale>  0 0.12500347E+03</rscale>
<asrwt>0</asrwt>
<pdfrwt beam="1">  1        4 0.40483541E-02 0.12500347E+03</pdfrwt>
<pdfrwt beam="2">  1       -4 0.22839099E-01 0.12500347E+03</pdfrwt>
<totfact> 0.94559898E+03</totfact>
</mgrwt>
</event>
<event>
 5    1  0.3257199E-002  0.1250082E+03  0.7818608E-02  0.1235056E+00
          4   -1    0    0  501    0  0.00000000000E+00  0.00000000000E+00  0.37328222551E+02  0.37349820600E+02  0.12700000000E+01 0. -1.
         -4   -1    0    0    0  501 -0.00000000000E+00 -0.00000000000E+00 -0.10460401288E+03  0.10461172215E+03  0.12700000000E+01 0. -1.
         25    2    1    2    0    0  0.00000000000E+00  0.00000000000E+00 -0.67275790329E+02  0.14196154275E+03  0.12500819035E+03 0.  0.
    9000005    1    3    3    0    0  0.95836256241E+01 -0.35686641111E+02  0.23599723535E+02  0.43855777097E+02  0.10000000000E+01 0.  0.
    9000005    1    3    3    0    0 -0.95836256241E+01  0.35686641111E+02 -0.90875513864E+02  0.98105765651E+02  0.10000000000E+01 0.  0.
<mgrwt>
<rscale>  0 0.12500819E+03</rscale>
<asrwt>0</asrwt>
<pdfrwt beam="1">  1        4 0.57450579E-02 0.12500819E+03</pdfrwt>
<pdfrwt beam="2">  1       -4 0.16095179E-01 0.12500819E+03</pdfrwt>
<totfact> 0.10091231E+04</totfact>
</mgrwt>
</event>
<event>
 5    1  0.3257199E-002  0.1249870E+03  0.7818608E-02  0.1235090E+00
          4   -1    0    0  501    0  0.00000000000E+00  0.00000000000E+00  0.94695281662E+03  0.94695366825E+03  0.12700000000E+01 0. -1.
         -4   -1    0    0    0  501 -0.00000000000E+00 -0.00000000000E+00 -0.40255689205E+01  0.42211497408E+01  0.12700000000E+01 0. -1.
         25    2    1    2    0    0  0.00000000000E+00  0.00000000000E+00  0.94292724770E+03  0.95117481799E+03  0.12498695899E+03 0.  0.
    9000005    1    3    3    0    0  0.24344578983E+01  0.12737388478E+02  0.62905011768E+01  0.14447769916E+02  0.10000000000E+01 0.  0.
    9000005    1    3    3    0    0 -0.24344578983E+01 -0.12737388478E+02  0.93663674652E+03  0.93672704807E+03  0.10000000000E+01 0.  0.
<mgrwt>
<rscale>  0 0.12498696E+03</rscale>
<asrwt>0</asrwt>
<pdfrwt beam="1">  1        4 0.14570006E+00 0.12498696E+03</pdfrwt>
<pdfrwt beam="2">  1       -4 0.63442892E-03 0.12498696E+03</pdfrwt>
<totfact> 0.32283502E+03</totfact>
</mgrwt>
</event>
<event>
 5    1  0.3257199E-002  0.1250013E+03  0.7818608E-02  0.1235067E+00
          4   -1    0    0  501    0  0.00000000000E+00  0.00000000000E+00  0.96424352052E+02  0.96432715241E+02  0.12700000000E+01 0. -1.
         -4   -1    0    0    0  501 -0.00000000000E+00 -0.00000000000E+00 -0.40491799704E+02  0.40511711186E+02  0.12700000000E+01 0. -1.
         25    2    1    2    0    0  0.00000000000E+00  0.00000000000E+00  0.55932552349E+02  0.13694442643E+03  0.12500130206E+03 0.  0.
    9000005    1    3    3    0    0 -0.52716173901E+02  0.13299424457E+02  0.61723641934E+02  0.82259817987E+02  0.10000000000E+01 0.  0.
    9000005    1    3    3    0    0  0.52716173901E+02 -0.13299424457E+02 -0.57910895854E+01  0.54684608440E+02  0.10000000000E+01 0.  0.
<mgrwt>
<rscale>  0 0.12500130E+03</rscale>
<asrwt>0</asrwt>
<pdfrwt beam="1">  1        4 0.14836691E-01 0.12500130E+03</pdfrwt>
<pdfrwt beam="2">  1       -4 0.62316827E-02 0.12500130E+03</pdfrwt>
<totfact> 0.10196949E+04</totfact>
</mgrwt>
</event>
<event>
 5    1  0.3257199E-002  0.1249988E+03  0.7818608E-02  0.1235071E+00
          4   -1    0    0  501    0  0.00000000000E+00  0.00000000000E+00  0.11418672936E+02  0.11489081409E+02  0.12700000000E+01 0.  1.
         -4   -1    0    0    0  501 -0.00000000000E+00 -0.00000000000E+00 -0.34096340418E+03  0.34096576939E+03  0.12700000000E+01 0.  1.
         25    2    1    2    0    0  0.00000000000E+00  0.00000000000E+00 -0.32954473125E+03  0.35245485080E+03  0.12499876781E+03 0.  0.
    9000005    1    3    3    0    0 -0.15702324766E+02 -0.57540007161E+02 -0.11219049272E+03  0.12706345692E+03  0.10000000000E+01 0.  0.
    9000005    1    3    3    0    0  0.15702324766E+02  0.57540007161E+02 -0.21735423853E+03  0.22539139388E+03  0.10000000000E+01 0.  0.
<mgrwt>
<rscale>  0 0.12499877E+03</rscale>
<asrwt>0</asrwt>
<pdfrwt beam="1">  1        4 0.17623171E-02 0.12499877E+03</pdfrwt>
<pdfrwt beam="2">  1       -4 0.52461499E-01 0.12499877E+03</pdfrwt>
<totfact> 0.69457231E+03</totfact>
</mgrwt>
</event>
<event>
 5    1  0.3257199E-002  0.1249983E+03  0.7818608E-02  0.1235072E+00
          4   -1    0    0  501    0  0.00000000000E+00  0.00000000000E+00  0.39424486068E+02  0.39444936325E+02  0.12700000000E+01 0.  1.
         -4   -1    0    0    0  501 -0.00000000000E+00 -0.00000000000E+00 -0.99028914105E+02  0.99037057352E+02  0.12700000000E+01 0.  1.
         25    2    1    2    0    0  0.00000000000E+00  0.00000000000E+00 -0.59604428038E+02  0.13848199368E+03  0.12499829891E+03 0.  0.
    9000005    1    3    3    0    0  0.51718202931E+02  0.11908170179E+02  0.67502549611E+01  0.53508344896E+02  0.10000000000E+01 0.  0.
    9000005    1    3    3    0    0 -0.51718202931E+02 -0.11908170179E+02 -0.66354682999E+02  0.84973648782E+02  0.10000000000E+01 0.  0.
<mgrwt>
<rscale>  0 0.12499830E+03</rscale>
<asrwt>0</asrwt>
<pdfrwt beam="1">  1        4 0.60675051E-02 0.12499830E+03</pdfrwt>
<pdfrwt beam="2">  1       -4 0.15237417E-01 0.12499830E+03</pdfrwt>
<totfact> 0.10165534E+04</totfact>
</mgrwt>
</event>
<event>
 5    1  0.3257199E-002  0.1250010E+03  0.7818608E-02  0.1235068E+00
         -4   -1    0    0    0  501 -0.00000000000E+00  0.00000000000E+00  0.38140053091E+02  0.38161191671E+02  0.12700000000E+01 0.  1.
          4   -1    0    0  501    0  0.00000000000E+00 -0.00000000000E+00 -0.10236671811E+03  0.10237459586E+03  0.12700000000E+01 0.  1.
         25    2    1    2    0    0  0.00000000000E+00  0.00000000000E+00 -0.64226665023E+02  0.14053578753E+03  0.12500097230E+03 0.  0.
    9000005    1    3    3    0    0 -0.41860035570E+02  0.46303881905E+02 -0.28740741240E+02  0.68726576115E+02  0.10000000000E+01 0.  0.
    9000005    1    3    3    0    0  0.41860035570E+02 -0.46303881905E+02 -0.35485923784E+02  0.71809211416E+02  0.10000000000E+01 0.  0.
<mgrwt>
<rscale>  0 0.12500097E+03</rscale>
<asrwt>0</asrwt>
<pdfrwt beam="2">  1        4 0.15750958E-01 0.12500097E+03</pdfrwt>
<pdfrwt beam="1">  1       -4 0.58699326E-02 0.12500097E+03</pdfrwt>
<totfact> 0.10122272E+04</totfact>
</mgrwt>
</event>
<event>
 5    1  0.3257199E-002  0.1249999E+03  0.7818608E-02  0.1235069E+00
         -4   -1    0    0    0  501 -0.00000000000E+00  0.00000000000E+00  0.43735137082E+02  0.43753572603E+02  0.12700000000E+01 0.  1.
          4   -1    0    0  501    0  0.00000000000E+00 -0.00000000000E+00 -0.89274089777E+02  0.89283122736E+02  0.12700000000E+01 0.  1.
         25    2    1    2    0    0  0.00000000000E+00  0.00000000000E+00 -0.45538952695E+02  0.13303669534E+03  0.12499986438E+03 0.  0.
    9000005    1    3    3    0    0 -0.39458784775E+02  0.11279975662E+02 -0.72927101530E+02  0.83687488219E+02  0.10000000000E+01 0.  0.
    9000005    1    3    3    0    0  0.39458784775E+02 -0.11279975662E+02  0.27388148835E+02  0.49349207120E+02  0.10000000000E+01 0.  0.
<mgrwt>
<rscale>  0 0.12499986E+03</rscale>
<asrwt>0</asrwt>
<pdfrwt beam="2">  1        4 0.13736588E-01 0.12499986E+03</pdfrwt>
<pdfrwt beam="1">  1       -4 0.67305956E-02 0.12499986E+03</pdfrwt>
<totfact> 0.10279652E+04</totfact>
</mgrwt>
</event>
<event>
 5    1  0.3257199E-002  0.1249989E+03  0.7818608E-02  0.1235071E+00
         -4   -1    0    0    0  501 -0.00000000000E+00  0.00000000000E+00  0.18206058678E+04  0.18206063107E+04  0.12700000000E+01 0.  1.
          4   -1    0    0  501    0  0.00000000000E+00 -0.00000000000E+00 -0.19571208906E+01  0.23330714049E+01  0.12700000000E+01 0.  1.
         25    2    1    2    0    0  0.00000000000E+00  0.00000000000E+00  0.18186487469E+04  0.18229393821E+04  0.12499890560E+03 0.  0.
    9000005    1    3    3    0    0  0.85150542353E+01  0.61905389994E+02  0.90012232374E+03  0.90228930015E+03  0.10000000000E+01 0.  0.
    9000005    1    3    3    0    0 -0.85150542353E+01 -0.61905389994E+02  0.91852642313E+03  0.92065008197E+03  0.10000000000E+01 0.  0.
<mgrwt>
<rscale>  0 0.12499891E+03</rscale>
<asrwt>0</asrwt>
<pdfrwt beam="2">  1        4 0.33004913E-03 0.12499891E+03</pdfrwt>
<pdfrwt beam="1">  1       -4 0.28012194E+00 0.12499891E+03</pdfrwt>
<totfact> 0.12353706E+03</totfact>
</mgrwt>
</event>
<event>
 5    1  0.3257199E-002  0.1249963E+03  0.7818608E-02  0.1235075E+00
          4   -1    0    0  501    0  0.00000000000E+00  0.00000000000E+00  0.62595756038E+01  0.63871109854E+01  0.12700000000E+01 0. -1.
         -4   -1    0    0    0  501 -0.00000000000E+00 -0.00000000000E+00 -0.61758646632E+03  0.61758777213E+03  0.12700000000E+01 0. -1.
         25    2    1    2    0    0  0.00000000000E+00  0.00000000000E+00 -0.61132689072E+03  0.62397488311E+03  0.12499634972E+03 0.  0.
    9000005    1    3    3    0    0  0.50979870697E+02  0.20465438419E+02 -0.45435642034E+03  0.45766640480E+03  0.10000000000E+01 0.  0.
    9000005    1    3    3    0    0 -0.50979870697E+02 -0.20465438419E+02 -0.15697047038E+03  0.16630847831E+03  0.10000000000E+01 0.  0.
<mgrwt>
<rscale>  0 0.12499635E+03</rscale>
<asrwt>0</asrwt>
<pdfrwt beam="1">  1        4 0.97292298E-03 0.12499635E+03</pdfrwt>
<pdfrwt beam="2">  1       -4 0.95023166E-01 0.12499635E+03</pdfrwt>
<totfact> 0.47392202E+03</totfact>
</mgrwt>
</event>
<event>
 5    1  0.3257199E-002  0.1249984E+03  0.7818608E-02  0.1235072E+00
         -4   -1    0    0    0  501 -0.00000000000E+00  0.00000000000E+00  0.17628985138E+03  0.17629442589E+03  0.12700000000E+01 0.  1.
          4   -1    0    0  501    0  0.00000000000E+00 -0.00000000000E+00 -0.22134489008E+02  0.22170893163E+02  0.12700000000E+01 0.  1.
         25    2    1    2    0    0  0.00000000000E+00  0.00000000000E+00  0.15415536237E+03  0.19846531905E+03  0.12499842846E+03 0.  0.
    9000005    1    3    3    0    0 -0.28672947984E+02  0.46694088298E+02  0.12478071608E+03  0.13628537315E+03  0.10000000000E+01 0.  0.
    9000005    1    3    3    0    0  0.28672947984E+02 -0.46694088298E+02  0.29374646290E+02  0.62179945905E+02  0.10000000000E+01 0.  0.
<mgrwt>
<rscale>  0 0.12499843E+03</rscale>
<asrwt>0</asrwt>
<pdfrwt beam="2">  1        4 0.34084582E-02 0.12499843E+03</pdfrwt>
<pdfrwt beam="1">  1       -4 0.27124668E-01 0.12499843E+03</pdfrwt>
<totfact> 0.90398061E+03</totfact>
</mgrwt>
</event>
<event>
 5    1  0.3257199E-002  0.1249997E+03  0.7818608E-02  0.1235070E+00
          4   -1    0    0  501    0  0.00000000000E+00  0.00000000000E+00  0.10543652323E+03  0.10544417163E+03  0.12700000000E+01 0.  1.
         -4   -1    0    0    0  501 -0.00000000000E+00 -0.00000000000E+00 -0.37028307102E+02  0.37050079984E+02  0.12700000000E+01 0.  1.
         25    2    1    2    0    0  0.00000000000E+00  0.00000000000E+00  0.68408216132E+02  0.14249425162E+03  0.12499971084E+03 0.  0.
    9000005    1    3    3    0    0  0.73612264917E+01 -0.15940716719E+02  0.10257241130E+03  0.10406917730E+03  0.10000000000E+01 0.  0.
    9000005    1    3    3    0    0 -0.73612264917E+01  0.15940716719E+02 -0.34164195165E+02  0.38425074317E+02  0.10000000000E+01 0.  0.
<mgrwt>
<rscale>  0 0.12499971E+03</rscale>
<asrwt>0</asrwt>
<pdfrwt beam="1">  1        4 0.16223266E-01 0.12499971E+03</pdfrwt>
<pdfrwt beam="2">  1       -4 0.56989259E-02 0.12499971E+03</pdfrwt>
<totfact> 0.10082216E+04</totfact>
</mgrwt>
</event>
<event>
 5    1  0.3257199E-002  0.1249993E+03  0.7818608E-02  0.1235070E+00
         -4   -1    0    0    0  501 -0.00000000000E+00  0.00000000000E+00  0.28798784131E+01  0.31474751269E+01  0.12700000000E+01 0.  1.
          4   -1    0    0  501    0  0.00000000000E+00 -0.00000000000E+00 -0.12958909970E+04  0.12958916193E+04  0.12700000000E+01 0.  1.
         25    2    1    2    0    0  0.00000000000E+00  0.00000000000E+00 -0.12930111185E+04  0.12990390944E+04  0.12499926437E+03 0.  0.
    9000005    1    3    3    0    0  0.38311578802E+02  0.37912466972E+02 -0.97515307594E+03  0.97664202947E+03  0.10000000000E+01 0.  0.
    9000005    1    3    3    0    0 -0.38311578802E+02 -0.37912466972E+02 -0.31785804261E+03  0.32239706492E+03  0.10000000000E+01 0.  0.
<mgrwt>
<rscale>  0 0.12499926E+03</rscale>
<asrwt>0</asrwt>
<pdfrwt beam="2">  1        4 0.19938803E+00 0.12499926E+03</pdfrwt>
<pdfrwt beam="1">  1       -4 0.46369148E-03 0.12499926E+03</pdfrwt>
<totfact> 0.22251629E+03</totfact>
</mgrwt>
</event>
<event>
 5    1  0.3257199E-002  0.1250007E+03  0.7818608E-02  0.1235068E+00
          4   -1    0    0  501    0  0.00000000000E+00  0.00000000000E+00  0.14691025034E+03  0.14691573964E+03  0.12700000000E+01 0. -1.
         -4   -1    0    0    0  501 -0.00000000000E+00 -0.00000000000E+00 -0.26568505365E+02  0.26598841654E+02  0.12700000000E+01 0. -1.
         25    2    1    2    0    0  0.00000000000E+00  0.00000000000E+00  0.12034174498E+03  0.17351458130E+03  0.12500069735E+03 0.  0.
    9000005    1    3    3    0    0  0.29420294262E+01 -0.17532660111E+02 -0.22991146566E+02  0.29079933427E+02  0.10000000000E+01 0.  0.
    9000005    1    3    3    0    0 -0.29420294262E+01  0.17532660111E+02  0.14333289154E+03  0.14443464787E+03  0.10000000000E+01 0.  0.
<mgrwt>
<rscale>  0 0.12500070E+03</rscale>
<asrwt>0</asrwt>
<pdfrwt beam="1">  1        4 0.22604333E-01 0.12500070E+03</pdfrwt>
<pdfrwt beam="2">  1       -4 0.40902182E-02 0.12500070E+03</pdfrwt>
<totfact> 0.94796114E+03</totfact>
</mgrwt>
</event>
<event>
 5    1  0.3257199E-002  0.1250107E+03  0.7818608E-02  0.1235053E+00
         -4   -1    0    0    0  501 -0.00000000000E+00  0.00000000000E+00  0.12421444046E+03  0.12422093269E+03  0.12700000000E+01 0. -1.
          4   -1    0    0  501    0  0.00000000000E+00 -0.00000000000E+00 -0.31432857288E+02  0.31458503100E+02  0.12700000000E+01 0. -1.
         25    2    1    2    0    0  0.00000000000E+00  0.00000000000E+00  0.92781583171E+02  0.15567943579E+03  0.12501065776E+03 0.  0.
    9000005    1    3    3    0    0 -0.19950784380E+01 -0.46559463035E+02  0.98250230607E+02  0.10874682409E+03  0.10000000000E+01 0.  0.
    9000005    1    3    3    0    0  0.19950784380E+01  0.46559463035E+02 -0.54686474358E+01  0.46932611698E+02  0.10000000000E+01 0.  0.
<mgrwt>
<rscale>  0 0.12501066E+03</rscale>
<asrwt>0</asrwt>
<pdfrwt beam="2">  1        4 0.48382963E-02 0.12501066E+03</pdfrwt>
<pdfrwt beam="1">  1       -4 0.19112386E-01 0.12501066E+03</pdfrwt>
<totfact> 0.98158754E+03</totfact>
</mgrwt>
</event>
<event>
 5    1  0.3257199E-002  0.1249962E+03  0.7818608E-02  0.1235075E+00
         -4   -1    0    0    0  501 -0.00000000000E+00  0.00000000000E+00  0.15198323425E+03  0.15198854034E+03  0.12700000000E+01 0. -1.
          4   -1    0    0  501    0  0.00000000000E+00 -0.00000000000E+00 -0.25678848025E+02  0.25710234069E+02  0.12700000000E+01 0. -1.
         25    2    1    2    0    0  0.00000000000E+00  0.00000000000E+00  0.12630438623E+03  0.17769877441E+03  0.12499622572E+03 0.  0.
    9000005    1    3    3    0    0 -0.13245685127E+02  0.52487576559E+02  0.10753402732E+03  0.12039502024E+03  0.10000000000E+01 0.  0.
    9000005    1    3    3    0    0  0.13245685127E+02 -0.52487576559E+02  0.18770358906E+02  0.57303754162E+02  0.10000000000E+01 0.  0.
<mgrwt>
<rscale>  0 0.12499623E+03</rscale>
<asrwt>0</asrwt>
<pdfrwt beam="2">  1        4 0.39534146E-02 0.12499623E+03</pdfrwt>
<pdfrwt beam="1">  1       -4 0.23384858E-01 0.12499623E+03</pdfrwt>
<totfact> 0.94040839E+03</totfact>
</mgrwt>
</event>
<event>
 5    1  0.3257199E-002  0.1250006E+03  0.7818608E-02  0.1235068E+00
         -4   -1    0    0    0  501 -0.00000000000E+00  0.00000000000E+00  0.51431838797E+01  0.52976636756E+01  0.12700000000E+01 0.  1.
          4   -1    0    0  501    0  0.00000000000E+00 -0.00000000000E+00 -0.74811554364E+03  0.74811662162E+03  0.12700000000E+01 0.  1.
         25    2    1    2    0    0  0.00000000000E+00  0.00000000000E+00 -0.74297235976E+03  0.75341428529E+03  0.12500063164E+03 0.  0.
    9000005    1    3    3    0    0  0.61766235395E+02 -0.94860270622E+01 -0.37442000995E+03  0.37960031137E+03  0.10000000000E+01 0.  0.
    9000005    1    3    3    0    0 -0.61766235395E+02  0.94860270622E+01 -0.36855234982E+03  0.37381397392E+03  0.10000000000E+01 0.  0.
<mgrwt>
<rscale>  0 0.12500063E+03</rscale>
<asrwt>0</asrwt>
<pdfrwt beam="2">  1        4 0.11510658E+00 0.12500063E+03</pdfrwt>
<pdfrwt beam="1">  1       -4 0.80322563E-03 0.12500063E+03</pdfrwt>
<totfact> 0.40410828E+03</totfact>
</mgrwt>
</event>
<event>
 5    1  0.3257199E-002  0.1249962E+03  0.7818608E-02  0.1235075E+00
          4   -1    0    0  501    0  0.00000000000E+00  0.00000000000E+00  0.10594299773E+03  0.10595060957E+03  0.12700000000E+01 0.  1.
         -4   -1    0    0    0  501 -0.00000000000E+00 -0.00000000000E+00 -0.36849126002E+02  0.36871004694E+02  0.12700000000E+01 0.  1.
         25    2    1    2    0    0  0.00000000000E+00  0.00000000000E+00  0.69093871729E+02  0.14282161426E+03  0.12499620150E+03 0.  0.
    9000005    1    3    3    0    0  0.45746623075E+02 -0.36726227412E+02  0.59144688149E+02  0.83310644211E+02  0.10000000000E+01 0.  0.
    9000005    1    3    3    0    0 -0.45746623075E+02  0.36726227412E+02  0.99491835798E+01  0.59510970052E+02  0.10000000000E+01 0.  0.
<mgrwt>
<rscale>  0 0.12499620E+03</rscale>
<asrwt>0</asrwt>
<pdfrwt beam="1">  1        4 0.16301191E-01 0.12499620E+03</pdfrwt>
<pdfrwt beam="2">  1       -4 0.56713649E-02 0.12499620E+03</pdfrwt>
<totfact> 0.10076300E+04</totfact>
</mgrwt>
</event>
<event>
 5    1  0.3257199E-002  0.1249904E+03  0.7818608E-02  0.1235084E+00
         -4   -1    0    0    0  501 -0.00000000000E+00  0.00000000000E+00  0.12867812301E+02  0.12930332301E+02  0.12700000000E+01 0.  1.
          4   -1    0    0  501    0  0.00000000000E+00 -0.00000000000E+00 -0.30272141063E+03  0.30272407462E+03  0.12700000000E+01 0.  1.
         25    2    1    2    0    0  0.00000000000E+00  0.00000000000E+00 -0.28985359833E+03  0.31565440692E+03  0.12499038421E+03 0.  0.
    9000005    1    3    3    0    0 -0.20504994663E+02 -0.27415249949E+02 -0.27694175990E+03  0.27905158862E+03  0.10000000000E+01 0.  0.
    9000005    1    3    3    0    0  0.20504994663E+02  0.27415249949E+02 -0.12911838432E+02  0.36602818301E+02  0.10000000000E+01 0.  0.
<mgrwt>
<rscale>  0 0.12499038E+03</rscale>
<asrwt>0</asrwt>
<pdfrwt beam="2">  1        4 0.46577534E-01 0.12499038E+03</pdfrwt>
<pdfrwt beam="1">  1       -4 0.19846778E-02 0.12499038E+03</pdfrwt>
<totfact> 0.73691687E+03</totfact>
</mgrwt>
</event>
<event>
 5    1  0.3257199E-002  0.1250003E+03  0.7818608E-02  0.1235069E+00
         -4   -1    0    0    0  501 -0.00000000000E+00  0.00000000000E+00  0.54429995261E+03  0.54430143423E+03  0.12700000000E+01 0. -1.
          4   -1    0    0  501    0  0.00000000000E+00 -0.00000000000E+00 -0.71189955632E+01  0.72313897578E+01  0.12700000000E+01 0. -1.
         25    2    1    2    0    0  0.00000000000E+00  0.00000000000E+00  0.53718095704E+03  0.55153282399E+03  0.12500030131E+03 0.  0.
    9000005    1    3    3    0    0  0.27506447672E+02 -0.54310858196E+02  0.20634881041E+03  0.21514438301E+03  0.10000000000E+01 0.  0.
    9000005    1    3    3    0    0 -0.27506447672E+02  0.54310858196E+02  0.33083214663E+03  0.33638844098E+03  0.10000000000E+01 0.  0.
<mgrwt>
<rscale>  0 0.12500030E+03</rscale>
<asrwt>0</asrwt>
<pdfrwt beam="2">  1        4 0.11039894E-02 0.12500030E+03</pdfrwt>
<pdfrwt beam="1">  1       -4 0.83747243E-01 0.12500030E+03</pdfrwt>
<totfact> 0.52076899E+03</totfact>
</mgrwt>
</event>
<event>
 5    1  0.3257199E-002  0.1249959E+03  0.7818608E-02  0.1235076E+00
         -4   -1    0    0    0  501 -0.00000000000E+00  0.00000000000E+00  0.58819780783E+02  0.58833489710E+02  0.12700000000E+01 0.  1.
          4   -1    0    0  501    0  0.00000000000E+00 -0.00000000000E+00 -0.66378577292E+02  0.66390725431E+02  0.12700000000E+01 0.  1.
         25    2    1    2    0    0  0.00000000000E+00  0.00000000000E+00 -0.75587965084E+01  0.12522421514E+03  0.12499587454E+03 0.  0.
    9000005    1    3    3    0    0  0.97962084892E+01 -0.54113003812E+02 -0.33512045610E+02  0.64406832582E+02  0.10000000000E+01 0.  0.
    9000005    1    3    3    0    0 -0.97962084892E+01  0.54113003812E+02  0.25953249101E+02  0.60817382558E+02  0.10000000000E+01 0.  0.
<mgrwt>
<rscale>  0 0.12499587E+03</rscale>
<asrwt>0</asrwt>
<pdfrwt beam="2">  1        4 0.10214078E-01 0.12499587E+03</pdfrwt>
<pdfrwt beam="1">  1       -4 0.90511861E-02 0.12499587E+03</pdfrwt>
<totfact> 0.10448969E+04</totfact>
</mgrwt>
</event>
<event>
 5    1  0.3257199E-002  0.1250067E+03  0.7818608E-02  0.1235059E+00
          4   -1    0    0  501    0  0.00000000000E+00  0.00000000000E+00  0.66422882839E+03  0.66423004250E+03  0.12700000000E+01 0. -1.
         -4   -1    0    0    0  501 -0.00000000000E+00 -0.00000000000E+00 -0.58117140636E+01  0.59488587441E+01  0.12700000000E+01 0. -1.
         25    2    1    2    0    0  0.00000000000E+00  0.00000000000E+00  0.65841711432E+03  0.67017890124E+03  0.12500665278E+03 0.  0.
    9000005    1    3    3    0    0 -0.37062408706E+02 -0.42440184158E+02  0.18427164269E+03  0.19269621084E+03  0.10000000000E+01 0.  0.
    9000005    1    3    3    0    0  0.37062408706E+02  0.42440184158E+02  0.47414547163E+03  0.47748269041E+03  0.10000000000E+01 0.  0.
<mgrwt>
<rscale>  0 0.12500665E+03</rscale>
<asrwt>0</asrwt>
<pdfrwt beam="1">  1        4 0.10219974E+00 0.12500665E+03</pdfrwt>
<pdfrwt beam="2">  1       -4 0.90475239E-03 0.12500665E+03</pdfrwt>
<totfact> 0.44701804E+03</totfact>
</mgrwt>
</event>
<event>
 5    1  0.3257199E-002  0.1250033E+03  0.7818608E-02  0.1235064E+00
         -4   -1    0    0    0  501 -0.00000000000E+00  0.00000000000E+00  0.57675234757E+02  0.57689215667E+02  0.12700000000E+01 0. -1.
          4   -1    0    0  501    0  0.00000000000E+00 -0.00000000000E+00 -0.67703807166E+02  0.67715717561E+02  0.12700000000E+01 0. -1.
         25    2    1    2    0    0  0.00000000000E+00  0.00000000000E+00 -0.10028572409E+02  0.12540493323E+03  0.12500330001E+03 0.  0.
    9000005    1    3    3    0    0 -0.52414718025E+02  0.21517736136E+02 -0.31464517630E+02  0.64817678944E+02  0.10000000000E+01 0.  0.
    9000005    1    3    3    0    0  0.52414718025E+02 -0.21517736136E+02  0.21435945220E+02  0.60587254283E+02  0.10000000000E+01 0.  0.
<mgrwt>
<rscale>  0 0.12500330E+03</rscale>
<asrwt>0</asrwt>
<pdfrwt beam="2">  1        4 0.10417962E-01 0.12500330E+03</pdfrwt>
<pdfrwt beam="1">  1       -4 0.88751047E-02 0.12500330E+03</pdfrwt>
<totfact> 0.10443280E+04</totfact>
</mgrwt>
</event>
<event>
 5    1  0.3257199E-002  0.1250012E+03  0.7818608E-02  0.1235067E+00
          4   -1    0    0  501    0  0.00000000000E+00  0.00000000000E+00  0.41258436037E+03  0.41258631499E+03  0.12700000000E+01 0.  1.
         -4   -1    0    0    0  501 -0.00000000000E+00 -0.00000000000E+00 -0.94233699966E+01  0.95085646705E+01  0.12700000000E+01 0.  1.
         25    2    1    2    0    0  0.00000000000E+00  0.00000000000E+00  0.40316099037E+03  0.42209487966E+03  0.12500121312E+03 0.  0.
    9000005    1    3    3    0    0 -0.28516163152E+01 -0.84118675883E+01 -0.72976502521E+01  0.11538931109E+02  0.10000000000E+01 0.  0.
    9000005    1    3    3    0    0  0.28516163152E+01  0.84118675883E+01  0.41045864062E+03  0.41055594855E+03  0.10000000000E+01 0.  0.
<mgrwt>
<rscale>  0 0.12500121E+03</rscale>
<asrwt>0</asrwt>
<pdfrwt beam="1">  1        4 0.63481226E-01 0.12500121E+03</pdfrwt>
<pdfrwt beam="2">  1       -4 0.14564529E-02 0.12500121E+03</pdfrwt>
<totfact> 0.62457461E+03</totfact>
</mgrwt>
</event>
<event>
 5    1  0.3257199E-002  0.1249922E+03  0.7818608E-02  0.1235082E+00
         -4   -1    0    0    0  501 -0.00000000000E+00  0.00000000000E+00  0.50543342985E+02  0.50559296080E+02  0.12700000000E+01 0.  1.
          4   -1    0    0  501    0  0.00000000000E+00 -0.00000000000E+00 -0.77242097455E+02  0.77252537300E+02  0.12700000000E+01 0.  1.
         25    2    1    2    0    0  0.00000000000E+00  0.00000000000E+00 -0.26698754470E+02  0.12781183338E+03  0.12499216480E+03 0.  0.
    9000005    1    3    3    0    0 -0.41538314876E+02 -0.45834032604E+02 -0.22413319186E+02  0.65799293495E+02  0.10000000000E+01 0.  0.
    9000005    1    3    3    0    0  0.41538314876E+02  0.45834032604E+02 -0.42854352844E+01  0.62012539885E+02  0.10000000000E+01 0.  0.
<mgrwt>
<rscale>  0 0.12499216E+03</rscale>
<asrwt>0</asrwt>
<pdfrwt beam="2">  1        4 0.11885430E-01 0.12499216E+03</pdfrwt>
<pdfrwt beam="1">  1       -4 0.77779292E-02 0.12499216E+03</pdfrwt>
<totfact> 0.10393391E+04</totfact>
</mgrwt>
</event>
<event>
 5    1  0.3257199E-002  0.1249990E+03  0.7818608E-02  0.1235071E+00
         -4   -1    0    0    0  501 -0.00000000000E+00  0.00000000000E+00  0.14357740936E+03  0.14358302608E+03  0.12700000000E+01 0.  1.
          4   -1    0    0  501    0  0.00000000000E+00 -0.00000000000E+00 -0.27185153997E+02  0.27214802917E+02  0.12700000000E+01 0.  1.
         25    2    1    2    0    0  0.00000000000E+00  0.00000000000E+00  0.11639225537E+03  0.17079782900E+03  0.12499896512E+03 0.  0.
    9000005    1    3    3    0    0 -0.47930468363E+02  0.11189570249E+02  0.55828801741E+01  0.49544977858E+02  0.10000000000E+01 0.  0.
    9000005    1    3    3    0    0  0.47930468363E+02 -0.11189570249E+02  0.11080937519E+03  0.12125285114E+03  0.10000000000E+01 0.  0.
<mgrwt>
<rscale>  0 0.12499897E+03</rscale>
<asrwt>0</asrwt>
<pdfrwt beam="2">  1        4 0.41850441E-02 0.12499897E+03</pdfrwt>
<pdfrwt beam="1">  1       -4 0.22091545E-01 0.12499897E+03</pdfrwt>
<totfact> 0.95302354E+03</totfact>
</mgrwt>
</event>
<event>
 5    1  0.3257199E-002  0.1250016E+03  0.7818608E-02  0.1235067E+00
          4   -1    0    0  501    0  0.00000000000E+00  0.00000000000E+00  0.81558484256E+02  0.81568371653E+02  0.12700000000E+01 0.  1.
         -4   -1    0    0    0  501 -0.00000000000E+00 -0.00000000000E+00 -0.47875069324E+02  0.47891911245E+02  0.12700000000E+01 0.  1.
         25    2    1    2    0    0  0.00000000000E+00  0.00000000000E+00  0.33683414933E+02  0.12946028290E+03  0.12500156962E+03 0.  0.
    9000005    1    3    3    0    0 -0.43088165112E+02  0.27532573346E+02 -0.20366294869E+02  0.55049237365E+02  0.10000000000E+01 0.  0.
    9000005    1    3    3    0    0  0.43088165112E+02 -0.27532573346E+02  0.54049709802E+02  0.74411045534E+02  0.10000000000E+01 0.  0.
<mgrwt>
<rscale>  0 0.12500157E+03</rscale>
<asrwt>0</asrwt>
<pdfrwt beam="1">  1        4 0.12549515E-01 0.12500157E+03</pdfrwt>
<pdfrwt beam="2">  1       -4 0.73674514E-02 0.12500157E+03</pdfrwt>
<totfact> 0.10355700E+04</totfact>
</mgrwt>
</event>
<event>
 5    1  0.3257199E-002  0.1250010E+03  0.7818608E-02  0.1235068E+00
          4   -1    0    0  501    0  0.00000000000E+00  0.00000000000E+00  0.17230032958E+04  0.17230037639E+04  0.12700000000E+01 0. -1.
         -4   -1    0    0    0  501 -0.00000000000E+00 -0.00000000000E+00 -0.20887942416E+01  0.24445779562E+01  0.12700000000E+01 0. -1.
         25    2    1    2    0    0  0.00000000000E+00  0.00000000000E+00  0.17209145016E+04  0.17254483418E+04  0.12500103425E+03 0.  0.
    9000005    1    3    3    0    0 -0.27094749889E+02 -0.40153238349E+02  0.31545486212E+03  0.31915384700E+03  0.10000000000E+01 0.  0.
    9000005    1    3    3    0    0  0.27094749889E+02  0.40153238349E+02  0.14054596394E+04  0.14062944948E+04  0.10000000000E+01 0.  0.
<mgrwt>
<rscale>  0 0.12500103E+03</rscale>
<asrwt>0</asrwt>
<pdfrwt beam="1">  1        4 0.26510494E+00 0.12500103E+03</pdfrwt>
<pdfrwt beam="2">  1       -4 0.34875680E-03 0.12500103E+03</pdfrwt>
<totfact> 0.13887370E+03</totfact>
</mgrwt>
</event>
<event>
 5    1  0.3257199E-002  0.1250030E+03  0.7818608E-02  0.1235065E+00
          4   -1    0    0  501    0  0.00000000000E+00  0.00000000000E+00  0.45556448181E+02  0.45574146957E+02  0.12700000000E+01 0.  1.
         -4   -1    0    0    0  501 -0.00000000000E+00 -0.00000000000E+00 -0.85710317465E+02  0.85719725968E+02  0.12700000000E+01 0.  1.
         25    2    1    2    0    0  0.00000000000E+00  0.00000000000E+00 -0.40153869284E+02  0.13129387293E+03  0.12500299136E+03 0.  0.
    9000005    1    3    3    0    0 -0.50306318833E+02  0.96446880591E+01  0.17525482373E+02  0.54146913621E+02  0.10000000000E+01 0.  0.
    9000005    1    3    3    0    0  0.50306318833E+02 -0.96446880591E+01 -0.57679351657E+02  0.77146959304E+02  0.10000000000E+01 0.  0.
<mgrwt>
<rscale>  0 0.12500299E+03</rscale>
<asrwt>0</asrwt>
<pdfrwt beam="1">  1        4 0.70107695E-02 0.12500299E+03</pdfrwt>
<pdfrwt beam="2">  1       -4 0.13188288E-01 0.12500299E+03</pdfrwt>
<totfact> 0.10316097E+04</totfact>
</mgrwt>
</event>
<event>
 5    1  0.3257199E-002  0.1250116E+03  0.7818608E-02  0.1235051E+00
          4   -1    0    0  501    0  0.00000000000E+00  0.00000000000E+00  0.12087109029E+03  0.12087776209E+03  0.12700000000E+01 0.  1.
         -4   -1    0    0    0  501 -0.00000000000E+00 -0.00000000000E+00 -0.32303464221E+02  0.32328419396E+02  0.12700000000E+01 0.  1.
         25    2    1    2    0    0  0.00000000000E+00  0.00000000000E+00  0.88567626067E+02  0.15320618148E+03  0.12501163809E+03 0.  0.
    9000005    1    3    3    0    0  0.56721237164E+02  0.23722786223E+02  0.58035394560E+02  0.84552802162E+02  0.10000000000E+01 0.  0.
    9000005    1    3    3    0    0 -0.56721237164E+02 -0.23722786223E+02  0.30532231507E+02  0.68653379323E+02  0.10000000000E+01 0.  0.
<mgrwt>
<rscale>  0 0.12501164E+03</rscale>
<asrwt>0</asrwt>
<pdfrwt beam="1">  1        4 0.18597985E-01 0.12501164E+03</pdfrwt>
<pdfrwt beam="2">  1       -4 0.49721966E-02 0.12501164E+03</pdfrwt>
<totfact> 0.98642561E+03</totfact>
</mgrwt>
</event>
<event>
 5    1  0.3257199E-002  0.1250061E+03  0.7818608E-02  0.1235060E+00
         -4   -1    0    0    0  501 -0.00000000000E+00  0.00000000000E+00  0.75028413497E+02  0.75039161322E+02  0.12700000000E+01 0. -1.
          4   -1    0    0  501    0  0.00000000000E+00 -0.00000000000E+00 -0.52046505138E+02  0.52061997628E+02  0.12700000000E+01 0. -1.
         25    2    1    2    0    0  0.00000000000E+00  0.00000000000E+00  0.22981908359E+02  0.12710115895E+03  0.12500614583E+03 0.  0.
    9000005    1    3    3    0    0 -0.23909789188E+02  0.50460373050E+02 -0.17045529543E+02  0.58390729956E+02  0.10000000000E+01 0.  0.
    9000005    1    3    3    0    0  0.23909789188E+02 -0.50460373050E+02  0.40027437902E+02  0.68710428993E+02  0.10000000000E+01 0.  0.
<mgrwt>
<rscale>  0 0.12500615E+03</rscale>
<asrwt>0</asrwt>
<pdfrwt beam="2">  1        4 0.80091732E-02 0.12500615E+03</pdfrwt>
<pdfrwt beam="1">  1       -4 0.11544851E-01 0.12500615E+03</pdfrwt>
<totfact> 0.10405505E+04</totfact>
</mgrwt>
</event>
<event>
 5    1  0.3257199E-002  0.1249984E+03  0.7818608E-02  0.1235072E+00
         -4   -1    0    0    0  501 -0.00000000000E+00  0.00000000000E+00  0.16552442423E+04  0.16552447295E+04  0.12700000000E+01 0. -1.
          4   -1    0    0  501    0  0.00000000000E+00 -0.00000000000E+00 -0.21884705882E+01  0.25302773594E+01  0.12700000000E+01 0. -1.
         25    2    1    2    0    0  0.00000000000E+00  0.00000000000E+00  0.16530557717E+04  0.16577750069E+04  0.12499835602E+03 0.  0.
    9000005    1    3    3    0    0  0.35563739788E+02 -0.31942364672E+01  0.14636529193E+03  0.15066114767E+03  0.10000000000E+01 0.  0.
    9000005    1    3    3    0    0 -0.35563739788E+02  0.31942364672E+01  0.15066904798E+04  0.15071138592E+04  0.10000000000E+01 0.  0.
<mgrwt>
<rscale>  0 0.12499836E+03</rscale>
<asrwt>0</asrwt>
<pdfrwt beam="2">  1        4 0.36301609E-03 0.12499836E+03</pdfrwt>
<pdfrwt beam="1">  1       -4 0.25468069E+00 0.12499836E+03</pdfrwt>
<totfact> 0.15025084E+03</totfact>
</mgrwt>
</event>
<event>
 5    1  0.3257199E-002  0.1250003E+03  0.7818608E-02  0.1235069E+00
          4   -1    0    0  501    0  0.00000000000E+00  0.00000000000E+00  0.33715457973E+02  0.33739368790E+02  0.12700000000E+01 0. -1.
         -4   -1    0    0    0  501 -0.00000000000E+00 -0.00000000000E+00 -0.11579135362E+03  0.11579831809E+03  0.12700000000E+01 0. -1.
         25    2    1    2    0    0  0.00000000000E+00  0.00000000000E+00 -0.82075895644E+02  0.14953768688E+03  0.12500026861E+03 0.  0.
    9000005    1    3    3    0    0 -0.15136994664E+02 -0.55727749505E+02 -0.12462773093E+02  0.59084950584E+02  0.10000000000E+01 0.  0.
    9000005    1    3    3    0    0  0.15136994664E+02  0.55727749505E+02 -0.69613122551E+02  0.90452736297E+02  0.10000000000E+01 0.  0.
<mgrwt>
<rscale>  0 0.12500027E+03</rscale>
<asrwt>0</asrwt>
<pdfrwt beam="1">  1        4 0.51893686E-02 0.12500027E+03</pdfrwt>
<pdfrwt beam="2">  1       -4 0.17816429E-01 0.12500027E+03</pdfrwt>
<totfact> 0.99395332E+03</totfact>
</mgrwt>
</event>
<event>
 5    1  0.3257199E-002  0.1249936E+03  0.7818608E-02  0.1235079E+00
         -4   -1    0    0    0  501 -0.00000000000E+00  0.00000000000E+00  0.31014517646E+02  0.31040509094E+02  0.12700000000E+01 0.  1.
          4   -1    0    0  501    0  0.00000000000E+00 -0.00000000000E+00 -0.12585422896E+03  0.12586063660E+03  0.12700000000E+01 0.  1.
         25    2    1    2    0    0  0.00000000000E+00  0.00000000000E+00 -0.94839711311E+02  0.15690114570E+03  0.12499359456E+03 0.  0.
    9000005    1    3    3    0    0  0.43408011037E+02 -0.40412641478E+02 -0.72127154008E+02  0.93385027487E+02  0.10000000000E+01 0.  0.
    9000005    1    3    3    0    0 -0.43408011037E+02  0.40412641478E+02 -0.22712557303E+02  0.63516118211E+02  0.10000000000E+01 0.  0.
<mgrwt>
<rscale>  0 0.12499359E+03</rscale>
<asrwt>0</asrwt>
<pdfrwt beam="2">  1        4 0.19364681E-01 0.12499359E+03</pdfrwt>
<pdfrwt beam="1">  1       -4 0.47739566E-02 0.12499359E+03</pdfrwt>
<totfact> 0.97957676E+03</totfact>
</mgrwt>
</event>
<event>
 5    1  0.3257199E-002  0.1250020E+03  0.7818608E-02  0.1235066E+00
          4   -1    0    0  501    0  0.00000000000E+00  0.00000000000E+00  0.33783196615E+01  0.36091472310E+01  0.12700000000E+01 0. -1.
         -4   -1    0    0    0  501 -0.00000000000E+00 -0.00000000000E+00 -0.11178773942E+04  0.11178781156E+04  0.12700000000E+01 0. -1.
         25    2    1    2    0    0  0.00000000000E+00  0.00000000000E+00 -0.11144990745E+04  0.11214872628E+04  0.12500197427E+03 0.  0.
    9000005    1    3    3    0    0  0.58202476881E+02  0.21133449463E+02 -0.48153387086E+03  0.48549976291E+03  0.10000000000E+01 0.  0.
    9000005    1    3    3    0    0 -0.58202476881E+02 -0.21133449463E+02 -0.63296520363E+03  0.63598749988E+03  0.10000000000E+01 0.  0.
<mgrwt>
<rscale>  0 0.12500197E+03</rscale>
<asrwt>0</asrwt>
<pdfrwt beam="1">  1        4 0.53755384E-03 0.12500197E+03</pdfrwt>
<pdfrwt beam="2">  1       -4 0.17199866E+00 0.12500197E+03</pdfrwt>
<totfact> 0.26861777E+03</totfact>
</mgrwt>
</event>
<event>
 5    1  0.3257199E-002  0.1250078E+03  0.7818608E-02  0.1235057E+00
         -4   -1    0    0    0  501 -0.00000000000E+00  0.00000000000E+00  0.19257985194E+02  0.19299815899E+02  0.12700000000E+01 0.  1.
          4   -1    0    0  501    0  0.00000000000E+00 -0.00000000000E+00 -0.20259929007E+03  0.20260327055E+03  0.12700000000E+01 0.  1.
         25    2    1    2    0    0  0.00000000000E+00  0.00000000000E+00 -0.18334130488E+03  0.22190308645E+03  0.12500778256E+03 0.  0.
    9000005    1    3    3    0    0 -0.98108724611E+01  0.60608833501E+02 -0.11237585903E+03  0.12805864910E+03  0.10000000000E+01 0.  0.
    9000005    1    3    3    0    0  0.98108724611E+01 -0.60608833501E+02 -0.70965445845E+02  0.93844437346E+02  0.10000000000E+01 0.  0.
<mgrwt>
<rscale>  0 0.12500778E+03</rscale>
<asrwt>0</asrwt>
<pdfrwt beam="2">  1        4 0.31172644E-01 0.12500778E+03</pdfrwt>
<pdfrwt beam="1">  1       -4 0.29662910E-02 0.12500778E+03</pdfrwt>
<totfact> 0.86553060E+03</totfact>
</mgrwt>
</event>
<event>
 5    1  0.3257199E-002  0.1249998E+03  0.7818608E-02  0.1235070E+00
         -4   -1    0    0    0  501 -0.00000000000E+00  0.00000000000E+00  0.14763054189E+03  0.14763600441E+03  0.12700000000E+01 0. -1.
          4   -1    0    0  501    0  0.00000000000E+00 -0.00000000000E+00 -0.26438373979E+02  0.26468859414E+02  0.12700000000E+01 0. -1.
         25    2    1    2    0    0  0.00000000000E+00  0.00000000000E+00  0.12119216791E+03  0.17410486383E+03  0.12499984818E+03 0.  0.
    9000005    1    3    3    0    0 -0.57948149887E+02  0.92270872128E+01  0.90537728563E+02  0.10789442760E+03  0.10000000000E+01 0.  0.
    9000005    1    3    3    0    0  0.57948149887E+02 -0.92270872128E+01  0.30654439351E+02  0.66210436229E+02  0.10000000000E+01 0.  0.
<mgrwt>
<rscale>  0 0.12499985E+03</rscale>
<asrwt>0</asrwt>
<pdfrwt beam="2">  1        4 0.40702073E-02 0.12499985E+03</pdfrwt>
<pdfrwt beam="1">  1       -4 0.22715156E-01 0.12499985E+03</pdfrwt>
<totfact> 0.94689361E+03</totfact>
</mgrwt>
</event>
<event>
 5    1  0.3257199E-002  0.1249992E+03  0.7818608E-02  0.1235071E+00
         -4   -1    0    0    0  501 -0.00000000000E+00  0.00000000000E+00  0.76787111097E+01  0.77830266803E+01  0.12700000000E+01 0. -1.
          4   -1    0    0  501    0  0.00000000000E+00 -0.00000000000E+00 -0.50516792619E+03  0.50516952258E+03  0.12700000000E+01 0. -1.
         25    2    1    2    0    0  0.00000000000E+00  0.00000000000E+00 -0.49748921508E+03  0.51295254926E+03  0.12499919471E+03 0.  0.
    9000005    1    3    3    0    0  0.26271036205E+02 -0.10554360448E+02 -0.20129201327E+02  0.34752649018E+02  0.10000000000E+01 0.  0.
    9000005    1    3    3    0    0 -0.26271036205E+02  0.10554360448E+02 -0.47736001375E+03  0.47819990024E+03  0.10000000000E+01 0.  0.
<mgrwt>
<rscale>  0 0.12499919E+03</rscale>
<asrwt>0</asrwt>
<pdfrwt beam="2">  1        4 0.77726264E-01 0.12499919E+03</pdfrwt>
<pdfrwt beam="1">  1       -4 0.11894876E-02 0.12499919E+03</pdfrwt>
<totfact> 0.54874211E+03</totfact>
</mgrwt>
</event>
<event>
 5    1  0.3257199E-002  0.1250003E+03  0.7818608E-02  0.1235069E+00
          4   -1    0    0  501    0  0.00000000000E+00  0.00000000000E+00  0.43023413832E+02  0.43042154195E+02  0.12700000000E+01 0. -1.
         -4   -1    0    0    0  501 -0.00000000000E+00 -0.00000000000E+00 -0.90751125520E+02  0.90760011476E+02  0.12700000000E+01 0. -1.
         25    2    1    2    0    0  0.00000000000E+00  0.00000000000E+00 -0.47727711689E+02  0.13380216567E+03  0.12500034030E+03 0.  0.
    9000005    1    3    3    0    0 -0.17102139117E+02 -0.39837323858E+02  0.24314017970E+02  0.49715862704E+02  0.10000000000E+01 0.  0.
    9000005    1    3    3    0    0  0.17102139117E+02  0.39837323858E+02 -0.72041729658E+02  0.84086302967E+02  0.10000000000E+01 0.  0.
<mgrwt>
<rscale>  0 0.12500034E+03</rscale>
<asrwt>0</asrwt>
<pdfrwt beam="1">  1        4 0.66211119E-02 0.12500034E+03</pdfrwt>
<pdfrwt beam="2">  1       -4 0.13963837E-01 0.12500034E+03</pdfrwt>
<totfact> 0.10263301E+04</totfact>
</mgrwt>
</event>
<event>
 5    1  0.3257199E-002  0.1250141E+03  0.7818608E-02  0.1235047E+00
         -4   -1    0    0    0  501 -0.00000000000E+00  0.00000000000E+00  0.58527611626E+02  0.58541388971E+02  0.12700000000E+01 0. -1.
          4   -1    0    0  501    0  0.00000000000E+00 -0.00000000000E+00 -0.66729395366E+02  0.66741479650E+02  0.12700000000E+01 0. -1.
         25    2    1    2    0    0  0.00000000000E+00  0.00000000000E+00 -0.82017837397E+01  0.12528286862E+03  0.12501411086E+03 0.  0.
    9000005    1    3    3    0    0 -0.18840698400E+02 -0.58403401828E+02 -0.15967070116E+02  0.63418267000E+02  0.10000000000E+01 0.  0.
    9000005    1    3    3    0    0  0.18840698400E+02  0.58403401828E+02  0.77652863760E+01  0.61864601621E+02  0.10000000000E+01 0.  0.
<mgrwt>
<rscale>  0 0.12501411E+03</rscale>
<asrwt>0</asrwt>
<pdfrwt beam="2">  1        4 0.10268050E-01 0.12501411E+03</pdfrwt>
<pdfrwt beam="1">  1       -4 0.90062373E-02 0.12501411E+03</pdfrwt>
<totfact> 0.10443391E+04</totfact>
</mgrwt>
</event>
<event>
 5    1  0.3257199E-002  0.1250005E+03  0.7818608E-02  0.1235068E+00
         -4   -1    0    0    0  501 -0.00000000000E+00  0.00000000000E+00  0.33777045770E+02  0.33800913020E+02  0.12700000000E+01 0.  1.
          4   -1    0    0  501    0  0.00000000000E+00 -0.00000000000E+00 -0.11558079830E+03  0.11558777546E+03  0.12700000000E+01 0.  1.
         25    2    1    2    0    0  0.00000000000E+00  0.00000000000E+00 -0.81803752526E+02  0.14938868848E+03  0.12500050527E+03 0.  0.
    9000005    1    3    3    0    0  0.52843197352E+02 -0.36554249361E+01 -0.12734604590E+01  0.52994219868E+02  0.10000000000E+01 0.  0.
    9000005    1    3    3    0    0 -0.52843197352E+02  0.36554249361E+01 -0.80530292067E+02  0.96394468608E+02  0.10000000000E+01 0.  0.
<mgrwt>
<rscale>  0 0.12500051E+03</rscale>
<asrwt>0</asrwt>
<pdfrwt beam="2">  1        4 0.17784034E-01 0.12500051E+03</pdfrwt>
<pdfrwt beam="1">  1       -4 0.51988413E-02 0.12500051E+03</pdfrwt>
<totfact> 0.99424563E+03</totfact>
</mgrwt>
</event>
<event>
 5    1  0.3257199E-002  0.1249974E+03  0.7818608E-02  0.1235073E+00
          4   -1    0    0  501    0  0.00000000000E+00  0.00000000000E+00  0.35400743547E+02  0.35423516817E+02  0.12700000000E+01 0.  1.
         -4   -1    0    0    0  501 -0.00000000000E+00 -0.00000000000E+00 -0.11027728070E+03  0.11028459339E+03  0.12700000000E+01 0.  1.
         25    2    1    2    0    0  0.00000000000E+00  0.00000000000E+00 -0.74876537154E+02  0.14570811020E+03  0.12499743023E+03 0.  0.
    9000005    1    3    3    0    0  0.14127486438E+01 -0.53279215075E+02 -0.75469370041E+02  0.92397491482E+02  0.10000000000E+01 0.  0.
    9000005    1    3    3    0    0 -0.14127486438E+01  0.53279215075E+02  0.59283288685E+00  0.53310618723E+02  0.10000000000E+01 0.  0.
<mgrwt>
<rscale>  0 0.12499743E+03</rscale>
<asrwt>0</asrwt>
<pdfrwt beam="1">  1        4 0.54485826E-02 0.12499743E+03</pdfrwt>
<pdfrwt beam="2">  1       -4 0.16968050E-01 0.12499743E+03</pdfrwt>
<totfact> 0.10017201E+04</totfact>
</mgrwt>
</event>
<event>
 5    1  0.3257199E-002  0.1250001E+03  0.7818608E-02  0.1235069E+00
         -4   -1    0    0    0  501 -0.00000000000E+00  0.00000000000E+00  0.43472750773E+02  0.43491297518E+02  0.12700000000E+01 0. -1.
          4   -1    0    0  501    0  0.00000000000E+00 -0.00000000000E+00 -0.89813029706E+02  0.89822008467E+02  0.12700000000E+01 0. -1.
         25    2    1    2    0    0  0.00000000000E+00  0.00000000000E+00 -0.46340278933E+02  0.13331330598E+03  0.12500006440E+03 0.  0.
    9000005    1    3    3    0    0 -0.43226867931E+02 -0.39681587223E+02 -0.46095391387E+02  0.74625569229E+02  0.10000000000E+01 0.  0.
    9000005    1    3    3    0    0  0.43226867931E+02  0.39681587223E+02 -0.24488754620E+00  0.58687736756E+02  0.10000000000E+01 0.  0.
<mgrwt>
<rscale>  0 0.12500006E+03</rscale>
<asrwt>0</asrwt>
<pdfrwt beam="2">  1        4 0.13819507E-01 0.12500006E+03</pdfrwt>
<pdfrwt beam="1">  1       -4 0.66902329E-02 0.12500006E+03</pdfrwt>
<totfact> 0.10273731E+04</totfact>
</mgrwt>
</event>
<event>
 5    1  0.3257199E-002  0.1250035E+03  0.7818608E-02  0.1235064E+00
         -4   -1    0    0    0  501 -0.00000000000E+00  0.00000000000E+00  0.29778934712E+02  0.29806003634E+02  0.12700000000E+01 0. -1.
          4   -1    0    0  501    0  0.00000000000E+00 -0.00000000000E+00 -0.13109258283E+03  0.13109873445E+03  0.12700000000E+01 0. -1.
         25    2    1    2    0    0  0.00000000000E+00  0.00000000000E+00 -0.10131364812E+03  0.16090473808E+03  0.12500351772E+03 0.  0.
    9000005    1    3    3    0    0  0.10357914684E+01  0.25453013051E+02 -0.12411241915E+03  0.12670367526E+03  0.10000000000E+01 0.  0.
    9000005    1    3    3    0    0 -0.10357914684E+01 -0.25453013051E+02  0.22798771032E+02  0.34201062818E+02  0.10000000000E+01 0.  0.
<mgrwt>
<rscale>  0 0.12500352E+03</rscale>
<asrwt>0</asrwt>
<pdfrwt beam="2">  1        4 0.20170645E-01 0.12500352E+03</pdfrwt>
<pdfrwt beam="1">  1       -4 0.45839301E-02 0.12500352E+03</pdfrwt>
<totfact> 0.97160960E+03</totfact>
</mgrwt>
</event>
<event>
 5    1  0.3257199E-002  0.1250002E+03  0.7818608E-02  0.1235069E+00
          4   -1    0    0  501    0  0.00000000000E+00  0.00000000000E+00  0.27142825262E+03  0.27143122374E+03  0.12700000000E+01 0.  1.
         -4   -1    0    0    0  501 -0.00000000000E+00 -0.00000000000E+00 -0.14360431315E+02  0.14416479722E+02  0.12700000000E+01 0.  1.
         25    2    1    2    0    0  0.00000000000E+00  0.00000000000E+00  0.25706782131E+03  0.28584770346E+03  0.12500017929E+03 0.  0.
    9000005    1    3    3    0    0 -0.35905090599E+02  0.22665683989E+02  0.23681882964E+02  0.48628595932E+02  0.10000000000E+01 0.  0.
    9000005    1    3    3    0    0  0.35905090599E+02 -0.22665683989E+02  0.23338593834E+03  0.23721910753E+03  0.10000000000E+01 0.  0.
<mgrwt>
<rscale>  0 0.12500018E+03</rscale>
<asrwt>0</asrwt>
<pdfrwt beam="1">  1        4 0.41762733E-01 0.12500018E+03</pdfrwt>
<pdfrwt beam="2">  1       -4 0.22138371E-02 0.12500018E+03</pdfrwt>
<totfact> 0.77408767E+03</totfact>
</mgrwt>
</event>
<event>
 5    1  0.3257199E-002  0.1249990E+03  0.7818608E-02  0.1235071E+00
         -4   -1    0    0    0  501 -0.00000000000E+00  0.00000000000E+00  0.12018575267E+04  0.12018581977E+04  0.12700000000E+01 0.  1.
          4   -1    0    0  501    0  0.00000000000E+00 -0.00000000000E+00 -0.31253635752E+01  0.33735437565E+01  0.12700000000E+01 0.  1.
         25    2    1    2    0    0  0.00000000000E+00  0.00000000000E+00  0.11987321632E+04  0.12052317415E+04  0.12499900684E+03 0.  0.
    9000005    1    3    3    0    0 -0.11365238932E+02 -0.22611009659E+01  0.11914549440E+04  0.11915117141E+04  0.10000000000E+01 0.  0.
    9000005    1    3    3    0    0  0.11365238932E+02  0.22611009659E+01  0.72772191838E+01  0.13720027427E+02  0.10000000000E+01 0.  0.
<mgrwt>
<rscale>  0 0.12499901E+03</rscale>
<asrwt>0</asrwt>
<pdfrwt beam="2">  1        4 0.49996732E-03 0.12499901E+03</pdfrwt>
<pdfrwt beam="1">  1       -4 0.18492039E+00 0.12499901E+03</pdfrwt>
<totfact> 0.24576734E+03</totfact>
</mgrwt>
</event>
<event>
 5    1  0.3257199E-002  0.1249979E+03  0.7818608E-02  0.1235073E+00
          4   -1    0    0  501    0  0.00000000000E+00  0.00000000000E+00  0.21477919980E+02  0.21515435079E+02  0.12700000000E+01 0. -1.
         -4   -1    0    0    0  501 -0.00000000000E+00 -0.00000000000E+00 -0.18166827350E+03  0.18167271258E+03  0.12700000000E+01 0. -1.
         25    2    1    2    0    0  0.00000000000E+00  0.00000000000E+00 -0.16019035352E+03  0.20318814766E+03  0.12499789594E+03 0.  0.
    9000005    1    3    3    0    0 -0.23597940655E+02  0.37747688414E+02 -0.15138488367E+03  0.15779776230E+03  0.10000000000E+01 0.  0.
    9000005    1    3    3    0    0  0.23597940655E+02 -0.37747688414E+02 -0.88054698516E+01  0.45390385359E+02  0.10000000000E+01 0.  0.
<mgrwt>
<rscale>  0 0.12499790E+03</rscale>
<asrwt>0</asrwt>
<pdfrwt beam="1">  1        4 0.33075228E-02 0.12499790E+03</pdfrwt>
<pdfrwt beam="2">  1       -4 0.27952191E-01 0.12499790E+03</pdfrwt>
<totfact> 0.89604789E+03</totfact>
</mgrwt>
</event>
<event>
 4    1  0.3257199E-002  0.1251131E+03  0.7818608E-02  0.1234893E+00
         -4   -1    0    0    0  501 -0.00000000000E+00  0.00000000000E+00  0.73930565354E+01  0.75013455416E+01  0.12700000000E+01 0.  1.
          4   -1    0    0  501    0  0.00000000000E+00 -0.00000000000E+00 -0.52536677010E+03  0.52536830512E+03  0.12700000000E+01 0.  1.
    9000005    1    1    2    0    0 -0.44959990155E+02 -0.29414976756E+02 -0.12258365327E+03  0.13384466228E+03  0.10000000000E+01 0.  0.
    9000005    1    1    2    0    0  0.44959990155E+02  0.29414976756E+02 -0.39539006030E+03  0.39902498839E+03  0.10000000000E+01 0.  0.
<mgrwt>
<rscale>  0 0.12511314E+03</rscale>
<asrwt>0</asrwt>
<pdfrwt beam="2">  1        4 0.80834076E-01 0.12511314E+03</pdfrwt>
<pdfrwt beam="1">  1       -4 0.11458417E-02 0.12511314E+03</pdfrwt>
<totfact> 0.53268848E+03</totfact>
</mgrwt>
</event>
<event>
 5    1  0.3257199E-002  0.1250037E+03  0.7818608E-02  0.1235064E+00
         -4   -1    0    0    0  501 -0.00000000000E+00  0.00000000000E+00  0.12561254176E+04  0.12561260596E+04  0.12700000000E+01 0.  1.
          4   -1    0    0  501    0  0.00000000000E+00 -0.00000000000E+00 -0.29796181388E+01  0.32389850653E+01  0.12700000000E+01 0.  1.
         25    2    1    2    0    0  0.00000000000E+00  0.00000000000E+00  0.12531457995E+04  0.12593650447E+04  0.12500368416E+03 0.  0.
    9000005    1    3    3    0    0  0.35023521719E+02 -0.54476845825E+00  0.11479807908E+04  0.11485154939E+04  0.10000000000E+01 0.  0.
    9000005    1    3    3    0    0 -0.35023521719E+02  0.54476845825E+00  0.10516500873E+03  0.11084955078E+03  0.10000000000E+01 0.  0.
<mgrwt>
<rscale>  0 0.12500368E+03</rscale>
<asrwt>0</asrwt>
<pdfrwt beam="2">  1        4 0.47840423E-03 0.12500368E+03</pdfrwt>
<pdfrwt beam="1">  1       -4 0.19326976E+00 0.12500368E+03</pdfrwt>
<totfact> 0.23206527E+03</totfact>
</mgrwt>
</event>
<event>
 5    1  0.3257199E-002  0.1250120E+03  0.7818608E-02  0.1235051E+00
         -4   -1    0    0    0  501 -0.00000000000E+00  0.00000000000E+00  0.16689593195E+03  0.16690076393E+03  0.12700000000E+01 0. -1.
          4   -1    0    0  501    0  0.00000000000E+00 -0.00000000000E+00 -0.23387395862E+02  0.23421852728E+02  0.12700000000E+01 0. -1.
         25    2    1    2    0    0  0.00000000000E+00  0.00000000000E+00  0.14350853609E+03  0.19032261666E+03  0.12501199335E+03 0.  0.
    9000005    1    3    3    0    0  0.38718427999E+02  0.49925819929E+01  0.14605715457E+03  0.15118774733E+03  0.10000000000E+01 0.  0.
    9000005    1    3    3    0    0 -0.38718427999E+02 -0.49925819929E+01 -0.25486184779E+01  0.39134869335E+02  0.10000000000E+01 0.  0.
<mgrwt>
<rscale>  0 0.12501199E+03</rscale>
<asrwt>0</asrwt>
<pdfrwt beam="2">  1        4 0.36010831E-02 0.12501199E+03</pdfrwt>
<pdfrwt beam="1">  1       -4 0.25679320E-01 0.12501199E+03</pdfrwt>
<totfact> 0.91766556E+03</totfact>
</mgrwt>
</event>
<event>
 5    1  0.3257199E-002  0.1250021E+03  0.7818608E-02  0.1235066E+00
         -4   -1    0    0    0  501 -0.00000000000E+00  0.00000000000E+00  0.12932199522E+03  0.12932823105E+03  0.12700000000E+01 0. -1.
          4   -1    0    0  501    0  0.00000000000E+00 -0.00000000000E+00 -0.30186326890E+02  0.30213030817E+02  0.12700000000E+01 0. -1.
         25    2    1    2    0    0  0.00000000000E+00  0.00000000000E+00  0.99135668329E+02  0.15954126187E+03  0.12500213400E+03 0.  0.
    9000005    1    3    3    0    0 -0.95734730601E+01  0.61672442436E+02  0.53652386385E+02  0.82308687921E+02  0.10000000000E+01 0.  0.
    9000005    1    3    3    0    0  0.95734730601E+01 -0.61672442436E+02  0.45483281944E+02  0.77232573949E+02  0.10000000000E+01 0.  0.
<mgrwt>
<rscale>  0 0.12500213E+03</rscale>
<asrwt>0</asrwt>
<pdfrwt beam="2">  1        4 0.46465840E-02 0.12500213E+03</pdfrwt>
<pdfrwt beam="1">  1       -4 0.19898226E-01 0.12500213E+03</pdfrwt>
<totfact> 0.97426625E+03</totfact>
</mgrwt>
</event>
<event>
 5    1  0.3257199E-002  0.1250005E+03  0.7818608E-02  0.1235068E+00
         -4   -1    0    0    0  501 -0.00000000000E+00  0.00000000000E+00  0.35416198083E+03  0.35416425789E+03  0.12700000000E+01 0. -1.
          4   -1    0    0  501    0  0.00000000000E+00 -0.00000000000E+00 -0.10990768453E+02  0.11063900361E+02  0.12700000000E+01 0. -1.
         25    2    1    2    0    0  0.00000000000E+00  0.00000000000E+00  0.34317121238E+03  0.36522815825E+03  0.12500050629E+03 0.  0.
    9000005    1    3    3    0    0 -0.22986983201E+02 -0.48267844450E+01  0.23830296486E+01  0.23630024864E+02  0.10000000000E+01 0.  0.
    9000005    1    3    3    0    0  0.22986983201E+02  0.48267844450E+01  0.34078818273E+03  0.34159813338E+03  0.10000000000E+01 0.  0.
<mgrwt>
<rscale>  0 0.12500051E+03</rscale>
<asrwt>0</asrwt>
<pdfrwt beam="2">  1        4 0.16966884E-02 0.12500051E+03</pdfrwt>
<pdfrwt beam="1">  1       -4 0.54492253E-01 0.12500051E+03</pdfrwt>
<totfact> 0.68080374E+03</totfact>
</mgrwt>
</event>
<event>
 5    1  0.3257199E-002  0.1250009E+03  0.7818608E-02  0.1235068E+00
          4   -1    0    0  501    0  0.00000000000E+00  0.00000000000E+00  0.45790157801E+02  0.45807766279E+02  0.12700000000E+01 0. -1.
         -4   -1    0    0    0  501 -0.00000000000E+00 -0.00000000000E+00 -0.85270070626E+02  0.85279527699E+02  0.12700000000E+01 0. -1.
         25    2    1    2    0    0  0.00000000000E+00  0.00000000000E+00 -0.39479912825E+02  0.13108729398E+03  0.12500086050E+03 0.  0.
    9000005    1    3    3    0    0 -0.56501827773E+02 -0.46232600162E+01 -0.47316200660E+02  0.73848858622E+02  0.10000000000E+01 0.  0.
    9000005    1    3    3    0    0  0.56501827773E+02  0.46232600162E+01  0.78362878347E+01  0.57238435356E+02  0.10000000000E+01 0.  0.
<mgrwt>
<rscale>  0 0.12500086E+03</rscale>
<asrwt>0</asrwt>
<pdfrwt beam="1">  1        4 0.70467216E-02 0.12500086E+03</pdfrwt>
<pdfrwt beam="2">  1       -4 0.13120554E-01 0.12500086E+03</pdfrwt>
<totfact> 0.10321018E+04</totfact>
</mgrwt>
</event>
<event>
 5    1  0.3257199E-002  0.1250006E+03  0.7818608E-02  0.1235068E+00
         -4   -1    0    0    0  501 -0.00000000000E+00  0.00000000000E+00  0.26833938817E+03  0.26834239349E+03  0.12700000000E+01 0. -1.
          4   -1    0    0  501    0  0.00000000000E+00 -0.00000000000E+00 -0.14526470174E+02  0.14581880390E+02  0.12700000000E+01 0. -1.
         25    2    1    2    0    0  0.00000000000E+00  0.00000000000E+00  0.25381291799E+03  0.28292427388E+03  0.12500058963E+03 0.  0.
    9000005    1    3    3    0    0 -0.12236452561E+02  0.28013515125E+02  0.35406569432E+01  0.30789999229E+02  0.10000000000E+01 0.  0.
    9000005    1    3    3    0    0  0.12236452561E+02 -0.28013515125E+02  0.25027226105E+03  0.25213427465E+03  0.10000000000E+01 0.  0.
<mgrwt>
<rscale>  0 0.12500059E+03</rscale>
<asrwt>0</asrwt>
<pdfrwt beam="2">  1        4 0.22393351E-02 0.12500059E+03</pdfrwt>
<pdfrwt beam="1">  1       -4 0.41287475E-01 0.12500059E+03</pdfrwt>
<totfact> 0.77790939E+03</totfact>
</mgrwt>
</event>
<event>
 5    1  0.3257199E-002  0.1250008E+03  0.7818608E-02  0.1235068E+00
          4   -1    0    0  501    0  0.00000000000E+00  0.00000000000E+00  0.43375499778E+02  0.43394088088E+02  0.12700000000E+01 0. -1.
         -4   -1    0    0    0  501 -0.00000000000E+00 -0.00000000000E+00 -0.90015433397E+02  0.90024391970E+02  0.12700000000E+01 0. -1.
         25    2    1    2    0    0  0.00000000000E+00  0.00000000000E+00 -0.46639933619E+02  0.13341848006E+03  0.12500082965E+03 0.  0.
    9000005    1    3    3    0    0  0.59087244197E+02  0.17896792244E+02 -0.12988006082E+02  0.63097431813E+02  0.10000000000E+01 0.  0.
    9000005    1    3    3    0    0 -0.59087244197E+02 -0.17896792244E+02 -0.33651927537E+02  0.70321048246E+02  0.10000000000E+01 0.  0.
<mgrwt>
<rscale>  0 0.12500083E+03</rscale>
<asrwt>0</asrwt>
<pdfrwt beam="1">  1        4 0.66752728E-02 0.12500083E+03</pdfrwt>
<pdfrwt beam="2">  1       -4 0.13850647E-01 0.12500083E+03</pdfrwt>
<totfact> 0.10271322E+04</totfact>
</mgrwt>
</event>
<event>
 5    1  0.3257199E-002  0.1250011E+03  0.7818608E-02  0.1235068E+00
         -4   -1    0    0    0  501 -0.00000000000E+00  0.00000000000E+00  0.24503607410E+01  0.27599216947E+01  0.12700000000E+01 0. -1.
          4   -1    0    0  501    0  0.00000000000E+00 -0.00000000000E+00 -0.14991563611E+04  0.14991568990E+04  0.12700000000E+01 0. -1.
         25    2    1    2    0    0  0.00000000000E+00  0.00000000000E+00 -0.14967060004E+04  0.15019168207E+04  0.12500113953E+03 0.  0.
    9000005    1    3    3    0    0 -0.18180978386E+02 -0.18017767998E+02 -0.14333402608E+04  0.14335691442E+04  0.10000000000E+01 0.  0.
    9000005    1    3    3    0    0  0.18180978386E+02  0.18017767998E+02 -0.63365739544E+02  0.68347676527E+02  0.10000000000E+01 0.  0.
<mgrwt>
<rscale>  0 0.12500114E+03</rscale>
<asrwt>0</asrwt>
<pdfrwt beam="2">  1        4 0.23066260E+00 0.12500114E+03</pdfrwt>
<pdfrwt beam="1">  1       -4 0.40083354E-03 0.12500114E+03</pdfrwt>
<totfact> 0.17892427E+03</totfact>
</mgrwt>
</event>
<event>
 5    1  0.3257199E-002  0.1249938E+03  0.7818608E-02  0.1235079E+00
         -4   -1    0    0    0  501 -0.00000000000E+00  0.00000000000E+00  0.50910762090E+03  0.50910920494E+03  0.12700000000E+01 0.  1.
          4   -1    0    0  501    0  0.00000000000E+00 -0.00000000000E+00 -0.76178104694E+01  0.77229486822E+01  0.12700000000E+01 0.  1.
         25    2    1    2    0    0  0.00000000000E+00  0.00000000000E+00  0.50148981043E+03  0.51683215363E+03  0.12499378007E+03 0.  0.
    9000005    1    3    3    0    0  0.31029946535E+01 -0.60964631290E+02  0.30599546663E+03  0.31202650600E+03  0.10000000000E+01 0.  0.
    9000005    1    3    3    0    0 -0.31029946535E+01  0.60964631290E+02  0.19549434380E+03  0.20480564763E+03  0.10000000000E+01 0.  0.
<mgrwt>
<rscale>  0 0.12499378E+03</rscale>
<asrwt>0</asrwt>
<pdfrwt beam="2">  1        4 0.11801800E-02 0.12499378E+03</pdfrwt>
<pdfrwt beam="1">  1       -4 0.78332474E-01 0.12499378E+03</pdfrwt>
<totfact> 0.54589100E+03</totfact>
</mgrwt>
</event>
<event>
 5    1  0.3257199E-002  0.1249914E+03  0.7818608E-02  0.1235083E+00
          4   -1    0    0  501    0  0.00000000000E+00  0.00000000000E+00  0.18374289935E+03  0.18374728831E+03  0.12700000000E+01 0.  1.
         -4   -1    0    0    0  501 -0.00000000000E+00 -0.00000000000E+00 -0.21232778727E+02  0.21270726186E+02  0.12700000000E+01 0.  1.
         25    2    1    2    0    0  0.00000000000E+00  0.00000000000E+00  0.16251012062E+03  0.20501801449E+03  0.12499138756E+03 0.  0.
    9000005    1    3    3    0    0 -0.54108761593E+02 -0.30886011104E+02  0.73387299322E+02  0.96272527051E+02  0.10000000000E+01 0.  0.
    9000005    1    3    3    0    0  0.54108761593E+02  0.30886011104E+02  0.89122821297E+02  0.10874548744E+03  0.10000000000E+01 0.  0.
<mgrwt>
<rscale>  0 0.12499139E+03</rscale>
<asrwt>0</asrwt>
<pdfrwt beam="1">  1        4 0.28271393E-01 0.12499139E+03</pdfrwt>
<pdfrwt beam="2">  1       -4 0.32698382E-02 0.12499139E+03</pdfrwt>
<totfact> 0.89313228E+03</totfact>
</mgrwt>
</event>
<event>
 5    1  0.3257199E-002  0.1250001E+03  0.7818608E-02  0.1235069E+00
          4   -1    0    0  501    0  0.00000000000E+00  0.00000000000E+00  0.36534125686E+03  0.36534346425E+03  0.12700000000E+01 0. -1.
         -4   -1    0    0    0  501 -0.00000000000E+00 -0.00000000000E+00 -0.10652108130E+02  0.10727549003E+02  0.12700000000E+01 0. -1.
         25    2    1    2    0    0  0.00000000000E+00  0.00000000000E+00  0.35468914873E+03  0.37607101325E+03  0.12500005910E+03 0.  0.
    9000005    1    3    3    0    0  0.26377490356E+02 -0.52669565241E+02  0.11456719924E+03  0.12882739709E+03  0.10000000000E+01 0.  0.
    9000005    1    3    3    0    0 -0.26377490356E+02  0.52669565241E+02  0.24012194950E+03  0.24724361616E+03  0.10000000000E+01 0.  0.
<mgrwt>
<rscale>  0 0.12500006E+03</rscale>
<asrwt>0</asrwt>
<pdfrwt beam="1">  1        4 0.56212334E-01 0.12500006E+03</pdfrwt>
<pdfrwt beam="2">  1       -4 0.16447584E-02 0.12500006E+03</pdfrwt>
<totfact> 0.66948444E+03</totfact>
</mgrwt>
</event>
<event>
 5    1  0.3257199E-002  0.1250083E+03  0.7818608E-02  0.1235056E+00
         -4   -1    0    0    0  501 -0.00000000000E+00  0.00000000000E+00  0.24001823649E+03  0.24002159642E+03  0.12700000000E+01 0.  1.
          4   -1    0    0  501    0  0.00000000000E+00 -0.00000000000E+00 -0.16248704510E+02  0.16298260590E+02  0.12700000000E+01 0.  1.
         25    2    1    2    0    0  0.00000000000E+00  0.00000000000E+00  0.22376953198E+03  0.25631985701E+03  0.12500826235E+03 0.  0.
    9000005    1    3    3    0    0  0.87695573435E+01  0.36181964737E+02  0.21480961847E+03  0.21801424700E+03  0.10000000000E+01 0.  0.
    9000005    1    3    3    0    0 -0.87695573435E+01 -0.36181964737E+02  0.89599135134E+01  0.38305610012E+02  0.10000000000E+01 0.  0.
<mgrwt>
<rscale>  0 0.12500826E+03</rscale>
<asrwt>0</asrwt>
<pdfrwt beam="2">  1        4 0.25038711E-02 0.12500826E+03</pdfrwt>
<pdfrwt beam="1">  1       -4 0.36929953E-01 0.12500826E+03</pdfrwt>
<totfact> 0.81410327E+03</totfact>
</mgrwt>
</event>
<event>
 5    1  0.3257199E-002  0.1250016E+03  0.7818608E-02  0.1235067E+00
          4   -1    0    0  501    0  0.00000000000E+00  0.00000000000E+00  0.10138041015E+03  0.10138836453E+03  0.12700000000E+01 0. -1.
         -4   -1    0    0    0  501 -0.00000000000E+00 -0.00000000000E+00 -0.38511650718E+02  0.38532585444E+02  0.12700000000E+01 0. -1.
         25    2    1    2    0    0  0.00000000000E+00  0.00000000000E+00  0.62868759430E+02  0.13992094997E+03  0.12500156531E+03 0.  0.
    9000005    1    3    3    0    0 -0.39637512539E+02 -0.32276238503E+02  0.71676033996E+02  0.88041705013E+02  0.10000000000E+01 0.  0.
    9000005    1    3    3    0    0  0.39637512539E+02  0.32276238503E+02 -0.88072745666E+01  0.51879244959E+02  0.10000000000E+01 0.  0.
<mgrwt>
<rscale>  0 0.12500157E+03</rscale>
<asrwt>0</asrwt>
<pdfrwt beam="1">  1        4 0.15599208E-01 0.12500157E+03</pdfrwt>
<pdfrwt beam="2">  1       -4 0.59270918E-02 0.12500157E+03</pdfrwt>
<totfact> 0.10134867E+04</totfact>
</mgrwt>
</event>
<event>
 5    1  0.3257199E-002  0.1250021E+03  0.7818608E-02  0.1235066E+00
         -4   -1    0    0    0  501 -0.00000000000E+00  0.00000000000E+00  0.31616905553E+02  0.31642402197E+02  0.12700000000E+01 0.  1.
          4   -1    0    0  501    0  0.00000000000E+00 -0.00000000000E+00 -0.12347492582E+03  0.12348145693E+03  0.12700000000E+01 0.  1.
         25    2    1    2    0    0  0.00000000000E+00  0.00000000000E+00 -0.91858020268E+02  0.15512385913E+03  0.12500206312E+03 0.  0.
    9000005    1    3    3    0    0 -0.12078525821E+02 -0.24680315317E+02 -0.11558239314E+03  0.11880782110E+03  0.10000000000E+01 0.  0.
    9000005    1    3    3    0    0  0.12078525821E+02  0.24680315317E+02  0.23724372873E+02  0.36316038032E+02  0.10000000000E+01 0.  0.
<mgrwt>
<rscale>  0 0.12500206E+03</rscale>
<asrwt>0</asrwt>
<pdfrwt beam="2">  1        4 0.18998606E-01 0.12500206E+03</pdfrwt>
<pdfrwt beam="1">  1       -4 0.48666030E-02 0.12500206E+03</pdfrwt>
<totfact> 0.98286629E+03</totfact>
</mgrwt>
</event>
<event>
 5    1  0.3257199E-002  0.1250037E+03  0.7818608E-02  0.1235063E+00
         -4   -1    0    0    0  501 -0.00000000000E+00  0.00000000000E+00  0.17755496311E+02  0.17800858104E+02  0.12700000000E+01 0. -1.
          4   -1    0    0  501    0  0.00000000000E+00 -0.00000000000E+00 -0.21968750633E+03  0.21969117719E+03  0.12700000000E+01 0. -1.
         25    2    1    2    0    0  0.00000000000E+00  0.00000000000E+00 -0.20193201001E+03  0.23749203529E+03  0.12500372058E+03 0.  0.
    9000005    1    3    3    0    0 -0.44955051035E+02  0.37411363154E+02 -0.59129124724E+02  0.83173433843E+02  0.10000000000E+01 0.  0.
    9000005    1    3    3    0    0  0.44955051035E+02 -0.37411363154E+02 -0.14280288529E+03  0.15431860145E+03  0.10000000000E+01 0.  0.
<mgrwt>
<rscale>  0 0.12500372E+03</rscale>
<asrwt>0</asrwt>
<pdfrwt beam="2">  1        4 0.33801848E-01 0.12500372E+03</pdfrwt>
<pdfrwt beam="1">  1       -4 0.27353867E-02 0.12500372E+03</pdfrwt>
<totfact> 0.84165326E+03</totfact>
</mgrwt>
</event>
<event>
 5    1  0.3257199E-002  0.1249975E+03  0.7818608E-02  0.1235073E+00
          4   -1    0    0  501    0  0.00000000000E+00  0.00000000000E+00  0.98482541054E+01  0.99298040728E+01  0.12700000000E+01 0.  1.
         -4   -1    0    0    0  501 -0.00000000000E+00 -0.00000000000E+00 -0.39491014167E+03  0.39491218377E+03  0.12700000000E+01 0.  1.
         25    2    1    2    0    0  0.00000000000E+00  0.00000000000E+00 -0.38506188756E+03  0.40484198784E+03  0.12499751145E+03 0.  0.
    9000005    1    3    3    0    0 -0.56746789319E+02  0.14800180471E+02 -0.26243585857E+03  0.26891043732E+03  0.10000000000E+01 0.  0.
    9000005    1    3    3    0    0  0.56746789319E+02 -0.14800180471E+02 -0.12262602899E+03  0.13593155052E+03  0.10000000000E+01 0.  0.
<mgrwt>
<rscale>  0 0.12499751E+03</rscale>
<asrwt>0</asrwt>
<pdfrwt beam="1">  1        4 0.15215465E-02 0.12499751E+03</pdfrwt>
<pdfrwt beam="2">  1       -4 0.60761824E-01 0.12499751E+03</pdfrwt>
<totfact> 0.64088098E+03</totfact>
</mgrwt>
</event>
<event>
 5    1  0.3257199E-002  0.1249973E+03  0.7818608E-02  0.1235074E+00
         -4   -1    0    0    0  501 -0.00000000000E+00  0.00000000000E+00  0.42751862521E+03  0.42752051156E+03  0.12700000000E+01 0. -1.
          4   -1    0    0  501    0  0.00000000000E+00 -0.00000000000E+00 -0.90905841216E+01  0.91788681041E+01  0.12700000000E+01 0. -1.
         25    2    1    2    0    0  0.00000000000E+00  0.00000000000E+00  0.41842804109E+03  0.43669937966E+03  0.12499729048E+03 0.  0.
    9000005    1    3    3    0    0  0.56299259811E+02 -0.27119354801E+02  0.20879192744E+03  0.21794525694E+03  0.10000000000E+01 0.  0.
    9000005    1    3    3    0    0 -0.56299259811E+02  0.27119354801E+02  0.20963611365E+03  0.21875412272E+03  0.10000000000E+01 0.  0.
<mgrwt>
<rscale>  0 0.12499729E+03</rscale>
<asrwt>0</asrwt>
<pdfrwt beam="2">  1        4 0.14054878E-02 0.12499729E+03</pdfrwt>
<pdfrwt beam="1">  1       -4 0.65779024E-01 0.12499729E+03</pdfrwt>
<totfact> 0.61137047E+03</totfact>
</mgrwt>
</event>
<event>
 5    1  0.3257199E-002  0.1249994E+03  0.7818608E-02  0.1235070E+00
          4   -1    0    0  501    0  0.00000000000E+00  0.00000000000E+00  0.74950834998E+02  0.74961593946E+02  0.12700000000E+01 0. -1.
         -4   -1    0    0    0  501 -0.00000000000E+00 -0.00000000000E+00 -0.52094731171E+02  0.52110209324E+02  0.12700000000E+01 0. -1.
         25    2    1    2    0    0  0.00000000000E+00  0.00000000000E+00  0.22856103827E+02  0.12707180327E+03  0.12499936682E+03 0.  0.
    9000005    1    3    3    0    0 -0.45990600963E+02 -0.42066914862E+02  0.68309397903E+01  0.62709029982E+02  0.10000000000E+01 0.  0.
    9000005    1    3    3    0    0  0.45990600963E+02  0.42066914862E+02  0.16025164036E+02  0.64362773288E+02  0.10000000000E+01 0.  0.
<mgrwt>
<rscale>  0 0.12499937E+03</rscale>
<asrwt>0</asrwt>
<pdfrwt beam="1">  1        4 0.11532916E-01 0.12499937E+03</pdfrwt>
<pdfrwt beam="2">  1       -4 0.80165923E-02 0.12499937E+03</pdfrwt>
<totfact> 0.10407735E+04</totfact>
</mgrwt>
</event>
<event>
 4    1  0.3257199E-002  0.1251696E+03  0.7818608E-02  0.1234804E+00
          4   -1    0    0  501    0  0.00000000000E+00  0.00000000000E+00  0.35251254046E+02  0.35274123827E+02  0.12700000000E+01 0. -1.
         -4   -1    0    0    0  501 -0.00000000000E+00 -0.00000000000E+00 -0.11105009057E+03  0.11105735238E+03  0.12700000000E+01 0. -1.
    9000005    1    1    2    0    0  0.59974414791E+01  0.45188669937E+02  0.12218918916E+02  0.47204736780E+02  0.10000000000E+01 0.  0.
    9000005    1    1    2    0    0 -0.59974414791E+01 -0.45188669937E+02 -0.88017755445E+02  0.99126739423E+02  0.10000000000E+01 0.  0.
<mgrwt>
<rscale>  0 0.12516963E+03</rscale>
<asrwt>0</asrwt>
<pdfrwt beam="1">  1        4 0.54255877E-02 0.12516963E+03</pdfrwt>
<pdfrwt beam="2">  1       -4 0.17086947E-01 0.12516963E+03</pdfrwt>
<totfact> 0.99658936E+03</totfact>
</mgrwt>
</event>
<event>
 5    1  0.3257199E-002  0.1249994E+03  0.7818608E-02  0.1235070E+00
         -4   -1    0    0    0  501 -0.00000000000E+00  0.00000000000E+00  0.20727285908E+03  0.20727674981E+03  0.12700000000E+01 0.  1.
          4   -1    0    0  501    0  0.00000000000E+00 -0.00000000000E+00 -0.18820296239E+02  0.18863097586E+02  0.12700000000E+01 0.  1.
         25    2    1    2    0    0  0.00000000000E+00  0.00000000000E+00  0.18845256284E+03  0.22613984740E+03  0.12499944855E+03 0.  0.
    9000005    1    3    3    0    0 -0.33059598378E+02  0.52913821228E+02  0.10059841851E+03  0.11838011374E+03  0.10000000000E+01 0.  0.
    9000005    1    3    3    0    0  0.33059598378E+02 -0.52913821228E+02  0.87854144333E+02  0.10775973366E+03  0.10000000000E+01 0.  0.
<mgrwt>
<rscale>  0 0.12499945E+03</rscale>
<asrwt>0</asrwt>
<pdfrwt beam="2">  1        4 0.28990219E-02 0.12499945E+03</pdfrwt>
<pdfrwt beam="1">  1       -4 0.31891723E-01 0.12499945E+03</pdfrwt>
<totfact> 0.85906930E+03</totfact>
</mgrwt>
</event>
<event>
 5    1  0.3257199E-002  0.1250032E+03  0.7818608E-02  0.1235064E+00
         -4   -1    0    0    0  501 -0.00000000000E+00  0.00000000000E+00  0.31262293472E+02  0.31288079090E+02  0.12700000000E+01 0.  1.
          4   -1    0    0  501    0  0.00000000000E+00 -0.00000000000E+00 -0.12487678315E+03  0.12488324095E+03  0.12700000000E+01 0.  1.
         25    2    1    2    0    0  0.00000000000E+00  0.00000000000E+00 -0.93614489682E+02  0.15617132004E+03  0.12500323406E+03 0.  0.
    9000005    1    3    3    0    0 -0.14964872673E+02  0.60516723224E+02 -0.52285977976E+02  0.81369802118E+02  0.10000000000E+01 0.  0.
    9000005    1    3    3    0    0  0.14964872673E+02 -0.60516723224E+02 -0.41328511706E+02  0.74801517924E+02  0.10000000000E+01 0.  0.
<mgrwt>
<rscale>  0 0.12500323E+03</rscale>
<asrwt>0</asrwt>
<pdfrwt beam="2">  1        4 0.19214293E-01 0.12500323E+03</pdfrwt>
<pdfrwt beam="1">  1       -4 0.48120639E-02 0.12500323E+03</pdfrwt>
<totfact> 0.98078911E+03</totfact>
</mgrwt>
</event>
<event>
 5    1  0.3257199E-002  0.1250079E+03  0.7818608E-02  0.1235057E+00
          4   -1    0    0  501    0  0.00000000000E+00  0.00000000000E+00  0.16308731178E+03  0.16309225661E+03  0.12700000000E+01 0.  1.
         -4   -1    0    0    0  501 -0.00000000000E+00 -0.00000000000E+00 -0.23932784219E+02  0.23966456986E+02  0.12700000000E+01 0.  1.
         25    2    1    2    0    0  0.00000000000E+00  0.00000000000E+00  0.13915452757E+03  0.18705871359E+03  0.12500791890E+03 0.  0.
    9000005    1    3    3    0    0  0.59548404195E+02  0.94350477166E+01  0.44956899393E+02  0.75214063649E+02  0.10000000000E+01 0.  0.
    9000005    1    3    3    0    0 -0.59548404195E+02 -0.94350477166E+01  0.94197628172E+02  0.11184464994E+03  0.10000000000E+01 0.  0.
<mgrwt>
<rscale>  0 0.12500792E+03</rscale>
<asrwt>0</asrwt>
<pdfrwt beam="1">  1        4 0.25093326E-01 0.12500792E+03</pdfrwt>
<pdfrwt beam="2">  1       -4 0.36849374E-02 0.12500792E+03</pdfrwt>
<totfact> 0.92345236E+03</totfact>
</mgrwt>
</event>
<event>
 5    1  0.3257199E-002  0.1250006E+03  0.7818608E-02  0.1235068E+00
          4   -1    0    0  501    0  0.00000000000E+00  0.00000000000E+00  0.12184093616E+03  0.12184755486E+03  0.12700000000E+01 0.  1.
         -4   -1    0    0    0  501 -0.00000000000E+00 -0.00000000000E+00 -0.32040467097E+02  0.32065626952E+02  0.12700000000E+01 0.  1.
         25    2    1    2    0    0  0.00000000000E+00  0.00000000000E+00  0.89800469067E+02  0.15391318181E+03  0.12500057316E+03 0.  0.
    9000005    1    3    3    0    0 -0.42059396728E+02  0.28123936864E+02  0.90062880539E+02  0.10330668482E+03  0.10000000000E+01 0.  0.
    9000005    1    3    3    0    0  0.42059396728E+02 -0.28123936864E+02 -0.26241147176E+00  0.50606496991E+02  0.10000000000E+01 0.  0.
<mgrwt>
<rscale>  0 0.12500057E+03</rscale>
<asrwt>0</asrwt>
<pdfrwt beam="1">  1        4 0.18747204E-01 0.12500057E+03</pdfrwt>
<pdfrwt beam="2">  1       -4 0.49317472E-02 0.12500057E+03</pdfrwt>
<totfact> 0.98528008E+03</totfact>
</mgrwt>
</event>
<event>
 5    1  0.3257199E-002  0.1250036E+03  0.7818608E-02  0.1235064E+00
          4   -1    0    0  501    0  0.00000000000E+00  0.00000000000E+00  0.49876713656E+02  0.49892879904E+02  0.12700000000E+01 0.  1.
         -4   -1    0    0    0  501 -0.00000000000E+00 -0.00000000000E+00 -0.78288620257E+02  0.78298920566E+02  0.12700000000E+01 0.  1.
         25    2    1    2    0    0  0.00000000000E+00  0.00000000000E+00 -0.28411906601E+02  0.12819180047E+03  0.12500360503E+03 0.  0.
    9000005    1    3    3    0    0 -0.38434933521E+02  0.47027598920E+02 -0.29299912320E+02  0.67441263607E+02  0.10000000000E+01 0.  0.
    9000005    1    3    3    0    0  0.38434933521E+02 -0.47027598920E+02  0.88800571929E+00  0.60750536863E+02  0.10000000000E+01 0.  0.
<mgrwt>
<rscale>  0 0.12500361E+03</rscale>
<asrwt>0</asrwt>
<pdfrwt beam="1">  1        4 0.76753765E-02 0.12500361E+03</pdfrwt>
<pdfrwt beam="2">  1       -4 0.12046439E-01 0.12500361E+03</pdfrwt>
<totfact> 0.10382503E+04</totfact>
</mgrwt>
</event>
<event>
 5    1  0.3257199E-002  0.1250021E+03  0.7818608E-02  0.1235066E+00
          4   -1    0    0  501    0  0.00000000000E+00  0.00000000000E+00  0.60228077663E+02  0.60241466109E+02  0.12700000000E+01 0. -1.
         -4   -1    0    0    0  501 -0.00000000000E+00 -0.00000000000E+00 -0.64832961434E+02  0.64845399130E+02  0.12700000000E+01 0. -1.
         25    2    1    2    0    0  0.00000000000E+00  0.00000000000E+00 -0.46048837709E+01  0.12508686524E+03  0.12500207559E+03 0.  0.
    9000005    1    3    3    0    0 -0.48334929385E+02  0.38588554828E+02 -0.11254892940E+02  0.62873003566E+02  0.10000000000E+01 0.  0.
    9000005    1    3    3    0    0  0.48334929385E+02 -0.38588554828E+02  0.66500091690E+01  0.62213861673E+02  0.10000000000E+01 0.  0.
<mgrwt>
<rscale>  0 0.12500208E+03</rscale>
<asrwt>0</asrwt>
<pdfrwt beam="1">  1        4 0.92678447E-02 0.12500208E+03</pdfrwt>
<pdfrwt beam="2">  1       -4 0.99762884E-02 0.12500208E+03</pdfrwt>
<totfact> 0.10450486E+04</totfact>
</mgrwt>
</event>
<event>
 5    1  0.3257199E-002  0.1250036E+03  0.7818608E-02  0.1235064E+00
          4   -1    0    0  501    0  0.00000000000E+00  0.00000000000E+00  0.10198914815E+04  0.10198922722E+04  0.12700000000E+01 0. -1.
         -4   -1    0    0    0  501 -0.00000000000E+00 -0.00000000000E+00 -0.37242002176E+01  0.39347893541E+01  0.12700000000E+01 0. -1.
         25    2    1    2    0    0  0.00000000000E+00  0.00000000000E+00  0.10161672813E+04  0.10238270616E+04  0.12500363381E+03 0.  0.
    9000005    1    3    3    0    0 -0.29037036497E+02  0.30167106064E+02  0.12811069152E+03  0.13478335602E+03  0.10000000000E+01 0.  0.
    9000005    1    3    3    0    0  0.29037036497E+02 -0.30167106064E+02  0.88805658978E+03  0.88904370558E+03  0.10000000000E+01 0.  0.
<mgrwt>
<rscale>  0 0.12500363E+03</rscale>
<asrwt>0</asrwt>
<pdfrwt beam="1">  1        4 0.15692260E+00 0.12500363E+03</pdfrwt>
<pdfrwt beam="2">  1       -4 0.58921403E-03 0.12500363E+03</pdfrwt>
<totfact> 0.29823902E+03</totfact>
</mgrwt>
</event>
<event>
 5    1  0.3257199E-002  0.1250002E+03  0.7818608E-02  0.1235069E+00
         -4   -1    0    0    0  501 -0.00000000000E+00  0.00000000000E+00  0.70763025089E+03  0.70763139054E+03  0.12700000000E+01 0. -1.
          4   -1    0    0  501    0  0.00000000000E+00 -0.00000000000E+00 -0.54460003777E+01  0.55921212535E+01  0.12700000000E+01 0. -1.
         25    2    1    2    0    0  0.00000000000E+00  0.00000000000E+00  0.70218425051E+03  0.71322351179E+03  0.12500022442E+03 0.  0.
    9000005    1    3    3    0    0  0.75678727725E+01 -0.61025729681E+02  0.28759329163E+03  0.29409575612E+03  0.10000000000E+01 0.  0.
    9000005    1    3    3    0    0 -0.75678727725E+01  0.61025729681E+02  0.41459095888E+03  0.41912775567E+03  0.10000000000E+01 0.  0.
<mgrwt>
<rscale>  0 0.12500022E+03</rscale>
<asrwt>0</asrwt>
<pdfrwt beam="2">  1        4 0.84917418E-03 0.12500022E+03</pdfrwt>
<pdfrwt beam="1">  1       -4 0.10887749E+00 0.12500022E+03</pdfrwt>
<totfact> 0.42397580E+03</totfact>
</mgrwt>
</event>
<event>
 4    1  0.3257199E-002  0.1249097E+03  0.7818608E-02  0.1235210E+00
          4   -1    0    0  501    0  0.00000000000E+00  0.00000000000E+00  0.26801353585E+02  0.26831426612E+02  0.12700000000E+01 0. -1.
         -4   -1    0    0    0  501 -0.00000000000E+00 -0.00000000000E+00 -0.14542328717E+03  0.14542883260E+03  0.12700000000E+01 0. -1.
    9000005    1    1    2    0    0 -0.33723308041E+02 -0.52485014417E+02 -0.55491592000E+02  0.83500030098E+02  0.10000000000E+01 0.  0.
    9000005    1    1    2    0    0  0.33723308041E+02  0.52485014417E+02 -0.63130341584E+02  0.88760229113E+02  0.10000000000E+01 0.  0.
<mgrwt>
<rscale>  0 0.12490970E+03</rscale>
<asrwt>0</asrwt>
<pdfrwt beam="1">  1        4 0.41260251E-02 0.12490970E+03</pdfrwt>
<pdfrwt beam="2">  1       -4 0.22375553E-01 0.12490970E+03</pdfrwt>
<totfact> 0.95221836E+03</totfact>
</mgrwt>
</event>
<event>
 5    1  0.3257199E-002  0.1249993E+03  0.7818608E-02  0.1235070E+00
          4   -1    0    0  501    0  0.00000000000E+00  0.00000000000E+00  0.10180497445E+02  0.10259406817E+02  0.12700000000E+01 0. -1.
         -4   -1    0    0    0  501 -0.00000000000E+00 -0.00000000000E+00 -0.38213390820E+03  0.38213601858E+03  0.12700000000E+01 0. -1.
         25    2    1    2    0    0  0.00000000000E+00  0.00000000000E+00 -0.37195341075E+03  0.39239542539E+03  0.12499932040E+03 0.  0.
    9000005    1    3    3    0    0  0.11703997217E+02  0.59807040667E+02 -0.14255355980E+03  0.15503671525E+03  0.10000000000E+01 0.  0.
    9000005    1    3    3    0    0 -0.11703997217E+02 -0.59807040667E+02 -0.22939985095E+03  0.23735871014E+03  0.10000000000E+01 0.  0.
<mgrwt>
<rscale>  0 0.12499932E+03</rscale>
<asrwt>0</asrwt>
<pdfrwt beam="1">  1        4 0.15724630E-02 0.12499932E+03</pdfrwt>
<pdfrwt beam="2">  1       -4 0.58796053E-01 0.12499932E+03</pdfrwt>
<totfact> 0.65300167E+03</totfact>
</mgrwt>
</event>
<event>
 5    1  0.3257199E-002  0.1249929E+03  0.7818608E-02  0.1235080E+00
         -4   -1    0    0    0  501 -0.00000000000E+00  0.00000000000E+00  0.21318460429E+03  0.21318838713E+03  0.12700000000E+01 0.  1.
          4   -1    0    0  501    0  0.00000000000E+00 -0.00000000000E+00 -0.18295288022E+02  0.18339314704E+02  0.12700000000E+01 0.  1.
         25    2    1    2    0    0  0.00000000000E+00  0.00000000000E+00  0.19488931627E+03  0.23152770184E+03  0.12499292428E+03 0.  0.
    9000005    1    3    3    0    0 -0.54184713066E+02  0.23308580674E+02  0.59233954862E+02  0.83599847319E+02  0.10000000000E+01 0.  0.
    9000005    1    3    3    0    0  0.54184713066E+02 -0.23308580674E+02  0.13565536141E+03  0.14792785452E+03  0.10000000000E+01 0.  0.
<mgrwt>
<rscale>  0 0.12499292E+03</rscale>
<asrwt>0</asrwt>
<pdfrwt beam="2">  1        4 0.28183375E-02 0.12499292E+03</pdfrwt>
<pdfrwt beam="1">  1       -4 0.32801308E-01 0.12499292E+03</pdfrwt>
<totfact> 0.85088999E+03</totfact>
</mgrwt>
</event>
<event>
 5    1  0.3257199E-002  0.1249950E+03  0.7818608E-02  0.1235077E+00
          4   -1    0    0  501    0  0.00000000000E+00  0.00000000000E+00  0.12489730708E+03  0.12490376382E+03  0.12700000000E+01 0. -1.
         -4   -1    0    0    0  501 -0.00000000000E+00 -0.00000000000E+00 -0.31253013602E+02  0.31278806870E+02  0.12700000000E+01 0. -1.
         25    2    1    2    0    0  0.00000000000E+00  0.00000000000E+00  0.93644293482E+02  0.15618257069E+03  0.12499496664E+03 0.  0.
    9000005    1    3    3    0    0  0.21093670306E+02 -0.47298201812E+02  0.31272568852E+01  0.51892605997E+02  0.10000000000E+01 0.  0.
    9000005    1    3    3    0    0 -0.21093670306E+02  0.47298201812E+02  0.90517036597E+02  0.10428996469E+03  0.10000000000E+01 0.  0.
<mgrwt>
<rscale>  0 0.12499497E+03</rscale>
<asrwt>0</asrwt>
<pdfrwt beam="1">  1        4 0.19217451E-01 0.12499497E+03</pdfrwt>
<pdfrwt beam="2">  1       -4 0.48106367E-02 0.12499497E+03</pdfrwt>
<totfact> 0.98094947E+03</totfact>
</mgrwt>
</event>
<event>
 5    1  0.3257199E-002  0.1249961E+03  0.7818608E-02  0.1235075E+00
          4   -1    0    0  501    0  0.00000000000E+00  0.00000000000E+00  0.17869611299E+04  0.17869615812E+04  0.12700000000E+01 0. -1.
         -4   -1    0    0    0  501 -0.00000000000E+00 -0.00000000000E+00 -0.20008767204E+01  0.23698961265E+01  0.12700000000E+01 0. -1.
         25    2    1    2    0    0  0.00000000000E+00  0.00000000000E+00  0.17849602532E+04  0.17893314773E+04  0.12499612118E+03 0.  0.
    9000005    1    3    3    0    0 -0.22510063003E+02  0.16502399357E+02  0.92117045369E+02  0.96257894058E+02  0.10000000000E+01 0.  0.
    9000005    1    3    3    0    0  0.22510063003E+02 -0.16502399357E+02  0.16928432078E+04  0.16930735833E+04  0.10000000000E+01 0.  0.
<mgrwt>
<rscale>  0 0.12499612E+03</rscale>
<asrwt>0</asrwt>
<pdfrwt beam="1">  1        4 0.27494510E+00 0.12499612E+03</pdfrwt>
<pdfrwt beam="2">  1       -4 0.33624852E-03 0.12499612E+03</pdfrwt>
<totfact> 0.12869706E+03</totfact>
</mgrwt>
</event>
<event>
 5    1  0.3257199E-002  0.1250291E+03  0.7818608E-02  0.1235024E+00
         -4   -1    0    0    0  501 -0.00000000000E+00  0.00000000000E+00  0.55140256356E+02  0.55154879848E+02  0.12700000000E+01 0.  1.
          4   -1    0    0  501    0  0.00000000000E+00 -0.00000000000E+00 -0.70845302547E+02  0.70856684885E+02  0.12700000000E+01 0.  1.
         25    2    1    2    0    0  0.00000000000E+00  0.00000000000E+00 -0.15705046190E+02  0.12601156473E+03  0.12502906050E+03 0.  0.
    9000005    1    3    3    0    0  0.49627279083E+02  0.34355723011E+02  0.85196351215E+01  0.60965291071E+02  0.10000000000E+01 0.  0.
    9000005    1    3    3    0    0 -0.49627279083E+02 -0.34355723011E+02 -0.24224681312E+02  0.65046273663E+02  0.10000000000E+01 0.  0.
<mgrwt>
<rscale>  0 0.12502906E+03</rscale>
<asrwt>0</asrwt>
<pdfrwt beam="2">  1        4 0.10901278E-01 0.12502906E+03</pdfrwt>
<pdfrwt beam="1">  1       -4 0.84851168E-02 0.12502906E+03</pdfrwt>
<totfact> 0.10423866E+04</totfact>
</mgrwt>
</event>
<event>
 5    1  0.3257199E-002  0.1249968E+03  0.7818608E-02  0.1235074E+00
         -4   -1    0    0    0  501 -0.00000000000E+00  0.00000000000E+00  0.85981936344E+02  0.85991315128E+02  0.12700000000E+01 0.  1.
          4   -1    0    0  501    0  0.00000000000E+00 -0.00000000000E+00 -0.45408028083E+02  0.45425784687E+02  0.12700000000E+01 0.  1.
         25    2    1    2    0    0  0.00000000000E+00  0.00000000000E+00  0.40573908261E+02  0.13141709981E+03  0.12499684833E+03 0.  0.
    9000005    1    3    3    0    0  0.49635943973E+02 -0.37166661545E+02  0.12145480258E+02  0.63194939316E+02  0.10000000000E+01 0.  0.
    9000005    1    3    3    0    0 -0.49635943973E+02  0.37166661545E+02  0.28428428003E+02  0.68222160499E+02  0.10000000000E+01 0.  0.
<mgrwt>
<rscale>  0 0.12499685E+03</rscale>
<asrwt>0</asrwt>
<pdfrwt beam="2">  1        4 0.69879379E-02 0.12499685E+03</pdfrwt>
<pdfrwt beam="1">  1       -4 0.13230077E-01 0.12499685E+03</pdfrwt>
<totfact> 0.10314889E+04</totfact>
</mgrwt>
</event>
<event>
 5    1  0.3257199E-002  0.1249994E+03  0.7818608E-02  0.1235070E+00
         -4   -1    0    0    0  501 -0.00000000000E+00  0.00000000000E+00  0.22671131345E+02  0.22706675152E+02  0.12700000000E+01 0.  1.
          4   -1    0    0  501    0  0.00000000000E+00 -0.00000000000E+00 -0.17212609719E+03  0.17213078236E+03  0.12700000000E+01 0.  1.
         25    2    1    2    0    0  0.00000000000E+00  0.00000000000E+00 -0.14945496585E+03  0.19483745751E+03  0.12499939213E+03 0.  0.
    9000005    1    3    3    0    0 -0.48357505105E+02  0.29364625360E+02 -0.11609882913E+03  0.12915365905E+03  0.10000000000E+01 0.  0.
    9000005    1    3    3    0    0  0.48357505105E+02 -0.29364625360E+02 -0.33356136724E+02  0.65683798457E+02  0.10000000000E+01 0.  0.
<mgrwt>
<rscale>  0 0.12499939E+03</rscale>
<asrwt>0</asrwt>
<pdfrwt beam="2">  1        4 0.26484032E-01 0.12499939E+03</pdfrwt>
<pdfrwt beam="1">  1       -4 0.34909610E-02 0.12499939E+03</pdfrwt>
<totfact> 0.91013598E+03</totfact>
</mgrwt>
</event>
<event>
 5    1  0.3257199E-002  0.1250010E+03  0.7818608E-02  0.1235068E+00
         -4   -1    0    0    0  501 -0.00000000000E+00  0.00000000000E+00  0.21044410100E+03  0.21044793310E+03  0.12700000000E+01 0. -1.
          4   -1    0    0  501    0  0.00000000000E+00 -0.00000000000E+00 -0.18536504820E+02  0.18579959929E+02  0.12700000000E+01 0. -1.
         25    2    1    2    0    0  0.00000000000E+00  0.00000000000E+00  0.19190759618E+03  0.22902789303E+03  0.12500100125E+03 0.  0.
    9000005    1    3    3    0    0 -0.61822956592E+02  0.28053524616E+01  0.80047884242E+02  0.10118602540E+03  0.10000000000E+01 0.  0.
    9000005    1    3    3    0    0  0.61822956592E+02 -0.28053524616E+01  0.11185971194E+03  0.12784186763E+03  0.10000000000E+01 0.  0.
<mgrwt>
<rscale>  0 0.12500100E+03</rscale>
<asrwt>0</asrwt>
<pdfrwt beam="2">  1        4 0.28554074E-02 0.12500100E+03</pdfrwt>
<pdfrwt beam="1">  1       -4 0.32379654E-01 0.12500100E+03</pdfrwt>
<totfact> 0.85457178E+03</totfact>
</mgrwt>
</event>
<event>
 5    1  0.3257199E-002  0.1250009E+03  0.7818608E-02  0.1235068E+00
         -4   -1    0    0    0  501 -0.00000000000E+00  0.00000000000E+00  0.27160362726E+02  0.27190038680E+02  0.12700000000E+01 0. -1.
          4   -1    0    0  501    0  0.00000000000E+00 -0.00000000000E+00 -0.14371288299E+03  0.14371849442E+03  0.12700000000E+01 0. -1.
         25    2    1    2    0    0  0.00000000000E+00  0.00000000000E+00 -0.11655252027E+03  0.17090853310E+03  0.12500094682E+03 0.  0.
    9000005    1    3    3    0    0  0.98639350656E+01 -0.45714819934E+02 -0.16023527530E+01  0.46805015873E+02  0.10000000000E+01 0.  0.
    9000005    1    3    3    0    0 -0.98639350656E+01  0.45714819934E+02 -0.11495016751E+03  0.12410351723E+03  0.10000000000E+01 0.  0.
<mgrwt>
<rscale>  0 0.12500095E+03</rscale>
<asrwt>0</asrwt>
<pdfrwt beam="2">  1        4 0.22112388E-01 0.12500095E+03</pdfrwt>
<pdfrwt beam="1">  1       -4 0.41812319E-02 0.12500095E+03</pdfrwt>
<totfact> 0.95277545E+03</totfact>
</mgrwt>
</event>
<event>
 5    1  0.3257199E-002  0.1250003E+03  0.7818608E-02  0.1235069E+00
          4   -1    0    0  501    0  0.00000000000E+00  0.00000000000E+00  0.25009272851E+02  0.25041498128E+02  0.12700000000E+01 0.  1.
         -4   -1    0    0    0  501 -0.00000000000E+00 -0.00000000000E+00 -0.15605742297E+03  0.15606259054E+03  0.12700000000E+01 0.  1.
         25    2    1    2    0    0  0.00000000000E+00  0.00000000000E+00 -0.13104815012E+03  0.18110408867E+03  0.12500029312E+03 0.  0.
    9000005    1    3    3    0    0  0.32495854099E+02  0.52771461144E+02 -0.77156349756E+02  0.98969237405E+02  0.10000000000E+01 0.  0.
    9000005    1    3    3    0    0 -0.32495854099E+02 -0.52771461144E+02 -0.53891800368E+02  0.82134851261E+02  0.10000000000E+01 0.  0.
<mgrwt>
<rscale>  0 0.12500029E+03</rscale>
<asrwt>0</asrwt>
<pdfrwt beam="1">  1        4 0.38504569E-02 0.12500029E+03</pdfrwt>
<pdfrwt beam="2">  1       -4 0.24011710E-01 0.12500029E+03</pdfrwt>
<totfact> 0.93418027E+03</totfact>
</mgrwt>
</event>
<event>
 5    1  0.3257199E-002  0.1249975E+03  0.7818608E-02  0.1235073E+00
         -4   -1    0    0    0  501 -0.00000000000E+00  0.00000000000E+00  0.15166053725E+03  0.15166585462E+03  0.12700000000E+01 0.  1.
          4   -1    0    0  501    0  0.00000000000E+00 -0.00000000000E+00 -0.25734090462E+02  0.25765409213E+02  0.12700000000E+01 0.  1.
         25    2    1    2    0    0  0.00000000000E+00  0.00000000000E+00  0.12592644678E+03  0.17743126383E+03  0.12499753352E+03 0.  0.
    9000005    1    3    3    0    0  0.31209588782E+02 -0.48897566453E+02  0.29974924186E+02  0.65303189179E+02  0.10000000000E+01 0.  0.
    9000005    1    3    3    0    0 -0.31209588782E+02  0.48897566453E+02  0.95951522597E+02  0.11212807465E+03  0.10000000000E+01 0.  0.
<mgrwt>
<rscale>  0 0.12499753E+03</rscale>
<asrwt>0</asrwt>
<pdfrwt beam="2">  1        4 0.39619090E-02 0.12499753E+03</pdfrwt>
<pdfrwt beam="1">  1       -4 0.23335209E-01 0.12499753E+03</pdfrwt>
<totfact> 0.94086642E+03</totfact>
</mgrwt>
</event>
<event>
 5    1  0.3257199E-002  0.1249965E+03  0.7818608E-02  0.1235075E+00
          4   -1    0    0  501    0  0.00000000000E+00  0.00000000000E+00  0.98635457431E+01  0.99449703180E+01  0.12700000000E+01 0. -1.
         -4   -1    0    0    0  501 -0.00000000000E+00 -0.00000000000E+00 -0.39429679058E+03  0.39429883586E+03  0.12700000000E+01 0. -1.
         25    2    1    2    0    0  0.00000000000E+00  0.00000000000E+00 -0.38443324484E+03  0.40424380618E+03  0.12499654035E+03 0.  0.
    9000005    1    3    3    0    0 -0.28238997351E+02 -0.54617386371E+02 -0.15612643044E+03  0.16780036396E+03  0.10000000000E+01 0.  0.
    9000005    1    3    3    0    0  0.28238997351E+02  0.54617386371E+02 -0.22830681440E+03  0.23644344222E+03  0.10000000000E+01 0.  0.
<mgrwt>
<rscale>  0 0.12499654E+03</rscale>
<asrwt>0</asrwt>
<pdfrwt beam="1">  1        4 0.15238896E-02 0.12499654E+03</pdfrwt>
<pdfrwt beam="2">  1       -4 0.60667453E-01 0.12499654E+03</pdfrwt>
<totfact> 0.64147028E+03</totfact>
</mgrwt>
</event>
<event>
 5    1  0.3257199E-002  0.1250119E+03  0.7818608E-02  0.1235051E+00
          4   -1    0    0  501    0  0.00000000000E+00  0.00000000000E+00  0.15417054042E+01  0.19974372464E+01  0.12700000000E+01 0. -1.
         -4   -1    0    0    0  501 -0.00000000000E+00 -0.00000000000E+00 -0.22074206146E+04  0.22074209799E+04  0.12700000000E+01 0. -1.
         25    2    1    2    0    0  0.00000000000E+00  0.00000000000E+00 -0.22058789092E+04  0.22094184172E+04  0.12501192003E+03 0.  0.
    9000005    1    3    3    0    0  0.40727961100E+02  0.35755622191E+02 -0.55284727116E+03  0.55549827773E+03  0.10000000000E+01 0.  0.
    9000005    1    3    3    0    0 -0.40727961100E+02 -0.35755622191E+02 -0.16530316380E+04  0.16539201394E+04  0.10000000000E+01 0.  0.
<mgrwt>
<rscale>  0 0.12501192E+03</rscale>
<asrwt>0</asrwt>
<pdfrwt beam="1">  1        4 0.27227161E-03 0.12501192E+03</pdfrwt>
<pdfrwt beam="2">  1       -4 0.33963605E+00 0.12501192E+03</pdfrwt>
<totfact> 0.73677901E+02</totfact>
</mgrwt>
</event>
<event>
 5    1  0.3257199E-002  0.1250000E+03  0.7818608E-02  0.1235069E+00
          4   -1    0    0  501    0  0.00000000000E+00  0.00000000000E+00  0.87313282678E+01  0.88232076548E+01  0.12700000000E+01 0. -1.
         -4   -1    0    0    0  501 -0.00000000000E+00 -0.00000000000E+00 -0.44494879593E+03  0.44495060838E+03  0.12700000000E+01 0. -1.
         25    2    1    2    0    0  0.00000000000E+00  0.00000000000E+00 -0.43621746767E+03  0.45377381604E+03  0.12499998811E+03 0.  0.
    9000005    1    3    3    0    0  0.39375399956E+02 -0.10551851110E+02 -0.46163120262E+02  0.61593809396E+02  0.10000000000E+01 0.  0.
    9000005    1    3    3    0    0 -0.39375399956E+02  0.10551851110E+02 -0.39005434740E+03  0.39218000664E+03  0.10000000000E+01 0.  0.
<mgrwt>
<rscale>  0 0.12499999E+03</rscale>
<asrwt>0</asrwt>
<pdfrwt beam="1">  1        4 0.13504887E-02 0.12499999E+03</pdfrwt>
<pdfrwt beam="2">  1       -4 0.68460850E-01 0.12499999E+03</pdfrwt>
<totfact> 0.59638281E+03</totfact>
</mgrwt>
</event>
<event>
 5    1  0.3257199E-002  0.1249828E+03  0.7818608E-02  0.1235096E+00
          4   -1    0    0  501    0  0.00000000000E+00  0.00000000000E+00  0.65699590940E+03  0.65699713688E+03  0.12700000000E+01 0. -1.
         -4   -1    0    0    0  501 -0.00000000000E+00 -0.00000000000E+00 -0.58748984507E+01  0.60106016177E+01  0.12700000000E+01 0. -1.
         25    2    1    2    0    0  0.00000000000E+00  0.00000000000E+00  0.65112101095E+03  0.66300773850E+03  0.12498276044E+03 0.  0.
    9000005    1    3    3    0    0 -0.50632264103E+02  0.70265007731E+01  0.51617722547E+03  0.51870311930E+03  0.10000000000E+01 0.  0.
    9000005    1    3    3    0    0  0.50632264103E+02 -0.70265007731E+01  0.13494378548E+03  0.14430461919E+03  0.10000000000E+01 0.  0.
<mgrwt>
<rscale>  0 0.12498276E+03</rscale>
<asrwt>0</asrwt>
<pdfrwt beam="1">  1        4 0.10108689E+00 0.12498276E+03</pdfrwt>
<pdfrwt beam="2">  1       -4 0.91436312E-03 0.12498276E+03</pdfrwt>
<totfact> 0.45129629E+03</totfact>
</mgrwt>
</event>
<event>
 5    1  0.3257199E-002  0.1249991E+03  0.7818608E-02  0.1235071E+00
          4   -1    0    0  501    0  0.00000000000E+00  0.00000000000E+00  0.24580998103E+01  0.27667950190E+01  0.12700000000E+01 0.  1.
         -4   -1    0    0    0  501 -0.00000000000E+00 -0.00000000000E+00 -0.14949142810E+04  0.14949148205E+04  0.12700000000E+01 0.  1.
         25    2    1    2    0    0  0.00000000000E+00  0.00000000000E+00 -0.14924561812E+04  0.14976816155E+04  0.12499907431E+03 0.  0.
    9000005    1    3    3    0    0 -0.61054084919E+02 -0.99426400769E+01 -0.85254344169E+03  0.85478522293E+03  0.10000000000E+01 0.  0.
    9000005    1    3    3    0    0  0.61054084919E+02  0.99426400769E+01 -0.63991273952E+03  0.64289639257E+03  0.10000000000E+01 0.  0.
<mgrwt>
<rscale>  0 0.12499907E+03</rscale>
<asrwt>0</asrwt>
<pdfrwt beam="1">  1        4 0.40195768E-03 0.12499907E+03</pdfrwt>
<pdfrwt beam="2">  1       -4 0.23000992E+00 0.12499907E+03</pdfrwt>
<totfact> 0.17976521E+03</totfact>
</mgrwt>
</event>
<event>
 5    1  0.3257199E-002  0.1249969E+03  0.7818608E-02  0.1235074E+00
          4   -1    0    0  501    0  0.00000000000E+00  0.00000000000E+00  0.91200486328E+01  0.92080501229E+01  0.12700000000E+01 0. -1.
         -4   -1    0    0    0  501 -0.00000000000E+00 -0.00000000000E+00 -0.42614807255E+03  0.42614996496E+03  0.12700000000E+01 0. -1.
         25    2    1    2    0    0  0.00000000000E+00  0.00000000000E+00 -0.41702802392E+03  0.43535801509E+03  0.12499691423E+03 0.  0.
    9000005    1    3    3    0    0  0.20787022836E+02 -0.48538977094E+02 -0.92112353966E+02  0.10617823868E+03  0.10000000000E+01 0.  0.
    9000005    1    3    3    0    0 -0.20787022836E+02  0.48538977094E+02 -0.32491566995E+03  0.32917977641E+03  0.10000000000E+01 0.  0.
<mgrwt>
<rscale>  0 0.12499691E+03</rscale>
<asrwt>0</asrwt>
<pdfrwt beam="1">  1        4 0.14099996E-02 0.12499691E+03</pdfrwt>
<pdfrwt beam="2">  1       -4 0.65568142E-01 0.12499691E+03</pdfrwt>
<totfact> 0.61257479E+03</totfact>
</mgrwt>
</event>
<event>
 5    1  0.3257199E-002  0.1250002E+03  0.7818608E-02  0.1235069E+00
          4   -1    0    0  501    0  0.00000000000E+00  0.00000000000E+00  0.31866218825E+02  0.31891516148E+02  0.12700000000E+01 0.  1.
         -4   -1    0    0    0  501 -0.00000000000E+00 -0.00000000000E+00 -0.12250599471E+03  0.12251257748E+03  0.12700000000E+01 0.  1.
         25    2    1    2    0    0  0.00000000000E+00  0.00000000000E+00 -0.90639775889E+02  0.15440409363E+03  0.12500022062E+03 0.  0.
    9000005    1    3    3    0    0  0.42854218812E+02  0.45200433536E+02 -0.51581974214E+02  0.80878076916E+02  0.10000000000E+01 0.  0.
    9000005    1    3    3    0    0 -0.42854218812E+02 -0.45200433536E+02 -0.39057801675E+02  0.73526016712E+02  0.10000000000E+01 0.  0.
<mgrwt>
<rscale>  0 0.12500022E+03</rscale>
<asrwt>0</asrwt>
<pdfrwt beam="1">  1        4 0.49049476E-02 0.12500022E+03</pdfrwt>
<pdfrwt beam="2">  1       -4 0.18849528E-01 0.12500022E+03</pdfrwt>
<totfact> 0.98432121E+03</totfact>
</mgrwt>
</event>
<event>
 5    1  0.3257199E-002  0.1249935E+03  0.7818608E-02  0.1235080E+00
          4   -1    0    0  501    0  0.00000000000E+00  0.00000000000E+00  0.49290324246E+02  0.49306682754E+02  0.12700000000E+01 0. -1.
         -4   -1    0    0    0  501 -0.00000000000E+00 -0.00000000000E+00 -0.79206932329E+02  0.79217113233E+02  0.12700000000E+01 0. -1.
         25    2    1    2    0    0  0.00000000000E+00  0.00000000000E+00 -0.29916608083E+02  0.12852379599E+03  0.12499345061E+03 0.  0.
    9000005    1    3    3    0    0 -0.47880000551E+02  0.19828032116E+01  0.26279478591E+02  0.54662939515E+02  0.10000000000E+01 0.  0.
    9000005    1    3    3    0    0  0.47880000551E+02 -0.19828032116E+01 -0.56196086675E+02  0.73860856473E+02  0.10000000000E+01 0.  0.
<mgrwt>
<rscale>  0 0.12499345E+03</rscale>
<asrwt>0</asrwt>
<pdfrwt beam="1">  1        4 0.75851682E-02 0.12499345E+03</pdfrwt>
<pdfrwt beam="2">  1       -4 0.12187723E-01 0.12499345E+03</pdfrwt>
<totfact> 0.10377725E+04</totfact>
</mgrwt>
</event>
<event>
 5    1  0.3257199E-002  0.1250080E+03  0.7818608E-02  0.1235057E+00
         -4   -1    0    0    0  501 -0.00000000000E+00  0.00000000000E+00  0.89276554085E+01  0.90175346461E+01  0.12700000000E+01 0. -1.
          4   -1    0    0  501    0  0.00000000000E+00 -0.00000000000E+00 -0.43531822643E+03  0.43532007898E+03  0.12700000000E+01 0. -1.
         25    2    1    2    0    0  0.00000000000E+00  0.00000000000E+00 -0.42639057102E+03  0.44433761363E+03  0.12500798305E+03 0.  0.
    9000005    1    3    3    0    0 -0.77924907496E+01 -0.61932238864E+02 -0.22410690313E+03  0.23263969815E+03  0.10000000000E+01 0.  0.
    9000005    1    3    3    0    0  0.77924907496E+01  0.61932238864E+02 -0.20228366789E+03  0.21169791548E+03  0.10000000000E+01 0.  0.
<mgrwt>
<rscale>  0 0.12500798E+03</rscale>
<asrwt>0</asrwt>
<pdfrwt beam="2">  1        4 0.66979075E-01 0.12500798E+03</pdfrwt>
<pdfrwt beam="1">  1       -4 0.13805421E-02 0.12500798E+03</pdfrwt>
<totfact> 0.60446861E+03</totfact>
</mgrwt>
</event>
<event>
 5    1  0.3257199E-002  0.1250050E+03  0.7818608E-02  0.1235061E+00
         -4   -1    0    0    0  501 -0.00000000000E+00  0.00000000000E+00  0.26709077046E+02  0.26739253854E+02  0.12700000000E+01 0. -1.
          4   -1    0    0  501    0  0.00000000000E+00 -0.00000000000E+00 -0.14614802266E+03  0.14615354059E+03  0.12700000000E+01 0. -1.
         25    2    1    2    0    0  0.00000000000E+00  0.00000000000E+00 -0.11943894562E+03  0.17289279445E+03  0.12500502647E+03 0.  0.
    9000005    1    3    3    0    0 -0.94079597616E+01  0.30999108072E+02  0.14196256017E+02  0.35383443770E+02  0.10000000000E+01 0.  0.
    9000005    1    3    3    0    0  0.94079597616E+01 -0.30999108072E+02 -0.13363520163E+03  0.13750935068E+03  0.10000000000E+01 0.  0.
<mgrwt>
<rscale>  0 0.12500503E+03</rscale>
<asrwt>0</asrwt>
<pdfrwt beam="2">  1        4 0.22487057E-01 0.12500503E+03</pdfrwt>
<pdfrwt beam="1">  1       -4 0.41118346E-02 0.12500503E+03</pdfrwt>
<totfact> 0.94901489E+03</totfact>
</mgrwt>
</event>
<event>
 5    1  0.3257199E-002  0.1249983E+03  0.7818608E-02  0.1235072E+00
          4   -1    0    0  501    0  0.00000000000E+00  0.00000000000E+00  0.18165820394E+03  0.18166264327E+03  0.12700000000E+01 0.  1.
         -4   -1    0    0    0  501 -0.00000000000E+00 -0.00000000000E+00 -0.21479268140E+02  0.21516780890E+02  0.12700000000E+01 0.  1.
         25    2    1    2    0    0  0.00000000000E+00  0.00000000000E+00  0.16017893580E+03  0.20317942416E+03  0.12499834770E+03 0.  0.
    9000005    1    3    3    0    0 -0.18266268257E+02 -0.71356275723E+00  0.17722300926E+03  0.17816610435E+03  0.10000000000E+01 0.  0.
    9000005    1    3    3    0    0  0.18266268257E+02  0.71356275723E+00 -0.17044073458E+02  0.25013319809E+02  0.10000000000E+01 0.  0.
<mgrwt>
<rscale>  0 0.12499835E+03</rscale>
<asrwt>0</asrwt>
<pdfrwt beam="1">  1        4 0.27950644E-01 0.12499835E+03</pdfrwt>
<pdfrwt beam="2">  1       -4 0.33077298E-02 0.12499835E+03</pdfrwt>
<totfact> 0.89605338E+03</totfact>
</mgrwt>
</event>
<event>
 5    1  0.3257199E-002  0.1249973E+03  0.7818608E-02  0.1235074E+00
          4   -1    0    0  501    0  0.00000000000E+00  0.00000000000E+00  0.14425090941E+03  0.14425649991E+03  0.12700000000E+01 0.  1.
         -4   -1    0    0    0  501 -0.00000000000E+00 -0.00000000000E+00 -0.27057356556E+02  0.27087145361E+02  0.12700000000E+01 0.  1.
         25    2    1    2    0    0  0.00000000000E+00  0.00000000000E+00  0.11719355286E+03  0.17134364527E+03  0.12499726375E+03 0.  0.
    9000005    1    3    3    0    0  0.36631455767E+02  0.33564152701E+02  0.11055388360E+03  0.12120881600E+03  0.10000000000E+01 0.  0.
    9000005    1    3    3    0    0 -0.36631455767E+02 -0.33564152701E+02  0.66396692610E+01  0.50134829271E+02  0.10000000000E+01 0.  0.
<mgrwt>
<rscale>  0 0.12499726E+03</rscale>
<asrwt>0</asrwt>
<pdfrwt beam="1">  1        4 0.22195170E-01 0.12499726E+03</pdfrwt>
<pdfrwt beam="2">  1       -4 0.41653916E-02 0.12499726E+03</pdfrwt>
<totfact> 0.95204636E+03</totfact>
</mgrwt>
</event>
<event>
 5    1  0.3257199E-002  0.1249985E+03  0.7818608E-02  0.1235072E+00
         -4   -1    0    0    0  501 -0.00000000000E+00  0.00000000000E+00  0.17035664751E+02  0.17082938081E+02  0.12700000000E+01 0.  1.
          4   -1    0    0  501    0  0.00000000000E+00 -0.00000000000E+00 -0.22892604581E+03  0.22892956853E+03  0.12700000000E+01 0.  1.
         25    2    1    2    0    0  0.00000000000E+00  0.00000000000E+00 -0.21189038105E+03  0.24601250661E+03  0.12499847930E+03 0.  0.
    9000005    1    3    3    0    0  0.29998115234E+02  0.54685508783E+02 -0.11350728747E+03  0.12951948153E+03  0.10000000000E+01 0.  0.
    9000005    1    3    3    0    0 -0.29998115234E+02 -0.54685508783E+02 -0.98383093589E+02  0.11649302508E+03  0.10000000000E+01 0.  0.
<mgrwt>
<rscale>  0 0.12499848E+03</rscale>
<asrwt>0</asrwt>
<pdfrwt beam="2">  1        4 0.35223297E-01 0.12499848E+03</pdfrwt>
<pdfrwt beam="1">  1       -4 0.26247791E-02 0.12499848E+03</pdfrwt>
<totfact> 0.82912792E+03</totfact>
</mgrwt>
</event>
<event>
 5    1  0.3257199E-002  0.1250010E+03  0.7818608E-02  0.1235068E+00
         -4   -1    0    0    0  501 -0.00000000000E+00  0.00000000000E+00  0.36428120159E+01  0.38578464696E+01  0.12700000000E+01 0.  1.
          4   -1    0    0  501    0  0.00000000000E+00 -0.00000000000E+00 -0.10413764136E+04  0.10413771880E+04  0.12700000000E+01 0.  1.
         25    2    1    2    0    0  0.00000000000E+00  0.00000000000E+00 -0.10377336016E+04  0.10452350345E+04  0.12500099776E+03 0.  0.
    9000005    1    3    3    0    0 -0.39920892849E+02  0.47598209057E+02 -0.46212638492E+03  0.46628431544E+03  0.10000000000E+01 0.  0.
    9000005    1    3    3    0    0  0.39920892849E+02 -0.47598209057E+02 -0.57560721666E+03  0.57895071903E+03  0.10000000000E+01 0.  0.
<mgrwt>
<rscale>  0 0.12500100E+03</rscale>
<asrwt>0</asrwt>
<pdfrwt beam="2">  1        4 0.16022813E+00 0.12500100E+03</pdfrwt>
<pdfrwt beam="1">  1       -4 0.57703413E-03 0.12500100E+03</pdfrwt>
<totfact> 0.29143427E+03</totfact>
</mgrwt>
</event>
<event>
 5    1  0.3257199E-002  0.1249918E+03  0.7818608E-02  0.1235082E+00
          4   -1    0    0  501    0  0.00000000000E+00  0.00000000000E+00  0.37314483393E+02  0.37336089389E+02  0.12700000000E+01 0. -1.
         -4   -1    0    0    0  501 -0.00000000000E+00 -0.00000000000E+00 -0.10461498773E+03  0.10462269618E+03  0.12700000000E+01 0. -1.
         25    2    1    2    0    0  0.00000000000E+00  0.00000000000E+00 -0.67300504332E+02  0.14195878557E+03  0.12499175540E+03 0.  0.
    9000005    1    3    3    0    0 -0.57315461031E+02 -0.56078973640E+01 -0.61195858150E+02  0.84038346252E+02  0.10000000000E+01 0.  0.
    9000005    1    3    3    0    0  0.57315461031E+02  0.56078973640E+01 -0.61046461817E+01  0.57920439321E+02  0.10000000000E+01 0.  0.
<mgrwt>
<rscale>  0 0.12499176E+03</rscale>
<asrwt>0</asrwt>
<pdfrwt beam="1">  1        4 0.57429448E-02 0.12499176E+03</pdfrwt>
<pdfrwt beam="2">  1       -4 0.16096868E-01 0.12499176E+03</pdfrwt>
<totfact> 0.10095024E+04</totfact>
</mgrwt>
</event>
<event>
 5    1  0.3257199E-002  0.1249993E+03  0.7818608E-02  0.1235070E+00
          4   -1    0    0  501    0  0.00000000000E+00  0.00000000000E+00  0.39484480349E+03  0.39484684594E+03  0.12700000000E+01 0. -1.
         -4   -1    0    0    0  501 -0.00000000000E+00 -0.00000000000E+00 -0.98501844923E+01  0.99317186092E+01  0.12700000000E+01 0. -1.
         25    2    1    2    0    0  0.00000000000E+00  0.00000000000E+00  0.38499461900E+03  0.40477856454E+03  0.12499931862E+03 0.  0.
    9000005    1    3    3    0    0  0.26083885349E+01 -0.55804827307E+02  0.28318121049E+03  0.28864091951E+03  0.10000000000E+01 0.  0.
    9000005    1    3    3    0    0 -0.26083885349E+01  0.55804827307E+02  0.10181340851E+03  0.11613764503E+03  0.10000000000E+01 0.  0.
<mgrwt>
<rscale>  0 0.12499932E+03</rscale>
<asrwt>0</asrwt>
<pdfrwt beam="1">  1        4 0.60751783E-01 0.12499932E+03</pdfrwt>
<pdfrwt beam="2">  1       -4 0.15218420E-02 0.12499932E+03</pdfrwt>
<totfact> 0.64091632E+03</totfact>
</mgrwt>
</event>
<event>
 5    1  0.3257199E-002  0.1250002E+03  0.7818608E-02  0.1235069E+00
         -4   -1    0    0    0  501 -0.00000000000E+00  0.00000000000E+00  0.19505978081E+03  0.19506391514E+03  0.12700000000E+01 0.  1.
          4   -1    0    0  501    0  0.00000000000E+00 -0.00000000000E+00 -0.20001500294E+02  0.20041779213E+02  0.12700000000E+01 0.  1.
         25    2    1    2    0    0  0.00000000000E+00  0.00000000000E+00  0.17505828052E+03  0.21510569436E+03  0.12500023266E+03 0.  0.
    9000005    1    3    3    0    0 -0.51942102478E+02 -0.27848031709E+02  0.51771640239E+02  0.78452518206E+02  0.10000000000E+01 0.  0.
    9000005    1    3    3    0    0  0.51942102478E+02  0.27848031709E+02  0.12328664028E+03  0.13665317615E+03  0.10000000000E+01 0.  0.
<mgrwt>
<rscale>  0 0.12500023E+03</rscale>
<asrwt>0</asrwt>
<pdfrwt beam="2">  1        4 0.30805704E-02 0.12500023E+03</pdfrwt>
<pdfrwt beam="1">  1       -4 0.30012613E-01 0.12500023E+03</pdfrwt>
<totfact> 0.87648328E+03</totfact>
</mgrwt>
</event>
<event>
 5    1  0.3257199E-002  0.1249831E+03  0.7818608E-02  0.1235096E+00
          4   -1    0    0  501    0  0.00000000000E+00  0.00000000000E+00  0.59825819681E+03  0.59825954481E+03  0.12700000000E+01 0.  1.
         -4   -1    0    0    0  501 -0.00000000000E+00 -0.00000000000E+00 -0.64644680290E+01  0.65880381676E+01  0.12700000000E+01 0.  1.
         25    2    1    2    0    0  0.00000000000E+00  0.00000000000E+00  0.59179372879E+03  0.60484758298E+03  0.12498312367E+03 0.  0.
    9000005    1    3    3    0    0  0.22132983264E+02  0.43548460646E+01  0.57788938891E+03  0.57833033765E+03  0.10000000000E+01 0.  0.
    9000005    1    3    3    0    0 -0.22132983264E+02 -0.43548460646E+01  0.13904339879E+02  0.26517245330E+02  0.10000000000E+01 0.  0.
<mgrwt>
<rscale>  0 0.12498312E+03</rscale>
<asrwt>0</asrwt>
<pdfrwt beam="1">  1        4 0.92049304E-01 0.12498312E+03</pdfrwt>
<pdfrwt beam="2">  1       -4 0.10041429E-02 0.12498312E+03</pdfrwt>
<totfact> 0.48581024E+03</totfact>
</mgrwt>
</event>
<event>
 5    1  0.3257199E-002  0.1249987E+03  0.7818608E-02  0.1235071E+00
         -4   -1    0    0    0  501 -0.00000000000E+00  0.00000000000E+00  0.84156821312E+03  0.84156917139E+03  0.12700000000E+01 0. -1.
          4   -1    0    0  501    0  0.00000000000E+00 -0.00000000000E+00 -0.45536836203E+01  0.47274659718E+01  0.12700000000E+01 0. -1.
         25    2    1    2    0    0  0.00000000000E+00  0.00000000000E+00  0.83701452950E+03  0.84629663736E+03  0.12499870326E+03 0.  0.
    9000005    1    3    3    0    0  0.35756759462E+02  0.45597647769E+02  0.57692372132E+03  0.57982727734E+03  0.10000000000E+01 0.  0.
    9000005    1    3    3    0    0 -0.35756759462E+02 -0.45597647769E+02  0.26009080818E+03  0.26646936002E+03  0.10000000000E+01 0.  0.
<mgrwt>
<rscale>  0 0.12499870E+03</rscale>
<asrwt>0</asrwt>
<pdfrwt beam="2">  1        4 0.71400937E-03 0.12499870E+03</pdfrwt>
<pdfrwt beam="1">  1       -4 0.12948528E+00 0.12499870E+03</pdfrwt>
<totfact> 0.36280427E+03</totfact>
</mgrwt>
</event>
<event>
 5    1  0.3257199E-002  0.1249973E+03  0.7818608E-02  0.1235074E+00
         -4   -1    0    0    0  501 -0.00000000000E+00  0.00000000000E+00  0.36032070668E+03  0.36032294482E+03  0.12700000000E+01 0.  1.
          4   -1    0    0  501    0  0.00000000000E+00 -0.00000000000E+00 -0.10801085604E+02  0.10875493103E+02  0.12700000000E+01 0.  1.
         25    2    1    2    0    0  0.00000000000E+00  0.00000000000E+00  0.34951962107E+03  0.37119843792E+03  0.12499725916E+03 0.  0.
    9000005    1    3    3    0    0  0.26804914073E+02 -0.33906637664E+02  0.40732863646E+02  0.59399744755E+02  0.10000000000E+01 0.  0.
    9000005    1    3    3    0    0 -0.26804914073E+02  0.33906637664E+02  0.30878675743E+03  0.31179869317E+03  0.10000000000E+01 0.  0.
<mgrwt>
<rscale>  0 0.12499726E+03</rscale>
<asrwt>0</asrwt>
<pdfrwt beam="2">  1        4 0.16676013E-02 0.12499726E+03</pdfrwt>
<pdfrwt beam="1">  1       -4 0.55439850E-01 0.12499726E+03</pdfrwt>
<totfact> 0.67457830E+03</totfact>
</mgrwt>
</event>
<event>
 5    1  0.3257199E-002  0.1250043E+03  0.7818608E-02  0.1235063E+00
          4   -1    0    0  501    0  0.00000000000E+00  0.00000000000E+00  0.81283558624E+01  0.82269720448E+01  0.12700000000E+01 0.  1.
         -4   -1    0    0    0  501 -0.00000000000E+00 -0.00000000000E+00 -0.47760647291E+03  0.47760816143E+03  0.12700000000E+01 0.  1.
         25    2    1    2    0    0  0.00000000000E+00  0.00000000000E+00 -0.46947811705E+03  0.48583513347E+03  0.12500429806E+03 0.  0.
    9000005    1    3    3    0    0 -0.33142469028E+02 -0.24852371563E+02 -0.52881236870E+02  0.67182503961E+02  0.10000000000E+01 0.  0.
    9000005    1    3    3    0    0  0.33142469028E+02  0.24852371563E+02 -0.41659688018E+03  0.41865262951E+03  0.10000000000E+01 0.  0.
<mgrwt>
<rscale>  0 0.12500430E+03</rscale>
<asrwt>0</asrwt>
<pdfrwt beam="1">  1        4 0.12582324E-02 0.12500430E+03</pdfrwt>
<pdfrwt beam="2">  1       -4 0.73485613E-01 0.12500430E+03</pdfrwt>
<totfact> 0.56975004E+03</totfact>
</mgrwt>
</event>
<event>
 5    1  0.3257199E-002  0.1249969E+03  0.7818608E-02  0.1235074E+00
         -4   -1    0    0    0  501 -0.00000000000E+00  0.00000000000E+00  0.29906945161E+02  0.29933898324E+02  0.12700000000E+01 0. -1.
          4   -1    0    0  501    0  0.00000000000E+00 -0.00000000000E+00 -0.13051814972E+03  0.13052432840E+03  0.12700000000E+01 0. -1.
         25    2    1    2    0    0  0.00000000000E+00  0.00000000000E+00 -0.10061120456E+03  0.16045822673E+03  0.12499691213E+03 0.  0.
    9000005    1    3    3    0    0 -0.13730274187E+02  0.39176667312E+02 -0.11026575630E+03  0.11782558594E+03  0.10000000000E+01 0.  0.
    9000005    1    3    3    0    0  0.13730274187E+02 -0.39176667312E+02  0.96545517420E+01  0.42632640785E+02  0.10000000000E+01 0.  0.
<mgrwt>
<rscale>  0 0.12499691E+03</rscale>
<asrwt>0</asrwt>
<pdfrwt beam="2">  1        4 0.20082264E-01 0.12499691E+03</pdfrwt>
<pdfrwt beam="1">  1       -4 0.46036171E-02 0.12499691E+03</pdfrwt>
<totfact> 0.97261265E+03</totfact>
</mgrwt>
</event>
<event>
 5    1  0.3257199E-002  0.1250288E+03  0.7818608E-02  0.1235024E+00
          4   -1    0    0  501    0  0.00000000000E+00  0.00000000000E+00  0.14543622424E+03  0.14544176918E+03  0.12700000000E+01 0. -1.
         -4   -1    0    0    0  501 -0.00000000000E+00 -0.00000000000E+00 -0.26850162446E+02  0.26880180866E+02  0.12700000000E+01 0. -1.
         25    2    1    2    0    0  0.00000000000E+00  0.00000000000E+00  0.11858606180E+03  0.17232195005E+03  0.12502879834E+03 0.  0.
    9000005    1    3    3    0    0 -0.24273834383E+02  0.20594285720E+02  0.13343391843E+03  0.13718219355E+03  0.10000000000E+01 0.  0.
    9000005    1    3    3    0    0  0.24273834383E+02 -0.20594285720E+02 -0.14847856632E+02  0.35139756496E+02  0.10000000000E+01 0.  0.
<mgrwt>
<rscale>  0 0.12502880E+03</rscale>
<asrwt>0</asrwt>
<pdfrwt beam="1">  1        4 0.22377539E-01 0.12502880E+03</pdfrwt>
<pdfrwt beam="2">  1       -4 0.41335299E-02 0.12502880E+03</pdfrwt>
<totfact> 0.94956244E+03</totfact>
</mgrwt>
</event>
<event>
 5    1  0.3257199E-002  0.1250072E+03  0.7818608E-02  0.1235058E+00
          4   -1    0    0  501    0  0.00000000000E+00  0.00000000000E+00  0.17766173640E+03  0.17766627558E+03  0.12700000000E+01 0. -1.
         -4   -1    0    0    0  501 -0.00000000000E+00 -0.00000000000E+00 -0.21966381729E+02  0.22003064020E+02  0.12700000000E+01 0. -1.
         25    2    1    2    0    0  0.00000000000E+00  0.00000000000E+00  0.15569535467E+03  0.19966933960E+03  0.12500720664E+03 0.  0.
    9000005    1    3    3    0    0 -0.43658298662E+02 -0.27402643194E+01  0.14913900972E+03  0.15542522418E+03  0.10000000000E+01 0.  0.
    9000005    1    3    3    0    0  0.43658298662E+02  0.27402643194E+01  0.65563449468E+01  0.44244115424E+02  0.10000000000E+01 0.  0.
<mgrwt>
<rscale>  0 0.12500721E+03</rscale>
<asrwt>0</asrwt>
<pdfrwt beam="1">  1        4 0.27335746E-01 0.12500721E+03</pdfrwt>
<pdfrwt beam="2">  1       -4 0.33826142E-02 0.12500721E+03</pdfrwt>
<totfact> 0.90176760E+03</totfact>
</mgrwt>
</event>
<event>
 5    1  0.3257199E-002  0.1250008E+03  0.7818608E-02  0.1235068E+00
          4   -1    0    0  501    0  0.00000000000E+00  0.00000000000E+00  0.60013414511E+02  0.60026850836E+02  0.12700000000E+01 0.  1.
         -4   -1    0    0    0  501 -0.00000000000E+00 -0.00000000000E+00 -0.65063557238E+02  0.65075950861E+02  0.12700000000E+01 0.  1.
         25    2    1    2    0    0  0.00000000000E+00  0.00000000000E+00 -0.50501427268E+01  0.12510280170E+03  0.12500082820E+03 0.  0.
    9000005    1    3    3    0    0  0.25293558337E+02 -0.55825838587E+02  0.96919920984E+01  0.62058223131E+02  0.10000000000E+01 0.  0.
    9000005    1    3    3    0    0 -0.25293558337E+02  0.55825838587E+02 -0.14742134825E+02  0.63044578566E+02  0.10000000000E+01 0.  0.
<mgrwt>
<rscale>  0 0.12500083E+03</rscale>
<asrwt>0</asrwt>
<pdfrwt beam="1">  1        4 0.92348199E-02 0.12500083E+03</pdfrwt>
<pdfrwt beam="2">  1       -4 0.10011765E-01 0.12500083E+03</pdfrwt>
<totfact> 0.10450435E+04</totfact>
</mgrwt>
</event>
<event>
 5    1  0.3257199E-002  0.1249998E+03  0.7818608E-02  0.1235070E+00
         -4   -1    0    0    0  501 -0.00000000000E+00  0.00000000000E+00  0.59360991230E+02  0.59374575196E+02  0.12700000000E+01 0.  1.
          4   -1    0    0  501    0  0.00000000000E+00 -0.00000000000E+00 -0.65777511042E+02  0.65789770169E+02  0.12700000000E+01 0.  1.
         25    2    1    2    0    0  0.00000000000E+00  0.00000000000E+00 -0.64165198128E+01  0.12516434537E+03  0.12499976650E+03 0.  0.
    9000005    1    3    3    0    0  0.93179395413E+01  0.21896245149E+02 -0.61068125386E+02  0.65548344656E+02  0.10000000000E+01 0.  0.
    9000005    1    3    3    0    0 -0.93179395413E+01 -0.21896245149E+02  0.54651605573E+02  0.59616000710E+02  0.10000000000E+01 0.  0.
<mgrwt>
<rscale>  0 0.12499977E+03</rscale>
<asrwt>0</asrwt>
<pdfrwt beam="2">  1        4 0.10121605E-01 0.12499977E+03</pdfrwt>
<pdfrwt beam="1">  1       -4 0.91344481E-02 0.12499977E+03</pdfrwt>
<totfact> 0.10449349E+04</totfact>
</mgrwt>
</event>
<event>
 5    1  0.3257199E-002  0.1249998E+03  0.7818608E-02  0.1235070E+00
          4   -1    0    0  501    0  0.00000000000E+00  0.00000000000E+00  0.58866952197E+02  0.58880650141E+02  0.12700000000E+01 0.  1.
         -4   -1    0    0    0  501 -0.00000000000E+00 -0.00000000000E+00 -0.66329603121E+02  0.66341760228E+02  0.12700000000E+01 0.  1.
         25    2    1    2    0    0  0.00000000000E+00  0.00000000000E+00 -0.74626509234E+01  0.12522241037E+03  0.12499984360E+03 0.  0.
    9000005    1    3    3    0    0 -0.30945375209E+02 -0.22325630051E+02  0.45846086030E+02  0.59656630883E+02  0.10000000000E+01 0.  0.
    9000005    1    3    3    0    0  0.30945375209E+02  0.22325630051E+02 -0.53308736953E+02  0.65565779486E+02  0.10000000000E+01 0.  0.
<mgrwt>
<rscale>  0 0.12499984E+03</rscale>
<asrwt>0</asrwt>
<pdfrwt beam="1">  1        4 0.90584430E-02 0.12499984E+03</pdfrwt>
<pdfrwt beam="2">  1       -4 0.10206543E-01 0.12499984E+03</pdfrwt>
<totfact> 0.10448071E+04</totfact>
</mgrwt>
</event>
<event>
 5    1  0.3257199E-002  0.1250003E+03  0.7818608E-02  0.1235069E+00
          4   -1    0    0  501    0  0.00000000000E+00  0.00000000000E+00  0.32511667001E+02  0.32536462488E+02  0.12700000000E+01 0.  1.
         -4   -1    0    0    0  501 -0.00000000000E+00 -0.00000000000E+00 -0.12007574824E+03  0.12008246423E+03  0.12700000000E+01 0.  1.
         25    2    1    2    0    0  0.00000000000E+00  0.00000000000E+00 -0.87564081239E+02  0.15261892672E+03  0.12500027388E+03 0.  0.
    9000005    1    3    3    0    0  0.37589884610E+02  0.49767638998E+02 -0.48581130387E+02  0.79062908789E+02  0.10000000000E+01 0.  0.
    9000005    1    3    3    0    0 -0.37589884610E+02 -0.49767638998E+02 -0.38982950852E+02  0.73556017929E+02  0.10000000000E+01 0.  0.
<mgrwt>
<rscale>  0 0.12500027E+03</rscale>
<asrwt>0</asrwt>
<pdfrwt beam="1">  1        4 0.50042190E-02 0.12500027E+03</pdfrwt>
<pdfrwt beam="2">  1       -4 0.18475616E-01 0.12500027E+03</pdfrwt>
<totfact> 0.98783585E+03</totfact>
</mgrwt>
</event>
<event>
 5    1  0.3257199E-002  0.1250439E+03  0.7818608E-02  0.1235001E+00
          4   -1    0    0  501    0  0.00000000000E+00  0.00000000000E+00  0.58713366673E+02  0.58727100440E+02  0.12700000000E+01 0. -1.
         -4   -1    0    0    0  501 -0.00000000000E+00 -0.00000000000E+00 -0.66550046041E+02  0.66562162886E+02  0.12700000000E+01 0. -1.
         25    2    1    2    0    0  0.00000000000E+00  0.00000000000E+00 -0.78366793687E+01  0.12528926333E+03  0.12504393612E+03 0.  0.
    9000005    1    3    3    0    0 -0.42931639600E+02  0.30928508504E+02 -0.37274766978E+02  0.64731032514E+02  0.10000000000E+01 0.  0.
    9000005    1    3    3    0    0  0.42931639600E+02 -0.30928508504E+02  0.29438087609E+02  0.60558230812E+02  0.10000000000E+01 0.  0.
<mgrwt>
<rscale>  0 0.12504394E+03</rscale>
<asrwt>0</asrwt>
<pdfrwt beam="1">  1        4 0.90348141E-02 0.12504394E+03</pdfrwt>
<pdfrwt beam="2">  1       -4 0.10240457E-01 0.12504394E+03</pdfrwt>
<totfact> 0.10436217E+04</totfact>
</mgrwt>
</event>
<event>
 4    1  0.3257199E-002  0.1228877E+03  0.7818608E-02  0.1238408E+00
         -4   -1    0    0    0  501 -0.00000000000E+00  0.00000000000E+00  0.17429556572E+02  0.17475764427E+02  0.12700000000E+01 0. -1.
          4   -1    0    0  501    0  0.00000000000E+00 -0.00000000000E+00 -0.21627108391E+03  0.21627481276E+03  0.12700000000E+01 0. -1.
    9000005    1    1    2    0    0  0.44058678868E+02 -0.30878192760E+02 -0.43003067406E+02  0.68883189372E+02  0.10000000000E+01 0.  0.
    9000005    1    1    2    0    0 -0.44058678868E+02  0.30878192760E+02 -0.15583845993E+03  0.16486738782E+03  0.10000000000E+01 0.  0.
<mgrwt>
<rscale>  0 0.12288767E+03</rscale>
<asrwt>0</asrwt>
<pdfrwt beam="2">  1        4 0.33276314E-01 0.12288767E+03</pdfrwt>
<pdfrwt beam="1">  1       -4 0.26853117E-02 0.12288767E+03</pdfrwt>
<totfact> 0.88856480E+03</totfact>
</mgrwt>
</event>
<event>
 5    1  0.3257199E-002  0.1250012E+03  0.7818608E-02  0.1235067E+00
          4   -1    0    0  501    0  0.00000000000E+00  0.00000000000E+00  0.95327932492E+01  0.96170186197E+01  0.12700000000E+01 0. -1.
         -4   -1    0    0    0  501 -0.00000000000E+00 -0.00000000000E+00 -0.40788993352E+03  0.40789191064E+03  0.12700000000E+01 0. -1.
         25    2    1    2    0    0  0.00000000000E+00  0.00000000000E+00 -0.39835714027E+03  0.41750892926E+03  0.12500117923E+03 0.  0.
    9000005    1    3    3    0    0  0.44347344696E+02 -0.15430137690E+02 -0.33691412118E+03  0.34017187006E+03  0.10000000000E+01 0.  0.
    9000005    1    3    3    0    0 -0.44347344696E+02  0.15430137690E+02 -0.61443019091E+02  0.77337059200E+02  0.10000000000E+01 0.  0.
<mgrwt>
<rscale>  0 0.12500118E+03</rscale>
<asrwt>0</asrwt>
<pdfrwt beam="1">  1        4 0.14732149E-02 0.12500118E+03</pdfrwt>
<pdfrwt beam="2">  1       -4 0.62758915E-01 0.12500118E+03</pdfrwt>
<totfact> 0.62883155E+03</totfact>
</mgrwt>
</event>
<event>
 5    1  0.3257199E-002  0.1249996E+03  0.7818608E-02  0.1235070E+00
         -4   -1    0    0    0  501 -0.00000000000E+00  0.00000000000E+00  0.22855497256E+02  0.22890754789E+02  0.12700000000E+01 0.  1.
          4   -1    0    0  501    0  0.00000000000E+00 -0.00000000000E+00 -0.17074027022E+03  0.17074499341E+03  0.12700000000E+01 0.  1.
         25    2    1    2    0    0  0.00000000000E+00  0.00000000000E+00 -0.14788477296E+03  0.19363574820E+03  0.12499958762E+03 0.  0.
    9000005    1    3    3    0    0 -0.33367240455E+02 -0.25988349175E+02 -0.14520827476E+03  0.15124552915E+03  0.10000000000E+01 0.  0.
    9000005    1    3    3    0    0  0.33367240455E+02  0.25988349175E+02 -0.26764982022E+01  0.42390219049E+02  0.10000000000E+01 0.  0.
<mgrwt>
<rscale>  0 0.12499959E+03</rscale>
<asrwt>0</asrwt>
<pdfrwt beam="2">  1        4 0.26270808E-01 0.12499959E+03</pdfrwt>
<pdfrwt beam="1">  1       -4 0.35193059E-02 0.12499959E+03</pdfrwt>
<totfact> 0.91219370E+03</totfact>
</mgrwt>
</event>
<event>
 5    1  0.3257199E-002  0.1249965E+03  0.7818608E-02  0.1235075E+00
         -4   -1    0    0    0  501 -0.00000000000E+00  0.00000000000E+00  0.24508870149E+03  0.24509199191E+03  0.12700000000E+01 0. -1.
          4   -1    0    0  501    0  0.00000000000E+00 -0.00000000000E+00 -0.15908512260E+02  0.15959124735E+02  0.12700000000E+01 0. -1.
         25    2    1    2    0    0  0.00000000000E+00  0.00000000000E+00  0.22918018923E+03  0.26105111665E+03  0.12499650542E+03 0.  0.
    9000005    1    3    3    0    0 -0.48456283836E+02  0.39033777886E+02  0.12665708679E+03  0.14111932856E+03  0.10000000000E+01 0.  0.
    9000005    1    3    3    0    0  0.48456283836E+02 -0.39033777886E+02  0.10252310245E+03  0.11993178809E+03  0.10000000000E+01 0.  0.
<mgrwt>
<rscale>  0 0.12499651E+03</rscale>
<asrwt>0</asrwt>
<pdfrwt beam="2">  1        4 0.24516096E-02 0.12499651E+03</pdfrwt>
<pdfrwt beam="1">  1       -4 0.37710104E-01 0.12499651E+03</pdfrwt>
<totfact> 0.80765056E+03</totfact>
</mgrwt>
</event>
<event>
 5    1  0.3257199E-002  0.1250454E+03  0.7818608E-02  0.1234998E+00
          4   -1    0    0  501    0  0.00000000000E+00  0.00000000000E+00  0.59317495607E+02  0.59331089532E+02  0.12700000000E+01 0. -1.
         -4   -1    0    0    0  501 -0.00000000000E+00 -0.00000000000E+00 -0.65873824139E+02  0.65886065345E+02  0.12700000000E+01 0. -1.
         25    2    1    2    0    0  0.00000000000E+00  0.00000000000E+00 -0.65563285324E+01  0.12521715488E+03  0.12504539348E+03 0.  0.
    9000005    1    3    3    0    0 -0.55241726291E+02  0.27709258131E+02 -0.12705781441E+02  0.63102204334E+02  0.10000000000E+01 0.  0.
    9000005    1    3    3    0    0  0.55241726291E+02 -0.27709258131E+02  0.61494529082E+01  0.62114950543E+02  0.10000000000E+01 0.  0.
<mgrwt>
<rscale>  0 0.12504539E+03</rscale>
<asrwt>0</asrwt>
<pdfrwt beam="1">  1        4 0.91277558E-02 0.12504539E+03</pdfrwt>
<pdfrwt beam="2">  1       -4 0.10136422E-01 0.12504539E+03</pdfrwt>
<totfact> 0.10437437E+04</totfact>
</mgrwt>
</event>
<event>
 5    1  0.3257199E-002  0.1249999E+03  0.7818608E-02  0.1235069E+00
          4   -1    0    0  501    0  0.00000000000E+00  0.00000000000E+00  0.75691287591E+02  0.75701941304E+02  0.12700000000E+01 0. -1.
         -4   -1    0    0    0  501 -0.00000000000E+00 -0.00000000000E+00 -0.51585486173E+02  0.51601117078E+02  0.12700000000E+01 0. -1.
         25    2    1    2    0    0  0.00000000000E+00  0.00000000000E+00  0.24105801418E+02  0.12730305838E+03  0.12499991605E+03 0.  0.
    9000005    1    3    3    0    0  0.39693176529E+02 -0.48184235828E+02  0.91767001217E+01  0.63106898755E+02  0.10000000000E+01 0.  0.
    9000005    1    3    3    0    0 -0.39693176529E+02  0.48184235828E+02  0.14929101297E+02  0.64196159627E+02  0.10000000000E+01 0.  0.
<mgrwt>
<rscale>  0 0.12499992E+03</rscale>
<asrwt>0</asrwt>
<pdfrwt beam="1">  1        4 0.11646835E-01 0.12499992E+03</pdfrwt>
<pdfrwt beam="2">  1       -4 0.79382505E-02 0.12499992E+03</pdfrwt>
<totfact> 0.10402588E+04</totfact>
</mgrwt>
</event>
<event>
 5    1  0.3257199E-002  0.1250002E+03  0.7818608E-02  0.1235069E+00
         -4   -1    0    0    0  501 -0.00000000000E+00  0.00000000000E+00  0.78659563325E+02  0.78669815066E+02  0.12700000000E+01 0. -1.
          4   -1    0    0  501    0  0.00000000000E+00 -0.00000000000E+00 -0.49638763852E+02  0.49655007570E+02  0.12700000000E+01 0. -1.
         25    2    1    2    0    0  0.00000000000E+00  0.00000000000E+00  0.29020799473E+02  0.12832482264E+03  0.12500021321E+03 0.  0.
    9000005    1    3    3    0    0 -0.28988432981E+02  0.68367706834E+01  0.70909658620E+02  0.76917165611E+02  0.10000000000E+01 0.  0.
    9000005    1    3    3    0    0  0.28988432981E+02 -0.68367706834E+01 -0.41888859147E+02  0.51407657024E+02  0.10000000000E+01 0.  0.
<mgrwt>
<rscale>  0 0.12500021E+03</rscale>
<asrwt>0</asrwt>
<pdfrwt beam="2">  1        4 0.76387710E-02 0.12500021E+03</pdfrwt>
<pdfrwt beam="1">  1       -4 0.12103509E-01 0.12500021E+03</pdfrwt>
<totfact> 0.10380429E+04</totfact>
</mgrwt>
</event>
<event>
 5    1  0.3257199E-002  0.1249886E+03  0.7818608E-02  0.1235087E+00
          4   -1    0    0  501    0  0.00000000000E+00  0.00000000000E+00  0.26049429144E+03  0.26049738727E+03  0.12700000000E+01 0.  1.
         -4   -1    0    0    0  501 -0.00000000000E+00 -0.00000000000E+00 -0.14962712893E+02  0.15016513481E+02  0.12700000000E+01 0.  1.
         25    2    1    2    0    0  0.00000000000E+00  0.00000000000E+00  0.24553157855E+03  0.27551390075E+03  0.12498861325E+03 0.  0.
    9000005    1    3    3    0    0  0.15749508454E+02 -0.57193763405E+02  0.16603799880E+03  0.17632013678E+03  0.10000000000E+01 0.  0.
    9000005    1    3    3    0    0 -0.15749508454E+02  0.57193763405E+02  0.79493579751E+02  0.99193763970E+02  0.10000000000E+01 0.  0.
<mgrwt>
<rscale>  0 0.12498861E+03</rscale>
<asrwt>0</asrwt>
<pdfrwt beam="1">  1        4 0.40080423E-01 0.12498861E+03</pdfrwt>
<pdfrwt beam="2">  1       -4 0.23063324E-02 0.12498861E+03</pdfrwt>
<totfact> 0.78796660E+03</totfact>
</mgrwt>
</event>
<event>
 5    1  0.3257199E-002  0.1250012E+03  0.7818608E-02  0.1235067E+00
          4   -1    0    0  501    0  0.00000000000E+00  0.00000000000E+00  0.42857865675E+03  0.42858053843E+03  0.12700000000E+01 0. -1.
         -4   -1    0    0    0  501 -0.00000000000E+00 -0.00000000000E+00 -0.90684482514E+01  0.91569456528E+01  0.12700000000E+01 0. -1.
         25    2    1    2    0    0  0.00000000000E+00  0.00000000000E+00  0.41951020850E+03  0.43773748409E+03  0.12500115974E+03 0.  0.
    9000005    1    3    3    0    0 -0.48677033053E+02 -0.25912095398E+02  0.10679590043E+03  0.12019673283E+03  0.10000000000E+01 0.  0.
    9000005    1    3    3    0    0  0.48677033053E+02  0.25912095398E+02  0.31271430808E+03  0.31754075126E+03  0.10000000000E+01 0.  0.
<mgrwt>
<rscale>  0 0.12500116E+03</rscale>
<asrwt>0</asrwt>
<pdfrwt beam="1">  1        4 0.65942127E-01 0.12500116E+03</pdfrwt>
<pdfrwt beam="2">  1       -4 0.14020982E-02 0.12500116E+03</pdfrwt>
<totfact> 0.61039283E+03</totfact>
</mgrwt>
</event>
<event>
 5    1  0.3257199E-002  0.1250025E+03  0.7818608E-02  0.1235065E+00
         -4   -1    0    0    0  501 -0.00000000000E+00  0.00000000000E+00  0.19365403006E+01  0.23158342635E+01  0.12700000000E+01 0. -1.
          4   -1    0    0  501    0  0.00000000000E+00 -0.00000000000E+00 -0.18369032332E+04  0.18369036722E+04  0.12700000000E+01 0. -1.
         25    2    1    2    0    0  0.00000000000E+00  0.00000000000E+00 -0.18349666929E+04  0.18392195064E+04  0.12500251599E+03 0.  0.
    9000005    1    3    3    0    0  0.28960085148E+02  0.26740442121E+02 -0.16309980890E+04  0.16314746410E+04  0.10000000000E+01 0.  0.
    9000005    1    3    3    0    0 -0.28960085148E+02 -0.26740442121E+02 -0.20396860382E+03  0.20774486545E+03  0.10000000000E+01 0.  0.
<mgrwt>
<rscale>  0 0.12500252E+03</rscale>
<asrwt>0</asrwt>
<pdfrwt beam="2">  1        4 0.28262844E+00 0.12500252E+03</pdfrwt>
<pdfrwt beam="1">  1       -4 0.32714098E-03 0.12500252E+03</pdfrwt>
<totfact> 0.12108346E+03</totfact>
</mgrwt>
</event>
<event>
 5    1  0.3257199E-002  0.1250023E+03  0.7818608E-02  0.1235066E+00
          4   -1    0    0  501    0  0.00000000000E+00  0.00000000000E+00  0.89221618950E+02  0.89230657221E+02  0.12700000000E+01 0.  1.
         -4   -1    0    0    0  501 -0.00000000000E+00 -0.00000000000E+00 -0.43762567251E+02  0.43780991222E+02  0.12700000000E+01 0.  1.
         25    2    1    2    0    0  0.00000000000E+00  0.00000000000E+00  0.45459051699E+02  0.13301164844E+03  0.12500229294E+03 0.  0.
    9000005    1    3    3    0    0 -0.52870042685E+02 -0.33147280677E+02  0.19135274593E+02  0.65277426141E+02  0.10000000000E+01 0.  0.
    9000005    1    3    3    0    0  0.52870042685E+02  0.33147280677E+02  0.26323777106E+02  0.67734222302E+02  0.10000000000E+01 0.  0.
<mgrwt>
<rscale>  0 0.12500229E+03</rscale>
<asrwt>0</asrwt>
<pdfrwt beam="1">  1        4 0.13728515E-01 0.12500229E+03</pdfrwt>
<pdfrwt beam="2">  1       -4 0.67348151E-02 0.12500229E+03</pdfrwt>
<totfact> 0.10279621E+04</totfact>
</mgrwt>
</event>
<event>
 5    1  0.3257199E-002  0.1249972E+03  0.7818608E-02  0.1235074E+00
          4   -1    0    0  501    0  0.00000000000E+00  0.00000000000E+00  0.18369744838E+02  0.18413593496E+02  0.12700000000E+01 0. -1.
         -4   -1    0    0    0  501 -0.00000000000E+00 -0.00000000000E+00 -0.21233724635E+03  0.21234104428E+03  0.12700000000E+01 0. -1.
         25    2    1    2    0    0  0.00000000000E+00  0.00000000000E+00 -0.19396750151E+03  0.23075463777E+03  0.12499724482E+03 0.  0.
    9000005    1    3    3    0    0 -0.33145694830E+02  0.51185015280E+02 -0.12219707334E+03  0.13657110824E+03  0.10000000000E+01 0.  0.
    9000005    1    3    3    0    0  0.33145694830E+02 -0.51185015280E+02 -0.71770428171E+02  0.94183529531E+02  0.10000000000E+01 0.  0.
<mgrwt>
<rscale>  0 0.12499724E+03</rscale>
<asrwt>0</asrwt>
<pdfrwt beam="1">  1        4 0.28297799E-02 0.12499724E+03</pdfrwt>
<pdfrwt beam="2">  1       -4 0.32670932E-01 0.12499724E+03</pdfrwt>
<totfact> 0.85199094E+03</totfact>
</mgrwt>
</event>
<event>
 5    1  0.3257199E-002  0.1249985E+03  0.7818608E-02  0.1235072E+00
         -4   -1    0    0    0  501 -0.00000000000E+00  0.00000000000E+00  0.37119216367E+03  0.37119433626E+03  0.12700000000E+01 0.  1.
          4   -1    0    0  501    0  0.00000000000E+00 -0.00000000000E+00 -0.10482741776E+02  0.10559392745E+02  0.12700000000E+01 0.  1.
         25    2    1    2    0    0  0.00000000000E+00  0.00000000000E+00  0.36070942189E+03  0.38175372900E+03  0.12499849025E+03 0.  0.
    9000005    1    3    3    0    0  0.61589314808E+02 -0.40483382775E+01  0.15050554026E+03  0.16267313973E+03  0.10000000000E+01 0.  0.
    9000005    1    3    3    0    0 -0.61589314808E+02  0.40483382775E+01  0.21020388164E+03  0.21908058927E+03  0.10000000000E+01 0.  0.
<mgrwt>
<rscale>  0 0.12499849E+03</rscale>
<asrwt>0</asrwt>
<pdfrwt beam="2">  1        4 0.16187927E-02 0.12499849E+03</pdfrwt>
<pdfrwt beam="1">  1       -4 0.57112557E-01 0.12499849E+03</pdfrwt>
<totfact> 0.66369151E+03</totfact>
</mgrwt>
</event>
<event>
 5    1  0.3257199E-002  0.1250013E+03  0.7818608E-02  0.1235067E+00
          4   -1    0    0  501    0  0.00000000000E+00  0.00000000000E+00  0.73980785157E+02  0.73991685157E+02  0.12700000000E+01 0. -1.
         -4   -1    0    0    0  501 -0.00000000000E+00 -0.00000000000E+00 -0.52779578747E+02  0.52794856120E+02  0.12700000000E+01 0. -1.
         25    2    1    2    0    0  0.00000000000E+00  0.00000000000E+00  0.21201206409E+02  0.12678654128E+03  0.12500134358E+03 0.  0.
    9000005    1    3    3    0    0  0.15233245295E+02  0.37512935482E+02 -0.37682408995E+02  0.55319400199E+02  0.10000000000E+01 0.  0.
    9000005    1    3    3    0    0 -0.15233245295E+02 -0.37512935482E+02  0.58883615405E+02  0.71467141078E+02  0.10000000000E+01 0.  0.
<mgrwt>
<rscale>  0 0.12500134E+03</rscale>
<asrwt>0</asrwt>
<pdfrwt beam="1">  1        4 0.11383673E-01 0.12500134E+03</pdfrwt>
<pdfrwt beam="2">  1       -4 0.81219488E-02 0.12500134E+03</pdfrwt>
<totfact> 0.10413471E+04</totfact>
</mgrwt>
</event>
<event>
 5    1  0.3257199E-002  0.1249962E+03  0.7818608E-02  0.1235075E+00
         -4   -1    0    0    0  501 -0.00000000000E+00  0.00000000000E+00  0.80789059492E+03  0.80789159313E+03  0.12700000000E+01 0. -1.
          4   -1    0    0  501    0  0.00000000000E+00 -0.00000000000E+00 -0.47504073159E+01  0.49172420794E+01  0.12700000000E+01 0. -1.
         25    2    1    2    0    0  0.00000000000E+00  0.00000000000E+00  0.80314018760E+03  0.81280883521E+03  0.12499616658E+03 0.  0.
    9000005    1    3    3    0    0  0.74551958638E+01 -0.61809898596E+02  0.36657213062E+03  0.37182276753E+03  0.10000000000E+01 0.  0.
    9000005    1    3    3    0    0 -0.74551958638E+01  0.61809898596E+02  0.43656805699E+03  0.44098606768E+03  0.10000000000E+01 0.  0.
<mgrwt>
<rscale>  0 0.12499617E+03</rscale>
<asrwt>0</asrwt>
<pdfrwt beam="2">  1        4 0.74374215E-03 0.12499617E+03</pdfrwt>
<pdfrwt beam="1">  1       -4 0.12430377E+00 0.12499617E+03</pdfrwt>
<totfact> 0.37702422E+03</totfact>
</mgrwt>
</event>
<event>
 5    1  0.3257199E-002  0.1249964E+03  0.7818608E-02  0.1235075E+00
          4   -1    0    0  501    0  0.00000000000E+00  0.00000000000E+00  0.35910978766E+02  0.35933428669E+02  0.12700000000E+01 0. -1.
         -4   -1    0    0    0  501 -0.00000000000E+00 -0.00000000000E+00 -0.10870946582E+03  0.10871688396E+03  0.12700000000E+01 0. -1.
         25    2    1    2    0    0  0.00000000000E+00  0.00000000000E+00 -0.72798487052E+02  0.14465031263E+03  0.12499637286E+03 0.  0.
    9000005    1    3    3    0    0  0.41521482677E+02  0.29550717921E+02 -0.78248088459E+02  0.93386518304E+02  0.10000000000E+01 0.  0.
    9000005    1    3    3    0    0 -0.41521482677E+02 -0.29550717921E+02  0.54496014068E+01  0.51263794328E+02  0.10000000000E+01 0.  0.
<mgrwt>
<rscale>  0 0.12499637E+03</rscale>
<asrwt>0</asrwt>
<pdfrwt beam="1">  1        4 0.55270636E-02 0.12499637E+03</pdfrwt>
<pdfrwt beam="2">  1       -4 0.16726831E-01 0.12499637E+03</pdfrwt>
<totfact> 0.10038918E+04</totfact>
</mgrwt>
</event>
<event>
 5    1  0.3257199E-002  0.1249887E+03  0.7818608E-02  0.1235087E+00
         -4   -1    0    0    0  501 -0.00000000000E+00  0.00000000000E+00  0.33012962151E+01  0.35371537569E+01  0.12700000000E+01 0. -1.
          4   -1    0    0  501    0  0.00000000000E+00 -0.00000000000E+00 -0.11419948984E+04  0.11419956045E+04  0.12700000000E+01 0. -1.
         25    2    1    2    0    0  0.00000000000E+00  0.00000000000E+00 -0.11386936022E+04  0.11455327583E+04  0.12498872252E+03 0.  0.
    9000005    1    3    3    0    0  0.12101430713E+02 -0.61297236302E+02 -0.56141285251E+03  0.56487979851E+03  0.10000000000E+01 0.  0.
    9000005    1    3    3    0    0 -0.12101430713E+02  0.61297236302E+02 -0.57728074965E+03  0.58065295979E+03  0.10000000000E+01 0.  0.
<mgrwt>
<rscale>  0 0.12498872E+03</rscale>
<asrwt>0</asrwt>
<pdfrwt beam="2">  1        4 0.17570942E+00 0.12498872E+03</pdfrwt>
<pdfrwt beam="1">  1       -4 0.52608984E-03 0.12498872E+03</pdfrwt>
<totfact> 0.26191003E+03</totfact>
</mgrwt>
</event>
<event>
 5    1  0.3257199E-002  0.1249994E+03  0.7818608E-02  0.1235070E+00
         -4   -1    0    0    0  501 -0.00000000000E+00  0.00000000000E+00  0.81462695810E+03  0.81462794806E+03  0.12700000000E+01 0. -1.
          4   -1    0    0  501    0  0.00000000000E+00 -0.00000000000E+00 -0.47099933965E+01  0.48782105116E+01  0.12700000000E+01 0. -1.
         25    2    1    2    0    0  0.00000000000E+00  0.00000000000E+00  0.80991696470E+03  0.81950615857E+03  0.12499941690E+03 0.  0.
    9000005    1    3    3    0    0  0.39085356188E+02  0.28149958453E+01  0.72410049582E+03  0.72516075274E+03  0.10000000000E+01 0.  0.
    9000005    1    3    3    0    0 -0.39085356188E+02 -0.28149958453E+01  0.85816468883E+02  0.94345405831E+02  0.10000000000E+01 0.  0.
<mgrwt>
<rscale>  0 0.12499942E+03</rscale>
<asrwt>0</asrwt>
<pdfrwt beam="2">  1        4 0.73763000E-03 0.12499942E+03</pdfrwt>
<pdfrwt beam="1">  1       -4 0.12534029E+00 0.12499942E+03</pdfrwt>
<totfact> 0.37409079E+03</totfact>
</mgrwt>
</event>
<event>
 5    1  0.3257199E-002  0.1249974E+03  0.7818608E-02  0.1235073E+00
         -4   -1    0    0    0  501 -0.00000000000E+00  0.00000000000E+00  0.97139086423E+02  0.97147388082E+02  0.12700000000E+01 0. -1.
          4   -1    0    0  501    0  0.00000000000E+00 -0.00000000000E+00 -0.40191254800E+02  0.40211315105E+02  0.12700000000E+01 0. -1.
         25    2    1    2    0    0  0.00000000000E+00  0.00000000000E+00  0.56947831623E+02  0.13735870319E+03  0.12499743123E+03 0.  0.
    9000005    1    3    3    0    0  0.38775543661E+00  0.52607565075E+02  0.65534178873E+02  0.84044243455E+02  0.10000000000E+01 0.  0.
    9000005    1    3    3    0    0 -0.38775543661E+00 -0.52607565075E+02 -0.85863472498E+01  0.53314459732E+02  0.10000000000E+01 0.  0.
<mgrwt>
<rscale>  0 0.12499743E+03</rscale>
<asrwt>0</asrwt>
<pdfrwt beam="2">  1        4 0.61854517E-02 0.12499743E+03</pdfrwt>
<pdfrwt beam="1">  1       -4 0.14946656E-01 0.12499743E+03</pdfrwt>
<totfact> 0.10189181E+04</totfact>
</mgrwt>
</event>
<event>
 5    1  0.3257199E-002  0.1250032E+03  0.7818608E-02  0.1235064E+00
          4   -1    0    0  501    0  0.00000000000E+00  0.00000000000E+00  0.69570679792E+02  0.69582270635E+02  0.12700000000E+01 0.  1.
         -4   -1    0    0    0  501 -0.00000000000E+00 -0.00000000000E+00 -0.56127338279E+02  0.56141704661E+02  0.12700000000E+01 0.  1.
         25    2    1    2    0    0  0.00000000000E+00  0.00000000000E+00  0.13443341513E+02  0.12572397530E+03  0.12500317809E+03 0.  0.
    9000005    1    3    3    0    0 -0.51329529891E+02  0.14700839789E+02 -0.25940396802E+02  0.59369516720E+02  0.10000000000E+01 0.  0.
    9000005    1    3    3    0    0  0.51329529891E+02 -0.14700839789E+02  0.39383738315E+02  0.66354458576E+02  0.10000000000E+01 0.  0.
<mgrwt>
<rscale>  0 0.12500318E+03</rscale>
<asrwt>0</asrwt>
<pdfrwt beam="1">  1        4 0.10705178E-01 0.12500318E+03</pdfrwt>
<pdfrwt beam="2">  1       -4 0.86369719E-02 0.12500318E+03</pdfrwt>
<totfact> 0.10436268E+04</totfact>
</mgrwt>
</event>
<event>
 5    1  0.3257199E-002  0.1249549E+03  0.7818608E-02  0.1235140E+00
          4   -1    0    0  501    0  0.00000000000E+00  0.00000000000E+00  0.25978613163E+03  0.25978923590E+03  0.12700000000E+01 0. -1.
         -4   -1    0    0    0  501 -0.00000000000E+00 -0.00000000000E+00 -0.14995521240E+02  0.15049204539E+02  0.12700000000E+01 0. -1.
         25    2    1    2    0    0  0.00000000000E+00  0.00000000000E+00  0.24479061039E+03  0.27483844044E+03  0.12495489348E+03 0.  0.
    9000005    1    3    3    0    0 -0.42302740095E+02 -0.32726744651E+02  0.19339082025E+03  0.20065286191E+03  0.10000000000E+01 0.  0.
    9000005    1    3    3    0    0  0.42302740095E+02  0.32726744651E+02  0.51399790144E+02  0.74185578530E+02  0.10000000000E+01 0.  0.
<mgrwt>
<rscale>  0 0.12495489E+03</rscale>
<asrwt>0</asrwt>
<pdfrwt beam="1">  1        4 0.39971464E-01 0.12495489E+03</pdfrwt>
<pdfrwt beam="2">  1       -4 0.23113716E-02 0.12495489E+03</pdfrwt>
<totfact> 0.78946662E+03</totfact>
</mgrwt>
</event>
<event>
 5    1  0.3257199E-002  0.1250077E+03  0.7818608E-02  0.1235057E+00
         -4   -1    0    0    0  501 -0.00000000000E+00  0.00000000000E+00  0.53726431588E+02  0.53741439794E+02  0.12700000000E+01 0. -1.
          4   -1    0    0  501    0  0.00000000000E+00 -0.00000000000E+00 -0.72684582253E+02  0.72695676607E+02  0.12700000000E+01 0. -1.
         25    2    1    2    0    0  0.00000000000E+00  0.00000000000E+00 -0.18958150666E+02  0.12643711640E+03  0.12500773147E+03 0.  0.
    9000005    1    3    3    0    0 -0.25153588451E+01  0.12058847960E+02 -0.71449473502E+02  0.72510482746E+02  0.10000000000E+01 0.  0.
    9000005    1    3    3    0    0  0.25153588451E+01 -0.12058847960E+02  0.52491322837E+02  0.53926633655E+02  0.10000000000E+01 0.  0.
<mgrwt>
<rscale>  0 0.12500773E+03</rscale>
<asrwt>0</asrwt>
<pdfrwt beam="2">  1        4 0.11184251E-01 0.12500773E+03</pdfrwt>
<pdfrwt beam="1">  1       -4 0.82676128E-02 0.12500773E+03</pdfrwt>
<totfact> 0.10419581E+04</totfact>
</mgrwt>
</event>
<event>
 4    1  0.3257199E-002  0.1251301E+03  0.7818608E-02  0.1234866E+00
         -4   -1    0    0    0  501 -0.00000000000E+00  0.00000000000E+00  0.39169494669E+02  0.39190077987E+02  0.12700000000E+01 0. -1.
          4   -1    0    0  501    0  0.00000000000E+00 -0.00000000000E+00 -0.99883744989E+02  0.99891818549E+02  0.12700000000E+01 0. -1.
    9000005    1    1    2    0    0 -0.45452005763E+02  0.31380215432E+02 -0.63005390777E+02  0.83793090499E+02  0.10000000000E+01 0.  0.
    9000005    1    1    2    0    0  0.45452005763E+02 -0.31380215432E+02  0.22911404569E+01  0.55288806037E+02  0.10000000000E+01 0.  0.
<mgrwt>
<rscale>  0 0.12513015E+03</rscale>
<asrwt>0</asrwt>
<pdfrwt beam="2">  1        4 0.15368934E-01 0.12513015E+03</pdfrwt>
<pdfrwt beam="1">  1       -4 0.60282805E-02 0.12513015E+03</pdfrwt>
<totfact> 0.10122935E+04</totfact>
</mgrwt>
</event>
<event>
 5    1  0.3257199E-002  0.1250004E+03  0.7818608E-02  0.1235069E+00
         -4   -1    0    0    0  501 -0.00000000000E+00  0.00000000000E+00  0.34170202644E+01  0.36453981246E+01  0.12700000000E+01 0. -1.
          4   -1    0    0  501    0  0.00000000000E+00 -0.00000000000E+00 -0.11059863329E+04  0.11059870620E+04  0.12700000000E+01 0. -1.
         25    2    1    2    0    0  0.00000000000E+00  0.00000000000E+00 -0.11025693126E+04  0.11096324602E+04  0.12500043019E+03 0.  0.
    9000005    1    3    3    0    0  0.34857917027E+02  0.46970326216E+02 -0.74657747385E+03  0.74886594954E+03  0.10000000000E+01 0.  0.
    9000005    1    3    3    0    0 -0.34857917027E+02 -0.46970326216E+02 -0.35599183877E+03  0.36076651063E+03  0.10000000000E+01 0.  0.
<mgrwt>
<rscale>  0 0.12500043E+03</rscale>
<asrwt>0</asrwt>
<pdfrwt beam="2">  1        4 0.17016909E+00 0.12500043E+03</pdfrwt>
<pdfrwt beam="1">  1       -4 0.54331993E-03 0.12500043E+03</pdfrwt>
<totfact> 0.27202974E+03</totfact>
</mgrwt>
</event>
<event>
 5    1  0.3257199E-002  0.1249981E+03  0.7818608E-02  0.1235072E+00
          4   -1    0    0  501    0  0.00000000000E+00  0.00000000000E+00  0.37003591504E+01  0.39122318237E+01  0.12700000000E+01 0. -1.
         -4   -1    0    0    0  501 -0.00000000000E+00 -0.00000000000E+00 -0.10260176574E+04  0.10260184434E+04  0.12700000000E+01 0. -1.
         25    2    1    2    0    0  0.00000000000E+00  0.00000000000E+00 -0.10223172983E+04  0.10299306752E+04  0.12499814985E+03 0.  0.
    9000005    1    3    3    0    0  0.18236556200E+02 -0.59209513184E+02 -0.44381767123E+03  0.44812215269E+03  0.10000000000E+01 0.  0.
    9000005    1    3    3    0    0 -0.18236556200E+02  0.59209513184E+02 -0.57849962703E+03  0.58180852255E+03  0.10000000000E+01 0.  0.
<mgrwt>
<rscale>  0 0.12499815E+03</rscale>
<asrwt>0</asrwt>
<pdfrwt beam="1">  1        4 0.58564520E-03 0.12499815E+03</pdfrwt>
<pdfrwt beam="2">  1       -4 0.15786501E+00 0.12499815E+03</pdfrwt>
<totfact> 0.29631016E+03</totfact>
</mgrwt>
</event>
<event>
 5    1  0.3257199E-002  0.1250127E+03  0.7818608E-02  0.1235049E+00
         -4   -1    0    0    0  501 -0.00000000000E+00  0.00000000000E+00  0.43711351595E+01  0.45518921981E+01  0.12700000000E+01 0. -1.
          4   -1    0    0  501    0  0.00000000000E+00 -0.00000000000E+00 -0.87553983599E+03  0.87554075708E+03  0.12700000000E+01 0. -1.
         25    2    1    2    0    0  0.00000000000E+00  0.00000000000E+00 -0.87116870083E+03  0.88009264928E+03  0.12501266337E+03 0.  0.
    9000005    1    3    3    0    0  0.35346765516E+02 -0.35172368722E+02 -0.70083109429E+03  0.70260352410E+03  0.10000000000E+01 0.  0.
    9000005    1    3    3    0    0 -0.35346765516E+02  0.35172368722E+02 -0.17033760654E+03  0.17748912518E+03  0.10000000000E+01 0.  0.
<mgrwt>
<rscale>  0 0.12501266E+03</rscale>
<asrwt>0</asrwt>
<pdfrwt beam="2">  1        4 0.13471227E+00 0.12501266E+03</pdfrwt>
<pdfrwt beam="1">  1       -4 0.68645827E-03 0.12501266E+03</pdfrwt>
<totfact> 0.34916915E+03</totfact>
</mgrwt>
</event>
<event>
 5    1  0.3257199E-002  0.1249977E+03  0.7818608E-02  0.1235073E+00
         -4   -1    0    0    0  501 -0.00000000000E+00  0.00000000000E+00  0.94648283493E+01  0.95496531708E+01  0.12700000000E+01 0.  1.
          4   -1    0    0  501    0  0.00000000000E+00 -0.00000000000E+00 -0.41077034091E+03  0.41077230417E+03  0.12700000000E+01 0.  1.
         25    2    1    2    0    0  0.00000000000E+00  0.00000000000E+00 -0.40130551257E+03  0.42032195734E+03  0.12499773362E+03 0.  0.
    9000005    1    3    3    0    0 -0.52229435681E+02 -0.34155286976E+02 -0.21160626955E+03  0.22061892687E+03  0.10000000000E+01 0.  0.
    9000005    1    3    3    0    0  0.52229435681E+02  0.34155286976E+02 -0.18969924301E+03  0.19970303047E+03  0.10000000000E+01 0.  0.
<mgrwt>
<rscale>  0 0.12499773E+03</rscale>
<asrwt>0</asrwt>
<pdfrwt beam="2">  1        4 0.63202099E-01 0.12499773E+03</pdfrwt>
<pdfrwt beam="1">  1       -4 0.14628038E-02 0.12499773E+03</pdfrwt>
<totfact> 0.62626289E+03</totfact>
</mgrwt>
</event>
<event>
 5    1  0.3257199E-002  0.1250020E+03  0.7818608E-02  0.1235066E+00
          4   -1    0    0  501    0  0.00000000000E+00  0.00000000000E+00  0.78475306553E+01  0.79496312736E+01  0.12700000000E+01 0. -1.
         -4   -1    0    0    0  501 -0.00000000000E+00 -0.00000000000E+00 -0.49446345667E+03  0.49446508763E+03  0.12700000000E+01 0. -1.
         25    2    1    2    0    0  0.00000000000E+00  0.00000000000E+00 -0.48661592601E+03  0.50241471890E+03  0.12500196125E+03 0.  0.
    9000005    1    3    3    0    0 -0.53658908005E+01 -0.55788957306E+02 -0.13220104569E+03  0.14359427921E+03  0.10000000000E+01 0.  0.
    9000005    1    3    3    0    0  0.53658908005E+01  0.55788957306E+02 -0.35441488033E+03  0.35882043969E+03  0.10000000000E+01 0.  0.
<mgrwt>
<rscale>  0 0.12500196E+03</rscale>
<asrwt>0</asrwt>
<pdfrwt beam="1">  1        4 0.12152921E-02 0.12500196E+03</pdfrwt>
<pdfrwt beam="2">  1       -4 0.76079256E-01 0.12500196E+03</pdfrwt>
<totfact> 0.55675109E+03</totfact>
</mgrwt>
</event>
<event>
 5    1  0.3257199E-002  0.1249952E+03  0.7818608E-02  0.1235077E+00
         -4   -1    0    0    0  501 -0.00000000000E+00  0.00000000000E+00  0.13462941717E+04  0.13462947708E+04  0.12700000000E+01 0. -1.
          4   -1    0    0  501    0  0.00000000000E+00 -0.00000000000E+00 -0.27616499304E+01  0.30396727353E+01  0.12700000000E+01 0. -1.
         25    2    1    2    0    0  0.00000000000E+00  0.00000000000E+00  0.13435325218E+04  0.13493344435E+04  0.12499521282E+03 0.  0.
    9000005    1    3    3    0    0 -0.43374755621E+02 -0.44963183902E+02  0.65691182896E+03  0.65987666148E+03  0.10000000000E+01 0.  0.
    9000005    1    3    3    0    0  0.43374755621E+02  0.44963183902E+02  0.68662069286E+03  0.68945778202E+03  0.10000000000E+01 0.  0.
<mgrwt>
<rscale>  0 0.12499521E+03</rscale>
<asrwt>0</asrwt>
<pdfrwt beam="2">  1        4 0.44630103E-03 0.12499521E+03</pdfrwt>
<pdfrwt beam="1">  1       -4 0.20714391E+00 0.12499521E+03</pdfrwt>
<totfact> 0.21095345E+03</totfact>
</mgrwt>
</event>
<event>
 5    1  0.3257199E-002  0.1250063E+03  0.7818608E-02  0.1235059E+00
          4   -1    0    0  501    0  0.00000000000E+00  0.00000000000E+00  0.78591739836E+03  0.78591842449E+03  0.12700000000E+01 0. -1.
         -4   -1    0    0    0  501 -0.00000000000E+00 -0.00000000000E+00 -0.48886462646E+01  0.50509169762E+01  0.12700000000E+01 0. -1.
         25    2    1    2    0    0  0.00000000000E+00  0.00000000000E+00  0.78102875210E+03  0.79096934146E+03  0.12500634997E+03 0.  0.
    9000005    1    3    3    0    0  0.20597433930E+01  0.57246504048E+02  0.54860427005E+03  0.55158775356E+03  0.10000000000E+01 0.  0.
    9000005    1    3    3    0    0 -0.20597433930E+01 -0.57246504048E+02  0.23242448205E+03  0.23938158790E+03  0.10000000000E+01 0.  0.
<mgrwt>
<rscale>  0 0.12500635E+03</rscale>
<asrwt>0</asrwt>
<pdfrwt beam="1">  1        4 0.12092281E+00 0.12500635E+03</pdfrwt>
<pdfrwt beam="2">  1       -4 0.76466148E-03 0.12500635E+03</pdfrwt>
<totfact> 0.38665742E+03</totfact>
</mgrwt>
</event>
<event>
 5    1  0.3257199E-002  0.1249960E+03  0.7818608E-02  0.1235075E+00
         -4   -1    0    0    0  501 -0.00000000000E+00  0.00000000000E+00  0.49739437116E+03  0.49739599251E+03  0.12700000000E+01 0.  1.
          4   -1    0    0  501    0  0.00000000000E+00 -0.00000000000E+00 -0.77999357656E+01  0.79026513239E+01  0.12700000000E+01 0.  1.
         25    2    1    2    0    0  0.00000000000E+00  0.00000000000E+00  0.48959443540E+03  0.50529864383E+03  0.12499603309E+03 0.  0.
    9000005    1    3    3    0    0 -0.48183690183E+02 -0.39592494546E+02  0.26084985437E+03  0.26820305768E+03  0.10000000000E+01 0.  0.
    9000005    1    3    3    0    0  0.48183690183E+02  0.39592494546E+02  0.22874458103E+03  0.23709558615E+03  0.10000000000E+01 0.  0.
<mgrwt>
<rscale>  0 0.12499603E+03</rscale>
<asrwt>0</asrwt>
<pdfrwt beam="2">  1        4 0.12080155E-02 0.12499603E+03</pdfrwt>
<pdfrwt beam="1">  1       -4 0.76530268E-01 0.12499603E+03</pdfrwt>
<totfact> 0.55460408E+03</totfact>
</mgrwt>
</event>
<event>
 5    1  0.3257199E-002  0.1249941E+03  0.7818608E-02  0.1235079E+00
          4   -1    0    0  501    0  0.00000000000E+00  0.00000000000E+00  0.16210111816E+04  0.16210116791E+04  0.12700000000E+01 0.  1.
         -4   -1    0    0    0  501 -0.00000000000E+00 -0.00000000000E+00 -0.22416540311E+01  0.25764147172E+01  0.12700000000E+01 0.  1.
         25    2    1    2    0    0  0.00000000000E+00  0.00000000000E+00  0.16187695276E+04  0.16235880938E+04  0.12499405983E+03 0.  0.
    9000005    1    3    3    0    0  0.32520086992E+02 -0.90136653284E+01  0.14925387067E+04  0.14929204913E+04  0.10000000000E+01 0.  0.
    9000005    1    3    3    0    0 -0.32520086992E+02  0.90136653284E+01  0.12623082085E+03  0.13066760254E+03  0.10000000000E+01 0.  0.
<mgrwt>
<rscale>  0 0.12499406E+03</rscale>
<asrwt>0</asrwt>
<pdfrwt beam="1">  1        4 0.24941093E+00 0.12499406E+03</pdfrwt>
<pdfrwt beam="2">  1       -4 0.37066072E-03 0.12499406E+03</pdfrwt>
<totfact> 0.15625642E+03</totfact>
</mgrwt>
</event>
<event>
 5    1  0.3257199E-002  0.1250384E+03  0.7818608E-02  0.1235009E+00
          4   -1    0    0  501    0  0.00000000000E+00  0.00000000000E+00  0.63052091652E+02  0.63064880573E+02  0.12700000000E+01 0. -1.
         -4   -1    0    0    0  501 -0.00000000000E+00 -0.00000000000E+00 -0.61965278676E+02  0.61978291856E+02  0.12700000000E+01 0. -1.
         25    2    1    2    0    0  0.00000000000E+00  0.00000000000E+00  0.10868129764E+01  0.12504317243E+03  0.12503844932E+03 0.  0.
    9000005    1    3    3    0    0 -0.57360217147E+02 -0.18159148360E+02  0.17505894728E+02  0.62669015714E+02  0.10000000000E+01 0.  0.
    9000005    1    3    3    0    0  0.57360217147E+02  0.18159148360E+02 -0.16419081752E+02  0.62374156715E+02  0.10000000000E+01 0.  0.
<mgrwt>
<rscale>  0 0.12503845E+03</rscale>
<asrwt>0</asrwt>
<pdfrwt beam="1">  1        4 0.97023066E-02 0.12503845E+03</pdfrwt>
<pdfrwt beam="2">  1       -4 0.95351045E-02 0.12503845E+03</pdfrwt>
<totfact> 0.10442848E+04</totfact>
</mgrwt>
</event>
<event>
 5    1  0.3257199E-002  0.1250008E+03  0.7818608E-02  0.1235068E+00
          4   -1    0    0  501    0  0.00000000000E+00  0.00000000000E+00  0.37646856286E+01  0.39731294822E+01  0.12700000000E+01 0. -1.
         -4   -1    0    0    0  501 -0.00000000000E+00 -0.00000000000E+00 -0.10094567136E+04  0.10094575125E+04  0.12700000000E+01 0. -1.
         25    2    1    2    0    0  0.00000000000E+00  0.00000000000E+00 -0.10056920279E+04  0.10134306419E+04  0.12500084389E+03 0.  0.
    9000005    1    3    3    0    0  0.58600885439E+02 -0.13001281949E+02 -0.36190663078E+03  0.36685215893E+03  0.10000000000E+01 0.  0.
    9000005    1    3    3    0    0 -0.58600885439E+02  0.13001281949E+02 -0.64378539715E+03  0.64657848301E+03  0.10000000000E+01 0.  0.
<mgrwt>
<rscale>  0 0.12500084E+03</rscale>
<asrwt>0</asrwt>
<pdfrwt beam="1">  1        4 0.59527881E-03 0.12500084E+03</pdfrwt>
<pdfrwt beam="2">  1       -4 0.15531692E+00 0.12500084E+03</pdfrwt>
<totfact> 0.30164086E+03</totfact>
</mgrwt>
</event>
<event>
 5    1  0.3257199E-002  0.1249895E+03  0.7818608E-02  0.1235086E+00
         -4   -1    0    0    0  501 -0.00000000000E+00  0.00000000000E+00  0.46539002320E+03  0.46539175605E+03  0.12700000000E+01 0. -1.
          4   -1    0    0  501    0  0.00000000000E+00 -0.00000000000E+00 -0.83422857137E+01  0.84384021549E+01  0.12700000000E+01 0. -1.
         25    2    1    2    0    0  0.00000000000E+00  0.00000000000E+00  0.45704773749E+03  0.47383015820E+03  0.12498953747E+03 0.  0.
    9000005    1    3    3    0    0 -0.57484575702E+02  0.91687431816E+01  0.31464238498E+03  0.31998339444E+03  0.10000000000E+01 0.  0.
    9000005    1    3    3    0    0  0.57484575702E+02 -0.91687431816E+01  0.14240535251E+03  0.15384676376E+03  0.10000000000E+01 0.  0.
<mgrwt>
<rscale>  0 0.12498954E+03</rscale>
<asrwt>0</asrwt>
<pdfrwt beam="2">  1        4 0.12909555E-02 0.12498954E+03</pdfrwt>
<pdfrwt beam="1">  1       -4 0.71605988E-01 0.12498954E+03</pdfrwt>
<totfact> 0.57966922E+03</totfact>
</mgrwt>
</event>
<event>
 5    1  0.3257199E-002  0.1250003E+03  0.7818608E-02  0.1235069E+00
         -4   -1    0    0    0  501 -0.00000000000E+00  0.00000000000E+00  0.16246626738E+02  0.16296189136E+02  0.12700000000E+01 0. -1.
          4   -1    0    0  501    0  0.00000000000E+00 -0.00000000000E+00 -0.24001825823E+03  0.24002161816E+03  0.12700000000E+01 0. -1.
         25    2    1    2    0    0  0.00000000000E+00  0.00000000000E+00 -0.22377163149E+03  0.25631780729E+03  0.12500030110E+03 0.  0.
    9000005    1    3    3    0    0  0.55353662059E+02  0.42880784786E+01 -0.53065286572E+02  0.76807162161E+02  0.10000000000E+01 0.  0.
    9000005    1    3    3    0    0 -0.55353662059E+02 -0.42880784786E+01 -0.17070634492E+03  0.17951064513E+03  0.10000000000E+01 0.  0.
<mgrwt>
<rscale>  0 0.12500030E+03</rscale>
<asrwt>0</asrwt>
<pdfrwt beam="2">  1        4 0.36929954E-01 0.12500030E+03</pdfrwt>
<pdfrwt beam="1">  1       -4 0.25035522E-02 0.12500030E+03</pdfrwt>
<totfact> 0.81425052E+03</totfact>
</mgrwt>
</event>
<event>
 5    1  0.3257199E-002  0.1250025E+03  0.7818608E-02  0.1235065E+00
          4   -1    0    0  501    0  0.00000000000E+00  0.00000000000E+00  0.37182332085E+02  0.37204014828E+02  0.12700000000E+01 0. -1.
         -4   -1    0    0    0  501 -0.00000000000E+00 -0.00000000000E+00 -0.10500464702E+03  0.10501232688E+03  0.12700000000E+01 0. -1.
         25    2    1    2    0    0  0.00000000000E+00  0.00000000000E+00 -0.67822314940E+02  0.14221634171E+03  0.12500248576E+03 0.  0.
    9000005    1    3    3    0    0 -0.16155430934E+02 -0.10864753877E+02  0.33649591614E+02  0.38888762403E+02  0.10000000000E+01 0.  0.
    9000005    1    3    3    0    0  0.16155430934E+02  0.10864753877E+02 -0.10147190655E+03  0.10332757931E+03  0.10000000000E+01 0.  0.
<mgrwt>
<rscale>  0 0.12500249E+03</rscale>
<asrwt>0</asrwt>
<pdfrwt beam="1">  1        4 0.57226175E-02 0.12500249E+03</pdfrwt>
<pdfrwt beam="2">  1       -4 0.16156820E-01 0.12500249E+03</pdfrwt>
<totfact> 0.10087291E+04</totfact>
</mgrwt>
</event>
<event>
 5    1  0.3257199E-002  0.1250031E+03  0.7818608E-02  0.1235064E+00
         -4   -1    0    0    0  501 -0.00000000000E+00  0.00000000000E+00  0.62167484027E+02  0.62180454890E+02  0.12700000000E+01 0.  1.
          4   -1    0    0  501    0  0.00000000000E+00 -0.00000000000E+00 -0.62811434104E+02  0.62824272015E+02  0.12700000000E+01 0.  1.
         25    2    1    2    0    0  0.00000000000E+00  0.00000000000E+00 -0.64395007673E+00  0.12500472690E+03  0.12500306827E+03 0.  0.
    9000005    1    3    3    0    0 -0.13181893533E+02 -0.10401640581E+02  0.59874216571E+02  0.62192268441E+02  0.10000000000E+01 0.  0.
    9000005    1    3    3    0    0  0.13181893533E+02  0.10401640581E+02 -0.60518166647E+02  0.62812458464E+02  0.10000000000E+01 0.  0.
<mgrwt>
<rscale>  0 0.12500307E+03</rscale>
<asrwt>0</asrwt>
<pdfrwt beam="2">  1        4 0.96652829E-02 0.12500307E+03</pdfrwt>
<pdfrwt beam="1">  1       -4 0.95662136E-02 0.12500307E+03</pdfrwt>
<totfact> 0.10452035E+04</totfact>
</mgrwt>
</event>
<event>
 5    1  0.3257199E-002  0.1250004E+03  0.7818608E-02  0.1235069E+00
         -4   -1    0    0    0  501 -0.00000000000E+00  0.00000000000E+00  0.47615934388E+03  0.47616103753E+03  0.12700000000E+01 0. -1.
          4   -1    0    0  501    0  0.00000000000E+00 -0.00000000000E+00 -0.81528439396E+01  0.82511674509E+01  0.12700000000E+01 0. -1.
         25    2    1    2    0    0  0.00000000000E+00  0.00000000000E+00  0.46800649994E+03  0.48441220498E+03  0.12500040140E+03 0.  0.
    9000005    1    3    3    0    0 -0.16384379438E+02  0.41812185650E+02  0.40241408159E+03  0.40491332384E+03  0.10000000000E+01 0.  0.
    9000005    1    3    3    0    0  0.16384379438E+02 -0.41812185650E+02  0.65592418343E+02  0.79498881140E+02  0.10000000000E+01 0.  0.
<mgrwt>
<rscale>  0 0.12500040E+03</rscale>
<asrwt>0</asrwt>
<pdfrwt beam="2">  1        4 0.12619776E-02 0.12500040E+03</pdfrwt>
<pdfrwt beam="1">  1       -4 0.73262963E-01 0.12500040E+03</pdfrwt>
<totfact> 0.57093902E+03</totfact>
</mgrwt>
</event>
<event>
 5    1  0.3257199E-002  0.1250035E+03  0.7818608E-02  0.1235064E+00
         -4   -1    0    0    0  501 -0.00000000000E+00  0.00000000000E+00  0.70305263230E+02  0.70316732986E+02  0.12700000000E+01 0.  1.
          4   -1    0    0  501    0  0.00000000000E+00 -0.00000000000E+00 -0.55541124347E+02  0.55555642321E+02  0.12700000000E+01 0.  1.
         25    2    1    2    0    0  0.00000000000E+00  0.00000000000E+00  0.14764138882E+02  0.12587237531E+03  0.12500350023E+03 0.  0.
    9000005    1    3    3    0    0 -0.26853202965E+02  0.25390866739E+02  0.58127576290E+02  0.68888357134E+02  0.10000000000E+01 0.  0.
    9000005    1    3    3    0    0  0.26853202965E+02 -0.25390866739E+02 -0.43363437408E+02  0.56984018173E+02  0.10000000000E+01 0.  0.
<mgrwt>
<rscale>  0 0.12500350E+03</rscale>
<asrwt>0</asrwt>
<pdfrwt beam="2">  1        4 0.85467874E-02 0.12500350E+03</pdfrwt>
<pdfrwt beam="1">  1       -4 0.10818193E-01 0.12500350E+03</pdfrwt>
<totfact> 0.10432932E+04</totfact>
</mgrwt>
</event>
<event>
 5    1  0.3257199E-002  0.1249970E+03  0.7818608E-02  0.1235074E+00
          4   -1    0    0  501    0  0.00000000000E+00  0.00000000000E+00  0.37201016539E+03  0.37201233320E+03  0.12700000000E+01 0. -1.
         -4   -1    0    0    0  501 -0.00000000000E+00 -0.00000000000E+00 -0.10459265484E+02  0.10536087247E+02  0.12700000000E+01 0. -1.
         25    2    1    2    0    0  0.00000000000E+00  0.00000000000E+00  0.36155089991E+03  0.38254842045E+03  0.12499696302E+03 0.  0.
    9000005    1    3    3    0    0 -0.50459292871E+02  0.31106201112E+02  0.12023365284E+03  0.13405546337E+03  0.10000000000E+01 0.  0.
    9000005    1    3    3    0    0  0.50459292871E+02 -0.31106201112E+02  0.24131724706E+03  0.24849295707E+03  0.10000000000E+01 0.  0.
<mgrwt>
<rscale>  0 0.12499696E+03</rscale>
<asrwt>0</asrwt>
<pdfrwt beam="1">  1        4 0.57238400E-01 0.12499696E+03</pdfrwt>
<pdfrwt beam="2">  1       -4 0.16151941E-02 0.12499696E+03</pdfrwt>
<totfact> 0.66290705E+03</totfact>
</mgrwt>
</event>
<event>
 5    1  0.3257199E-002  0.1250001E+03  0.7818608E-02  0.1235069E+00
          4   -1    0    0  501    0  0.00000000000E+00  0.00000000000E+00  0.31435569060E+02  0.31461212662E+02  0.12700000000E+01 0.  1.
         -4   -1    0    0    0  501 -0.00000000000E+00 -0.00000000000E+00 -0.12418270014E+03  0.12418919403E+03  0.12700000000E+01 0.  1.
         25    2    1    2    0    0  0.00000000000E+00  0.00000000000E+00 -0.92747131077E+02  0.15565040669E+03  0.12500007512E+03 0.  0.
    9000005    1    3    3    0    0 -0.58663193834E+02 -0.78077288067E+01 -0.71368466604E+02  0.92718870600E+02  0.10000000000E+01 0.  0.
    9000005    1    3    3    0    0  0.58663193834E+02  0.78077288067E+01 -0.21378664473E+02  0.62931536090E+02  0.10000000000E+01 0.  0.
<mgrwt>
<rscale>  0 0.12500008E+03</rscale>
<asrwt>0</asrwt>
<pdfrwt beam="1">  1        4 0.48387136E-02 0.12500008E+03</pdfrwt>
<pdfrwt beam="2">  1       -4 0.19107503E-01 0.12500008E+03</pdfrwt>
<totfact> 0.98187801E+03</totfact>
</mgrwt>
</event>
<event>
 5    1  0.3257199E-002  0.1249940E+03  0.7818608E-02  0.1235079E+00
         -4   -1    0    0    0  501 -0.00000000000E+00  0.00000000000E+00  0.32373580249E+02  0.32398481417E+02  0.12700000000E+01 0.  1.
          4   -1    0    0  501    0  0.00000000000E+00 -0.00000000000E+00 -0.12057551839E+03  0.12058220654E+03  0.12700000000E+01 0.  1.
         25    2    1    2    0    0  0.00000000000E+00  0.00000000000E+00 -0.88201938141E+02  0.15298068796E+03  0.12499403585E+03 0.  0.
    9000005    1    3    3    0    0  0.45573806789E+02 -0.22144916583E+02  0.65959198318E+00  0.50683372592E+02  0.10000000000E+01 0.  0.
    9000005    1    3    3    0    0 -0.45573806789E+02  0.22144916583E+02 -0.88861530124E+02  0.10229731537E+03  0.10000000000E+01 0.  0.
<mgrwt>
<rscale>  0 0.12499404E+03</rscale>
<asrwt>0</asrwt>
<pdfrwt beam="2">  1        4 0.18552509E-01 0.12499404E+03</pdfrwt>
<pdfrwt beam="1">  1       -4 0.49829808E-02 0.12499404E+03</pdfrwt>
<totfact> 0.98726074E+03</totfact>
</mgrwt>
</event>
<event>
 5    1  0.3257199E-002  0.1250094E+03  0.7818608E-02  0.1235055E+00
         -4   -1    0    0    0  501 -0.00000000000E+00  0.00000000000E+00  0.12458692078E+03  0.12459339360E+03  0.12700000000E+01 0. -1.
          4   -1    0    0  501    0  0.00000000000E+00 -0.00000000000E+00 -0.31338197346E+02  0.31363920560E+02  0.12700000000E+01 0. -1.
         25    2    1    2    0    0  0.00000000000E+00  0.00000000000E+00  0.93248723433E+02  0.15595731416E+03  0.12500943732E+03 0.  0.
    9000005    1    3    3    0    0  0.21949396187E+02 -0.24065390290E+01 -0.26315726322E+02  0.34366915412E+02  0.10000000000E+01 0.  0.
    9000005    1    3    3    0    0 -0.21949396187E+02  0.24065390290E+01  0.11956444975E+03  0.12159039875E+03  0.10000000000E+01 0.  0.
<mgrwt>
<rscale>  0 0.12500944E+03</rscale>
<asrwt>0</asrwt>
<pdfrwt beam="2">  1        4 0.48237378E-02 0.12500944E+03</pdfrwt>
<pdfrwt beam="1">  1       -4 0.19169695E-01 0.12500944E+03</pdfrwt>
<totfact> 0.98107071E+03</totfact>
</mgrwt>
</event>
<event>
 5    1  0.3257199E-002  0.1249916E+03  0.7818608E-02  0.1235082E+00
         -4   -1    0    0    0  501 -0.00000000000E+00  0.00000000000E+00  0.67123261638E+02  0.67135275027E+02  0.12700000000E+01 0.  1.
          4   -1    0    0  501    0  0.00000000000E+00 -0.00000000000E+00 -0.58163172432E+02  0.58177036082E+02  0.12700000000E+01 0.  1.
         25    2    1    2    0    0  0.00000000000E+00  0.00000000000E+00  0.89600892063E+01  0.12531231111E+03  0.12499156818E+03 0.  0.
    9000005    1    3    3    0    0  0.20318830224E+02  0.57917498481E+02 -0.72731580627E+01  0.61815777275E+02  0.10000000000E+01 0.  0.
    9000005    1    3    3    0    0 -0.20318830224E+02 -0.57917498481E+02  0.16233247269E+02  0.63496533833E+02  0.10000000000E+01 0.  0.
<mgrwt>
<rscale>  0 0.12499157E+03</rscale>
<asrwt>0</asrwt>
<pdfrwt beam="2">  1        4 0.89501709E-02 0.12499157E+03</pdfrwt>
<pdfrwt beam="1">  1       -4 0.10328646E-01 0.12499157E+03</pdfrwt>
<totfact> 0.10448074E+04</totfact>
</mgrwt>
</event>
<event>
 5    1  0.3257199E-002  0.1250015E+03  0.7818608E-02  0.1235067E+00
          4   -1    0    0  501    0  0.00000000000E+00  0.00000000000E+00  0.37837941478E+02  0.37859248741E+02  0.12700000000E+01 0. -1.
         -4   -1    0    0    0  501 -0.00000000000E+00 -0.00000000000E+00 -0.10318445393E+03  0.10319226925E+03  0.12700000000E+01 0. -1.
         25    2    1    2    0    0  0.00000000000E+00  0.00000000000E+00 -0.65346512455E+02  0.14105151799E+03  0.12500145614E+03 0.  0.
    9000005    1    3    3    0    0  0.39243726998E+02  0.48557246614E+02 -0.29590288815E+02  0.69097478243E+02  0.10000000000E+01 0.  0.
    9000005    1    3    3    0    0 -0.39243726998E+02 -0.48557246614E+02 -0.35756223639E+02  0.71954039750E+02  0.10000000000E+01 0.  0.
<mgrwt>
<rscale>  0 0.12500146E+03</rscale>
<asrwt>0</asrwt>
<pdfrwt beam="1">  1        4 0.58234620E-02 0.12500146E+03</pdfrwt>
<pdfrwt beam="2">  1       -4 0.15876771E-01 0.12500146E+03</pdfrwt>
<totfact> 0.10111507E+04</totfact>
</mgrwt>
</event>
<event>
 5    1  0.3257199E-002  0.1250004E+03  0.7818608E-02  0.1235069E+00
          4   -1    0    0  501    0  0.00000000000E+00  0.00000000000E+00  0.14727160253E+03  0.14727707837E+03  0.12700000000E+01 0.  1.
         -4   -1    0    0    0  501 -0.00000000000E+00 -0.00000000000E+00 -0.26503115068E+02  0.26533526119E+02  0.12700000000E+01 0.  1.
         25    2    1    2    0    0  0.00000000000E+00  0.00000000000E+00  0.12076848746E+03  0.17381060449E+03  0.12500039467E+03 0.  0.
    9000005    1    3    3    0    0 -0.29309872821E+02  0.32232203803E+00 -0.16358463558E+02  0.33582314784E+02  0.10000000000E+01 0.  0.
    9000005    1    3    3    0    0  0.29309872821E+02 -0.32232203803E+00  0.13712695102E+03  0.14022828970E+03  0.10000000000E+01 0.  0.
<mgrwt>
<rscale>  0 0.12500039E+03</rscale>
<asrwt>0</asrwt>
<pdfrwt beam="1">  1        4 0.22659930E-01 0.12500039E+03</pdfrwt>
<pdfrwt beam="2">  1       -4 0.40801629E-02 0.12500039E+03</pdfrwt>
<totfact> 0.94742289E+03</totfact>
</mgrwt>
</event>
<event>
 5    1  0.3257199E-002  0.1249995E+03  0.7818608E-02  0.1235070E+00
          4   -1    0    0  501    0  0.00000000000E+00  0.00000000000E+00  0.38761450719E+02  0.38782250603E+02  0.12700000000E+01 0. -1.
         -4   -1    0    0    0  501 -0.00000000000E+00 -0.00000000000E+00 -0.10072395280E+03  0.10073195902E+03  0.12700000000E+01 0. -1.
         25    2    1    2    0    0  0.00000000000E+00  0.00000000000E+00 -0.61962502079E+02  0.13951420962E+03  0.12499945209E+03 0.  0.
    9000005    1    3    3    0    0 -0.26300839006E+02 -0.47409619343E+02 -0.65667400925E+02  0.85162278521E+02  0.10000000000E+01 0.  0.
    9000005    1    3    3    0    0  0.26300839006E+02  0.47409619343E+02  0.37048988466E+01  0.54351931098E+02  0.10000000000E+01 0.  0.
<mgrwt>
<rscale>  0 0.12499945E+03</rscale>
<asrwt>0</asrwt>
<pdfrwt beam="1">  1        4 0.59655160E-02 0.12499945E+03</pdfrwt>
<pdfrwt beam="2">  1       -4 0.15498209E-01 0.12499945E+03</pdfrwt>
<totfact> 0.10143789E+04</totfact>
</mgrwt>
</event>
<event>
 5    1  0.3257199E-002  0.1250007E+03  0.7818608E-02  0.1235068E+00
          4   -1    0    0  501    0  0.00000000000E+00  0.00000000000E+00  0.15708262587E+02  0.15759518188E+02  0.12700000000E+01 0. -1.
         -4   -1    0    0    0  501 -0.00000000000E+00 -0.00000000000E+00 -0.24821988573E+03  0.24822313464E+03  0.12700000000E+01 0. -1.
         25    2    1    2    0    0  0.00000000000E+00  0.00000000000E+00 -0.23251162314E+03  0.26398265283E+03  0.12500074439E+03 0.  0.
    9000005    1    3    3    0    0 -0.48634071150E+02  0.23779407062E+02 -0.18218350004E+03  0.19005936115E+03  0.10000000000E+01 0.  0.
    9000005    1    3    3    0    0  0.48634071150E+02 -0.23779407062E+02 -0.50328123105E+02  0.73923291675E+02  0.10000000000E+01 0.  0.
<mgrwt>
<rscale>  0 0.12500074E+03</rscale>
<asrwt>0</asrwt>
<pdfrwt beam="1">  1        4 0.24208486E-02 0.12500074E+03</pdfrwt>
<pdfrwt beam="2">  1       -4 0.38191865E-01 0.12500074E+03</pdfrwt>
<totfact> 0.80349051E+03</totfact>
</mgrwt>
</event>
<event>
 5    1  0.3257199E-002  0.1249994E+03  0.7818608E-02  0.1235070E+00
         -4   -1    0    0    0  501 -0.00000000000E+00  0.00000000000E+00  0.12129139924E+03  0.12129804793E+03  0.12700000000E+01 0.  1.
          4   -1    0    0  501    0  0.00000000000E+00 -0.00000000000E+00 -0.32185129277E+02  0.32210176134E+02  0.12700000000E+01 0.  1.
         25    2    1    2    0    0  0.00000000000E+00  0.00000000000E+00  0.89106269967E+02  0.15350822406E+03  0.12499939002E+03 0.  0.
    9000005    1    3    3    0    0  0.34037251423E+02 -0.39549643206E+02  0.23227636464E+01  0.52240826880E+02  0.10000000000E+01 0.  0.
    9000005    1    3    3    0    0 -0.34037251423E+02  0.39549643206E+02  0.86783506320E+02  0.10126739718E+03  0.10000000000E+01 0.  0.
<mgrwt>
<rscale>  0 0.12499939E+03</rscale>
<asrwt>0</asrwt>
<pdfrwt beam="2">  1        4 0.49539965E-02 0.12499939E+03</pdfrwt>
<pdfrwt beam="1">  1       -4 0.18662653E-01 0.12499939E+03</pdfrwt>
<totfact> 0.98610280E+03</totfact>
</mgrwt>
</event>
<event>
 5    1  0.3257199E-002  0.1249994E+03  0.7818608E-02  0.1235070E+00
         -4   -1    0    0    0  501 -0.00000000000E+00  0.00000000000E+00  0.34866051879E+02  0.34889174161E+02  0.12700000000E+01 0.  1.
          4   -1    0    0  501    0  0.00000000000E+00 -0.00000000000E+00 -0.11197102295E+03  0.11197822502E+03  0.12700000000E+01 0.  1.
         25    2    1    2    0    0  0.00000000000E+00  0.00000000000E+00 -0.77104971068E+02  0.14686739918E+03  0.12499942552E+03 0.  0.
    9000005    1    3    3    0    0 -0.42311418503E+02 -0.39242675132E+02 -0.10379028938E+02  0.58642714202E+02  0.10000000000E+01 0.  0.
    9000005    1    3    3    0    0  0.42311418503E+02  0.39242675132E+02 -0.66725942129E+02  0.88224684983E+02  0.10000000000E+01 0.  0.
<mgrwt>
<rscale>  0 0.12499943E+03</rscale>
<asrwt>0</asrwt>
<pdfrwt beam="2">  1        4 0.17228644E-01 0.12499943E+03</pdfrwt>
<pdfrwt beam="1">  1       -4 0.53663407E-02 0.12499943E+03</pdfrwt>
<totfact> 0.99933134E+03</totfact>
</mgrwt>
</event>
<event>
 5    1  0.3257199E-002  0.1250003E+03  0.7818608E-02  0.1235069E+00
          4   -1    0    0  501    0  0.00000000000E+00  0.00000000000E+00  0.90076183463E+01  0.90967075512E+01  0.12700000000E+01 0.  1.
         -4   -1    0    0    0  501 -0.00000000000E+00 -0.00000000000E+00 -0.43143856173E+03  0.43144043093E+03  0.12700000000E+01 0.  1.
         25    2    1    2    0    0  0.00000000000E+00  0.00000000000E+00 -0.42243094338E+03  0.44053713849E+03  0.12500027384E+03 0.  0.
    9000005    1    3    3    0    0  0.41932834456E+02 -0.16526995472E+02 -0.58659615562E+02  0.73982799911E+02  0.10000000000E+01 0.  0.
    9000005    1    3    3    0    0 -0.41932834456E+02  0.16526995472E+02 -0.36377132782E+03  0.36655433857E+03  0.10000000000E+01 0.  0.
<mgrwt>
<rscale>  0 0.12500027E+03</rscale>
<asrwt>0</asrwt>
<pdfrwt beam="1">  1        4 0.13927846E-02 0.12500027E+03</pdfrwt>
<pdfrwt beam="2">  1       -4 0.66382144E-01 0.12500027E+03</pdfrwt>
<totfact> 0.60791981E+03</totfact>
</mgrwt>
</event>
<event>
 5    1  0.3257199E-002  0.1250048E+03  0.7818608E-02  0.1235062E+00
         -4   -1    0    0    0  501 -0.00000000000E+00  0.00000000000E+00  0.18800074784E+03  0.18800503740E+03  0.12700000000E+01 0.  1.
          4   -1    0    0  501    0  0.00000000000E+00 -0.00000000000E+00 -0.20755496126E+02  0.20794314594E+02  0.12700000000E+01 0.  1.
         25    2    1    2    0    0  0.00000000000E+00  0.00000000000E+00  0.16724525172E+03  0.20879935200E+03  0.12500478060E+03 0.  0.
    9000005    1    3    3    0    0  0.53964717238E+02 -0.50486275439E+01  0.13558762381E+03  0.14602288546E+03  0.10000000000E+01 0.  0.
    9000005    1    3    3    0    0 -0.53964717238E+02  0.50486275439E+01  0.31657627906E+02  0.62776466540E+02  0.10000000000E+01 0.  0.
<mgrwt>
<rscale>  0 0.12500478E+03</rscale>
<asrwt>0</asrwt>
<pdfrwt beam="2">  1        4 0.31964693E-02 0.12500478E+03</pdfrwt>
<pdfrwt beam="1">  1       -4 0.28926507E-01 0.12500478E+03</pdfrwt>
<totfact> 0.88662861E+03</totfact>
</mgrwt>
</event>
<event>
 5    1  0.3257199E-002  0.1250113E+03  0.7818608E-02  0.1235052E+00
          4   -1    0    0  501    0  0.00000000000E+00  0.00000000000E+00  0.12503028110E+02  0.12567362966E+02  0.12700000000E+01 0.  1.
         -4   -1    0    0    0  501 -0.00000000000E+00 -0.00000000000E+00 -0.31161334405E+03  0.31161593203E+03  0.12700000000E+01 0.  1.
         25    2    1    2    0    0  0.00000000000E+00  0.00000000000E+00 -0.29911031594E+03  0.32418329499E+03  0.12501131008E+03 0.  0.
    9000005    1    3    3    0    0  0.13600190313E+02 -0.37242183739E+02 -0.27483835290E+03  0.27768519163E+03  0.10000000000E+01 0.  0.
    9000005    1    3    3    0    0 -0.13600190313E+02  0.37242183739E+02 -0.24271963043E+02  0.46498103361E+02  0.10000000000E+01 0.  0.
<mgrwt>
<rscale>  0 0.12501131E+03</rscale>
<asrwt>0</asrwt>
<pdfrwt beam="1">  1        4 0.19286909E-02 0.12501131E+03</pdfrwt>
<pdfrwt beam="2">  1       -4 0.47945657E-01 0.12501131E+03</pdfrwt>
<totfact> 0.72643118E+03</totfact>
</mgrwt>
</event>
<event>
 5    1  0.3257199E-002  0.1250012E+03  0.7818608E-02  0.1235067E+00
          4   -1    0    0  501    0  0.00000000000E+00  0.00000000000E+00  0.21590187632E+02  0.21627507993E+02  0.12700000000E+01 0. -1.
         -4   -1    0    0    0  501 -0.00000000000E+00 -0.00000000000E+00 -0.18073467969E+03  0.18073914170E+03  0.12700000000E+01 0. -1.
         25    2    1    2    0    0  0.00000000000E+00  0.00000000000E+00 -0.15914449206E+03  0.20236664969E+03  0.12500116622E+03 0.  0.
    9000005    1    3    3    0    0 -0.33543350229E+02 -0.44912891805E+02 -0.34853792706E+02  0.66015990948E+02  0.10000000000E+01 0.  0.
    9000005    1    3    3    0    0  0.33543350229E+02  0.44912891805E+02 -0.12429069935E+03  0.13635065875E+03  0.10000000000E+01 0.  0.
<mgrwt>
<rscale>  0 0.12500117E+03</rscale>
<asrwt>0</asrwt>
<pdfrwt beam="1">  1        4 0.33247815E-02 0.12500117E+03</pdfrwt>
<pdfrwt beam="2">  1       -4 0.27808548E-01 0.12500117E+03</pdfrwt>
<totfact> 0.89735541E+03</totfact>
</mgrwt>
</event>
<event>
 5    1  0.3257199E-002  0.1249958E+03  0.7818608E-02  0.1235076E+00
         -4   -1    0    0    0  501 -0.00000000000E+00  0.00000000000E+00  0.10524939823E+04  0.10524947485E+04  0.12700000000E+01 0. -1.
          4   -1    0    0  501    0  0.00000000000E+00 -0.00000000000E+00 -0.36017340791E+01  0.38190821379E+01  0.12700000000E+01 0. -1.
         25    2    1    2    0    0  0.00000000000E+00  0.00000000000E+00  0.10488922482E+04  0.10563138307E+04  0.12499584184E+03 0.  0.
    9000005    1    3    3    0    0 -0.11667654638E+02  0.56552371840E+02  0.72632724291E+03  0.72861963240E+03  0.10000000000E+01 0.  0.
    9000005    1    3    3    0    0  0.11667654638E+02 -0.56552371840E+02  0.32256500531E+03  0.32769419826E+03  0.10000000000E+01 0.  0.
<mgrwt>
<rscale>  0 0.12499584E+03</rscale>
<asrwt>0</asrwt>
<pdfrwt beam="2">  1        4 0.57089145E-03 0.12499584E+03</pdfrwt>
<pdfrwt beam="1">  1       -4 0.16193879E+00 0.12499584E+03</pdfrwt>
<totfact> 0.28801081E+03</totfact>
</mgrwt>
</event>
<event>
 5    1  0.3257199E-002  0.1250025E+03  0.7818608E-02  0.1235065E+00
         -4   -1    0    0    0  501 -0.00000000000E+00  0.00000000000E+00  0.10090592511E+03  0.10091391689E+03  0.12700000000E+01 0. -1.
          4   -1    0    0  501    0  0.00000000000E+00 -0.00000000000E+00 -0.38693418985E+02  0.38714255420E+02  0.12700000000E+01 0. -1.
         25    2    1    2    0    0  0.00000000000E+00  0.00000000000E+00  0.62212506121E+02  0.13962817231E+03  0.12500252231E+03 0.  0.
    9000005    1    3    3    0    0 -0.51524387756E+02 -0.28886964501E+02  0.53893888328E+02  0.79967308638E+02  0.10000000000E+01 0.  0.
    9000005    1    3    3    0    0  0.51524387756E+02  0.28886964501E+02  0.83186177931E+01  0.59660863669E+02  0.10000000000E+01 0.  0.
<mgrwt>
<rscale>  0 0.12500252E+03</rscale>
<asrwt>0</asrwt>
<pdfrwt beam="2">  1        4 0.59550513E-02 0.12500252E+03</pdfrwt>
<pdfrwt beam="1">  1       -4 0.15526206E-01 0.12500252E+03</pdfrwt>
<totfact> 0.10140722E+04</totfact>
</mgrwt>
</event>
<event>
 5    1  0.3257199E-002  0.1249961E+03  0.7818608E-02  0.1235075E+00
          4   -1    0    0  501    0  0.00000000000E+00  0.00000000000E+00  0.21030260004E+03  0.21030643472E+03  0.12700000000E+01 0.  1.
         -4   -1    0    0    0  501 -0.00000000000E+00 -0.00000000000E+00 -0.18547555142E+02  0.18590984421E+02  0.12700000000E+01 0.  1.
         25    2    1    2    0    0  0.00000000000E+00  0.00000000000E+00  0.19175504490E+03  0.22889741914E+03  0.12499612492E+03 0.  0.
    9000005    1    3    3    0    0  0.16486952530E+02  0.60272501359E+02  0.94699556066E+02  0.11346188762E+03  0.10000000000E+01 0.  0.
    9000005    1    3    3    0    0 -0.16486952530E+02 -0.60272501359E+02  0.97055488833E+02  0.11543553152E+03  0.10000000000E+01 0.  0.
<mgrwt>
<rscale>  0 0.12499612E+03</rscale>
<asrwt>0</asrwt>
<pdfrwt beam="1">  1        4 0.32357881E-01 0.12499612E+03</pdfrwt>
<pdfrwt beam="2">  1       -4 0.28571058E-02 0.12499612E+03</pdfrwt>
<totfact> 0.85486579E+03</totfact>
</mgrwt>
</event>
<event>
 5    1  0.3257199E-002  0.1250025E+03  0.7818608E-02  0.1235065E+00
         -4   -1    0    0    0  501 -0.00000000000E+00  0.00000000000E+00  0.34807160592E+02  0.34830321969E+02  0.12700000000E+01 0. -1.
          4   -1    0    0  501    0  0.00000000000E+00 -0.00000000000E+00 -0.11216584137E+03  0.11217303094E+03  0.12700000000E+01 0. -1.
         25    2    1    2    0    0  0.00000000000E+00  0.00000000000E+00 -0.77358680776E+02  0.14700335291E+03  0.12500248107E+03 0.  0.
    9000005    1    3    3    0    0  0.40607247940E+02 -0.35770540106E+02 -0.19224124674E+01  0.54158801634E+02  0.10000000000E+01 0.  0.
    9000005    1    3    3    0    0 -0.40607247940E+02  0.35770540106E+02 -0.75436268308E+02  0.92844551273E+02  0.10000000000E+01 0.  0.
<mgrwt>
<rscale>  0 0.12500248E+03</rscale>
<asrwt>0</asrwt>
<pdfrwt beam="2">  1        4 0.17258618E-01 0.12500248E+03</pdfrwt>
<pdfrwt beam="1">  1       -4 0.53572825E-02 0.12500248E+03</pdfrwt>
<totfact> 0.99898844E+03</totfact>
</mgrwt>
</event>
<event>
 5    1  0.3257199E-002  0.1250011E+03  0.7818608E-02  0.1235068E+00
         -4   -1    0    0    0  501 -0.00000000000E+00  0.00000000000E+00  0.45956990431E+02  0.45974535011E+02  0.12700000000E+01 0.  1.
          4   -1    0    0  501    0  0.00000000000E+00 -0.00000000000E+00 -0.84960923005E+02  0.84970414486E+02  0.12700000000E+01 0.  1.
         25    2    1    2    0    0  0.00000000000E+00  0.00000000000E+00 -0.39003932574E+02  0.13094494950E+03  0.12500109217E+03 0.  0.
    9000005    1    3    3    0    0  0.35194577039E+02 -0.19905960226E+02 -0.69416538560E+02  0.80340284610E+02  0.10000000000E+01 0.  0.
    9000005    1    3    3    0    0 -0.35194577039E+02  0.19905960226E+02  0.30412605986E+02  0.50604664887E+02  0.10000000000E+01 0.  0.
<mgrwt>
<rscale>  0 0.12500109E+03</rscale>
<asrwt>0</asrwt>
<pdfrwt beam="2">  1        4 0.13072991E-01 0.12500109E+03</pdfrwt>
<pdfrwt beam="1">  1       -4 0.70723859E-02 0.12500109E+03</pdfrwt>
<totfact> 0.10324015E+04</totfact>
</mgrwt>
</event>
<event>
 5    1  0.3257199E-002  0.1249992E+03  0.7818608E-02  0.1235071E+00
          4   -1    0    0  501    0  0.00000000000E+00  0.00000000000E+00  0.43923902836E+02  0.43942259163E+02  0.12700000000E+01 0. -1.
         -4   -1    0    0    0  501 -0.00000000000E+00 -0.00000000000E+00 -0.88889559731E+02  0.88898631762E+02  0.12700000000E+01 0. -1.
         25    2    1    2    0    0  0.00000000000E+00  0.00000000000E+00 -0.44965656895E+02  0.13284089092E+03  0.12499916800E+03 0.  0.
    9000005    1    3    3    0    0  0.44332766856E+02 -0.24366220801E+02  0.16507947527E+02  0.53222356814E+02  0.10000000000E+01 0.  0.
    9000005    1    3    3    0    0 -0.44332766856E+02  0.24366220801E+02 -0.61473604422E+02  0.79618534110E+02  0.10000000000E+01 0.  0.
<mgrwt>
<rscale>  0 0.12499917E+03</rscale>
<asrwt>0</asrwt>
<pdfrwt beam="1">  1        4 0.67596334E-02 0.12499917E+03</pdfrwt>
<pdfrwt beam="2">  1       -4 0.13677427E-01 0.12499917E+03</pdfrwt>
<totfact> 0.10283976E+04</totfact>
</mgrwt>
</event>
<event>
 5    1  0.3257199E-002  0.1249995E+03  0.7818608E-02  0.1235070E+00
         -4   -1    0    0    0  501 -0.00000000000E+00  0.00000000000E+00  0.35175454458E+02  0.35198373490E+02  0.12700000000E+01 0.  1.
          4   -1    0    0  501    0  0.00000000000E+00 -0.00000000000E+00 -0.11098682049E+03  0.11099408643E+03  0.12700000000E+01 0.  1.
         25    2    1    2    0    0  0.00000000000E+00  0.00000000000E+00 -0.75811366030E+02  0.14619245992E+03  0.12499948847E+03 0.  0.
    9000005    1    3    3    0    0 -0.56084389447E+02  0.21146091613E+02 -0.17227485313E+02  0.62373088590E+02  0.10000000000E+01 0.  0.
    9000005    1    3    3    0    0  0.56084389447E+02 -0.21146091613E+02 -0.58583880717E+02  0.83819371329E+02  0.10000000000E+01 0.  0.
<mgrwt>
<rscale>  0 0.12499949E+03</rscale>
<asrwt>0</asrwt>
<pdfrwt beam="2">  1        4 0.17077217E-01 0.12499949E+03</pdfrwt>
<pdfrwt beam="1">  1       -4 0.54139303E-02 0.12499949E+03</pdfrwt>
<totfact> 0.10006932E+04</totfact>
</mgrwt>
</event>
<event>
 5    1  0.3257199E-002  0.1249990E+03  0.7818608E-02  0.1235071E+00
         -4   -1    0    0    0  501 -0.00000000000E+00  0.00000000000E+00  0.19960508300E+02  0.20000869771E+02  0.12700000000E+01 0.  1.
          4   -1    0    0  501    0  0.00000000000E+00 -0.00000000000E+00 -0.19545576492E+03  0.19545989087E+03  0.12700000000E+01 0.  1.
         25    2    1    2    0    0  0.00000000000E+00  0.00000000000E+00 -0.17549525662E+03  0.21546076064E+03  0.12499901712E+03 0.  0.
    9000005    1    3    3    0    0  0.50654645369E+02 -0.32016155544E+02 -0.11830436785E+03  0.13261919456E+03  0.10000000000E+01 0.  0.
    9000005    1    3    3    0    0 -0.50654645369E+02  0.32016155544E+02 -0.57190888771E+02  0.82841566087E+02  0.10000000000E+01 0.  0.
<mgrwt>
<rscale>  0 0.12499902E+03</rscale>
<asrwt>0</asrwt>
<pdfrwt beam="2">  1        4 0.30073538E-01 0.12499902E+03</pdfrwt>
<pdfrwt beam="1">  1       -4 0.30742697E-02 0.12499902E+03</pdfrwt>
<totfact> 0.87593685E+03</totfact>
</mgrwt>
</event>
<event>
 5    1  0.3257199E-002  0.1249998E+03  0.7818608E-02  0.1235070E+00
          4   -1    0    0  501    0  0.00000000000E+00  0.00000000000E+00  0.18718416383E+01  0.22620104153E+01  0.12700000000E+01 0.  1.
         -4   -1    0    0    0  501 -0.00000000000E+00 -0.00000000000E+00 -0.18894882904E+04  0.18894887172E+04  0.12700000000E+01 0.  1.
         25    2    1    2    0    0  0.00000000000E+00  0.00000000000E+00 -0.18876164488E+04  0.18917507276E+04  0.12499983132E+03 0.  0.
    9000005    1    3    3    0    0  0.38615531333E+02 -0.11415824451E+02 -0.22057289499E+03  0.22422061081E+03  0.10000000000E+01 0.  0.
    9000005    1    3    3    0    0 -0.38615531333E+02  0.11415824451E+02 -0.16670435538E+04  0.16675301168E+04  0.10000000000E+01 0.  0.
<mgrwt>
<rscale>  0 0.12499983E+03</rscale>
<asrwt>0</asrwt>
<pdfrwt beam="1">  1        4 0.31802296E-03 0.12499983E+03</pdfrwt>
<pdfrwt beam="2">  1       -4 0.29071917E+00 0.12499983E+03</pdfrwt>
<totfact> 0.11341226E+03</totfact>
</mgrwt>
</event>
<event>
 5    1  0.3257199E-002  0.1249887E+03  0.7818608E-02  0.1235087E+00
          4   -1    0    0  501    0  0.00000000000E+00  0.00000000000E+00  0.23051985356E+02  0.23086942821E+02  0.12700000000E+01 0. -1.
         -4   -1    0    0    0  501 -0.00000000000E+00 -0.00000000000E+00 -0.16925765362E+03  0.16926241819E+03  0.12700000000E+01 0. -1.
         25    2    1    2    0    0  0.00000000000E+00  0.00000000000E+00 -0.14620566827E+03  0.19234936101E+03  0.12498871648E+03 0.  0.
    9000005    1    3    3    0    0  0.39371573868E+02  0.24375048030E+02 -0.85357844435E+01  0.47096957559E+02  0.10000000000E+01 0.  0.
    9000005    1    3    3    0    0 -0.39371573868E+02 -0.24375048030E+02 -0.13766988382E+03  0.14525240345E+03  0.10000000000E+01 0.  0.
<mgrwt>
<rscale>  0 0.12498872E+03</rscale>
<asrwt>0</asrwt>
<pdfrwt beam="1">  1        4 0.35495149E-02 0.12498872E+03</pdfrwt>
<pdfrwt beam="2">  1       -4 0.26042694E-01 0.12498872E+03</pdfrwt>
<totfact> 0.91463244E+03</totfact>
</mgrwt>
</event>
<event>
 5    1  0.3257199E-002  0.1249977E+03  0.7818608E-02  0.1235073E+00
          4   -1    0    0  501    0  0.00000000000E+00  0.00000000000E+00  0.70059446633E+02  0.70070956626E+02  0.12700000000E+01 0. -1.
         -4   -1    0    0    0  501 -0.00000000000E+00 -0.00000000000E+00 -0.55730856854E+02  0.55745325416E+02  0.12700000000E+01 0. -1.
         25    2    1    2    0    0  0.00000000000E+00  0.00000000000E+00  0.14328589778E+02  0.12581628204E+03  0.12499771335E+03 0.  0.
    9000005    1    3    3    0    0 -0.62072286362E+01 -0.29738359622E+02 -0.47802915676E+02  0.56648199154E+02  0.10000000000E+01 0.  0.
    9000005    1    3    3    0    0  0.62072286362E+01  0.29738359622E+02  0.62131505454E+02  0.69168082887E+02  0.10000000000E+01 0.  0.
<mgrwt>
<rscale>  0 0.12499771E+03</rscale>
<asrwt>0</asrwt>
<pdfrwt beam="1">  1        4 0.10780375E-01 0.12499771E+03</pdfrwt>
<pdfrwt beam="2">  1       -4 0.85759763E-02 0.12499771E+03</pdfrwt>
<totfact> 0.10435526E+04</totfact>
</mgrwt>
</event>
<event>
 5    1  0.3257199E-002  0.1249992E+03  0.7818608E-02  0.1235071E+00
          4   -1    0    0  501    0  0.00000000000E+00  0.00000000000E+00  0.15788847392E+02  0.15839842233E+02  0.12700000000E+01 0.  1.
         -4   -1    0    0    0  501 -0.00000000000E+00 -0.00000000000E+00 -0.24695101707E+03  0.24695428268E+03  0.12700000000E+01 0.  1.
         25    2    1    2    0    0  0.00000000000E+00  0.00000000000E+00 -0.23116216968E+03  0.26279412491E+03  0.12499921358E+03 0.  0.
    9000005    1    3    3    0    0 -0.45159380828E+02  0.41415363048E+02 -0.14138105693E+03  0.15409154822E+03  0.10000000000E+01 0.  0.
    9000005    1    3    3    0    0  0.45159380828E+02 -0.41415363048E+02 -0.89781112746E+02  0.10870257669E+03  0.10000000000E+01 0.  0.
<mgrwt>
<rscale>  0 0.12499921E+03</rscale>
<asrwt>0</asrwt>
<pdfrwt beam="1">  1        4 0.24332275E-02 0.12499921E+03</pdfrwt>
<pdfrwt beam="2">  1       -4 0.37996635E-01 0.12499921E+03</pdfrwt>
<totfact> 0.80516948E+03</totfact>
</mgrwt>
</event>
<event>
 5    1  0.3257199E-002  0.1249962E+03  0.7818608E-02  0.1235075E+00
          4   -1    0    0  501    0  0.00000000000E+00  0.00000000000E+00  0.68046906742E+02  0.68058757094E+02  0.12700000000E+01 0.  1.
         -4   -1    0    0    0  501 -0.00000000000E+00 -0.00000000000E+00 -0.57377889424E+02  0.57391942769E+02  0.12700000000E+01 0.  1.
         25    2    1    2    0    0  0.00000000000E+00  0.00000000000E+00  0.10669017318E+02  0.12545069986E+03  0.12499620060E+03 0.  0.
    9000005    1    3    3    0    0  0.67468317924E+01 -0.61620682922E+02  0.13261597302E+02  0.63399513137E+02  0.10000000000E+01 0.  0.
    9000005    1    3    3    0    0 -0.67468317924E+01  0.61620682922E+02 -0.25925799842E+01  0.62051186725E+02  0.10000000000E+01 0.  0.
<mgrwt>
<rscale>  0 0.12499620E+03</rscale>
<asrwt>0</asrwt>
<pdfrwt beam="1">  1        4 0.10470747E-01 0.12499620E+03</pdfrwt>
<pdfrwt beam="2">  1       -4 0.88293602E-02 0.12499620E+03</pdfrwt>
<totfact> 0.10443939E+04</totfact>
</mgrwt>
</event>
<event>
 5    1  0.3257199E-002  0.1249986E+03  0.7818608E-02  0.1235071E+00
         -4   -1    0    0    0  501 -0.00000000000E+00  0.00000000000E+00  0.18438226263E+02  0.18481912448E+02  0.12700000000E+01 0.  1.
          4   -1    0    0  501    0  0.00000000000E+00 -0.00000000000E+00 -0.21155512410E+03  0.21155893607E+03  0.12700000000E+01 0.  1.
         25    2    1    2    0    0  0.00000000000E+00  0.00000000000E+00 -0.19311689784E+03  0.23004084852E+03  0.12499862303E+03 0.  0.
    9000005    1    3    3    0    0  0.46106225208E+02 -0.19104749067E+02 -0.16577087779E+03  0.17312353787E+03  0.10000000000E+01 0.  0.
    9000005    1    3    3    0    0 -0.46106225208E+02  0.19104749067E+02 -0.27346020044E+02  0.56917310654E+02  0.10000000000E+01 0.  0.
<mgrwt>
<rscale>  0 0.12499862E+03</rscale>
<asrwt>0</asrwt>
<pdfrwt beam="2">  1        4 0.32550594E-01 0.12499862E+03</pdfrwt>
<pdfrwt beam="1">  1       -4 0.28403041E-02 0.12499862E+03</pdfrwt>
<totfact> 0.85305946E+03</totfact>
</mgrwt>
</event>
<event>
 5    1  0.3257199E-002  0.1250037E+03  0.7818608E-02  0.1235063E+00
          4   -1    0    0  501    0  0.00000000000E+00  0.00000000000E+00  0.19542718880E+02  0.19583941411E+02  0.12700000000E+01 0. -1.
         -4   -1    0    0    0  501 -0.00000000000E+00 -0.00000000000E+00 -0.19964074890E+03  0.19964478837E+03  0.12700000000E+01 0. -1.
         25    2    1    2    0    0  0.00000000000E+00  0.00000000000E+00 -0.18009803002E+03  0.21922872978E+03  0.12500374211E+03 0.  0.
    9000005    1    3    3    0    0 -0.52356328342E+02 -0.53861658809E+01 -0.30957180329E+02  0.61069983743E+02  0.10000000000E+01 0.  0.
    9000005    1    3    3    0    0  0.52356328342E+02  0.53861658809E+01 -0.14914084969E+03  0.15815874604E+03  0.10000000000E+01 0.  0.
<mgrwt>
<rscale>  0 0.12500374E+03</rscale>
<asrwt>0</asrwt>
<pdfrwt beam="1">  1        4 0.30100540E-02 0.12500374E+03</pdfrwt>
<pdfrwt beam="2">  1       -4 0.30717442E-01 0.12500374E+03</pdfrwt>
<totfact> 0.86983270E+03</totfact>
</mgrwt>
</event>
<event>
 5    1  0.3257199E-002  0.1249922E+03  0.7818608E-02  0.1235082E+00
          4   -1    0    0  501    0  0.00000000000E+00  0.00000000000E+00  0.13104384955E+03  0.13105000346E+03  0.12700000000E+01 0. -1.
         -4   -1    0    0    0  501 -0.00000000000E+00 -0.00000000000E+00 -0.29784600385E+02  0.29811664162E+02  0.12700000000E+01 0. -1.
         25    2    1    2    0    0  0.00000000000E+00  0.00000000000E+00  0.10125924917E+03  0.16086166762E+03  0.12499216202E+03 0.  0.
    9000005    1    3    3    0    0  0.42650034737E+02 -0.11543968497E+01 -0.81274996498E+01  0.43444382211E+02  0.10000000000E+01 0.  0.
    9000005    1    3    3    0    0 -0.42650034737E+02  0.11543968497E+01  0.10938674882E+03  0.11741728541E+03  0.10000000000E+01 0.  0.
<mgrwt>
<rscale>  0 0.12499216E+03</rscale>
<asrwt>0</asrwt>
<pdfrwt beam="1">  1        4 0.20163147E-01 0.12499216E+03</pdfrwt>
<pdfrwt beam="2">  1       -4 0.45848014E-02 0.12499216E+03</pdfrwt>
<totfact> 0.97194040E+03</totfact>
</mgrwt>
</event>
<event>
 5    1  0.3257199E-002  0.1250016E+03  0.7818608E-02  0.1235067E+00
         -4   -1    0    0    0  501 -0.00000000000E+00  0.00000000000E+00  0.85111726815E+02  0.85121201481E+02  0.12700000000E+01 0.  1.
          4   -1    0    0  501    0  0.00000000000E+00 -0.00000000000E+00 -0.45875920819E+02  0.45893496391E+02  0.12700000000E+01 0.  1.
         25    2    1    2    0    0  0.00000000000E+00  0.00000000000E+00  0.39235805996E+02  0.13101469787E+03  0.12500161033E+03 0.  0.
    9000005    1    3    3    0    0  0.59344106330E+02  0.16157618683E+02  0.80147210340E+01  0.62032470133E+02  0.10000000000E+01 0.  0.
    9000005    1    3    3    0    0 -0.59344106330E+02 -0.16157618683E+02  0.31221084962E+02  0.68982227739E+02  0.10000000000E+01 0.  0.
<mgrwt>
<rscale>  0 0.12500161E+03</rscale>
<asrwt>0</asrwt>
<pdfrwt beam="2">  1        4 0.70599148E-02 0.12500161E+03</pdfrwt>
<pdfrwt beam="1">  1       -4 0.13096192E-01 0.12500161E+03</pdfrwt>
<totfact> 0.10322399E+04</totfact>
</mgrwt>
</event>
<event>
 5    1  0.3257199E-002  0.1250003E+03  0.7818608E-02  0.1235069E+00
         -4   -1    0    0    0  501 -0.00000000000E+00  0.00000000000E+00  0.29347020040E+02  0.29374486978E+02  0.12700000000E+01 0.  1.
          4   -1    0    0  501    0  0.00000000000E+00 -0.00000000000E+00 -0.13301338569E+03  0.13301944848E+03  0.12700000000E+01 0.  1.
         25    2    1    2    0    0  0.00000000000E+00  0.00000000000E+00 -0.10366636565E+03  0.16239393545E+03  0.12500029962E+03 0.  0.
    9000005    1    3    3    0    0 -0.28875744277E+02 -0.53575627156E+02 -0.33409431543E+02  0.69435916849E+02  0.10000000000E+01 0.  0.
    9000005    1    3    3    0    0  0.28875744277E+02  0.53575627156E+02 -0.70256934109E+02  0.92958018606E+02  0.10000000000E+01 0.  0.
<mgrwt>
<rscale>  0 0.12500030E+03</rscale>
<asrwt>0</asrwt>
<pdfrwt beam="2">  1        4 0.20466177E-01 0.12500030E+03</pdfrwt>
<pdfrwt beam="1">  1       -4 0.45175054E-02 0.12500030E+03</pdfrwt>
<totfact> 0.96882576E+03</totfact>
</mgrwt>
</event>
<event>
 5    1  0.3257199E-002  0.1249988E+03  0.7818608E-02  0.1235071E+00
          4   -1    0    0  501    0  0.00000000000E+00  0.00000000000E+00  0.84312161270E+01  0.85263301238E+01  0.12700000000E+01 0. -1.
         -4   -1    0    0    0  501 -0.00000000000E+00 -0.00000000000E+00 -0.46060433466E+03  0.46060608550E+03  0.12700000000E+01 0. -1.
         25    2    1    2    0    0  0.00000000000E+00  0.00000000000E+00 -0.45217311853E+03  0.46913241563E+03  0.12499877709E+03 0.  0.
    9000005    1    3    3    0    0  0.89433990202E+01  0.25003175396E+02 -0.43839474078E+03  0.43919937603E+03  0.10000000000E+01 0.  0.
    9000005    1    3    3    0    0 -0.89433990202E+01 -0.25003175396E+02 -0.13778377748E+02  0.29933039593E+02  0.10000000000E+01 0.  0.
<mgrwt>
<rscale>  0 0.12499878E+03</rscale>
<asrwt>0</asrwt>
<pdfrwt beam="1">  1        4 0.13045617E-02 0.12499878E+03</pdfrwt>
<pdfrwt beam="2">  1       -4 0.70869637E-01 0.12499878E+03</pdfrwt>
<totfact> 0.58343038E+03</totfact>
</mgrwt>
</event>
<event>
 5    1  0.3257199E-002  0.1249992E+03  0.7818608E-02  0.1235071E+00
          4   -1    0    0  501    0  0.00000000000E+00  0.00000000000E+00  0.25596015319E+02  0.25627502809E+02  0.12700000000E+01 0. -1.
         -4   -1    0    0    0  501 -0.00000000000E+00 -0.00000000000E+00 -0.15248178399E+03  0.15248707273E+03  0.12700000000E+01 0. -1.
         25    2    1    2    0    0  0.00000000000E+00  0.00000000000E+00 -0.12688576867E+03  0.17811457554E+03  0.12499921491E+03 0.  0.
    9000005    1    3    3    0    0  0.44124894976E+02  0.43645095224E+02 -0.53039928627E+02  0.81646400549E+02  0.10000000000E+01 0.  0.
    9000005    1    3    3    0    0 -0.44124894976E+02 -0.43645095224E+02 -0.73845840047E+02  0.96468174991E+02  0.10000000000E+01 0.  0.
<mgrwt>
<rscale>  0 0.12499921E+03</rscale>
<asrwt>0</asrwt>
<pdfrwt beam="1">  1        4 0.39406775E-02 0.12499921E+03</pdfrwt>
<pdfrwt beam="2">  1       -4 0.23461564E-01 0.12499921E+03</pdfrwt>
<totfact> 0.93959145E+03</totfact>
</mgrwt>
</event>
<event>
 5    1  0.3257199E-002  0.1250016E+03  0.7818608E-02  0.1235067E+00
         -4   -1    0    0    0  501 -0.00000000000E+00  0.00000000000E+00  0.44133680977E+02  0.44151950088E+02  0.12700000000E+01 0. -1.
          4   -1    0    0  501    0  0.00000000000E+00 -0.00000000000E+00 -0.88470602513E+02  0.88479717501E+02  0.12700000000E+01 0. -1.
         25    2    1    2    0    0  0.00000000000E+00  0.00000000000E+00 -0.44336921536E+02  0.13263166759E+03  0.12500158653E+03 0.  0.
    9000005    1    3    3    0    0 -0.37604311532E+02  0.23516867287E+02 -0.68880997173E+02  0.81931184932E+02  0.10000000000E+01 0.  0.
    9000005    1    3    3    0    0  0.37604311532E+02 -0.23516867287E+02  0.24544075637E+02  0.50700482657E+02  0.10000000000E+01 0.  0.
<mgrwt>
<rscale>  0 0.12500159E+03</rscale>
<asrwt>0</asrwt>
<pdfrwt beam="2">  1        4 0.13612968E-01 0.12500159E+03</pdfrwt>
<pdfrwt beam="1">  1       -4 0.67919035E-02 0.12500159E+03</pdfrwt>
<totfact> 0.10287866E+04</totfact>
</mgrwt>
</event>
<event>
 5    1  0.3257199E-002  0.1249995E+03  0.7818608E-02  0.1235070E+00
          4   -1    0    0  501    0  0.00000000000E+00  0.00000000000E+00  0.14695438314E+02  0.14750213803E+02  0.12700000000E+01 0.  1.
         -4   -1    0    0    0  501 -0.00000000000E+00 -0.00000000000E+00 -0.26526075295E+03  0.26526379315E+03  0.12700000000E+01 0.  1.
         25    2    1    2    0    0  0.00000000000E+00  0.00000000000E+00 -0.25056531463E+03  0.28001400695E+03  0.12499946876E+03 0.  0.
    9000005    1    3    3    0    0  0.16363704298E+02 -0.51464697355E+00 -0.26038225413E+03  0.26089835941E+03  0.10000000000E+01 0.  0.
    9000005    1    3    3    0    0 -0.16363704298E+02  0.51464697355E+00  0.98169394907E+01  0.19115647539E+02  0.10000000000E+01 0.  0.
<mgrwt>
<rscale>  0 0.12499947E+03</rscale>
<asrwt>0</asrwt>
<pdfrwt beam="1">  1        4 0.22652842E-02 0.12499947E+03</pdfrwt>
<pdfrwt beam="2">  1       -4 0.40813790E-01 0.12499947E+03</pdfrwt>
<totfact> 0.78177173E+03</totfact>
</mgrwt>
</event>
<event>
 5    1  0.3257199E-002  0.1250015E+03  0.7818608E-02  0.1235067E+00
         -4   -1    0    0    0  501 -0.00000000000E+00  0.00000000000E+00  0.22793984135E+02  0.22829336669E+02  0.12700000000E+01 0.  1.
          4   -1    0    0  501    0  0.00000000000E+00 -0.00000000000E+00 -0.17120548008E+03  0.17121019044E+03  0.12700000000E+01 0.  1.
         25    2    1    2    0    0  0.00000000000E+00  0.00000000000E+00 -0.14841149595E+03  0.19403952711E+03  0.12500146380E+03 0.  0.
    9000005    1    3    3    0    0 -0.49105564006E+02 -0.34365965592E+02 -0.46744306632E+02  0.76015828680E+02  0.10000000000E+01 0.  0.
    9000005    1    3    3    0    0  0.49105564006E+02  0.34365965592E+02 -0.10166718932E+03  0.11802369843E+03  0.10000000000E+01 0.  0.
<mgrwt>
<rscale>  0 0.12500146E+03</rscale>
<asrwt>0</asrwt>
<pdfrwt beam="2">  1        4 0.26342386E-01 0.12500146E+03</pdfrwt>
<pdfrwt beam="1">  1       -4 0.35098487E-02 0.12500146E+03</pdfrwt>
<totfact> 0.91146175E+03</totfact>
</mgrwt>
</event>
<event>
 5    1  0.3257199E-002  0.1249922E+03  0.7818608E-02  0.1235081E+00
         -4   -1    0    0    0  501 -0.00000000000E+00  0.00000000000E+00  0.12648175060E+03  0.12648812646E+03  0.12700000000E+01 0. -1.
          4   -1    0    0  501    0  0.00000000000E+00 -0.00000000000E+00 -0.30859823736E+02  0.30885945364E+02  0.12700000000E+01 0. -1.
         25    2    1    2    0    0  0.00000000000E+00  0.00000000000E+00  0.95621926861E+02  0.15737407182E+03  0.12499218209E+03 0.  0.
    9000005    1    3    3    0    0 -0.56929129111E+02 -0.24253793278E+02  0.36864341734E+02  0.72035768346E+02  0.10000000000E+01 0.  0.
    9000005    1    3    3    0    0  0.56929129111E+02  0.24253793278E+02  0.58757585127E+02  0.85338303473E+02  0.10000000000E+01 0.  0.
<mgrwt>
<rscale>  0 0.12499218E+03</rscale>
<asrwt>0</asrwt>
<pdfrwt beam="2">  1        4 0.47501649E-02 0.12499218E+03</pdfrwt>
<pdfrwt beam="1">  1       -4 0.19461231E-01 0.12499218E+03</pdfrwt>
<totfact> 0.97868647E+03</totfact>
</mgrwt>
</event>
<event>
 5    1  0.3257199E-002  0.1249972E+03  0.7818608E-02  0.1235074E+00
          4   -1    0    0  501    0  0.00000000000E+00  0.00000000000E+00  0.52444706363E+03  0.52444860134E+03  0.12700000000E+01 0. -1.
         -4   -1    0    0    0  501 -0.00000000000E+00 -0.00000000000E+00 -0.73922911271E+01  0.75005911839E+01  0.12700000000E+01 0. -1.
         25    2    1    2    0    0  0.00000000000E+00  0.00000000000E+00  0.51705477250E+03  0.53194919252E+03  0.12499722261E+03 0.  0.
    9000005    1    3    3    0    0  0.35437043545E+02  0.42041493495E+02  0.13215385685E+03  0.14313948830E+03  0.10000000000E+01 0.  0.
    9000005    1    3    3    0    0 -0.35437043545E+02 -0.42041493495E+02  0.38490091565E+03  0.38880970422E+03  0.10000000000E+01 0.  0.
<mgrwt>
<rscale>  0 0.12499722E+03</rscale>
<asrwt>0</asrwt>
<pdfrwt beam="1">  1        4 0.80692611E-01 0.12499722E+03</pdfrwt>
<pdfrwt beam="2">  1       -4 0.11457246E-02 0.12499722E+03</pdfrwt>
<totfact> 0.53471263E+03</totfact>
</mgrwt>
</event>
<event>
 5    1  0.3257199E-002  0.1249924E+03  0.7818608E-02  0.1235081E+00
         -4   -1    0    0    0  501 -0.00000000000E+00  0.00000000000E+00  0.51495921755E+03  0.51496078359E+03  0.12700000000E+01 0.  1.
          4   -1    0    0  501    0  0.00000000000E+00 -0.00000000000E+00 -0.75298834163E+01  0.76362323343E+01  0.12700000000E+01 0.  1.
         25    2    1    2    0    0  0.00000000000E+00  0.00000000000E+00  0.50742933413E+03  0.52259701593E+03  0.12499244744E+03 0.  0.
    9000005    1    3    3    0    0  0.59273967545E+02  0.84336877163E+01  0.17889321406E+03  0.18864864789E+03  0.10000000000E+01 0.  0.
    9000005    1    3    3    0    0 -0.59273967545E+02 -0.84336877163E+01  0.32853612008E+03  0.33394836803E+03  0.10000000000E+01 0.  0.
<mgrwt>
<rscale>  0 0.12499245E+03</rscale>
<asrwt>0</asrwt>
<pdfrwt beam="2">  1        4 0.11667446E-02 0.12499245E+03</pdfrwt>
<pdfrwt beam="1">  1       -4 0.79232803E-01 0.12499245E+03</pdfrwt>
<totfact> 0.54161756E+03</totfact>
</mgrwt>
</event>
<event>
 5    1  0.3257199E-002  0.1250024E+03  0.7818608E-02  0.1235065E+00
         -4   -1    0    0    0  501 -0.00000000000E+00  0.00000000000E+00  0.22858632129E+03  0.22858984926E+03  0.12700000000E+01 0. -1.
          4   -1    0    0  501    0  0.00000000000E+00 -0.00000000000E+00 -0.17062133262E+02  0.17109333460E+02  0.12700000000E+01 0. -1.
         25    2    1    2    0    0  0.00000000000E+00  0.00000000000E+00  0.21152418803E+03  0.24569918271E+03  0.12500242503E+03 0.  0.
    9000005    1    3    3    0    0  0.35237211363E+02  0.24408175492E+02  0.19514584895E+03  0.19980070685E+03  0.10000000000E+01 0.  0.
    9000005    1    3    3    0    0 -0.35237211363E+02 -0.24408175492E+02  0.16378339080E+02  0.45898475863E+02  0.10000000000E+01 0.  0.
<mgrwt>
<rscale>  0 0.12500243E+03</rscale>
<asrwt>0</asrwt>
<pdfrwt beam="2">  1        4 0.26288461E-02 0.12500243E+03</pdfrwt>
<pdfrwt beam="1">  1       -4 0.35171024E-01 0.12500243E+03</pdfrwt>
<totfact> 0.82951350E+03</totfact>
</mgrwt>
</event>
<event>
 5    1  0.3257199E-002  0.1250008E+03  0.7818608E-02  0.1235068E+00
         -4   -1    0    0    0  501 -0.00000000000E+00  0.00000000000E+00  0.68038455612E+02  0.68050307436E+02  0.12700000000E+01 0. -1.
          4   -1    0    0  501    0  0.00000000000E+00 -0.00000000000E+00 -0.57389216090E+02  0.57403266661E+02  0.12700000000E+01 0. -1.
         25    2    1    2    0    0  0.00000000000E+00  0.00000000000E+00  0.10649239523E+02  0.12545357410E+03  0.12500077180E+03 0.  0.
    9000005    1    3    3    0    0  0.31950295054E+02 -0.35226515547E+02 -0.35363196250E+02  0.59272965175E+02  0.10000000000E+01 0.  0.
    9000005    1    3    3    0    0 -0.31950295054E+02  0.35226515547E+02  0.46012435772E+02  0.66180608922E+02  0.10000000000E+01 0.  0.
<mgrwt>
<rscale>  0 0.12500077E+03</rscale>
<asrwt>0</asrwt>
<pdfrwt beam="2">  1        4 0.88311027E-02 0.12500077E+03</pdfrwt>
<pdfrwt beam="1">  1       -4 0.10469447E-01 0.12500077E+03</pdfrwt>
<totfact> 0.10442799E+04</totfact>
</mgrwt>
</event>
<event>
 5    1  0.3257199E-002  0.1249982E+03  0.7818608E-02  0.1235072E+00
          4   -1    0    0  501    0  0.00000000000E+00  0.00000000000E+00  0.91999114290E+01  0.92871562009E+01  0.12700000000E+01 0.  1.
         -4   -1    0    0    0  501 -0.00000000000E+00 -0.00000000000E+00 -0.42249239505E+03  0.42249430384E+03  0.12700000000E+01 0.  1.
         25    2    1    2    0    0  0.00000000000E+00  0.00000000000E+00 -0.41329248363E+03  0.43178146004E+03  0.12499820885E+03 0.  0.
    9000005    1    3    3    0    0 -0.11015841270E+01 -0.61333436981E+02 -0.16546406457E+03  0.17647198260E+03  0.10000000000E+01 0.  0.
    9000005    1    3    3    0    0  0.11015841270E+01  0.61333436981E+02 -0.24782841906E+03  0.25530947744E+03  0.10000000000E+01 0.  0.
<mgrwt>
<rscale>  0 0.12499821E+03</rscale>
<asrwt>0</asrwt>
<pdfrwt beam="1">  1        4 0.14222293E-02 0.12499821E+03</pdfrwt>
<pdfrwt beam="2">  1       -4 0.65005673E-01 0.12499821E+03</pdfrwt>
<totfact> 0.61577283E+03</totfact>
</mgrwt>
</event>
<event>
 5    1  0.3257199E-002  0.1249988E+03  0.7818608E-02  0.1235071E+00
          4   -1    0    0  501    0  0.00000000000E+00  0.00000000000E+00  0.11122592767E+02  0.11194863548E+02  0.12700000000E+01 0. -1.
         -4   -1    0    0    0  501 -0.00000000000E+00 -0.00000000000E+00 -0.34998221070E+03  0.34998451495E+03  0.12700000000E+01 0. -1.
         25    2    1    2    0    0  0.00000000000E+00  0.00000000000E+00 -0.33885961793E+03  0.36117937850E+03  0.12499881115E+03 0.  0.
    9000005    1    3    3    0    0  0.27405304787E+02 -0.10561496783E+02 -0.32881136014E+03  0.33012195701E+03  0.10000000000E+01 0.  0.
    9000005    1    3    3    0    0 -0.27405304787E+02  0.10561496783E+02 -0.10048257791E+02  0.31057421487E+02  0.10000000000E+01 0.  0.
<mgrwt>
<rscale>  0 0.12499881E+03</rscale>
<asrwt>0</asrwt>
<pdfrwt beam="1">  1        4 0.17169049E-02 0.12499881E+03</pdfrwt>
<pdfrwt beam="2">  1       -4 0.53849145E-01 0.12499881E+03</pdfrwt>
<totfact> 0.68513753E+03</totfact>
</mgrwt>
</event>
<event>
 5    1  0.3257199E-002  0.1250011E+03  0.7818608E-02  0.1235067E+00
          4   -1    0    0  501    0  0.00000000000E+00  0.00000000000E+00  0.14114491411E+02  0.14171512544E+02  0.12700000000E+01 0. -1.
         -4   -1    0    0    0  501 -0.00000000000E+00 -0.00000000000E+00 -0.27614326357E+03  0.27614618396E+03  0.12700000000E+01 0. -1.
         25    2    1    2    0    0  0.00000000000E+00  0.00000000000E+00 -0.26202877216E+03  0.29031769650E+03  0.12500114985E+03 0.  0.
    9000005    1    3    3    0    0 -0.56110752607E+02  0.43113267561E+01 -0.19412191308E+03  0.20211709783E+03  0.10000000000E+01 0.  0.
    9000005    1    3    3    0    0  0.56110752607E+02 -0.43113267561E+01 -0.67906859074E+02  0.88200598670E+02  0.10000000000E+01 0.  0.
<mgrwt>
<rscale>  0 0.12500115E+03</rscale>
<asrwt>0</asrwt>
<pdfrwt beam="1">  1        4 0.21760713E-02 0.12500115E+03</pdfrwt>
<pdfrwt beam="2">  1       -4 0.42488186E-01 0.12500115E+03</pdfrwt>
<totfact> 0.76827684E+03</totfact>
</mgrwt>
</event>
<event>
 5    1  0.3257199E-002  0.1250079E+03  0.7818608E-02  0.1235057E+00
          4   -1    0    0  501    0  0.00000000000E+00  0.00000000000E+00  0.65554927173E+02  0.65567227917E+02  0.12700000000E+01 0.  1.
         -4   -1    0    0    0  501 -0.00000000000E+00 -0.00000000000E+00 -0.59570321972E+02  0.59583858216E+02  0.12700000000E+01 0.  1.
         25    2    1    2    0    0  0.00000000000E+00  0.00000000000E+00  0.59846052014E+01  0.12515108613E+03  0.12500791519E+03 0.  0.
    9000005    1    3    3    0    0 -0.34555390563E+02 -0.50332678242E+02  0.16360167991E+02  0.63214781600E+02  0.10000000000E+01 0.  0.
    9000005    1    3    3    0    0  0.34555390563E+02  0.50332678242E+02 -0.10375562790E+02  0.61936304533E+02  0.10000000000E+01 0.  0.
<mgrwt>
<rscale>  0 0.12500792E+03</rscale>
<asrwt>0</asrwt>
<pdfrwt beam="1">  1        4 0.10087361E-01 0.12500792E+03</pdfrwt>
<pdfrwt beam="2">  1       -4 0.91666524E-02 0.12500792E+03</pdfrwt>
<totfact> 0.10447713E+04</totfact>
</mgrwt>
</event>
<event>
 5    1  0.3257199E-002  0.1249995E+03  0.7818608E-02  0.1235070E+00
         -4   -1    0    0    0  501 -0.00000000000E+00  0.00000000000E+00  0.11291426527E+03  0.11292140719E+03  0.12700000000E+01 0. -1.
          4   -1    0    0  501    0  0.00000000000E+00 -0.00000000000E+00 -0.34574674364E+02  0.34597991378E+02  0.12700000000E+01 0. -1.
         25    2    1    2    0    0  0.00000000000E+00  0.00000000000E+00  0.78339590903E+02  0.14751939856E+03  0.12499952580E+03 0.  0.
    9000005    1    3    3    0    0 -0.36551959309E+02 -0.17372953816E+02 -0.17025575134E+02  0.43917370848E+02  0.10000000000E+01 0.  0.
    9000005    1    3    3    0    0  0.36551959309E+02  0.17372953816E+02  0.95365166037E+02  0.10360202772E+03  0.10000000000E+01 0.  0.
<mgrwt>
<rscale>  0 0.12499953E+03</rscale>
<asrwt>0</asrwt>
<pdfrwt beam="2">  1        4 0.53215236E-02 0.12499953E+03</pdfrwt>
<pdfrwt beam="1">  1       -4 0.17373769E-01 0.12499953E+03</pdfrwt>
<totfact> 0.99801552E+03</totfact>
</mgrwt>
</event>
<event>
 5    1  0.3257199E-002  0.1250019E+03  0.7818608E-02  0.1235066E+00
         -4   -1    0    0    0  501 -0.00000000000E+00  0.00000000000E+00  0.36362728009E+02  0.36384899179E+02  0.12700000000E+01 0. -1.
          4   -1    0    0  501    0  0.00000000000E+00 -0.00000000000E+00 -0.10736916064E+03  0.10737667137E+03  0.12700000000E+01 0. -1.
         25    2    1    2    0    0  0.00000000000E+00  0.00000000000E+00 -0.71006432626E+02  0.14376157055E+03  0.12500190276E+03 0.  0.
    9000005    1    3    3    0    0  0.60938403122E+02  0.10171204907E+02 -0.46317991572E+02  0.77222397836E+02  0.10000000000E+01 0.  0.
    9000005    1    3    3    0    0 -0.60938403122E+02 -0.10171204907E+02 -0.24688441054E+02  0.66539172718E+02  0.10000000000E+01 0.  0.
<mgrwt>
<rscale>  0 0.12500190E+03</rscale>
<asrwt>0</asrwt>
<pdfrwt beam="2">  1        4 0.16520615E-01 0.12500190E+03</pdfrwt>
<pdfrwt beam="1">  1       -4 0.55965491E-02 0.12500190E+03</pdfrwt>
<totfact> 0.10055780E+04</totfact>
</mgrwt>
</event>
<event>
 5    1  0.3257199E-002  0.1250028E+03  0.7818608E-02  0.1235065E+00
          4   -1    0    0  501    0  0.00000000000E+00  0.00000000000E+00  0.48304175150E+02  0.48320867510E+02  0.12700000000E+01 0.  1.
         -4   -1    0    0    0  501 -0.00000000000E+00 -0.00000000000E+00 -0.80835699385E+02  0.80845675178E+02  0.12700000000E+01 0.  1.
         25    2    1    2    0    0  0.00000000000E+00  0.00000000000E+00 -0.32531524234E+02  0.12916654269E+03  0.12500278269E+03 0.  0.
    9000005    1    3    3    0    0  0.50982126550E+02  0.55540353536E+00  0.21075730222E+02  0.55178547507E+02  0.10000000000E+01 0.  0.
    9000005    1    3    3    0    0 -0.50982126550E+02 -0.55540353536E+00 -0.53607254456E+02  0.73987995181E+02  0.10000000000E+01 0.  0.
<mgrwt>
<rscale>  0 0.12500278E+03</rscale>
<asrwt>0</asrwt>
<pdfrwt beam="1">  1        4 0.74334629E-02 0.12500278E+03</pdfrwt>
<pdfrwt beam="2">  1       -4 0.12438313E-01 0.12500278E+03</pdfrwt>
<totfact> 0.10361719E+04</totfact>
</mgrwt>
</event>
<event>
 5    1  0.3257199E-002  0.1250097E+03  0.7818608E-02  0.1235054E+00
          4   -1    0    0  501    0  0.00000000000E+00  0.00000000000E+00  0.12781663348E+03  0.12782294276E+03  0.12700000000E+01 0.  1.
         -4   -1    0    0    0  501 -0.00000000000E+00 -0.00000000000E+00 -0.30545836743E+02  0.30572226650E+02  0.12700000000E+01 0.  1.
         25    2    1    2    0    0  0.00000000000E+00  0.00000000000E+00  0.97270796740E+02  0.15839516941E+03  0.12500968680E+03 0.  0.
    9000005    1    3    3    0    0  0.25474311964E+01  0.24942416000E+02  0.12117121700E+03  0.12374197893E+03  0.10000000000E+01 0.  0.
    9000005    1    3    3    0    0 -0.25474311964E+01 -0.24942416000E+02 -0.23900420256E+02  0.34653190474E+02  0.10000000000E+01 0.  0.
<mgrwt>
<rscale>  0 0.12500969E+03</rscale>
<asrwt>0</asrwt>
<pdfrwt beam="1">  1        4 0.19666613E-01 0.12500969E+03</pdfrwt>
<pdfrwt beam="2">  1       -4 0.47018748E-02 0.12500969E+03</pdfrwt>
<totfact> 0.97631815E+03</totfact>
</mgrwt>
</event>
<event>
 5    1  0.3257199E-002  0.1250005E+03  0.7818608E-02  0.1235068E+00
         -4   -1    0    0    0  501 -0.00000000000E+00  0.00000000000E+00  0.81827870903E+01  0.82807550722E+01  0.12700000000E+01 0. -1.
          4   -1    0    0  501    0  0.00000000000E+00 -0.00000000000E+00 -0.47443864290E+03  0.47444034270E+03  0.12700000000E+01 0. -1.
         25    2    1    2    0    0  0.00000000000E+00  0.00000000000E+00 -0.46625585581E+03  0.48272109777E+03  0.12500054061E+03 0.  0.
    9000005    1    3    3    0    0 -0.51421266810E+02 -0.24302092953E+02 -0.13312827826E+03  0.14477180967E+03  0.10000000000E+01 0.  0.
    9000005    1    3    3    0    0  0.51421266810E+02  0.24302092953E+02 -0.33312757755E+03  0.33794928810E+03  0.10000000000E+01 0.  0.
<mgrwt>
<rscale>  0 0.12500054E+03</rscale>
<asrwt>0</asrwt>
<pdfrwt beam="2">  1        4 0.72998206E-01 0.12500054E+03</pdfrwt>
<pdfrwt beam="1">  1       -4 0.12665574E-02 0.12500054E+03</pdfrwt>
<totfact> 0.57229698E+03</totfact>
</mgrwt>
</event>
<event>
 5    1  0.3257199E-002  0.1249980E+03  0.7818608E-02  0.1235072E+00
         -4   -1    0    0    0  501 -0.00000000000E+00  0.00000000000E+00  0.73696355740E+01  0.74782637353E+01  0.12700000000E+01 0. -1.
          4   -1    0    0  501    0  0.00000000000E+00 -0.00000000000E+00 -0.52604215044E+03  0.52604368349E+03  0.12700000000E+01 0. -1.
         25    2    1    2    0    0  0.00000000000E+00  0.00000000000E+00 -0.51867251486E+03  0.53352194722E+03  0.12499796196E+03 0.  0.
    9000005    1    3    3    0    0  0.24662681583E+01  0.10310760927E+02  0.35241802002E+01  0.11216689155E+02  0.10000000000E+01 0.  0.
    9000005    1    3    3    0    0 -0.24662681583E+01 -0.10310760927E+02 -0.52219669506E+03  0.52230525807E+03  0.10000000000E+01 0.  0.
<mgrwt>
<rscale>  0 0.12499796E+03</rscale>
<asrwt>0</asrwt>
<pdfrwt beam="2">  1        4 0.80938006E-01 0.12499796E+03</pdfrwt>
<pdfrwt beam="1">  1       -4 0.11422644E-02 0.12499796E+03</pdfrwt>
<totfact> 0.53356557E+03</totfact>
</mgrwt>
</event>
<event>
 5    1  0.3257199E-002  0.1250005E+03  0.7818608E-02  0.1235069E+00
          4   -1    0    0  501    0  0.00000000000E+00  0.00000000000E+00  0.11328958674E+03  0.11329670500E+03  0.12700000000E+01 0.  1.
         -4   -1    0    0    0  501 -0.00000000000E+00 -0.00000000000E+00 -0.34460597090E+02  0.34483991239E+02  0.12700000000E+01 0.  1.
         25    2    1    2    0    0  0.00000000000E+00  0.00000000000E+00  0.78828989647E+02  0.14778069623E+03  0.12500049828E+03 0.  0.
    9000005    1    3    3    0    0 -0.72789096586E+01 -0.95486714535E+01 -0.33089952285E+02  0.35215118835E+02  0.10000000000E+01 0.  0.
    9000005    1    3    3    0    0  0.72789096586E+01  0.95486714535E+01  0.11191894193E+03  0.11256557740E+03  0.10000000000E+01 0.  0.
<mgrwt>
<rscale>  0 0.12500050E+03</rscale>
<asrwt>0</asrwt>
<pdfrwt beam="1">  1        4 0.17431514E-01 0.12500050E+03</pdfrwt>
<pdfrwt beam="2">  1       -4 0.53039775E-02 0.12500050E+03</pdfrwt>
<totfact> 0.99746817E+03</totfact>
</mgrwt>
</event>
<event>
 5    1  0.3257199E-002  0.1250011E+03  0.7818608E-02  0.1235067E+00
         -4   -1    0    0    0  501 -0.00000000000E+00  0.00000000000E+00  0.10715295960E+02  0.10790295062E+02  0.12700000000E+01 0. -1.
          4   -1    0    0  501    0  0.00000000000E+00 -0.00000000000E+00 -0.36320819381E+03  0.36321041415E+03  0.12700000000E+01 0. -1.
         25    2    1    2    0    0  0.00000000000E+00  0.00000000000E+00 -0.35249289785E+03  0.37400070922E+03  0.12500114984E+03 0.  0.
    9000005    1    3    3    0    0 -0.74031292697E+00  0.47341691546E+02 -0.29827874603E+03  0.30201489062E+03  0.10000000000E+01 0.  0.
    9000005    1    3    3    0    0  0.74031292697E+00 -0.47341691546E+02 -0.54214151813E+02  0.71985818593E+02  0.10000000000E+01 0.  0.
<mgrwt>
<rscale>  0 0.12500115E+03</rscale>
<asrwt>0</asrwt>
<pdfrwt beam="2">  1        4 0.55884114E-01 0.12500115E+03</pdfrwt>
<pdfrwt beam="1">  1       -4 0.16544473E-02 0.12500115E+03</pdfrwt>
<totfact> 0.67160752E+03</totfact>
</mgrwt>
</event>
<event>
 5    1  0.3257199E-002  0.1250012E+03  0.7818608E-02  0.1235067E+00
         -4   -1    0    0    0  501 -0.00000000000E+00  0.00000000000E+00  0.66055204870E+01  0.67264999000E+01  0.12700000000E+01 0. -1.
          4   -1    0    0  501    0  0.00000000000E+00 -0.00000000000E+00 -0.58588483228E+03  0.58588620874E+03  0.12700000000E+01 0. -1.
         25    2    1    2    0    0  0.00000000000E+00  0.00000000000E+00 -0.57927931179E+03  0.59261270864E+03  0.12500120549E+03 0.  0.
    9000005    1    3    3    0    0  0.17484039311E+02 -0.10564766696E+01 -0.52468715668E+01  0.18312220915E+02  0.10000000000E+01 0.  0.
    9000005    1    3    3    0    0 -0.17484039311E+02  0.10564766696E+01 -0.57403244023E+03  0.57430048773E+03  0.10000000000E+01 0.  0.
<mgrwt>
<rscale>  0 0.12500121E+03</rscale>
<asrwt>0</asrwt>
<pdfrwt beam="2">  1        4 0.90145499E-01 0.12500121E+03</pdfrwt>
<pdfrwt beam="1">  1       -4 0.10256464E-02 0.12500121E+03</pdfrwt>
<totfact> 0.49335975E+03</totfact>
</mgrwt>
</event>
<event>
 5    1  0.3257199E-002  0.1250012E+03  0.7818608E-02  0.1235067E+00
          4   -1    0    0  501    0  0.00000000000E+00  0.00000000000E+00  0.83610879968E+02  0.83620524688E+02  0.12700000000E+01 0. -1.
         -4   -1    0    0    0  501 -0.00000000000E+00 -0.00000000000E+00 -0.46699341596E+02  0.46716607384E+02  0.12700000000E+01 0. -1.
         25    2    1    2    0    0  0.00000000000E+00  0.00000000000E+00  0.36911538372E+02  0.13033713207E+03  0.12500122532E+03 0.  0.
    9000005    1    3    3    0    0 -0.52325043572E+02 -0.18494450479E+02 -0.11499875956E+02  0.56685112951E+02  0.10000000000E+01 0.  0.
    9000005    1    3    3    0    0  0.52325043572E+02  0.18494450479E+02  0.48411414328E+02  0.73652019120E+02  0.10000000000E+01 0.  0.
<mgrwt>
<rscale>  0 0.12500123E+03</rscale>
<asrwt>0</asrwt>
<pdfrwt beam="1">  1        4 0.12865282E-01 0.12500123E+03</pdfrwt>
<pdfrwt beam="2">  1       -4 0.71865842E-02 0.12500123E+03</pdfrwt>
<totfact> 0.10337015E+04</totfact>
</mgrwt>
</event>
<event>
 5    1  0.3257199E-002  0.1249953E+03  0.7818608E-02  0.1235077E+00
         -4   -1    0    0    0  501 -0.00000000000E+00  0.00000000000E+00  0.10745919921E+02  0.10820706768E+02  0.12700000000E+01 0. -1.
          4   -1    0    0  501    0  0.00000000000E+00 -0.00000000000E+00 -0.36214648212E+03  0.36214870898E+03  0.12700000000E+01 0. -1.
         25    2    1    2    0    0  0.00000000000E+00  0.00000000000E+00 -0.35140056220E+03  0.37296941575E+03  0.12499531978E+03 0.  0.
    9000005    1    3    3    0    0 -0.97078059378E+01  0.61509253839E+02 -0.16010185032E+03  0.17178833569E+03  0.10000000000E+01 0.  0.
    9000005    1    3    3    0    0  0.97078059378E+01 -0.61509253839E+02 -0.19129871188E+03  0.20118108005E+03  0.10000000000E+01 0.  0.
<mgrwt>
<rscale>  0 0.12499532E+03</rscale>
<asrwt>0</asrwt>
<pdfrwt beam="2">  1        4 0.55720758E-01 0.12499532E+03</pdfrwt>
<pdfrwt beam="1">  1       -4 0.16591429E-02 0.12499532E+03</pdfrwt>
<totfact> 0.67276385E+03</totfact>
</mgrwt>
</event>
<event>
 5    1  0.3257199E-002  0.1250038E+03  0.7818608E-02  0.1235063E+00
         -4   -1    0    0    0  501 -0.00000000000E+00  0.00000000000E+00  0.13555070239E+02  0.13614434590E+02  0.12700000000E+01 0.  1.
          4   -1    0    0  501    0  0.00000000000E+00 -0.00000000000E+00 -0.28750313281E+03  0.28750593781E+03  0.12700000000E+01 0.  1.
         25    2    1    2    0    0  0.00000000000E+00  0.00000000000E+00 -0.27394806257E+03  0.30112037240E+03  0.12500375069E+03 0.  0.
    9000005    1    3    3    0    0  0.39913231992E+02 -0.21603053401E+02 -0.24046459651E+03  0.24471203522E+03  0.10000000000E+01 0.  0.
    9000005    1    3    3    0    0 -0.39913231992E+02  0.21603053401E+02 -0.33483466057E+02  0.56408337181E+02  0.10000000000E+01 0.  0.
<mgrwt>
<rscale>  0 0.12500375E+03</rscale>
<asrwt>0</asrwt>
<pdfrwt beam="2">  1        4 0.44236029E-01 0.12500375E+03</pdfrwt>
<pdfrwt beam="1">  1       -4 0.20901779E-02 0.12500375E+03</pdfrwt>
<totfact> 0.75452236E+03</totfact>
</mgrwt>
</event>
<event>
 5    1  0.3257199E-002  0.1250052E+03  0.7818608E-02  0.1235061E+00
         -4   -1    0    0    0  501 -0.00000000000E+00  0.00000000000E+00  0.51182076592E+03  0.51182234157E+03  0.12700000000E+01 0.  1.
          4   -1    0    0  501    0  0.00000000000E+00 -0.00000000000E+00 -0.75782692681E+01  0.76839485358E+01  0.12700000000E+01 0.  1.
         25    2    1    2    0    0  0.00000000000E+00  0.00000000000E+00  0.50424249665E+03  0.51950629010E+03  0.12500516000E+03 0.  0.
    9000005    1    3    3    0    0  0.26228524565E+02  0.55719770585E+02  0.20795456551E+03  0.21688413877E+03  0.10000000000E+01 0.  0.
    9000005    1    3    3    0    0 -0.26228524565E+02 -0.55719770585E+02  0.29628793114E+03  0.30262215133E+03  0.10000000000E+01 0.  0.
<mgrwt>
<rscale>  0 0.12500516E+03</rscale>
<asrwt>0</asrwt>
<pdfrwt beam="2">  1        4 0.11741380E-02 0.12500516E+03</pdfrwt>
<pdfrwt beam="1">  1       -4 0.78749902E-01 0.12500516E+03</pdfrwt>
<totfact> 0.54375891E+03</totfact>
</mgrwt>
</event>
<event>
 5    1  0.3257199E-002  0.1249971E+03  0.7818608E-02  0.1235074E+00
          4   -1    0    0  501    0  0.00000000000E+00  0.00000000000E+00  0.19241080037E+03  0.19241499162E+03  0.12700000000E+01 0.  1.
         -4   -1    0    0    0  501 -0.00000000000E+00 -0.00000000000E+00 -0.20276377565E+02  0.20316111516E+02  0.12700000000E+01 0.  1.
         25    2    1    2    0    0  0.00000000000E+00  0.00000000000E+00  0.17213442281E+03  0.21273110314E+03  0.12499705087E+03 0.  0.
    9000005    1    3    3    0    0 -0.76963676084E+00  0.10799511139E+02  0.19081075492E+03  0.19112029189E+03  0.10000000000E+01 0.  0.
    9000005    1    3    3    0    0  0.76963676084E+00 -0.10799511139E+02 -0.18676332108E+02  0.21610811243E+02  0.10000000000E+01 0.  0.
<mgrwt>
<rscale>  0 0.12499705E+03</rscale>
<asrwt>0</asrwt>
<pdfrwt beam="1">  1        4 0.29605042E-01 0.12499705E+03</pdfrwt>
<pdfrwt beam="2">  1       -4 0.31228214E-02 0.12499705E+03</pdfrwt>
<totfact> 0.88037591E+03</totfact>
</mgrwt>
</event>
<event>
 5    1  0.3257199E-002  0.1249986E+03  0.7818608E-02  0.1235071E+00
         -4   -1    0    0    0  501 -0.00000000000E+00  0.00000000000E+00  0.37741704542E+03  0.37741918217E+03  0.12700000000E+01 0. -1.
          4   -1    0    0  501    0  0.00000000000E+00 -0.00000000000E+00 -0.10308588320E+02  0.10386524595E+02  0.12700000000E+01 0. -1.
         25    2    1    2    0    0  0.00000000000E+00  0.00000000000E+00  0.36710845710E+03  0.38780570677E+03  0.12499858771E+03 0.  0.
    9000005    1    3    3    0    0 -0.25039515640E+02  0.43663524563E+02  0.29845836225E+03  0.30267453596E+03  0.10000000000E+01 0.  0.
    9000005    1    3    3    0    0  0.25039515640E+02 -0.43663524563E+02  0.68650094847E+02  0.85131170808E+02  0.10000000000E+01 0.  0.
<mgrwt>
<rscale>  0 0.12499859E+03</rscale>
<asrwt>0</asrwt>
<pdfrwt beam="2">  1        4 0.15920962E-02 0.12499859E+03</pdfrwt>
<pdfrwt beam="1">  1       -4 0.58070319E-01 0.12499859E+03</pdfrwt>
<totfact> 0.65758376E+03</totfact>
</mgrwt>
</event>
<event>
 5    1  0.3257199E-002  0.1249850E+03  0.7818608E-02  0.1235093E+00
          4   -1    0    0  501    0  0.00000000000E+00  0.00000000000E+00  0.24158855256E+03  0.24159189065E+03  0.12700000000E+01 0. -1.
         -4   -1    0    0    0  501 -0.00000000000E+00 -0.00000000000E+00 -0.16136751106E+02  0.16186649939E+02  0.12700000000E+01 0. -1.
         25    2    1    2    0    0  0.00000000000E+00  0.00000000000E+00  0.22545180146E+03  0.25777854059E+03  0.12498504395E+03 0.  0.
    9000005    1    3    3    0    0  0.36752993432E+02  0.26989485829E+02  0.20083729980E+03  0.20595105210E+03  0.10000000000E+01 0.  0.
    9000005    1    3    3    0    0 -0.36752993432E+02 -0.26989485829E+02  0.24614501661E+02  0.51827488493E+02  0.10000000000E+01 0.  0.
<mgrwt>
<rscale>  0 0.12498504E+03</rscale>
<asrwt>0</asrwt>
<pdfrwt beam="1">  1        4 0.37171565E-01 0.12498504E+03</pdfrwt>
<pdfrwt beam="2">  1       -4 0.24866722E-02 0.12498504E+03</pdfrwt>
<totfact> 0.81245873E+03</totfact>
</mgrwt>
</event>
<event>
 5    1  0.3257199E-002  0.1250041E+03  0.7818608E-02  0.1235063E+00
          4   -1    0    0  501    0  0.00000000000E+00  0.00000000000E+00  0.14992964323E+03  0.14993502199E+03  0.12700000000E+01 0.  1.
         -4   -1    0    0    0  501 -0.00000000000E+00 -0.00000000000E+00 -0.26034291641E+02  0.26065249687E+02  0.12700000000E+01 0.  1.
         25    2    1    2    0    0  0.00000000000E+00  0.00000000000E+00  0.12389535159E+03  0.17600027168E+03  0.12500414987E+03 0.  0.
    9000005    1    3    3    0    0 -0.24720165620E+02 -0.54348674030E+02  0.87933682321E+02  0.10629297928E+03  0.10000000000E+01 0.  0.
    9000005    1    3    3    0    0  0.24720165620E+02  0.54348674030E+02  0.35961669269E+02  0.69707292400E+02  0.10000000000E+01 0.  0.
<mgrwt>
<rscale>  0 0.12500415E+03</rscale>
<asrwt>0</asrwt>
<pdfrwt beam="1">  1        4 0.23068895E-01 0.12500415E+03</pdfrwt>
<pdfrwt beam="2">  1       -4 0.40080707E-02 0.12500415E+03</pdfrwt>
<totfact> 0.94333180E+03</totfact>
</mgrwt>
</event>
<event>
 5    1  0.3257199E-002  0.1249974E+03  0.7818608E-02  0.1235073E+00
          4   -1    0    0  501    0  0.00000000000E+00  0.00000000000E+00  0.26196257230E+02  0.26227024095E+02  0.12700000000E+01 0.  1.
         -4   -1    0    0    0  501 -0.00000000000E+00 -0.00000000000E+00 -0.14898772961E+03  0.14899314237E+03  0.12700000000E+01 0.  1.
         25    2    1    2    0    0  0.00000000000E+00  0.00000000000E+00 -0.12279147238E+03  0.17522016646E+03  0.12499744416E+03 0.  0.
    9000005    1    3    3    0    0 -0.45406583498E+02  0.27063490505E+02 -0.10811762839E+03  0.12035203327E+03  0.10000000000E+01 0.  0.
    9000005    1    3    3    0    0  0.45406583498E+02 -0.27063490505E+02 -0.14673843988E+02  0.54868133198E+02  0.10000000000E+01 0.  0.
<mgrwt>
<rscale>  0 0.12499744E+03</rscale>
<asrwt>0</asrwt>
<pdfrwt beam="1">  1        4 0.40329766E-02 0.12499744E+03</pdfrwt>
<pdfrwt beam="2">  1       -4 0.22923972E-01 0.12499744E+03</pdfrwt>
<totfact> 0.94489951E+03</totfact>
</mgrwt>
</event>
<event>
 5    1  0.3257199E-002  0.1249992E+03  0.7818608E-02  0.1235071E+00
         -4   -1    0    0    0  501 -0.00000000000E+00  0.00000000000E+00  0.12060776170E+03  0.12061444806E+03  0.12700000000E+01 0. -1.
          4   -1    0    0  501    0  0.00000000000E+00 -0.00000000000E+00 -0.32367590377E+02  0.32392496150E+02  0.12700000000E+01 0. -1.
         25    2    1    2    0    0  0.00000000000E+00  0.00000000000E+00  0.88240171321E+02  0.15300694421E+03  0.12499918857E+03 0.  0.
    9000005    1    3    3    0    0  0.59181074921E+02 -0.19754529596E+02  0.48457869892E+02  0.79005102511E+02  0.10000000000E+01 0.  0.
    9000005    1    3    3    0    0 -0.59181074921E+02  0.19754529596E+02  0.39782301430E+02  0.74001841703E+02  0.10000000000E+01 0.  0.
<mgrwt>
<rscale>  0 0.12499919E+03</rscale>
<asrwt>0</asrwt>
<pdfrwt beam="2">  1        4 0.49820594E-02 0.12499919E+03</pdfrwt>
<pdfrwt beam="1">  1       -4 0.18557471E-01 0.12499919E+03</pdfrwt>
<totfact> 0.98709452E+03</totfact>
</mgrwt>
</event>
<event>
 5    1  0.3257199E-002  0.1250041E+03  0.7818608E-02  0.1235063E+00
          4   -1    0    0  501    0  0.00000000000E+00  0.00000000000E+00  0.13257894917E+02  0.13318583920E+02  0.12700000000E+01 0. -1.
         -4   -1    0    0    0  501 -0.00000000000E+00 -0.00000000000E+00 -0.29392004941E+03  0.29392279317E+03  0.12700000000E+01 0. -1.
         25    2    1    2    0    0  0.00000000000E+00  0.00000000000E+00 -0.28066215450E+03  0.30724137709E+03  0.12500407526E+03 0.  0.
    9000005    1    3    3    0    0 -0.33126241511E+01 -0.34836053483E+02 -0.26759413903E+03  0.26987431768E+03  0.10000000000E+01 0.  0.
    9000005    1    3    3    0    0  0.33126241511E+01  0.34836053483E+02 -0.13068015471E+02  0.37367059416E+02  0.10000000000E+01 0.  0.
<mgrwt>
<rscale>  0 0.12500408E+03</rscale>
<asrwt>0</asrwt>
<pdfrwt beam="1">  1        4 0.20445558E-02 0.12500408E+03</pdfrwt>
<pdfrwt beam="2">  1       -4 0.45223344E-01 0.12500408E+03</pdfrwt>
<totfact> 0.74692628E+03</totfact>
</mgrwt>
</event>
<event>
 5    1  0.3257199E-002  0.1250003E+03  0.7818608E-02  0.1235069E+00
          4   -1    0    0  501    0  0.00000000000E+00  0.00000000000E+00  0.17867896276E+03  0.17868347610E+03  0.12700000000E+01 0.  1.
         -4   -1    0    0    0  501 -0.00000000000E+00 -0.00000000000E+00 -0.21838686385E+02  0.21875582804E+02  0.12700000000E+01 0.  1.
         25    2    1    2    0    0  0.00000000000E+00  0.00000000000E+00  0.15684027637E+03  0.20055905891E+03  0.12500025527E+03 0.  0.
    9000005    1    3    3    0    0  0.53890564705E+02 -0.28848156360E+02  0.57570873459E+02  0.83975082973E+02  0.10000000000E+01 0.  0.
    9000005    1    3    3    0    0 -0.53890564705E+02  0.28848156360E+02  0.99269402916E+02  0.11658397594E+03  0.10000000000E+01 0.  0.
<mgrwt>
<rscale>  0 0.12500026E+03</rscale>
<asrwt>0</asrwt>
<pdfrwt beam="1">  1        4 0.27492257E-01 0.12500026E+03</pdfrwt>
<pdfrwt beam="2">  1       -4 0.33629833E-02 0.12500026E+03</pdfrwt>
<totfact> 0.90040787E+03</totfact>
</mgrwt>
</event>
<event>
 5    1  0.3257199E-002  0.1250006E+03  0.7818608E-02  0.1235068E+00
         -4   -1    0    0    0  501 -0.00000000000E+00  0.00000000000E+00  0.19817321622E+04  0.19817325691E+04  0.12700000000E+01 0. -1.
          4   -1    0    0  501    0  0.00000000000E+00 -0.00000000000E+00 -0.17661352652E+01  0.21753468172E+01  0.12700000000E+01 0. -1.
         25    2    1    2    0    0  0.00000000000E+00  0.00000000000E+00  0.19799660269E+04  0.19839079159E+04  0.12500060475E+03 0.  0.
    9000005    1    3    3    0    0 -0.28938758484E+02  0.20555091848E+02  0.18062812402E+04  0.18066302561E+04  0.10000000000E+01 0.  0.
    9000005    1    3    3    0    0  0.28938758484E+02 -0.20555091848E+02  0.17368478675E+03  0.17727765988E+03  0.10000000000E+01 0.  0.
<mgrwt>
<rscale>  0 0.12500060E+03</rscale>
<asrwt>0</asrwt>
<pdfrwt beam="2">  1        4 0.30322096E-03 0.12500060E+03</pdfrwt>
<pdfrwt beam="1">  1       -4 0.30491466E+00 0.12500060E+03</pdfrwt>
<totfact> 0.10072508E+03</totfact>
</mgrwt>
</event>
<event>
 5    1  0.3257199E-002  0.1250113E+03  0.7818608E-02  0.1235052E+00
         -4   -1    0    0    0  501 -0.00000000000E+00  0.00000000000E+00  0.50094147738E+02  0.50110243839E+02  0.12700000000E+01 0. -1.
          4   -1    0    0  501    0  0.00000000000E+00 -0.00000000000E+00 -0.77958500756E+02  0.77968844676E+02  0.12700000000E+01 0. -1.
         25    2    1    2    0    0  0.00000000000E+00  0.00000000000E+00 -0.27864353018E+02  0.12807908852E+03  0.12501132247E+03 0.  0.
    9000005    1    3    3    0    0 -0.48570181869E+02 -0.11813170547E+02 -0.52367366339E+02  0.72401344066E+02  0.10000000000E+01 0.  0.
    9000005    1    3    3    0    0  0.48570181869E+02  0.11813170547E+02  0.24503013321E+02  0.55677744450E+02  0.10000000000E+01 0.  0.
<mgrwt>
<rscale>  0 0.12501132E+03</rscale>
<asrwt>0</asrwt>
<pdfrwt beam="2">  1        4 0.11995649E-01 0.12501132E+03</pdfrwt>
<pdfrwt beam="1">  1       -4 0.77088258E-02 0.12501132E+03</pdfrwt>
<totfact> 0.10383126E+04</totfact>
</mgrwt>
</event>
<event>
 5    1  0.3257199E-002  0.1250071E+03  0.7818608E-02  0.1235058E+00
         -4   -1    0    0    0  501 -0.00000000000E+00  0.00000000000E+00  0.12967710082E+03  0.12968331958E+03  0.12700000000E+01 0.  1.
          4   -1    0    0  501    0  0.00000000000E+00 -0.00000000000E+00 -0.30105983157E+02  0.30132758285E+02  0.12700000000E+01 0.  1.
         25    2    1    2    0    0  0.00000000000E+00  0.00000000000E+00  0.99571117661E+02  0.15981607786E+03  0.12500708488E+03 0.  0.
    9000005    1    3    3    0    0 -0.20652555060E+02 -0.12737325172E+02  0.12341537026E+03  0.12578203806E+03  0.10000000000E+01 0.  0.
    9000005    1    3    3    0    0  0.20652555060E+02  0.12737325172E+02 -0.23844252599E+02  0.34034039799E+02  0.10000000000E+01 0.  0.
<mgrwt>
<rscale>  0 0.12500708E+03</rscale>
<asrwt>0</asrwt>
<pdfrwt beam="2">  1        4 0.46342278E-02 0.12500708E+03</pdfrwt>
<pdfrwt beam="1">  1       -4 0.19952861E-01 0.12500708E+03</pdfrwt>
<totfact> 0.97362749E+03</totfact>
</mgrwt>
</event>
<event>
 5    1  0.3257199E-002  0.1249976E+03  0.7818608E-02  0.1235073E+00
          4   -1    0    0  501    0  0.00000000000E+00  0.00000000000E+00  0.23997708646E+03  0.23998044697E+03  0.12700000000E+01 0.  1.
         -4   -1    0    0    0  501 -0.00000000000E+00 -0.00000000000E+00 -0.16248714888E+02  0.16298270936E+02  0.12700000000E+01 0.  1.
         25    2    1    2    0    0  0.00000000000E+00  0.00000000000E+00  0.22372837157E+03  0.25627871790E+03  0.12499758799E+03 0.  0.
    9000005    1    3    3    0    0 -0.46583575598E+02 -0.17045067650E+02  0.33939509803E+02  0.60112013545E+02  0.10000000000E+01 0.  0.
    9000005    1    3    3    0    0  0.46583575598E+02  0.17045067650E+02  0.18978886177E+03  0.19616670436E+03  0.10000000000E+01 0.  0.
<mgrwt>
<rscale>  0 0.12499759E+03</rscale>
<asrwt>0</asrwt>
<pdfrwt beam="1">  1        4 0.36923620E-01 0.12499759E+03</pdfrwt>
<pdfrwt beam="2">  1       -4 0.25038729E-02 0.12499759E+03</pdfrwt>
<totfact> 0.81435517E+03</totfact>
</mgrwt>
</event>
<event>
 5    1  0.3257199E-002  0.1249971E+03  0.7818608E-02  0.1235074E+00
          4   -1    0    0  501    0  0.00000000000E+00  0.00000000000E+00  0.19183461837E+02  0.19225454690E+02  0.12700000000E+01 0. -1.
         -4   -1    0    0    0  501 -0.00000000000E+00 -0.00000000000E+00 -0.20335003651E+03  0.20335400229E+03  0.12700000000E+01 0. -1.
         25    2    1    2    0    0  0.00000000000E+00  0.00000000000E+00 -0.18416657467E+03  0.22257945699E+03  0.12499714975E+03 0.  0.
    9000005    1    3    3    0    0  0.64127555710E+01  0.20655985494E+02 -0.19648132640E+03  0.19767069787E+03  0.10000000000E+01 0.  0.
    9000005    1    3    3    0    0 -0.64127555710E+01 -0.20655985494E+02  0.12314751727E+02  0.24908759119E+02  0.10000000000E+01 0.  0.
<mgrwt>
<rscale>  0 0.12499715E+03</rscale>
<asrwt>0</asrwt>
<pdfrwt beam="1">  1        4 0.29548372E-02 0.12499715E+03</pdfrwt>
<pdfrwt beam="2">  1       -4 0.31288155E-01 0.12499715E+03</pdfrwt>
<totfact> 0.86467327E+03</totfact>
</mgrwt>
</event>
<event>
 4    1  0.3257199E-002  0.1249276E+03  0.7818608E-02  0.1235182E+00
         -4   -1    0    0    0  501 -0.00000000000E+00  0.00000000000E+00  0.78405541891E+02  0.78415826841E+02  0.12700000000E+01 0. -1.
          4   -1    0    0  501    0  0.00000000000E+00 -0.00000000000E+00 -0.49741782689E+02  0.49757992776E+02  0.12700000000E+01 0. -1.
    9000005    1    1    2    0    0  0.61994881139E+02 -0.12823187851E+01  0.21990398512E+02  0.65799599206E+02  0.10000000000E+01 0.  0.
    9000005    1    1    2    0    0 -0.61994881139E+02  0.12823187851E+01  0.66733606899E+01  0.62374220411E+02  0.10000000000E+01 0.  0.
<mgrwt>
<rscale>  0 0.12492765E+03</rscale>
<asrwt>0</asrwt>
<pdfrwt beam="2">  1        4 0.76546200E-02 0.12492765E+03</pdfrwt>
<pdfrwt beam="1">  1       -4 0.12064429E-01 0.12492765E+03</pdfrwt>
<totfact> 0.10400714E+04</totfact>
</mgrwt>
</event>
<event>
 5    1  0.3257199E-002  0.1249994E+03  0.7818608E-02  0.1235070E+00
          4   -1    0    0  501    0  0.00000000000E+00  0.00000000000E+00  0.47865867108E+03  0.47866035589E+03  0.12700000000E+01 0. -1.
         -4   -1    0    0    0  501 -0.00000000000E+00 -0.00000000000E+00 -0.81096231695E+01  0.82084644088E+01  0.12700000000E+01 0. -1.
         25    2    1    2    0    0  0.00000000000E+00  0.00000000000E+00  0.47054904792E+03  0.48686882030E+03  0.12499936676E+03 0.  0.
    9000005    1    3    3    0    0 -0.17897577578E+02  0.49630693974E+01  0.46767911723E+03  0.46804883510E+03  0.10000000000E+01 0.  0.
    9000005    1    3    3    0    0  0.17897577578E+02 -0.49630693974E+01  0.28699306830E+01  0.18819985205E+02  0.10000000000E+01 0.  0.
<mgrwt>
<rscale>  0 0.12499937E+03</rscale>
<asrwt>0</asrwt>
<pdfrwt beam="1">  1        4 0.73647509E-01 0.12499937E+03</pdfrwt>
<pdfrwt beam="2">  1       -4 0.12553674E-02 0.12499937E+03</pdfrwt>
<totfact> 0.56898575E+03</totfact>
</mgrwt>
</event>
<event>
 5    1  0.3257199E-002  0.1250002E+03  0.7818608E-02  0.1235069E+00
         -4   -1    0    0    0  501 -0.00000000000E+00  0.00000000000E+00  0.10999301929E+03  0.11000035087E+03  0.12700000000E+01 0.  1.
          4   -1    0    0  501    0  0.00000000000E+00 -0.00000000000E+00 -0.35493877305E+02  0.35516590857E+02  0.12700000000E+01 0.  1.
         25    2    1    2    0    0  0.00000000000E+00  0.00000000000E+00  0.74499141982E+02  0.14551694173E+03  0.12500023270E+03 0.  0.
    9000005    1    3    3    0    0  0.52695017834E+02  0.25150069660E+02  0.11323778971E+02  0.59485450983E+02  0.10000000000E+01 0.  0.
    9000005    1    3    3    0    0 -0.52695017834E+02 -0.25150069660E+02  0.63175363011E+02  0.86031490746E+02  0.10000000000E+01 0.  0.
<mgrwt>
<rscale>  0 0.12500023E+03</rscale>
<asrwt>0</asrwt>
<pdfrwt beam="2">  1        4 0.54629076E-02 0.12500023E+03</pdfrwt>
<pdfrwt beam="1">  1       -4 0.16924314E-01 0.12500023E+03</pdfrwt>
<totfact> 0.10020443E+04</totfact>
</mgrwt>
</event>
<event>
 5    1  0.3257199E-002  0.1249998E+03  0.7818608E-02  0.1235070E+00
         -4   -1    0    0    0  501 -0.00000000000E+00  0.00000000000E+00  0.38837602815E+01  0.40861343497E+01  0.12700000000E+01 0. -1.
          4   -1    0    0  501    0  0.00000000000E+00 -0.00000000000E+00 -0.98004485212E+03  0.98004567499E+03  0.12700000000E+01 0. -1.
         25    2    1    2    0    0  0.00000000000E+00  0.00000000000E+00 -0.97616109184E+03  0.98413180934E+03  0.12499976374E+03 0.  0.
    9000005    1    3    3    0    0  0.52590710015E+02 -0.22254969343E+02 -0.68790282965E+03  0.69026978022E+03  0.10000000000E+01 0.  0.
    9000005    1    3    3    0    0 -0.52590710015E+02  0.22254969343E+02 -0.28825826219E+03  0.29386202912E+03  0.10000000000E+01 0.  0.
<mgrwt>
<rscale>  0 0.12499976E+03</rscale>
<asrwt>0</asrwt>
<pdfrwt beam="2">  1        4 0.15079157E+00 0.12499976E+03</pdfrwt>
<pdfrwt beam="1">  1       -4 0.61313290E-03 0.12499976E+03</pdfrwt>
<totfact> 0.31134494E+03</totfact>
</mgrwt>
</event>
<event>
 5    1  0.3257199E-002  0.1249978E+03  0.7818608E-02  0.1235073E+00
          4   -1    0    0  501    0  0.00000000000E+00  0.00000000000E+00  0.14608333387E+04  0.14608338908E+04  0.12700000000E+01 0. -1.
         -4   -1    0    0    0  501 -0.00000000000E+00 -0.00000000000E+00 -0.25225079354E+01  0.28241717873E+01  0.12700000000E+01 0. -1.
         25    2    1    2    0    0  0.00000000000E+00  0.00000000000E+00  0.14583108308E+04  0.14636580626E+04  0.12499777958E+03 0.  0.
    9000005    1    3    3    0    0 -0.57214428253E+02  0.25123401074E+02  0.73687961124E+03  0.73952500806E+03  0.10000000000E+01 0.  0.
    9000005    1    3    3    0    0  0.57214428253E+02 -0.25123401074E+02  0.72143121956E+03  0.72413305451E+03  0.10000000000E+01 0.  0.
<mgrwt>
<rscale>  0 0.12499778E+03</rscale>
<asrwt>0</asrwt>
<pdfrwt beam="1">  1        4 0.22476706E+00 0.12499778E+03</pdfrwt>
<pdfrwt beam="2">  1       -4 0.41132511E-03 0.12499778E+03</pdfrwt>
<totfact> 0.18655594E+03</totfact>
</mgrwt>
</event>
<event>
 5    1  0.3257199E-002  0.1250009E+03  0.7818608E-02  0.1235068E+00
         -4   -1    0    0    0  501 -0.00000000000E+00  0.00000000000E+00  0.52880781542E+02  0.52896029686E+02  0.12700000000E+01 0. -1.
          4   -1    0    0  501    0  0.00000000000E+00 -0.00000000000E+00 -0.73838682922E+02  0.73849603897E+02  0.12700000000E+01 0. -1.
         25    2    1    2    0    0  0.00000000000E+00  0.00000000000E+00 -0.20957901380E+02  0.12674563358E+03  0.12500088800E+03 0.  0.
    9000005    1    3    3    0    0  0.59968415888E+02 -0.68162063423E+00  0.73341273526E+01  0.60427352539E+02  0.10000000000E+01 0.  0.
    9000005    1    3    3    0    0 -0.59968415888E+02  0.68162063423E+00 -0.28292028732E+02  0.66318281044E+02  0.10000000000E+01 0.  0.
<mgrwt>
<rscale>  0 0.12500089E+03</rscale>
<asrwt>0</asrwt>
<pdfrwt beam="2">  1        4 0.11361810E-01 0.12500089E+03</pdfrwt>
<pdfrwt beam="1">  1       -4 0.81375178E-02 0.12500089E+03</pdfrwt>
<totfact> 0.10414468E+04</totfact>
</mgrwt>
</event>
<event>
 5    1  0.3257199E-002  0.1249993E+03  0.7818608E-02  0.1235070E+00
         -4   -1    0    0    0  501 -0.00000000000E+00  0.00000000000E+00  0.13831063282E+02  0.13889248054E+02  0.12700000000E+01 0. -1.
          4   -1    0    0  501    0  0.00000000000E+00 -0.00000000000E+00 -0.28177026136E+03  0.28177312343E+03  0.12700000000E+01 0. -1.
         25    2    1    2    0    0  0.00000000000E+00  0.00000000000E+00 -0.26793919808E+03  0.29566237149E+03  0.12499929618E+03 0.  0.
    9000005    1    3    3    0    0 -0.55456285368E+02 -0.66380389087E+01 -0.67667281198E+02  0.87745792447E+02  0.10000000000E+01 0.  0.
    9000005    1    3    3    0    0  0.55456285368E+02  0.66380389087E+01 -0.20027191688E+03  0.20791657904E+03  0.10000000000E+01 0.  0.
<mgrwt>
<rscale>  0 0.12499930E+03</rscale>
<asrwt>0</asrwt>
<pdfrwt beam="2">  1        4 0.43353962E-01 0.12499930E+03</pdfrwt>
<pdfrwt beam="1">  1       -4 0.21325520E-02 0.12499930E+03</pdfrwt>
<totfact> 0.76147376E+03</totfact>
</mgrwt>
</event>
<event>
 5    1  0.3257199E-002  0.1249995E+03  0.7818608E-02  0.1235070E+00
         -4   -1    0    0    0  501 -0.00000000000E+00  0.00000000000E+00  0.14191793958E+02  0.14248505737E+02  0.12700000000E+01 0.  1.
          4   -1    0    0  501    0  0.00000000000E+00 -0.00000000000E+00 -0.27463784196E+03  0.27464077835E+03  0.12700000000E+01 0.  1.
         25    2    1    2    0    0  0.00000000000E+00  0.00000000000E+00 -0.26044604800E+03  0.28888928409E+03  0.12499949818E+03 0.  0.
    9000005    1    3    3    0    0  0.71227532778E+01 -0.28211383575E+02 -0.24071752681E+01  0.29213186582E+02  0.10000000000E+01 0.  0.
    9000005    1    3    3    0    0 -0.71227532778E+01  0.28211383575E+02 -0.25803887273E+03  0.25967609751E+03  0.10000000000E+01 0.  0.
<mgrwt>
<rscale>  0 0.12499950E+03</rscale>
<asrwt>0</asrwt>
<pdfrwt beam="2">  1        4 0.42256560E-01 0.12499950E+03</pdfrwt>
<pdfrwt beam="1">  1       -4 0.21879414E-02 0.12499950E+03</pdfrwt>
<totfact> 0.77014884E+03</totfact>
</mgrwt>
</event>
<event>
 5    1  0.3257199E-002  0.1249946E+03  0.7818608E-02  0.1235078E+00
         -4   -1    0    0    0  501 -0.00000000000E+00  0.00000000000E+00  0.10505072264E+03  0.10505839913E+03  0.12700000000E+01 0.  1.
          4   -1    0    0  501    0  0.00000000000E+00 -0.00000000000E+00 -0.37161311231E+02  0.37183006231E+02  0.12700000000E+01 0.  1.
         25    2    1    2    0    0  0.00000000000E+00  0.00000000000E+00  0.67889411411E+02  0.14224140536E+03  0.12499458075E+03 0.  0.
    9000005    1    3    3    0    0 -0.54732368671E+02  0.35686812368E+01  0.68018505467E+02  0.87383549665E+02  0.10000000000E+01 0.  0.
    9000005    1    3    3    0    0  0.54732368671E+02 -0.35686812368E+01 -0.12909405651E+00  0.54857855694E+02  0.10000000000E+01 0.  0.
<mgrwt>
<rscale>  0 0.12499458E+03</rscale>
<asrwt>0</asrwt>
<pdfrwt beam="2">  1        4 0.57193841E-02 0.12499458E+03</pdfrwt>
<pdfrwt beam="1">  1       -4 0.16163909E-01 0.12499458E+03</pdfrwt>
<totfact> 0.10088572E+04</totfact>
</mgrwt>
</event>
<event>
 5    1  0.3257199E-002  0.1249982E+03  0.7818608E-02  0.1235072E+00
         -4   -1    0    0    0  501 -0.00000000000E+00  0.00000000000E+00  0.99769953325E+02  0.99778036092E+02  0.12700000000E+01 0. -1.
          4   -1    0    0  501    0  0.00000000000E+00 -0.00000000000E+00 -0.39131477990E+02  0.39152081294E+02  0.12700000000E+01 0. -1.
         25    2    1    2    0    0  0.00000000000E+00  0.00000000000E+00  0.60638475335E+02  0.13893011739E+03  0.12499821129E+03 0.  0.
    9000005    1    3    3    0    0 -0.31870082948E+02  0.30324504583E+02 -0.19010673534E+02  0.47934157691E+02  0.10000000000E+01 0.  0.
    9000005    1    3    3    0    0  0.31870082948E+02 -0.30324504583E+02  0.79649148869E+02  0.90995959696E+02  0.10000000000E+01 0.  0.
<mgrwt>
<rscale>  0 0.12499821E+03</rscale>
<asrwt>0</asrwt>
<pdfrwt beam="2">  1        4 0.60224340E-02 0.12499821E+03</pdfrwt>
<pdfrwt beam="1">  1       -4 0.15351430E-01 0.12499821E+03</pdfrwt>
<totfact> 0.10156217E+04</totfact>
</mgrwt>
</event>
<event>
 5    1  0.3257199E-002  0.1250026E+03  0.7818608E-02  0.1235065E+00
         -4   -1    0    0    0  501 -0.00000000000E+00  0.00000000000E+00  0.95629077369E+02  0.95637510102E+02  0.12700000000E+01 0. -1.
          4   -1    0    0  501    0  0.00000000000E+00 -0.00000000000E+00 -0.40829525835E+02  0.40849272698E+02  0.12700000000E+01 0. -1.
         25    2    1    2    0    0  0.00000000000E+00  0.00000000000E+00  0.54799551534E+02  0.13648678280E+03  0.12500260410E+03 0.  0.
    9000005    1    3    3    0    0 -0.19869874763E+02  0.52831284301E+02  0.56686697484E+02  0.80002113695E+02  0.10000000000E+01 0.  0.
    9000005    1    3    3    0    0  0.19869874763E+02 -0.52831284301E+02 -0.18871459500E+01  0.56484669104E+02  0.10000000000E+01 0.  0.
<mgrwt>
<rscale>  0 0.12500260E+03</rscale>
<asrwt>0</asrwt>
<pdfrwt beam="2">  1        4 0.62836333E-02 0.12500260E+03</pdfrwt>
<pdfrwt beam="1">  1       -4 0.14714333E-01 0.12500260E+03</pdfrwt>
<totfact> 0.10206228E+04</totfact>
</mgrwt>
</event>
<event>
 5    1  0.3257199E-002  0.1250012E+03  0.7818608E-02  0.1235067E+00
          4   -1    0    0  501    0  0.00000000000E+00  0.00000000000E+00  0.14039969809E+03  0.14040544193E+03  0.12700000000E+01 0.  1.
         -4   -1    0    0    0  501 -0.00000000000E+00 -0.00000000000E+00 -0.27802061866E+02  0.27831053591E+02  0.12700000000E+01 0.  1.
         25    2    1    2    0    0  0.00000000000E+00  0.00000000000E+00  0.11259763622E+03  0.16823649552E+03  0.12500116296E+03 0.  0.
    9000005    1    3    3    0    0  0.34769108827E+01 -0.29899964506E+02 -0.17408523591E+02  0.34787260317E+02  0.10000000000E+01 0.  0.
    9000005    1    3    3    0    0 -0.34769108827E+01  0.29899964506E+02  0.13000615982E+03  0.13344923520E+03  0.10000000000E+01 0.  0.
<mgrwt>
<rscale>  0 0.12500116E+03</rscale>
<asrwt>0</asrwt>
<pdfrwt beam="1">  1        4 0.21602626E-01 0.12500116E+03</pdfrwt>
<pdfrwt beam="2">  1       -4 0.42799122E-02 0.12500116E+03</pdfrwt>
<totfact> 0.95775437E+03</totfact>
</mgrwt>
</event>
<event>
 5    1  0.3257199E-002  0.1249995E+03  0.7818608E-02  0.1235070E+00
         -4   -1    0    0    0  501 -0.00000000000E+00  0.00000000000E+00  0.33888947063E+02  0.33912735558E+02  0.12700000000E+01 0. -1.
          4   -1    0    0  501    0  0.00000000000E+00 -0.00000000000E+00 -0.11519749486E+03  0.11520449523E+03  0.12700000000E+01 0. -1.
         25    2    1    2    0    0  0.00000000000E+00  0.00000000000E+00 -0.81308547795E+02  0.14911723079E+03  0.12499947429E+03 0.  0.
    9000005    1    3    3    0    0  0.35505445344E+01  0.51745214439E+01 -0.11482649874E+03  0.11500220368E+03  0.10000000000E+01 0.  0.
    9000005    1    3    3    0    0 -0.35505445344E+01 -0.51745214439E+01  0.33517950948E+02  0.34115027106E+02  0.10000000000E+01 0.  0.
<mgrwt>
<rscale>  0 0.12499947E+03</rscale>
<asrwt>0</asrwt>
<pdfrwt beam="2">  1        4 0.17725060E-01 0.12499947E+03</pdfrwt>
<pdfrwt beam="1">  1       -4 0.52160526E-02 0.12499947E+03</pdfrwt>
<totfact> 0.99481133E+03</totfact>
</mgrwt>
</event>
<event>
 5    1  0.3257199E-002  0.1249758E+03  0.7818608E-02  0.1235107E+00
         -4   -1    0    0    0  501 -0.00000000000E+00  0.00000000000E+00  0.21155631114E+03  0.21156012309E+03  0.12700000000E+01 0.  1.
          4   -1    0    0  501    0  0.00000000000E+00 -0.00000000000E+00 -0.18431373773E+02  0.18475076161E+02  0.12700000000E+01 0.  1.
         25    2    1    2    0    0  0.00000000000E+00  0.00000000000E+00  0.19312493736E+03  0.23003519925E+03  0.12497580351E+03 0.  0.
    9000005    1    3    3    0    0  0.92839668083E+01 -0.46294901222E+02  0.17187870699E+03  0.17824898271E+03  0.10000000000E+01 0.  0.
    9000005    1    3    3    0    0 -0.92839668083E+01  0.46294901222E+02  0.21246230370E+02  0.51786216542E+02  0.10000000000E+01 0.  0.
<mgrwt>
<rscale>  0 0.12497580E+03</rscale>
<asrwt>0</asrwt>
<pdfrwt beam="2">  1        4 0.28392507E-02 0.12497580E+03</pdfrwt>
<pdfrwt beam="1">  1       -4 0.32550782E-01 0.12497580E+03</pdfrwt>
<totfact> 0.85350258E+03</totfact>
</mgrwt>
</event>
<event>
 5    1  0.3257199E-002  0.1250012E+03  0.7818608E-02  0.1235067E+00
          4   -1    0    0  501    0  0.00000000000E+00  0.00000000000E+00  0.52755283908E+02  0.52770568314E+02  0.12700000000E+01 0.  1.
         -4   -1    0    0    0  501 -0.00000000000E+00 -0.00000000000E+00 -0.74014722665E+02  0.74025617668E+02  0.12700000000E+01 0.  1.
         25    2    1    2    0    0  0.00000000000E+00  0.00000000000E+00 -0.21259438757E+02  0.12679618598E+03  0.12500123617E+03 0.  0.
    9000005    1    3    3    0    0 -0.40406465140E+02  0.47242106470E+02 -0.17111167703E+02  0.64484813011E+02  0.10000000000E+01 0.  0.
    9000005    1    3    3    0    0  0.40406465140E+02 -0.47242106470E+02 -0.41482710542E+01  0.62311372972E+02  0.10000000000E+01 0.  0.
<mgrwt>
<rscale>  0 0.12500124E+03</rscale>
<asrwt>0</asrwt>
<pdfrwt beam="1">  1        4 0.81182114E-02 0.12500124E+03</pdfrwt>
<pdfrwt beam="2">  1       -4 0.11388894E-01 0.12500124E+03</pdfrwt>
<totfact> 0.10413286E+04</totfact>
</mgrwt>
</event>
<event>
 5    1  0.3257199E-002  0.1249924E+03  0.7818608E-02  0.1235081E+00
         -4   -1    0    0    0  501 -0.00000000000E+00  0.00000000000E+00  0.22490877472E+01  0.25828851493E+01  0.12700000000E+01 0. -1.
          4   -1    0    0  501    0  0.00000000000E+00 -0.00000000000E+00 -0.16163035079E+04  0.16163040069E+04  0.12700000000E+01 0. -1.
         25    2    1    2    0    0  0.00000000000E+00  0.00000000000E+00 -0.16140544202E+04  0.16188868920E+04  0.12499239122E+03 0.  0.
    9000005    1    3    3    0    0 -0.87615093181E+01 -0.61849142240E+02 -0.78576865743E+03  0.78824835137E+03  0.10000000000E+01 0.  0.
    9000005    1    3    3    0    0  0.87615093181E+01  0.61849142240E+02 -0.82828576273E+03  0.83063854064E+03  0.10000000000E+01 0.  0.
<mgrwt>
<rscale>  0 0.12499239E+03</rscale>
<asrwt>0</asrwt>
<pdfrwt beam="2">  1        4 0.24868693E+00 0.12499239E+03</pdfrwt>
<pdfrwt beam="1">  1       -4 0.37172990E-03 0.12499239E+03</pdfrwt>
<totfact> 0.15709847E+03</totfact>
</mgrwt>
</event>
<event>
 5    1  0.3257199E-002  0.1250395E+03  0.7818608E-02  0.1235008E+00
         -4   -1    0    0    0  501 -0.00000000000E+00  0.00000000000E+00  0.11502953802E+02  0.11572849527E+02  0.12700000000E+01 0. -1.
          4   -1    0    0  501    0  0.00000000000E+00 -0.00000000000E+00 -0.33870075948E+03  0.33870314048E+03  0.12700000000E+01 0. -1.
         25    2    1    2    0    0  0.00000000000E+00  0.00000000000E+00 -0.32719780567E+03  0.35027599001E+03  0.12503945432E+03 0.  0.
    9000005    1    3    3    0    0 -0.61542778565E+02  0.10300675402E+02 -0.15308039783E+03  0.16531250923E+03  0.10000000000E+01 0.  0.
    9000005    1    3    3    0    0  0.61542778565E+02 -0.10300675402E+02 -0.17411740784E+03  0.18496348078E+03  0.10000000000E+01 0.  0.
<mgrwt>
<rscale>  0 0.12503945E+03</rscale>
<asrwt>0</asrwt>
<pdfrwt beam="2">  1        4 0.52113361E-01 0.12503945E+03</pdfrwt>
<pdfrwt beam="1">  1       -4 0.17752452E-02 0.12503945E+03</pdfrwt>
<totfact> 0.69633391E+03</totfact>
</mgrwt>
</event>
<event>
 5    1  0.3257199E-002  0.1250028E+03  0.7818608E-02  0.1235065E+00
          4   -1    0    0  501    0  0.00000000000E+00  0.00000000000E+00  0.14277645327E+04  0.14277650976E+04  0.12700000000E+01 0.  1.
         -4   -1    0    0    0  501 -0.00000000000E+00 -0.00000000000E+00 -0.25880713234E+01  0.28828827890E+01  0.12700000000E+01 0.  1.
         25    2    1    2    0    0  0.00000000000E+00  0.00000000000E+00  0.14251764614E+04  0.14306479803E+04  0.12500279013E+03 0.  0.
    9000005    1    3    3    0    0 -0.18839658193E+02  0.76774565045E+01  0.13888613230E+04  0.13890106734E+04  0.10000000000E+01 0.  0.
    9000005    1    3    3    0    0  0.18839658193E+02 -0.76774565045E+01  0.36315138346E+02  0.41637306977E+02  0.10000000000E+01 0.  0.
<mgrwt>
<rscale>  0 0.12500279E+03</rscale>
<asrwt>0</asrwt>
<pdfrwt beam="1">  1        4 0.21967850E+00 0.12500279E+03</pdfrwt>
<pdfrwt beam="2">  1       -4 0.42088665E-03 0.12500279E+03</pdfrwt>
<totfact> 0.19331504E+03</totfact>
</mgrwt>
</event>
<event>
 5    1  0.3257199E-002  0.1250003E+03  0.7818608E-02  0.1235069E+00
          4   -1    0    0  501    0  0.00000000000E+00  0.00000000000E+00  0.15541800843E+02  0.15593603607E+02  0.12700000000E+01 0. -1.
         -4   -1    0    0    0  501 -0.00000000000E+00 -0.00000000000E+00 -0.25086775874E+03  0.25087097337E+03  0.12700000000E+01 0. -1.
         25    2    1    2    0    0  0.00000000000E+00  0.00000000000E+00 -0.23532595790E+03  0.26646457697E+03  0.12500025728E+03 0.  0.
    9000005    1    3    3    0    0 -0.15552051365E+02  0.60523491062E+02 -0.11648221868E+03  0.13218950995E+03  0.10000000000E+01 0.  0.
    9000005    1    3    3    0    0  0.15552051365E+02 -0.60523491062E+02 -0.11884373922E+03  0.13427506702E+03  0.10000000000E+01 0.  0.
<mgrwt>
<rscale>  0 0.12500026E+03</rscale>
<asrwt>0</asrwt>
<pdfrwt beam="1">  1        4 0.23952786E-02 0.12500026E+03</pdfrwt>
<pdfrwt beam="2">  1       -4 0.38599269E-01 0.12500026E+03</pdfrwt>
<totfact> 0.80006866E+03</totfact>
</mgrwt>
</event>
<event>
 5    1  0.3257199E-002  0.1250012E+03  0.7818608E-02  0.1235067E+00
         -4   -1    0    0    0  501 -0.00000000000E+00  0.00000000000E+00  0.40724547701E+02  0.40744345442E+02  0.12700000000E+01 0.  1.
          4   -1    0    0  501    0  0.00000000000E+00 -0.00000000000E+00 -0.95873396269E+02  0.95881807514E+02  0.12700000000E+01 0.  1.
         25    2    1    2    0    0  0.00000000000E+00  0.00000000000E+00 -0.55148848568E+02  0.13662615296E+03  0.12500124069E+03 0.  0.
    9000005    1    3    3    0    0 -0.42234241617E+02 -0.30226536632E+02 -0.65562256381E+02  0.83646782027E+02  0.10000000000E+01 0.  0.
    9000005    1    3    3    0    0  0.42234241617E+02  0.30226536632E+02  0.10413407813E+02  0.52979370929E+02  0.10000000000E+01 0.  0.
<mgrwt>
<rscale>  0 0.12500124E+03</rscale>
<asrwt>0</asrwt>
<pdfrwt beam="2">  1        4 0.14751923E-01 0.12500124E+03</pdfrwt>
<pdfrwt beam="1">  1       -4 0.62674850E-02 0.12500124E+03</pdfrwt>
<totfact> 0.10203623E+04</totfact>
</mgrwt>
</event>
<event>
 5    1  0.3257199E-002  0.1249998E+03  0.7818608E-02  0.1235070E+00
          4   -1    0    0  501    0  0.00000000000E+00  0.00000000000E+00  0.13464869740E+03  0.13465468656E+03  0.12700000000E+01 0.  1.
         -4   -1    0    0    0  501 -0.00000000000E+00 -0.00000000000E+00 -0.28990029166E+02  0.29017834017E+02  0.12700000000E+01 0.  1.
         25    2    1    2    0    0  0.00000000000E+00  0.00000000000E+00  0.10565866824E+03  0.16367252058E+03  0.12499975927E+03 0.  0.
    9000005    1    3    3    0    0  0.37304036280E+02 -0.47670073609E+02  0.32493482221E+02  0.68708466928E+02  0.10000000000E+01 0.  0.
    9000005    1    3    3    0    0 -0.37304036280E+02  0.47670073609E+02  0.73165186016E+02  0.94964053649E+02  0.10000000000E+01 0.  0.
<mgrwt>
<rscale>  0 0.12499976E+03</rscale>
<asrwt>0</asrwt>
<pdfrwt beam="1">  1        4 0.20717784E-01 0.12499976E+03</pdfrwt>
<pdfrwt beam="2">  1       -4 0.44626040E-02 0.12499976E+03</pdfrwt>
<totfact> 0.96639910E+03</totfact>
</mgrwt>
</event>
<event>
 5    1  0.3257199E-002  0.1250006E+03  0.7818608E-02  0.1235068E+00
         -4   -1    0    0    0  501 -0.00000000000E+00  0.00000000000E+00  0.94616024793E+01  0.95464559642E+01  0.12700000000E+01 0.  1.
          4   -1    0    0  501    0  0.00000000000E+00 -0.00000000000E+00 -0.41092772565E+03  0.41092968816E+03  0.12700000000E+01 0.  1.
         25    2    1    2    0    0  0.00000000000E+00  0.00000000000E+00 -0.40146612317E+03  0.42047614412E+03  0.12500055888E+03 0.  0.
    9000005    1    3    3    0    0 -0.55272440323E+02 -0.25202059700E+02 -0.15139886563E+03  0.16313430966E+03  0.10000000000E+01 0.  0.
    9000005    1    3    3    0    0  0.55272440323E+02  0.25202059700E+02 -0.25006725754E+03  0.25734183447E+03  0.10000000000E+01 0.  0.
<mgrwt>
<rscale>  0 0.12500056E+03</rscale>
<asrwt>0</asrwt>
<pdfrwt beam="2">  1        4 0.63226314E-01 0.12500056E+03</pdfrwt>
<pdfrwt beam="1">  1       -4 0.14623096E-02 0.12500056E+03</pdfrwt>
<totfact> 0.62608096E+03</totfact>
</mgrwt>
</event>
<event>
 5    1  0.3257199E-002  0.1250000E+03  0.7818608E-02  0.1235069E+00
          4   -1    0    0  501    0  0.00000000000E+00  0.00000000000E+00  0.25634581149E+03  0.25634895742E+03  0.12700000000E+01 0.  1.
         -4   -1    0    0    0  501 -0.00000000000E+00 -0.00000000000E+00 -0.15208490300E+02  0.15261424482E+02  0.12700000000E+01 0.  1.
         25    2    1    2    0    0  0.00000000000E+00  0.00000000000E+00  0.24113732119E+03  0.27161038190E+03  0.12499996754E+03 0.  0.
    9000005    1    3    3    0    0 -0.36153051811E+02 -0.34962675471E+02  0.20116525032E+03  0.20735932525E+03  0.10000000000E+01 0.  0.
    9000005    1    3    3    0    0  0.36153051811E+02  0.34962675471E+02  0.39972070877E+02  0.64251056657E+02  0.10000000000E+01 0.  0.
<mgrwt>
<rscale>  0 0.12499997E+03</rscale>
<asrwt>0</asrwt>
<pdfrwt beam="1">  1        4 0.39442132E-01 0.12499997E+03</pdfrwt>
<pdfrwt beam="2">  1       -4 0.23440815E-02 0.12499997E+03</pdfrwt>
<totfact> 0.79303877E+03</totfact>
</mgrwt>
</event>
<event>
 5    1  0.3257199E-002  0.1250115E+03  0.7818608E-02  0.1235051E+00
          4   -1    0    0  501    0  0.00000000000E+00  0.00000000000E+00  0.75016382265E+03  0.75016489768E+03  0.12700000000E+01 0.  1.
         -4   -1    0    0    0  501 -0.00000000000E+00 -0.00000000000E+00 -0.51296413799E+01  0.52845170722E+01  0.12700000000E+01 0.  1.
         25    2    1    2    0    0  0.00000000000E+00  0.00000000000E+00  0.74503418127E+03  0.75544941476E+03  0.12501154743E+03 0.  0.
    9000005    1    3    3    0    0  0.16203766826E+02  0.43963848969E+02  0.12258145562E+03  0.13123488613E+03  0.10000000000E+01 0.  0.
    9000005    1    3    3    0    0 -0.16203766826E+02 -0.43963848969E+02  0.62245272566E+03  0.62421452863E+03  0.10000000000E+01 0.  0.
<mgrwt>
<rscale>  0 0.12501155E+03</rscale>
<asrwt>0</asrwt>
<pdfrwt beam="1">  1        4 0.11542179E+00 0.12501155E+03</pdfrwt>
<pdfrwt beam="2">  1       -4 0.80117196E-03 0.12501155E+03</pdfrwt>
<totfact> 0.40304668E+03</totfact>
</mgrwt>
</event>
<event>
 5    1  0.3257199E-002  0.1249978E+03  0.7818608E-02  0.1235073E+00
          4   -1    0    0  501    0  0.00000000000E+00  0.00000000000E+00  0.32019133874E+03  0.32019385738E+03  0.12700000000E+01 0. -1.
         -4   -1    0    0    0  501 -0.00000000000E+00 -0.00000000000E+00 -0.12163676097E+02  0.12229796245E+02  0.12700000000E+01 0. -1.
         25    2    1    2    0    0  0.00000000000E+00  0.00000000000E+00  0.30802766265E+03  0.33242365363E+03  0.12499777813E+03 0.  0.
    9000005    1    3    3    0    0  0.37002592642E+01  0.48408942550E+02  0.49379502946E+02  0.69256428934E+02  0.10000000000E+01 0.  0.
    9000005    1    3    3    0    0 -0.37002592642E+01 -0.48408942550E+02  0.25864815970E+03  0.26316722470E+03  0.10000000000E+01 0.  0.
<mgrwt>
<rscale>  0 0.12499778E+03</rscale>
<asrwt>0</asrwt>
<pdfrwt beam="1">  1        4 0.49265486E-01 0.12499778E+03</pdfrwt>
<pdfrwt beam="2">  1       -4 0.18766147E-02 0.12499778E+03</pdfrwt>
<totfact> 0.71705987E+03</totfact>
</mgrwt>
</event>
<event>
 5    1  0.3257199E-002  0.1250004E+03  0.7818608E-02  0.1235069E+00
          4   -1    0    0  501    0  0.00000000000E+00  0.00000000000E+00  0.34209621187E+02  0.34233186847E+02  0.12700000000E+01 0.  1.
         -4   -1    0    0    0  501 -0.00000000000E+00 -0.00000000000E+00 -0.11412006394E+03  0.11412713040E+03  0.12700000000E+01 0.  1.
         25    2    1    2    0    0  0.00000000000E+00  0.00000000000E+00 -0.79910442753E+02  0.14836031725E+03  0.12500041949E+03 0.  0.
    9000005    1    3    3    0    0 -0.44272643160E+02 -0.44054716476E+02 -0.37468082856E+02  0.72840525871E+02  0.10000000000E+01 0.  0.
    9000005    1    3    3    0    0  0.44272643160E+02  0.44054716476E+02 -0.42442359896E+02  0.75519791378E+02  0.10000000000E+01 0.  0.
<mgrwt>
<rscale>  0 0.12500042E+03</rscale>
<asrwt>0</asrwt>
<pdfrwt beam="1">  1        4 0.52653750E-02 0.12500042E+03</pdfrwt>
<pdfrwt beam="2">  1       -4 0.17559289E-01 0.12500042E+03</pdfrwt>
<totfact> 0.99630613E+03</totfact>
</mgrwt>
</event>
<event>
 5    1  0.3257199E-002  0.1249992E+03  0.7818608E-02  0.1235071E+00
         -4   -1    0    0    0  501 -0.00000000000E+00  0.00000000000E+00  0.14155452660E+03  0.14156022358E+03  0.12700000000E+01 0.  1.
          4   -1    0    0  501    0  0.00000000000E+00 -0.00000000000E+00 -0.27574157529E+02  0.27603388622E+02  0.12700000000E+01 0.  1.
         25    2    1    2    0    0  0.00000000000E+00  0.00000000000E+00  0.11398036907E+03  0.16916361220E+03  0.12499921264E+03 0.  0.
    9000005    1    3    3    0    0  0.51882757169E+02  0.15451533751E+02  0.99239497422E+02  0.11304887543E+03  0.10000000000E+01 0.  0.
    9000005    1    3    3    0    0 -0.51882757169E+02 -0.15451533751E+02  0.14740871648E+02  0.56114736778E+02  0.10000000000E+01 0.  0.
<mgrwt>
<rscale>  0 0.12499921E+03</rscale>
<asrwt>0</asrwt>
<pdfrwt beam="2">  1        4 0.42448649E-02 0.12499921E+03</pdfrwt>
<pdfrwt beam="1">  1       -4 0.21780306E-01 0.12499921E+03</pdfrwt>
<totfact> 0.95606319E+03</totfact>
</mgrwt>
</event>
<event>
 5    1  0.3257199E-002  0.1250014E+03  0.7818608E-02  0.1235067E+00
          4   -1    0    0  501    0  0.00000000000E+00  0.00000000000E+00  0.16024161081E+02  0.16074409425E+02  0.12700000000E+01 0.  1.
         -4   -1    0    0    0  501 -0.00000000000E+00 -0.00000000000E+00 -0.24334433590E+03  0.24334764991E+03  0.12700000000E+01 0.  1.
         25    2    1    2    0    0  0.00000000000E+00  0.00000000000E+00 -0.22732017482E+03  0.25942205933E+03  0.12500137194E+03 0.  0.
    9000005    1    3    3    0    0  0.58816253064E+02  0.19576430691E+02 -0.13009965084E+03  0.14411629822E+03  0.10000000000E+01 0.  0.
    9000005    1    3    3    0    0 -0.58816253064E+02 -0.19576430691E+02 -0.97220523975E+02  0.11530576111E+03  0.10000000000E+01 0.  0.
<mgrwt>
<rscale>  0 0.12500137E+03</rscale>
<asrwt>0</asrwt>
<pdfrwt beam="1">  1        4 0.24693759E-02 0.12500137E+03</pdfrwt>
<pdfrwt beam="2">  1       -4 0.37441708E-01 0.12500137E+03</pdfrwt>
<totfact> 0.80984763E+03</totfact>
</mgrwt>
</event>
<event>
 5    1  0.3257199E-002  0.1250051E+03  0.7818608E-02  0.1235061E+00
          4   -1    0    0  501    0  0.00000000000E+00  0.00000000000E+00  0.39188490144E+02  0.39209063490E+02  0.12700000000E+01 0.  1.
         -4   -1    0    0    0  501 -0.00000000000E+00 -0.00000000000E+00 -0.99635925078E+02  0.99644018718E+02  0.12700000000E+01 0.  1.
         25    2    1    2    0    0  0.00000000000E+00  0.00000000000E+00 -0.60447434935E+02  0.13885308221E+03  0.12500514409E+03 0.  0.
    9000005    1    3    3    0    0 -0.46211921779E+02  0.36171393947E+02 -0.63572144248E+01  0.59036646498E+02  0.10000000000E+01 0.  0.
    9000005    1    3    3    0    0  0.46211921779E+02 -0.36171393947E+02 -0.54090220510E+02  0.79816435709E+02  0.10000000000E+01 0.  0.
<mgrwt>
<rscale>  0 0.12500514E+03</rscale>
<asrwt>0</asrwt>
<pdfrwt beam="1">  1        4 0.60312036E-02 0.12500514E+03</pdfrwt>
<pdfrwt beam="2">  1       -4 0.15330809E-01 0.12500514E+03</pdfrwt>
<totfact> 0.10156234E+04</totfact>
</mgrwt>
</event>
<event>
 5    1  0.3257199E-002  0.1249994E+03  0.7818608E-02  0.1235070E+00
         -4   -1    0    0    0  501 -0.00000000000E+00  0.00000000000E+00  0.49549692694E+02  0.49565965602E+02  0.12700000000E+01 0.  1.
          4   -1    0    0  501    0  0.00000000000E+00 -0.00000000000E+00 -0.78799947191E+02  0.78810180670E+02  0.12700000000E+01 0.  1.
         25    2    1    2    0    0  0.00000000000E+00  0.00000000000E+00 -0.29250254497E+02  0.12837614627E+03  0.12499943017E+03 0.  0.
    9000005    1    3    3    0    0  0.52577236841E+02  0.19548891334E+02 -0.42913522363E+02  0.70633528779E+02  0.10000000000E+01 0.  0.
    9000005    1    3    3    0    0 -0.52577236841E+02 -0.19548891334E+02  0.13663267867E+02  0.57742617493E+02  0.10000000000E+01 0.  0.
<mgrwt>
<rscale>  0 0.12499943E+03</rscale>
<asrwt>0</asrwt>
<pdfrwt beam="2">  1        4 0.12125108E-01 0.12499943E+03</pdfrwt>
<pdfrwt beam="1">  1       -4 0.76250686E-02 0.12499943E+03</pdfrwt>
<totfact> 0.10379506E+04</totfact>
</mgrwt>
</event>
<event>
 5    1  0.3257199E-002  0.1249983E+03  0.7818608E-02  0.1235072E+00
          4   -1    0    0  501    0  0.00000000000E+00  0.00000000000E+00  0.76749326247E+02  0.76759833112E+02  0.12700000000E+01 0.  1.
         -4   -1    0    0    0  501 -0.00000000000E+00 -0.00000000000E+00 -0.50872893396E+02  0.50888743180E+02  0.12700000000E+01 0.  1.
         25    2    1    2    0    0  0.00000000000E+00  0.00000000000E+00  0.25876432851E+02  0.12764857629E+03  0.12499827700E+03 0.  0.
    9000005    1    3    3    0    0 -0.21541029035E+02  0.42181700552E+02 -0.28691678429E+02  0.55385234534E+02  0.10000000000E+01 0.  0.
    9000005    1    3    3    0    0  0.21541029035E+02 -0.42181700552E+02  0.54568111280E+02  0.72263341758E+02  0.10000000000E+01 0.  0.
<mgrwt>
<rscale>  0 0.12499828E+03</rscale>
<asrwt>0</asrwt>
<pdfrwt beam="1">  1        4 0.11809616E-01 0.12499828E+03</pdfrwt>
<pdfrwt beam="2">  1       -4 0.78286264E-02 0.12499828E+03</pdfrwt>
<totfact> 0.10395489E+04</totfact>
</mgrwt>
</event>
<event>
 5    1  0.3257199E-002  0.1249978E+03  0.7818608E-02  0.1235073E+00
         -4   -1    0    0    0  501 -0.00000000000E+00  0.00000000000E+00  0.50137391449E+03  0.50137552296E+03  0.12700000000E+01 0. -1.
          4   -1    0    0  501    0  0.00000000000E+00 -0.00000000000E+00 -0.77374308444E+01  0.78409652513E+01  0.12700000000E+01 0. -1.
         25    2    1    2    0    0  0.00000000000E+00  0.00000000000E+00  0.49363648364E+03  0.50921648822E+03  0.12499781553E+03 0.  0.
    9000005    1    3    3    0    0  0.47177731297E+02  0.37202019921E+02  0.31683373410E+03  0.32248154006E+03  0.10000000000E+01 0.  0.
    9000005    1    3    3    0    0 -0.47177731297E+02 -0.37202019921E+02  0.17680274954E+03  0.18673494816E+03  0.10000000000E+01 0.  0.
<mgrwt>
<rscale>  0 0.12499782E+03</rscale>
<asrwt>0</asrwt>
<pdfrwt beam="2">  1        4 0.11984614E-02 0.12499782E+03</pdfrwt>
<pdfrwt beam="1">  1       -4 0.77142568E-01 0.12499782E+03</pdfrwt>
<totfact> 0.55158936E+03</totfact>
</mgrwt>
</event>
<event>
 5    1  0.3257199E-002  0.1250079E+03  0.7818608E-02  0.1235057E+00
         -4   -1    0    0    0  501 -0.00000000000E+00  0.00000000000E+00  0.15714941876E+03  0.15715455042E+03  0.12700000000E+01 0. -1.
          4   -1    0    0  501    0  0.00000000000E+00 -0.00000000000E+00 -0.24838288918E+02  0.24870735742E+02  0.12700000000E+01 0. -1.
         25    2    1    2    0    0  0.00000000000E+00  0.00000000000E+00  0.13231112984E+03  0.18202528616E+03  0.12500787864E+03 0.  0.
    9000005    1    3    3    0    0  0.28319178694E+02 -0.30478515075E+02 -0.17502025420E+01  0.41653078782E+02  0.10000000000E+01 0.  0.
    9000005    1    3    3    0    0 -0.28319178694E+02  0.30478515075E+02  0.13406133238E+03  0.14037220738E+03  0.10000000000E+01 0.  0.
<mgrwt>
<rscale>  0 0.12500788E+03</rscale>
<asrwt>0</asrwt>
<pdfrwt beam="2">  1        4 0.38241658E-02 0.12500788E+03</pdfrwt>
<pdfrwt beam="1">  1       -4 0.24179725E-01 0.12500788E+03</pdfrwt>
<totfact> 0.93237241E+03</totfact>
</mgrwt>
</event>
<event>
 5    1  0.3257199E-002  0.1250030E+03  0.7818608E-02  0.1235065E+00
          4   -1    0    0  501    0  0.00000000000E+00  0.00000000000E+00  0.73789515112E+03  0.73789624403E+03  0.12700000000E+01 0. -1.
         -4   -1    0    0    0  501 -0.00000000000E+00 -0.00000000000E+00 -0.52167458023E+01  0.53691094947E+01  0.12700000000E+01 0. -1.
         25    2    1    2    0    0  0.00000000000E+00  0.00000000000E+00  0.73267840532E+03  0.74326535352E+03  0.12500296046E+03 0.  0.
    9000005    1    3    3    0    0  0.26769377087E+02 -0.37949842141E+02  0.11769724807E+03  0.12653233686E+03  0.10000000000E+01 0.  0.
    9000005    1    3    3    0    0 -0.26769377087E+02  0.37949842141E+02  0.61498115725E+03  0.61673301666E+03  0.10000000000E+01 0.  0.
<mgrwt>
<rscale>  0 0.12500296E+03</rscale>
<asrwt>0</asrwt>
<pdfrwt beam="1">  1        4 0.11353412E+00 0.12500296E+03</pdfrwt>
<pdfrwt beam="2">  1       -4 0.81438072E-03 0.12500296E+03</pdfrwt>
<totfact> 0.40895699E+03</totfact>
</mgrwt>
</event>
<event>
 5    1  0.3257199E-002  0.1250018E+03  0.7818608E-02  0.1235066E+00
          4   -1    0    0  501    0  0.00000000000E+00  0.00000000000E+00  0.16572707219E+02  0.16621297319E+02  0.12700000000E+01 0. -1.
         -4   -1    0    0    0  501 -0.00000000000E+00 -0.00000000000E+00 -0.23531530751E+03  0.23531873459E+03  0.12700000000E+01 0. -1.
         25    2    1    2    0    0  0.00000000000E+00  0.00000000000E+00 -0.21874260029E+03  0.25194003191E+03  0.12500181797E+03 0.  0.
    9000005    1    3    3    0    0  0.45029592959E+02 -0.34706058768E+02 -0.16166499318E+03  0.17137311568E+03  0.10000000000E+01 0.  0.
    9000005    1    3    3    0    0 -0.45029592959E+02  0.34706058768E+02 -0.57077607113E+02  0.80566916232E+02  0.10000000000E+01 0.  0.
<mgrwt>
<rscale>  0 0.12500182E+03</rscale>
<asrwt>0</asrwt>
<pdfrwt beam="1">  1        4 0.25536488E-02 0.12500182E+03</pdfrwt>
<pdfrwt beam="2">  1       -4 0.36206354E-01 0.12500182E+03</pdfrwt>
<totfact> 0.82047318E+03</totfact>
</mgrwt>
</event>
<event>
 5    1  0.3257199E-002  0.1250014E+03  0.7818608E-02  0.1235067E+00
         -4   -1    0    0    0  501 -0.00000000000E+00  0.00000000000E+00  0.41807582293E+02  0.41826867408E+02  0.12700000000E+01 0. -1.
          4   -1    0    0  501    0  0.00000000000E+00 -0.00000000000E+00 -0.93390915018E+02  0.93399549827E+02  0.12700000000E+01 0. -1.
         25    2    1    2    0    0  0.00000000000E+00  0.00000000000E+00 -0.51583332726E+02  0.13522641724E+03  0.12500137481E+03 0.  0.
    9000005    1    3    3    0    0 -0.45036668544E+02  0.46877433202E+01  0.20801869718E+02  0.49839685340E+02  0.10000000000E+01 0.  0.
    9000005    1    3    3    0    0  0.45036668544E+02 -0.46877433202E+01 -0.72385202444E+02  0.85386731896E+02  0.10000000000E+01 0.  0.
<mgrwt>
<rscale>  0 0.12500137E+03</rscale>
<asrwt>0</asrwt>
<pdfrwt beam="2">  1        4 0.14369981E-01 0.12500137E+03</pdfrwt>
<pdfrwt beam="1">  1       -4 0.64340834E-02 0.12500137E+03</pdfrwt>
<totfact> 0.10232984E+04</totfact>
</mgrwt>
</event>
<event>
 5    1  0.3257199E-002  0.1250103E+03  0.7818608E-02  0.1235053E+00
          4   -1    0    0  501    0  0.00000000000E+00  0.00000000000E+00  0.18059396926E+02  0.18103997275E+02  0.12700000000E+01 0. -1.
         -4   -1    0    0    0  501 -0.00000000000E+00 -0.00000000000E+00 -0.21602241715E+03  0.21602615029E+03  0.12700000000E+01 0. -1.
         25    2    1    2    0    0  0.00000000000E+00  0.00000000000E+00 -0.19796302022E+03  0.23413014757E+03  0.12501027408E+03 0.  0.
    9000005    1    3    3    0    0 -0.65124251983E+01  0.60639368121E+02 -0.12454813658E+03  0.13868230952E+03  0.10000000000E+01 0.  0.
    9000005    1    3    3    0    0  0.65124251983E+01 -0.60639368121E+02 -0.73414883640E+02  0.95447838048E+02  0.10000000000E+01 0.  0.
<mgrwt>
<rscale>  0 0.12501027E+03</rscale>
<asrwt>0</asrwt>
<pdfrwt beam="1">  1        4 0.27820869E-02 0.12501027E+03</pdfrwt>
<pdfrwt beam="2">  1       -4 0.33237934E-01 0.12501027E+03</pdfrwt>
<totfact> 0.84660017E+03</totfact>
</mgrwt>
</event>
<event>
 5    1  0.3257199E-002  0.1249826E+03  0.7818608E-02  0.1235096E+00
          4   -1    0    0  501    0  0.00000000000E+00  0.00000000000E+00  0.15733049992E+03  0.15733562567E+03  0.12700000000E+01 0.  1.
         -4   -1    0    0    0  501 -0.00000000000E+00 -0.00000000000E+00 -0.24799625472E+02  0.24832122816E+02  0.12700000000E+01 0.  1.
         25    2    1    2    0    0  0.00000000000E+00  0.00000000000E+00  0.13253087445E+03  0.18216774848E+03  0.12498262242E+03 0.  0.
    9000005    1    3    3    0    0  0.42280771465E+02  0.30894650270E+02  0.11595084199E+03  0.12723105285E+03  0.10000000000E+01 0.  0.
    9000005    1    3    3    0    0 -0.42280771465E+02 -0.30894650270E+02  0.16580032455E+02  0.54936695634E+02  0.10000000000E+01 0.  0.
<mgrwt>
<rscale>  0 0.12498262E+03</rscale>
<asrwt>0</asrwt>
<pdfrwt beam="1">  1        4 0.24207587E-01 0.12498262E+03</pdfrwt>
<pdfrwt beam="2">  1       -4 0.38182210E-02 0.12498262E+03</pdfrwt>
<totfact> 0.93264577E+03</totfact>
</mgrwt>
</event>
<event>
 5    1  0.3257199E-002  0.1250016E+03  0.7818608E-02  0.1235067E+00
         -4   -1    0    0    0  501 -0.00000000000E+00  0.00000000000E+00  0.32238430893E+03  0.32238681044E+03  0.12700000000E+01 0.  1.
          4   -1    0    0  501    0  0.00000000000E+00 -0.00000000000E+00 -0.12081217524E+02  0.12147786501E+02  0.12700000000E+01 0.  1.
         25    2    1    2    0    0  0.00000000000E+00  0.00000000000E+00  0.31030309141E+03  0.33453459694E+03  0.12500155204E+03 0.  0.
    9000005    1    3    3    0    0 -0.34235824196E+02  0.42001593870E+01  0.15688337014E+02  0.37905895525E+02  0.10000000000E+01 0.  0.
    9000005    1    3    3    0    0  0.34235824196E+02 -0.42001593870E+01  0.29461475439E+03  0.29662870142E+03  0.10000000000E+01 0.  0.
<mgrwt>
<rscale>  0 0.12500155E+03</rscale>
<asrwt>0</asrwt>
<pdfrwt beam="2">  1        4 0.18639620E-02 0.12500155E+03</pdfrwt>
<pdfrwt beam="1">  1       -4 0.49602898E-01 0.12500155E+03</pdfrwt>
<totfact> 0.71457676E+03</totfact>
</mgrwt>
</event>
<event>
 5    1  0.3257199E-002  0.1250002E+03  0.7818608E-02  0.1235069E+00
         -4   -1    0    0    0  501 -0.00000000000E+00  0.00000000000E+00  0.68884829417E+01  0.70045768779E+01  0.12700000000E+01 0. -1.
          4   -1    0    0  501    0  0.00000000000E+00 -0.00000000000E+00 -0.56221641149E+03  0.56221784590E+03  0.12700000000E+01 0. -1.
         25    2    1    2    0    0  0.00000000000E+00  0.00000000000E+00 -0.55532792854E+03  0.56922242277E+03  0.12500023347E+03 0.  0.
    9000005    1    3    3    0    0 -0.90900326236E+01 -0.12667725566E+02 -0.55323914890E+03  0.55345971474E+03  0.10000000000E+01 0.  0.
    9000005    1    3    3    0    0  0.90900326236E+01  0.12667725566E+02 -0.20887796423E+01  0.15762708033E+02  0.10000000000E+01 0.  0.
<mgrwt>
<rscale>  0 0.12500023E+03</rscale>
<asrwt>0</asrwt>
<pdfrwt beam="2">  1        4 0.86503837E-01 0.12500023E+03</pdfrwt>
<pdfrwt beam="1">  1       -4 0.10688077E-02 0.12500023E+03</pdfrwt>
<totfact> 0.50869609E+03</totfact>
</mgrwt>
</event>
<event>
 5    1  0.3257199E-002  0.1250005E+03  0.7818608E-02  0.1235068E+00
         -4   -1    0    0    0  501 -0.00000000000E+00  0.00000000000E+00  0.19420150964E+01  0.23204143240E+01  0.12700000000E+01 0.  1.
          4   -1    0    0  501    0  0.00000000000E+00 -0.00000000000E+00 -0.18325118354E+04  0.18325122754E+04  0.12700000000E+01 0.  1.
         25    2    1    2    0    0  0.00000000000E+00  0.00000000000E+00 -0.18305698203E+04  0.18348326898E+04  0.12500053025E+03 0.  0.
    9000005    1    3    3    0    0 -0.53898463242E+02 -0.29997890895E+02 -0.10623387942E+04  0.10641285785E+04  0.10000000000E+01 0.  0.
    9000005    1    3    3    0    0  0.53898463242E+02  0.29997890895E+02 -0.76823102606E+03  0.77070411132E+03  0.10000000000E+01 0.  0.
<mgrwt>
<rscale>  0 0.12500053E+03</rscale>
<asrwt>0</asrwt>
<pdfrwt beam="2">  1        4 0.28195278E+00 0.12500053E+03</pdfrwt>
<pdfrwt beam="1">  1       -4 0.32791450E-03 0.12500053E+03</pdfrwt>
<totfact> 0.12174433E+03</totfact>
</mgrwt>
</event>
<event>
 5    1  0.3257199E-002  0.1249774E+03  0.7818608E-02  0.1235105E+00
          4   -1    0    0  501    0  0.00000000000E+00  0.00000000000E+00  0.38416062699E+02  0.38437049488E+02  0.12700000000E+01 0.  1.
         -4   -1    0    0    0  501 -0.00000000000E+00 -0.00000000000E+00 -0.10159332662E+03  0.10160126433E+03  0.12700000000E+01 0.  1.
         25    2    1    2    0    0  0.00000000000E+00  0.00000000000E+00 -0.63177263922E+02  0.14003831382E+03  0.12497744861E+03 0.  0.
    9000005    1    3    3    0    0  0.27124194572E+02 -0.21177925154E+02  0.26845805853E+02  0.43656886477E+02  0.10000000000E+01 0.  0.
    9000005    1    3    3    0    0 -0.27124194572E+02  0.21177925154E+02 -0.90023069775E+02  0.96381427343E+02  0.10000000000E+01 0.  0.
<mgrwt>
<rscale>  0 0.12497745E+03</rscale>
<asrwt>0</asrwt>
<pdfrwt beam="1">  1        4 0.59123885E-02 0.12497745E+03</pdfrwt>
<pdfrwt beam="2">  1       -4 0.15631967E-01 0.12497745E+03</pdfrwt>
<totfact> 0.10137942E+04</totfact>
</mgrwt>
</event>
<event>
 5    1  0.3257199E-002  0.1250002E+03  0.7818608E-02  0.1235069E+00
          4   -1    0    0  501    0  0.00000000000E+00  0.00000000000E+00  0.37751758607E+02  0.37773114485E+02  0.12700000000E+01 0. -1.
         -4   -1    0    0    0  501 -0.00000000000E+00 -0.00000000000E+00 -0.10341787306E+03  0.10342567074E+03  0.12700000000E+01 0. -1.
         25    2    1    2    0    0  0.00000000000E+00  0.00000000000E+00 -0.65666114452E+02  0.14119878522E+03  0.12500023345E+03 0.  0.
    9000005    1    3    3    0    0  0.18824347878E+02  0.40638140604E+02 -0.82063537711E+02  0.93494592177E+02  0.10000000000E+01 0.  0.
    9000005    1    3    3    0    0 -0.18824347878E+02 -0.40638140604E+02  0.16397423259E+02  0.47704193048E+02  0.10000000000E+01 0.  0.
<mgrwt>
<rscale>  0 0.12500023E+03</rscale>
<asrwt>0</asrwt>
<pdfrwt beam="1">  1        4 0.58102055E-02 0.12500023E+03</pdfrwt>
<pdfrwt beam="2">  1       -4 0.15912684E-01 0.12500023E+03</pdfrwt>
<totfact> 0.10108747E+04</totfact>
</mgrwt>
</event>
<event>
 5    1  0.3257199E-002  0.1250304E+03  0.7818608E-02  0.1235022E+00
         -4   -1    0    0    0  501 -0.00000000000E+00  0.00000000000E+00  0.15460991583E+02  0.15513064196E+02  0.12700000000E+01 0. -1.
          4   -1    0    0  501    0  0.00000000000E+00 -0.00000000000E+00 -0.25229640401E+03  0.25229960043E+03  0.12700000000E+01 0. -1.
         25    2    1    2    0    0  0.00000000000E+00  0.00000000000E+00 -0.23683541243E+03  0.26781266462E+03  0.12503043931E+03 0.  0.
    9000005    1    3    3    0    0  0.25734518895E+02 -0.41801023809E+02 -0.35526643776E+02  0.60603081376E+02  0.10000000000E+01 0.  0.
    9000005    1    3    3    0    0 -0.25734518895E+02  0.41801023809E+02 -0.20130876865E+03  0.20720958325E+03  0.10000000000E+01 0.  0.
<mgrwt>
<rscale>  0 0.12503044E+03</rscale>
<asrwt>0</asrwt>
<pdfrwt beam="2">  1        4 0.38819080E-01 0.12503044E+03</pdfrwt>
<pdfrwt beam="1">  1       -4 0.23828657E-02 0.12503044E+03</pdfrwt>
<totfact> 0.79767985E+03</totfact>
</mgrwt>
</event>
<event>
 5    1  0.3257199E-002  0.1249965E+03  0.7818608E-02  0.1235075E+00
          4   -1    0    0  501    0  0.00000000000E+00  0.00000000000E+00  0.78132434451E+02  0.78142755347E+02  0.12700000000E+01 0. -1.
         -4   -1    0    0    0  501 -0.00000000000E+00 -0.00000000000E+00 -0.49970773489E+02  0.49986909317E+02  0.12700000000E+01 0. -1.
         25    2    1    2    0    0  0.00000000000E+00  0.00000000000E+00  0.28161660962E+02  0.12812966466E+03  0.12499652723E+03 0.  0.
    9000005    1    3    3    0    0 -0.55646009210E+02  0.28434439176E+02  0.13882904011E+02  0.64021330008E+02  0.10000000000E+01 0.  0.
    9000005    1    3    3    0    0  0.55646009210E+02 -0.28434439176E+02  0.14278756951E+02  0.64108334655E+02  0.10000000000E+01 0.  0.
<mgrwt>
<rscale>  0 0.12499653E+03</rscale>
<asrwt>0</asrwt>
<pdfrwt beam="1">  1        4 0.12022410E-01 0.12499653E+03</pdfrwt>
<pdfrwt beam="2">  1       -4 0.76898464E-02 0.12499653E+03</pdfrwt>
<totfact> 0.10385502E+04</totfact>
</mgrwt>
</event>
<event>
 5    1  0.3257199E-002  0.1249989E+03  0.7818608E-02  0.1235071E+00
         -4   -1    0    0    0  501 -0.00000000000E+00  0.00000000000E+00  0.27560002573E+03  0.27560295187E+03  0.12700000000E+01 0. -1.
          4   -1    0    0  501    0  0.00000000000E+00 -0.00000000000E+00 -0.14141909567E+02  0.14198820592E+02  0.12700000000E+01 0. -1.
         25    2    1    2    0    0  0.00000000000E+00  0.00000000000E+00  0.26145811616E+03  0.28980177246E+03  0.12499888327E+03 0.  0.
    9000005    1    3    3    0    0 -0.32622526988E+01 -0.51875425546E+02  0.50299810352E+02  0.72337908386E+02  0.10000000000E+01 0.  0.
    9000005    1    3    3    0    0  0.32622526988E+01  0.51875425546E+02  0.21115830581E+03  0.21746386408E+03  0.10000000000E+01 0.  0.
<mgrwt>
<rscale>  0 0.12499888E+03</rscale>
<asrwt>0</asrwt>
<pdfrwt beam="2">  1        4 0.21802813E-02 0.12499888E+03</pdfrwt>
<pdfrwt beam="1">  1       -4 0.42404605E-01 0.12499888E+03</pdfrwt>
<totfact> 0.76898063E+03</totfact>
</mgrwt>
</event>
<event>
 5    1  0.3257199E-002  0.1249999E+03  0.7818608E-02  0.1235069E+00
          4   -1    0    0  501    0  0.00000000000E+00  0.00000000000E+00  0.20914660602E+01  0.24468613122E+01  0.12700000000E+01 0.  1.
         -4   -1    0    0    0  501 -0.00000000000E+00 -0.00000000000E+00 -0.17210912692E+04  0.17210917378E+04  0.12700000000E+01 0.  1.
         25    2    1    2    0    0  0.00000000000E+00  0.00000000000E+00 -0.17189998031E+04  0.17235385991E+04  0.12499991731E+03 0.  0.
    9000005    1    3    3    0    0 -0.49884323229E+02 -0.14730142638E+02 -0.13371058239E+04  0.13381174863E+04  0.10000000000E+01 0.  0.
    9000005    1    3    3    0    0  0.49884323229E+02  0.14730142638E+02 -0.38189397927E+03  0.38542111282E+03  0.10000000000E+01 0.  0.
<mgrwt>
<rscale>  0 0.12499992E+03</rscale>
<asrwt>0</asrwt>
<pdfrwt beam="1">  1        4 0.34913952E-03 0.12499992E+03</pdfrwt>
<pdfrwt beam="2">  1       -4 0.26480960E+00 0.12499992E+03</pdfrwt>
<totfact> 0.13919068E+03</totfact>
</mgrwt>
</event>
<event>
 5    1  0.3257199E-002  0.1250054E+03  0.7818608E-02  0.1235061E+00
         -4   -1    0    0    0  501 -0.00000000000E+00  0.00000000000E+00  0.19244490231E+03  0.19244909282E+03  0.12700000000E+01 0. -1.
          4   -1    0    0  501    0  0.00000000000E+00 -0.00000000000E+00 -0.20275494004E+02  0.20315229684E+02  0.12700000000E+01 0. -1.
         25    2    1    2    0    0  0.00000000000E+00  0.00000000000E+00  0.17216940831E+03  0.21276432250E+03  0.12500540697E+03 0.  0.
    9000005    1    3    3    0    0  0.55365027817E+02 -0.15743341751E+02  0.44656564751E+02  0.72858409879E+02  0.10000000000E+01 0.  0.
    9000005    1    3    3    0    0 -0.55365027817E+02  0.15743341751E+02  0.12751284356E+03  0.13990591262E+03  0.10000000000E+01 0.  0.
<mgrwt>
<rscale>  0 0.12500541E+03</rscale>
<asrwt>0</asrwt>
<pdfrwt beam="2">  1        4 0.31226857E-02 0.12500541E+03</pdfrwt>
<pdfrwt beam="1">  1       -4 0.29610287E-01 0.12500541E+03</pdfrwt>
<totfact> 0.88015774E+03</totfact>
</mgrwt>
</event>
<event>
 5    1  0.3257199E-002  0.1250001E+03  0.7818608E-02  0.1235069E+00
          4   -1    0    0  501    0  0.00000000000E+00  0.00000000000E+00  0.24431328051E+02  0.24464314631E+02  0.12700000000E+01 0.  1.
         -4   -1    0    0    0  501 -0.00000000000E+00 -0.00000000000E+00 -0.15974374907E+03  0.15974879739E+03  0.12700000000E+01 0.  1.
         25    2    1    2    0    0  0.00000000000E+00  0.00000000000E+00 -0.13531242102E+03  0.18421311202E+03  0.12500007743E+03 0.  0.
    9000005    1    3    3    0    0 -0.19584373785E+01 -0.13215405871E+02  0.22309433513E+02  0.26022937055E+02  0.10000000000E+01 0.  0.
    9000005    1    3    3    0    0  0.19584373785E+01  0.13215405871E+02 -0.15762185453E+03  0.15819017497E+03  0.10000000000E+01 0.  0.
<mgrwt>
<rscale>  0 0.12500008E+03</rscale>
<asrwt>0</asrwt>
<pdfrwt beam="1">  1        4 0.37615917E-02 0.12500008E+03</pdfrwt>
<pdfrwt beam="2">  1       -4 0.24578886E-01 0.12500008E+03</pdfrwt>
<totfact> 0.92863919E+03</totfact>
</mgrwt>
</event>
<event>
 5    1  0.3257199E-002  0.1249975E+03  0.7818608E-02  0.1235073E+00
         -4   -1    0    0    0  501 -0.00000000000E+00  0.00000000000E+00  0.32584271231E+03  0.32584518727E+03  0.12700000000E+01 0.  1.
          4   -1    0    0  501    0  0.00000000000E+00 -0.00000000000E+00 -0.11951500594E+02  0.12018788061E+02  0.12700000000E+01 0.  1.
         25    2    1    2    0    0  0.00000000000E+00  0.00000000000E+00  0.31389121172E+03  0.33786397533E+03  0.12499749210E+03 0.  0.
    9000005    1    3    3    0    0  0.51706648854E+02 -0.46844614147E+01  0.62939433780E+02  0.81595919254E+02  0.10000000000E+01 0.  0.
    9000005    1    3    3    0    0 -0.51706648854E+02  0.46844614147E+01  0.25095177794E+03  0.25626805608E+03  0.10000000000E+01 0.  0.
<mgrwt>
<rscale>  0 0.12499749E+03</rscale>
<asrwt>0</asrwt>
<pdfrwt beam="2">  1        4 0.18440587E-02 0.12499749E+03</pdfrwt>
<pdfrwt beam="1">  1       -4 0.50135017E-01 0.12499749E+03</pdfrwt>
<totfact> 0.71084575E+03</totfact>
</mgrwt>
</event>
<event>
 5    1  0.3257199E-002  0.1250108E+03  0.7818608E-02  0.1235052E+00
          4   -1    0    0  501    0  0.00000000000E+00  0.00000000000E+00  0.32490022447E+03  0.32490270660E+03  0.12700000000E+01 0.  1.
         -4   -1    0    0    0  501 -0.00000000000E+00 -0.00000000000E+00 -0.11988923905E+02  0.12056002505E+02  0.12700000000E+01 0.  1.
         25    2    1    2    0    0  0.00000000000E+00  0.00000000000E+00  0.31291130056E+03  0.33695870911E+03  0.12501075804E+03 0.  0.
    9000005    1    3    3    0    0  0.54995103669E+02  0.29516812058E+02  0.14783918938E+03  0.16047781634E+03  0.10000000000E+01 0.  0.
    9000005    1    3    3    0    0 -0.54995103669E+02 -0.29516812058E+02  0.16507211118E+03  0.17648089276E+03  0.10000000000E+01 0.  0.
<mgrwt>
<rscale>  0 0.12501076E+03</rscale>
<asrwt>0</asrwt>
<pdfrwt beam="1">  1        4 0.49990000E-01 0.12501076E+03</pdfrwt>
<pdfrwt beam="2">  1       -4 0.18498007E-02 0.12501076E+03</pdfrwt>
<totfact> 0.71166537E+03</totfact>
</mgrwt>
</event>
<event>
 5    1  0.3257199E-002  0.1250018E+03  0.7818608E-02  0.1235066E+00
         -4   -1    0    0    0  501 -0.00000000000E+00  0.00000000000E+00  0.19439665840E+03  0.19440080683E+03  0.12700000000E+01 0.  1.
          4   -1    0    0  501    0  0.00000000000E+00 -0.00000000000E+00 -0.20070384968E+02  0.20110525920E+02  0.12700000000E+01 0.  1.
         25    2    1    2    0    0  0.00000000000E+00  0.00000000000E+00  0.17432627343E+03  0.21451133275E+03  0.12500184907E+03 0.  0.
    9000005    1    3    3    0    0  0.72544035786E+01 -0.34031366558E+02 -0.19171041385E+01  0.34863097530E+02  0.10000000000E+01 0.  0.
    9000005    1    3    3    0    0 -0.72544035786E+01  0.34031366558E+02  0.17624337757E+03  0.17964823522E+03  0.10000000000E+01 0.  0.
<mgrwt>
<rscale>  0 0.12500185E+03</rscale>
<asrwt>0</asrwt>
<pdfrwt beam="2">  1        4 0.30911585E-02 0.12500185E+03</pdfrwt>
<pdfrwt beam="1">  1       -4 0.29910584E-01 0.12500185E+03</pdfrwt>
<totfact> 0.87740755E+03</totfact>
</mgrwt>
</event>
<event>
 5    1  0.3257199E-002  0.1250013E+03  0.7818608E-02  0.1235067E+00
          4   -1    0    0  501    0  0.00000000000E+00  0.00000000000E+00  0.25808082037E+02  0.25839311106E+02  0.12700000000E+01 0.  1.
         -4   -1    0    0    0  501 -0.00000000000E+00 -0.00000000000E+00 -0.15123539128E+03  0.15124072361E+03  0.12700000000E+01 0.  1.
         25    2    1    2    0    0  0.00000000000E+00  0.00000000000E+00 -0.12542730925E+03  0.17708003471E+03  0.12500131515E+03 0.  0.
    9000005    1    3    3    0    0 -0.28534649814E+02  0.16250186321E+02 -0.13803547254E+03  0.14189110780E+03  0.10000000000E+01 0.  0.
    9000005    1    3    3    0    0  0.28534649814E+02 -0.16250186321E+02  0.12608163289E+02  0.35188926908E+02  0.10000000000E+01 0.  0.
<mgrwt>
<rscale>  0 0.12500132E+03</rscale>
<asrwt>0</asrwt>
<pdfrwt beam="1">  1        4 0.39732867E-02 0.12500132E+03</pdfrwt>
<pdfrwt beam="2">  1       -4 0.23269795E-01 0.12500132E+03</pdfrwt>
<totfact> 0.94142486E+03</totfact>
</mgrwt>
</event>
<event>
 5    1  0.3257199E-002  0.1249983E+03  0.7818608E-02  0.1235072E+00
          4   -1    0    0  501    0  0.00000000000E+00  0.00000000000E+00  0.10174950313E+03  0.10175742865E+03  0.12700000000E+01 0. -1.
         -4   -1    0    0    0  501 -0.00000000000E+00 -0.00000000000E+00 -0.38369865188E+02  0.38390877231E+02  0.12700000000E+01 0. -1.
         25    2    1    2    0    0  0.00000000000E+00  0.00000000000E+00  0.63379637937E+02  0.14014830589E+03  0.12499827654E+03 0.  0.
    9000005    1    3    3    0    0  0.40940562375E+02  0.46636717750E+02  0.39931163547E+02  0.73801157933E+02  0.10000000000E+01 0.  0.
    9000005    1    3    3    0    0 -0.40940562375E+02 -0.46636717750E+02  0.23448474390E+02  0.66347147952E+02  0.10000000000E+01 0.  0.
<mgrwt>
<rscale>  0 0.12499828E+03</rscale>
<asrwt>0</asrwt>
<pdfrwt beam="1">  1        4 0.15655996E-01 0.12499828E+03</pdfrwt>
<pdfrwt beam="2">  1       -4 0.59052821E-02 0.12499828E+03</pdfrwt>
<totfact> 0.10130906E+04</totfact>
</mgrwt>
</event>
<event>
 5    1  0.3257199E-002  0.1250180E+03  0.7818608E-02  0.1235041E+00
          4   -1    0    0  501    0  0.00000000000E+00  0.00000000000E+00  0.34864218033E+01  0.37105305537E+01  0.12700000000E+01 0.  1.
         -4   -1    0    0    0  501 -0.00000000000E+00 -0.00000000000E+00 -0.10856175210E+04  0.10856182638E+04  0.12700000000E+01 0.  1.
         25    2    1    2    0    0  0.00000000000E+00  0.00000000000E+00 -0.10821310992E+04  0.10893287944E+04  0.12501802456E+03 0.  0.
    9000005    1    3    3    0    0 -0.51524702932E+02 -0.34181528348E+02 -0.46158509483E+03  0.46570910627E+03  0.10000000000E+01 0.  0.
    9000005    1    3    3    0    0  0.51524702932E+02  0.34181528348E+02 -0.62054600434E+03  0.62361968810E+03  0.10000000000E+01 0.  0.
<mgrwt>
<rscale>  0 0.12501802E+03</rscale>
<asrwt>0</asrwt>
<pdfrwt beam="1">  1        4 0.55366973E-03 0.12501802E+03</pdfrwt>
<pdfrwt beam="2">  1       -4 0.16703512E+00 0.12501802E+03</pdfrwt>
<totfact> 0.27786943E+03</totfact>
</mgrwt>
</event>
<event>
 5    1  0.3257199E-002  0.1249997E+03  0.7818608E-02  0.1235070E+00
         -4   -1    0    0    0  501 -0.00000000000E+00  0.00000000000E+00  0.90989145116E+02  0.90998007830E+02  0.12700000000E+01 0.  1.
          4   -1    0    0  501    0  0.00000000000E+00 -0.00000000000E+00 -0.42910403103E+02  0.42929192800E+02  0.12700000000E+01 0.  1.
         25    2    1    2    0    0  0.00000000000E+00  0.00000000000E+00  0.48078742013E+02  0.13392720063E+03  0.12499971854E+03 0.  0.
    9000005    1    3    3    0    0 -0.29114153644E+02 -0.54661233017E+02  0.32987368580E+02  0.70175856412E+02  0.10000000000E+01 0.  0.
    9000005    1    3    3    0    0  0.29114153644E+02  0.54661233017E+02  0.15091373433E+02  0.63751344217E+02  0.10000000000E+01 0.  0.
<mgrwt>
<rscale>  0 0.12499972E+03</rscale>
<asrwt>0</asrwt>
<pdfrwt beam="2">  1        4 0.66037277E-02 0.12499972E+03</pdfrwt>
<pdfrwt beam="1">  1       -4 0.14000457E-01 0.12499972E+03</pdfrwt>
<totfact> 0.10260798E+04</totfact>
</mgrwt>
</event>
<event>
 5    1  0.3257199E-002  0.1249982E+03  0.7818608E-02  0.1235072E+00
          4   -1    0    0  501    0  0.00000000000E+00  0.00000000000E+00  0.33843465061E+03  0.33843703348E+03  0.12700000000E+01 0.  1.
         -4   -1    0    0    0  501 -0.00000000000E+00 -0.00000000000E+00 -0.11504417860E+02  0.11574304743E+02  0.12700000000E+01 0.  1.
         25    2    1    2    0    0  0.00000000000E+00  0.00000000000E+00  0.32693023275E+03  0.35001133822E+03  0.12499823919E+03 0.  0.
    9000005    1    3    3    0    0  0.94732093902E+00  0.27442249276E+02  0.32065110229E+03  0.32182620133E+03  0.10000000000E+01 0.  0.
    9000005    1    3    3    0    0 -0.94732093902E+00 -0.27442249276E+02  0.62791304536E+01  0.28185136891E+02  0.10000000000E+01 0.  0.
<mgrwt>
<rscale>  0 0.12499824E+03</rscale>
<asrwt>0</asrwt>
<pdfrwt beam="1">  1        4 0.52072420E-01 0.12499824E+03</pdfrwt>
<pdfrwt beam="2">  1       -4 0.17754699E-02 0.12499824E+03</pdfrwt>
<totfact> 0.69726029E+03</totfact>
</mgrwt>
</event>
<event>
 5    1  0.3257199E-002  0.1249940E+03  0.7818608E-02  0.1235079E+00
          4   -1    0    0  501    0  0.00000000000E+00  0.00000000000E+00  0.59676963172E+03  0.59677098308E+03  0.12700000000E+01 0. -1.
         -4   -1    0    0    0  501 -0.00000000000E+00 -0.00000000000E+00 -0.64820553364E+01  0.66052964645E+01  0.12700000000E+01 0. -1.
         25    2    1    2    0    0  0.00000000000E+00  0.00000000000E+00  0.59028757638E+03  0.60337627954E+03  0.12499404738E+03 0.  0.
    9000005    1    3    3    0    0  0.35282890881E+02 -0.30198064259E+02  0.93317087058E+02  0.10423955205E+03  0.10000000000E+01 0.  0.
    9000005    1    3    3    0    0 -0.35282890881E+02  0.30198064259E+02  0.49697048933E+03  0.49913672750E+03  0.10000000000E+01 0.  0.
<mgrwt>
<rscale>  0 0.12499405E+03</rscale>
<asrwt>0</asrwt>
<pdfrwt beam="1">  1        4 0.91820282E-01 0.12499405E+03</pdfrwt>
<pdfrwt beam="2">  1       -4 0.10068235E-02 0.12499405E+03</pdfrwt>
<totfact> 0.48661537E+03</totfact>
</mgrwt>
</event>
<event>
 5    1  0.3257199E-002  0.1250082E+03  0.7818608E-02  0.1235056E+00
         -4   -1    0    0    0  501 -0.00000000000E+00  0.00000000000E+00  0.79541856100E+03  0.79541957486E+03  0.12700000000E+01 0.  1.
          4   -1    0    0  501    0  0.00000000000E+00 -0.00000000000E+00 -0.48284503103E+01  0.49926778785E+01  0.12700000000E+01 0.  1.
         25    2    1    2    0    0  0.00000000000E+00  0.00000000000E+00  0.79059011069E+03  0.80041225274E+03  0.12500820464E+03 0.  0.
    9000005    1    3    3    0    0  0.44538015473E+02  0.39733074068E+01  0.67485534590E+03  0.67633583365E+03  0.10000000000E+01 0.  0.
    9000005    1    3    3    0    0 -0.44538015473E+02 -0.39733074068E+01  0.11573476479E+03  0.12407641909E+03  0.10000000000E+01 0.  0.
<mgrwt>
<rscale>  0 0.12500820E+03</rscale>
<asrwt>0</asrwt>
<pdfrwt beam="2">  1        4 0.75554883E-03 0.12500820E+03</pdfrwt>
<pdfrwt beam="1">  1       -4 0.12238489E+00 0.12500820E+03</pdfrwt>
<totfact> 0.38239445E+03</totfact>
</mgrwt>
</event>
<event>
 5    1  0.3257199E-002  0.1250002E+03  0.7818608E-02  0.1235069E+00
         -4   -1    0    0    0  501 -0.00000000000E+00  0.00000000000E+00  0.10430298467E+03  0.10431071619E+03  0.12700000000E+01 0.  1.
          4   -1    0    0  501    0  0.00000000000E+00 -0.00000000000E+00 -0.37431231189E+02  0.37452769835E+02  0.12700000000E+01 0.  1.
         25    2    1    2    0    0  0.00000000000E+00  0.00000000000E+00  0.66871753485E+02  0.14176348602E+03  0.12500021822E+03 0.  0.
    9000005    1    3    3    0    0 -0.50749404501E+02  0.10231955723E+02  0.73130695974E+02  0.89606326053E+02  0.10000000000E+01 0.  0.
    9000005    1    3    3    0    0  0.50749404501E+02 -0.10231955723E+02 -0.62589424887E+01  0.52157159971E+02  0.10000000000E+01 0.  0.
<mgrwt>
<rscale>  0 0.12500022E+03</rscale>
<asrwt>0</asrwt>
<pdfrwt beam="2">  1        4 0.57609025E-02 0.12500022E+03</pdfrwt>
<pdfrwt beam="1">  1       -4 0.16048865E-01 0.12500022E+03</pdfrwt>
<totfact> 0.10097117E+04</totfact>
</mgrwt>
</event>
<event>
 5    1  0.3257199E-002  0.1250011E+03  0.7818608E-02  0.1235068E+00
         -4   -1    0    0    0  501 -0.00000000000E+00  0.00000000000E+00  0.10176900825E+03  0.10177693226E+03  0.12700000000E+01 0.  1.
          4   -1    0    0  501    0  0.00000000000E+00 -0.00000000000E+00 -0.38364260902E+02  0.38385276013E+02  0.12700000000E+01 0.  1.
         25    2    1    2    0    0  0.00000000000E+00  0.00000000000E+00  0.63404747344E+02  0.14016220827E+03  0.12500113056E+03 0.  0.
    9000005    1    3    3    0    0 -0.60942879267E+02  0.11507184641E+02  0.23099034115E+02  0.66189237862E+02  0.10000000000E+01 0.  0.
    9000005    1    3    3    0    0  0.60942879267E+02 -0.11507184641E+02  0.40305713229E+02  0.73972970406E+02  0.10000000000E+01 0.  0.
<mgrwt>
<rscale>  0 0.12500113E+03</rscale>
<asrwt>0</asrwt>
<pdfrwt beam="2">  1        4 0.59044202E-02 0.12500113E+03</pdfrwt>
<pdfrwt beam="1">  1       -4 0.15658996E-01 0.12500113E+03</pdfrwt>
<totfact> 0.10129967E+04</totfact>
</mgrwt>
</event>
<event>
 5    1  0.3257199E-002  0.1249894E+03  0.7818608E-02  0.1235086E+00
         -4   -1    0    0    0  501 -0.00000000000E+00  0.00000000000E+00  0.25865275900E+03  0.25865587687E+03  0.12700000000E+01 0.  1.
          4   -1    0    0  501    0  0.00000000000E+00 -0.00000000000E+00 -0.15069817009E+02  0.15123236581E+02  0.12700000000E+01 0.  1.
         25    2    1    2    0    0  0.00000000000E+00  0.00000000000E+00  0.24358294199E+03  0.27377911345E+03  0.12498941288E+03 0.  0.
    9000005    1    3    3    0    0  0.94708547513E+01 -0.60838225248E+02  0.14513783718E+03  0.15766096068E+03  0.10000000000E+01 0.  0.
    9000005    1    3    3    0    0 -0.94708547513E+01  0.60838225248E+02  0.98445104807E+02  0.11611815276E+03  0.10000000000E+01 0.  0.
<mgrwt>
<rscale>  0 0.12498941E+03</rscale>
<asrwt>0</asrwt>
<pdfrwt beam="2">  1        4 0.23227824E-02 0.12498941E+03</pdfrwt>
<pdfrwt beam="1">  1       -4 0.39797082E-01 0.12498941E+03</pdfrwt>
<totfact> 0.79028849E+03</totfact>
</mgrwt>
</event>
<event>
 4    1  0.3257199E-002  0.1250838E+03  0.7818608E-02  0.1234938E+00
          4   -1    0    0  501    0  0.00000000000E+00  0.00000000000E+00  0.51015989156E+02  0.51031794497E+02  0.12700000000E+01 0. -1.
         -4   -1    0    0    0  501 -0.00000000000E+00 -0.00000000000E+00 -0.76638904820E+02  0.76649426821E+02  0.12700000000E+01 0. -1.
    9000005    1    1    2    0    0  0.41250778632E+02 -0.29029255597E+02 -0.50540658339E+02  0.71412061752E+02  0.10000000000E+01 0.  0.
    9000005    1    1    2    0    0 -0.41250778632E+02  0.29029255597E+02  0.24917742675E+02  0.56269159567E+02  0.10000000000E+01 0.  0.
<mgrwt>
<rscale>  0 0.12508381E+03</rscale>
<asrwt>0</asrwt>
<pdfrwt beam="1">  1        4 0.78506389E-02 0.12508381E+03</pdfrwt>
<pdfrwt beam="2">  1       -4 0.11792626E-01 0.12508381E+03</pdfrwt>
<totfact> 0.10374736E+04</totfact>
</mgrwt>
</event>
<event>
 5    1  0.3257199E-002  0.1249824E+03  0.7818608E-02  0.1235097E+00
         -4   -1    0    0    0  501 -0.00000000000E+00  0.00000000000E+00  0.73609641504E+01  0.74697184166E+01  0.12700000000E+01 0.  1.
          4   -1    0    0  501    0  0.00000000000E+00 -0.00000000000E+00 -0.52652205352E+03  0.52652358518E+03  0.12700000000E+01 0.  1.
         25    2    1    2    0    0  0.00000000000E+00  0.00000000000E+00 -0.51916108937E+03  0.53399330359E+03  0.12498244502E+03 0.  0.
    9000005    1    3    3    0    0 -0.33476079861E+02  0.39563953307E+01 -0.34800258925E+02  0.48459870079E+02  0.10000000000E+01 0.  0.
    9000005    1    3    3    0    0  0.33476079861E+02 -0.39563953307E+01 -0.48436083045E+03  0.48553343351E+03  0.10000000000E+01 0.  0.
<mgrwt>
<rscale>  0 0.12498245E+03</rscale>
<asrwt>0</asrwt>
<pdfrwt beam="2">  1        4 0.81011847E-01 0.12498245E+03</pdfrwt>
<pdfrwt beam="1">  1       -4 0.11409400E-02 0.12498245E+03</pdfrwt>
<totfact> 0.53340687E+03</totfact>
</mgrwt>
</event>
<event>
 5    1  0.3257199E-002  0.1249966E+03  0.7818608E-02  0.1235075E+00
          4   -1    0    0  501    0  0.00000000000E+00  0.00000000000E+00  0.19529092351E+02  0.19570343586E+02  0.12700000000E+01 0. -1.
         -4   -1    0    0    0  501 -0.00000000000E+00 -0.00000000000E+00 -0.19975694006E+03  0.19976097718E+03  0.12700000000E+01 0. -1.
         25    2    1    2    0    0  0.00000000000E+00  0.00000000000E+00 -0.18022784771E+03  0.21933132076E+03  0.12499660466E+03 0.  0.
    9000005    1    3    3    0    0  0.41111457883E+02 -0.22556677708E+02 -0.17636557657E+02  0.50109917626E+02  0.10000000000E+01 0.  0.
    9000005    1    3    3    0    0 -0.41111457883E+02  0.22556677708E+02 -0.16259129005E+03  0.16922140314E+03  0.10000000000E+01 0.  0.
<mgrwt>
<rscale>  0 0.12499660E+03</rscale>
<asrwt>0</asrwt>
<pdfrwt beam="1">  1        4 0.30079596E-02 0.12499660E+03</pdfrwt>
<pdfrwt beam="2">  1       -4 0.30735319E-01 0.12499660E+03</pdfrwt>
<totfact> 0.86980867E+03</totfact>
</mgrwt>
</event>
<event>
 5    1  0.3257199E-002  0.1249961E+03  0.7818608E-02  0.1235075E+00
          4   -1    0    0  501    0  0.00000000000E+00  0.00000000000E+00  0.83750911324E+02  0.83760539919E+02  0.12700000000E+01 0.  1.
         -4   -1    0    0    0  501 -0.00000000000E+00 -0.00000000000E+00 -0.46617409304E+02  0.46634705427E+02  0.12700000000E+01 0.  1.
         25    2    1    2    0    0  0.00000000000E+00  0.00000000000E+00  0.37133502019E+02  0.13039524535E+03  0.12499609209E+03 0.  0.
    9000005    1    3    3    0    0 -0.19730572790E+02 -0.56476030927E+02  0.37406977548E+02  0.70562876508E+02  0.10000000000E+01 0.  0.
    9000005    1    3    3    0    0  0.19730572790E+02  0.56476030927E+02 -0.27347552828E+00  0.59832368838E+02  0.10000000000E+01 0.  0.
<mgrwt>
<rscale>  0 0.12499609E+03</rscale>
<asrwt>0</asrwt>
<pdfrwt beam="1">  1        4 0.12886827E-01 0.12499609E+03</pdfrwt>
<pdfrwt beam="2">  1       -4 0.71739802E-02 0.12499609E+03</pdfrwt>
<totfact> 0.10336971E+04</totfact>
</mgrwt>
</event>
<event>
 5    1  0.3257199E-002  0.1249952E+03  0.7818608E-02  0.1235077E+00
         -4   -1    0    0    0  501 -0.00000000000E+00  0.00000000000E+00  0.80540908454E+02  0.80550920756E+02  0.12700000000E+01 0.  1.
          4   -1    0    0  501    0  0.00000000000E+00 -0.00000000000E+00 -0.48475102390E+02  0.48491735911E+02  0.12700000000E+01 0.  1.
         25    2    1    2    0    0  0.00000000000E+00  0.00000000000E+00  0.32065806064E+02  0.12904265667E+03  0.12499516519E+03 0.  0.
    9000005    1    3    3    0    0  0.49021819309E+02  0.35368117062E+02  0.32385813084E+02  0.68584862485E+02  0.10000000000E+01 0.  0.
    9000005    1    3    3    0    0 -0.49021819309E+02 -0.35368117062E+02 -0.32000702000E+00  0.60457794182E+02  0.10000000000E+01 0.  0.
<mgrwt>
<rscale>  0 0.12499517E+03</rscale>
<asrwt>0</asrwt>
<pdfrwt beam="2">  1        4 0.74597578E-02 0.12499517E+03</pdfrwt>
<pdfrwt beam="1">  1       -4 0.12392959E-01 0.12499517E+03</pdfrwt>
<totfact> 0.10366162E+04</totfact>
</mgrwt>
</event>
<event>
 5    1  0.3257199E-002  0.1250002E+03  0.7818608E-02  0.1235069E+00
          4   -1    0    0  501    0  0.00000000000E+00  0.00000000000E+00  0.73217819293E+02  0.73228832860E+02  0.12700000000E+01 0. -1.
         -4   -1    0    0    0  501 -0.00000000000E+00 -0.00000000000E+00 -0.53328651522E+02  0.53343771643E+02  0.12700000000E+01 0. -1.
         25    2    1    2    0    0  0.00000000000E+00  0.00000000000E+00  0.19889167772E+02  0.12657260450E+03  0.12500018086E+03 0.  0.
    9000005    1    3    3    0    0 -0.41960469313E+02 -0.43706083268E+02 -0.55567662813E+01  0.60850475357E+02  0.10000000000E+01 0.  0.
    9000005    1    3    3    0    0  0.41960469313E+02  0.43706083268E+02  0.25445934053E+02  0.65722129146E+02  0.10000000000E+01 0.  0.
<mgrwt>
<rscale>  0 0.12500018E+03</rscale>
<asrwt>0</asrwt>
<pdfrwt beam="1">  1        4 0.11266290E-01 0.12500018E+03</pdfrwt>
<pdfrwt beam="2">  1       -4 0.82064182E-02 0.12500018E+03</pdfrwt>
<totfact> 0.10418403E+04</totfact>
</mgrwt>
</event>
<event>
 5    1  0.3257199E-002  0.1249999E+03  0.7818608E-02  0.1235069E+00
         -4   -1    0    0    0  501 -0.00000000000E+00  0.00000000000E+00  0.14617038913E+03  0.14617590622E+03  0.12700000000E+01 0. -1.
          4   -1    0    0  501    0  0.00000000000E+00 -0.00000000000E+00 -0.26702795559E+02  0.26732979457E+02  0.12700000000E+01 0. -1.
         25    2    1    2    0    0  0.00000000000E+00  0.00000000000E+00  0.11946759357E+03  0.17290888568E+03  0.12499990733E+03 0.  0.
    9000005    1    3    3    0    0  0.38810520503E+02  0.46655742061E+02  0.80354734757E+02  0.10070202663E+03  0.10000000000E+01 0.  0.
    9000005    1    3    3    0    0 -0.38810520503E+02 -0.46655742061E+02  0.39112858816E+02  0.72206859049E+02  0.10000000000E+01 0.  0.
<mgrwt>
<rscale>  0 0.12499991E+03</rscale>
<asrwt>0</asrwt>
<pdfrwt beam="2">  1        4 0.41108685E-02 0.12499991E+03</pdfrwt>
<pdfrwt beam="1">  1       -4 0.22490499E-01 0.12499991E+03</pdfrwt>
<totfact> 0.94909421E+03</totfact>
</mgrwt>
</event>
<event>
 5    1  0.3257199E-002  0.1250044E+03  0.7818608E-02  0.1235062E+00
          4   -1    0    0  501    0  0.00000000000E+00  0.00000000000E+00  0.86361910750E+01  0.87290719027E+01  0.12700000000E+01 0.  1.
         -4   -1    0    0    0  501 -0.00000000000E+00 -0.00000000000E+00 -0.44983052336E+03  0.44983231614E+03  0.12700000000E+01 0.  1.
         25    2    1    2    0    0  0.00000000000E+00  0.00000000000E+00 -0.44119433228E+03  0.45856138804E+03  0.12500443098E+03 0.  0.
    9000005    1    3    3    0    0  0.48569296189E+02 -0.35573659252E+02 -0.28209723416E+03  0.28845157529E+03  0.10000000000E+01 0.  0.
    9000005    1    3    3    0    0 -0.48569296189E+02  0.35573659252E+02 -0.15909709812E+03  0.17010981276E+03  0.10000000000E+01 0.  0.
<mgrwt>
<rscale>  0 0.12500443E+03</rscale>
<asrwt>0</asrwt>
<pdfrwt beam="1">  1        4 0.13359277E-02 0.12500443E+03</pdfrwt>
<pdfrwt beam="2">  1       -4 0.69211961E-01 0.12500443E+03</pdfrwt>
<totfact> 0.59223462E+03</totfact>
</mgrwt>
</event>
<event>
 5    1  0.3257199E-002  0.1249985E+03  0.7818608E-02  0.1235072E+00
          4   -1    0    0  501    0  0.00000000000E+00  0.00000000000E+00  0.16869633239E+03  0.16870111280E+03  0.12700000000E+01 0. -1.
         -4   -1    0    0    0  501 -0.00000000000E+00 -0.00000000000E+00 -0.23132447119E+02  0.23167283175E+02  0.12700000000E+01 0. -1.
         25    2    1    2    0    0  0.00000000000E+00  0.00000000000E+00  0.14556388527E+03  0.19186839598E+03  0.12499854671E+03 0.  0.
    9000005    1    3    3    0    0  0.14329655259E+02 -0.19942896623E+02 -0.15423149733E+02  0.29016059230E+02  0.10000000000E+01 0.  0.
    9000005    1    3    3    0    0 -0.14329655259E+02  0.19942896623E+02  0.16098703500E+03  0.16285233675E+03  0.10000000000E+01 0.  0.
<mgrwt>
<rscale>  0 0.12499855E+03</rscale>
<asrwt>0</asrwt>
<pdfrwt beam="1">  1        4 0.25956329E-01 0.12499855E+03</pdfrwt>
<pdfrwt beam="2">  1       -4 0.35618854E-02 0.12499855E+03</pdfrwt>
<totfact> 0.91526211E+03</totfact>
</mgrwt>
</event>
<event>
 5    1  0.3257199E-002  0.1250007E+03  0.7818608E-02  0.1235068E+00
          4   -1    0    0  501    0  0.00000000000E+00  0.00000000000E+00  0.39604470172E+02  0.39624827540E+02  0.12700000000E+01 0.  1.
         -4   -1    0    0    0  501 -0.00000000000E+00 -0.00000000000E+00 -0.98582783258E+02  0.98590963353E+02  0.12700000000E+01 0.  1.
         25    2    1    2    0    0  0.00000000000E+00  0.00000000000E+00 -0.58978313087E+02  0.13821579089E+03  0.12500065375E+03 0.  0.
    9000005    1    3    3    0    0 -0.60367604702E+01  0.18263380765E+02 -0.95233493525E+02  0.97161781801E+02  0.10000000000E+01 0.  0.
    9000005    1    3    3    0    0  0.60367604702E+01 -0.18263380765E+02  0.36255180438E+02  0.41054009092E+02  0.10000000000E+01 0.  0.
<mgrwt>
<rscale>  0 0.12500065E+03</rscale>
<asrwt>0</asrwt>
<pdfrwt beam="1">  1        4 0.60951906E-02 0.12500065E+03</pdfrwt>
<pdfrwt beam="2">  1       -4 0.15168777E-01 0.12500065E+03</pdfrwt>
<totfact> 0.10170549E+04</totfact>
</mgrwt>
</event>
<event>
 5    1  0.3257199E-002  0.1250000E+03  0.7818608E-02  0.1235069E+00
          4   -1    0    0  501    0  0.00000000000E+00  0.00000000000E+00  0.28321719419E+03  0.28322004164E+03  0.12700000000E+01 0.  1.
         -4   -1    0    0    0  501 -0.00000000000E+00 -0.00000000000E+00 -0.13760263905E+02  0.13818746786E+02  0.12700000000E+01 0.  1.
         25    2    1    2    0    0  0.00000000000E+00  0.00000000000E+00  0.26945693028E+03  0.29703878842E+03  0.12500001820E+03 0.  0.
    9000005    1    3    3    0    0 -0.30902081424E+02 -0.12359431149E+01  0.56883806028E+01  0.31461466362E+02  0.10000000000E+01 0.  0.
    9000005    1    3    3    0    0  0.30902081424E+02  0.12359431149E+01  0.26376854968E+03  0.26557732206E+03  0.10000000000E+01 0.  0.
<mgrwt>
<rscale>  0 0.12500002E+03</rscale>
<asrwt>0</asrwt>
<pdfrwt beam="1">  1        4 0.43576594E-01 0.12500002E+03</pdfrwt>
<pdfrwt beam="2">  1       -4 0.21216814E-02 0.12500002E+03</pdfrwt>
<totfact> 0.75971763E+03</totfact>
</mgrwt>
</event>
<event>
 5    1  0.3257199E-002  0.1249990E+03  0.7818608E-02  0.1235071E+00
          4   -1    0    0  501    0  0.00000000000E+00  0.00000000000E+00  0.32026327510E+02  0.32051498464E+02  0.12700000000E+01 0. -1.
         -4   -1    0    0    0  501 -0.00000000000E+00 -0.00000000000E+00 -0.12189156879E+03  0.12189818473E+03  0.12700000000E+01 0. -1.
         25    2    1    2    0    0  0.00000000000E+00  0.00000000000E+00 -0.89865241277E+02  0.15394968320E+03  0.12499897346E+03 0.  0.
    9000005    1    3    3    0    0  0.47161979399E+02 -0.38203359655E+02 -0.63259870571E+02  0.87673030143E+02  0.10000000000E+01 0.  0.
    9000005    1    3    3    0    0 -0.47161979399E+02  0.38203359655E+02 -0.26605370706E+02  0.66276653055E+02  0.10000000000E+01 0.  0.
<mgrwt>
<rscale>  0 0.12499897E+03</rscale>
<asrwt>0</asrwt>
<pdfrwt beam="1">  1        4 0.49295725E-02 0.12499897E+03</pdfrwt>
<pdfrwt beam="2">  1       -4 0.18754994E-01 0.12499897E+03</pdfrwt>
<totfact> 0.98524359E+03</totfact>
</mgrwt>
</event>
<event>
 5    1  0.3257199E-002  0.1249974E+03  0.7818608E-02  0.1235073E+00
         -4   -1    0    0    0  501 -0.00000000000E+00  0.00000000000E+00  0.20557291435E+03  0.20557683725E+03  0.12700000000E+01 0.  1.
          4   -1    0    0  501    0  0.00000000000E+00 -0.00000000000E+00 -0.18975649126E+02  0.19018100845E+02  0.12700000000E+01 0.  1.
         25    2    1    2    0    0  0.00000000000E+00  0.00000000000E+00  0.18659726523E+03  0.22459493810E+03  0.12499738729E+03 0.  0.
    9000005    1    3    3    0    0  0.11786409143E+02 -0.44005943038E+02  0.16441822503E+02  0.48443534041E+02  0.10000000000E+01 0.  0.
    9000005    1    3    3    0    0 -0.11786409143E+02  0.44005943038E+02  0.17015544272E+03  0.17615140406E+03  0.10000000000E+01 0.  0.
<mgrwt>
<rscale>  0 0.12499739E+03</rscale>
<asrwt>0</asrwt>
<pdfrwt beam="2">  1        4 0.29228980E-02 0.12499739E+03</pdfrwt>
<pdfrwt beam="1">  1       -4 0.31630168E-01 0.12499739E+03</pdfrwt>
<totfact> 0.86151469E+03</totfact>
</mgrwt>
</event>
<event>
 5    1  0.3257199E-002  0.1249794E+03  0.7818608E-02  0.1235102E+00
          4   -1    0    0  501    0  0.00000000000E+00  0.00000000000E+00  0.82251671797E+01  0.83226363091E+01  0.12700000000E+01 0.  1.
         -4   -1    0    0    0  501 -0.00000000000E+00 -0.00000000000E+00 -0.47186283569E+03  0.47186454477E+03  0.12700000000E+01 0.  1.
         25    2    1    2    0    0  0.00000000000E+00  0.00000000000E+00 -0.46363766851E+03  0.48018718108E+03  0.12497936312E+03 0.  0.
    9000005    1    3    3    0    0 -0.29219909935E+02  0.53254503265E+02 -0.17559818601E+03  0.18581057070E+03  0.10000000000E+01 0.  0.
    9000005    1    3    3    0    0  0.29219909935E+02 -0.53254503265E+02 -0.28803948250E+03  0.29437661037E+03  0.10000000000E+01 0.  0.
<mgrwt>
<rscale>  0 0.12497936E+03</rscale>
<asrwt>0</asrwt>
<pdfrwt beam="1">  1        4 0.12730398E-02 0.12497936E+03</pdfrwt>
<pdfrwt beam="2">  1       -4 0.72601890E-01 0.12497936E+03</pdfrwt>
<totfact> 0.57461144E+03</totfact>
</mgrwt>
</event>
<event>
 5    1  0.3257199E-002  0.1249991E+03  0.7818608E-02  0.1235071E+00
          4   -1    0    0  501    0  0.00000000000E+00  0.00000000000E+00  0.14469741835E+01  0.19252621348E+01  0.12700000000E+01 0.  1.
         -4   -1    0    0    0  501 -0.00000000000E+00 -0.00000000000E+00 -0.23161983881E+04  0.23161987362E+04  0.12700000000E+01 0.  1.
         25    2    1    2    0    0  0.00000000000E+00  0.00000000000E+00 -0.23147514139E+04  0.23181239984E+04  0.12499905516E+03 0.  0.
    9000005    1    3    3    0    0  0.50928018920E+02  0.33210772359E+02 -0.88954622008E+03  0.89162217120E+03  0.10000000000E+01 0.  0.
    9000005    1    3    3    0    0 -0.50928018920E+02 -0.33210772359E+02 -0.14252051938E+04  0.14265018272E+04  0.10000000000E+01 0.  0.
<mgrwt>
<rscale>  0 0.12499906E+03</rscale>
<asrwt>0</asrwt>
<pdfrwt beam="1">  1        4 0.25943143E-03 0.12499906E+03</pdfrwt>
<pdfrwt beam="2">  1       -4 0.35637249E+00 0.12499906E+03</pdfrwt>
<totfact> 0.62599984E+02</totfact>
</mgrwt>
</event>
<event>
 5    1  0.3257199E-002  0.1250344E+03  0.7818608E-02  0.1235015E+00
          4   -1    0    0  501    0  0.00000000000E+00  0.00000000000E+00  0.12930545395E+03  0.12931169059E+03  0.12700000000E+01 0. -1.
         -4   -1    0    0    0  501 -0.00000000000E+00 -0.00000000000E+00 -0.30205815460E+02  0.30232502172E+02  0.12700000000E+01 0. -1.
         25    2    1    2    0    0  0.00000000000E+00  0.00000000000E+00  0.99099638493E+02  0.15954419276E+03  0.12503443963E+03 0.  0.
    9000005    1    3    3    0    0 -0.19192070901E+02  0.54959910616E+02  0.20495183711E+02  0.61725034757E+02  0.10000000000E+01 0.  0.
    9000005    1    3    3    0    0  0.19192070901E+02 -0.54959910616E+02  0.78604454782E+02  0.97819158000E+02  0.10000000000E+01 0.  0.
<mgrwt>
<rscale>  0 0.12503444E+03</rscale>
<asrwt>0</asrwt>
<pdfrwt beam="1">  1        4 0.19895680E-01 0.12503444E+03</pdfrwt>
<pdfrwt beam="2">  1       -4 0.46495810E-02 0.12503444E+03</pdfrwt>
<totfact> 0.97355345E+03</totfact>
</mgrwt>
</event>
<event>
 5    1  0.3257199E-002  0.1249997E+03  0.7818608E-02  0.1235070E+00
          4   -1    0    0  501    0  0.00000000000E+00  0.00000000000E+00  0.20394472786E+03  0.20394868207E+03  0.12700000000E+01 0.  1.
         -4   -1    0    0    0  501 -0.00000000000E+00 -0.00000000000E+00 -0.19128195708E+02  0.19170309623E+02  0.12700000000E+01 0.  1.
         25    2    1    2    0    0  0.00000000000E+00  0.00000000000E+00  0.18481653215E+03  0.22311899170E+03  0.12499973560E+03 0.  0.
    9000005    1    3    3    0    0  0.59211919642E+02  0.10404455716E+02  0.61962899209E+02  0.86340633568E+02  0.10000000000E+01 0.  0.
    9000005    1    3    3    0    0 -0.59211919642E+02 -0.10404455716E+02  0.12285363294E+03  0.13677835813E+03  0.10000000000E+01 0.  0.
<mgrwt>
<rscale>  0 0.12499974E+03</rscale>
<asrwt>0</asrwt>
<pdfrwt beam="1">  1        4 0.31379653E-01 0.12499974E+03</pdfrwt>
<pdfrwt beam="2">  1       -4 0.29463433E-02 0.12499974E+03</pdfrwt>
<totfact> 0.86377716E+03</totfact>
</mgrwt>
</event>
<event>
 4    1  0.3257199E-002  0.1248746E+03  0.7818608E-02  0.1235265E+00
          4   -1    0    0  501    0  0.00000000000E+00  0.00000000000E+00  0.50660313587E+03  0.50660472775E+03  0.12700000000E+01 0. -1.
         -4   -1    0    0    0  501 -0.00000000000E+00 -0.00000000000E+00 -0.76411917763E+01  0.77460126364E+01  0.12700000000E+01 0. -1.
    9000005    1    1    2    0    0  0.37191463559E+01 -0.11442156660E+02  0.50180287387E+03  0.50194808419E+03  0.10000000000E+01 0.  0.
    9000005    1    1    2    0    0 -0.37191463559E+01  0.11442156660E+02 -0.28409297742E+01  0.12402656192E+02  0.10000000000E+01 0.  0.
<mgrwt>
<rscale>  0 0.12487459E+03</rscale>
<asrwt>0</asrwt>
<pdfrwt beam="1">  1        4 0.77947118E-01 0.12487459E+03</pdfrwt>
<pdfrwt beam="2">  1       -4 0.11837537E-02 0.12487459E+03</pdfrwt>
<totfact> 0.54919107E+03</totfact>
</mgrwt>
</event>
<event>
 5    1  0.3257199E-002  0.1249971E+03  0.7818608E-02  0.1235074E+00
         -4   -1    0    0    0  501 -0.00000000000E+00  0.00000000000E+00  0.12312709882E+02  0.12378033957E+02  0.12700000000E+01 0. -1.
          4   -1    0    0  501    0  0.00000000000E+00 -0.00000000000E+00 -0.31633298063E+03  0.31633552999E+03  0.12700000000E+01 0. -1.
         25    2    1    2    0    0  0.00000000000E+00  0.00000000000E+00 -0.30402027075E+03  0.32871356395E+03  0.12499712836E+03 0.  0.
    9000005    1    3    3    0    0 -0.95641034280E+01 -0.66136861055E+01 -0.31347575462E+03  0.31369294167E+03  0.10000000000E+01 0.  0.
    9000005    1    3    3    0    0  0.95641034280E+01  0.66136861055E+01  0.94554838741E+01  0.15020622277E+02  0.10000000000E+01 0.  0.
<mgrwt>
<rscale>  0 0.12499713E+03</rscale>
<asrwt>0</asrwt>
<pdfrwt beam="2">  1        4 0.48671827E-01 0.12499713E+03</pdfrwt>
<pdfrwt beam="1">  1       -4 0.18994843E-02 0.12499713E+03</pdfrwt>
<totfact> 0.72136201E+03</totfact>
</mgrwt>
</event>
<event>
 5    1  0.3257199E-002  0.1249953E+03  0.7818608E-02  0.1235077E+00
         -4   -1    0    0    0  501 -0.00000000000E+00  0.00000000000E+00  0.42765699864E+03  0.42765888438E+03  0.12700000000E+01 0.  1.
          4   -1    0    0  501    0  0.00000000000E+00 -0.00000000000E+00 -0.90873228147E+01  0.91756381761E+01  0.12700000000E+01 0.  1.
         25    2    1    2    0    0  0.00000000000E+00  0.00000000000E+00  0.41856967583E+03  0.43683452256E+03  0.12499530620E+03 0.  0.
    9000005    1    3    3    0    0  0.24004124250E+02  0.56674574870E+02  0.24704674958E+03  0.25460027867E+03  0.10000000000E+01 0.  0.
    9000005    1    3    3    0    0 -0.24004124250E+02 -0.56674574870E+02  0.17152292625E+03  0.18223424389E+03  0.10000000000E+01 0.  0.
<mgrwt>
<rscale>  0 0.12499531E+03</rscale>
<asrwt>0</asrwt>
<pdfrwt beam="2">  1        4 0.14049881E-02 0.12499531E+03</pdfrwt>
<pdfrwt beam="1">  1       -4 0.65800327E-01 0.12499531E+03</pdfrwt>
<totfact> 0.61127652E+03</totfact>
</mgrwt>
</event>
<event>
 5    1  0.3257199E-002  0.1249971E+03  0.7818608E-02  0.1235074E+00
         -4   -1    0    0    0  501 -0.00000000000E+00  0.00000000000E+00  0.91553367229E+02  0.91562175329E+02  0.12700000000E+01 0. -1.
          4   -1    0    0  501    0  0.00000000000E+00 -0.00000000000E+00 -0.42644101768E+02  0.42663008750E+02  0.12700000000E+01 0. -1.
         25    2    1    2    0    0  0.00000000000E+00  0.00000000000E+00  0.48909265460E+02  0.13422518408E+03  0.12499713514E+03 0.  0.
    9000005    1    3    3    0    0 -0.11806373992E+02 -0.21804966867E+02 -0.37140539702E+02  0.44668408705E+02  0.10000000000E+01 0.  0.
    9000005    1    3    3    0    0  0.11806373992E+02  0.21804966867E+02  0.86049805163E+02  0.89556775374E+02  0.10000000000E+01 0.  0.
<mgrwt>
<rscale>  0 0.12499714E+03</rscale>
<asrwt>0</asrwt>
<pdfrwt beam="2">  1        4 0.65627630E-02 0.12499714E+03</pdfrwt>
<pdfrwt beam="1">  1       -4 0.14087265E-01 0.12499714E+03</pdfrwt>
<totfact> 0.10255091E+04</totfact>
</mgrwt>
</event>
<event>
 5    1  0.3257199E-002  0.1249952E+03  0.7818608E-02  0.1235077E+00
          4   -1    0    0  501    0  0.00000000000E+00  0.00000000000E+00  0.40184562822E+03  0.40184763508E+03  0.12700000000E+01 0.  1.
         -4   -1    0    0    0  501 -0.00000000000E+00 -0.00000000000E+00 -0.96765021390E+01  0.97594873660E+01  0.12700000000E+01 0.  1.
         25    2    1    2    0    0  0.00000000000E+00  0.00000000000E+00  0.39216912609E+03  0.41160712245E+03  0.12499519910E+03 0.  0.
    9000005    1    3    3    0    0 -0.16967079771E+01  0.53848660550E+02  0.30034235837E+03  0.30513782016E+03  0.10000000000E+01 0.  0.
    9000005    1    3    3    0    0  0.16967079771E+01 -0.53848660550E+02  0.91826767713E+02  0.10646930229E+03  0.10000000000E+01 0.  0.
<mgrwt>
<rscale>  0 0.12499520E+03</rscale>
<asrwt>0</asrwt>
<pdfrwt beam="1">  1        4 0.61828941E-01 0.12499520E+03</pdfrwt>
<pdfrwt beam="2">  1       -4 0.14952305E-02 0.12499520E+03</pdfrwt>
<totfact> 0.63446056E+03</totfact>
</mgrwt>
</event>
<event>
 5    1  0.3257199E-002  0.1249938E+03  0.7818608E-02  0.1235079E+00
         -4   -1    0    0    0  501 -0.00000000000E+00  0.00000000000E+00  0.71866494835E+02  0.71877715460E+02  0.12700000000E+01 0. -1.
          4   -1    0    0  501    0  0.00000000000E+00 -0.00000000000E+00 -0.54325959371E+02  0.54340801996E+02  0.12700000000E+01 0. -1.
         25    2    1    2    0    0  0.00000000000E+00  0.00000000000E+00  0.17540535463E+02  0.12621851746E+03  0.12499377490E+03 0.  0.
    9000005    1    3    3    0    0 -0.57346403419E+02 -0.24230907564E+02  0.14218883543E+02  0.63866450627E+02  0.10000000000E+01 0.  0.
    9000005    1    3    3    0    0  0.57346403419E+02  0.24230907564E+02  0.33216519203E+01  0.62352066830E+02  0.10000000000E+01 0.  0.
<mgrwt>
<rscale>  0 0.12499377E+03</rscale>
<asrwt>0</asrwt>
<pdfrwt beam="2">  1        4 0.83598447E-02 0.12499377E+03</pdfrwt>
<pdfrwt beam="1">  1       -4 0.11058389E-01 0.12499377E+03</pdfrwt>
<totfact> 0.10427639E+04</totfact>
</mgrwt>
</event>
<event>
 5    1  0.3257199E-002  0.1249672E+03  0.7818608E-02  0.1235121E+00
          4   -1    0    0  501    0  0.00000000000E+00  0.00000000000E+00  0.79643012268E+02  0.79653137434E+02  0.12700000000E+01 0. -1.
         -4   -1    0    0    0  501 -0.00000000000E+00 -0.00000000000E+00 -0.48999751146E+02  0.49016206629E+02  0.12700000000E+01 0. -1.
         25    2    1    2    0    0  0.00000000000E+00  0.00000000000E+00  0.30643261122E+02  0.12866934406E+03  0.12496715828E+03 0.  0.
    9000005    1    3    3    0    0 -0.15006726306E+02  0.60502978565E+02  0.11028523726E+02  0.63312246724E+02  0.10000000000E+01 0.  0.
    9000005    1    3    3    0    0  0.15006726306E+02 -0.60502978565E+02  0.19614737396E+02  0.65357097340E+02  0.10000000000E+01 0.  0.
<mgrwt>
<rscale>  0 0.12496716E+03</rscale>
<asrwt>0</asrwt>
<pdfrwt beam="1">  1        4 0.12254816E-01 0.12496716E+03</pdfrwt>
<pdfrwt beam="2">  1       -4 0.75404680E-02 0.12496716E+03</pdfrwt>
<totfact> 0.10380752E+04</totfact>
</mgrwt>
</event>
<event>
 5    1  0.3257199E-002  0.1250153E+03  0.7818608E-02  0.1235045E+00
         -4   -1    0    0    0  501 -0.00000000000E+00  0.00000000000E+00  0.25072289939E+03  0.25072611587E+03  0.12700000000E+01 0.  1.
          4   -1    0    0  501    0  0.00000000000E+00 -0.00000000000E+00 -0.15554563654E+02  0.15606324054E+02  0.12700000000E+01 0.  1.
         25    2    1    2    0    0  0.00000000000E+00  0.00000000000E+00  0.23516833574E+03  0.26633243992E+03  0.12501528875E+03 0.  0.
    9000005    1    3    3    0    0 -0.29329246928E+02 -0.54755553468E+02  0.13231788203E+03  0.14617591206E+03  0.10000000000E+01 0.  0.
    9000005    1    3    3    0    0  0.29329246928E+02  0.54755553468E+02  0.10285045371E+03  0.12015652787E+03  0.10000000000E+01 0.  0.
<mgrwt>
<rscale>  0 0.12501529E+03</rscale>
<asrwt>0</asrwt>
<pdfrwt beam="2">  1        4 0.23972386E-02 0.12501529E+03</pdfrwt>
<pdfrwt beam="1">  1       -4 0.38576986E-01 0.12501529E+03</pdfrwt>
<totfact> 0.79998305E+03</totfact>
</mgrwt>
</event>
<event>
 5    1  0.3257199E-002  0.1249973E+03  0.7818608E-02  0.1235073E+00
          4   -1    0    0  501    0  0.00000000000E+00  0.00000000000E+00  0.26514230550E+01  0.29398884701E+01  0.12700000000E+01 0. -1.
         -4   -1    0    0    0  501 -0.00000000000E+00 -0.00000000000E+00 -0.13969083995E+04  0.13969089768E+04  0.12700000000E+01 0. -1.
         25    2    1    2    0    0  0.00000000000E+00  0.00000000000E+00 -0.13942569764E+04  0.13998488652E+04  0.12499731702E+03 0.  0.
    9000005    1    3    3    0    0 -0.11661205459E+02  0.18602405862E+02 -0.41908673522E+02  0.47321983612E+02  0.10000000000E+01 0.  0.
    9000005    1    3    3    0    0  0.11661205459E+02 -0.18602405862E+02 -0.13523483029E+04  0.13525268816E+04  0.10000000000E+01 0.  0.
<mgrwt>
<rscale>  0 0.12499732E+03</rscale>
<asrwt>0</asrwt>
<pdfrwt beam="1">  1        4 0.43014641E-03 0.12499732E+03</pdfrwt>
<pdfrwt beam="2">  1       -4 0.21493066E+00 0.12499732E+03</pdfrwt>
<totfact> 0.19985417E+03</totfact>
</mgrwt>
</event>
<event>
 5    1  0.3257199E-002  0.1249957E+03  0.7818608E-02  0.1235076E+00
         -4   -1    0    0    0  501 -0.00000000000E+00  0.00000000000E+00  0.40032420641E+02  0.40052560497E+02  0.12700000000E+01 0. -1.
          4   -1    0    0  501    0  0.00000000000E+00 -0.00000000000E+00 -0.97521624573E+02  0.97529893670E+02  0.12700000000E+01 0. -1.
         25    2    1    2    0    0  0.00000000000E+00  0.00000000000E+00 -0.57489203932E+02  0.13758245417E+03  0.12499569243E+03 0.  0.
    9000005    1    3    3    0    0  0.25629549418E+02 -0.33972856861E+02  0.21623010371E+02  0.47744982817E+02  0.10000000000E+01 0.  0.
    9000005    1    3    3    0    0 -0.25629549418E+02  0.33972856861E+02 -0.79112214303E+02  0.89837471350E+02  0.10000000000E+01 0.  0.
<mgrwt>
<rscale>  0 0.12499569E+03</rscale>
<asrwt>0</asrwt>
<pdfrwt beam="2">  1        4 0.15005512E-01 0.12499569E+03</pdfrwt>
<pdfrwt beam="1">  1       -4 0.61610193E-02 0.12499569E+03</pdfrwt>
<totfact> 0.10184910E+04</totfact>
</mgrwt>
</event>
<event>
 5    1  0.3257199E-002  0.1249968E+03  0.7818608E-02  0.1235074E+00
         -4   -1    0    0    0  501 -0.00000000000E+00  0.00000000000E+00  0.71908835417E+02  0.71920049437E+02  0.12700000000E+01 0.  1.
          4   -1    0    0  501    0  0.00000000000E+00 -0.00000000000E+00 -0.54296623729E+02  0.54311474371E+02  0.12700000000E+01 0.  1.
         25    2    1    2    0    0  0.00000000000E+00  0.00000000000E+00  0.17612211688E+02  0.12623152381E+03  0.12499683037E+03 0.  0.
    9000005    1    3    3    0    0 -0.11759108271E+02  0.55818378583E+02  0.34574496610E+02  0.66711047292E+02  0.10000000000E+01 0.  0.
    9000005    1    3    3    0    0  0.11759108271E+02 -0.55818378583E+02 -0.16962284922E+02  0.59520476516E+02  0.10000000000E+01 0.  0.
<mgrwt>
<rscale>  0 0.12499683E+03</rscale>
<asrwt>0</asrwt>
<pdfrwt beam="2">  1        4 0.83553317E-02 0.12499683E+03</pdfrwt>
<pdfrwt beam="1">  1       -4 0.11064903E-01 0.12499683E+03</pdfrwt>
<totfact> 0.10426635E+04</totfact>
</mgrwt>
</event>
<event>
 5    1  0.3257199E-002  0.1249991E+03  0.7818608E-02  0.1235071E+00
         -4   -1    0    0    0  501 -0.00000000000E+00  0.00000000000E+00  0.19496272346E+03  0.19496685984E+03  0.12700000000E+01 0.  1.
          4   -1    0    0  501    0  0.00000000000E+00 -0.00000000000E+00 -0.20011098002E+02  0.20051357641E+02  0.12700000000E+01 0.  1.
         25    2    1    2    0    0  0.00000000000E+00  0.00000000000E+00  0.17495162545E+03  0.21501821748E+03  0.12499905040E+03 0.  0.
    9000005    1    3    3    0    0 -0.54974350965E+02  0.29489654409E+02  0.81185657647E+02  0.10239106401E+03  0.10000000000E+01 0.  0.
    9000005    1    3    3    0    0  0.54974350965E+02 -0.29489654409E+02  0.93765967806E+02  0.11262715347E+03  0.10000000000E+01 0.  0.
<mgrwt>
<rscale>  0 0.12499905E+03</rscale>
<asrwt>0</asrwt>
<pdfrwt beam="2">  1        4 0.30820455E-02 0.12499905E+03</pdfrwt>
<pdfrwt beam="1">  1       -4 0.29997681E-01 0.12499905E+03</pdfrwt>
<totfact> 0.87664701E+03</totfact>
</mgrwt>
</event>
<event>
 5    1  0.3257199E-002  0.1249960E+03  0.7818608E-02  0.1235076E+00
          4   -1    0    0  501    0  0.00000000000E+00  0.00000000000E+00  0.54081482473E+02  0.54096392176E+02  0.12700000000E+01 0. -1.
         -4   -1    0    0    0  501 -0.00000000000E+00 -0.00000000000E+00 -0.72193845680E+02  0.72205015435E+02  0.12700000000E+01 0. -1.
         25    2    1    2    0    0  0.00000000000E+00  0.00000000000E+00 -0.18112363207E+02  0.12630140761E+03  0.12499595139E+03 0.  0.
    9000005    1    3    3    0    0  0.88192426795E+01 -0.41816289203E+01  0.53311478660E+02  0.54206815242E+02  0.10000000000E+01 0.  0.
    9000005    1    3    3    0    0 -0.88192426795E+01  0.41816289203E+01 -0.71423841866E+02  0.72094592369E+02  0.10000000000E+01 0.  0.
<mgrwt>
<rscale>  0 0.12499595E+03</rscale>
<asrwt>0</asrwt>
<pdfrwt beam="1">  1        4 0.83222342E-02 0.12499595E+03</pdfrwt>
<pdfrwt beam="2">  1       -4 0.11108752E-01 0.12499595E+03</pdfrwt>
<totfact> 0.10425315E+04</totfact>
</mgrwt>
</event>
<event>
 5    1  0.3257199E-002  0.1250002E+03  0.7818608E-02  0.1235069E+00
          4   -1    0    0  501    0  0.00000000000E+00  0.00000000000E+00  0.19287484330E+01  0.23093225236E+01  0.12700000000E+01 0.  1.
         -4   -1    0    0    0  501 -0.00000000000E+00 -0.00000000000E+00 -0.18430348320E+04  0.18430352695E+04  0.12700000000E+01 0.  1.
         25    2    1    2    0    0  0.00000000000E+00  0.00000000000E+00 -0.18411060835E+04  0.18453445920E+04  0.12500021043E+03 0.  0.
    9000005    1    3    3    0    0 -0.28885120429E+02  0.29630690261E+02 -0.16118738486E+04  0.16124052319E+04  0.10000000000E+01 0.  0.
    9000005    1    3    3    0    0  0.28885120429E+02 -0.29630690261E+02 -0.22923223492E+03  0.23293936016E+03  0.10000000000E+01 0.  0.
<mgrwt>
<rscale>  0 0.12500021E+03</rscale>
<asrwt>0</asrwt>
<pdfrwt beam="1">  1        4 0.32604059E-03 0.12500021E+03</pdfrwt>
<pdfrwt beam="2">  1       -4 0.28357185E+00 0.12500021E+03</pdfrwt>
<totfact> 0.12017816E+03</totfact>
</mgrwt>
</event>
<event>
 5    1  0.3257199E-002  0.1250022E+03  0.7818608E-02  0.1235066E+00
         -4   -1    0    0    0  501 -0.00000000000E+00  0.00000000000E+00  0.41862682901E+03  0.41862875542E+03  0.12700000000E+01 0. -1.
          4   -1    0    0  501    0  0.00000000000E+00 -0.00000000000E+00 -0.92862636072E+01  0.93727046141E+01  0.12700000000E+01 0. -1.
         25    2    1    2    0    0  0.00000000000E+00  0.00000000000E+00  0.40934056540E+03  0.42800146003E+03  0.12500220522E+03 0.  0.
    9000005    1    3    3    0    0 -0.35782029093E+02 -0.24898890164E+02  0.51352202275E+02  0.67367328995E+02  0.10000000000E+01 0.  0.
    9000005    1    3    3    0    0  0.35782029093E+02  0.24898890164E+02  0.35798836312E+03  0.36063413104E+03  0.10000000000E+01 0.  0.
<mgrwt>
<rscale>  0 0.12500221E+03</rscale>
<asrwt>0</asrwt>
<pdfrwt beam="2">  1        4 0.14354531E-02 0.12500221E+03</pdfrwt>
<pdfrwt beam="1">  1       -4 0.64410938E-01 0.12500221E+03</pdfrwt>
<totfact> 0.61914545E+03</totfact>
</mgrwt>
</event>
<event>
 5    1  0.3257199E-002  0.1249875E+03  0.7818608E-02  0.1235089E+00
          4   -1    0    0  501    0  0.00000000000E+00  0.00000000000E+00  0.78333917114E+02  0.78344211468E+02  0.12700000000E+01 0. -1.
         -4   -1    0    0    0  501 -0.00000000000E+00 -0.00000000000E+00 -0.49835020850E+02  0.49851200618E+02  0.12700000000E+01 0. -1.
         25    2    1    2    0    0  0.00000000000E+00  0.00000000000E+00  0.28498896265E+02  0.12819541209E+03  0.12498750574E+03 0.  0.
    9000005    1    3    3    0    0  0.51615885378E+02 -0.11810999629E+02  0.48278835994E+02  0.71662719321E+02  0.10000000000E+01 0.  0.
    9000005    1    3    3    0    0 -0.51615885378E+02  0.11810999629E+02 -0.19779939729E+02  0.56532692765E+02  0.10000000000E+01 0.  0.
<mgrwt>
<rscale>  0 0.12498751E+03</rscale>
<asrwt>0</asrwt>
<pdfrwt beam="1">  1        4 0.12053408E-01 0.12498751E+03</pdfrwt>
<pdfrwt beam="2">  1       -4 0.76689628E-02 0.12498751E+03</pdfrwt>
<totfact> 0.10386199E+04</totfact>
</mgrwt>
</event>
<event>
 5    1  0.3257199E-002  0.1249981E+03  0.7818608E-02  0.1235072E+00
         -4   -1    0    0    0  501 -0.00000000000E+00  0.00000000000E+00  0.28514342935E+03  0.28514625756E+03  0.12700000000E+01 0.  1.
          4   -1    0    0  501    0  0.00000000000E+00 -0.00000000000E+00 -0.13666492419E+02  0.13725374860E+02  0.12700000000E+01 0.  1.
         25    2    1    2    0    0  0.00000000000E+00  0.00000000000E+00  0.27147693693E+03  0.29887163242E+03  0.12499810151E+03 0.  0.
    9000005    1    3    3    0    0 -0.14012457259E+02  0.17833781890E+01 -0.98110127517E+01  0.17227459691E+02  0.10000000000E+01 0.  0.
    9000005    1    3    3    0    0  0.14012457259E+02 -0.17833781890E+01  0.28128794969E+03  0.28164417273E+03  0.10000000000E+01 0.  0.
<mgrwt>
<rscale>  0 0.12499810E+03</rscale>
<asrwt>0</asrwt>
<pdfrwt beam="2">  1        4 0.21072842E-02 0.12499810E+03</pdfrwt>
<pdfrwt beam="1">  1       -4 0.43872968E-01 0.12499810E+03</pdfrwt>
<totfact> 0.75743787E+03</totfact>
</mgrwt>
</event>
<event>
 5    1  0.3257199E-002  0.1250006E+03  0.7818608E-02  0.1235068E+00
         -4   -1    0    0    0  501 -0.00000000000E+00  0.00000000000E+00  0.45175077605E+01  0.46926300052E+01  0.12700000000E+01 0.  1.
          4   -1    0    0  501    0  0.00000000000E+00 -0.00000000000E+00 -0.84808277764E+03  0.84808372855E+03  0.12700000000E+01 0.  1.
         25    2    1    2    0    0  0.00000000000E+00  0.00000000000E+00 -0.84356526988E+03  0.85277635856E+03  0.12500061265E+03 0.  0.
    9000005    1    3    3    0    0 -0.47565706334E+02 -0.38532823284E+02 -0.50753971219E+03  0.51121896907E+03  0.10000000000E+01 0.  0.
    9000005    1    3    3    0    0  0.47565706334E+02  0.38532823284E+02 -0.33602555769E+03  0.34155738948E+03  0.10000000000E+01 0.  0.
<mgrwt>
<rscale>  0 0.12500061E+03</rscale>
<asrwt>0</asrwt>
<pdfrwt beam="2">  1        4 0.13048769E+00 0.12500061E+03</pdfrwt>
<pdfrwt beam="1">  1       -4 0.70854596E-03 0.12500061E+03</pdfrwt>
<totfact> 0.36013530E+03</totfact>
</mgrwt>
</event>
<event>
 5    1  0.3257199E-002  0.1250023E+03  0.7818608E-02  0.1235066E+00
          4   -1    0    0  501    0  0.00000000000E+00  0.00000000000E+00  0.28096701819E+01  0.30833661040E+01  0.12700000000E+01 0. -1.
         -4   -1    0    0    0  501 -0.00000000000E+00 -0.00000000000E+00 -0.13254916060E+04  0.13254922145E+04  0.12700000000E+01 0. -1.
         25    2    1    2    0    0  0.00000000000E+00  0.00000000000E+00 -0.13226819359E+04  0.13285755806E+04  0.12500227924E+03 0.  0.
    9000005    1    3    3    0    0  0.49834402590E+02  0.16086572270E+02 -0.10238222872E+04  0.10251611196E+04  0.10000000000E+01 0.  0.
    9000005    1    3    3    0    0 -0.49834402590E+02 -0.16086572270E+02 -0.29885964868E+03  0.30341446093E+03  0.10000000000E+01 0.  0.
<mgrwt>
<rscale>  0 0.12500228E+03</rscale>
<asrwt>0</asrwt>
<pdfrwt beam="1">  1        4 0.45335834E-03 0.12500228E+03</pdfrwt>
<pdfrwt beam="2">  1       -4 0.20394241E+00 0.12500228E+03</pdfrwt>
<totfact> 0.21562971E+03</totfact>
</mgrwt>
</event>
<event>
 5    1  0.3257199E-002  0.1250002E+03  0.7818608E-02  0.1235069E+00
          4   -1    0    0  501    0  0.00000000000E+00  0.00000000000E+00  0.14821565351E+02  0.14875876426E+02  0.12700000000E+01 0.  1.
         -4   -1    0    0    0  501 -0.00000000000E+00 -0.00000000000E+00 -0.26301478727E+03  0.26301785343E+03  0.12700000000E+01 0.  1.
         25    2    1    2    0    0  0.00000000000E+00  0.00000000000E+00 -0.24819322192E+03  0.27789372986E+03  0.12500019875E+03 0.  0.
    9000005    1    3    3    0    0  0.10087820775E+02 -0.52867971833E+02 -0.19469597602E+03  0.20200076646E+03  0.10000000000E+01 0.  0.
    9000005    1    3    3    0    0 -0.10087820775E+02  0.52867971833E+02 -0.53497245903E+02  0.75892963395E+02  0.10000000000E+01 0.  0.
<mgrwt>
<rscale>  0 0.12500020E+03</rscale>
<asrwt>0</asrwt>
<pdfrwt beam="1">  1        4 0.22846547E-02 0.12500020E+03</pdfrwt>
<pdfrwt beam="2">  1       -4 0.40468224E-01 0.12500020E+03</pdfrwt>
<totfact> 0.78457867E+03</totfact>
</mgrwt>
</event>
<event>
 5    1  0.3257199E-002  0.1249999E+03  0.7818608E-02  0.1235069E+00
          4   -1    0    0  501    0  0.00000000000E+00  0.00000000000E+00  0.74841172660E+01  0.75911073798E+01  0.12700000000E+01 0.  1.
         -4   -1    0    0    0  501 -0.00000000000E+00 -0.00000000000E+00 -0.51812595151E+03  0.51812750798E+03  0.12700000000E+01 0.  1.
         25    2    1    2    0    0  0.00000000000E+00  0.00000000000E+00 -0.51064183425E+03  0.52571861536E+03  0.12499991863E+03 0.  0.
    9000005    1    3    3    0    0  0.28739912456E+02  0.30491864161E+02 -0.60330523842E+02  0.73460931488E+02  0.10000000000E+01 0.  0.
    9000005    1    3    3    0    0 -0.28739912456E+02 -0.30491864161E+02 -0.45031131040E+03  0.45225768388E+03  0.10000000000E+01 0.  0.
<mgrwt>
<rscale>  0 0.12499992E+03</rscale>
<asrwt>0</asrwt>
<pdfrwt beam="1">  1        4 0.11597528E-02 0.12499992E+03</pdfrwt>
<pdfrwt beam="2">  1       -4 0.79720007E-01 0.12499992E+03</pdfrwt>
<totfact> 0.53922819E+03</totfact>
</mgrwt>
</event>
<event>
 5    1  0.3257199E-002  0.1249872E+03  0.7818608E-02  0.1235089E+00
         -4   -1    0    0    0  501 -0.00000000000E+00  0.00000000000E+00  0.98585394554E+01  0.99400050400E+01  0.12700000000E+01 0. -1.
          4   -1    0    0  501    0  0.00000000000E+00 -0.00000000000E+00 -0.39443616220E+03  0.39443820676E+03  0.12700000000E+01 0. -1.
         25    2    1    2    0    0  0.00000000000E+00  0.00000000000E+00 -0.38457762275E+03  0.40437821180E+03  0.12498716039E+03 0.  0.
    9000005    1    3    3    0    0  0.13588531152E+02 -0.52930962592E+02 -0.29032136520E+03  0.29542144484E+03  0.10000000000E+01 0.  0.
    9000005    1    3    3    0    0 -0.13588531152E+02  0.52930962592E+02 -0.94256257544E+02  0.10895676696E+03  0.10000000000E+01 0.  0.
<mgrwt>
<rscale>  0 0.12498716E+03</rscale>
<asrwt>0</asrwt>
<pdfrwt beam="2">  1        4 0.60688898E-01 0.12498716E+03</pdfrwt>
<pdfrwt beam="1">  1       -4 0.15231225E-02 0.12498716E+03</pdfrwt>
<totfact> 0.64147369E+03</totfact>
</mgrwt>
</event>
<event>
 5    1  0.3257199E-002  0.1249951E+03  0.7818608E-02  0.1235077E+00
          4   -1    0    0  501    0  0.00000000000E+00  0.00000000000E+00  0.27171707883E+02  0.27201371459E+02  0.12700000000E+01 0.  1.
         -4   -1    0    0    0  501 -0.00000000000E+00 -0.00000000000E+00 -0.14363961193E+03  0.14364522622E+03  0.12700000000E+01 0.  1.
         25    2    1    2    0    0  0.00000000000E+00  0.00000000000E+00 -0.11646790405E+03  0.17084659768E+03  0.12499514897E+03 0.  0.
    9000005    1    3    3    0    0  0.32240386271E+01  0.55824156756E+02 -0.20104265948E+02  0.59429894934E+02  0.10000000000E+01 0.  0.
    9000005    1    3    3    0    0 -0.32240386271E+01 -0.55824156756E+02 -0.96363638102E+02  0.11141670275E+03  0.10000000000E+01 0.  0.
<mgrwt>
<rscale>  0 0.12499515E+03</rscale>
<asrwt>0</asrwt>
<pdfrwt beam="1">  1        4 0.41829765E-02 0.12499515E+03</pdfrwt>
<pdfrwt beam="2">  1       -4 0.22101115E-01 0.12499515E+03</pdfrwt>
<totfact> 0.95301453E+03</totfact>
</mgrwt>
</event>
<event>
 5    1  0.3257199E-002  0.1250000E+03  0.7818608E-02  0.1235069E+00
         -4   -1    0    0    0  501 -0.00000000000E+00  0.00000000000E+00  0.69820839572E+01  0.70966468409E+01  0.12700000000E+01 0. -1.
          4   -1    0    0  501    0  0.00000000000E+00 -0.00000000000E+00 -0.55479963331E+03  0.55480108689E+03  0.12700000000E+01 0. -1.
         25    2    1    2    0    0  0.00000000000E+00  0.00000000000E+00 -0.54781754935E+03  0.56189773373E+03  0.12499998320E+03 0.  0.
    9000005    1    3    3    0    0  0.11394217276E+02  0.59160234369E+02 -0.19929857175E+03  0.20820826646E+03  0.10000000000E+01 0.  0.
    9000005    1    3    3    0    0 -0.11394217276E+02 -0.59160234369E+02 -0.34851897760E+03  0.35368946728E+03  0.10000000000E+01 0.  0.
<mgrwt>
<rscale>  0 0.12499998E+03</rscale>
<asrwt>0</asrwt>
<pdfrwt beam="2">  1        4 0.85362680E-01 0.12499998E+03</pdfrwt>
<pdfrwt beam="1">  1       -4 0.10830915E-02 0.12499998E+03</pdfrwt>
<totfact> 0.51364622E+03</totfact>
</mgrwt>
</event>
<event>
 5    1  0.3257199E-002  0.1250012E+03  0.7818608E-02  0.1235067E+00
          4   -1    0    0  501    0  0.00000000000E+00  0.00000000000E+00  0.37913513747E+02  0.37934778563E+02  0.12700000000E+01 0.  1.
         -4   -1    0    0    0  501 -0.00000000000E+00 -0.00000000000E+00 -0.10297839552E+03  0.10298622647E+03  0.12700000000E+01 0.  1.
         25    2    1    2    0    0  0.00000000000E+00  0.00000000000E+00 -0.65064881771E+02  0.14092100504E+03  0.12500116328E+03 0.  0.
    9000005    1    3    3    0    0  0.49116585337E+02  0.27828116286E+02 -0.23142175613E+01  0.56508394191E+02  0.10000000000E+01 0.  0.
    9000005    1    3    3    0    0 -0.49116585337E+02 -0.27828116286E+02 -0.62750664209E+02  0.84412610846E+02  0.10000000000E+01 0.  0.
<mgrwt>
<rscale>  0 0.12500116E+03</rscale>
<asrwt>0</asrwt>
<pdfrwt beam="1">  1        4 0.58350865E-02 0.12500116E+03</pdfrwt>
<pdfrwt beam="2">  1       -4 0.15845068E-01 0.12500116E+03</pdfrwt>
<totfact> 0.10114268E+04</totfact>
</mgrwt>
</event>
<event>
 5    1  0.3257199E-002  0.1249991E+03  0.7818608E-02  0.1235071E+00
          4   -1    0    0  501    0  0.00000000000E+00  0.00000000000E+00  0.52765023284E+02  0.52780304870E+02  0.12700000000E+01 0. -1.
         -4   -1    0    0    0  501 -0.00000000000E+00 -0.00000000000E+00 -0.73998569547E+02  0.74009466928E+02  0.12700000000E+01 0. -1.
         25    2    1    2    0    0  0.00000000000E+00  0.00000000000E+00 -0.21233546263E+02  0.12678977180E+03  0.12499913098E+03 0.  0.
    9000005    1    3    3    0    0 -0.12504459832E+01 -0.22863663236E+01  0.52714859211E+02  0.52788705873E+02  0.10000000000E+01 0.  0.
    9000005    1    3    3    0    0  0.12504459832E+01  0.22863663236E+01 -0.73948405473E+02  0.74001065926E+02  0.10000000000E+01 0.  0.
<mgrwt>
<rscale>  0 0.12499913E+03</rscale>
<asrwt>0</asrwt>
<pdfrwt beam="1">  1        4 0.81197097E-02 0.12499913E+03</pdfrwt>
<pdfrwt beam="2">  1       -4 0.11386409E-01 0.12499913E+03</pdfrwt>
<totfact> 0.10413921E+04</totfact>
</mgrwt>
</event>
<event>
 5    1  0.3257199E-002  0.1249846E+03  0.7818608E-02  0.1235093E+00
          4   -1    0    0  501    0  0.00000000000E+00  0.00000000000E+00  0.47462126591E+02  0.47479114993E+02  0.12700000000E+01 0.  1.
         -4   -1    0    0    0  501 -0.00000000000E+00 -0.00000000000E+00 -0.82245627188E+02  0.82255431988E+02  0.12700000000E+01 0.  1.
         25    2    1    2    0    0  0.00000000000E+00  0.00000000000E+00 -0.34783500598E+02  0.12973454698E+03  0.12498464212E+03 0.  0.
    9000005    1    3    3    0    0 -0.71920184231E+01 -0.29223523219E+02  0.39448331035E+02  0.49627716649E+02  0.10000000000E+01 0.  0.
    9000005    1    3    3    0    0  0.71920184231E+01  0.29223523219E+02 -0.74231831633E+02  0.80106830332E+02  0.10000000000E+01 0.  0.
<mgrwt>
<rscale>  0 0.12498464E+03</rscale>
<asrwt>0</asrwt>
<pdfrwt beam="1">  1        4 0.73039267E-02 0.12498464E+03</pdfrwt>
<pdfrwt beam="2">  1       -4 0.12655234E-01 0.12498464E+03</pdfrwt>
<totfact> 0.10353778E+04</totfact>
</mgrwt>
</event>
<event>
 5    1  0.3257199E-002  0.1249990E+03  0.7818608E-02  0.1235071E+00
          4   -1    0    0  501    0  0.00000000000E+00  0.00000000000E+00  0.67874567794E+03  0.67874686608E+03  0.12700000000E+01 0.  1.
         -4   -1    0    0    0  501 -0.00000000000E+00 -0.00000000000E+00 -0.56837331490E+01  0.58238923847E+01  0.12700000000E+01 0.  1.
         25    2    1    2    0    0  0.00000000000E+00  0.00000000000E+00  0.67306194479E+03  0.68457075847E+03  0.12499896731E+03 0.  0.
    9000005    1    3    3    0    0 -0.59176152360E+02  0.19977011294E+02  0.32519098964E+03  0.33113604112E+03  0.10000000000E+01 0.  0.
    9000005    1    3    3    0    0  0.59176152360E+02 -0.19977011294E+02  0.34787095515E+03  0.35343471735E+03  0.10000000000E+01 0.  0.
<mgrwt>
<rscale>  0 0.12499897E+03</rscale>
<asrwt>0</asrwt>
<pdfrwt beam="1">  1        4 0.10443323E+00 0.12499897E+03</pdfrwt>
<pdfrwt beam="2">  1       -4 0.88529380E-03 0.12499897E+03</pdfrwt>
<totfact> 0.43914805E+03</totfact>
</mgrwt>
</event>
<event>
 5    1  0.3257199E-002  0.1250003E+03  0.7818608E-02  0.1235069E+00
         -4   -1    0    0    0  501 -0.00000000000E+00  0.00000000000E+00  0.68203268673E+01  0.69375614287E+01  0.12700000000E+01 0. -1.
          4   -1    0    0  501    0  0.00000000000E+00 -0.00000000000E+00 -0.56774056703E+03  0.56774198749E+03  0.12700000000E+01 0. -1.
         25    2    1    2    0    0  0.00000000000E+00  0.00000000000E+00 -0.56092024016E+03  0.57467954891E+03  0.12500027245E+03 0.  0.
    9000005    1    3    3    0    0  0.13807475006E+02  0.17359910156E+02 -0.54905584630E+03  0.54950462710E+03  0.10000000000E+01 0.  0.
    9000005    1    3    3    0    0 -0.13807475006E+02 -0.17359910156E+02 -0.11864393866E+02  0.25174921817E+02  0.10000000000E+01 0.  0.
<mgrwt>
<rscale>  0 0.12500027E+03</rscale>
<asrwt>0</asrwt>
<pdfrwt beam="2">  1        4 0.87353793E-01 0.12500027E+03</pdfrwt>
<pdfrwt beam="1">  1       -4 0.10584088E-02 0.12500027E+03</pdfrwt>
<totfact> 0.50505650E+03</totfact>
</mgrwt>
</event>
<event>
 5    1  0.3257199E-002  0.1249961E+03  0.7818608E-02  0.1235075E+00
         -4   -1    0    0    0  501 -0.00000000000E+00  0.00000000000E+00  0.30022846133E+03  0.30023114744E+03  0.12700000000E+01 0.  1.
          4   -1    0    0  501    0  0.00000000000E+00 -0.00000000000E+00 -0.12976367018E+02  0.13038366500E+02  0.12700000000E+01 0.  1.
         25    2    1    2    0    0  0.00000000000E+00  0.00000000000E+00  0.28725209432E+03  0.31326951394E+03  0.12499609065E+03 0.  0.
    9000005    1    3    3    0    0  0.55554682560E+02 -0.16852485093E+02  0.85674195548E+02  0.10349587814E+03  0.10000000000E+01 0.  0.
    9000005    1    3    3    0    0 -0.55554682560E+02  0.16852485093E+02  0.20157789877E+03  0.20977363581E+03  0.10000000000E+01 0.  0.
<mgrwt>
<rscale>  0 0.12499609E+03</rscale>
<asrwt>0</asrwt>
<pdfrwt beam="2">  1        4 0.20013403E-02 0.12499609E+03</pdfrwt>
<pdfrwt beam="1">  1       -4 0.46193963E-01 0.12499609E+03</pdfrwt>
<totfact> 0.73970259E+03</totfact>
</mgrwt>
</event>
<event>
 5    1  0.3257199E-002  0.1249986E+03  0.7818608E-02  0.1235071E+00
          4   -1    0    0  501    0  0.00000000000E+00  0.00000000000E+00  0.58294068259E+03  0.58294206601E+03  0.12700000000E+01 0.  1.
         -4   -1    0    0    0  501 -0.00000000000E+00 -0.00000000000E+00 -0.66392139847E+01  0.67595903969E+01  0.12700000000E+01 0.  1.
         25    2    1    2    0    0  0.00000000000E+00  0.00000000000E+00  0.57630146861E+03  0.58970165641E+03  0.12499864338E+03 0.  0.
    9000005    1    3    3    0    0 -0.48928229415E+02 -0.34755435523E+02  0.37030494003E+03  0.37513818860E+03  0.10000000000E+01 0.  0.
    9000005    1    3    3    0    0  0.48928229415E+02  0.34755435523E+02  0.20599652858E+03  0.21456346781E+03  0.10000000000E+01 0.  0.
<mgrwt>
<rscale>  0 0.12499864E+03</rscale>
<asrwt>0</asrwt>
<pdfrwt beam="1">  1        4 0.89692534E-01 0.12499864E+03</pdfrwt>
<pdfrwt beam="2">  1       -4 0.10307838E-02 0.12499864E+03</pdfrwt>
<totfact> 0.49525671E+03</totfact>
</mgrwt>
</event>
<event>
 5    1  0.3257199E-002  0.1250013E+03  0.7818608E-02  0.1235067E+00
          4   -1    0    0  501    0  0.00000000000E+00  0.00000000000E+00  0.22961750695E+01  0.26239893197E+01  0.12700000000E+01 0.  1.
         -4   -1    0    0    0  501 -0.00000000000E+00 -0.00000000000E+00 -0.15875575024E+04  0.15875580104E+04  0.12700000000E+01 0.  1.
         25    2    1    2    0    0  0.00000000000E+00  0.00000000000E+00 -0.15852613273E+04  0.15901819997E+04  0.12500126497E+03 0.  0.
    9000005    1    3    3    0    0  0.30455845758E+01  0.41979130701E+02 -0.13802686980E+04  0.13809106422E+04  0.10000000000E+01 0.  0.
    9000005    1    3    3    0    0 -0.30455845758E+01 -0.41979130701E+02 -0.20499262930E+03  0.20927135749E+03  0.10000000000E+01 0.  0.
<mgrwt>
<rscale>  0 0.12500126E+03</rscale>
<asrwt>0</asrwt>
<pdfrwt beam="1">  1        4 0.37851453E-03 0.12500126E+03</pdfrwt>
<pdfrwt beam="2">  1       -4 0.24426405E+00 0.12500126E+03</pdfrwt>
<totfact> 0.16223805E+03</totfact>
</mgrwt>
</event>
<event>
 4    1  0.3257199E-002  0.1251214E+03  0.7818608E-02  0.1234880E+00
          4   -1    0    0  501    0  0.00000000000E+00  0.00000000000E+00  0.34846343391E+03  0.34846574821E+03  0.12700000000E+01 0. -1.
         -4   -1    0    0    0  501 -0.00000000000E+00 -0.00000000000E+00 -0.11193444140E+02  0.11265260392E+02  0.12700000000E+01 0. -1.
    9000005    1    1    2    0    0 -0.47414339874E+02  0.20213537702E+02  0.66737387622E+02  0.84330217827E+02  0.10000000000E+01 0.  0.
    9000005    1    1    2    0    0  0.47414339874E+02 -0.20213537702E+02  0.27053260215E+03  0.27540079077E+03  0.10000000000E+01 0.  0.
<mgrwt>
<rscale>  0 0.12512135E+03</rscale>
<asrwt>0</asrwt>
<pdfrwt beam="1">  1        4 0.53615459E-01 0.12512135E+03</pdfrwt>
<pdfrwt beam="2">  1       -4 0.17277708E-02 0.12512135E+03</pdfrwt>
<totfact> 0.68483137E+03</totfact>
</mgrwt>
</event>
<event>
 5    1  0.3257199E-002  0.1249744E+03  0.7818608E-02  0.1235109E+00
         -4   -1    0    0    0  501 -0.00000000000E+00  0.00000000000E+00  0.43077779598E+03  0.43077966805E+03  0.12700000000E+01 0.  1.
          4   -1    0    0  501    0  0.00000000000E+00 -0.00000000000E+00 -0.90177961768E+01  0.91067858153E+01  0.12700000000E+01 0.  1.
         25    2    1    2    0    0  0.00000000000E+00  0.00000000000E+00  0.42175999980E+03  0.43988645387E+03  0.12497437683E+03 0.  0.
    9000005    1    3    3    0    0  0.38293747438E+02  0.40673169130E+02  0.30936755020E+03  0.31437238889E+03  0.10000000000E+01 0.  0.
    9000005    1    3    3    0    0 -0.38293747438E+02 -0.40673169130E+02  0.11239244960E+03  0.12551406498E+03  0.10000000000E+01 0.  0.
<mgrwt>
<rscale>  0 0.12497438E+03</rscale>
<asrwt>0</asrwt>
<pdfrwt beam="2">  1        4 0.13943425E-02 0.12497438E+03</pdfrwt>
<pdfrwt beam="1">  1       -4 0.66280501E-01 0.12497438E+03</pdfrwt>
<totfact> 0.60884327E+03</totfact>
</mgrwt>
</event>
<event>
 5    1  0.3257199E-002  0.1250006E+03  0.7818608E-02  0.1235068E+00
          4   -1    0    0  501    0  0.00000000000E+00  0.00000000000E+00  0.25367101544E+03  0.25367419454E+03  0.12700000000E+01 0. -1.
         -4   -1    0    0    0  501 -0.00000000000E+00 -0.00000000000E+00 -0.15369563556E+02  0.15421944881E+02  0.12700000000E+01 0. -1.
         25    2    1    2    0    0  0.00000000000E+00  0.00000000000E+00  0.23830145189E+03  0.26909613942E+03  0.12500060112E+03 0.  0.
    9000005    1    3    3    0    0  0.54045965889E+02 -0.13793120918E+02  0.58487567024E+02  0.80827050608E+02  0.10000000000E+01 0.  0.
    9000005    1    3    3    0    0 -0.54045965889E+02  0.13793120918E+02  0.17981388486E+03  0.18826908882E+03  0.10000000000E+01 0.  0.
<mgrwt>
<rscale>  0 0.12500060E+03</rscale>
<asrwt>0</asrwt>
<pdfrwt beam="1">  1        4 0.39030583E-01 0.12500060E+03</pdfrwt>
<pdfrwt beam="2">  1       -4 0.23688222E-02 0.12500060E+03</pdfrwt>
<totfact> 0.79645189E+03</totfact>
</mgrwt>
</event>
<event>
 5    1  0.3257199E-002  0.1249957E+03  0.7818608E-02  0.1235076E+00
          4   -1    0    0  501    0  0.00000000000E+00  0.00000000000E+00  0.15460013250E+02  0.15512089147E+02  0.12700000000E+01 0. -1.
         -4   -1    0    0    0  501 -0.00000000000E+00 -0.00000000000E+00 -0.25217223036E+03  0.25217542835E+03  0.12700000000E+01 0. -1.
         25    2    1    2    0    0  0.00000000000E+00  0.00000000000E+00 -0.23671221711E+03  0.26768751750E+03  0.12499573311E+03 0.  0.
    9000005    1    3    3    0    0 -0.36791431302E+02  0.49273635802E+02 -0.94558351402E+02  0.11279974478E+03  0.10000000000E+01 0.  0.
    9000005    1    3    3    0    0  0.36791431302E+02 -0.49273635802E+02 -0.14215386570E+03  0.15488777272E+03  0.10000000000E+01 0.  0.
<mgrwt>
<rscale>  0 0.12499573E+03</rscale>
<asrwt>0</asrwt>
<pdfrwt beam="1">  1        4 0.23827156E-02 0.12499573E+03</pdfrwt>
<pdfrwt beam="2">  1       -4 0.38799977E-01 0.12499573E+03</pdfrwt>
<totfact> 0.79846767E+03</totfact>
</mgrwt>
</event>
<event>
 5    1  0.3257199E-002  0.1249975E+03  0.7818608E-02  0.1235073E+00
          4   -1    0    0  501    0  0.00000000000E+00  0.00000000000E+00  0.15163438437E+01  0.19779278683E+01  0.12700000000E+01 0.  1.
         -4   -1    0    0    0  501 -0.00000000000E+00 -0.00000000000E+00 -0.22352511445E+04  0.22352515053E+04  0.12700000000E+01 0.  1.
         25    2    1    2    0    0  0.00000000000E+00  0.00000000000E+00 -0.22337348007E+04  0.22372294332E+04  0.12499750763E+03 0.  0.
    9000005    1    3    3    0    0 -0.58022569946E+02  0.22417413888E+02 -0.10095749997E+04  0.10114899106E+04  0.10000000000E+01 0.  0.
    9000005    1    3    3    0    0  0.58022569946E+02 -0.22417413888E+02 -0.12241598009E+04  0.12257395226E+04  0.10000000000E+01 0.  0.
<mgrwt>
<rscale>  0 0.12499751E+03</rscale>
<asrwt>0</asrwt>
<pdfrwt beam="1">  1        4 0.26881967E-03 0.12499751E+03</pdfrwt>
<pdfrwt beam="2">  1       -4 0.34391804E+00 0.12499751E+03</pdfrwt>
<totfact> 0.70744664E+02</totfact>
</mgrwt>
</event>
<event>
 5    1  0.3257199E-002  0.1249997E+03  0.7818608E-02  0.1235070E+00
          4   -1    0    0  501    0  0.00000000000E+00  0.00000000000E+00  0.26408966037E+03  0.26409271405E+03  0.12700000000E+01 0.  1.
         -4   -1    0    0    0  501 -0.00000000000E+00 -0.00000000000E+00 -0.14760903219E+02  0.14815436674E+02  0.12700000000E+01 0.  1.
         25    2    1    2    0    0  0.00000000000E+00  0.00000000000E+00  0.24932875715E+03  0.27890815072E+03  0.12499970959E+03 0.  0.
    9000005    1    3    3    0    0  0.52909501349E+02 -0.27784362511E+02  0.16543291362E+03  0.17589893417E+03  0.10000000000E+01 0.  0.
    9000005    1    3    3    0    0 -0.52909501349E+02  0.27784362511E+02  0.83895843529E+02  0.10300921655E+03  0.10000000000E+01 0.  0.
<mgrwt>
<rscale>  0 0.12499971E+03</rscale>
<asrwt>0</asrwt>
<pdfrwt beam="1">  1        4 0.40633604E-01 0.12499971E+03</pdfrwt>
<pdfrwt beam="2">  1       -4 0.22753382E-02 0.12499971E+03</pdfrwt>
<totfact> 0.78323607E+03</totfact>
</mgrwt>
</event>
<event>
 4    1  0.3257199E-002  0.1249137E+03  0.7818608E-02  0.1235204E+00
          4   -1    0    0  501    0  0.00000000000E+00  0.00000000000E+00  0.11166484079E+02  0.11238472613E+02  0.12700000000E+01 0.  1.
         -4   -1    0    0    0  501 -0.00000000000E+00 -0.00000000000E+00 -0.34814065934E+03  0.34814297578E+03  0.12700000000E+01 0.  1.
    9000005    1    1    2    0    0  0.43981773283E+02  0.43283971600E+02 -0.19607653043E+03  0.20555997753E+03  0.10000000000E+01 0.  0.
    9000005    1    1    2    0    0 -0.43981773283E+02 -0.43283971600E+02 -0.14089764483E+03  0.15382147086E+03  0.10000000000E+01 0.  0.
<mgrwt>
<rscale>  0 0.12491369E+03</rscale>
<asrwt>0</asrwt>
<pdfrwt beam="1">  1        4 0.17236367E-02 0.12491369E+03</pdfrwt>
<pdfrwt beam="2">  1       -4 0.53565809E-01 0.12491369E+03</pdfrwt>
<totfact> 0.68835997E+03</totfact>
</mgrwt>
</event>
<event>
 5    1  0.3257199E-002  0.1249955E+03  0.7818608E-02  0.1235076E+00
         -4   -1    0    0    0  501 -0.00000000000E+00  0.00000000000E+00  0.36435373400E+03  0.36435594737E+03  0.12700000000E+01 0. -1.
          4   -1    0    0  501    0  0.00000000000E+00 -0.00000000000E+00 -0.10680401469E+02  0.10755643893E+02  0.12700000000E+01 0. -1.
         25    2    1    2    0    0  0.00000000000E+00  0.00000000000E+00  0.35367333253E+03  0.37511159126E+03  0.12499551893E+03 0.  0.
    9000005    1    3    3    0    0 -0.32727858598E+02 -0.27141534942E+01  0.17289236700E+02  0.37126770170E+02  0.10000000000E+01 0.  0.
    9000005    1    3    3    0    0  0.32727858598E+02  0.27141534942E+01  0.33638409583E+03  0.33798482109E+03  0.10000000000E+01 0.  0.
<mgrwt>
<rscale>  0 0.12499552E+03</rscale>
<asrwt>0</asrwt>
<pdfrwt beam="2">  1        4 0.16490968E-02 0.12499552E+03</pdfrwt>
<pdfrwt beam="1">  1       -4 0.56060380E-01 0.12499552E+03</pdfrwt>
<totfact> 0.67054177E+03</totfact>
</mgrwt>
</event>
<event>
 5    1  0.3257199E-002  0.1250000E+03  0.7818608E-02  0.1235069E+00
         -4   -1    0    0    0  501 -0.00000000000E+00  0.00000000000E+00  0.11725787982E+02  0.11794363221E+02  0.12700000000E+01 0.  1.
          4   -1    0    0  501    0  0.00000000000E+00 -0.00000000000E+00 -0.33209198964E+03  0.33209441803E+03  0.12700000000E+01 0.  1.
         25    2    1    2    0    0  0.00000000000E+00  0.00000000000E+00 -0.32036620166E+03  0.34388878125E+03  0.12499996281E+03 0.  0.
    9000005    1    3    3    0    0  0.26631323057E+02 -0.44659050214E+02 -0.64818719860E+02  0.83103096080E+02  0.10000000000E+01 0.  0.
    9000005    1    3    3    0    0 -0.26631323057E+02  0.44659050214E+02 -0.25554748180E+03  0.26078568517E+03  0.10000000000E+01 0.  0.
<mgrwt>
<rscale>  0 0.12499996E+03</rscale>
<asrwt>0</asrwt>
<pdfrwt beam="2">  1        4 0.51096530E-01 0.12499996E+03</pdfrwt>
<pdfrwt beam="1">  1       -4 0.18094295E-02 0.12499996E+03</pdfrwt>
<totfact> 0.70402199E+03</totfact>
</mgrwt>
</event>
<event>
 5    1  0.3257199E-002  0.1250009E+03  0.7818608E-02  0.1235068E+00
          4   -1    0    0  501    0  0.00000000000E+00  0.00000000000E+00  0.69796288378E+01  0.70942313688E+01  0.12700000000E+01 0. -1.
         -4   -1    0    0    0  501 -0.00000000000E+00 -0.00000000000E+00 -0.55500015820E+03  0.55500161126E+03  0.12700000000E+01 0. -1.
         25    2    1    2    0    0  0.00000000000E+00  0.00000000000E+00 -0.54802052936E+03  0.56209584263E+03  0.12500094279E+03 0.  0.
    9000005    1    3    3    0    0 -0.54137240210E+02 -0.18382950876E+02 -0.16055926711E+03  0.17043782420E+03  0.10000000000E+01 0.  0.
    9000005    1    3    3    0    0  0.54137240210E+02  0.18382950876E+02 -0.38746126225E+03  0.39165801843E+03  0.10000000000E+01 0.  0.
<mgrwt>
<rscale>  0 0.12500094E+03</rscale>
<asrwt>0</asrwt>
<pdfrwt beam="1">  1        4 0.10827168E-02 0.12500094E+03</pdfrwt>
<pdfrwt beam="2">  1       -4 0.85393532E-01 0.12500094E+03</pdfrwt>
<totfact> 0.51350064E+03</totfact>
</mgrwt>
</event>
<event>
 5    1  0.3257199E-002  0.1250003E+03  0.7818608E-02  0.1235069E+00
         -4   -1    0    0    0  501 -0.00000000000E+00  0.00000000000E+00  0.10664117496E+02  0.10739474008E+02  0.12700000000E+01 0. -1.
          4   -1    0    0  501    0  0.00000000000E+00 -0.00000000000E+00 -0.36493386395E+03  0.36493607380E+03  0.12700000000E+01 0. -1.
         25    2    1    2    0    0  0.00000000000E+00  0.00000000000E+00 -0.35426974645E+03  0.37567554780E+03  0.12500025586E+03 0.  0.
    9000005    1    3    3    0    0  0.41779776727E+02 -0.18292269007E+02 -0.30552938101E+03  0.30891642803E+03  0.10000000000E+01 0.  0.
    9000005    1    3    3    0    0 -0.41779776727E+02  0.18292269007E+02 -0.48740365445E+02  0.66759119771E+02  0.10000000000E+01 0.  0.
<mgrwt>
<rscale>  0 0.12500026E+03</rscale>
<asrwt>0</asrwt>
<pdfrwt beam="2">  1        4 0.56149628E-01 0.12500026E+03</pdfrwt>
<pdfrwt beam="1">  1       -4 0.16466004E-02 0.12500026E+03</pdfrwt>
<totfact> 0.66988945E+03</totfact>
</mgrwt>
</event>
<event>
 5    1  0.3257199E-002  0.1250023E+03  0.7818608E-02  0.1235066E+00
         -4   -1    0    0    0  501 -0.00000000000E+00  0.00000000000E+00  0.27372065712E+02  0.27401512391E+02  0.12700000000E+01 0. -1.
          4   -1    0    0  501    0  0.00000000000E+00 -0.00000000000E+00 -0.14260556542E+03  0.14261122042E+03  0.12700000000E+01 0. -1.
         25    2    1    2    0    0  0.00000000000E+00  0.00000000000E+00 -0.11523349971E+03  0.17001273281E+03  0.12500227943E+03 0.  0.
    9000005    1    3    3    0    0  0.42866813101E+02  0.30326809394E+02 -0.11532140039E+02  0.53770524336E+02  0.10000000000E+01 0.  0.
    9000005    1    3    3    0    0 -0.42866813101E+02 -0.30326809394E+02 -0.10370135967E+03  0.11624220848E+03  0.10000000000E+01 0.  0.
<mgrwt>
<rscale>  0 0.12500228E+03</rscale>
<asrwt>0</asrwt>
<pdfrwt beam="2">  1        4 0.21942017E-01 0.12500228E+03</pdfrwt>
<pdfrwt beam="1">  1       -4 0.42137872E-02 0.12500228E+03</pdfrwt>
<totfact> 0.95441380E+03</totfact>
</mgrwt>
</event>
<event>
 5    1  0.3257199E-002  0.1250057E+03  0.7818608E-02  0.1235060E+00
         -4   -1    0    0    0  501 -0.00000000000E+00  0.00000000000E+00  0.20325499655E+03  0.20325896419E+03  0.12700000000E+01 0.  1.
          4   -1    0    0  501    0  0.00000000000E+00 -0.00000000000E+00 -0.19195094817E+02  0.19237062277E+02  0.12700000000E+01 0.  1.
         25    2    1    2    0    0  0.00000000000E+00  0.00000000000E+00  0.18405990174E+03  0.22249602647E+03  0.12500573734E+03 0.  0.
    9000005    1    3    3    0    0  0.40266181493E+01 -0.40325624241E+01  0.20280030388E+03  0.20288281954E+03  0.10000000000E+01 0.  0.
    9000005    1    3    3    0    0 -0.40266181493E+01  0.40325624241E+01 -0.18740402141E+02  0.19613206924E+02  0.10000000000E+01 0.  0.
<mgrwt>
<rscale>  0 0.12500574E+03</rscale>
<asrwt>0</asrwt>
<pdfrwt beam="2">  1        4 0.29566248E-02 0.12500574E+03</pdfrwt>
<pdfrwt beam="1">  1       -4 0.31273535E-01 0.12500574E+03</pdfrwt>
<totfact> 0.86463839E+03</totfact>
</mgrwt>
</event>
<event>
 5    1  0.3257199E-002  0.1250001E+03  0.7818608E-02  0.1235069E+00
         -4   -1    0    0    0  501 -0.00000000000E+00  0.00000000000E+00  0.18548959920E+02  0.18592385918E+02  0.12700000000E+01 0. -1.
          4   -1    0    0  501    0  0.00000000000E+00 -0.00000000000E+00 -0.21030014924E+03  0.21030398397E+03  0.12700000000E+01 0. -1.
         25    2    1    2    0    0  0.00000000000E+00  0.00000000000E+00 -0.19175118932E+03  0.22889636988E+03  0.12500011816E+03 0.  0.
    9000005    1    3    3    0    0  0.80276009717E+01 -0.49446733749E+01  0.17248064826E+02  0.19682172451E+02  0.10000000000E+01 0.  0.
    9000005    1    3    3    0    0 -0.80276009717E+01  0.49446733749E+01 -0.20899925415E+03  0.20921419743E+03  0.10000000000E+01 0.  0.
<mgrwt>
<rscale>  0 0.12500012E+03</rscale>
<asrwt>0</asrwt>
<pdfrwt beam="2">  1        4 0.32357503E-01 0.12500012E+03</pdfrwt>
<pdfrwt beam="1">  1       -4 0.28573217E-02 0.12500012E+03</pdfrwt>
<totfact> 0.85479124E+03</totfact>
</mgrwt>
</event>
<event>
 5    1  0.3257199E-002  0.1249999E+03  0.7818608E-02  0.1235069E+00
          4   -1    0    0  501    0  0.00000000000E+00  0.00000000000E+00  0.13564929209E+02  0.13624250601E+02  0.12700000000E+01 0.  1.
         -4   -1    0    0    0  501 -0.00000000000E+00 -0.00000000000E+00 -0.28727742867E+03  0.28728023587E+03  0.12700000000E+01 0.  1.
         25    2    1    2    0    0  0.00000000000E+00  0.00000000000E+00 -0.27371249946E+03  0.30090448647E+03  0.12499991048E+03 0.  0.
    9000005    1    3    3    0    0  0.45859998344E+02  0.37960765555E+02 -0.91113335845E+02  0.10884300225E+03  0.10000000000E+01 0.  0.
    9000005    1    3    3    0    0 -0.45859998344E+02 -0.37960765555E+02 -0.18259916362E+03  0.19206148423E+03  0.10000000000E+01 0.  0.
<mgrwt>
<rscale>  0 0.12499991E+03</rscale>
<asrwt>0</asrwt>
<pdfrwt beam="1">  1        4 0.20916915E-02 0.12499991E+03</pdfrwt>
<pdfrwt beam="2">  1       -4 0.44201302E-01 0.12499991E+03</pdfrwt>
<totfact> 0.75485674E+03</totfact>
</mgrwt>
</event>
<event>
 5    1  0.3257199E-002  0.1250032E+03  0.7818608E-02  0.1235064E+00
          4   -1    0    0  501    0  0.00000000000E+00  0.00000000000E+00  0.33264479652E+03  0.33264722087E+03  0.12700000000E+01 0. -1.
         -4   -1    0    0    0  501 -0.00000000000E+00 -0.00000000000E+00 -0.11706792786E+02  0.11775478646E+02  0.12700000000E+01 0. -1.
         25    2    1    2    0    0  0.00000000000E+00  0.00000000000E+00  0.32093800373E+03  0.34442269951E+03  0.12500317476E+03 0.  0.
    9000005    1    3    3    0    0  0.44889095349E+02  0.13762418404E+02  0.46830738402E+02  0.66321588498E+02  0.10000000000E+01 0.  0.
    9000005    1    3    3    0    0 -0.44889095349E+02 -0.13762418404E+02  0.27410726533E+03  0.27810111101E+03  0.10000000000E+01 0.  0.
<mgrwt>
<rscale>  0 0.12500317E+03</rscale>
<asrwt>0</asrwt>
<pdfrwt beam="1">  1        4 0.51181595E-01 0.12500317E+03</pdfrwt>
<pdfrwt beam="2">  1       -4 0.18065150E-02 0.12500317E+03</pdfrwt>
<totfact> 0.70337570E+03</totfact>
</mgrwt>
</event>
<event>
 5    1  0.3257199E-002  0.1250020E+03  0.7818608E-02  0.1235066E+00
         -4   -1    0    0    0  501 -0.00000000000E+00  0.00000000000E+00  0.47133544061E+01  0.48814557007E+01  0.12700000000E+01 0.  1.
          4   -1    0    0  501    0  0.00000000000E+00 -0.00000000000E+00 -0.81410036278E+03  0.81410135338E+03  0.12700000000E+01 0.  1.
         25    2    1    2    0    0  0.00000000000E+00  0.00000000000E+00 -0.80938700838E+03  0.81898280909E+03  0.12500204898E+03 0.  0.
    9000005    1    3    3    0    0 -0.15614890833E+02  0.15383824653E+02 -0.78811904856E+03  0.78842445521E+03  0.10000000000E+01 0.  0.
    9000005    1    3    3    0    0  0.15614890833E+02 -0.15383824653E+02 -0.21267959821E+02  0.30558353876E+02  0.10000000000E+01 0.  0.
<mgrwt>
<rscale>  0 0.12500205E+03</rscale>
<asrwt>0</asrwt>
<pdfrwt beam="2">  1        4 0.12525911E+00 0.12500205E+03</pdfrwt>
<pdfrwt beam="1">  1       -4 0.73813916E-03 0.12500205E+03</pdfrwt>
<totfact> 0.37429561E+03</totfact>
</mgrwt>
</event>
<event>
 5    1  0.3257199E-002  0.1250002E+03  0.7818608E-02  0.1235069E+00
         -4   -1    0    0    0  501 -0.00000000000E+00  0.00000000000E+00  0.84429137993E+03  0.84429233511E+03  0.12700000000E+01 0. -1.
          4   -1    0    0  501    0  0.00000000000E+00 -0.00000000000E+00 -0.45385476146E+01  0.47128881219E+01  0.12700000000E+01 0. -1.
         25    2    1    2    0    0  0.00000000000E+00  0.00000000000E+00  0.83975283232E+03  0.84900522323E+03  0.12500019877E+03 0.  0.
    9000005    1    3    3    0    0 -0.15534893039E+02  0.32458133105E+02  0.76689530546E+03  0.76773971686E+03  0.10000000000E+01 0.  0.
    9000005    1    3    3    0    0  0.15534893039E+02 -0.32458133105E+02  0.72857526856E+02  0.81265506372E+02  0.10000000000E+01 0.  0.
<mgrwt>
<rscale>  0 0.12500020E+03</rscale>
<asrwt>0</asrwt>
<pdfrwt beam="2">  1        4 0.71172188E-03 0.12500020E+03</pdfrwt>
<pdfrwt beam="1">  1       -4 0.12990456E+00 0.12500020E+03</pdfrwt>
<totfact> 0.36167882E+03</totfact>
</mgrwt>
</event>
<event>
 5    1  0.3257199E-002  0.1250021E+03  0.7818608E-02  0.1235066E+00
         -4   -1    0    0    0  501 -0.00000000000E+00  0.00000000000E+00  0.17836796962E+04  0.17836801483E+04  0.12700000000E+01 0. -1.
          4   -1    0    0  501    0  0.00000000000E+00 -0.00000000000E+00 -0.20054613249E+01  0.23737681280E+01  0.12700000000E+01 0. -1.
         25    2    1    2    0    0  0.00000000000E+00  0.00000000000E+00  0.17816742349E+04  0.17860539165E+04  0.12500205305E+03 0.  0.
    9000005    1    3    3    0    0 -0.21560486911E+02  0.37967405923E+02  0.15296649000E+04  0.15302882358E+04  0.10000000000E+01 0.  0.
    9000005    1    3    3    0    0  0.21560486911E+02 -0.37967405923E+02  0.25200933493E+03  0.25576568065E+03  0.10000000000E+01 0.  0.
<mgrwt>
<rscale>  0 0.12500205E+03</rscale>
<asrwt>0</asrwt>
<pdfrwt beam="2">  1        4 0.33689794E-03 0.12500205E+03</pdfrwt>
<pdfrwt beam="1">  1       -4 0.27444115E+00 0.12500205E+03</pdfrwt>
<totfact> 0.12918941E+03</totfact>
</mgrwt>
</event>
<event>
 5    1  0.3257199E-002  0.1249978E+03  0.7818608E-02  0.1235073E+00
          4   -1    0    0  501    0  0.00000000000E+00  0.00000000000E+00  0.10831484547E+02  0.10905684641E+02  0.12700000000E+01 0.  1.
         -4   -1    0    0    0  501 -0.00000000000E+00 -0.00000000000E+00 -0.35931954254E+03  0.35932178691E+03  0.12700000000E+01 0.  1.
         25    2    1    2    0    0  0.00000000000E+00  0.00000000000E+00 -0.34848805799E+03  0.37022747156E+03  0.12499781650E+03 0.  0.
    9000005    1    3    3    0    0  0.45319836477E+02 -0.17408974496E+02 -0.57704507001E+02  0.75417306366E+02  0.10000000000E+01 0.  0.
    9000005    1    3    3    0    0 -0.45319836477E+02  0.17408974496E+02 -0.29078355099E+03  0.29481016519E+03  0.10000000000E+01 0.  0.
<mgrwt>
<rscale>  0 0.12499782E+03</rscale>
<asrwt>0</asrwt>
<pdfrwt beam="1">  1        4 0.16722629E-02 0.12499782E+03</pdfrwt>
<pdfrwt beam="2">  1       -4 0.55285801E-01 0.12499782E+03</pdfrwt>
<totfact> 0.67558411E+03</totfact>
</mgrwt>
</event>
<event>
 5    1  0.3257199E-002  0.1250003E+03  0.7818608E-02  0.1235069E+00
         -4   -1    0    0    0  501 -0.00000000000E+00  0.00000000000E+00  0.16794392544E+01  0.21055679065E+01  0.12700000000E+01 0. -1.
          4   -1    0    0  501    0  0.00000000000E+00 -0.00000000000E+00 -0.20636481015E+04  0.20636484923E+04  0.12700000000E+01 0. -1.
         25    2    1    2    0    0  0.00000000000E+00  0.00000000000E+00 -0.20619686622E+04  0.20657540602E+04  0.12500029252E+03 0.  0.
    9000005    1    3    3    0    0 -0.58257366164E+02  0.22378869720E+02 -0.10846206907E+04  0.10864151036E+04  0.10000000000E+01 0.  0.
    9000005    1    3    3    0    0  0.58257366164E+02 -0.22378869720E+02 -0.97734797149E+03  0.97933895659E+03  0.10000000000E+01 0.  0.
<mgrwt>
<rscale>  0 0.12500029E+03</rscale>
<asrwt>0</asrwt>
<pdfrwt beam="2">  1        4 0.31751533E+00 0.12500029E+03</pdfrwt>
<pdfrwt beam="1">  1       -4 0.29118611E-03 0.12500029E+03</pdfrwt>
<totfact> 0.90273607E+02</totfact>
</mgrwt>
</event>
<event>
 5    1  0.3257199E-002  0.1250020E+03  0.7818608E-02  0.1235066E+00
          4   -1    0    0  501    0  0.00000000000E+00  0.00000000000E+00  0.28502708222E+02  0.28530987995E+02  0.12700000000E+01 0. -1.
         -4   -1    0    0    0  501 -0.00000000000E+00 -0.00000000000E+00 -0.13695357943E+03  0.13695946780E+03  0.12700000000E+01 0. -1.
         25    2    1    2    0    0  0.00000000000E+00  0.00000000000E+00 -0.10845087121E+03  0.16549045579E+03  0.12500199795E+03 0.  0.
    9000005    1    3    3    0    0 -0.77882143730E+01  0.83230012627E+01 -0.13557217368E+03  0.13605419107E+03  0.10000000000E+01 0.  0.
    9000005    1    3    3    0    0  0.77882143730E+01 -0.83230012627E+01  0.27121302466E+02  0.29436264719E+02  0.10000000000E+01 0.  0.
<mgrwt>
<rscale>  0 0.12500200E+03</rscale>
<asrwt>0</asrwt>
<pdfrwt beam="1">  1        4 0.43876604E-02 0.12500200E+03</pdfrwt>
<pdfrwt beam="2">  1       -4 0.21072409E-01 0.12500200E+03</pdfrwt>
<totfact> 0.96290267E+03</totfact>
</mgrwt>
</event>
<event>
 5    1  0.3257199E-002  0.1250296E+03  0.7818608E-02  0.1235023E+00
         -4   -1    0    0    0  501 -0.00000000000E+00  0.00000000000E+00  0.57886839582E+02  0.57900769397E+02  0.12700000000E+01 0. -1.
          4   -1    0    0  501    0  0.00000000000E+00 -0.00000000000E+00 -0.67484772827E+02  0.67496721872E+02  0.12700000000E+01 0. -1.
         25    2    1    2    0    0  0.00000000000E+00  0.00000000000E+00 -0.95979332453E+01  0.12539749127E+03  0.12502963846E+03 0.  0.
    9000005    1    3    3    0    0  0.43710138505E+02  0.37150343349E+02  0.20101046718E+02  0.60792896774E+02  0.10000000000E+01 0.  0.
    9000005    1    3    3    0    0 -0.43710138505E+02 -0.37150343349E+02 -0.29698979963E+02  0.64604594495E+02  0.10000000000E+01 0.  0.
<mgrwt>
<rscale>  0 0.12502964E+03</rscale>
<asrwt>0</asrwt>
<pdfrwt beam="2">  1        4 0.10384263E-01 0.12502964E+03</pdfrwt>
<pdfrwt beam="1">  1       -4 0.89076584E-02 0.12502964E+03</pdfrwt>
<totfact> 0.10437243E+04</totfact>
</mgrwt>
</event>
<event>
 5    1  0.3257199E-002  0.1249991E+03  0.7818608E-02  0.1235071E+00
          4   -1    0    0  501    0  0.00000000000E+00  0.00000000000E+00  0.42461614337E+03  0.42461804261E+03  0.12700000000E+01 0.  1.
         -4   -1    0    0    0  501 -0.00000000000E+00 -0.00000000000E+00 -0.91535872244E+01  0.92412693432E+01  0.12700000000E+01 0.  1.
         25    2    1    2    0    0  0.00000000000E+00  0.00000000000E+00  0.41546255614E+03  0.43385931195E+03  0.12499906804E+03 0.  0.
    9000005    1    3    3    0    0 -0.23715453708E+02 -0.45550227335E+02  0.84138671255E+02  0.98577695019E+02  0.10000000000E+01 0.  0.
    9000005    1    3    3    0    0  0.23715453708E+02  0.45550227335E+02  0.33132388489E+03  0.33528161693E+03  0.10000000000E+01 0.  0.
<mgrwt>
<rscale>  0 0.12499907E+03</rscale>
<asrwt>0</asrwt>
<pdfrwt beam="1">  1        4 0.65332442E-01 0.12499907E+03</pdfrwt>
<pdfrwt beam="2">  1       -4 0.14151353E-02 0.12499907E+03</pdfrwt>
<totfact> 0.61388984E+03</totfact>
</mgrwt>
</event>
<event>
 5    1  0.3257199E-002  0.1250104E+03  0.7818608E-02  0.1235053E+00
         -4   -1    0    0    0  501 -0.00000000000E+00  0.00000000000E+00  0.30813386701E+02  0.30839547661E+02  0.12700000000E+01 0.  1.
          4   -1    0    0  501    0  0.00000000000E+00 -0.00000000000E+00 -0.12670912001E+03  0.12671548443E+03  0.12700000000E+01 0.  1.
         25    2    1    2    0    0  0.00000000000E+00  0.00000000000E+00 -0.95895733311E+02  0.15755503209E+03  0.12501038545E+03 0.  0.
    9000005    1    3    3    0    0 -0.28472776114E+02 -0.24836002544E+02  0.14795747158E+02  0.40588670044E+02  0.10000000000E+01 0.  0.
    9000005    1    3    3    0    0  0.28472776114E+02  0.24836002544E+02 -0.11069148047E+03  0.11696636205E+03  0.10000000000E+01 0.  0.
<mgrwt>
<rscale>  0 0.12501039E+03</rscale>
<asrwt>0</asrwt>
<pdfrwt beam="2">  1        4 0.19496212E-01 0.12501039E+03</pdfrwt>
<pdfrwt beam="1">  1       -4 0.47430230E-02 0.12501039E+03</pdfrwt>
<totfact> 0.97793400E+03</totfact>
</mgrwt>
</event>
<event>
 5    1  0.3257199E-002  0.1250129E+03  0.7818608E-02  0.1235049E+00
          4   -1    0    0  501    0  0.00000000000E+00  0.00000000000E+00  0.93734911330E+02  0.93743514453E+02  0.12700000000E+01 0. -1.
         -4   -1    0    0    0  501 -0.00000000000E+00 -0.00000000000E+00 -0.41661763257E+02  0.41681115840E+02  0.12700000000E+01 0. -1.
         25    2    1    2    0    0  0.00000000000E+00  0.00000000000E+00  0.52073148073E+02  0.13542463029E+03  0.12501287030E+03 0.  0.
    9000005    1    3    3    0    0  0.62254589549E+02 -0.51414024979E+01  0.28199484626E+02  0.68543992244E+02  0.10000000000E+01 0.  0.
    9000005    1    3    3    0    0 -0.62254589549E+02  0.51414024979E+01  0.23873663446E+02  0.66880638049E+02  0.10000000000E+01 0.  0.
<mgrwt>
<rscale>  0 0.12501287E+03</rscale>
<asrwt>0</asrwt>
<pdfrwt beam="1">  1        4 0.14422906E-01 0.12501287E+03</pdfrwt>
<pdfrwt beam="2">  1       -4 0.64116526E-02 0.12501287E+03</pdfrwt>
<totfact> 0.10226160E+04</totfact>
</mgrwt>
</event>
<event>
 5    1  0.3257199E-002  0.1250014E+03  0.7818608E-02  0.1235067E+00
         -4   -1    0    0    0  501 -0.00000000000E+00  0.00000000000E+00  0.48071448286E+02  0.48088221430E+02  0.12700000000E+01 0.  1.
          4   -1    0    0  501    0  0.00000000000E+00 -0.00000000000E+00 -0.81225188271E+02  0.81235116235E+02  0.12700000000E+01 0.  1.
         25    2    1    2    0    0  0.00000000000E+00  0.00000000000E+00 -0.33153739985E+02  0.12932333767E+03  0.12500142075E+03 0.  0.
    9000005    1    3    3    0    0 -0.45115507274E+02  0.20112025698E+02 -0.56181450416E+02  0.74814824367E+02  0.10000000000E+01 0.  0.
    9000005    1    3    3    0    0  0.45115507274E+02 -0.20112025698E+02  0.23027710431E+02  0.54508513298E+02  0.10000000000E+01 0.  0.
<mgrwt>
<rscale>  0 0.12500142E+03</rscale>
<asrwt>0</asrwt>
<pdfrwt beam="2">  1        4 0.12498237E-01 0.12500142E+03</pdfrwt>
<pdfrwt beam="1">  1       -4 0.73976613E-02 0.12500142E+03</pdfrwt>
<totfact> 0.10358672E+04</totfact>
</mgrwt>
</event>
<event>
 5    1  0.3257199E-002  0.1250018E+03  0.7818608E-02  0.1235067E+00
          4   -1    0    0  501    0  0.00000000000E+00  0.00000000000E+00  0.27267795512E+02  0.27297354672E+02  0.12700000000E+01 0. -1.
         -4   -1    0    0    0  501 -0.00000000000E+00 -0.00000000000E+00 -0.14314915692E+03  0.14315479045E+03  0.12700000000E+01 0. -1.
         25    2    1    2    0    0  0.00000000000E+00  0.00000000000E+00 -0.11588136141E+03  0.17045214512E+03  0.12500177540E+03 0.  0.
    9000005    1    3    3    0    0  0.35599551135E+02 -0.40531842323E+01  0.11877718429E+02  0.37760250773E+02  0.10000000000E+01 0.  0.
    9000005    1    3    3    0    0 -0.35599551135E+02  0.40531842323E+01 -0.12775907984E+03  0.13269189435E+03  0.10000000000E+01 0.  0.
<mgrwt>
<rscale>  0 0.12500178E+03</rscale>
<asrwt>0</asrwt>
<pdfrwt beam="1">  1        4 0.41977527E-02 0.12500178E+03</pdfrwt>
<pdfrwt beam="2">  1       -4 0.22025654E-01 0.12500178E+03</pdfrwt>
<totfact> 0.95360630E+03</totfact>
</mgrwt>
</event>
<event>
 5    1  0.3257199E-002  0.1250075E+03  0.7818608E-02  0.1235058E+00
         -4   -1    0    0    0  501 -0.00000000000E+00  0.00000000000E+00  0.13178834191E+03  0.13179446105E+03  0.12700000000E+01 0.  1.
          4   -1    0    0  501    0  0.00000000000E+00 -0.00000000000E+00 -0.29623474500E+02  0.29650685345E+02  0.12700000000E+01 0.  1.
         25    2    1    2    0    0  0.00000000000E+00  0.00000000000E+00  0.10216486741E+03  0.16144514640E+03  0.12500750042E+03 0.  0.
    9000005    1    3    3    0    0  0.38451335667E+02 -0.30883968493E+02  0.15090709292E+01  0.49351818807E+02  0.10000000000E+01 0.  0.
    9000005    1    3    3    0    0 -0.38451335667E+02  0.30883968493E+02  0.10065579648E+03  0.11209332759E+03  0.10000000000E+01 0.  0.
<mgrwt>
<rscale>  0 0.12500750E+03</rscale>
<asrwt>0</asrwt>
<pdfrwt beam="2">  1        4 0.45600216E-02 0.12500750E+03</pdfrwt>
<pdfrwt beam="1">  1       -4 0.20277693E-01 0.12500750E+03</pdfrwt>
<totfact> 0.97048534E+03</totfact>
</mgrwt>
</event>
<event>
 5    1  0.3257199E-002  0.1249969E+03  0.7818608E-02  0.1235074E+00
          4   -1    0    0  501    0  0.00000000000E+00  0.00000000000E+00  0.63788569198E+01  0.65040537824E+01  0.12700000000E+01 0.  1.
         -4   -1    0    0    0  501 -0.00000000000E+00 -0.00000000000E+00 -0.60626734695E+03  0.60626867714E+03  0.12700000000E+01 0.  1.
         25    2    1    2    0    0  0.00000000000E+00  0.00000000000E+00 -0.59988849003E+03  0.61277273092E+03  0.12499687711E+03 0.  0.
    9000005    1    3    3    0    0 -0.28921911451E+02 -0.54920824060E+02 -0.26449785754E+03  0.27168527843E+03  0.10000000000E+01 0.  0.
    9000005    1    3    3    0    0  0.28921911451E+02  0.54920824060E+02 -0.33539063249E+03  0.34108745248E+03  0.10000000000E+01 0.  0.
<mgrwt>
<rscale>  0 0.12499688E+03</rscale>
<asrwt>0</asrwt>
<pdfrwt beam="1">  1        4 0.99109593E-03 0.12499688E+03</pdfrwt>
<pdfrwt beam="2">  1       -4 0.93281587E-01 0.12499688E+03</pdfrwt>
<totfact> 0.48074467E+03</totfact>
</mgrwt>
</event>
<event>
 5    1  0.3257199E-002  0.1250036E+03  0.7818608E-02  0.1235064E+00
         -4   -1    0    0    0  501 -0.00000000000E+00  0.00000000000E+00  0.30214505431E+03  0.30214772338E+03  0.12700000000E+01 0.  1.
          4   -1    0    0  501    0  0.00000000000E+00 -0.00000000000E+00 -0.12895215534E+02  0.12957603315E+02  0.12700000000E+01 0.  1.
         25    2    1    2    0    0  0.00000000000E+00  0.00000000000E+00  0.28924983878E+03  0.31510532670E+03  0.12500359067E+03 0.  0.
    9000005    1    3    3    0    0 -0.54194049217E+01 -0.42152381535E+02  0.29128488146E+02  0.51533115959E+02  0.10000000000E+01 0.  0.
    9000005    1    3    3    0    0  0.54194049217E+01  0.42152381535E+02  0.26012135063E+03  0.26357221074E+03  0.10000000000E+01 0.  0.
<mgrwt>
<rscale>  0 0.12500359E+03</rscale>
<asrwt>0</asrwt>
<pdfrwt beam="2">  1        4 0.19888837E-02 0.12500359E+03</pdfrwt>
<pdfrwt beam="1">  1       -4 0.46488858E-01 0.12500359E+03</pdfrwt>
<totfact> 0.73736216E+03</totfact>
</mgrwt>
</event>
<event>
 5    1  0.3257199E-002  0.1250007E+03  0.7818608E-02  0.1235068E+00
          4   -1    0    0  501    0  0.00000000000E+00  0.00000000000E+00  0.70026702800E+03  0.70026817963E+03  0.12700000000E+01 0.  1.
         -4   -1    0    0    0  501 -0.00000000000E+00 -0.00000000000E+00 -0.55048381000E+01  0.56494373620E+01  0.12700000000E+01 0.  1.
         25    2    1    2    0    0  0.00000000000E+00  0.00000000000E+00  0.69476218990E+03  0.70591761699E+03  0.12500072586E+03 0.  0.
    9000005    1    3    3    0    0 -0.43606204201E+02  0.30111016133E+01  0.59960327936E+03  0.60119519325E+03  0.10000000000E+01 0.  0.
    9000005    1    3    3    0    0  0.43606204201E+02 -0.30111016133E+01  0.95158910542E+02  0.10472242374E+03  0.10000000000E+01 0.  0.
<mgrwt>
<rscale>  0 0.12500073E+03</rscale>
<asrwt>0</asrwt>
<pdfrwt beam="1">  1        4 0.10774459E+00 0.12500073E+03</pdfrwt>
<pdfrwt beam="2">  1       -4 0.85810987E-03 0.12500073E+03</pdfrwt>
<totfact> 0.42775472E+03</totfact>
</mgrwt>
</event>
<event>
 5    1  0.3257199E-002  0.1249957E+03  0.7818608E-02  0.1235076E+00
         -4   -1    0    0    0  501 -0.00000000000E+00  0.00000000000E+00  0.65499634430E+02  0.65511945555E+02  0.12700000000E+01 0.  1.
          4   -1    0    0  501    0  0.00000000000E+00 -0.00000000000E+00 -0.59608932190E+02  0.59622459668E+02  0.12700000000E+01 0.  1.
         25    2    1    2    0    0  0.00000000000E+00  0.00000000000E+00  0.58907022395E+01  0.12513440522E+03  0.12499567592E+03 0.  0.
    9000005    1    3    3    0    0  0.97052696294E+01 -0.29343308609E+02  0.57317302311E+02  0.65126762263E+02  0.10000000000E+01 0.  0.
    9000005    1    3    3    0    0 -0.97052696294E+01  0.29343308609E+02 -0.51426600072E+02  0.60007642960E+02  0.10000000000E+01 0.  0.
<mgrwt>
<rscale>  0 0.12499568E+03</rscale>
<asrwt>0</asrwt>
<pdfrwt beam="2">  1        4 0.91725926E-02 0.12499568E+03</pdfrwt>
<pdfrwt beam="1">  1       -4 0.10078854E-01 0.12499568E+03</pdfrwt>
<totfact> 0.10450965E+04</totfact>
</mgrwt>
</event>
<event>
 5    1  0.3257199E-002  0.1249956E+03  0.7818608E-02  0.1235076E+00
          4   -1    0    0  501    0  0.00000000000E+00  0.00000000000E+00  0.34749546570E+01  0.36997580824E+01  0.12700000000E+01 0.  1.
         -4   -1    0    0    0  501 -0.00000000000E+00 -0.00000000000E+00 -0.10885914317E+04  0.10885921725E+04  0.12700000000E+01 0.  1.
         25    2    1    2    0    0  0.00000000000E+00  0.00000000000E+00 -0.10851164770E+04  0.10922919306E+04  0.12499557155E+03 0.  0.
    9000005    1    3    3    0    0 -0.15878525113E+02  0.11116798146E+02 -0.23416344493E+02  0.30414403664E+02  0.10000000000E+01 0.  0.
    9000005    1    3    3    0    0  0.15878525113E+02 -0.11116798146E+02 -0.10617001325E+04  0.10618775269E+04  0.10000000000E+01 0.  0.
<mgrwt>
<rscale>  0 0.12499557E+03</rscale>
<asrwt>0</asrwt>
<pdfrwt beam="1">  1        4 0.55195884E-03 0.12499557E+03</pdfrwt>
<pdfrwt beam="2">  1       -4 0.16749269E+00 0.12499557E+03</pdfrwt>
<totfact> 0.27712807E+03</totfact>
</mgrwt>
</event>
<event>
 5    1  0.3257199E-002  0.1249979E+03  0.7818608E-02  0.1235073E+00
          4   -1    0    0  501    0  0.00000000000E+00  0.00000000000E+00  0.47350058772E+03  0.47350229088E+03  0.12700000000E+01 0. -1.
         -4   -1    0    0    0  501 -0.00000000000E+00 -0.00000000000E+00 -0.81988445547E+01  0.82966229294E+01  0.12700000000E+01 0. -1.
         25    2    1    2    0    0  0.00000000000E+00  0.00000000000E+00  0.46530174317E+03  0.48179891381E+03  0.12499792461E+03 0.  0.
    9000005    1    3    3    0    0 -0.61931579423E+02  0.95324229148E+00  0.26459663084E+03  0.27175136844E+03  0.10000000000E+01 0.  0.
    9000005    1    3    3    0    0  0.61931579423E+02 -0.95324229148E+00  0.20070511233E+03  0.21004754537E+03  0.10000000000E+01 0.  0.
<mgrwt>
<rscale>  0 0.12499792E+03</rscale>
<asrwt>0</asrwt>
<pdfrwt beam="1">  1        4 0.72853890E-01 0.12499792E+03</pdfrwt>
<pdfrwt beam="2">  1       -4 0.12690132E-02 0.12499792E+03</pdfrwt>
<totfact> 0.57307346E+03</totfact>
</mgrwt>
</event>
<event>
 5    1  0.3257199E-002  0.1249974E+03  0.7818608E-02  0.1235073E+00
          4   -1    0    0  501    0  0.00000000000E+00  0.00000000000E+00  0.95994385038E+02  0.96002785682E+02  0.12700000000E+01 0.  1.
         -4   -1    0    0    0  501 -0.00000000000E+00 -0.00000000000E+00 -0.40670724402E+02  0.40690548330E+02  0.12700000000E+01 0.  1.
         25    2    1    2    0    0  0.00000000000E+00  0.00000000000E+00  0.55323660636E+02  0.13669333401E+03  0.12499744052E+03 0.  0.
    9000005    1    3    3    0    0 -0.31053648793E+02  0.17612928811E+02  0.83749725043E+02  0.91047025264E+02  0.10000000000E+01 0.  0.
    9000005    1    3    3    0    0  0.31053648793E+02 -0.17612928811E+02 -0.28426064407E+02  0.45646308748E+02  0.10000000000E+01 0.  0.
<mgrwt>
<rscale>  0 0.12499744E+03</rscale>
<asrwt>0</asrwt>
<pdfrwt beam="1">  1        4 0.14770538E-01 0.12499744E+03</pdfrwt>
<pdfrwt beam="2">  1       -4 0.62592057E-02 0.12499744E+03</pdfrwt>
<totfact> 0.10203091E+04</totfact>
</mgrwt>
</event>
<event>
 5    1  0.3257199E-002  0.1250034E+03  0.7818608E-02  0.1235064E+00
         -4   -1    0    0    0  501 -0.00000000000E+00  0.00000000000E+00  0.30752905217E+01  0.33272078073E+01  0.12700000000E+01 0.  1.
          4   -1    0    0  501    0  0.00000000000E+00 -0.00000000000E+00 -0.12200399600E+04  0.12200406210E+04  0.12700000000E+01 0.  1.
         25    2    1    2    0    0  0.00000000000E+00  0.00000000000E+00 -0.12169646695E+04  0.12233678288E+04  0.12500335119E+03 0.  0.
    9000005    1    3    3    0    0 -0.15905526812E+02 -0.30254776661E+02 -0.96467564084E+02  0.10234905087E+03  0.10000000000E+01 0.  0.
    9000005    1    3    3    0    0  0.15905526812E+02  0.30254776661E+02 -0.11204971054E+04  0.11210187779E+04  0.10000000000E+01 0.  0.
<mgrwt>
<rscale>  0 0.12500335E+03</rscale>
<asrwt>0</asrwt>
<pdfrwt beam="2">  1        4 0.18771751E+00 0.12500335E+03</pdfrwt>
<pdfrwt beam="1">  1       -4 0.49255169E-03 0.12500335E+03</pdfrwt>
<totfact> 0.24107467E+03</totfact>
</mgrwt>
</event>
<event>
 5    1  0.3257199E-002  0.1250011E+03  0.7818608E-02  0.1235068E+00
         -4   -1    0    0    0  501 -0.00000000000E+00  0.00000000000E+00  0.24344470592E+02  0.24377574703E+02  0.12700000000E+01 0.  1.
          4   -1    0    0  501    0  0.00000000000E+00 -0.00000000000E+00 -0.16031559593E+03  0.16032062624E+03  0.12700000000E+01 0.  1.
         25    2    1    2    0    0  0.00000000000E+00  0.00000000000E+00 -0.13597112534E+03  0.18469820094E+03  0.12500111402E+03 0.  0.
    9000005    1    3    3    0    0 -0.10842004591E+02  0.60698005925E+02 -0.83019282424E+02  0.10341662459E+03  0.10000000000E+01 0.  0.
    9000005    1    3    3    0    0  0.10842004591E+02 -0.60698005925E+02 -0.52951842912E+02  0.81281576354E+02  0.10000000000E+01 0.  0.
<mgrwt>
<rscale>  0 0.12500111E+03</rscale>
<asrwt>0</asrwt>
<pdfrwt beam="2">  1        4 0.24666871E-01 0.12500111E+03</pdfrwt>
<pdfrwt beam="1">  1       -4 0.37482367E-02 0.12500111E+03</pdfrwt>
<totfact> 0.92775767E+03</totfact>
</mgrwt>
</event>
<event>
 5    1  0.3257199E-002  0.1249871E+03  0.7818608E-02  0.1235089E+00
         -4   -1    0    0    0  501 -0.00000000000E+00  0.00000000000E+00  0.51908858414E+02  0.51924391974E+02  0.12700000000E+01 0. -1.
          4   -1    0    0  501    0  0.00000000000E+00 -0.00000000000E+00 -0.75204385072E+02  0.75215107751E+02  0.12700000000E+01 0. -1.
         25    2    1    2    0    0  0.00000000000E+00  0.00000000000E+00 -0.23295526657E+02  0.12713949972E+03  0.12498708264E+03 0.  0.
    9000005    1    3    3    0    0 -0.29578070369E+02  0.54875707095E+02 -0.15991813359E+02  0.64365701817E+02  0.10000000000E+01 0.  0.
    9000005    1    3    3    0    0  0.29578070369E+02 -0.54875707095E+02 -0.73037132984E+01  0.62773797908E+02  0.10000000000E+01 0.  0.
<mgrwt>
<rscale>  0 0.12498708E+03</rscale>
<asrwt>0</asrwt>
<pdfrwt beam="2">  1        4 0.11571925E-01 0.12498708E+03</pdfrwt>
<pdfrwt beam="1">  1       -4 0.79879979E-02 0.12498708E+03</pdfrwt>
<totfact> 0.10409151E+04</totfact>
</mgrwt>
</event>
<event>
 5    1  0.3257199E-002  0.1250018E+03  0.7818608E-02  0.1235066E+00
         -4   -1    0    0    0  501 -0.00000000000E+00  0.00000000000E+00  0.57582937435E+01  0.58966810018E+01  0.12700000000E+01 0.  1.
          4   -1    0    0  501    0  0.00000000000E+00 -0.00000000000E+00 -0.67019512430E+03  0.67019632761E+03  0.12700000000E+01 0.  1.
         25    2    1    2    0    0  0.00000000000E+00  0.00000000000E+00 -0.66443683056E+03  0.67609300861E+03  0.12500181794E+03 0.  0.
    9000005    1    3    3    0    0 -0.62021009869E+02  0.48348690754E+01 -0.30004617595E+03  0.30642893030E+03  0.10000000000E+01 0.  0.
    9000005    1    3    3    0    0  0.62021009869E+02 -0.48348690754E+01 -0.36439065461E+03  0.36966407831E+03  0.10000000000E+01 0.  0.
<mgrwt>
<rscale>  0 0.12500182E+03</rscale>
<asrwt>0</asrwt>
<pdfrwt beam="2">  1        4 0.10311762E+00 0.12500182E+03</pdfrwt>
<pdfrwt beam="1">  1       -4 0.89662961E-03 0.12500182E+03</pdfrwt>
<totfact> 0.44377373E+03</totfact>
</mgrwt>
</event>
<event>
 5    1  0.3257199E-002  0.1249975E+03  0.7818608E-02  0.1235073E+00
         -4   -1    0    0    0  501 -0.00000000000E+00  0.00000000000E+00  0.73092690550E+03  0.73092800882E+03  0.12700000000E+01 0. -1.
          4   -1    0    0  501    0  0.00000000000E+00 -0.00000000000E+00 -0.52674499964E+01  0.54183880873E+01  0.12700000000E+01 0. -1.
         25    2    1    2    0    0  0.00000000000E+00  0.00000000000E+00  0.72565945550E+03  0.73634639691E+03  0.12499748351E+03 0.  0.
    9000005    1    3    3    0    0 -0.53226405752E+02 -0.26981830999E+02  0.47209314821E+03  0.47585082753E+03  0.10000000000E+01 0.  0.
    9000005    1    3    3    0    0  0.53226405752E+02  0.26981830999E+02  0.25356630729E+03  0.26049556938E+03  0.10000000000E+01 0.  0.
<mgrwt>
<rscale>  0 0.12499748E+03</rscale>
<asrwt>0</asrwt>
<pdfrwt beam="2">  1        4 0.82207269E-03 0.12499748E+03</pdfrwt>
<pdfrwt beam="1">  1       -4 0.11246195E+00 0.12499748E+03</pdfrwt>
<totfact> 0.41238139E+03</totfact>
</mgrwt>
</event>
<event>
 5    1  0.3257199E-002  0.1249999E+03  0.7818608E-02  0.1235069E+00
         -4   -1    0    0    0  501 -0.00000000000E+00  0.00000000000E+00  0.50706322139E+02  0.50722223974E+02  0.12700000000E+01 0.  1.
          4   -1    0    0  501    0  0.00000000000E+00 -0.00000000000E+00 -0.77003363788E+02  0.77013835995E+02  0.12700000000E+01 0.  1.
         25    2    1    2    0    0  0.00000000000E+00  0.00000000000E+00 -0.26297041649E+02  0.12773605997E+03  0.12499986647E+03 0.  0.
    9000005    1    3    3    0    0 -0.27409542138E+02 -0.32429376712E+01  0.44145155935E+02  0.52072972236E+02  0.10000000000E+01 0.  0.
    9000005    1    3    3    0    0  0.27409542138E+02  0.32429376712E+01 -0.70442197584E+02  0.75663087734E+02  0.10000000000E+01 0.  0.
<mgrwt>
<rscale>  0 0.12499987E+03</rscale>
<asrwt>0</asrwt>
<pdfrwt beam="2">  1        4 0.11848700E-01 0.12499987E+03</pdfrwt>
<pdfrwt beam="1">  1       -4 0.78030014E-02 0.12499987E+03</pdfrwt>
<totfact> 0.10393223E+04</totfact>
</mgrwt>
</event>
<event>
 5    1  0.3257199E-002  0.1249998E+03  0.7818608E-02  0.1235070E+00
         -4   -1    0    0    0  501 -0.00000000000E+00  0.00000000000E+00  0.89841054535E+02  0.89850030495E+02  0.12700000000E+01 0. -1.
          4   -1    0    0  501    0  0.00000000000E+00 -0.00000000000E+00 -0.43459006267E+02  0.43477558875E+02  0.12700000000E+01 0. -1.
         25    2    1    2    0    0  0.00000000000E+00  0.00000000000E+00  0.46382048268E+02  0.13332758937E+03  0.12499980674E+03 0.  0.
    9000005    1    3    3    0    0 -0.52285264290E+02 -0.19858393127E+02 -0.65433252193E+01  0.56319798867E+02  0.10000000000E+01 0.  0.
    9000005    1    3    3    0    0  0.52285264290E+02  0.19858393127E+02  0.52925373487E+02  0.77007790503E+02  0.10000000000E+01 0.  0.
<mgrwt>
<rscale>  0 0.12499981E+03</rscale>
<asrwt>0</asrwt>
<pdfrwt beam="2">  1        4 0.66881186E-02 0.12499981E+03</pdfrwt>
<pdfrwt beam="1">  1       -4 0.13823818E-01 0.12499981E+03</pdfrwt>
<totfact> 0.10273487E+04</totfact>
</mgrwt>
</event>
<event>
 4    1  0.3257199E-002  0.1250746E+03  0.7818608E-02  0.1234953E+00
         -4   -1    0    0    0  501 -0.00000000000E+00  0.00000000000E+00  0.66160707658E+02  0.66172895794E+02  0.12700000000E+01 0.  1.
          4   -1    0    0  501    0  0.00000000000E+00 -0.00000000000E+00 -0.59087860854E+02  0.59101507598E+02  0.12700000000E+01 0.  1.
    9000005    1    1    2    0    0 -0.40234938913E+02  0.29520929230E+02 -0.34201047210E+02  0.60506588089E+02  0.10000000000E+01 0.  0.
    9000005    1    1    2    0    0  0.40234938913E+02 -0.29520929230E+02  0.41273894013E+02  0.64767815302E+02  0.10000000000E+01 0.  0.
<mgrwt>
<rscale>  0 0.12507458E+03</rscale>
<asrwt>0</asrwt>
<pdfrwt beam="2">  1        4 0.90924274E-02 0.12507458E+03</pdfrwt>
<pdfrwt beam="1">  1       -4 0.10180558E-01 0.12507458E+03</pdfrwt>
<totfact> 0.10429317E+04</totfact>
</mgrwt>
</event>
<event>
 5    1  0.3257199E-002  0.1250002E+03  0.7818608E-02  0.1235069E+00
         -4   -1    0    0    0  501 -0.00000000000E+00  0.00000000000E+00  0.17462529506E+03  0.17462991318E+03  0.12700000000E+01 0. -1.
          4   -1    0    0  501    0  0.00000000000E+00 -0.00000000000E+00 -0.22346444652E+02  0.22382504073E+02  0.12700000000E+01 0. -1.
         25    2    1    2    0    0  0.00000000000E+00  0.00000000000E+00  0.15227885041E+03  0.19701241725E+03  0.12500017707E+03 0.  0.
    9000005    1    3    3    0    0 -0.51878034680E+02 -0.34478153695E+02  0.68229442667E+02  0.92392263806E+02  0.10000000000E+01 0.  0.
    9000005    1    3    3    0    0  0.51878034680E+02  0.34478153695E+02  0.84049407743E+02  0.10462015344E+03  0.10000000000E+01 0.  0.
<mgrwt>
<rscale>  0 0.12500018E+03</rscale>
<asrwt>0</asrwt>
<pdfrwt beam="2">  1        4 0.34410435E-02 0.12500018E+03</pdfrwt>
<pdfrwt beam="1">  1       -4 0.26868560E-01 0.12500018E+03</pdfrwt>
<totfact> 0.90640930E+03</totfact>
</mgrwt>
</event>
<event>
 5    1  0.3257199E-002  0.1249989E+03  0.7818608E-02  0.1235071E+00
         -4   -1    0    0    0  501 -0.00000000000E+00  0.00000000000E+00  0.15930526985E+02  0.15981069740E+02  0.12700000000E+01 0. -1.
          4   -1    0    0  501    0  0.00000000000E+00 -0.00000000000E+00 -0.24476032361E+03  0.24476361845E+03  0.12700000000E+01 0. -1.
         25    2    1    2    0    0  0.00000000000E+00  0.00000000000E+00 -0.22882979663E+03  0.26074468819E+03  0.12499886637E+03 0.  0.
    9000005    1    3    3    0    0 -0.30613706057E+02  0.31540860237E+02 -0.20707439099E+03  0.21169040664E+03  0.10000000000E+01 0.  0.
    9000005    1    3    3    0    0  0.30613706057E+02 -0.31540860237E+02 -0.21755405643E+02  0.49054281543E+02  0.10000000000E+01 0.  0.
<mgrwt>
<rscale>  0 0.12499887E+03</rscale>
<asrwt>0</asrwt>
<pdfrwt beam="2">  1        4 0.37659573E-01 0.12499887E+03</pdfrwt>
<pdfrwt beam="1">  1       -4 0.24549918E-02 0.12499887E+03</pdfrwt>
<totfact> 0.80803708E+03</totfact>
</mgrwt>
</event>
<event>
 5    1  0.3257199E-002  0.1249962E+03  0.7818608E-02  0.1235075E+00
          4   -1    0    0  501    0  0.00000000000E+00  0.00000000000E+00  0.38900620897E+02  0.38921346408E+02  0.12700000000E+01 0.  1.
         -4   -1    0    0    0  501 -0.00000000000E+00 -0.00000000000E+00 -0.10035851175E+03  0.10036654712E+03  0.12700000000E+01 0.  1.
         25    2    1    2    0    0  0.00000000000E+00  0.00000000000E+00 -0.61457890857E+02  0.13928789353E+03  0.12499617969E+03 0.  0.
    9000005    1    3    3    0    0  0.37988365871E+02  0.19217003274E+02 -0.81704264982E+02  0.92135748071E+02  0.10000000000E+01 0.  0.
    9000005    1    3    3    0    0 -0.37988365871E+02 -0.19217003274E+02  0.20246374125E+02  0.47152145461E+02  0.10000000000E+01 0.  0.
<mgrwt>
<rscale>  0 0.12499618E+03</rscale>
<asrwt>0</asrwt>
<pdfrwt beam="1">  1        4 0.59869233E-02 0.12499618E+03</pdfrwt>
<pdfrwt beam="2">  1       -4 0.15441983E-01 0.12499618E+03</pdfrwt>
<totfact> 0.10149239E+04</totfact>
</mgrwt>
</event>
<event>
 5    1  0.3257199E-002  0.1250027E+03  0.7818608E-02  0.1235065E+00
         -4   -1    0    0    0  501 -0.00000000000E+00  0.00000000000E+00  0.17162308416E+03  0.17162778305E+03  0.12700000000E+01 0.  1.
          4   -1    0    0  501    0  0.00000000000E+00 -0.00000000000E+00 -0.22738879134E+02  0.22774317208E+02  0.12700000000E+01 0.  1.
         25    2    1    2    0    0  0.00000000000E+00  0.00000000000E+00  0.14888420502E+03  0.19440210026E+03  0.12500268029E+03 0.  0.
    9000005    1    3    3    0    0  0.21393731280E+02  0.58606747944E+02  0.80043975529E+02  0.10149128367E+03  0.10000000000E+01 0.  0.
    9000005    1    3    3    0    0 -0.21393731280E+02 -0.58606747944E+02  0.68840229496E+02  0.92910816591E+02  0.10000000000E+01 0.  0.
<mgrwt>
<rscale>  0 0.12500268E+03</rscale>
<asrwt>0</asrwt>
<pdfrwt beam="2">  1        4 0.35013765E-02 0.12500268E+03</pdfrwt>
<pdfrwt beam="1">  1       -4 0.26406639E-01 0.12500268E+03</pdfrwt>
<totfact> 0.91081489E+03</totfact>
</mgrwt>
</event>
<event>
 5    1  0.3257199E-002  0.1250036E+03  0.7818608E-02  0.1235064E+00
          4   -1    0    0  501    0  0.00000000000E+00  0.00000000000E+00  0.25240478349E+02  0.25272408815E+02  0.12700000000E+01 0.  1.
         -4   -1    0    0    0  501 -0.00000000000E+00 -0.00000000000E+00 -0.15463792458E+03  0.15464313958E+03  0.12700000000E+01 0.  1.
         25    2    1    2    0    0  0.00000000000E+00  0.00000000000E+00 -0.12939744623E+03  0.17991554839E+03  0.12500362180E+03 0.  0.
    9000005    1    3    3    0    0 -0.19335950496E+02 -0.52303528371E+02 -0.24093135158E+02  0.60753742464E+02  0.10000000000E+01 0.  0.
    9000005    1    3    3    0    0  0.19335950496E+02  0.52303528371E+02 -0.10530431107E+03  0.11916180593E+03  0.10000000000E+01 0.  0.
<mgrwt>
<rscale>  0 0.12500362E+03</rscale>
<asrwt>0</asrwt>
<pdfrwt beam="1">  1        4 0.38860080E-02 0.12500362E+03</pdfrwt>
<pdfrwt beam="2">  1       -4 0.23793307E-01 0.12500362E+03</pdfrwt>
<totfact> 0.93624604E+03</totfact>
</mgrwt>
</event>
<event>
 5    1  0.3257199E-002  0.1250003E+03  0.7818608E-02  0.1235069E+00
          4   -1    0    0  501    0  0.00000000000E+00  0.00000000000E+00  0.56441281749E+02  0.56455568242E+02  0.12700000000E+01 0. -1.
         -4   -1    0    0    0  501 -0.00000000000E+00 -0.00000000000E+00 -0.69180599597E+02  0.69192255785E+02  0.12700000000E+01 0. -1.
         25    2    1    2    0    0  0.00000000000E+00  0.00000000000E+00 -0.12739317847E+02  0.12564782403E+03  0.12500034185E+03 0.  0.
    9000005    1    3    3    0    0 -0.21489237976E+00 -0.61434094044E+02 -0.17877860888E+02  0.63990718075E+02  0.10000000000E+01 0.  0.
    9000005    1    3    3    0    0  0.21489237976E+00  0.61434094044E+02  0.51385430402E+01  0.61657105952E+02  0.10000000000E+01 0.  0.
<mgrwt>
<rscale>  0 0.12500034E+03</rscale>
<asrwt>0</asrwt>
<pdfrwt beam="1">  1        4 0.86852696E-02 0.12500034E+03</pdfrwt>
<pdfrwt beam="2">  1       -4 0.10645165E-01 0.12500034E+03</pdfrwt>
<totfact> 0.10438613E+04</totfact>
</mgrwt>
</event>
<event>
 5    1  0.3257199E-002  0.1249975E+03  0.7818608E-02  0.1235073E+00
          4   -1    0    0  501    0  0.00000000000E+00  0.00000000000E+00  0.35996587835E+02  0.36018984380E+02  0.12700000000E+01 0.  1.
         -4   -1    0    0    0  501 -0.00000000000E+00 -0.00000000000E+00 -0.10845309681E+03  0.10846053249E+03  0.12700000000E+01 0.  1.
         25    2    1    2    0    0  0.00000000000E+00  0.00000000000E+00 -0.72456508975E+02  0.14447951687E+03  0.12499754038E+03 0.  0.
    9000005    1    3    3    0    0  0.45616741552E+02 -0.38639182013E+02 -0.15192169743E+02  0.61690157383E+02  0.10000000000E+01 0.  0.
    9000005    1    3    3    0    0 -0.45616741552E+02  0.38639182013E+02 -0.57264339232E+02  0.82789359486E+02  0.10000000000E+01 0.  0.
<mgrwt>
<rscale>  0 0.12499754E+03</rscale>
<asrwt>0</asrwt>
<pdfrwt beam="1">  1        4 0.55402314E-02 0.12499754E+03</pdfrwt>
<pdfrwt beam="2">  1       -4 0.16687386E-01 0.12499754E+03</pdfrwt>
<totfact> 0.10042130E+04</totfact>
</mgrwt>
</event>
<event>
 5    1  0.3257199E-002  0.1249789E+03  0.7818608E-02  0.1235102E+00
         -4   -1    0    0    0  501 -0.00000000000E+00  0.00000000000E+00  0.17142302264E+02  0.17189282326E+02  0.12700000000E+01 0.  1.
          4   -1    0    0  501    0  0.00000000000E+00 -0.00000000000E+00 -0.22743464987E+03  0.22743819569E+03  0.12700000000E+01 0.  1.
         25    2    1    2    0    0  0.00000000000E+00  0.00000000000E+00 -0.21029234760E+03  0.24462747802E+03  0.12497892439E+03 0.  0.
    9000005    1    3    3    0    0 -0.12374998328E+01 -0.24911106676E+02  0.69851736883E+01  0.25920788821E+02  0.10000000000E+01 0.  0.
    9000005    1    3    3    0    0  0.12374998328E+01  0.24911106676E+02 -0.21727752129E+03  0.21870668920E+03  0.10000000000E+01 0.  0.
<mgrwt>
<rscale>  0 0.12497892E+03</rscale>
<asrwt>0</asrwt>
<pdfrwt beam="2">  1        4 0.34993831E-01 0.12497892E+03</pdfrwt>
<pdfrwt beam="1">  1       -4 0.26411640E-02 0.12497892E+03</pdfrwt>
<totfact> 0.83152028E+03</totfact>
</mgrwt>
</event>
<event>
 5    1  0.3257199E-002  0.1249985E+03  0.7818608E-02  0.1235072E+00
          4   -1    0    0  501    0  0.00000000000E+00  0.00000000000E+00  0.62422994703E+01  0.63701807413E+01  0.12700000000E+01 0.  1.
         -4   -1    0    0    0  501 -0.00000000000E+00 -0.00000000000E+00 -0.61928284640E+03  0.61928414863E+03  0.12700000000E+01 0.  1.
         25    2    1    2    0    0  0.00000000000E+00  0.00000000000E+00 -0.61304054693E+03  0.62565432938E+03  0.12499851072E+03 0.  0.
    9000005    1    3    3    0    0  0.25141555078E+01  0.41517033029E+01 -0.61836253115E+03  0.61838238780E+03  0.10000000000E+01 0.  0.
    9000005    1    3    3    0    0 -0.25141555078E+01 -0.41517033029E+01  0.53219842150E+01  0.72719415714E+01  0.10000000000E+01 0.  0.
<mgrwt>
<rscale>  0 0.12499851E+03</rscale>
<asrwt>0</asrwt>
<pdfrwt beam="1">  1        4 0.97029145E-03 0.12499851E+03</pdfrwt>
<pdfrwt beam="2">  1       -4 0.95284173E-01 0.12499851E+03</pdfrwt>
<totfact> 0.47288831E+03</totfact>
</mgrwt>
</event>
<event>
 5    1  0.3257199E-002  0.1249906E+03  0.7818608E-02  0.1235084E+00
          4   -1    0    0  501    0  0.00000000000E+00  0.00000000000E+00  0.58394402151E+02  0.58408210918E+02  0.12700000000E+01 0.  1.
         -4   -1    0    0    0  501 -0.00000000000E+00 -0.00000000000E+00 -0.66856478537E+02  0.66868539855E+02  0.12700000000E+01 0.  1.
         25    2    1    2    0    0  0.00000000000E+00  0.00000000000E+00 -0.84620763856E+01  0.12527675077E+03  0.12499062984E+03 0.  0.
    9000005    1    3    3    0    0  0.55152791779E+02 -0.76463850201E+01 -0.32657321306E+02  0.64558487279E+02  0.10000000000E+01 0.  0.
    9000005    1    3    3    0    0 -0.55152791779E+02  0.76463850201E+01  0.24195244921E+02  0.60718263494E+02  0.10000000000E+01 0.  0.
<mgrwt>
<rscale>  0 0.12499063E+03</rscale>
<asrwt>0</asrwt>
<pdfrwt beam="1">  1        4 0.89857442E-02 0.12499063E+03</pdfrwt>
<pdfrwt beam="2">  1       -4 0.10287602E-01 0.12499063E+03</pdfrwt>
<totfact> 0.10449067E+04</totfact>
</mgrwt>
</event>
<event>
 5    1  0.3257199E-002  0.1249936E+03  0.7818608E-02  0.1235079E+00
         -4   -1    0    0    0  501 -0.00000000000E+00  0.00000000000E+00  0.23044663281E+03  0.23045013229E+03  0.12700000000E+01 0.  1.
          4   -1    0    0  501    0  0.00000000000E+00 -0.00000000000E+00 -0.16921628512E+02  0.16969219531E+02  0.12700000000E+01 0.  1.
         25    2    1    2    0    0  0.00000000000E+00  0.00000000000E+00  0.21352500430E+03  0.24741935182E+03  0.12499363262E+03 0.  0.
    9000005    1    3    3    0    0  0.25909712443E+02  0.56719442882E+02  0.11478934717E+03  0.13063691142E+03  0.10000000000E+01 0.  0.
    9000005    1    3    3    0    0 -0.25909712443E+02 -0.56719442882E+02  0.98735657124E+02  0.11678244041E+03  0.10000000000E+01 0.  0.
<mgrwt>
<rscale>  0 0.12499363E+03</rscale>
<asrwt>0</asrwt>
<pdfrwt beam="2">  1        4 0.26072578E-02 0.12499363E+03</pdfrwt>
<pdfrwt beam="1">  1       -4 0.35457255E-01 0.12499363E+03</pdfrwt>
<totfact> 0.82716385E+03</totfact>
</mgrwt>
</event>
<event>
 5    1  0.3257199E-002  0.1250014E+03  0.7818608E-02  0.1235067E+00
         -4   -1    0    0    0  501 -0.00000000000E+00  0.00000000000E+00  0.13380841231E+02  0.13440975115E+02  0.12700000000E+01 0.  1.
          4   -1    0    0  501    0  0.00000000000E+00 -0.00000000000E+00 -0.29121921612E+03  0.29122198533E+03  0.12700000000E+01 0.  1.
         25    2    1    2    0    0  0.00000000000E+00  0.00000000000E+00 -0.27783837489E+03  0.30466296045E+03  0.12500142761E+03 0.  0.
    9000005    1    3    3    0    0 -0.57822221694E+02 -0.21994193771E+02 -0.16047018427E+03  0.17198498167E+03  0.10000000000E+01 0.  0.
    9000005    1    3    3    0    0  0.57822221694E+02  0.21994193771E+02 -0.11736819063E+03  0.13267797878E+03  0.10000000000E+01 0.  0.
<mgrwt>
<rscale>  0 0.12500143E+03</rscale>
<asrwt>0</asrwt>
<pdfrwt beam="2">  1        4 0.44807790E-01 0.12500143E+03</pdfrwt>
<pdfrwt beam="1">  1       -4 0.20634299E-02 0.12500143E+03</pdfrwt>
<totfact> 0.75015249E+03</totfact>
</mgrwt>
</event>
<event>
 5    1  0.3257199E-002  0.1249981E+03  0.7818608E-02  0.1235072E+00
         -4   -1    0    0    0  501 -0.00000000000E+00  0.00000000000E+00  0.58670560884E+02  0.58684304669E+02  0.12700000000E+01 0. -1.
          4   -1    0    0  501    0  0.00000000000E+00 -0.00000000000E+00 -0.66549785743E+02  0.66561902636E+02  0.12700000000E+01 0. -1.
         25    2    1    2    0    0  0.00000000000E+00  0.00000000000E+00 -0.78792248591E+01  0.12524620730E+03  0.12499812102E+03 0.  0.
    9000005    1    3    3    0    0 -0.36012912318E+02 -0.26006078824E+02  0.40100854116E+02  0.59852522840E+02  0.10000000000E+01 0.  0.
    9000005    1    3    3    0    0  0.36012912318E+02  0.26006078824E+02 -0.47980078975E+02  0.65393684465E+02  0.10000000000E+01 0.  0.
<mgrwt>
<rscale>  0 0.12499812E+03</rscale>
<asrwt>0</asrwt>
<pdfrwt beam="2">  1        4 0.10240418E-01 0.12499812E+03</pdfrwt>
<pdfrwt beam="1">  1       -4 0.90282294E-02 0.12499812E+03</pdfrwt>
<totfact> 0.10447961E+04</totfact>
</mgrwt>
</event>
<event>
 5    1  0.3257199E-002  0.1250065E+03  0.7818608E-02  0.1235059E+00
         -4   -1    0    0    0  501 -0.00000000000E+00  0.00000000000E+00  0.22293626906E+03  0.22293988644E+03  0.12700000000E+01 0. -1.
          4   -1    0    0  501    0  0.00000000000E+00 -0.00000000000E+00 -0.17496862379E+02  0.17542892951E+02  0.12700000000E+01 0. -1.
         25    2    1    2    0    0  0.00000000000E+00  0.00000000000E+00  0.20543940668E+03  0.24048277939E+03  0.12500646928E+03 0.  0.
    9000005    1    3    3    0    0 -0.54122662419E+02 -0.31246883760E+02  0.10242162156E+03  0.11998674466E+03  0.10000000000E+01 0.  0.
    9000005    1    3    3    0    0  0.54122662419E+02  0.31246883760E+02  0.10301778512E+03  0.12049603472E+03  0.10000000000E+01 0.  0.
<mgrwt>
<rscale>  0 0.12500647E+03</rscale>
<asrwt>0</asrwt>
<pdfrwt beam="2">  1        4 0.26956440E-02 0.12500647E+03</pdfrwt>
<pdfrwt beam="1">  1       -4 0.34301707E-01 0.12500647E+03</pdfrwt>
<totfact> 0.83713444E+03</totfact>
</mgrwt>
</event>
<event>
 5    1  0.3257199E-002  0.1249995E+03  0.7818608E-02  0.1235070E+00
          4   -1    0    0  501    0  0.00000000000E+00  0.00000000000E+00  0.10642570869E+03  0.10643328600E+03  0.12700000000E+01 0. -1.
         -4   -1    0    0    0  501 -0.00000000000E+00 -0.00000000000E+00 -0.36683849157E+02  0.36705826363E+02  0.12700000000E+01 0. -1.
         25    2    1    2    0    0  0.00000000000E+00  0.00000000000E+00  0.69741859530E+02  0.14313911237E+03  0.12499951407E+03 0.  0.
    9000005    1    3    3    0    0  0.40619997000E+02 -0.25456163251E+02  0.80778843244E+02  0.93937329744E+02  0.10000000000E+01 0.  0.
    9000005    1    3    3    0    0 -0.40619997000E+02  0.25456163251E+02 -0.11036983714E+02  0.49201782622E+02  0.10000000000E+01 0.  0.
<mgrwt>
<rscale>  0 0.12499951E+03</rscale>
<asrwt>0</asrwt>
<pdfrwt beam="1">  1        4 0.16375459E-01 0.12499951E+03</pdfrwt>
<pdfrwt beam="2">  1       -4 0.56459425E-02 0.12499951E+03</pdfrwt>
<totfact> 0.10069046E+04</totfact>
</mgrwt>
</event>
<event>
 5    1  0.3257199E-002  0.1250015E+03  0.7818608E-02  0.1235067E+00
         -4   -1    0    0    0  501 -0.00000000000E+00  0.00000000000E+00  0.86813331089E+02  0.86822620064E+02  0.12700000000E+01 0. -1.
          4   -1    0    0  501    0  0.00000000000E+00 -0.00000000000E+00 -0.44976417018E+02  0.44994343953E+02  0.12700000000E+01 0. -1.
         25    2    1    2    0    0  0.00000000000E+00  0.00000000000E+00  0.41836914071E+02  0.13181696402E+03  0.12500153848E+03 0.  0.
    9000005    1    3    3    0    0  0.42510092062E+02  0.30097761023E+02 -0.15494855945E+02  0.54351391026E+02  0.10000000000E+01 0.  0.
    9000005    1    3    3    0    0 -0.42510092062E+02 -0.30097761023E+02  0.57331770015E+02  0.77465572991E+02  0.10000000000E+01 0.  0.
<mgrwt>
<rscale>  0 0.12500154E+03</rscale>
<asrwt>0</asrwt>
<pdfrwt beam="2">  1        4 0.69215423E-02 0.12500154E+03</pdfrwt>
<pdfrwt beam="1">  1       -4 0.13357991E-01 0.12500154E+03</pdfrwt>
<totfact> 0.10305249E+04</totfact>
</mgrwt>
</event>
<event>
 5    1  0.3257199E-002  0.1250014E+03  0.7818608E-02  0.1235067E+00
         -4   -1    0    0    0  501 -0.00000000000E+00  0.00000000000E+00  0.32720340188E+02  0.32744977661E+02  0.12700000000E+01 0. -1.
          4   -1    0    0  501    0  0.00000000000E+00 -0.00000000000E+00 -0.11931272498E+03  0.11931948392E+03  0.12700000000E+01 0. -1.
         25    2    1    2    0    0  0.00000000000E+00  0.00000000000E+00 -0.86592384794E+02  0.15206446158E+03  0.12500143748E+03 0.  0.
    9000005    1    3    3    0    0 -0.47493512094E+01  0.50636713033E+02 -0.87472238645E+02  0.10118807033E+03  0.10000000000E+01 0.  0.
    9000005    1    3    3    0    0  0.47493512094E+01 -0.50636713033E+02  0.87985385048E+00  0.50876391249E+02  0.10000000000E+01 0.  0.
<mgrwt>
<rscale>  0 0.12500144E+03</rscale>
<asrwt>0</asrwt>
<pdfrwt beam="2">  1        4 0.18358219E-01 0.12500144E+03</pdfrwt>
<pdfrwt beam="1">  1       -4 0.50363136E-02 0.12500144E+03</pdfrwt>
<totfact> 0.98890561E+03</totfact>
</mgrwt>
</event>
<event>
 5    1  0.3257199E-002  0.1249991E+03  0.7818608E-02  0.1235071E+00
         -4   -1    0    0    0  501 -0.00000000000E+00  0.00000000000E+00  0.16144886827E+03  0.16145386327E+03  0.12700000000E+01 0.  1.
          4   -1    0    0  501    0  0.00000000000E+00 -0.00000000000E+00 -0.24172588027E+02  0.24205927206E+02  0.12700000000E+01 0.  1.
         25    2    1    2    0    0  0.00000000000E+00  0.00000000000E+00  0.13727628024E+03  0.18565979048E+03  0.12499912273E+03 0.  0.
    9000005    1    3    3    0    0  0.40778420604E+02 -0.28186168551E+02  0.12121869112E+02  0.51041937613E+02  0.10000000000E+01 0.  0.
    9000005    1    3    3    0    0 -0.40778420604E+02  0.28186168551E+02  0.12515441113E+03  0.13461785286E+03  0.10000000000E+01 0.  0.
<mgrwt>
<rscale>  0 0.12499912E+03</rscale>
<asrwt>0</asrwt>
<pdfrwt beam="2">  1        4 0.37218085E-02 0.12499912E+03</pdfrwt>
<pdfrwt beam="1">  1       -4 0.24841236E-01 0.12499912E+03</pdfrwt>
<totfact> 0.92609849E+03</totfact>
</mgrwt>
</event>
<event>
 5    1  0.3257199E-002  0.1250408E+03  0.7818608E-02  0.1235006E+00
          4   -1    0    0  501    0  0.00000000000E+00  0.00000000000E+00  0.44901706798E+03  0.44901886401E+03  0.12700000000E+01 0.  1.
         -4   -1    0    0    0  501 -0.00000000000E+00 -0.00000000000E+00 -0.86570965578E+01  0.87497554715E+01  0.12700000000E+01 0.  1.
         25    2    1    2    0    0  0.00000000000E+00  0.00000000000E+00  0.44035997142E+03  0.45776861948E+03  0.12504081154E+03 0.  0.
    9000005    1    3    3    0    0  0.59104070956E+02  0.48217421873E+01  0.29259479119E+03  0.29854522645E+03  0.10000000000E+01 0.  0.
    9000005    1    3    3    0    0 -0.59104070956E+02 -0.48217421873E+01  0.14776518023E+03  0.15922339303E+03  0.10000000000E+01 0.  0.
<mgrwt>
<rscale>  0 0.12504081E+03</rscale>
<asrwt>0</asrwt>
<pdfrwt beam="1">  1        4 0.69086820E-01 0.12504081E+03</pdfrwt>
<pdfrwt beam="2">  1       -4 0.13391267E-02 0.12504081E+03</pdfrwt>
<totfact> 0.59243396E+03</totfact>
</mgrwt>
</event>
<event>
 5    1  0.3257199E-002  0.1250041E+03  0.7818608E-02  0.1235063E+00
         -4   -1    0    0    0  501 -0.00000000000E+00  0.00000000000E+00  0.47432383172E+02  0.47449382224E+02  0.12700000000E+01 0. -1.
          4   -1    0    0  501    0  0.00000000000E+00 -0.00000000000E+00 -0.82322801847E+02  0.82332597457E+02  0.12700000000E+01 0. -1.
         25    2    1    2    0    0  0.00000000000E+00  0.00000000000E+00 -0.34890418675E+02  0.12978197968E+03  0.12500408367E+03 0.  0.
    9000005    1    3    3    0    0  0.17959116272E+02 -0.59753989215E+02 -0.13783927538E+02  0.63906695602E+02  0.10000000000E+01 0.  0.
    9000005    1    3    3    0    0 -0.17959116272E+02  0.59753989215E+02 -0.21106491137E+02  0.65875284079E+02  0.10000000000E+01 0.  0.
<mgrwt>
<rscale>  0 0.12500408E+03</rscale>
<asrwt>0</asrwt>
<pdfrwt beam="2">  1        4 0.12667108E-01 0.12500408E+03</pdfrwt>
<pdfrwt beam="1">  1       -4 0.72993509E-02 0.12500408E+03</pdfrwt>
<totfact> 0.10348220E+04</totfact>
</mgrwt>
</event>
<event>
 5    1  0.3257199E-002  0.1250015E+03  0.7818608E-02  0.1235067E+00
         -4   -1    0    0    0  501 -0.00000000000E+00  0.00000000000E+00  0.12302366481E+04  0.12302373037E+04  0.12700000000E+01 0. -1.
          4   -1    0    0  501    0  0.00000000000E+00 -0.00000000000E+00 -0.30476056378E+01  0.33016359769E+01  0.12700000000E+01 0. -1.
         25    2    1    2    0    0  0.00000000000E+00  0.00000000000E+00  0.12271890425E+04  0.12335389396E+04  0.12500147828E+03 0.  0.
    9000005    1    3    3    0    0 -0.66563513050E+01  0.42308268762E+02  0.16450537036E+03  0.16999209833E+03  0.10000000000E+01 0.  0.
    9000005    1    3    3    0    0  0.66563513050E+01 -0.42308268762E+02  0.10626836721E+04  0.10635468413E+04  0.10000000000E+01 0.  0.
<mgrwt>
<rscale>  0 0.12500148E+03</rscale>
<asrwt>0</asrwt>
<pdfrwt beam="2">  1        4 0.48845278E-03 0.12500148E+03</pdfrwt>
<pdfrwt beam="1">  1       -4 0.18928710E+00 0.12500148E+03</pdfrwt>
<totfact> 0.23850544E+03</totfact>
</mgrwt>
</event>
<event>
 5    1  0.3257199E-002  0.1249987E+03  0.7818608E-02  0.1235071E+00
          4   -1    0    0  501    0  0.00000000000E+00  0.00000000000E+00  0.10743538392E+03  0.10744289003E+03  0.12700000000E+01 0. -1.
         -4   -1    0    0    0  501 -0.00000000000E+00 -0.00000000000E+00 -0.36338441341E+02  0.36360627320E+02  0.12700000000E+01 0. -1.
         25    2    1    2    0    0  0.00000000000E+00  0.00000000000E+00  0.71096942583E+02  0.14380351735E+03  0.12499870543E+03 0.  0.
    9000005    1    3    3    0    0 -0.28020861772E+02  0.55573758920E+02  0.42011212518E+02  0.75096959673E+02  0.10000000000E+01 0.  0.
    9000005    1    3    3    0    0  0.28020861772E+02 -0.55573758920E+02  0.29085730065E+02  0.68706557681E+02  0.10000000000E+01 0.  0.
<mgrwt>
<rscale>  0 0.12499871E+03</rscale>
<asrwt>0</asrwt>
<pdfrwt beam="1">  1        4 0.16530804E-01 0.12499871E+03</pdfrwt>
<pdfrwt beam="2">  1       -4 0.55928135E-02 0.12499871E+03</pdfrwt>
<totfact> 0.10055648E+04</totfact>
</mgrwt>
</event>
<event>
 5    1  0.3257199E-002  0.1249942E+03  0.7818608E-02  0.1235078E+00
          4   -1    0    0  501    0  0.00000000000E+00  0.00000000000E+00  0.49355709836E+03  0.49355873232E+03  0.12700000000E+01 0.  1.
         -4   -1    0    0    0  501 -0.00000000000E+00 -0.00000000000E+00 -0.78611388671E+01  0.79630650059E+01  0.12700000000E+01 0.  1.
         25    2    1    2    0    0  0.00000000000E+00  0.00000000000E+00  0.48569595950E+03  0.50152179732E+03  0.12499419233E+03 0.  0.
    9000005    1    3    3    0    0  0.57630611580E+01 -0.43159055659E+02  0.63007806655E+02  0.76595696085E+02  0.10000000000E+01 0.  0.
    9000005    1    3    3    0    0 -0.57630611580E+01  0.43159055659E+02  0.42268815284E+03  0.42492610124E+03  0.10000000000E+01 0.  0.
<mgrwt>
<rscale>  0 0.12499419E+03</rscale>
<asrwt>0</asrwt>
<pdfrwt beam="1">  1        4 0.75939806E-01 0.12499419E+03</pdfrwt>
<pdfrwt beam="2">  1       -4 0.12173725E-02 0.12499419E+03</pdfrwt>
<totfact> 0.55753615E+03</totfact>
</mgrwt>
</event>
<event>
 5    1  0.3257199E-002  0.1249988E+03  0.7818608E-02  0.1235071E+00
          4   -1    0    0  501    0  0.00000000000E+00  0.00000000000E+00  0.29744245099E+02  0.29771345561E+02  0.12700000000E+01 0. -1.
         -4   -1    0    0    0  501 -0.00000000000E+00 -0.00000000000E+00 -0.13123547179E+03  0.13124161671E+03  0.12700000000E+01 0. -1.
         25    2    1    2    0    0  0.00000000000E+00  0.00000000000E+00 -0.10149122669E+03  0.16101296227E+03  0.12499881969E+03 0.  0.
    9000005    1    3    3    0    0  0.48884927636E+02  0.27139849585E+01 -0.10076821864E+03  0.11203720700E+03  0.10000000000E+01 0.  0.
    9000005    1    3    3    0    0 -0.48884927636E+02 -0.27139849585E+01 -0.72300805939E+00  0.48975755278E+02  0.10000000000E+01 0.  0.
<mgrwt>
<rscale>  0 0.12499882E+03</rscale>
<asrwt>0</asrwt>
<pdfrwt beam="1">  1        4 0.45785951E-02 0.12499882E+03</pdfrwt>
<pdfrwt beam="2">  1       -4 0.20192630E-01 0.12499882E+03</pdfrwt>
<totfact> 0.97150426E+03</totfact>
</mgrwt>
</event>
<event>
 5    1  0.3257199E-002  0.1250089E+03  0.7818608E-02  0.1235055E+00
         -4   -1    0    0    0  501 -0.00000000000E+00  0.00000000000E+00  0.27678440079E+02  0.27707561156E+02  0.12700000000E+01 0. -1.
          4   -1    0    0  501    0  0.00000000000E+00 -0.00000000000E+00 -0.14104369648E+03  0.14104941410E+03  0.12700000000E+01 0. -1.
         25    2    1    2    0    0  0.00000000000E+00  0.00000000000E+00 -0.11336525641E+03  0.16875697526E+03  0.12500894103E+03 0.  0.
    9000005    1    3    3    0    0 -0.22490311236E+02 -0.74467259470E+01 -0.13475348022E+03  0.13682385851E+03  0.10000000000E+01 0.  0.
    9000005    1    3    3    0    0  0.22490311236E+02  0.74467259470E+01  0.21388223817E+02  0.31933116742E+02  0.10000000000E+01 0.  0.
<mgrwt>
<rscale>  0 0.12500894E+03</rscale>
<asrwt>0</asrwt>
<pdfrwt beam="2">  1        4 0.21701710E-01 0.12500894E+03</pdfrwt>
<pdfrwt beam="1">  1       -4 0.42609015E-02 0.12500894E+03</pdfrwt>
<totfact> 0.95661366E+03</totfact>
</mgrwt>
</event>
<event>
 5    1  0.3257199E-002  0.1249927E+03  0.7818608E-02  0.1235081E+00
         -4   -1    0    0    0  501 -0.00000000000E+00  0.00000000000E+00  0.56065689985E+01  0.57486099133E+01  0.12700000000E+01 0.  1.
          4   -1    0    0  501    0  0.00000000000E+00 -0.00000000000E+00 -0.68778949587E+03  0.68779066839E+03  0.12700000000E+01 0.  1.
         25    2    1    2    0    0  0.00000000000E+00  0.00000000000E+00 -0.68218292687E+03  0.69353927830E+03  0.12499273915E+03 0.  0.
    9000005    1    3    3    0    0  0.50655468922E+02  0.33455028745E+02 -0.42331258350E+03  0.42764443038E+03  0.10000000000E+01 0.  0.
    9000005    1    3    3    0    0 -0.50655468922E+02 -0.33455028745E+02 -0.25887034336E+03  0.26589484793E+03  0.10000000000E+01 0.  0.
<mgrwt>
<rscale>  0 0.12499274E+03</rscale>
<asrwt>0</asrwt>
<pdfrwt beam="2">  1        4 0.10582472E+00 0.12499274E+03</pdfrwt>
<pdfrwt beam="1">  1       -4 0.87356604E-03 0.12499274E+03</pdfrwt>
<totfact> 0.43436865E+03</totfact>
</mgrwt>
</event>
<event>
 5    1  0.3257199E-002  0.1249838E+03  0.7818608E-02  0.1235095E+00
          4   -1    0    0  501    0  0.00000000000E+00  0.00000000000E+00  0.22394843775E+02  0.22430825391E+02  0.12700000000E+01 0. -1.
         -4   -1    0    0    0  501 -0.00000000000E+00 -0.00000000000E+00 -0.17420269097E+03  0.17420732028E+03  0.12700000000E+01 0. -1.
         25    2    1    2    0    0  0.00000000000E+00  0.00000000000E+00 -0.15180784719E+03  0.19663814567E+03  0.12498375040E+03 0.  0.
    9000005    1    3    3    0    0  0.33724649916E+02 -0.23687098513E+02 -0.14979596412E+03  0.15536493013E+03  0.10000000000E+01 0.  0.
    9000005    1    3    3    0    0 -0.33724649916E+02  0.23687098513E+02 -0.20118830737E+01  0.41273215545E+02  0.10000000000E+01 0.  0.
<mgrwt>
<rscale>  0 0.12498375E+03</rscale>
<asrwt>0</asrwt>
<pdfrwt beam="1">  1        4 0.34484846E-02 0.12498375E+03</pdfrwt>
<pdfrwt beam="2">  1       -4 0.26803537E-01 0.12498375E+03</pdfrwt>
<totfact> 0.90737958E+03</totfact>
</mgrwt>
</event>
<event>
 5    1  0.3257199E-002  0.1250051E+03  0.7818608E-02  0.1235061E+00
         -4   -1    0    0    0  501 -0.00000000000E+00  0.00000000000E+00  0.26800416491E+03  0.26800717399E+03  0.12700000000E+01 0. -1.
          4   -1    0    0  501    0  0.00000000000E+00 -0.00000000000E+00 -0.14545768008E+02  0.14601104990E+02  0.12700000000E+01 0. -1.
         25    2    1    2    0    0  0.00000000000E+00  0.00000000000E+00  0.25345839690E+03  0.28260827898E+03  0.12500512144E+03 0.  0.
    9000005    1    3    3    0    0  0.63203293792E+01 -0.18660612288E+02 -0.73521186149E+01  0.21052759024E+02  0.10000000000E+01 0.  0.
    9000005    1    3    3    0    0 -0.63203293792E+01  0.18660612288E+02  0.26081051552E+03  0.26155551996E+03  0.10000000000E+01 0.  0.
<mgrwt>
<rscale>  0 0.12500512E+03</rscale>
<asrwt>0</asrwt>
<pdfrwt beam="2">  1        4 0.22422986E-02 0.12500512E+03</pdfrwt>
<pdfrwt beam="1">  1       -4 0.41235899E-01 0.12500512E+03</pdfrwt>
<totfact> 0.77824672E+03</totfact>
</mgrwt>
</event>
<event>
 5    1  0.3257199E-002  0.1249995E+03  0.7818608E-02  0.1235070E+00
         -4   -1    0    0    0  501 -0.00000000000E+00  0.00000000000E+00  0.36898871830E+01  0.39023284617E+01  0.12700000000E+01 0. -1.
          4   -1    0    0  501    0  0.00000000000E+00 -0.00000000000E+00 -0.10287927911E+04  0.10287935749E+04  0.12700000000E+01 0. -1.
         25    2    1    2    0    0  0.00000000000E+00  0.00000000000E+00 -0.10251029039E+04  0.10326959034E+04  0.12499946146E+03 0.  0.
    9000005    1    3    3    0    0  0.21362363292E+02 -0.56039812428E+02 -0.36746556885E+03  0.37232882703E+03  0.10000000000E+01 0.  0.
    9000005    1    3    3    0    0 -0.21362363292E+02  0.56039812428E+02 -0.65763733503E+03  0.66036707638E+03  0.10000000000E+01 0.  0.
<mgrwt>
<rscale>  0 0.12499946E+03</rscale>
<asrwt>0</asrwt>
<pdfrwt beam="2">  1        4 0.15829199E+00 0.12499946E+03</pdfrwt>
<pdfrwt beam="1">  1       -4 0.58407771E-03 0.12499946E+03</pdfrwt>
<totfact> 0.29541671E+03</totfact>
</mgrwt>
</event>
<event>
 5    1  0.3257199E-002  0.1249963E+03  0.7818608E-02  0.1235075E+00
          4   -1    0    0  501    0  0.00000000000E+00  0.00000000000E+00  0.30444858269E+01  0.32987564248E+01  0.12700000000E+01 0. -1.
         -4   -1    0    0    0  501 -0.00000000000E+00 -0.00000000000E+00 -0.12312985037E+04  0.12312991586E+04  0.12700000000E+01 0. -1.
         25    2    1    2    0    0  0.00000000000E+00  0.00000000000E+00 -0.12282540178E+04  0.12345979150E+04  0.12499631797E+03 0.  0.
    9000005    1    3    3    0    0 -0.54928852892E+02 -0.26686895786E+02 -0.48322294617E+03  0.48706753637E+03  0.10000000000E+01 0.  0.
    9000005    1    3    3    0    0  0.54928852892E+02  0.26686895786E+02 -0.74503107167E+03  0.74753037867E+03  0.10000000000E+01 0.  0.
<mgrwt>
<rscale>  0 0.12499632E+03</rscale>
<asrwt>0</asrwt>
<pdfrwt beam="1">  1        4 0.48799308E-03 0.12499632E+03</pdfrwt>
<pdfrwt beam="2">  1       -4 0.18944977E+00 0.12499632E+03</pdfrwt>
<totfact> 0.23826668E+03</totfact>
</mgrwt>
</event>
<event>
 5    1  0.3257199E-002  0.1249968E+03  0.7818608E-02  0.1235074E+00
          4   -1    0    0  501    0  0.00000000000E+00  0.00000000000E+00  0.65033979010E+02  0.65046378269E+02  0.12700000000E+01 0. -1.
         -4   -1    0    0    0  501 -0.00000000000E+00 -0.00000000000E+00 -0.60036810060E+02  0.60050241150E+02  0.12700000000E+01 0. -1.
         25    2    1    2    0    0  0.00000000000E+00  0.00000000000E+00  0.49971689505E+01  0.12509661942E+03  0.12499676993E+03 0.  0.
    9000005    1    3    3    0    0 -0.87170635314E+01 -0.22295872526E+02 -0.55270614607E+02  0.60240633856E+02  0.10000000000E+01 0.  0.
    9000005    1    3    3    0    0  0.87170635314E+01  0.22295872526E+02  0.60267783558E+02  0.64855985563E+02  0.10000000000E+01 0.  0.
<mgrwt>
<rscale>  0 0.12499677E+03</rscale>
<asrwt>0</asrwt>
<pdfrwt beam="1">  1        4 0.10007215E-01 0.12499677E+03</pdfrwt>
<pdfrwt beam="2">  1       -4 0.92384192E-02 0.12499677E+03</pdfrwt>
<totfact> 0.10451527E+04</totfact>
</mgrwt>
</event>
<event>
 5    1  0.3257199E-002  0.1250000E+03  0.7818608E-02  0.1235069E+00
          4   -1    0    0  501    0  0.00000000000E+00  0.00000000000E+00  0.12522021732E+03  0.12522665741E+03  0.12700000000E+01 0.  1.
         -4   -1    0    0    0  501 -0.00000000000E+00 -0.00000000000E+00 -0.31174846402E+02  0.31200704290E+02  0.12700000000E+01 0.  1.
         25    2    1    2    0    0  0.00000000000E+00  0.00000000000E+00  0.94045370923E+02  0.15642736170E+03  0.12499995079E+03 0.  0.
    9000005    1    3    3    0    0 -0.23561489663E+02  0.56839057283E+02  0.60698397627E+02  0.86435627507E+02  0.10000000000E+01 0.  0.
    9000005    1    3    3    0    0  0.23561489663E+02 -0.56839057283E+02  0.33346973295E+02  0.69991734197E+02  0.10000000000E+01 0.  0.
<mgrwt>
<rscale>  0 0.12499995E+03</rscale>
<asrwt>0</asrwt>
<pdfrwt beam="1">  1        4 0.19267133E-01 0.12499995E+03</pdfrwt>
<pdfrwt beam="2">  1       -4 0.47986147E-02 0.12499995E+03</pdfrwt>
<totfact> 0.98036125E+03</totfact>
</mgrwt>
</event>
<event>
 5    1  0.3257199E-002  0.1249948E+03  0.7818608E-02  0.1235077E+00
          4   -1    0    0  501    0  0.00000000000E+00  0.00000000000E+00  0.22953858483E+03  0.22954209816E+03  0.12700000000E+01 0.  1.
         -4   -1    0    0    0  501 -0.00000000000E+00 -0.00000000000E+00 -0.16989074310E+02  0.17036476922E+02  0.12700000000E+01 0.  1.
         25    2    1    2    0    0  0.00000000000E+00  0.00000000000E+00  0.21254951052E+03  0.24657857508E+03  0.12499479695E+03 0.  0.
    9000005    1    3    3    0    0  0.50859254325E+02  0.32892874121E+02  0.75948865746E+02  0.97148520969E+02  0.10000000000E+01 0.  0.
    9000005    1    3    3    0    0 -0.50859254325E+02 -0.32892874121E+02  0.13660064478E+03  0.14943005411E+03  0.10000000000E+01 0.  0.
<mgrwt>
<rscale>  0 0.12499480E+03</rscale>
<asrwt>0</asrwt>
<pdfrwt beam="1">  1        4 0.35317544E-01 0.12499480E+03</pdfrwt>
<pdfrwt beam="2">  1       -4 0.26176204E-02 0.12499480E+03</pdfrwt>
<totfact> 0.82836861E+03</totfact>
</mgrwt>
</event>
<event>
 5    1  0.3257199E-002  0.1250049E+03  0.7818608E-02  0.1235062E+00
         -4   -1    0    0    0  501 -0.00000000000E+00  0.00000000000E+00  0.10561019223E+02  0.10637106140E+02  0.12700000000E+01 0. -1.
          4   -1    0    0  501    0  0.00000000000E+00 -0.00000000000E+00 -0.36849848950E+03  0.36850067797E+03  0.12700000000E+01 0. -1.
         25    2    1    2    0    0  0.00000000000E+00  0.00000000000E+00 -0.35793747028E+03  0.37913778411E+03  0.12500490675E+03 0.  0.
    9000005    1    3    3    0    0 -0.37630594643E+02  0.33677530535E+02 -0.67310498691E+02  0.84154268758E+02  0.10000000000E+01 0.  0.
    9000005    1    3    3    0    0  0.37630594643E+02 -0.33677530535E+02 -0.29062697159E+03  0.29498351535E+03  0.10000000000E+01 0.  0.
<mgrwt>
<rscale>  0 0.12500491E+03</rscale>
<asrwt>0</asrwt>
<pdfrwt beam="2">  1        4 0.56698087E-01 0.12500491E+03</pdfrwt>
<pdfrwt beam="1">  1       -4 0.16307937E-02 0.12500491E+03</pdfrwt>
<totfact> 0.66626446E+03</totfact>
</mgrwt>
</event>
<event>
 5    1  0.3257199E-002  0.1250083E+03  0.7818608E-02  0.1235056E+00
         -4   -1    0    0    0  501 -0.00000000000E+00  0.00000000000E+00  0.90240909406E+02  0.90249845598E+02  0.12700000000E+01 0. -1.
          4   -1    0    0  501    0  0.00000000000E+00 -0.00000000000E+00 -0.43272238568E+02  0.43290871216E+02  0.12700000000E+01 0. -1.
         25    2    1    2    0    0  0.00000000000E+00  0.00000000000E+00  0.46968670838E+02  0.13354071681E+03  0.12500826775E+03 0.  0.
    9000005    1    3    3    0    0 -0.18717233712E+02  0.49605005911E+02  0.58830106599E+02  0.79202101561E+02  0.10000000000E+01 0.  0.
    9000005    1    3    3    0    0  0.18717233712E+02 -0.49605005911E+02 -0.11861435761E+02  0.54338615253E+02  0.10000000000E+01 0.  0.
<mgrwt>
<rscale>  0 0.12500827E+03</rscale>
<asrwt>0</asrwt>
<pdfrwt beam="2">  1        4 0.66593882E-02 0.12500827E+03</pdfrwt>
<pdfrwt beam="1">  1       -4 0.13885337E-01 0.12500827E+03</pdfrwt>
<totfact> 0.10267006E+04</totfact>
</mgrwt>
</event>
<event>
 5    1  0.3257199E-002  0.1250097E+03  0.7818608E-02  0.1235054E+00
          4   -1    0    0  501    0  0.00000000000E+00  0.00000000000E+00  0.81401612588E+02  0.81411519037E+02  0.12700000000E+01 0. -1.
         -4   -1    0    0    0  501 -0.00000000000E+00 -0.00000000000E+00 -0.47973613022E+02  0.47990420361E+02  0.12700000000E+01 0. -1.
         25    2    1    2    0    0  0.00000000000E+00  0.00000000000E+00  0.33427999566E+02  0.12940193940E+03  0.12500972268E+03 0.  0.
    9000005    1    3    3    0    0 -0.26566203053E+02  0.56347146058E+02  0.11528636941E+02  0.63361451082E+02  0.10000000000E+01 0.  0.
    9000005    1    3    3    0    0  0.26566203053E+02 -0.56347146058E+02  0.21899362625E+02  0.66040488315E+02  0.10000000000E+01 0.  0.
<mgrwt>
<rscale>  0 0.12500972E+03</rscale>
<asrwt>0</asrwt>
<pdfrwt beam="1">  1        4 0.12525380E-01 0.12500972E+03</pdfrwt>
<pdfrwt beam="2">  1       -4 0.73826108E-02 0.12500972E+03</pdfrwt>
<totfact> 0.10355045E+04</totfact>
</mgrwt>
</event>
<event>
 5    1  0.3257199E-002  0.1249964E+03  0.7818608E-02  0.1235075E+00
          4   -1    0    0  501    0  0.00000000000E+00  0.00000000000E+00  0.79891903034E+03  0.79892003977E+03  0.12700000000E+01 0. -1.
         -4   -1    0    0    0  501 -0.00000000000E+00 -0.00000000000E+00 -0.48056347874E+01  0.49706162304E+01  0.12700000000E+01 0. -1.
         25    2    1    2    0    0  0.00000000000E+00  0.00000000000E+00  0.79411339556E+03  0.80389065600E+03  0.12499640716E+03 0.  0.
    9000005    1    3    3    0    0  0.94380152745E+01  0.31949676366E+02  0.73707584167E+03  0.73782901429E+03  0.10000000000E+01 0.  0.
    9000005    1    3    3    0    0 -0.94380152745E+01 -0.31949676366E+02  0.57037553883E+02  0.66061641709E+02  0.10000000000E+01 0.  0.
<mgrwt>
<rscale>  0 0.12499641E+03</rscale>
<asrwt>0</asrwt>
<pdfrwt beam="1">  1        4 0.12292335E+00 0.12499641E+03</pdfrwt>
<pdfrwt beam="2">  1       -4 0.75209720E-03 0.12499641E+03</pdfrwt>
<totfact> 0.38094625E+03</totfact>
</mgrwt>
</event>
<event>
 5    1  0.3257199E-002  0.1249988E+03  0.7818608E-02  0.1235071E+00
          4   -1    0    0  501    0  0.00000000000E+00  0.00000000000E+00  0.11174283509E+03  0.11175005187E+03  0.12700000000E+01 0. -1.
         -4   -1    0    0    0  501 -0.00000000000E+00 -0.00000000000E+00 -0.34936958214E+02  0.34960033599E+02  0.12700000000E+01 0. -1.
         25    2    1    2    0    0  0.00000000000E+00  0.00000000000E+00  0.76805876875E+02  0.14671008547E+03  0.12499882582E+03 0.  0.
    9000005    1    3    3    0    0 -0.15954884602E+02  0.43795260201E+02  0.87257190796E+02  0.98931291836E+02  0.10000000000E+01 0.  0.
    9000005    1    3    3    0    0  0.15954884602E+02 -0.43795260201E+02 -0.10451313921E+02  0.47778793637E+02  0.10000000000E+01 0.  0.
<mgrwt>
<rscale>  0 0.12499883E+03</rscale>
<asrwt>0</asrwt>
<pdfrwt beam="1">  1        4 0.17193536E-01 0.12499883E+03</pdfrwt>
<pdfrwt beam="2">  1       -4 0.53772468E-02 0.12499883E+03</pdfrwt>
<totfact> 0.99966226E+03</totfact>
</mgrwt>
</event>
<event>
 5    1  0.3257199E-002  0.1250001E+03  0.7818608E-02  0.1235069E+00
          4   -1    0    0  501    0  0.00000000000E+00  0.00000000000E+00  0.97993787008E+02  0.98002016266E+02  0.12700000000E+01 0. -1.
         -4   -1    0    0    0  501 -0.00000000000E+00 -0.00000000000E+00 -0.39842232718E+02  0.39862468664E+02  0.12700000000E+01 0. -1.
         25    2    1    2    0    0  0.00000000000E+00  0.00000000000E+00  0.58151554290E+02  0.13786448493E+03  0.12500005175E+03 0.  0.
    9000005    1    3    3    0    0  0.39316914841E+02 -0.13595468619E+02  0.80507558870E+02  0.90626285341E+02  0.10000000000E+01 0.  0.
    9000005    1    3    3    0    0 -0.39316914841E+02  0.13595468619E+02 -0.22356004580E+02  0.47238199588E+02  0.10000000000E+01 0.  0.
<mgrwt>
<rscale>  0 0.12500005E+03</rscale>
<asrwt>0</asrwt>
<pdfrwt beam="1">  1        4 0.15078157E-01 0.12500005E+03</pdfrwt>
<pdfrwt beam="2">  1       -4 0.61317640E-02 0.12500005E+03</pdfrwt>
<totfact> 0.10178027E+04</totfact>
</mgrwt>
</event>
<event>
 5    1  0.3257199E-002  0.1250014E+03  0.7818608E-02  0.1235067E+00
          4   -1    0    0  501    0  0.00000000000E+00  0.00000000000E+00  0.20792712526E+03  0.20793100375E+03  0.12700000000E+01 0. -1.
         -4   -1    0    0    0  501 -0.00000000000E+00 -0.00000000000E+00 -0.18761529931E+02  0.18804465038E+02  0.12700000000E+01 0. -1.
         25    2    1    2    0    0  0.00000000000E+00  0.00000000000E+00  0.18916559533E+03  0.22673546879E+03  0.12500140139E+03 0.  0.
    9000005    1    3    3    0    0 -0.56450076046E+01 -0.68279790901E+01 -0.17625587214E+02  0.19752183018E+02  0.10000000000E+01 0.  0.
    9000005    1    3    3    0    0  0.56450076046E+01  0.68279790901E+01  0.20679118255E+03  0.20698328577E+03  0.10000000000E+01 0.  0.
<mgrwt>
<rscale>  0 0.12500140E+03</rscale>
<asrwt>0</asrwt>
<pdfrwt beam="1">  1        4 0.31992389E-01 0.12500140E+03</pdfrwt>
<pdfrwt beam="2">  1       -4 0.28899903E-02 0.12500140E+03</pdfrwt>
<totfact> 0.85810718E+03</totfact>
</mgrwt>
</event>
<event>
 5    1  0.3257199E-002  0.1250000E+03  0.7818608E-02  0.1235069E+00
          4   -1    0    0  501    0  0.00000000000E+00  0.00000000000E+00  0.10929861524E+03  0.10930599340E+03  0.12700000000E+01 0.  1.
         -4   -1    0    0    0  501 -0.00000000000E+00 -0.00000000000E+00 -0.35719400260E+02  0.35741970496E+02  0.12700000000E+01 0.  1.
         25    2    1    2    0    0  0.00000000000E+00  0.00000000000E+00  0.73579214982E+02  0.14504796390E+03  0.12500004381E+03 0.  0.
    9000005    1    3    3    0    0 -0.94757330263E+01 -0.38329114448E+02  0.92997480093E+02  0.10103683405E+03  0.10000000000E+01 0.  0.
    9000005    1    3    3    0    0  0.94757330263E+01  0.38329114448E+02 -0.19418265111E+02  0.44011129850E+02  0.10000000000E+01 0.  0.
<mgrwt>
<rscale>  0 0.12500004E+03</rscale>
<asrwt>0</asrwt>
<pdfrwt beam="1">  1        4 0.16817475E-01 0.12500004E+03</pdfrwt>
<pdfrwt beam="2">  1       -4 0.54975961E-02 0.12500004E+03</pdfrwt>
<totfact> 0.10030004E+04</totfact>
</mgrwt>
</event>
<event>
 5    1  0.3257199E-002  0.1249964E+03  0.7818608E-02  0.1235075E+00
         -4   -1    0    0    0  501 -0.00000000000E+00  0.00000000000E+00  0.10727161999E+03  0.10727913756E+03  0.12700000000E+01 0. -1.
          4   -1    0    0  501    0  0.00000000000E+00 -0.00000000000E+00 -0.36392623577E+02  0.36414776545E+02  0.12700000000E+01 0. -1.
         25    2    1    2    0    0  0.00000000000E+00  0.00000000000E+00  0.70878996413E+02  0.14369391410E+03  0.12499643522E+03 0.  0.
    9000005    1    3    3    0    0  0.29408504614E+02  0.18465365916E+02 -0.24285763915E+02  0.42386651331E+02  0.10000000000E+01 0.  0.
    9000005    1    3    3    0    0 -0.29408504614E+02 -0.18465365916E+02  0.95164760328E+02  0.10130726277E+03  0.10000000000E+01 0.  0.
<mgrwt>
<rscale>  0 0.12499644E+03</rscale>
<asrwt>0</asrwt>
<pdfrwt beam="2">  1        4 0.56011475E-02 0.12499644E+03</pdfrwt>
<pdfrwt beam="1">  1       -4 0.16505609E-01 0.12499644E+03</pdfrwt>
<totfact> 0.10058400E+04</totfact>
</mgrwt>
</event>
<event>
 5    1  0.3257199E-002  0.1249967E+03  0.7818608E-02  0.1235074E+00
         -4   -1    0    0    0  501 -0.00000000000E+00  0.00000000000E+00  0.65683153702E+03  0.65683276481E+03  0.12700000000E+01 0. -1.
          4   -1    0    0  501    0  0.00000000000E+00 -0.00000000000E+00 -0.58777467507E+01  0.60133856408E+01  0.12700000000E+01 0. -1.
         25    2    1    2    0    0  0.00000000000E+00  0.00000000000E+00  0.65095379027E+03  0.66284615045E+03  0.12499672835E+03 0.  0.
    9000005    1    3    3    0    0 -0.52933415654E+02 -0.28073510119E+02  0.23136304169E+03  0.23899775213E+03  0.10000000000E+01 0.  0.
    9000005    1    3    3    0    0  0.52933415654E+02  0.28073510119E+02  0.41959074858E+03  0.42384839832E+03  0.10000000000E+01 0.  0.
<mgrwt>
<rscale>  0 0.12499673E+03</rscale>
<asrwt>0</asrwt>
<pdfrwt beam="2">  1        4 0.91479789E-03 0.12499673E+03</pdfrwt>
<pdfrwt beam="1">  1       -4 0.10106143E+00 0.12499673E+03</pdfrwt>
<totfact> 0.45125065E+03</totfact>
</mgrwt>
</event>
<event>
 5    1  0.3257199E-002  0.1250026E+03  0.7818608E-02  0.1235065E+00
         -4   -1    0    0    0  501 -0.00000000000E+00  0.00000000000E+00  0.28424548196E+03  0.28424831910E+03  0.12700000000E+01 0.  1.
          4   -1    0    0  501    0  0.00000000000E+00 -0.00000000000E+00 -0.13710848528E+02  0.13769541291E+02  0.12700000000E+01 0.  1.
         25    2    1    2    0    0  0.00000000000E+00  0.00000000000E+00  0.27053463343E+03  0.29801786039E+03  0.12500262889E+03 0.  0.
    9000005    1    3    3    0    0  0.61638596456E+02  0.73815754421E+01  0.11813995757E+03  0.13346105726E+03  0.10000000000E+01 0.  0.
    9000005    1    3    3    0    0 -0.61638596456E+02 -0.73815754421E+01  0.15239467586E+03  0.16455680314E+03  0.10000000000E+01 0.  0.
<mgrwt>
<rscale>  0 0.12500263E+03</rscale>
<asrwt>0</asrwt>
<pdfrwt beam="2">  1        4 0.21140946E-02 0.12500263E+03</pdfrwt>
<pdfrwt beam="1">  1       -4 0.43734804E-01 0.12500263E+03</pdfrwt>
<totfact> 0.75843724E+03</totfact>
</mgrwt>
</event>
<event>
 5    1  0.3257199E-002  0.1250014E+03  0.7818608E-02  0.1235067E+00
         -4   -1    0    0    0  501 -0.00000000000E+00  0.00000000000E+00  0.36433044568E+03  0.36433265918E+03  0.12700000000E+01 0.  1.
          4   -1    0    0  501    0  0.00000000000E+00 -0.00000000000E+00 -0.10682094233E+02  0.10757324816E+02  0.12700000000E+01 0.  1.
         25    2    1    2    0    0  0.00000000000E+00  0.00000000000E+00  0.35364835145E+03  0.37508998400E+03  0.12500135846E+03 0.  0.
    9000005    1    3    3    0    0  0.35516739853E+02  0.48747129581E+02  0.12773624728E+03  0.14126312442E+03  0.10000000000E+01 0.  0.
    9000005    1    3    3    0    0 -0.35516739853E+02 -0.48747129581E+02  0.22591210416E+03  0.23382685958E+03  0.10000000000E+01 0.  0.
<mgrwt>
<rscale>  0 0.12500136E+03</rscale>
<asrwt>0</asrwt>
<pdfrwt beam="2">  1        4 0.16493564E-02 0.12500136E+03</pdfrwt>
<pdfrwt beam="1">  1       -4 0.56056793E-01 0.12500136E+03</pdfrwt>
<totfact> 0.67047757E+03</totfact>
</mgrwt>
</event>
<event>
 5    1  0.3257199E-002  0.1250575E+03  0.7818608E-02  0.1234979E+00
         -4   -1    0    0    0  501 -0.00000000000E+00  0.00000000000E+00  0.56789356435E+02  0.56803555384E+02  0.12700000000E+01 0. -1.
          4   -1    0    0  501    0  0.00000000000E+00 -0.00000000000E+00 -0.68819573214E+02  0.68831290540E+02  0.12700000000E+01 0. -1.
         25    2    1    2    0    0  0.00000000000E+00  0.00000000000E+00 -0.12030216779E+02  0.12563484592E+03  0.12505754034E+03 0.  0.
    9000005    1    3    3    0    0  0.31481701034E+02 -0.14698311130E+02 -0.58233024190E+02  0.67817571147E+02  0.10000000000E+01 0.  0.
    9000005    1    3    3    0    0 -0.31481701034E+02  0.14698311130E+02  0.46202807410E+02  0.57817274777E+02  0.10000000000E+01 0.  0.
<mgrwt>
<rscale>  0 0.12505754E+03</rscale>
<asrwt>0</asrwt>
<pdfrwt beam="2">  1        4 0.10589620E-01 0.12505754E+03</pdfrwt>
<pdfrwt beam="1">  1       -4 0.87388176E-02 0.12505754E+03</pdfrwt>
<totfact> 0.10425440E+04</totfact>
</mgrwt>
</event>
<event>
 5    1  0.3257199E-002  0.1250017E+03  0.7818608E-02  0.1235067E+00
         -4   -1    0    0    0  501 -0.00000000000E+00  0.00000000000E+00  0.60945047097E+01  0.62254226890E+01  0.12700000000E+01 0.  1.
          4   -1    0    0  501    0  0.00000000000E+00 -0.00000000000E+00 -0.63402093111E+03  0.63402220307E+03  0.12700000000E+01 0.  1.
         25    2    1    2    0    0  0.00000000000E+00  0.00000000000E+00 -0.62792642640E+03  0.64024762576E+03  0.12500170126E+03 0.  0.
    9000005    1    3    3    0    0 -0.41552943699E+01 -0.52689685569E+02 -0.48475318162E+03  0.48762702605E+03  0.10000000000E+01 0.  0.
    9000005    1    3    3    0    0  0.41552943699E+01  0.52689685569E+02 -0.14317324477E+03  0.15262059971E+03  0.10000000000E+01 0.  0.
<mgrwt>
<rscale>  0 0.12500170E+03</rscale>
<asrwt>0</asrwt>
<pdfrwt beam="2">  1        4 0.97551799E-01 0.12500170E+03</pdfrwt>
<pdfrwt beam="1">  1       -4 0.94778507E-03 0.12500170E+03</pdfrwt>
<totfact> 0.46420012E+03</totfact>
</mgrwt>
</event>
<event>
 5    1  0.3257199E-002  0.1250015E+03  0.7818608E-02  0.1235067E+00
         -4   -1    0    0    0  501 -0.00000000000E+00  0.00000000000E+00  0.21689375240E+04  0.21689378958E+04  0.12700000000E+01 0. -1.
          4   -1    0    0  501    0  0.00000000000E+00 -0.00000000000E+00 -0.15767375196E+01  0.20245990235E+01  0.12700000000E+01 0. -1.
         25    2    1    2    0    0  0.00000000000E+00  0.00000000000E+00  0.21673607865E+04  0.21709624949E+04  0.12500150093E+03 0.  0.
    9000005    1    3    3    0    0  0.49786159135E+02 -0.25453355853E+02  0.15683575261E+04  0.15693542827E+04  0.10000000000E+01 0.  0.
    9000005    1    3    3    0    0 -0.49786159135E+02  0.25453355853E+02  0.59900326043E+03  0.60160821219E+03  0.10000000000E+01 0.  0.
<mgrwt>
<rscale>  0 0.12500150E+03</rscale>
<asrwt>0</asrwt>
<pdfrwt beam="2">  1        4 0.27705385E-03 0.12500150E+03</pdfrwt>
<pdfrwt beam="1">  1       -4 0.33371794E+00 0.12500150E+03</pdfrwt>
<totfact> 0.77912660E+02</totfact>
</mgrwt>
</event>
