<event>
 5    1  0.3304582E-002  0.1250214E+03  0.7818608E-02  0.1235036E+00
          4   -1    0    0  501    0  0.00000000000E+00  0.00000000000E+00  0.18819612277E+02  0.18862415176E+02  0.12700000000E+01 0. -1.
         -4   -1    0    0    0  501 -0.00000000000E+00 -0.00000000000E+00 -0.20735314655E+03  0.20735703577E+03  0.12700000000E+01 0. -1.
         25    2    1    2    0    0  0.00000000000E+00  0.00000000000E+00 -0.18853353427E+03  0.22621945095E+03  0.12502138394E+03 0.  0.
    9000005    1    3    3    0    0  0.59386030411E+02  0.19470522553E+02 -0.92663845077E+02  0.11177383433E+03  0.10000000000E+01 0.  0.
    9000005    1    3    3    0    0 -0.59386030411E+02 -0.19470522553E+02 -0.95869689197E+02  0.11444561662E+03  0.10000000000E+01 0.  0.
<mgrwt>
<rscale>  0 0.12502138E+03</rscale>
<asrwt>0</asrwt>
<pdfrwt beam="1">  1        4 0.28989168E-02 0.12502138E+03</pdfrwt>
<pdfrwt beam="2">  1       -4 0.31904074E-01 0.12502138E+03</pdfrwt>
<totfact> 0.85852525E+03</totfact>
</mgrwt>
</event>
<event>
 5    1  0.3304582E-002  0.1250019E+03  0.7818608E-02  0.1235066E+00
          4   -1    0    0  501    0  0.00000000000E+00  0.00000000000E+00  0.12202086639E+02  0.12267999770E+02  0.12700000000E+01 0. -1.
         -4   -1    0    0    0  501 -0.00000000000E+00 -0.00000000000E+00 -0.31920974442E+03  0.31921227080E+03  0.12700000000E+01 0. -1.
         25    2    1    2    0    0  0.00000000000E+00  0.00000000000E+00 -0.30700765778E+03  0.33148027057E+03  0.12500187136E+03 0.  0.
    9000005    1    3    3    0    0 -0.54342188713E+02  0.30834553952E+02 -0.15023041582E+03  0.16270839262E+03  0.10000000000E+01 0.  0.
    9000005    1    3    3    0    0  0.54342188713E+02 -0.30834553952E+02 -0.15677724195E+03  0.16877187795E+03  0.10000000000E+01 0.  0.
<mgrwt>
<rscale>  0 0.12500187E+03</rscale>
<asrwt>0</asrwt>
<pdfrwt beam="1">  1        4 0.18825089E-02 0.12500187E+03</pdfrwt>
<pdfrwt beam="2">  1       -4 0.49114450E-01 0.12500187E+03</pdfrwt>
<totfact> 0.71808213E+03</totfact>
</mgrwt>
</event>
<event>
 5    1  0.3304582E-002  0.1250007E+03  0.7818608E-02  0.1235068E+00
          4   -1    0    0  501    0  0.00000000000E+00  0.00000000000E+00  0.16751185089E+03  0.16751666511E+03  0.12700000000E+01 0. -1.
         -4   -1    0    0    0  501 -0.00000000000E+00 -0.00000000000E+00 -0.23297076071E+02  0.23331666324E+02  0.12700000000E+01 0. -1.
         25    2    1    2    0    0  0.00000000000E+00  0.00000000000E+00  0.14421477482E+03  0.19084833143E+03  0.12500073733E+03 0.  0.
    9000005    1    3    3    0    0 -0.55050012264E+02  0.23911937063E+02  0.45530424666E+02  0.75341251347E+02  0.10000000000E+01 0.  0.
    9000005    1    3    3    0    0  0.55050012264E+02 -0.23911937063E+02  0.98684350153E+02  0.11550708008E+03  0.10000000000E+01 0.  0.
<mgrwt>
<rscale>  0 0.12500074E+03</rscale>
<asrwt>0</asrwt>
<pdfrwt beam="1">  1        4 0.25774084E-01 0.12500074E+03</pdfrwt>
<pdfrwt beam="2">  1       -4 0.35871968E-02 0.12500074E+03</pdfrwt>
<totfact> 0.91698403E+03</totfact>
</mgrwt>
</event>
<event>
 5    1  0.3304582E-002  0.1249926E+03  0.7818608E-02  0.1235081E+00
         -4   -1    0    0    0  501 -0.00000000000E+00  0.00000000000E+00  0.24719998092E+03  0.24720324324E+03  0.12700000000E+01 0. -1.
          4   -1    0    0  501    0  0.00000000000E+00 -0.00000000000E+00 -0.15771220055E+02  0.15822271709E+02  0.12700000000E+01 0. -1.
         25    2    1    2    0    0  0.00000000000E+00  0.00000000000E+00  0.23142876087E+03  0.26302551495E+03  0.12499260041E+03 0.  0.
    9000005    1    3    3    0    0  0.18735315303E+02 -0.58604804970E+02  0.92734539389E+02  0.11129344096E+03  0.10000000000E+01 0.  0.
    9000005    1    3    3    0    0 -0.18735315303E+02  0.58604804970E+02  0.13869422148E+03  0.15173207399E+03  0.10000000000E+01 0.  0.
<mgrwt>
<rscale>  0 0.12499260E+03</rscale>
<asrwt>0</asrwt>
<pdfrwt beam="2">  1        4 0.24305196E-02 0.12499260E+03</pdfrwt>
<pdfrwt beam="1">  1       -4 0.38034944E-01 0.12499260E+03</pdfrwt>
<totfact> 0.80496594E+03</totfact>
</mgrwt>
</event>
<event>
 5    1  0.3304582E-002  0.1250032E+03  0.7818608E-02  0.1235064E+00
          4   -1    0    0  501    0  0.00000000000E+00  0.00000000000E+00  0.15711163578E+03  0.15711676867E+03  0.12700000000E+01 0.  1.
         -4   -1    0    0    0  501 -0.00000000000E+00 -0.00000000000E+00 -0.24842415373E+02  0.24874856815E+02  0.12700000000E+01 0.  1.
         25    2    1    2    0    0  0.00000000000E+00  0.00000000000E+00  0.13226922041E+03  0.18199162549E+03  0.12500322028E+03 0.  0.
    9000005    1    3    3    0    0  0.25575109840E+02 -0.25240797616E+02 -0.83051879105E+01  0.36893905375E+02  0.10000000000E+01 0.  0.
    9000005    1    3    3    0    0 -0.25575109840E+02  0.25240797616E+02  0.14057440832E+03  0.14509772011E+03  0.10000000000E+01 0.  0.
<mgrwt>
<rscale>  0 0.12500322E+03</rscale>
<asrwt>0</asrwt>
<pdfrwt beam="1">  1        4 0.24173911E-01 0.12500322E+03</pdfrwt>
<pdfrwt beam="2">  1       -4 0.38248005E-02 0.12500322E+03</pdfrwt>
<totfact> 0.93252996E+03</totfact>
</mgrwt>
</event>
<event>
 5    1  0.3304582E-002  0.1250017E+03  0.7818608E-02  0.1235067E+00
          4   -1    0    0  501    0  0.00000000000E+00  0.00000000000E+00  0.11512590379E+03  0.11513290852E+03  0.12700000000E+01 0. -1.
         -4   -1    0    0    0  501 -0.00000000000E+00 -0.00000000000E+00 -0.33911234553E+02  0.33935007425E+02  0.12700000000E+01 0. -1.
         25    2    1    2    0    0  0.00000000000E+00  0.00000000000E+00  0.81214669236E+02  0.14906791594E+03  0.12500168424E+03 0.  0.
    9000005    1    3    3    0    0  0.35988148564E+02 -0.50226648234E+02  0.29452758453E+02  0.68456760151E+02  0.10000000000E+01 0.  0.
    9000005    1    3    3    0    0 -0.35988148564E+02  0.50226648234E+02  0.51761910783E+02  0.80611155790E+02  0.10000000000E+01 0.  0.
<mgrwt>
<rscale>  0 0.12500168E+03</rscale>
<asrwt>0</asrwt>
<pdfrwt beam="1">  1        4 0.17714045E-01 0.12500168E+03</pdfrwt>
<pdfrwt beam="2">  1       -4 0.52194805E-02 0.12500168E+03</pdfrwt>
<totfact> 0.99486048E+03</totfact>
</mgrwt>
</event>
<event>
 5    1  0.3304582E-002  0.1250015E+03  0.7818608E-02  0.1235067E+00
          4   -1    0    0  501    0  0.00000000000E+00  0.00000000000E+00  0.80408863937E+02  0.80418892679E+02  0.12700000000E+01 0. -1.
         -4   -1    0    0    0  501 -0.00000000000E+00 -0.00000000000E+00 -0.48559618715E+02  0.48576223297E+02  0.12700000000E+01 0. -1.
         25    2    1    2    0    0  0.00000000000E+00  0.00000000000E+00  0.31849245222E+02  0.12899511598E+03  0.12500146209E+03 0.  0.
    9000005    1    3    3    0    0 -0.57373232186E+02 -0.12706906665E+02 -0.60194764307E+01  0.59079500209E+02  0.10000000000E+01 0.  0.
    9000005    1    3    3    0    0  0.57373232186E+02  0.12706906665E+02  0.37868721653E+02  0.69915615767E+02  0.10000000000E+01 0.  0.
<mgrwt>
<rscale>  0 0.12500146E+03</rscale>
<asrwt>0</asrwt>
<pdfrwt beam="1">  1        4 0.12372643E-01 0.12500146E+03</pdfrwt>
<pdfrwt beam="2">  1       -4 0.74727593E-02 0.12500146E+03</pdfrwt>
<totfact> 0.10365710E+04</totfact>
</mgrwt>
</event>
<event>
 5    1  0.3304582E-002  0.1249995E+03  0.7818608E-02  0.1235070E+00
          4   -1    0    0  501    0  0.00000000000E+00  0.00000000000E+00  0.19977134360E+03  0.19977538043E+03  0.12700000000E+01 0.  1.
         -4   -1    0    0    0  501 -0.00000000000E+00 -0.00000000000E+00 -0.19528574503E+02  0.19569826829E+02  0.12700000000E+01 0.  1.
         25    2    1    2    0    0  0.00000000000E+00  0.00000000000E+00  0.18024276910E+03  0.21934520726E+03  0.12499945653E+03 0.  0.
    9000005    1    3    3    0    0  0.37140763608E+02  0.15224716163E+00  0.19321106096E+01  0.37204738300E+02  0.10000000000E+01 0.  0.
    9000005    1    3    3    0    0 -0.37140763608E+02 -0.15224716163E+00  0.17831065849E+03  0.18214046896E+03  0.10000000000E+01 0.  0.
<mgrwt>
<rscale>  0 0.12499946E+03</rscale>
<asrwt>0</asrwt>
<pdfrwt beam="1">  1        4 0.30737537E-01 0.12499946E+03</pdfrwt>
<pdfrwt beam="2">  1       -4 0.30078799E-02 0.12499946E+03</pdfrwt>
<totfact> 0.86973123E+03</totfact>
</mgrwt>
</event>
<event>
 5    1  0.3304582E-002  0.1249995E+03  0.7818608E-02  0.1235070E+00
          4   -1    0    0  501    0  0.00000000000E+00  0.00000000000E+00  0.51236938422E+03  0.51237095818E+03  0.12700000000E+01 0. -1.
         -4   -1    0    0    0  501 -0.00000000000E+00 -0.00000000000E+00 -0.75693482197E+01  0.76751503224E+01  0.12700000000E+01 0. -1.
         25    2    1    2    0    0  0.00000000000E+00  0.00000000000E+00  0.50480003601E+03  0.52004610851E+03  0.12499951449E+03 0.  0.
    9000005    1    3    3    0    0 -0.23373291240E+02 -0.20404484371E+02  0.26718171838E+02  0.40957471018E+02  0.10000000000E+01 0.  0.
    9000005    1    3    3    0    0  0.23373291240E+02  0.20404484371E+02  0.47808186417E+03  0.47908863749E+03  0.10000000000E+01 0.  0.
<mgrwt>
<rscale>  0 0.12499951E+03</rscale>
<asrwt>0</asrwt>
<pdfrwt beam="1">  1        4 0.78834327E-01 0.12499951E+03</pdfrwt>
<pdfrwt beam="2">  1       -4 0.11727747E-02 0.12499951E+03</pdfrwt>
<totfact> 0.54342477E+03</totfact>
</mgrwt>
</event>
<event>
 5    1  0.3304582E-002  0.1249977E+03  0.7818608E-02  0.1235073E+00
          4   -1    0    0  501    0  0.00000000000E+00  0.00000000000E+00  0.74030583512E+01  0.75112031627E+01  0.12700000000E+01 0.  1.
         -4   -1    0    0    0  501 -0.00000000000E+00 -0.00000000000E+00 -0.52369928912E+03  0.52370082903E+03  0.12700000000E+01 0.  1.
         25    2    1    2    0    0  0.00000000000E+00  0.00000000000E+00 -0.51629623077E+03  0.53121203220E+03  0.12499770093E+03 0.  0.
    9000005    1    3    3    0    0  0.10990928430E+01  0.34159056323E+02 -0.35813126465E+02  0.49513928961E+02  0.10000000000E+01 0.  0.
    9000005    1    3    3    0    0 -0.10990928430E+01 -0.34159056323E+02 -0.48048310431E+03  0.48169810323E+03  0.10000000000E+01 0.  0.
<mgrwt>
<rscale>  0 0.12499770E+03</rscale>
<asrwt>0</asrwt>
<pdfrwt beam="1">  1        4 0.11473697E-02 0.12499770E+03</pdfrwt>
<pdfrwt beam="2">  1       -4 0.80577530E-01 0.12499770E+03</pdfrwt>
<totfact> 0.53524206E+03</totfact>
</mgrwt>
</event>
<event>
 4    1  0.3304582E-002  0.1248845E+03  0.7818608E-02  0.1235250E+00
          4   -1    0    0  501    0  0.00000000000E+00  0.00000000000E+00  0.41795415930E+02  0.41814706656E+02  0.12700000000E+01 0.  1.
         -4   -1    0    0    0  501 -0.00000000000E+00 -0.00000000000E+00 -0.93243442955E+02  0.93252091420E+02  0.12700000000E+01 0.  1.
    9000005    1    1    2    0    0 -0.41925221632E+02  0.43331595519E+02 -0.43252992776E+02  0.74210327874E+02  0.10000000000E+01 0.  0.
    9000005    1    1    2    0    0  0.41925221632E+02 -0.43331595519E+02 -0.81950342493E+01  0.60856470202E+02  0.10000000000E+01 0.  0.
<mgrwt>
<rscale>  0 0.12488451E+03</rscale>
<asrwt>0</asrwt>
<pdfrwt beam="1">  1        4 0.64322132E-02 0.12488451E+03</pdfrwt>
<pdfrwt beam="2">  1       -4 0.14347294E-01 0.12488451E+03</pdfrwt>
<totfact> 0.10263371E+04</totfact>
</mgrwt>
</event>
<event>
 5    1  0.3304582E-002  0.1249990E+03  0.7818608E-02  0.1235071E+00
          4   -1    0    0  501    0  0.00000000000E+00  0.00000000000E+00  0.42178394439E+01  0.44048915509E+01  0.12700000000E+01 0.  1.
         -4   -1    0    0    0  501 -0.00000000000E+00 -0.00000000000E+00 -0.90583405903E+03  0.90583494932E+03  0.12700000000E+01 0.  1.
         25    2    1    2    0    0  0.00000000000E+00  0.00000000000E+00 -0.90161621959E+03  0.91023984087E+03  0.12499904190E+03 0.  0.
    9000005    1    3    3    0    0 -0.39380382098E+01 -0.39502638393E+02 -0.99365236416E+02  0.10700662032E+03  0.10000000000E+01 0.  0.
    9000005    1    3    3    0    0  0.39380382098E+01  0.39502638393E+02 -0.80225098317E+03  0.80323322054E+03  0.10000000000E+01 0.  0.
<mgrwt>
<rscale>  0 0.12499904E+03</rscale>
<asrwt>0</asrwt>
<pdfrwt beam="1">  1        4 0.66335620E-03 0.12499904E+03</pdfrwt>
<pdfrwt beam="2">  1       -4 0.13937339E+00 0.12499904E+03</pdfrwt>
<totfact> 0.33771590E+03</totfact>
</mgrwt>
</event>
<event>
 5    1  0.3304582E-002  0.1249799E+03  0.7818608E-02  0.1235101E+00
          4   -1    0    0  501    0  0.00000000000E+00  0.00000000000E+00  0.67616801127E+03  0.67616920394E+03  0.12700000000E+01 0.  1.
         -4   -1    0    0    0  501 -0.00000000000E+00 -0.00000000000E+00 -0.57041538315E+01  0.58438233147E+01  0.12700000000E+01 0.  1.
         25    2    1    2    0    0  0.00000000000E+00  0.00000000000E+00  0.67046385743E+03  0.68201302726E+03  0.12497993928E+03 0.  0.
    9000005    1    3    3    0    0 -0.19880628799E+02  0.11042101669E+02  0.65280889017E+03  0.65320564487E+03  0.10000000000E+01 0.  0.
    9000005    1    3    3    0    0  0.19880628799E+02 -0.11042101669E+02  0.17654967269E+02  0.28807382387E+02  0.10000000000E+01 0.  0.
<mgrwt>
<rscale>  0 0.12497994E+03</rscale>
<asrwt>0</asrwt>
<pdfrwt beam="1">  1        4 0.10403668E+00 0.12497994E+03</pdfrwt>
<pdfrwt beam="2">  1       -4 0.88839771E-03 0.12497994E+03</pdfrwt>
<totfact> 0.44072713E+03</totfact>
</mgrwt>
</event>
<event>
 5    1  0.3304582E-002  0.1250075E+03  0.7818608E-02  0.1235058E+00
         -4   -1    0    0    0  501 -0.00000000000E+00  0.00000000000E+00  0.61053186109E+02  0.61066393655E+02  0.12700000000E+01 0. -1.
          4   -1    0    0  501    0  0.00000000000E+00 -0.00000000000E+00 -0.63962324243E+02  0.63974931204E+02  0.12700000000E+01 0. -1.
         25    2    1    2    0    0  0.00000000000E+00  0.00000000000E+00 -0.29091381343E+01  0.12504132486E+03  0.12500747913E+03 0.  0.
    9000005    1    3    3    0    0 -0.32900096464E+02  0.52495221432E+02 -0.96758477839E+01  0.62711933879E+02  0.10000000000E+01 0.  0.
    9000005    1    3    3    0    0  0.32900096464E+02 -0.52495221432E+02  0.67667096496E+01  0.62329390981E+02  0.10000000000E+01 0.  0.
<mgrwt>
<rscale>  0 0.12500748E+03</rscale>
<asrwt>0</asrwt>
<pdfrwt beam="2">  1        4 0.98423433E-02 0.12500748E+03</pdfrwt>
<pdfrwt beam="1">  1       -4 0.93947836E-02 0.12500748E+03</pdfrwt>
<totfact> 0.10450199E+04</totfact>
</mgrwt>
</event>
<event>
 5    1  0.3304582E-002  0.1249987E+03  0.7818608E-02  0.1235071E+00
         -4   -1    0    0    0  501 -0.00000000000E+00  0.00000000000E+00  0.14791763609E+02  0.14846183707E+02  0.12700000000E+01 0.  1.
          4   -1    0    0  501    0  0.00000000000E+00 -0.00000000000E+00 -0.26353656224E+03  0.26353962233E+03  0.12700000000E+01 0.  1.
         25    2    1    2    0    0  0.00000000000E+00  0.00000000000E+00 -0.24874479863E+03  0.27838580604E+03  0.12499872862E+03 0.  0.
    9000005    1    3    3    0    0 -0.38156607693E+02 -0.27000647333E+02 -0.32002156739E+02  0.56657741775E+02  0.10000000000E+01 0.  0.
    9000005    1    3    3    0    0  0.38156607693E+02  0.27000647333E+02 -0.21674264189E+03  0.22172806426E+03  0.10000000000E+01 0.  0.
<mgrwt>
<rscale>  0 0.12499873E+03</rscale>
<asrwt>0</asrwt>
<pdfrwt beam="2">  1        4 0.40548505E-01 0.12499873E+03</pdfrwt>
<pdfrwt beam="1">  1       -4 0.22800777E-02 0.12499873E+03</pdfrwt>
<totfact> 0.78394841E+03</totfact>
</mgrwt>
</event>
<event>
 5    1  0.3304582E-002  0.1250006E+03  0.7818608E-02  0.1235068E+00
          4   -1    0    0  501    0  0.00000000000E+00  0.00000000000E+00  0.13298242773E+03  0.13298849193E+03  0.12700000000E+01 0.  1.
         -4   -1    0    0    0  501 -0.00000000000E+00 -0.00000000000E+00 -0.29354015457E+02  0.29381475856E+02  0.12700000000E+01 0.  1.
         25    2    1    2    0    0  0.00000000000E+00  0.00000000000E+00  0.10362841227E+03  0.16236996778E+03  0.12500063443E+03 0.  0.
    9000005    1    3    3    0    0  0.33738953685E+02  0.39646041202E+02  0.69079083326E+01  0.52524706342E+02  0.10000000000E+01 0.  0.
    9000005    1    3    3    0    0 -0.33738953685E+02 -0.39646041202E+02  0.96720503941E+02  0.10984526144E+03  0.10000000000E+01 0.  0.
<mgrwt>
<rscale>  0 0.12500063E+03</rscale>
<asrwt>0</asrwt>
<pdfrwt beam="1">  1        4 0.20461414E-01 0.12500063E+03</pdfrwt>
<pdfrwt beam="2">  1       -4 0.45185812E-02 0.12500063E+03</pdfrwt>
<totfact> 0.96886429E+03</totfact>
</mgrwt>
</event>
<event>
 5    1  0.3304582E-002  0.1250003E+03  0.7818608E-02  0.1235069E+00
         -4   -1    0    0    0  501 -0.00000000000E+00  0.00000000000E+00  0.85646065096E+01  0.86582552898E+01  0.12700000000E+01 0. -1.
          4   -1    0    0  501    0  0.00000000000E+00 -0.00000000000E+00 -0.45352003508E+03  0.45352181328E+03  0.12700000000E+01 0. -1.
         25    2    1    2    0    0  0.00000000000E+00  0.00000000000E+00 -0.44495542857E+03  0.46218006857E+03  0.12500032947E+03 0.  0.
    9000005    1    3    3    0    0  0.20874631153E+02  0.10015358558E+01 -0.47207833472E+01  0.21448521983E+02  0.10000000000E+01 0.  0.
    9000005    1    3    3    0    0 -0.20874631153E+02 -0.10015358558E+01 -0.44023464522E+03  0.44073154658E+03  0.10000000000E+01 0.  0.
<mgrwt>
<rscale>  0 0.12500033E+03</rscale>
<asrwt>0</asrwt>
<pdfrwt beam="2">  1        4 0.69779635E-01 0.12500033E+03</pdfrwt>
<pdfrwt beam="1">  1       -4 0.13249727E-02 0.12500033E+03</pdfrwt>
<totfact> 0.58922551E+03</totfact>
</mgrwt>
</event>
<event>
 5    1  0.3304582E-002  0.1249999E+03  0.7818608E-02  0.1235069E+00
          4   -1    0    0  501    0  0.00000000000E+00  0.00000000000E+00  0.11051161901E+03  0.11051891619E+03  0.12700000000E+01 0.  1.
         -4   -1    0    0    0  501 -0.00000000000E+00 -0.00000000000E+00 -0.35327016728E+02  0.35349837494E+02  0.12700000000E+01 0.  1.
         25    2    1    2    0    0  0.00000000000E+00  0.00000000000E+00  0.75184602283E+02  0.14586875369E+03  0.12499987553E+03 0.  0.
    9000005    1    3    3    0    0  0.58322240407E+02  0.48572335797E+01  0.63163335342E+02  0.86114362191E+02  0.10000000000E+01 0.  0.
    9000005    1    3    3    0    0 -0.58322240407E+02 -0.48572335797E+01  0.12021266941E+02  0.59754391495E+02  0.10000000000E+01 0.  0.
<mgrwt>
<rscale>  0 0.12499988E+03</rscale>
<asrwt>0</asrwt>
<pdfrwt beam="1">  1        4 0.17004104E-01 0.12499988E+03</pdfrwt>
<pdfrwt beam="2">  1       -4 0.54372425E-02 0.12499988E+03</pdfrwt>
<totfact> 0.10013395E+04</totfact>
</mgrwt>
</event>
<event>
 5    1  0.3304582E-002  0.1249976E+03  0.7818608E-02  0.1235073E+00
         -4   -1    0    0    0  501 -0.00000000000E+00  0.00000000000E+00  0.40263881944E+02  0.40283906082E+02  0.12700000000E+01 0. -1.
          4   -1    0    0  501    0  0.00000000000E+00 -0.00000000000E+00 -0.96964250212E+02  0.96972566838E+02  0.12700000000E+01 0. -1.
         25    2    1    2    0    0  0.00000000000E+00  0.00000000000E+00 -0.56700368268E+02  0.13725647292E+03  0.12499763036E+03 0.  0.
    9000005    1    3    3    0    0  0.37910718947E+02 -0.42202490014E+01 -0.82702767822E+02  0.91081177628E+02  0.10000000000E+01 0.  0.
    9000005    1    3    3    0    0 -0.37910718947E+02  0.42202490014E+01  0.26002399554E+02  0.46175295292E+02  0.10000000000E+01 0.  0.
<mgrwt>
<rscale>  0 0.12499763E+03</rscale>
<asrwt>0</asrwt>
<pdfrwt beam="2">  1        4 0.14919757E-01 0.12499763E+03</pdfrwt>
<pdfrwt beam="1">  1       -4 0.61966234E-02 0.12499763E+03</pdfrwt>
<totfact> 0.10191270E+04</totfact>
</mgrwt>
</event>
<event>
 5    1  0.3304582E-002  0.1250009E+03  0.7818608E-02  0.1235068E+00
         -4   -1    0    0    0  501 -0.00000000000E+00  0.00000000000E+00  0.11737709627E+02  0.11806215621E+02  0.12700000000E+01 0.  1.
          4   -1    0    0  501    0  0.00000000000E+00 -0.00000000000E+00 -0.33176167283E+03  0.33176410363E+03  0.12700000000E+01 0.  1.
         25    2    1    2    0    0  0.00000000000E+00  0.00000000000E+00 -0.32002396320E+03  0.34357031925E+03  0.12500090899E+03 0.  0.
    9000005    1    3    3    0    0 -0.23571131794E+02  0.28845220033E+02 -0.29792369874E+03  0.30024519188E+03  0.10000000000E+01 0.  0.
    9000005    1    3    3    0    0  0.23571131794E+02 -0.28845220033E+02 -0.22100264456E+02  0.43325127372E+02  0.10000000000E+01 0.  0.
<mgrwt>
<rscale>  0 0.12500091E+03</rscale>
<asrwt>0</asrwt>
<pdfrwt beam="2">  1        4 0.51045707E-01 0.12500091E+03</pdfrwt>
<pdfrwt beam="1">  1       -4 0.18112584E-02 0.12500091E+03</pdfrwt>
<totfact> 0.70436325E+03</totfact>
</mgrwt>
</event>
<event>
 5    1  0.3304582E-002  0.1249990E+03  0.7818608E-02  0.1235071E+00
         -4   -1    0    0    0  501 -0.00000000000E+00  0.00000000000E+00  0.29914225502E+02  0.29941172111E+02  0.12700000000E+01 0. -1.
          4   -1    0    0  501    0  0.00000000000E+00 -0.00000000000E+00 -0.13049070238E+03  0.13049688237E+03  0.12700000000E+01 0. -1.
         25    2    1    2    0    0  0.00000000000E+00  0.00000000000E+00 -0.10057647688E+03  0.16043805448E+03  0.12499896649E+03 0.  0.
    9000005    1    3    3    0    0 -0.20905343207E+02 -0.43874139856E+02 -0.10070950423E+03  0.11182744639E+03  0.10000000000E+01 0.  0.
    9000005    1    3    3    0    0  0.20905343207E+02  0.43874139856E+02  0.13302735540E+00  0.48610608091E+02  0.10000000000E+01 0.  0.
<mgrwt>
<rscale>  0 0.12499897E+03</rscale>
<asrwt>0</asrwt>
<pdfrwt beam="2">  1        4 0.20078040E-01 0.12499897E+03</pdfrwt>
<pdfrwt beam="1">  1       -4 0.46047368E-02 0.12499897E+03</pdfrwt>
<totfact> 0.97260657E+03</totfact>
</mgrwt>
</event>
<event>
 5    1  0.3304582E-002  0.1249999E+03  0.7818608E-02  0.1235069E+00
          4   -1    0    0  501    0  0.00000000000E+00  0.00000000000E+00  0.40418224026E+02  0.40438171737E+02  0.12700000000E+01 0.  1.
         -4   -1    0    0    0  501 -0.00000000000E+00 -0.00000000000E+00 -0.96597620521E+02  0.96605968710E+02  0.12700000000E+01 0.  1.
         25    2    1    2    0    0  0.00000000000E+00  0.00000000000E+00 -0.56179396495E+02  0.13704414045E+03  0.12499988736E+03 0.  0.
    9000005    1    3    3    0    0 -0.46064053889E+02  0.40679177243E+02 -0.40520170550E+02  0.73617774642E+02  0.10000000000E+01 0.  0.
    9000005    1    3    3    0    0  0.46064053889E+02 -0.40679177243E+02 -0.15659225945E+02  0.63426365804E+02  0.10000000000E+01 0.  0.
<mgrwt>
<rscale>  0 0.12499989E+03</rscale>
<asrwt>0</asrwt>
<pdfrwt beam="1">  1        4 0.62203649E-02 0.12499989E+03</pdfrwt>
<pdfrwt beam="2">  1       -4 0.14863349E-01 0.12499989E+03</pdfrwt>
<totfact> 0.10195189E+04</totfact>
</mgrwt>
</event>
<event>
 5    1  0.3304582E-002  0.1249924E+03  0.7818608E-02  0.1235081E+00
          4   -1    0    0  501    0  0.00000000000E+00  0.00000000000E+00  0.55150038711E+02  0.55164659609E+02  0.12700000000E+01 0.  1.
         -4   -1    0    0    0  501 -0.00000000000E+00 -0.00000000000E+00 -0.70791196134E+02  0.70802587171E+02  0.12700000000E+01 0.  1.
         25    2    1    2    0    0  0.00000000000E+00  0.00000000000E+00 -0.15641157423E+02  0.12596724678E+03  0.12499240559E+03 0.  0.
    9000005    1    3    3    0    0  0.13724969814E+02 -0.22078959974E+02  0.49446187481E+02  0.55872897959E+02  0.10000000000E+01 0.  0.
    9000005    1    3    3    0    0 -0.13724969814E+02  0.22078959974E+02 -0.65087344904E+02  0.70094348821E+02  0.10000000000E+01 0.  0.
<mgrwt>
<rscale>  0 0.12499241E+03</rscale>
<asrwt>0</asrwt>
<pdfrwt beam="1">  1        4 0.84866223E-02 0.12499241E+03</pdfrwt>
<pdfrwt beam="2">  1       -4 0.10892954E-01 0.12499241E+03</pdfrwt>
<totfact> 0.10433463E+04</totfact>
</mgrwt>
</event>
<event>
 5    1  0.3304582E-002  0.1250016E+03  0.7818608E-02  0.1235067E+00
         -4   -1    0    0    0  501 -0.00000000000E+00  0.00000000000E+00  0.38299448604E+02  0.38320499258E+02  0.12700000000E+01 0. -1.
          4   -1    0    0  501    0  0.00000000000E+00 -0.00000000000E+00 -0.10194198888E+03  0.10194989944E+03  0.12700000000E+01 0. -1.
         25    2    1    2    0    0  0.00000000000E+00  0.00000000000E+00 -0.63642540276E+02  0.14027039870E+03  0.12500164727E+03 0.  0.
    9000005    1    3    3    0    0  0.12198130039E+01  0.59735069105E+02 -0.52377930269E+02  0.79462028693E+02  0.10000000000E+01 0.  0.
    9000005    1    3    3    0    0 -0.12198130039E+01 -0.59735069105E+02 -0.11264610007E+02  0.60808370011E+02  0.10000000000E+01 0.  0.
<mgrwt>
<rscale>  0 0.12500165E+03</rscale>
<asrwt>0</asrwt>
<pdfrwt beam="2">  1        4 0.15685611E-01 0.12500165E+03</pdfrwt>
<pdfrwt beam="1">  1       -4 0.58944507E-02 0.12500165E+03</pdfrwt>
<totfact> 0.10127609E+04</totfact>
</mgrwt>
</event>
<event>
 5    1  0.3304582E-002  0.1249991E+03  0.7818608E-02  0.1235071E+00
         -4   -1    0    0    0  501 -0.00000000000E+00  0.00000000000E+00  0.13271825460E+04  0.13271831536E+04  0.12700000000E+01 0.  1.
          4   -1    0    0  501    0  0.00000000000E+00 -0.00000000000E+00 -0.28055848883E+01  0.30796439024E+01  0.12700000000E+01 0.  1.
         25    2    1    2    0    0  0.00000000000E+00  0.00000000000E+00  0.13243769611E+04  0.13302627975E+04  0.12499910161E+03 0.  0.
    9000005    1    3    3    0    0 -0.17115822936E+02 -0.37072034882E+02  0.11656329112E+04  0.11663483060E+04  0.10000000000E+01 0.  0.
    9000005    1    3    3    0    0  0.17115822936E+02  0.37072034882E+02  0.15874404988E+03  0.16391449154E+03  0.10000000000E+01 0.  0.
<mgrwt>
<rscale>  0 0.12499910E+03</rscale>
<asrwt>0</asrwt>
<pdfrwt beam="2">  1        4 0.45275621E-03 0.12499910E+03</pdfrwt>
<pdfrwt beam="1">  1       -4 0.20420326E+00 0.12499910E+03</pdfrwt>
<totfact> 0.21525731E+03</totfact>
</mgrwt>
</event>
<event>
 5    1  0.3304582E-002  0.1250015E+03  0.7818608E-02  0.1235067E+00
         -4   -1    0    0    0  501 -0.00000000000E+00  0.00000000000E+00  0.51498339984E+02  0.51513997332E+02  0.12700000000E+01 0. -1.
          4   -1    0    0  501    0  0.00000000000E+00 -0.00000000000E+00 -0.75821300847E+02  0.75831936294E+02  0.12700000000E+01 0. -1.
         25    2    1    2    0    0  0.00000000000E+00  0.00000000000E+00 -0.24322960863E+02  0.12734593363E+03  0.12500152153E+03 0.  0.
    9000005    1    3    3    0    0 -0.27244460347E+02 -0.31147509593E+02 -0.59868346906E+02  0.72784936179E+02  0.10000000000E+01 0.  0.
    9000005    1    3    3    0    0  0.27244460347E+02  0.31147509593E+02  0.35545386043E+02  0.54560997446E+02  0.10000000000E+01 0.  0.
<mgrwt>
<rscale>  0 0.12500152E+03</rscale>
<asrwt>0</asrwt>
<pdfrwt beam="2">  1        4 0.11666838E-01 0.12500152E+03</pdfrwt>
<pdfrwt beam="1">  1       -4 0.79248440E-02 0.12500152E+03</pdfrwt>
<totfact> 0.10401281E+04</totfact>
</mgrwt>
</event>
<event>
 5    1  0.3304582E-002  0.1249688E+03  0.7818608E-02  0.1235118E+00
          4   -1    0    0  501    0  0.00000000000E+00  0.00000000000E+00  0.87535213242E+03  0.87535305371E+03  0.12700000000E+01 0. -1.
         -4   -1    0    0    0  501 -0.00000000000E+00 -0.00000000000E+00 -0.43689154608E+01  0.45497606864E+01  0.12700000000E+01 0. -1.
         25    2    1    2    0    0  0.00000000000E+00  0.00000000000E+00  0.87098321696E+03  0.87990281440E+03  0.12496879031E+03 0.  0.
    9000005    1    3    3    0    0 -0.12387853667E+02 -0.43970693636E+01  0.86553971660E+03  0.86564010660E+03  0.10000000000E+01 0.  0.
    9000005    1    3    3    0    0  0.12387853667E+02  0.43970693636E+01  0.54435003573E+01  0.14262707793E+02  0.10000000000E+01 0.  0.
<mgrwt>
<rscale>  0 0.12496879E+03</rscale>
<asrwt>0</asrwt>
<pdfrwt beam="1">  1        4 0.13468351E+00 0.12496879E+03</pdfrwt>
<pdfrwt beam="2">  1       -4 0.68612304E-03 0.12496879E+03</pdfrwt>
<totfact> 0.34957744E+03</totfact>
</mgrwt>
</event>
<event>
 5    1  0.3304582E-002  0.1249980E+03  0.7818608E-02  0.1235072E+00
         -4   -1    0    0    0  501 -0.00000000000E+00  0.00000000000E+00  0.11687665883E+04  0.11687672783E+04  0.12700000000E+01 0.  1.
          4   -1    0    0  501    0  0.00000000000E+00 -0.00000000000E+00 -0.32207248913E+01  0.34620757972E+01  0.12700000000E+01 0.  1.
         25    2    1    2    0    0  0.00000000000E+00  0.00000000000E+00  0.11655458634E+04  0.11722293541E+04  0.12499799558E+03 0.  0.
    9000005    1    3    3    0    0  0.38708411092E+01  0.60412412243E+02  0.72820179700E+03  0.73071437656E+03  0.10000000000E+01 0.  0.
    9000005    1    3    3    0    0 -0.38708411092E+01 -0.60412412243E+02  0.43734406645E+03  0.44151497757E+03  0.10000000000E+01 0.  0.
<mgrwt>
<rscale>  0 0.12499800E+03</rscale>
<asrwt>0</asrwt>
<pdfrwt beam="2">  1        4 0.51411370E-03 0.12499800E+03</pdfrwt>
<pdfrwt beam="1">  1       -4 0.17982920E+00 0.12499800E+03</pdfrwt>
<totfact> 0.25452488E+03</totfact>
</mgrwt>
</event>
<event>
 5    1  0.3304582E-002  0.1249972E+03  0.7818608E-02  0.1235074E+00
         -4   -1    0    0    0  501 -0.00000000000E+00  0.00000000000E+00  0.21432583196E+02  0.21470177513E+02  0.12700000000E+01 0.  1.
          4   -1    0    0  501    0  0.00000000000E+00 -0.00000000000E+00 -0.18204986869E+03  0.18205429847E+03  0.12700000000E+01 0.  1.
         25    2    1    2    0    0  0.00000000000E+00  0.00000000000E+00 -0.16061728550E+03  0.20352447598E+03  0.12499719966E+03 0.  0.
    9000005    1    3    3    0    0  0.33382383324E+02 -0.41325158491E+02 -0.26727114241E+02  0.59476809567E+02  0.10000000000E+01 0.  0.
    9000005    1    3    3    0    0 -0.33382383324E+02  0.41325158491E+02 -0.13389017126E+03  0.14404766641E+03  0.10000000000E+01 0.  0.
<mgrwt>
<rscale>  0 0.12499720E+03</rscale>
<asrwt>0</asrwt>
<pdfrwt beam="2">  1        4 0.28010904E-01 0.12499720E+03</pdfrwt>
<pdfrwt beam="1">  1       -4 0.33005532E-02 0.12499720E+03</pdfrwt>
<totfact> 0.89550071E+03</totfact>
</mgrwt>
</event>
<event>
 5    1  0.3304582E-002  0.1250032E+03  0.7818608E-02  0.1235064E+00
          4   -1    0    0  501    0  0.00000000000E+00  0.00000000000E+00  0.29139270143E+01  0.31786586235E+01  0.12700000000E+01 0. -1.
         -4   -1    0    0    0  501 -0.00000000000E+00 -0.00000000000E+00 -0.12820971809E+04  0.12820978099E+04  0.12700000000E+01 0. -1.
         25    2    1    2    0    0  0.00000000000E+00  0.00000000000E+00 -0.12791832539E+04  0.12852764685E+04  0.12500321412E+03 0.  0.
    9000005    1    3    3    0    0  0.42242101940E+02  0.15094276272E+02 -0.10869707872E+04  0.10878964678E+04  0.10000000000E+01 0.  0.
    9000005    1    3    3    0    0 -0.42242101940E+02 -0.15094276272E+02 -0.19221246666E+03  0.19738000074E+03  0.10000000000E+01 0.  0.
<mgrwt>
<rscale>  0 0.12500321E+03</rscale>
<asrwt>0</asrwt>
<pdfrwt beam="1">  1        4 0.46870984E-03 0.12500321E+03</pdfrwt>
<pdfrwt beam="2">  1       -4 0.19726570E+00 0.12500321E+03</pdfrwt>
<totfact> 0.22577189E+03</totfact>
</mgrwt>
</event>
<event>
 5    1  0.3304582E-002  0.1249988E+03  0.7818608E-02  0.1235071E+00
          4   -1    0    0  501    0  0.00000000000E+00  0.00000000000E+00  0.46740171047E+03  0.46740343586E+03  0.12700000000E+01 0. -1.
         -4   -1    0    0    0  501 -0.00000000000E+00 -0.00000000000E+00 -0.83072116483E+01  0.84037292537E+01  0.12700000000E+01 0. -1.
         25    2    1    2    0    0  0.00000000000E+00  0.00000000000E+00  0.45909449882E+03  0.47580716511E+03  0.12499879808E+03 0.  0.
    9000005    1    3    3    0    0  0.75338902260E+01  0.36845746565E+02  0.39572831823E+02  0.54601992275E+02  0.10000000000E+01 0.  0.
    9000005    1    3    3    0    0 -0.75338902260E+01 -0.36845746565E+02  0.41952166700E+03  0.42120517284E+03  0.10000000000E+01 0.  0.
<mgrwt>
<rscale>  0 0.12499880E+03</rscale>
<asrwt>0</asrwt>
<pdfrwt beam="1">  1        4 0.71915518E-01 0.12499880E+03</pdfrwt>
<pdfrwt beam="2">  1       -4 0.12855896E-02 0.12499880E+03</pdfrwt>
<totfact> 0.57793062E+03</totfact>
</mgrwt>
</event>
<event>
 5    1  0.3304582E-002  0.1250006E+03  0.7818608E-02  0.1235068E+00
          4   -1    0    0  501    0  0.00000000000E+00  0.00000000000E+00  0.10274643106E+04  0.10274650955E+04  0.12700000000E+01 0.  1.
         -4   -1    0    0    0  501 -0.00000000000E+00 -0.00000000000E+00 -0.36950041477E+01  0.39071672157E+01  0.12700000000E+01 0.  1.
         25    2    1    2    0    0  0.00000000000E+00  0.00000000000E+00  0.10237693064E+04  0.10313722627E+04  0.12500060580E+03 0.  0.
    9000005    1    3    3    0    0  0.48626171995E+02  0.90702774620E+01  0.82699200116E+03  0.82847060570E+03  0.10000000000E+01 0.  0.
    9000005    1    3    3    0    0 -0.48626171995E+02 -0.90702774620E+01  0.19677730526E+03  0.20290165697E+03  0.10000000000E+01 0.  0.
<mgrwt>
<rscale>  0 0.12500061E+03</rscale>
<asrwt>0</asrwt>
<pdfrwt beam="1">  1        4 0.15808785E+00 0.12500061E+03</pdfrwt>
<pdfrwt beam="2">  1       -4 0.58484266E-03 0.12500061E+03</pdfrwt>
<totfact> 0.29583200E+03</totfact>
</mgrwt>
</event>
<event>
 5    1  0.3304582E-002  0.1249972E+03  0.7818608E-02  0.1235074E+00
          4   -1    0    0  501    0  0.00000000000E+00  0.00000000000E+00  0.55466129906E+02  0.55480667505E+02  0.12700000000E+01 0.  1.
         -4   -1    0    0    0  501 -0.00000000000E+00 -0.00000000000E+00 -0.70393210632E+02  0.70404666061E+02  0.12700000000E+01 0.  1.
         25    2    1    2    0    0  0.00000000000E+00  0.00000000000E+00 -0.14927080726E+02  0.12588533357E+03  0.12499719784E+03 0.  0.
    9000005    1    3    3    0    0  0.23413206819E+02 -0.20868297226E+02 -0.61897656040E+02  0.69397290335E+02  0.10000000000E+01 0.  0.
    9000005    1    3    3    0    0 -0.23413206819E+02  0.20868297226E+02  0.46970575314E+02  0.56488043230E+02  0.10000000000E+01 0.  0.
<mgrwt>
<rscale>  0 0.12499720E+03</rscale>
<asrwt>0</asrwt>
<pdfrwt beam="1">  1        4 0.85352501E-02 0.12499720E+03</pdfrwt>
<pdfrwt beam="2">  1       -4 0.10831724E-01 0.12499720E+03</pdfrwt>
<totfact> 0.10434131E+04</totfact>
</mgrwt>
</event>
<event>
 5    1  0.3304582E-002  0.1249974E+03  0.7818608E-02  0.1235073E+00
          4   -1    0    0  501    0  0.00000000000E+00  0.00000000000E+00  0.18008793871E+03  0.18009241674E+03  0.12700000000E+01 0.  1.
         -4   -1    0    0    0  501 -0.00000000000E+00 -0.00000000000E+00 -0.21666553362E+02  0.21703742410E+02  0.12700000000E+01 0.  1.
         25    2    1    2    0    0  0.00000000000E+00  0.00000000000E+00  0.15842138535E+03  0.20179615915E+03  0.12499741803E+03 0.  0.
    9000005    1    3    3    0    0  0.99627907197E+01  0.26772628601E+02 -0.10516663226E+02  0.30457036076E+02  0.10000000000E+01 0.  0.
    9000005    1    3    3    0    0 -0.99627907197E+01 -0.26772628601E+02  0.16893804857E+03  0.17133912308E+03  0.10000000000E+01 0.  0.
<mgrwt>
<rscale>  0 0.12499742E+03</rscale>
<asrwt>0</asrwt>
<pdfrwt beam="1">  1        4 0.27709041E-01 0.12499742E+03</pdfrwt>
<pdfrwt beam="2">  1       -4 0.33365212E-02 0.12499742E+03</pdfrwt>
<totfact> 0.89838641E+03</totfact>
</mgrwt>
</event>
<event>
 5    1  0.3304582E-002  0.1249999E+03  0.7818608E-02  0.1235069E+00
          4   -1    0    0  501    0  0.00000000000E+00  0.00000000000E+00  0.65944919347E+02  0.65957147359E+02  0.12700000000E+01 0. -1.
         -4   -1    0    0    0  501 -0.00000000000E+00 -0.00000000000E+00 -0.59210438930E+02  0.59224057429E+02  0.12700000000E+01 0. -1.
         25    2    1    2    0    0  0.00000000000E+00  0.00000000000E+00  0.67344804170E+01  0.12518120479E+03  0.12499992322E+03 0.  0.
    9000005    1    3    3    0    0 -0.15885392501E+02  0.19368010619E+02  0.60702166627E+02  0.65675098503E+02  0.10000000000E+01 0.  0.
    9000005    1    3    3    0    0  0.15885392501E+02 -0.19368010619E+02 -0.53967686210E+02  0.59506106284E+02  0.10000000000E+01 0.  0.
<mgrwt>
<rscale>  0 0.12499992E+03</rscale>
<asrwt>0</asrwt>
<pdfrwt beam="1">  1        4 0.10147360E-01 0.12499992E+03</pdfrwt>
<pdfrwt beam="2">  1       -4 0.91112865E-02 0.12499992E+03</pdfrwt>
<totfact> 0.10448946E+04</totfact>
</mgrwt>
</event>
<event>
 5    1  0.3304582E-002  0.1249942E+03  0.7818608E-02  0.1235078E+00
         -4   -1    0    0    0  501 -0.00000000000E+00  0.00000000000E+00  0.32852917036E+03  0.32853162508E+03  0.12700000000E+01 0.  1.
          4   -1    0    0  501    0  0.00000000000E+00 -0.00000000000E+00 -0.11852583372E+02  0.11920429212E+02  0.12700000000E+01 0.  1.
         25    2    1    2    0    0  0.00000000000E+00  0.00000000000E+00  0.31667658699E+03  0.34045205429E+03  0.12499416196E+03 0.  0.
    9000005    1    3    3    0    0  0.44061946266E+02  0.22122683876E+02  0.53765801258E+02  0.72956354319E+02  0.10000000000E+01 0.  0.
    9000005    1    3    3    0    0 -0.44061946266E+02 -0.22122683876E+02  0.26291078573E+03  0.26749569997E+03  0.10000000000E+01 0.  0.
<mgrwt>
<rscale>  0 0.12499416E+03</rscale>
<asrwt>0</asrwt>
<pdfrwt beam="2">  1        4 0.18288820E-02 0.12499416E+03</pdfrwt>
<pdfrwt beam="1">  1       -4 0.50548360E-01 0.12499416E+03</pdfrwt>
<totfact> 0.70797025E+03</totfact>
</mgrwt>
</event>
<event>
 5    1  0.3304582E-002  0.1249941E+03  0.7818608E-02  0.1235079E+00
          4   -1    0    0  501    0  0.00000000000E+00  0.00000000000E+00  0.17238623837E+02  0.17285342108E+02  0.12700000000E+01 0.  1.
         -4   -1    0    0    0  501 -0.00000000000E+00 -0.00000000000E+00 -0.22622206971E+03  0.22622563454E+03  0.12700000000E+01 0.  1.
         25    2    1    2    0    0  0.00000000000E+00  0.00000000000E+00 -0.20898344587E+03  0.24351097665E+03  0.12499406026E+03 0.  0.
    9000005    1    3    3    0    0  0.42763166515E+02  0.16719714866E+02 -0.18706887109E+03  0.19262398555E+03  0.10000000000E+01 0.  0.
    9000005    1    3    3    0    0 -0.42763166515E+02 -0.16719714866E+02 -0.21914574778E+02  0.50886991101E+02  0.10000000000E+01 0.  0.
<mgrwt>
<rscale>  0 0.12499406E+03</rscale>
<asrwt>0</asrwt>
<pdfrwt beam="1">  1        4 0.26559641E-02 0.12499406E+03</pdfrwt>
<pdfrwt beam="2">  1       -4 0.34807261E-01 0.12499406E+03</pdfrwt>
<totfact> 0.83288259E+03</totfact>
</mgrwt>
</event>
<event>
 5    1  0.3304582E-002  0.1249950E+03  0.7818608E-02  0.1235077E+00
         -4   -1    0    0    0  501 -0.00000000000E+00  0.00000000000E+00  0.35643056580E+01  0.37838042792E+01  0.12700000000E+01 0.  1.
          4   -1    0    0  501    0  0.00000000000E+00 -0.00000000000E+00 -0.10628936165E+04  0.10628943753E+04  0.12700000000E+01 0.  1.
         25    2    1    2    0    0  0.00000000000E+00  0.00000000000E+00 -0.10593293109E+04  0.10666781796E+04  0.12499499923E+03 0.  0.
    9000005    1    3    3    0    0 -0.49416148290E+02  0.65316819999E+01 -0.85127773485E+03  0.85273641909E+03  0.10000000000E+01 0.  0.
    9000005    1    3    3    0    0  0.49416148290E+02 -0.65316819999E+01 -0.20805157604E+03  0.21394176047E+03  0.10000000000E+01 0.  0.
<mgrwt>
<rscale>  0 0.12499500E+03</rscale>
<asrwt>0</asrwt>
<pdfrwt beam="2">  1        4 0.16353879E+00 0.12499500E+03</pdfrwt>
<pdfrwt beam="1">  1       -4 0.56529844E-03 0.12499500E+03</pdfrwt>
<totfact> 0.28482830E+03</totfact>
</mgrwt>
</event>
<event>
 5    1  0.3304582E-002  0.1249984E+03  0.7818608E-02  0.1235072E+00
         -4   -1    0    0    0  501 -0.00000000000E+00  0.00000000000E+00  0.11625813088E+03  0.11626506740E+03  0.12700000000E+01 0. -1.
          4   -1    0    0  501    0  0.00000000000E+00 -0.00000000000E+00 -0.33578976240E+02  0.33602984173E+02  0.12700000000E+01 0. -1.
         25    2    1    2    0    0  0.00000000000E+00  0.00000000000E+00  0.82679154643E+02  0.14986805157E+03  0.12499836106E+03 0.  0.
    9000005    1    3    3    0    0  0.10505430424E+01 -0.46945024255E+02  0.90777003205E+02  0.10220764773E+03  0.10000000000E+01 0.  0.
    9000005    1    3    3    0    0 -0.10505430424E+01  0.46945024255E+02 -0.80978485616E+01  0.47660403841E+02  0.10000000000E+01 0.  0.
<mgrwt>
<rscale>  0 0.12499836E+03</rscale>
<asrwt>0</asrwt>
<pdfrwt beam="2">  1        4 0.51683768E-02 0.12499836E+03</pdfrwt>
<pdfrwt beam="1">  1       -4 0.17888246E-01 0.12499836E+03</pdfrwt>
<totfact> 0.99333671E+03</totfact>
</mgrwt>
</event>
<event>
 5    1  0.3304582E-002  0.1249991E+03  0.7818608E-02  0.1235071E+00
          4   -1    0    0  501    0  0.00000000000E+00  0.00000000000E+00  0.21639890234E+03  0.21640262899E+03  0.12700000000E+01 0. -1.
         -4   -1    0    0    0  501 -0.00000000000E+00 -0.00000000000E+00 -0.18024663605E+02  0.18069349686E+02  0.12700000000E+01 0. -1.
         25    2    1    2    0    0  0.00000000000E+00  0.00000000000E+00  0.19837423873E+03  0.23447197868E+03  0.12499908076E+03 0.  0.
    9000005    1    3    3    0    0  0.61154569947E+02  0.11185399505E+02  0.87294263998E+02  0.10717407856E+03  0.10000000000E+01 0.  0.
    9000005    1    3    3    0    0 -0.61154569947E+02 -0.11185399505E+02  0.11107997474E+03  0.12729790012E+03  0.10000000000E+01 0.  0.
<mgrwt>
<rscale>  0 0.12499908E+03</rscale>
<asrwt>0</asrwt>
<pdfrwt beam="1">  1        4 0.33295860E-01 0.12499908E+03</pdfrwt>
<pdfrwt beam="2">  1       -4 0.27767495E-02 0.12499908E+03</pdfrwt>
<totfact> 0.84629355E+03</totfact>
</mgrwt>
</event>
<event>
 5    1  0.3304582E-002  0.1250012E+03  0.7818608E-02  0.1235067E+00
          4   -1    0    0  501    0  0.00000000000E+00  0.00000000000E+00  0.12214424334E+03  0.12215084560E+03  0.12700000000E+01 0. -1.
         -4   -1    0    0    0  501 -0.00000000000E+00 -0.00000000000E+00 -0.31961180722E+02  0.31986402942E+02  0.12700000000E+01 0. -1.
         25    2    1    2    0    0  0.00000000000E+00  0.00000000000E+00  0.90183062616E+02  0.15413724854E+03  0.12500122641E+03 0.  0.
    9000005    1    3    3    0    0 -0.43105183307E+02 -0.44779019851E+02  0.37089838999E+02  0.72386971229E+02  0.10000000000E+01 0.  0.
    9000005    1    3    3    0    0  0.43105183307E+02  0.44779019851E+02  0.53093223617E+02  0.81750277313E+02  0.10000000000E+01 0.  0.
<mgrwt>
<rscale>  0 0.12500123E+03</rscale>
<asrwt>0</asrwt>
<pdfrwt beam="1">  1        4 0.18793870E-01 0.12500123E+03</pdfrwt>
<pdfrwt beam="2">  1       -4 0.49195528E-02 0.12500123E+03</pdfrwt>
<totfact> 0.98482418E+03</totfact>
</mgrwt>
</event>
<event>
 5    1  0.3304582E-002  0.1250040E+03  0.7818608E-02  0.1235063E+00
         -4   -1    0    0    0  501 -0.00000000000E+00  0.00000000000E+00  0.65458583431E+03  0.65458706631E+03  0.12700000000E+01 0.  1.
          4   -1    0    0  501    0  0.00000000000E+00 -0.00000000000E+00 -0.58990826061E+01  0.60342419237E+01  0.12700000000E+01 0.  1.
         25    2    1    2    0    0  0.00000000000E+00  0.00000000000E+00  0.64868675170E+03  0.66062130823E+03  0.12500404415E+03 0.  0.
    9000005    1    3    3    0    0  0.30167091614E+01  0.53379204488E+02  0.49535076263E+03  0.49822868047E+03  0.10000000000E+01 0.  0.
    9000005    1    3    3    0    0 -0.30167091614E+01 -0.53379204488E+02  0.15333598907E+03  0.16239262776E+03  0.10000000000E+01 0.  0.
<mgrwt>
<rscale>  0 0.12500404E+03</rscale>
<asrwt>0</asrwt>
<pdfrwt beam="2">  1        4 0.91804288E-03 0.12500404E+03</pdfrwt>
<pdfrwt beam="1">  1       -4 0.10071600E+00 0.12500404E+03</pdfrwt>
<totfact> 0.45244397E+03</totfact>
</mgrwt>
</event>
<event>
 5    1  0.3304582E-002  0.1249838E+03  0.7818608E-02  0.1235095E+00
          4   -1    0    0  501    0  0.00000000000E+00  0.00000000000E+00  0.41722222020E+02  0.41741546573E+02  0.12700000000E+01 0. -1.
         -4   -1    0    0    0  501 -0.00000000000E+00 -0.00000000000E+00 -0.93555563139E+02  0.93564182753E+02  0.12700000000E+01 0. -1.
         25    2    1    2    0    0  0.00000000000E+00  0.00000000000E+00 -0.51833341119E+02  0.13530572933E+03  0.12498377950E+03 0.  0.
    9000005    1    3    3    0    0  0.59111217646E+02 -0.18824627342E+02 -0.17834626205E+02  0.64556769885E+02  0.10000000000E+01 0.  0.
    9000005    1    3    3    0    0 -0.59111217646E+02  0.18824627342E+02 -0.33998714914E+02  0.70748959441E+02  0.10000000000E+01 0.  0.
<mgrwt>
<rscale>  0 0.12498378E+03</rscale>
<asrwt>0</asrwt>
<pdfrwt beam="1">  1        4 0.64209530E-02 0.12498378E+03</pdfrwt>
<pdfrwt beam="2">  1       -4 0.14395313E-01 0.12498378E+03</pdfrwt>
<totfact> 0.10235375E+04</totfact>
</mgrwt>
</event>
<event>
 5    1  0.3304582E-002  0.1250000E+03  0.7818608E-02  0.1235069E+00
         -4   -1    0    0    0  501 -0.00000000000E+00  0.00000000000E+00  0.84314574068E+01  0.85265687121E+01  0.12700000000E+01 0.  1.
          4   -1    0    0  501    0  0.00000000000E+00 -0.00000000000E+00 -0.46060032013E+03  0.46060207100E+03  0.12700000000E+01 0.  1.
         25    2    1    2    0    0  0.00000000000E+00  0.00000000000E+00 -0.45216886273E+03  0.46912863971E+03  0.12500000070E+03 0.  0.
    9000005    1    3    3    0    0 -0.43452557730E+02  0.43209603264E+02 -0.18011090390E+03  0.19025281152E+03  0.10000000000E+01 0.  0.
    9000005    1    3    3    0    0  0.43452557730E+02 -0.43209603264E+02 -0.27205795883E+03  0.27887582819E+03  0.10000000000E+01 0.  0.
<mgrwt>
<rscale>  0 0.12500000E+03</rscale>
<asrwt>0</asrwt>
<pdfrwt beam="2">  1        4 0.70869019E-01 0.12500000E+03</pdfrwt>
<pdfrwt beam="1">  1       -4 0.13045986E-02 0.12500000E+03</pdfrwt>
<totfact> 0.58341780E+03</totfact>
</mgrwt>
</event>
<event>
 5    1  0.3304582E-002  0.1249988E+03  0.7818608E-02  0.1235071E+00
          4   -1    0    0  501    0  0.00000000000E+00  0.00000000000E+00  0.81537575499E+01  0.82520701756E+01  0.12700000000E+01 0.  1.
         -4   -1    0    0    0  501 -0.00000000000E+00 -0.00000000000E+00 -0.47609419159E+03  0.47609588548E+03  0.12700000000E+01 0.  1.
         25    2    1    2    0    0  0.00000000000E+00  0.00000000000E+00 -0.46794043404E+03  0.48434795565E+03  0.12499876933E+03 0.  0.
    9000005    1    3    3    0    0 -0.59260863399E+02 -0.65446426276E+01 -0.30651230445E+03  0.31225866690E+03  0.10000000000E+01 0.  0.
    9000005    1    3    3    0    0  0.59260863399E+02  0.65446426276E+01 -0.16142812960E+03  0.17208928875E+03  0.10000000000E+01 0.  0.
<mgrwt>
<rscale>  0 0.12499877E+03</rscale>
<asrwt>0</asrwt>
<pdfrwt beam="1">  1        4 0.12621174E-02 0.12499877E+03</pdfrwt>
<pdfrwt beam="2">  1       -4 0.73252932E-01 0.12499877E+03</pdfrwt>
<totfact> 0.57101112E+03</totfact>
</mgrwt>
</event>
<event>
 5    1  0.3304582E-002  0.1250155E+03  0.7818608E-02  0.1235045E+00
          4   -1    0    0  501    0  0.00000000000E+00  0.00000000000E+00  0.11431710630E+03  0.11432416058E+03  0.12700000000E+01 0. -1.
         -4   -1    0    0    0  501 -0.00000000000E+00 -0.00000000000E+00 -0.34158868705E+02  0.34182469355E+02  0.12700000000E+01 0. -1.
         25    2    1    2    0    0  0.00000000000E+00  0.00000000000E+00  0.80158237595E+02  0.14850662994E+03  0.12501550336E+03 0.  0.
    9000005    1    3    3    0    0  0.41827029217E+02 -0.15648015158E+02 -0.11861822486E+02  0.46217567917E+02  0.10000000000E+01 0.  0.
    9000005    1    3    3    0    0 -0.41827029217E+02  0.15648015158E+02  0.92020060081E+02  0.10228906202E+03  0.10000000000E+01 0.  0.
<mgrwt>
<rscale>  0 0.12501550E+03</rscale>
<asrwt>0</asrwt>
<pdfrwt beam="1">  1        4 0.17589605E-01 0.12501550E+03</pdfrwt>
<pdfrwt beam="2">  1       -4 0.52575687E-02 0.12501550E+03</pdfrwt>
<totfact> 0.99567465E+03</totfact>
</mgrwt>
</event>
<event>
 5    1  0.3304582E-002  0.1250016E+03  0.7818608E-02  0.1235067E+00
          4   -1    0    0  501    0  0.00000000000E+00  0.00000000000E+00  0.27712059030E+03  0.27712350039E+03  0.12700000000E+01 0.  1.
         -4   -1    0    0    0  501 -0.00000000000E+00 -0.00000000000E+00 -0.14064621430E+02  0.14121843929E+02  0.12700000000E+01 0.  1.
         25    2    1    2    0    0  0.00000000000E+00  0.00000000000E+00  0.26305596887E+03  0.29124534431E+03  0.12500163131E+03 0.  0.
    9000005    1    3    3    0    0 -0.69020162057E+01  0.30780259167E+02  0.58348872521E+01  0.32095297028E+02  0.10000000000E+01 0.  0.
    9000005    1    3    3    0    0  0.69020162057E+01 -0.30780259167E+02  0.25722108161E+03  0.25915004729E+03  0.10000000000E+01 0.  0.
<mgrwt>
<rscale>  0 0.12500163E+03</rscale>
<asrwt>0</asrwt>
<pdfrwt beam="1">  1        4 0.42638561E-01 0.12500163E+03</pdfrwt>
<pdfrwt beam="2">  1       -4 0.21684136E-02 0.12500163E+03</pdfrwt>
<totfact> 0.76707515E+03</totfact>
</mgrwt>
</event>
<event>
 5    1  0.3304582E-002  0.1250009E+03  0.7818608E-02  0.1235068E+00
          4   -1    0    0  501    0  0.00000000000E+00  0.00000000000E+00  0.25796425045E+02  0.25827668209E+02  0.12700000000E+01 0. -1.
         -4   -1    0    0    0  501 -0.00000000000E+00 -0.00000000000E+00 -0.15130264034E+03  0.15130797029E+03  0.12700000000E+01 0. -1.
         25    2    1    2    0    0  0.00000000000E+00  0.00000000000E+00 -0.12550621529E+03  0.17713563850E+03  0.12500089739E+03 0.  0.
    9000005    1    3    3    0    0  0.43496789889E+02 -0.38172058854E+01  0.60082925920E+00  0.43679546554E+02  0.10000000000E+01 0.  0.
    9000005    1    3    3    0    0 -0.43496789889E+02  0.38172058854E+01 -0.12610704455E+03  0.13345609195E+03  0.10000000000E+01 0.  0.
<mgrwt>
<rscale>  0 0.12500090E+03</rscale>
<asrwt>0</asrwt>
<pdfrwt beam="1">  1        4 0.39714942E-02 0.12500090E+03</pdfrwt>
<pdfrwt beam="2">  1       -4 0.23280142E-01 0.12500090E+03</pdfrwt>
<totfact> 0.94133259E+03</totfact>
</mgrwt>
</event>
<event>
 5    1  0.3304582E-002  0.1250008E+03  0.7818608E-02  0.1235068E+00
         -4   -1    0    0    0  501 -0.00000000000E+00  0.00000000000E+00  0.48410939054E+02  0.48427594614E+02  0.12700000000E+01 0. -1.
          4   -1    0    0  501    0  0.00000000000E+00 -0.00000000000E+00 -0.80654956278E+02  0.80664954424E+02  0.12700000000E+01 0. -1.
         25    2    1    2    0    0  0.00000000000E+00  0.00000000000E+00 -0.32244017224E+02  0.12909254904E+03  0.12500083828E+03 0.  0.
    9000005    1    3    3    0    0  0.13840045300E+02  0.41413816283E+01  0.46667884631E+02  0.48862965031E+02  0.10000000000E+01 0.  0.
    9000005    1    3    3    0    0 -0.13840045300E+02 -0.41413816283E+01 -0.78911901855E+02  0.80229584007E+02  0.10000000000E+01 0.  0.
<mgrwt>
<rscale>  0 0.12500084E+03</rscale>
<asrwt>0</asrwt>
<pdfrwt beam="2">  1        4 0.12410505E-01 0.12500084E+03</pdfrwt>
<pdfrwt beam="1">  1       -4 0.74498871E-02 0.12500084E+03</pdfrwt>
<totfact> 0.10363762E+04</totfact>
</mgrwt>
</event>
<event>
 5    1  0.3304582E-002  0.1249982E+03  0.7818608E-02  0.1235072E+00
          4   -1    0    0  501    0  0.00000000000E+00  0.00000000000E+00  0.10829641163E+03  0.10830385807E+03  0.12700000000E+01 0.  1.
         -4   -1    0    0    0  501 -0.00000000000E+00 -0.00000000000E+00 -0.36049096649E+02  0.36071460591E+02  0.12700000000E+01 0.  1.
         25    2    1    2    0    0  0.00000000000E+00  0.00000000000E+00  0.72247314981E+02  0.14437531866E+03  0.12499823245E+03 0.  0.
    9000005    1    3    3    0    0  0.39541442859E+02 -0.15046571933E+02 -0.16997348532E+02  0.45605206802E+02  0.10000000000E+01 0.  0.
    9000005    1    3    3    0    0 -0.39541442859E+02  0.15046571933E+02  0.89244663513E+02  0.98770111855E+02  0.10000000000E+01 0.  0.
<mgrwt>
<rscale>  0 0.12499823E+03</rscale>
<asrwt>0</asrwt>
<pdfrwt beam="1">  1        4 0.16663279E-01 0.12499823E+03</pdfrwt>
<pdfrwt beam="2">  1       -4 0.55483082E-02 0.12499823E+03</pdfrwt>
<totfact> 0.10044096E+04</totfact>
</mgrwt>
</event>
<event>
 5    1  0.3304582E-002  0.1250049E+03  0.7818608E-02  0.1235062E+00
         -4   -1    0    0    0  501 -0.00000000000E+00  0.00000000000E+00  0.43983986666E+01  0.45780793822E+01  0.12700000000E+01 0. -1.
          4   -1    0    0  501    0  0.00000000000E+00 -0.00000000000E+00 -0.87021814047E+03  0.87021906719E+03  0.12700000000E+01 0. -1.
         25    2    1    2    0    0  0.00000000000E+00  0.00000000000E+00 -0.86581974180E+03  0.87479714657E+03  0.12500488933E+03 0.  0.
    9000005    1    3    3    0    0 -0.15370541110E+02 -0.53409903564E+02 -0.63289948833E+03  0.63533584321E+03  0.10000000000E+01 0.  0.
    9000005    1    3    3    0    0  0.15370541110E+02  0.53409903564E+02 -0.23292025347E+03  0.23946130336E+03  0.10000000000E+01 0.  0.
<mgrwt>
<rscale>  0 0.12500489E+03</rscale>
<asrwt>0</asrwt>
<pdfrwt beam="2">  1        4 0.13389347E+00 0.12500489E+03</pdfrwt>
<pdfrwt beam="1">  1       -4 0.69057029E-03 0.12500489E+03</pdfrwt>
<totfact> 0.35129813E+03</totfact>
</mgrwt>
</event>
<event>
 5    1  0.3304582E-002  0.1250031E+03  0.7818608E-02  0.1235064E+00
          4   -1    0    0  501    0  0.00000000000E+00  0.00000000000E+00  0.16660931200E+04  0.16660936040E+04  0.12700000000E+01 0. -1.
         -4   -1    0    0    0  501 -0.00000000000E+00 -0.00000000000E+00 -0.21721782155E+01  0.25161991575E+01  0.12700000000E+01 0. -1.
         25    2    1    2    0    0  0.00000000000E+00  0.00000000000E+00  0.16639209418E+04  0.16686098032E+04  0.12500309919E+03 0.  0.
    9000005    1    3    3    0    0 -0.33737399040E+02 -0.51097773670E+02  0.99881685157E+03  0.10006924091E+04  0.10000000000E+01 0.  0.
    9000005    1    3    3    0    0  0.33737399040E+02  0.51097773670E+02  0.66510409020E+03  0.66791739412E+03  0.10000000000E+01 0.  0.
<mgrwt>
<rscale>  0 0.12500310E+03</rscale>
<asrwt>0</asrwt>
<pdfrwt beam="1">  1        4 0.25634804E+00 0.12500310E+03</pdfrwt>
<pdfrwt beam="2">  1       -4 0.36068232E-03 0.12500310E+03</pdfrwt>
<totfact> 0.14837451E+03</totfact>
</mgrwt>
</event>
<event>
 5    1  0.3304582E-002  0.1250011E+03  0.7818608E-02  0.1235068E+00
          4   -1    0    0  501    0  0.00000000000E+00  0.00000000000E+00  0.68626886031E+03  0.68627003543E+03  0.12700000000E+01 0.  1.
         -4   -1    0    0    0  501 -0.00000000000E+00 -0.00000000000E+00 -0.56200749488E+01  0.57617829211E+01  0.12700000000E+01 0.  1.
         25    2    1    2    0    0  0.00000000000E+00  0.00000000000E+00  0.68064878536E+03  0.69203181835E+03  0.12500107439E+03 0.  0.
    9000005    1    3    3    0    0  0.49239249303E+02 -0.36160379604E+02  0.26745637801E+03  0.27434647959E+03  0.10000000000E+01 0.  0.
    9000005    1    3    3    0    0 -0.49239249303E+02  0.36160379604E+02  0.41319240735E+03  0.41768533876E+03  0.10000000000E+01 0.  0.
<mgrwt>
<rscale>  0 0.12500107E+03</rscale>
<asrwt>0</asrwt>
<pdfrwt beam="1">  1        4 0.10559079E+00 0.12500107E+03</pdfrwt>
<pdfrwt beam="2">  1       -4 0.87561816E-03 0.12500107E+03</pdfrwt>
<totfact> 0.43509655E+03</totfact>
</mgrwt>
</event>
<event>
 5    1  0.3304582E-002  0.1249971E+03  0.7818608E-02  0.1235074E+00
         -4   -1    0    0    0  501 -0.00000000000E+00  0.00000000000E+00  0.32771940732E+02  0.32796539442E+02  0.12700000000E+01 0. -1.
          4   -1    0    0  501    0  0.00000000000E+00 -0.00000000000E+00 -0.11911674246E+03  0.11912351252E+03  0.12700000000E+01 0. -1.
         25    2    1    2    0    0  0.00000000000E+00  0.00000000000E+00 -0.86344801728E+02  0.15192005196E+03  0.12499710957E+03 0.  0.
    9000005    1    3    3    0    0  0.55676943159E+01  0.56261757232E+02 -0.10817379580E+02  0.57570828097E+02  0.10000000000E+01 0.  0.
    9000005    1    3    3    0    0 -0.55676943159E+01 -0.56261757232E+02 -0.75527422148E+02  0.94349223861E+02  0.10000000000E+01 0.  0.
<mgrwt>
<rscale>  0 0.12499711E+03</rscale>
<asrwt>0</asrwt>
<pdfrwt beam="2">  1        4 0.18328065E-01 0.12499711E+03</pdfrwt>
<pdfrwt beam="1">  1       -4 0.50442501E-02 0.12499711E+03</pdfrwt>
<totfact> 0.98928767E+03</totfact>
</mgrwt>
</event>
<event>
 5    1  0.3304582E-002  0.1250030E+03  0.7818608E-02  0.1235065E+00
          4   -1    0    0  501    0  0.00000000000E+00  0.00000000000E+00  0.37270497934E+01  0.39374865286E+01  0.12700000000E+01 0.  1.
         -4   -1    0    0    0  501 -0.00000000000E+00 -0.00000000000E+00 -0.10191431121E+04  0.10191439034E+04  0.12700000000E+01 0.  1.
         25    2    1    2    0    0  0.00000000000E+00  0.00000000000E+00 -0.10154160623E+04  0.10230813899E+04  0.12500300329E+03 0.  0.
    9000005    1    3    3    0    0  0.45934772369E+02  0.18979487872E+01 -0.85415630681E+03  0.85539324406E+03  0.10000000000E+01 0.  0.
    9000005    1    3    3    0    0 -0.45934772369E+02 -0.18979487872E+01 -0.16125975550E+03  0.16768814587E+03  0.10000000000E+01 0.  0.
<mgrwt>
<rscale>  0 0.12500300E+03</rscale>
<asrwt>0</asrwt>
<pdfrwt beam="1">  1        4 0.58964140E-03 0.12500300E+03</pdfrwt>
<pdfrwt beam="2">  1       -4 0.15680728E+00 0.12500300E+03</pdfrwt>
<totfact> 0.29848460E+03</totfact>
</mgrwt>
</event>
<event>
 5    1  0.3304582E-002  0.1250002E+03  0.7818608E-02  0.1235069E+00
         -4   -1    0    0    0  501 -0.00000000000E+00  0.00000000000E+00  0.49297837398E+02  0.49314193415E+02  0.12700000000E+01 0. -1.
          4   -1    0    0  501    0  0.00000000000E+00 -0.00000000000E+00 -0.79203449094E+02  0.79213630445E+02  0.12700000000E+01 0. -1.
         25    2    1    2    0    0  0.00000000000E+00  0.00000000000E+00 -0.29905611695E+02  0.12852782386E+03  0.12500022358E+03 0.  0.
    9000005    1    3    3    0    0  0.47440490201E+02  0.35080975395E+02 -0.36124893047E+02  0.69190193256E+02  0.10000000000E+01 0.  0.
    9000005    1    3    3    0    0 -0.47440490201E+02 -0.35080975395E+02  0.62192813518E+01  0.59337630604E+02  0.10000000000E+01 0.  0.
<mgrwt>
<rscale>  0 0.12500022E+03</rscale>
<asrwt>0</asrwt>
<pdfrwt beam="2">  1        4 0.12187187E-01 0.12500022E+03</pdfrwt>
<pdfrwt beam="1">  1       -4 0.75863240E-02 0.12500022E+03</pdfrwt>
<totfact> 0.10376052E+04</totfact>
</mgrwt>
</event>
<event>
 5    1  0.3304582E-002  0.1250215E+03  0.7818608E-02  0.1235036E+00
         -4   -1    0    0    0  501 -0.00000000000E+00  0.00000000000E+00  0.76599374941E+03  0.76599480222E+03  0.12700000000E+01 0. -1.
          4   -1    0    0  501    0  0.00000000000E+00 -0.00000000000E+00 -0.50212251236E+01  0.51793437559E+01  0.12700000000E+01 0. -1.
         25    2    1    2    0    0  0.00000000000E+00  0.00000000000E+00  0.76097252428E+03  0.77117414598E+03  0.12502152099E+03 0.  0.
    9000005    1    3    3    0    0  0.29487046688E+02 -0.12385825212E+02  0.49246269660E+02  0.58728950816E+02  0.10000000000E+01 0.  0.
    9000005    1    3    3    0    0 -0.29487046688E+02  0.12385825212E+02  0.71172625462E+03  0.71244519516E+03  0.10000000000E+01 0.  0.
<mgrwt>
<rscale>  0 0.12502152E+03</rscale>
<asrwt>0</asrwt>
<pdfrwt beam="2">  1        4 0.78474006E-03 0.12502152E+03</pdfrwt>
<pdfrwt beam="1">  1       -4 0.11785745E+00 0.12502152E+03</pdfrwt>
<totfact> 0.39562644E+03</totfact>
</mgrwt>
</event>
<event>
 5    1  0.3304582E-002  0.1250009E+03  0.7818608E-02  0.1235068E+00
         -4   -1    0    0    0  501 -0.00000000000E+00  0.00000000000E+00  0.28433044645E+02  0.28461393637E+02  0.12700000000E+01 0.  1.
          4   -1    0    0  501    0  0.00000000000E+00 -0.00000000000E+00 -0.13728640870E+03  0.13729228279E+03  0.12700000000E+01 0.  1.
         25    2    1    2    0    0  0.00000000000E+00  0.00000000000E+00 -0.10885336406E+03  0.16575367643E+03  0.12500090553E+03 0.  0.
    9000005    1    3    3    0    0  0.20032128239E+02 -0.31778446771E+02  0.11796700673E+02  0.39386774274E+02  0.10000000000E+01 0.  0.
    9000005    1    3    3    0    0 -0.20032128239E+02  0.31778446771E+02 -0.12065006473E+03  0.12636690216E+03  0.10000000000E+01 0.  0.
<mgrwt>
<rscale>  0 0.12500091E+03</rscale>
<asrwt>0</asrwt>
<pdfrwt beam="2">  1        4 0.21123618E-01 0.12500091E+03</pdfrwt>
<pdfrwt beam="1">  1       -4 0.43769472E-02 0.12500091E+03</pdfrwt>
<totfact> 0.96242891E+03</totfact>
</mgrwt>
</event>
<event>
 5    1  0.3304582E-002  0.1250008E+03  0.7818608E-02  0.1235068E+00
          4   -1    0    0  501    0  0.00000000000E+00  0.00000000000E+00  0.42096401557E+01  0.43970410779E+01  0.12700000000E+01 0. -1.
         -4   -1    0    0    0  501 -0.00000000000E+00 -0.00000000000E+00 -0.90754908260E+03  0.90754997120E+03  0.12700000000E+01 0. -1.
         25    2    1    2    0    0  0.00000000000E+00  0.00000000000E+00 -0.90333944244E+03  0.91194701227E+03  0.12500081972E+03 0.  0.
    9000005    1    3    3    0    0 -0.26247104067E+01 -0.45393766768E+02 -0.76442741502E+03  0.76577918227E+03  0.10000000000E+01 0.  0.
    9000005    1    3    3    0    0  0.26247104067E+01  0.45393766768E+02 -0.13891202742E+03  0.14616783000E+03  0.10000000000E+01 0.  0.
<mgrwt>
<rscale>  0 0.12500082E+03</rscale>
<asrwt>0</asrwt>
<pdfrwt beam="1">  1        4 0.66212148E-03 0.12500082E+03</pdfrwt>
<pdfrwt beam="2">  1       -4 0.13963727E+00 0.12500082E+03</pdfrwt>
<totfact> 0.33706002E+03</totfact>
</mgrwt>
</event>
<event>
 5    1  0.3304582E-002  0.1249880E+03  0.7818608E-02  0.1235088E+00
         -4   -1    0    0    0  501 -0.00000000000E+00  0.00000000000E+00  0.13600612885E+02  0.13659779312E+02  0.12700000000E+01 0. -1.
          4   -1    0    0  501    0  0.00000000000E+00 -0.00000000000E+00 -0.28647226627E+03  0.28647508136E+03  0.12700000000E+01 0. -1.
         25    2    1    2    0    0  0.00000000000E+00  0.00000000000E+00 -0.27287165338E+03  0.30013486067E+03  0.12498798091E+03 0.  0.
    9000005    1    3    3    0    0  0.37917597907E+02  0.48090008625E+02 -0.16624552053E+03  0.17716931522E+03  0.10000000000E+01 0.  0.
    9000005    1    3    3    0    0 -0.37917597907E+02 -0.48090008625E+02 -0.10662613285E+03  0.12296554545E+03  0.10000000000E+01 0.  0.
<mgrwt>
<rscale>  0 0.12498798E+03</rscale>
<asrwt>0</asrwt>
<pdfrwt beam="2">  1        4 0.44077420E-01 0.12498798E+03</pdfrwt>
<pdfrwt beam="1">  1       -4 0.20971700E-02 0.12498798E+03</pdfrwt>
<totfact> 0.75602097E+03</totfact>
</mgrwt>
</event>
<event>
 5    1  0.3304582E-002  0.1250003E+03  0.7818608E-02  0.1235069E+00
         -4   -1    0    0    0  501 -0.00000000000E+00  0.00000000000E+00  0.41204665374E+01  0.43117449467E+01  0.12700000000E+01 0. -1.
          4   -1    0    0  501    0  0.00000000000E+00 -0.00000000000E+00 -0.92632001420E+03  0.92632088480E+03  0.12700000000E+01 0. -1.
         25    2    1    2    0    0  0.00000000000E+00  0.00000000000E+00 -0.92219954766E+03  0.93063262974E+03  0.12500034332E+03 0.  0.
    9000005    1    3    3    0    0  0.62478545210E+02  0.36077241700E-01 -0.45138821967E+03  0.45569276357E+03  0.10000000000E+01 0.  0.
    9000005    1    3    3    0    0 -0.62478545210E+02 -0.36077241700E-01 -0.47081132799E+03  0.47493986617E+03  0.10000000000E+01 0.  0.
<mgrwt>
<rscale>  0 0.12500034E+03</rscale>
<asrwt>0</asrwt>
<pdfrwt beam="2">  1        4 0.14252539E+00 0.12500034E+03</pdfrwt>
<pdfrwt beam="1">  1       -4 0.64869936E-03 0.12500034E+03</pdfrwt>
<totfact> 0.33013513E+03</totfact>
</mgrwt>
</event>
<event>
 5    1  0.3304582E-002  0.1250013E+03  0.7818608E-02  0.1235067E+00
         -4   -1    0    0    0  501 -0.00000000000E+00  0.00000000000E+00  0.15668437568E+02  0.15719823021E+02  0.12700000000E+01 0. -1.
          4   -1    0    0  501    0  0.00000000000E+00 -0.00000000000E+00 -0.24885098938E+03  0.24885423005E+03  0.12700000000E+01 0. -1.
         25    2    1    2    0    0  0.00000000000E+00  0.00000000000E+00 -0.23318255181E+03  0.26457405307E+03  0.12500130835E+03 0.  0.
    9000005    1    3    3    0    0 -0.22705857470E+02  0.19013697014E+02 -0.11729401591E+00  0.29632590090E+02  0.10000000000E+01 0.  0.
    9000005    1    3    3    0    0  0.22705857470E+02 -0.19013697014E+02 -0.23306525779E+03  0.23494146298E+03  0.10000000000E+01 0.  0.
<mgrwt>
<rscale>  0 0.12500131E+03</rscale>
<asrwt>0</asrwt>
<pdfrwt beam="2">  1        4 0.38288967E-01 0.12500131E+03</pdfrwt>
<pdfrwt beam="1">  1       -4 0.24147310E-02 0.12500131E+03</pdfrwt>
<totfact> 0.80266076E+03</totfact>
</mgrwt>
</event>
<event>
 5    1  0.3304582E-002  0.1250055E+03  0.7818608E-02  0.1235061E+00
         -4   -1    0    0    0  501 -0.00000000000E+00  0.00000000000E+00  0.18642495341E+03  0.18642927923E+03  0.12700000000E+01 0. -1.
          4   -1    0    0  501    0  0.00000000000E+00 -0.00000000000E+00 -0.20931501554E+02  0.20969994213E+02  0.12700000000E+01 0. -1.
         25    2    1    2    0    0  0.00000000000E+00  0.00000000000E+00  0.16549345186E+03  0.20739927344E+03  0.12500550395E+03 0.  0.
    9000005    1    3    3    0    0  0.52806335185E+02 -0.57461055455E+00  0.27302412795E+02  0.59458060491E+02  0.10000000000E+01 0.  0.
    9000005    1    3    3    0    0 -0.52806335185E+02  0.57461055455E+00  0.13819103906E+03  0.14794121295E+03  0.10000000000E+01 0.  0.
<mgrwt>
<rscale>  0 0.12500550E+03</rscale>
<asrwt>0</asrwt>
<pdfrwt beam="2">  1        4 0.32235247E-02 0.12500550E+03</pdfrwt>
<pdfrwt beam="1">  1       -4 0.28684056E-01 0.12500550E+03</pdfrwt>
<totfact> 0.88891440E+03</totfact>
</mgrwt>
</event>
<event>
 5    1  0.3304582E-002  0.1250021E+03  0.7818608E-02  0.1235066E+00
         -4   -1    0    0    0  501 -0.00000000000E+00  0.00000000000E+00  0.87594519205E+02  0.87603725347E+02  0.12700000000E+01 0.  1.
          4   -1    0    0  501    0  0.00000000000E+00 -0.00000000000E+00 -0.44575612607E+02  0.44593700668E+02  0.12700000000E+01 0.  1.
         25    2    1    2    0    0  0.00000000000E+00  0.00000000000E+00  0.43018906598E+02  0.13219742602E+03  0.12500213246E+03 0.  0.
    9000005    1    3    3    0    0  0.57865366297E+02 -0.96531290655E+01  0.44285106344E+02  0.73510231678E+02  0.10000000000E+01 0.  0.
    9000005    1    3    3    0    0 -0.57865366297E+02  0.96531290655E+01 -0.12661997461E+01  0.58687194337E+02  0.10000000000E+01 0.  0.
<mgrwt>
<rscale>  0 0.12500213E+03</rscale>
<asrwt>0</asrwt>
<pdfrwt beam="2">  1        4 0.68598862E-02 0.12500213E+03</pdfrwt>
<pdfrwt beam="1">  1       -4 0.13478179E-01 0.12500213E+03</pdfrwt>
<totfact> 0.10296991E+04</totfact>
</mgrwt>
</event>
<event>
 5    1  0.3304582E-002  0.1250006E+03  0.7818608E-02  0.1235068E+00
         -4   -1    0    0    0  501 -0.00000000000E+00  0.00000000000E+00  0.11379569271E+02  0.11450218199E+02  0.12700000000E+01 0. -1.
          4   -1    0    0  501    0  0.00000000000E+00 -0.00000000000E+00 -0.34213792744E+03  0.34214028452E+03  0.12700000000E+01 0. -1.
         25    2    1    2    0    0  0.00000000000E+00  0.00000000000E+00 -0.33075835817E+03  0.35359050272E+03  0.12500060846E+03 0.  0.
    9000005    1    3    3    0    0 -0.58706675820E+02  0.12875704371E+02 -0.21380141763E+03  0.22209075561E+03  0.10000000000E+01 0.  0.
    9000005    1    3    3    0    0  0.58706675820E+02 -0.12875704371E+02 -0.11695694054E+03  0.13149974711E+03  0.10000000000E+01 0.  0.
<mgrwt>
<rscale>  0 0.12500061E+03</rscale>
<asrwt>0</asrwt>
<pdfrwt beam="2">  1        4 0.52642212E-01 0.12500061E+03</pdfrwt>
<pdfrwt beam="1">  1       -4 0.17563191E-02 0.12500061E+03</pdfrwt>
<totfact> 0.69330425E+03</totfact>
</mgrwt>
</event>
<event>
 5    1  0.3304582E-002  0.1250002E+03  0.7818608E-02  0.1235069E+00
          4   -1    0    0  501    0  0.00000000000E+00  0.00000000000E+00  0.81463459693E+03  0.81463558688E+03  0.12700000000E+01 0. -1.
         -4   -1    0    0    0  501 -0.00000000000E+00 -0.00000000000E+00 -0.47100090295E+01  0.48782256055E+01  0.12700000000E+01 0. -1.
         25    2    1    2    0    0  0.00000000000E+00  0.00000000000E+00  0.80992458790E+03  0.81951381249E+03  0.12500020309E+03 0.  0.
    9000005    1    3    3    0    0  0.46232596390E+02 -0.65146718181E+01  0.67728667564E+03  0.67889478929E+03  0.10000000000E+01 0.  0.
    9000005    1    3    3    0    0 -0.46232596390E+02  0.65146718181E+01  0.13263791226E+03  0.14061902320E+03  0.10000000000E+01 0.  0.
<mgrwt>
<rscale>  0 0.12500020E+03</rscale>
<asrwt>0</asrwt>
<pdfrwt beam="1">  1        4 0.12534141E+00 0.12500020E+03</pdfrwt>
<pdfrwt beam="2">  1       -4 0.73763271E-03 0.12500020E+03</pdfrwt>
<totfact> 0.37408122E+03</totfact>
</mgrwt>
</event>
<event>
 5    1  0.3304582E-002  0.1249986E+03  0.7818608E-02  0.1235071E+00
          4   -1    0    0  501    0  0.00000000000E+00  0.00000000000E+00  0.12276654304E+03  0.12277311183E+03  0.12700000000E+01 0.  1.
         -4   -1    0    0    0  501 -0.00000000000E+00 -0.00000000000E+00 -0.31797706464E+02  0.31823058249E+02  0.12700000000E+01 0.  1.
         25    2    1    2    0    0  0.00000000000E+00  0.00000000000E+00  0.90968836571E+02  0.15459617008E+03  0.12499858630E+03 0.  0.
    9000005    1    3    3    0    0 -0.20221769801E+02 -0.59117016715E+02  0.44010618269E+02  0.76430858687E+02  0.10000000000E+01 0.  0.
    9000005    1    3    3    0    0  0.20221769801E+02  0.59117016715E+02  0.46958218302E+02  0.78165311394E+02  0.10000000000E+01 0.  0.
<mgrwt>
<rscale>  0 0.12499859E+03</rscale>
<asrwt>0</asrwt>
<pdfrwt beam="1">  1        4 0.18889616E-01 0.12499859E+03</pdfrwt>
<pdfrwt beam="2">  1       -4 0.48944103E-02 0.12499859E+03</pdfrwt>
<totfact> 0.98397963E+03</totfact>
</mgrwt>
</event>
<event>
 5    1  0.3304582E-002  0.1249989E+03  0.7818608E-02  0.1235071E+00
         -4   -1    0    0    0  501 -0.00000000000E+00  0.00000000000E+00  0.10644326304E+04  0.10644333880E+04  0.12700000000E+01 0. -1.
          4   -1    0    0  501    0  0.00000000000E+00 -0.00000000000E+00 -0.35590728093E+01  0.37788753964E+01  0.12700000000E+01 0. -1.
         25    2    1    2    0    0  0.00000000000E+00  0.00000000000E+00  0.10608735576E+04  0.10682122634E+04  0.12499893818E+03 0.  0.
    9000005    1    3    3    0    0 -0.31120318573E+02  0.43383702726E+02  0.25292101709E+03  0.25849692605E+03  0.10000000000E+01 0.  0.
    9000005    1    3    3    0    0  0.31120318573E+02 -0.43383702726E+02  0.80795254049E+03  0.80971533737E+03  0.10000000000E+01 0.  0.
<mgrwt>
<rscale>  0 0.12499894E+03</rscale>
<asrwt>0</asrwt>
<pdfrwt beam="2">  1        4 0.56451584E-03 0.12499894E+03</pdfrwt>
<pdfrwt beam="1">  1       -4 0.16377583E+00 0.12499894E+03</pdfrwt>
<totfact> 0.28433517E+03</totfact>
</mgrwt>
</event>
<event>
 5    1  0.3304582E-002  0.1249908E+03  0.7818608E-02  0.1235084E+00
         -4   -1    0    0    0  501 -0.00000000000E+00  0.00000000000E+00  0.23392636228E+02  0.23427085386E+02  0.12700000000E+01 0.  1.
          4   -1    0    0  501    0  0.00000000000E+00 -0.00000000000E+00 -0.16680206306E+03  0.16680689777E+03  0.12700000000E+01 0.  1.
         25    2    1    2    0    0  0.00000000000E+00  0.00000000000E+00 -0.14340942684E+03  0.19023398315E+03  0.12499081822E+03 0.  0.
    9000005    1    3    3    0    0 -0.61496398827E+02 -0.10116197299E+02 -0.78601103982E+02  0.10031589138E+03  0.10000000000E+01 0.  0.
    9000005    1    3    3    0    0  0.61496398827E+02  0.10116197299E+02 -0.64808322854E+02  0.89918091770E+02  0.10000000000E+01 0.  0.
<mgrwt>
<rscale>  0 0.12499082E+03</rscale>
<asrwt>0</asrwt>
<pdfrwt beam="2">  1        4 0.25664877E-01 0.12499082E+03</pdfrwt>
<pdfrwt beam="1">  1       -4 0.36018891E-02 0.12499082E+03</pdfrwt>
<totfact> 0.91825503E+03</totfact>
</mgrwt>
</event>
<event>
 5    1  0.3304582E-002  0.1249962E+03  0.7818608E-02  0.1235075E+00
          4   -1    0    0  501    0  0.00000000000E+00  0.00000000000E+00  0.93669659156E+03  0.93669745251E+03  0.12700000000E+01 0.  1.
         -4   -1    0    0    0  501 -0.00000000000E+00 -0.00000000000E+00 -0.40724080504E+01  0.42658419250E+01  0.12700000000E+01 0.  1.
         25    2    1    2    0    0  0.00000000000E+00  0.00000000000E+00  0.93262418351E+03  0.94096329444E+03  0.12499621518E+03 0.  0.
    9000005    1    3    3    0    0 -0.27938609236E+02  0.31957147725E+02  0.81154715335E+03  0.81265712775E+03  0.10000000000E+01 0.  0.
    9000005    1    3    3    0    0  0.27938609236E+02 -0.31957147725E+02  0.12107703017E+03  0.12830616669E+03  0.10000000000E+01 0.  0.
<mgrwt>
<rscale>  0 0.12499622E+03</rscale>
<asrwt>0</asrwt>
<pdfrwt beam="1">  1        4 0.14412197E+00 0.12499622E+03</pdfrwt>
<pdfrwt beam="2">  1       -4 0.64147069E-03 0.12499622E+03</pdfrwt>
<totfact> 0.32641727E+03</totfact>
</mgrwt>
</event>
<event>
 5    1  0.3304582E-002  0.1250013E+03  0.7818608E-02  0.1235067E+00
         -4   -1    0    0    0  501 -0.00000000000E+00  0.00000000000E+00  0.85723177875E+01  0.86658832354E+01  0.12700000000E+01 0. -1.
          4   -1    0    0  501    0  0.00000000000E+00 -0.00000000000E+00 -0.45312315016E+03  0.45312492992E+03  0.12700000000E+01 0. -1.
         25    2    1    2    0    0  0.00000000000E+00  0.00000000000E+00 -0.44455083238E+03  0.46179081315E+03  0.12500125018E+03 0.  0.
    9000005    1    3    3    0    0 -0.44098619756E+02 -0.42474716437E+02 -0.26849662389E+03  0.27539104351E+03  0.10000000000E+01 0.  0.
    9000005    1    3    3    0    0  0.44098619756E+02  0.42474716437E+02 -0.17605420848E+03  0.18639976965E+03  0.10000000000E+01 0.  0.
<mgrwt>
<rscale>  0 0.12500125E+03</rscale>
<asrwt>0</asrwt>
<pdfrwt beam="2">  1        4 0.69718569E-01 0.12500125E+03</pdfrwt>
<pdfrwt beam="1">  1       -4 0.13261527E-02 0.12500125E+03</pdfrwt>
<totfact> 0.58954181E+03</totfact>
</mgrwt>
</event>
<event>
 5    1  0.3304582E-002  0.1250005E+03  0.7818608E-02  0.1235069E+00
         -4   -1    0    0    0  501 -0.00000000000E+00  0.00000000000E+00  0.32087263715E+01  0.34509165344E+01  0.12700000000E+01 0. -1.
          4   -1    0    0  501    0  0.00000000000E+00 -0.00000000000E+00 -0.11728773173E+04  0.11728780049E+04  0.12700000000E+01 0. -1.
         25    2    1    2    0    0  0.00000000000E+00  0.00000000000E+00 -0.11696685909E+04  0.11763289214E+04  0.12500047503E+03 0.  0.
    9000005    1    3    3    0    0 -0.61997255868E+02  0.73510766269E+01 -0.55892245252E+03  0.56239932965E+03  0.10000000000E+01 0.  0.
    9000005    1    3    3    0    0  0.61997255868E+02 -0.73510766269E+01 -0.61074613839E+03  0.61392959175E+03  0.10000000000E+01 0.  0.
<mgrwt>
<rscale>  0 0.12500048E+03</rscale>
<asrwt>0</asrwt>
<pdfrwt beam="2">  1        4 0.18046102E+00 0.12500048E+03</pdfrwt>
<pdfrwt beam="1">  1       -4 0.51233405E-03 0.12500048E+03</pdfrwt>
<totfact> 0.25340676E+03</totfact>
</mgrwt>
</event>
<event>
 5    1  0.3304582E-002  0.1250049E+03  0.7818608E-02  0.1235062E+00
          4   -1    0    0  501    0  0.00000000000E+00  0.00000000000E+00  0.10893401039E+03  0.10894141324E+03  0.12700000000E+01 0.  1.
         -4   -1    0    0    0  501 -0.00000000000E+00 -0.00000000000E+00 -0.35841799092E+02  0.35864292299E+02  0.12700000000E+01 0.  1.
         25    2    1    2    0    0  0.00000000000E+00  0.00000000000E+00  0.73092211294E+02  0.14480570554E+03  0.12500488392E+03 0.  0.
    9000005    1    3    3    0    0  0.25873229667E+02 -0.11735998332E+02 -0.27934226405E+02  0.39855723241E+02  0.10000000000E+01 0.  0.
    9000005    1    3    3    0    0 -0.25873229667E+02  0.11735998332E+02  0.10102643770E+03  0.10494998230E+03  0.10000000000E+01 0.  0.
<mgrwt>
<rscale>  0 0.12500488E+03</rscale>
<asrwt>0</asrwt>
<pdfrwt beam="1">  1        4 0.16761378E-01 0.12500488E+03</pdfrwt>
<pdfrwt beam="2">  1       -4 0.55164226E-02 0.12500488E+03</pdfrwt>
<totfact> 0.10033834E+04</totfact>
</mgrwt>
</event>
<event>
 5    1  0.3304582E-002  0.1249865E+03  0.7818608E-02  0.1235090E+00
         -4   -1    0    0    0  501 -0.00000000000E+00  0.00000000000E+00  0.11968945705E+03  0.11969619472E+03  0.12700000000E+01 0. -1.
          4   -1    0    0  501    0  0.00000000000E+00 -0.00000000000E+00 -0.32609466205E+02  0.32634187383E+02  0.12700000000E+01 0. -1.
         25    2    1    2    0    0  0.00000000000E+00  0.00000000000E+00  0.87079990849E+02  0.15233038210E+03  0.12498648129E+03 0.  0.
    9000005    1    3    3    0    0  0.30371161276E+01  0.44643025515E+02 -0.96156562139E+01  0.45778648363E+02  0.10000000000E+01 0.  0.
    9000005    1    3    3    0    0 -0.30371161276E+01 -0.44643025515E+02  0.96695647062E+02  0.10655173374E+03  0.10000000000E+01 0.  0.
<mgrwt>
<rscale>  0 0.12498648E+03</rscale>
<asrwt>0</asrwt>
<pdfrwt beam="2">  1        4 0.50192608E-02 0.12498648E+03</pdfrwt>
<pdfrwt beam="1">  1       -4 0.18416183E-01 0.12498648E+03</pdfrwt>
<totfact> 0.98871254E+03</totfact>
</mgrwt>
</event>
<event>
 5    1  0.3304582E-002  0.1249685E+03  0.7818608E-02  0.1235119E+00
          4   -1    0    0  501    0  0.00000000000E+00  0.00000000000E+00  0.49929789097E+02  0.49945938166E+02  0.12700000000E+01 0. -1.
         -4   -1    0    0    0  501 -0.00000000000E+00 -0.00000000000E+00 -0.78161486765E+02  0.78171803825E+02  0.12700000000E+01 0. -1.
         25    2    1    2    0    0  0.00000000000E+00  0.00000000000E+00 -0.28231697668E+02  0.12811774199E+03  0.12496850427E+03 0.  0.
    9000005    1    3    3    0    0 -0.60770221246E+02 -0.90419592030E+01 -0.25737521255E+02  0.66619792981E+02  0.10000000000E+01 0.  0.
    9000005    1    3    3    0    0  0.60770221246E+02  0.90419592030E+01 -0.24941764127E+01  0.61497949010E+02  0.10000000000E+01 0.  0.
<mgrwt>
<rscale>  0 0.12496850E+03</rscale>
<asrwt>0</asrwt>
<pdfrwt beam="1">  1        4 0.76835418E-02 0.12496850E+03</pdfrwt>
<pdfrwt beam="2">  1       -4 0.12026880E-01 0.12496850E+03</pdfrwt>
<totfact> 0.10392333E+04</totfact>
</mgrwt>
</event>
<event>
 5    1  0.3304582E-002  0.1249976E+03  0.7818608E-02  0.1235073E+00
         -4   -1    0    0    0  501 -0.00000000000E+00  0.00000000000E+00  0.36201017949E+02  0.36223288097E+02  0.12700000000E+01 0.  1.
          4   -1    0    0  501    0  0.00000000000E+00 -0.00000000000E+00 -0.10784117025E+03  0.10784864812E+03  0.12700000000E+01 0.  1.
         25    2    1    2    0    0  0.00000000000E+00  0.00000000000E+00 -0.71640152305E+02  0.14407193622E+03  0.12499764551E+03 0.  0.
    9000005    1    3    3    0    0 -0.40588116783E+02 -0.33757937085E+02 -0.74360784397E+02  0.91200437479E+02  0.10000000000E+01 0.  0.
    9000005    1    3    3    0    0  0.40588116783E+02  0.33757937085E+02  0.27206320915E+01  0.52871498741E+02  0.10000000000E+01 0.  0.
<mgrwt>
<rscale>  0 0.12499765E+03</rscale>
<asrwt>0</asrwt>
<pdfrwt beam="2">  1        4 0.16593237E-01 0.12499765E+03</pdfrwt>
<pdfrwt beam="1">  1       -4 0.55716757E-02 0.12499765E+03</pdfrwt>
<totfact> 0.10050412E+04</totfact>
</mgrwt>
</event>
<event>
 5    1  0.3304582E-002  0.1249993E+03  0.7818608E-02  0.1235070E+00
          4   -1    0    0  501    0  0.00000000000E+00  0.00000000000E+00  0.13007531668E+04  0.13007537868E+04  0.12700000000E+01 0.  1.
         -4   -1    0    0    0  501 -0.00000000000E+00 -0.00000000000E+00 -0.28681124829E+01  0.31367131227E+01  0.12700000000E+01 0.  1.
         25    2    1    2    0    0  0.00000000000E+00  0.00000000000E+00  0.12978850543E+04  0.13038904999E+04  0.12499928614E+03 0.  0.
    9000005    1    3    3    0    0  0.45687748569E+02 -0.42632324030E+02  0.64304210646E+03  0.64607200535E+03  0.10000000000E+01 0.  0.
    9000005    1    3    3    0    0 -0.45687748569E+02  0.42632324030E+02  0.65484294789E+03  0.65781849459E+03  0.10000000000E+01 0.  0.
<mgrwt>
<rscale>  0 0.12499929E+03</rscale>
<asrwt>0</asrwt>
<pdfrwt beam="1">  1        4 0.20013683E+00 0.12499929E+03</pdfrwt>
<pdfrwt beam="2">  1       -4 0.46195678E-03 0.12499929E+03</pdfrwt>
<totfact> 0.22137184E+03</totfact>
</mgrwt>
</event>
<event>
 5    1  0.3304582E-002  0.1249979E+03  0.7818608E-02  0.1235073E+00
         -4   -1    0    0    0  501 -0.00000000000E+00  0.00000000000E+00  0.21857356455E+03  0.21857725412E+03  0.12700000000E+01 0. -1.
          4   -1    0    0  501    0  0.00000000000E+00 -0.00000000000E+00 -0.17844543119E+02  0.17889679123E+02  0.12700000000E+01 0. -1.
         25    2    1    2    0    0  0.00000000000E+00  0.00000000000E+00  0.20072902143E+03  0.23646693324E+03  0.12499788188E+03 0.  0.
    9000005    1    3    3    0    0  0.52351464677E+02 -0.96334794545E+00  0.16489330056E+03  0.17300983921E+03  0.10000000000E+01 0.  0.
    9000005    1    3    3    0    0 -0.52351464677E+02  0.96334794545E+00  0.35835720865E+02  0.63457094032E+02  0.10000000000E+01 0.  0.
<mgrwt>
<rscale>  0 0.12499788E+03</rscale>
<asrwt>0</asrwt>
<pdfrwt beam="2">  1        4 0.27490700E-02 0.12499788E+03</pdfrwt>
<pdfrwt beam="1">  1       -4 0.33630460E-01 0.12499788E+03</pdfrwt>
<totfact> 0.84330365E+03</totfact>
</mgrwt>
</event>
<event>
 5    1  0.3304582E-002  0.1249966E+03  0.7818608E-02  0.1235075E+00
          4   -1    0    0  501    0  0.00000000000E+00  0.00000000000E+00  0.61958250224E+03  0.61958380384E+03  0.12700000000E+01 0. -1.
         -4   -1    0    0    0  501 -0.00000000000E+00 -0.00000000000E+00 -0.62390209506E+01  0.63669680714E+01  0.12700000000E+01 0. -1.
         25    2    1    2    0    0  0.00000000000E+00  0.00000000000E+00  0.61334348129E+03  0.62595077191E+03  0.12499657122E+03 0.  0.
    9000005    1    3    3    0    0 -0.21231030178E+02  0.58659095286E+02  0.28834750297E+03  0.29502021722E+03  0.10000000000E+01 0.  0.
    9000005    1    3    3    0    0  0.21231030178E+02 -0.58659095286E+02  0.32499597833E+03  0.33093055469E+03  0.10000000000E+01 0.  0.
<mgrwt>
<rscale>  0 0.12499657E+03</rscale>
<asrwt>0</asrwt>
<pdfrwt beam="1">  1        4 0.95330317E-01 0.12499657E+03</pdfrwt>
<pdfrwt beam="2">  1       -4 0.96979169E-03 0.12499657E+03</pdfrwt>
<totfact> 0.47273008E+03</totfact>
</mgrwt>
</event>
<event>
 5    1  0.3304582E-002  0.1249967E+03  0.7818608E-02  0.1235074E+00
          4   -1    0    0  501    0  0.00000000000E+00  0.00000000000E+00  0.13913056881E+03  0.13913636504E+03  0.12700000000E+01 0. -1.
         -4   -1    0    0    0  501 -0.00000000000E+00 -0.00000000000E+00 -0.28053898625E+02  0.28082630362E+02  0.12700000000E+01 0. -1.
         25    2    1    2    0    0  0.00000000000E+00  0.00000000000E+00  0.11107667018E+03  0.16721899540E+03  0.12499666301E+03 0.  0.
    9000005    1    3    3    0    0  0.77105882326E+01 -0.56502312462E+02  0.21350675485E+02  0.60900047849E+02  0.10000000000E+01 0.  0.
    9000005    1    3    3    0    0 -0.77105882326E+01  0.56502312462E+02  0.89725994697E+02  0.10631894755E+03  0.10000000000E+01 0.  0.
<mgrwt>
<rscale>  0 0.12499666E+03</rscale>
<asrwt>0</asrwt>
<pdfrwt beam="1">  1        4 0.21407359E-01 0.12499666E+03</pdfrwt>
<pdfrwt beam="2">  1       -4 0.43186404E-02 0.12499666E+03</pdfrwt>
<totfact> 0.95975985E+03</totfact>
</mgrwt>
</event>
<event>
 5    1  0.3304582E-002  0.1250108E+03  0.7818608E-02  0.1235052E+00
         -4   -1    0    0    0  501 -0.00000000000E+00  0.00000000000E+00  0.12507326181E+02  0.12571639042E+02  0.12700000000E+01 0. -1.
          4   -1    0    0  501    0  0.00000000000E+00 -0.00000000000E+00 -0.31150408586E+03  0.31150667474E+03  0.12700000000E+01 0. -1.
         25    2    1    2    0    0  0.00000000000E+00  0.00000000000E+00 -0.29899675967E+03  0.32407831378E+03  0.12501076420E+03 0.  0.
    9000005    1    3    3    0    0  0.21119384199E+00  0.58759195157E+02 -0.20468888424E+03  0.21295827514E+03  0.10000000000E+01 0.  0.
    9000005    1    3    3    0    0 -0.21119384199E+00 -0.58759195157E+02 -0.94307875437E+02  0.11112003864E+03  0.10000000000E+01 0.  0.
<mgrwt>
<rscale>  0 0.12501076E+03</rscale>
<asrwt>0</asrwt>
<pdfrwt beam="2">  1        4 0.47928846E-01 0.12501076E+03</pdfrwt>
<pdfrwt beam="1">  1       -4 0.19293506E-02 0.12501076E+03</pdfrwt>
<totfact> 0.72656344E+03</totfact>
</mgrwt>
</event>
<event>
 5    1  0.3304582E-002  0.1250007E+03  0.7818608E-02  0.1235068E+00
          4   -1    0    0  501    0  0.00000000000E+00  0.00000000000E+00  0.42267354575E+03  0.42267545372E+03  0.12700000000E+01 0. -1.
         -4   -1    0    0    0  501 -0.00000000000E+00 -0.00000000000E+00 -0.91963005057E+01  0.92835792123E+01  0.12700000000E+01 0. -1.
         25    2    1    2    0    0  0.00000000000E+00  0.00000000000E+00  0.41347724524E+03  0.43195903293E+03  0.12500069518E+03 0.  0.
    9000005    1    3    3    0    0 -0.28476418072E+02 -0.37354229157E+02  0.64298271293E+02  0.79633614218E+02  0.10000000000E+01 0.  0.
    9000005    1    3    3    0    0  0.28476418072E+02  0.37354229157E+02  0.34917897395E+03  0.35232541871E+03  0.10000000000E+01 0.  0.
<mgrwt>
<rscale>  0 0.12500070E+03</rscale>
<asrwt>0</asrwt>
<pdfrwt beam="1">  1        4 0.65033548E-01 0.12500070E+03</pdfrwt>
<pdfrwt beam="2">  1       -4 0.14216762E-02 0.12500070E+03</pdfrwt>
<totfact> 0.61557880E+03</totfact>
</mgrwt>
</event>
<event>
 5    1  0.3304582E-002  0.1250049E+03  0.7818608E-02  0.1235062E+00
          4   -1    0    0  501    0  0.00000000000E+00  0.00000000000E+00  0.27226510336E+03  0.27226806535E+03  0.12700000000E+01 0. -1.
         -4   -1    0    0    0  501 -0.00000000000E+00 -0.00000000000E+00 -0.14317211348E+02  0.14373428289E+02  0.12700000000E+01 0. -1.
         25    2    1    2    0    0  0.00000000000E+00  0.00000000000E+00  0.25794789202E+03  0.28664149364E+03  0.12500492343E+03 0.  0.
    9000005    1    3    3    0    0 -0.50239562445E+01 -0.36057778790E+02  0.24544949562E+03  0.24813677367E+03  0.10000000000E+01 0.  0.
    9000005    1    3    3    0    0  0.50239562445E+01  0.36057778790E+02  0.12498396399E+02  0.38504719972E+02  0.10000000000E+01 0.  0.
<mgrwt>
<rscale>  0 0.12500492E+03</rscale>
<asrwt>0</asrwt>
<pdfrwt beam="1">  1        4 0.41891491E-01 0.12500492E+03</pdfrwt>
<pdfrwt beam="2">  1       -4 0.22072001E-02 0.12500492E+03</pdfrwt>
<totfact> 0.77297196E+03</totfact>
</mgrwt>
</event>
<event>
 5    1  0.3304582E-002  0.1249954E+03  0.7818608E-02  0.1235076E+00
         -4   -1    0    0    0  501 -0.00000000000E+00  0.00000000000E+00  0.81673569864E+01  0.82655078576E+01  0.12700000000E+01 0.  1.
          4   -1    0    0  501    0  0.00000000000E+00 -0.00000000000E+00 -0.47528527304E+03  0.47528696980E+03  0.12700000000E+01 0.  1.
         25    2    1    2    0    0  0.00000000000E+00  0.00000000000E+00 -0.46711791605E+03  0.48355247766E+03  0.12499540455E+03 0.  0.
    9000005    1    3    3    0    0  0.31652789501E+02  0.12842185587E+02 -0.43599020386E+03  0.43732742731E+03  0.10000000000E+01 0.  0.
    9000005    1    3    3    0    0 -0.31652789501E+02 -0.12842185587E+02 -0.31127712186E+02  0.46225050350E+02  0.10000000000E+01 0.  0.
<mgrwt>
<rscale>  0 0.12499540E+03</rscale>
<asrwt>0</asrwt>
<pdfrwt beam="2">  1        4 0.73128470E-01 0.12499540E+03</pdfrwt>
<pdfrwt beam="1">  1       -4 0.12641974E-02 0.12499540E+03</pdfrwt>
<totfact> 0.57169251E+03</totfact>
</mgrwt>
</event>
<event>
 5    1  0.3304582E-002  0.1250024E+03  0.7818608E-02  0.1235065E+00
         -4   -1    0    0    0  501 -0.00000000000E+00  0.00000000000E+00  0.12760971481E+02  0.12824012365E+02  0.12700000000E+01 0.  1.
          4   -1    0    0  501    0  0.00000000000E+00 -0.00000000000E+00 -0.30530235889E+03  0.30530500036E+03  0.12700000000E+01 0.  1.
         25    2    1    2    0    0  0.00000000000E+00  0.00000000000E+00 -0.29254138741E+03  0.31812901272E+03  0.12500242153E+03 0.  0.
    9000005    1    3    3    0    0  0.26223956799E+02  0.49688074125E+02 -0.76629215614E+02  0.95024403739E+02  0.10000000000E+01 0.  0.
    9000005    1    3    3    0    0 -0.26223956799E+02 -0.49688074125E+02 -0.21591217179E+03  0.22310460898E+03  0.10000000000E+01 0.  0.
<mgrwt>
<rscale>  0 0.12500242E+03</rscale>
<asrwt>0</asrwt>
<pdfrwt beam="2">  1        4 0.46974641E-01 0.12500242E+03</pdfrwt>
<pdfrwt beam="1">  1       -4 0.19682791E-02 0.12500242E+03</pdfrwt>
<totfact> 0.73375271E+03</totfact>
</mgrwt>
</event>
<event>
 5    1  0.3304582E-002  0.1249965E+03  0.7818608E-02  0.1235075E+00
          4   -1    0    0  501    0  0.00000000000E+00  0.00000000000E+00  0.39379208174E+02  0.39399681933E+02  0.12700000000E+01 0.  1.
         -4   -1    0    0    0  501 -0.00000000000E+00 -0.00000000000E+00 -0.99139918767E+02  0.99148052896E+02  0.12700000000E+01 0.  1.
         25    2    1    2    0    0  0.00000000000E+00  0.00000000000E+00 -0.59760710593E+02  0.13854773483E+03  0.12499652914E+03 0.  0.
    9000005    1    3    3    0    0  0.32720655298E+02 -0.44780441613E+02 -0.61796170305E+02  0.83040326942E+02  0.10000000000E+01 0.  0.
    9000005    1    3    3    0    0 -0.32720655298E+02  0.44780441613E+02  0.20354597126E+01  0.55507407888E+02  0.10000000000E+01 0.  0.
<mgrwt>
<rscale>  0 0.12499653E+03</rscale>
<asrwt>0</asrwt>
<pdfrwt beam="1">  1        4 0.60605404E-02 0.12499653E+03</pdfrwt>
<pdfrwt beam="2">  1       -4 0.15254496E-01 0.12499653E+03</pdfrwt>
<totfact> 0.10164569E+04</totfact>
</mgrwt>
</event>
<event>
 5    1  0.3304582E-002  0.1250014E+03  0.7818608E-02  0.1235067E+00
         -4   -1    0    0    0  501 -0.00000000000E+00  0.00000000000E+00  0.31890880423E+02  0.31916158198E+02  0.12700000000E+01 0. -1.
          4   -1    0    0  501    0  0.00000000000E+00 -0.00000000000E+00 -0.12241362835E+03  0.12242021608E+03  0.12700000000E+01 0. -1.
         25    2    1    2    0    0  0.00000000000E+00  0.00000000000E+00 -0.90522747927E+02  0.15433637428E+03  0.12500139413E+03 0.  0.
    9000005    1    3    3    0    0 -0.37187331656E+02 -0.19464282711E+02  0.11902730755E+02  0.43639786166E+02  0.10000000000E+01 0.  0.
    9000005    1    3    3    0    0  0.37187331656E+02  0.19464282711E+02 -0.10242547868E+03  0.11069658811E+03  0.10000000000E+01 0.  0.
<mgrwt>
<rscale>  0 0.12500139E+03</rscale>
<asrwt>0</asrwt>
<pdfrwt beam="2">  1        4 0.18835317E-01 0.12500139E+03</pdfrwt>
<pdfrwt beam="1">  1       -4 0.49087406E-02 0.12500139E+03</pdfrwt>
<totfact> 0.98442848E+03</totfact>
</mgrwt>
</event>
<event>
 5    1  0.3304582E-002  0.1250002E+03  0.7818608E-02  0.1235069E+00
          4   -1    0    0  501    0  0.00000000000E+00  0.00000000000E+00  0.70878762661E+02  0.70890139627E+02  0.12700000000E+01 0.  1.
         -4   -1    0    0    0  501 -0.00000000000E+00 -0.00000000000E+00 -0.55088803116E+02  0.55103440263E+02  0.12700000000E+01 0.  1.
         25    2    1    2    0    0  0.00000000000E+00  0.00000000000E+00  0.15789959545E+02  0.12599357989E+03  0.12500023740E+03 0.  0.
    9000005    1    3    3    0    0  0.20708690620E+02 -0.47993163406E+02 -0.26627324111E+02  0.58670333135E+02  0.10000000000E+01 0.  0.
    9000005    1    3    3    0    0 -0.20708690620E+02  0.47993163406E+02  0.42417283656E+02  0.67323246755E+02  0.10000000000E+01 0.  0.
<mgrwt>
<rscale>  0 0.12500024E+03</rscale>
<asrwt>0</asrwt>
<pdfrwt beam="1">  1        4 0.10906426E-01 0.12500024E+03</pdfrwt>
<pdfrwt beam="2">  1       -4 0.84772015E-02 0.12500024E+03</pdfrwt>
<totfact> 0.10431042E+04</totfact>
</mgrwt>
</event>
<event>
 5    1  0.3304582E-002  0.1249947E+03  0.7818608E-02  0.1235078E+00
         -4   -1    0    0    0  501 -0.00000000000E+00  0.00000000000E+00  0.39226791700E+02  0.39247344969E+02  0.12700000000E+01 0. -1.
          4   -1    0    0  501    0  0.00000000000E+00 -0.00000000000E+00 -0.99522035049E+02  0.99530137950E+02  0.12700000000E+01 0. -1.
         25    2    1    2    0    0  0.00000000000E+00  0.00000000000E+00 -0.60295243349E+02  0.13877748292E+03  0.12499469347E+03 0.  0.
    9000005    1    3    3    0    0  0.16527998118E+02 -0.52689202024E+02  0.23282405819E+01  0.55278815436E+02  0.10000000000E+01 0.  0.
    9000005    1    3    3    0    0 -0.16527998118E+02  0.52689202024E+02 -0.62623483931E+02  0.83498667483E+02  0.10000000000E+01 0.  0.
<mgrwt>
<rscale>  0 0.12499469E+03</rscale>
<asrwt>0</asrwt>
<pdfrwt beam="2">  1        4 0.15313287E-01 0.12499469E+03</pdfrwt>
<pdfrwt beam="1">  1       -4 0.60370954E-02 0.12499469E+03</pdfrwt>
<totfact> 0.10160201E+04</totfact>
</mgrwt>
</event>
<event>
 5    1  0.3304582E-002  0.1249981E+03  0.7818608E-02  0.1235072E+00
          4   -1    0    0  501    0  0.00000000000E+00  0.00000000000E+00  0.12848739991E+03  0.12849367625E+03  0.12700000000E+01 0. -1.
         -4   -1    0    0    0  501 -0.00000000000E+00 -0.00000000000E+00 -0.30380590256E+02  0.30407123578E+02  0.12700000000E+01 0. -1.
         25    2    1    2    0    0  0.00000000000E+00  0.00000000000E+00  0.98106809655E+02  0.15890079983E+03  0.12499807232E+03 0.  0.
    9000005    1    3    3    0    0  0.25797784209E+02 -0.25007232237E+02  0.11405075881E+03  0.11958036177E+03  0.10000000000E+01 0.  0.
    9000005    1    3    3    0    0 -0.25797784209E+02  0.25007232237E+02 -0.15943949160E+02  0.39320438058E+02  0.10000000000E+01 0.  0.
<mgrwt>
<rscale>  0 0.12499807E+03</rscale>
<asrwt>0</asrwt>
<pdfrwt beam="1">  1        4 0.19769816E-01 0.12499807E+03</pdfrwt>
<pdfrwt beam="2">  1       -4 0.46764608E-02 0.12499807E+03</pdfrwt>
<totfact> 0.97559349E+03</totfact>
</mgrwt>
</event>
<event>
 5    1  0.3304582E-002  0.1249998E+03  0.7818608E-02  0.1235070E+00
          4   -1    0    0  501    0  0.00000000000E+00  0.00000000000E+00  0.58570170679E+02  0.58583938015E+02  0.12700000000E+01 0.  1.
         -4   -1    0    0    0  501 -0.00000000000E+00 -0.00000000000E+00 -0.66665668290E+02  0.66677764124E+02  0.12700000000E+01 0.  1.
         25    2    1    2    0    0  0.00000000000E+00  0.00000000000E+00 -0.80954976112E+01  0.12526170214E+03  0.12499982776E+03 0.  0.
    9000005    1    3    3    0    0  0.15357999101E+02 -0.59399062645E+02 -0.15952133617E+02  0.63400215665E+02  0.10000000000E+01 0.  0.
    9000005    1    3    3    0    0 -0.15357999101E+02  0.59399062645E+02  0.78566360056E+01  0.61861486474E+02  0.10000000000E+01 0.  0.
<mgrwt>
<rscale>  0 0.12499983E+03</rscale>
<asrwt>0</asrwt>
<pdfrwt beam="1">  1        4 0.90127850E-02 0.12499983E+03</pdfrwt>
<pdfrwt beam="2">  1       -4 0.10258246E-01 0.12499983E+03</pdfrwt>
<totfact> 0.10447222E+04</totfact>
</mgrwt>
</event>
<event>
 5    1  0.3304582E-002  0.1249949E+03  0.7818608E-02  0.1235077E+00
          4   -1    0    0  501    0  0.00000000000E+00  0.00000000000E+00  0.17567357937E+03  0.17567816992E+03  0.12700000000E+01 0. -1.
         -4   -1    0    0    0  501 -0.00000000000E+00 -0.00000000000E+00 -0.22211004098E+02  0.22247283048E+02  0.12700000000E+01 0. -1.
         25    2    1    2    0    0  0.00000000000E+00  0.00000000000E+00  0.15346257527E+03  0.19792545297E+03  0.12499489160E+03 0.  0.
    9000005    1    3    3    0    0 -0.36649875537E+02  0.41817098677E+02  0.12188228756E+03  0.13397079958E+03  0.10000000000E+01 0.  0.
    9000005    1    3    3    0    0  0.36649875537E+02 -0.41817098677E+02  0.31580287705E+02  0.63954653390E+02  0.10000000000E+01 0.  0.
<mgrwt>
<rscale>  0 0.12499489E+03</rscale>
<asrwt>0</asrwt>
<pdfrwt beam="1">  1        4 0.27029848E-01 0.12499489E+03</pdfrwt>
<pdfrwt beam="2">  1       -4 0.34202214E-02 0.12499489E+03</pdfrwt>
<totfact> 0.90496652E+03</totfact>
</mgrwt>
</event>
<event>
 4    1  0.3304582E-002  0.1251361E+03  0.7818608E-02  0.1234857E+00
         -4   -1    0    0    0  501 -0.00000000000E+00  0.00000000000E+00  0.16132563941E+02  0.16182475685E+02  0.12700000000E+01 0.  1.
          4   -1    0    0  501    0  0.00000000000E+00 -0.00000000000E+00 -0.24223565807E+03  0.24223898724E+03  0.12700000000E+01 0.  1.
    9000005    1    1    2    0    0 -0.26961553269E+02 -0.33573168849E+02 -0.19328669777E+02  0.47208902726E+02  0.10000000000E+01 0.  0.
    9000005    1    1    2    0    0  0.26961553269E+02  0.33573168849E+02 -0.20677442435E+03  0.21121256020E+03  0.10000000000E+01 0.  0.
<mgrwt>
<rscale>  0 0.12513610E+03</rscale>
<asrwt>0</asrwt>
<pdfrwt beam="2">  1        4 0.37271117E-01 0.12513610E+03</pdfrwt>
<pdfrwt beam="1">  1       -4 0.24860285E-02 0.12513610E+03</pdfrwt>
<totfact> 0.80882778E+03</totfact>
</mgrwt>
</event>
<event>
 5    1  0.3304582E-002  0.1249955E+03  0.7818608E-02  0.1235076E+00
          4   -1    0    0  501    0  0.00000000000E+00  0.00000000000E+00  0.66315718742E+03  0.66315840349E+03  0.12700000000E+01 0. -1.
         -4   -1    0    0    0  501 -0.00000000000E+00 -0.00000000000E+00 -0.58202598322E+01  0.59572077784E+01  0.12700000000E+01 0. -1.
         25    2    1    2    0    0  0.00000000000E+00  0.00000000000E+00  0.65733692758E+03  0.66911561127E+03  0.12499545944E+03 0.  0.
    9000005    1    3    3    0    0  0.32711758805E+02  0.37716164090E+02  0.52984877508E+03  0.53219666726E+03  0.10000000000E+01 0.  0.
    9000005    1    3    3    0    0 -0.32711758805E+02 -0.37716164090E+02  0.12748815251E+03  0.13691894401E+03  0.10000000000E+01 0.  0.
<mgrwt>
<rscale>  0 0.12499546E+03</rscale>
<asrwt>0</asrwt>
<pdfrwt beam="1">  1        4 0.10203488E+00 0.12499546E+03</pdfrwt>
<pdfrwt beam="2">  1       -4 0.90605201E-03 0.12499546E+03</pdfrwt>
<totfact> 0.44772350E+03</totfact>
</mgrwt>
</event>
<event>
 5    1  0.3304582E-002  0.1249994E+03  0.7818608E-02  0.1235070E+00
          4   -1    0    0  501    0  0.00000000000E+00  0.00000000000E+00  0.40867939273E+02  0.40887667583E+02  0.12700000000E+01 0. -1.
         -4   -1    0    0    0  501 -0.00000000000E+00 -0.00000000000E+00 -0.95534319826E+02  0.95542760922E+02  0.12700000000E+01 0. -1.
         25    2    1    2    0    0  0.00000000000E+00  0.00000000000E+00 -0.54666380554E+02  0.13643042851E+03  0.12499939464E+03 0.  0.
    9000005    1    3    3    0    0 -0.57964331474E+02  0.86444279010E+01 -0.36554862235E+01  0.58727782493E+02  0.10000000000E+01 0.  0.
    9000005    1    3    3    0    0  0.57964331474E+02 -0.86444279010E+01 -0.51010894330E+02  0.77702646013E+02  0.10000000000E+01 0.  0.
<mgrwt>
<rscale>  0 0.12499939E+03</rscale>
<asrwt>0</asrwt>
<pdfrwt beam="1">  1        4 0.62895422E-02 0.12499939E+03</pdfrwt>
<pdfrwt beam="2">  1       -4 0.14699754E-01 0.12499939E+03</pdfrwt>
<totfact> 0.10208148E+04</totfact>
</mgrwt>
</event>
<event>
 5    1  0.3304582E-002  0.1250017E+03  0.7818608E-02  0.1235067E+00
          4   -1    0    0  501    0  0.00000000000E+00  0.00000000000E+00  0.75668741140E+02  0.75679398027E+02  0.12700000000E+01 0. -1.
         -4   -1    0    0    0  501 -0.00000000000E+00 -0.00000000000E+00 -0.51602336939E+02  0.51617962742E+02  0.12700000000E+01 0. -1.
         25    2    1    2    0    0  0.00000000000E+00  0.00000000000E+00  0.24066404200E+02  0.12729736077E+03  0.12500170498E+03 0.  0.
    9000005    1    3    3    0    0 -0.73331113161E+01 -0.29915854686E+02 -0.43340235857E+02  0.53179967350E+02  0.10000000000E+01 0.  0.
    9000005    1    3    3    0    0  0.73331113161E+01  0.29915854686E+02  0.67406640058E+02  0.74117393418E+02  0.10000000000E+01 0.  0.
<mgrwt>
<rscale>  0 0.12500170E+03</rscale>
<asrwt>0</asrwt>
<pdfrwt beam="1">  1        4 0.11643367E-01 0.12500170E+03</pdfrwt>
<pdfrwt beam="2">  1       -4 0.79408428E-02 0.12500170E+03</pdfrwt>
<totfact> 0.10402291E+04</totfact>
</mgrwt>
</event>
<event>
 5    1  0.3304582E-002  0.1249989E+03  0.7818608E-02  0.1235071E+00
         -4   -1    0    0    0  501 -0.00000000000E+00  0.00000000000E+00  0.77712549855E+01  0.78743446743E+01  0.12700000000E+01 0. -1.
          4   -1    0    0  501    0  0.00000000000E+00 -0.00000000000E+00 -0.49922871949E+03  0.49923033488E+03  0.12700000000E+01 0. -1.
         25    2    1    2    0    0  0.00000000000E+00  0.00000000000E+00 -0.49145746450E+03  0.50710467955E+03  0.12499886643E+03 0.  0.
    9000005    1    3    3    0    0  0.47319121119E+02  0.13262632234E+02 -0.40233577015E+03  0.40532711306E+03  0.10000000000E+01 0.  0.
    9000005    1    3    3    0    0 -0.47319121119E+02 -0.13262632234E+02 -0.89121694355E+02  0.10177756650E+03  0.10000000000E+01 0.  0.
<mgrwt>
<rscale>  0 0.12499887E+03</rscale>
<asrwt>0</asrwt>
<pdfrwt beam="2">  1        4 0.76812447E-01 0.12499887E+03</pdfrwt>
<pdfrwt beam="1">  1       -4 0.12036323E-02 0.12499887E+03</pdfrwt>
<totfact> 0.55318703E+03</totfact>
</mgrwt>
</event>
<event>
 5    1  0.3304582E-002  0.1249661E+03  0.7818608E-02  0.1235122E+00
          4   -1    0    0  501    0  0.00000000000E+00  0.00000000000E+00  0.11077146365E+03  0.11077874371E+03  0.12700000000E+01 0. -1.
         -4   -1    0    0    0  501 -0.00000000000E+00 -0.00000000000E+00 -0.35225030270E+02  0.35247917067E+02  0.12700000000E+01 0. -1.
         25    2    1    2    0    0  0.00000000000E+00  0.00000000000E+00  0.75546433378E+02  0.14602666078E+03  0.12496608365E+03 0.  0.
    9000005    1    3    3    0    0  0.53145437906E+02  0.72633718540E+00 -0.59597815447E+00  0.53163148194E+02  0.10000000000E+01 0.  0.
    9000005    1    3    3    0    0 -0.53145437906E+02 -0.72633718540E+00  0.76142411533E+02  0.92863512587E+02  0.10000000000E+01 0.  0.
<mgrwt>
<rscale>  0 0.12496608E+03</rscale>
<asrwt>0</asrwt>
<pdfrwt beam="1">  1        4 0.17044084E-01 0.12496608E+03</pdfrwt>
<pdfrwt beam="2">  1       -4 0.54215559E-02 0.12496608E+03</pdfrwt>
<totfact> 0.10017819E+04</totfact>
</mgrwt>
</event>
<event>
 4    1  0.3304582E-002  0.1247441E+03  0.7818608E-02  0.1235470E+00
         -4   -1    0    0    0  501 -0.00000000000E+00  0.00000000000E+00  0.63220452492E+02  0.63233207362E+02  0.12700000000E+01 0. -1.
          4   -1    0    0  501    0  0.00000000000E+00 -0.00000000000E+00 -0.61509497041E+02  0.61522606627E+02  0.12700000000E+01 0. -1.
    9000005    1    1    2    0    0  0.38827419097E+02  0.21366140645E+02  0.44736603146E+02  0.62979711819E+02  0.10000000000E+01 0.  0.
    9000005    1    1    2    0    0 -0.38827419097E+02 -0.21366140645E+02 -0.43025647695E+02  0.61776102170E+02  0.10000000000E+01 0.  0.
<mgrwt>
<rscale>  0 0.12474408E+03</rscale>
<asrwt>0</asrwt>
<pdfrwt beam="2">  1        4 0.94649891E-02 0.12474408E+03</pdfrwt>
<pdfrwt beam="1">  1       -4 0.97282130E-02 0.12474408E+03</pdfrwt>
<totfact> 0.10518890E+04</totfact>
</mgrwt>
</event>
<event>
 5    1  0.3304582E-002  0.1250001E+03  0.7818608E-02  0.1235069E+00
          4   -1    0    0  501    0  0.00000000000E+00  0.00000000000E+00  0.44089631505E+02  0.44107918861E+02  0.12700000000E+01 0. -1.
         -4   -1    0    0    0  501 -0.00000000000E+00 -0.00000000000E+00 -0.88556876439E+02  0.88565982547E+02  0.12700000000E+01 0. -1.
         25    2    1    2    0    0  0.00000000000E+00  0.00000000000E+00 -0.44467244933E+02  0.13267390141E+03  0.12500011297E+03 0.  0.
    9000005    1    3    3    0    0  0.15908630459E+02  0.56146756778E+02  0.14930020717E+01  0.58384688703E+02  0.10000000000E+01 0.  0.
    9000005    1    3    3    0    0 -0.15908630459E+02 -0.56146756778E+02 -0.45960247005E+02  0.74289212706E+02  0.10000000000E+01 0.  0.
<mgrwt>
<rscale>  0 0.12500011E+03</rscale>
<asrwt>0</asrwt>
<pdfrwt beam="1">  1        4 0.67851275E-02 0.12500011E+03</pdfrwt>
<pdfrwt beam="2">  1       -4 0.13626242E-01 0.12500011E+03</pdfrwt>
<totfact> 0.10287309E+04</totfact>
</mgrwt>
</event>
<event>
 5    1  0.3304582E-002  0.1250054E+03  0.7818608E-02  0.1235061E+00
          4   -1    0    0  501    0  0.00000000000E+00  0.00000000000E+00  0.68675376387E+02  0.68687118312E+02  0.12700000000E+01 0. -1.
         -4   -1    0    0    0  501 -0.00000000000E+00 -0.00000000000E+00 -0.56861150526E+02  0.56875331552E+02  0.12700000000E+01 0. -1.
         25    2    1    2    0    0  0.00000000000E+00  0.00000000000E+00  0.11814225861E+02  0.12556244986E+03  0.12500541141E+03 0.  0.
    9000005    1    3    3    0    0  0.39427033642E+02 -0.44506874531E+02 -0.13420130345E+02  0.60962716153E+02  0.10000000000E+01 0.  0.
    9000005    1    3    3    0    0 -0.39427033642E+02  0.44506874531E+02  0.25234356207E+02  0.64599733710E+02  0.10000000000E+01 0.  0.
<mgrwt>
<rscale>  0 0.12500541E+03</rscale>
<asrwt>0</asrwt>
<pdfrwt beam="1">  1        4 0.10567437E-01 0.12500541E+03</pdfrwt>
<pdfrwt beam="2">  1       -4 0.87498634E-02 0.12500541E+03</pdfrwt>
<totfact> 0.10439301E+04</totfact>
</mgrwt>
</event>
<event>
 5    1  0.3304582E-002  0.1249989E+03  0.7818608E-02  0.1235071E+00
          4   -1    0    0  501    0  0.00000000000E+00  0.00000000000E+00  0.99114243321E+02  0.99122379557E+02  0.12700000000E+01 0. -1.
         -4   -1    0    0    0  501 -0.00000000000E+00 -0.00000000000E+00 -0.39390940000E+02  0.39411407664E+02  0.12700000000E+01 0. -1.
         25    2    1    2    0    0  0.00000000000E+00  0.00000000000E+00  0.59723303321E+02  0.13853378722E+03  0.12499894897E+03 0.  0.
    9000005    1    3    3    0    0  0.47519830095E+02  0.33997845291E+02  0.52989004044E+01  0.58677645507E+02  0.10000000000E+01 0.  0.
    9000005    1    3    3    0    0 -0.47519830095E+02 -0.33997845291E+02  0.54424402916E+02  0.79856141714E+02  0.10000000000E+01 0.  0.
<mgrwt>
<rscale>  0 0.12499895E+03</rscale>
<asrwt>0</asrwt>
<pdfrwt beam="1">  1        4 0.15250545E-01 0.12499895E+03</pdfrwt>
<pdfrwt beam="2">  1       -4 0.60623450E-02 0.12499895E+03</pdfrwt>
<totfact> 0.10164305E+04</totfact>
</mgrwt>
</event>
<event>
 5    1  0.3304582E-002  0.1250027E+03  0.7818608E-02  0.1235065E+00
          4   -1    0    0  501    0  0.00000000000E+00  0.00000000000E+00  0.63320979145E+01  0.64582012975E+01  0.12700000000E+01 0. -1.
         -4   -1    0    0    0  501 -0.00000000000E+00 -0.00000000000E+00 -0.61071450613E+03  0.61071582663E+03  0.12700000000E+01 0. -1.
         25    2    1    2    0    0  0.00000000000E+00  0.00000000000E+00 -0.60438240821E+03  0.61717402793E+03  0.12500274153E+03 0.  0.
    9000005    1    3    3    0    0  0.32840473155E+02  0.50295551116E+02 -0.38731923011E+03  0.39195066673E+03  0.10000000000E+01 0.  0.
    9000005    1    3    3    0    0 -0.32840473155E+02 -0.50295551116E+02 -0.21706317810E+03  0.22522336119E+03  0.10000000000E+01 0.  0.
<mgrwt>
<rscale>  0 0.12500274E+03</rscale>
<asrwt>0</asrwt>
<pdfrwt beam="1">  1        4 0.98397123E-03 0.12500274E+03</pdfrwt>
<pdfrwt beam="2">  1       -4 0.93965833E-01 0.12500274E+03</pdfrwt>
<totfact> 0.47798321E+03</totfact>
</mgrwt>
</event>
<event>
 5    1  0.3304582E-002  0.1250005E+03  0.7818608E-02  0.1235068E+00
         -4   -1    0    0    0  501 -0.00000000000E+00  0.00000000000E+00  0.88311560485E+02  0.88320691887E+02  0.12700000000E+01 0.  1.
          4   -1    0    0  501    0  0.00000000000E+00 -0.00000000000E+00 -0.44212422300E+02  0.44230658888E+02  0.12700000000E+01 0.  1.
         25    2    1    2    0    0  0.00000000000E+00  0.00000000000E+00  0.44099138185E+02  0.13255135077E+03  0.12500050641E+03 0.  0.
    9000005    1    3    3    0    0 -0.51598383990E+02  0.35246400988E+02  0.21242239653E+02  0.66007081123E+02  0.10000000000E+01 0.  0.
    9000005    1    3    3    0    0  0.51598383990E+02 -0.35246400988E+02  0.22856898532E+02  0.66544269651E+02  0.10000000000E+01 0.  0.
<mgrwt>
<rscale>  0 0.12500051E+03</rscale>
<asrwt>0</asrwt>
<pdfrwt beam="2">  1        4 0.68040164E-02 0.12500051E+03</pdfrwt>
<pdfrwt beam="1">  1       -4 0.13588499E-01 0.12500051E+03</pdfrwt>
<totfact> 0.10289827E+04</totfact>
</mgrwt>
</event>
<event>
 5    1  0.3304582E-002  0.1250040E+03  0.7818608E-02  0.1235063E+00
          4   -1    0    0  501    0  0.00000000000E+00  0.00000000000E+00  0.25555968240E+03  0.25556283800E+03  0.12700000000E+01 0.  1.
         -4   -1    0    0    0  501 -0.00000000000E+00 -0.00000000000E+00 -0.15256414786E+02  0.15309183261E+02  0.12700000000E+01 0.  1.
         25    2    1    2    0    0  0.00000000000E+00  0.00000000000E+00  0.24030326761E+03  0.27087202126E+03  0.12500396585E+03 0.  0.
    9000005    1    3    3    0    0  0.21249029530E+02  0.38135138140E+02  0.23252150533E+02  0.49471936704E+02  0.10000000000E+01 0.  0.
    9000005    1    3    3    0    0 -0.21249029530E+02 -0.38135138140E+02  0.21705111708E+03  0.22140008456E+03  0.10000000000E+01 0.  0.
<mgrwt>
<rscale>  0 0.12500397E+03</rscale>
<asrwt>0</asrwt>
<pdfrwt beam="1">  1        4 0.39321177E-01 0.12500397E+03</pdfrwt>
<pdfrwt beam="2">  1       -4 0.23514425E-02 0.12500397E+03</pdfrwt>
<totfact> 0.79397123E+03</totfact>
</mgrwt>
</event>
<event>
 5    1  0.3304582E-002  0.1249975E+03  0.7818608E-02  0.1235073E+00
          4   -1    0    0  501    0  0.00000000000E+00  0.00000000000E+00  0.35052926548E+01  0.37282672377E+01  0.12700000000E+01 0.  1.
         -4   -1    0    0    0  501 -0.00000000000E+00 -0.00000000000E+00 -0.10797692989E+04  0.10797700457E+04  0.12700000000E+01 0.  1.
         25    2    1    2    0    0  0.00000000000E+00  0.00000000000E+00 -0.10762640062E+04  0.10834983130E+04  0.12499753260E+03 0.  0.
    9000005    1    3    3    0    0  0.42906150651E+02  0.24789821040E+02 -0.20810133056E+03  0.21392203433E+03  0.10000000000E+01 0.  0.
    9000005    1    3    3    0    0 -0.42906150651E+02 -0.24789821040E+02 -0.86816267564E+03  0.86957627864E+03  0.10000000000E+01 0.  0.
<mgrwt>
<rscale>  0 0.12499753E+03</rscale>
<asrwt>0</asrwt>
<pdfrwt beam="1">  1        4 0.55648600E-03 0.12499753E+03</pdfrwt>
<pdfrwt beam="2">  1       -4 0.16613531E+00 0.12499753E+03</pdfrwt>
<totfact> 0.27972987E+03</totfact>
</mgrwt>
</event>
<event>
 5    1  0.3304582E-002  0.1249991E+03  0.7818608E-02  0.1235071E+00
          4   -1    0    0  501    0  0.00000000000E+00  0.00000000000E+00  0.54804099227E+03  0.54804246378E+03  0.12700000000E+01 0. -1.
         -4   -1    0    0    0  501 -0.00000000000E+00 -0.00000000000E+00 -0.70694866011E+01  0.71826555537E+01  0.12700000000E+01 0. -1.
         25    2    1    2    0    0  0.00000000000E+00  0.00000000000E+00  0.54097150567E+03  0.55522511934E+03  0.12499905278E+03 0.  0.
    9000005    1    3    3    0    0 -0.72535079136E+01 -0.17986779975E+02  0.53435664461E+03  0.53470941760E+03  0.10000000000E+01 0.  0.
    9000005    1    3    3    0    0  0.72535079136E+01  0.17986779975E+02  0.66148610597E+01  0.20515701737E+02  0.10000000000E+01 0.  0.
<mgrwt>
<rscale>  0 0.12499905E+03</rscale>
<asrwt>0</asrwt>
<pdfrwt beam="1">  1        4 0.84322845E-01 0.12499905E+03</pdfrwt>
<pdfrwt beam="2">  1       -4 0.10964315E-02 0.12499905E+03</pdfrwt>
<totfact> 0.51822731E+03</totfact>
</mgrwt>
</event>
<event>
 5    1  0.3304582E-002  0.1249924E+03  0.7818608E-02  0.1235081E+00
         -4   -1    0    0    0  501 -0.00000000000E+00  0.00000000000E+00  0.59922506344E+02  0.59935963048E+02  0.12700000000E+01 0. -1.
          4   -1    0    0  501    0  0.00000000000E+00 -0.00000000000E+00 -0.65153502779E+02  0.65165879296E+02  0.12700000000E+01 0. -1.
         25    2    1    2    0    0  0.00000000000E+00  0.00000000000E+00 -0.52309964355E+01  0.12510184234E+03  0.12499243031E+03 0.  0.
    9000005    1    3    3    0    0  0.26770827713E+02 -0.56459414291E+02 -0.19559600305E+01  0.62523343306E+02  0.10000000000E+01 0.  0.
    9000005    1    3    3    0    0 -0.26770827713E+02  0.56459414291E+02 -0.32750364050E+01  0.62578499039E+02  0.10000000000E+01 0.  0.
<mgrwt>
<rscale>  0 0.12499243E+03</rscale>
<asrwt>0</asrwt>
<pdfrwt beam="2">  1        4 0.10025603E-01 0.12499243E+03</pdfrwt>
<pdfrwt beam="1">  1       -4 0.92208343E-02 0.12499243E+03</pdfrwt>
<totfact> 0.10452439E+04</totfact>
</mgrwt>
</event>
<event>
 5    1  0.3304582E-002  0.1249997E+03  0.7818608E-02  0.1235070E+00
         -4   -1    0    0    0  501 -0.00000000000E+00  0.00000000000E+00  0.27848040385E+02  0.27876984293E+02  0.12700000000E+01 0.  1.
          4   -1    0    0  501    0  0.00000000000E+00 -0.00000000000E+00 -0.14016476467E+03  0.14017051813E+03  0.12700000000E+01 0.  1.
         25    2    1    2    0    0  0.00000000000E+00  0.00000000000E+00 -0.11231672428E+03  0.16804750243E+03  0.12499966607E+03 0.  0.
    9000005    1    3    3    0    0  0.21257431695E+02  0.17109120552E+02 -0.13173889519E+03  0.13453897917E+03  0.10000000000E+01 0.  0.
    9000005    1    3    3    0    0 -0.21257431695E+02 -0.17109120552E+02  0.19422170910E+02  0.33508523262E+02  0.10000000000E+01 0.  0.
<mgrwt>
<rscale>  0 0.12499967E+03</rscale>
<asrwt>0</asrwt>
<pdfrwt beam="2">  1        4 0.21566479E-01 0.12499967E+03</pdfrwt>
<pdfrwt beam="1">  1       -4 0.42869830E-02 0.12499967E+03</pdfrwt>
<totfact> 0.95814055E+03</totfact>
</mgrwt>
</event>
<event>
 5    1  0.3304582E-002  0.1250000E+03  0.7818608E-02  0.1235069E+00
          4   -1    0    0  501    0  0.00000000000E+00  0.00000000000E+00  0.49018687433E+03  0.49018851951E+03  0.12700000000E+01 0.  1.
         -4   -1    0    0    0  501 -0.00000000000E+00 -0.00000000000E+00 -0.79166345260E+01  0.80178552131E+01  0.12700000000E+01 0.  1.
         25    2    1    2    0    0  0.00000000000E+00  0.00000000000E+00  0.48227023980E+03  0.49820637473E+03  0.12500003048E+03 0.  0.
    9000005    1    3    3    0    0 -0.53688309207E+02 -0.10633931033E+02  0.12092056315E+03  0.13273393548E+03  0.10000000000E+01 0.  0.
    9000005    1    3    3    0    0  0.53688309207E+02  0.10633931033E+02  0.36134967665E+03  0.36547243925E+03  0.10000000000E+01 0.  0.
<mgrwt>
<rscale>  0 0.12500003E+03</rscale>
<asrwt>0</asrwt>
<pdfrwt beam="1">  1        4 0.75421266E-01 0.12500003E+03</pdfrwt>
<pdfrwt beam="2">  1       -4 0.12258567E-02 0.12500003E+03</pdfrwt>
<totfact> 0.56003765E+03</totfact>
</mgrwt>
</event>
<event>
 5    1  0.3304582E-002  0.1250038E+03  0.7818608E-02  0.1235063E+00
         -4   -1    0    0    0  501 -0.00000000000E+00  0.00000000000E+00  0.35406259185E+03  0.35406486955E+03  0.12700000000E+01 0.  1.
          4   -1    0    0  501    0  0.00000000000E+00 -0.00000000000E+00 -0.10994455780E+02  0.11067563323E+02  0.12700000000E+01 0.  1.
         25    2    1    2    0    0  0.00000000000E+00  0.00000000000E+00  0.34306813607E+03  0.36513243287E+03  0.12500379013E+03 0.  0.
    9000005    1    3    3    0    0 -0.59018376965E+02  0.17610870255E+02  0.20247090303E+03  0.21163359408E+03  0.10000000000E+01 0.  0.
    9000005    1    3    3    0    0  0.59018376965E+02 -0.17610870255E+02  0.14059723305E+03  0.15349883879E+03  0.10000000000E+01 0.  0.
<mgrwt>
<rscale>  0 0.12500379E+03</rscale>
<asrwt>0</asrwt>
<pdfrwt beam="2">  1        4 0.16972539E-02 0.12500379E+03</pdfrwt>
<pdfrwt beam="1">  1       -4 0.54476958E-01 0.12500379E+03</pdfrwt>
<totfact> 0.68085566E+03</totfact>
</mgrwt>
</event>
<event>
 5    1  0.3304582E-002  0.1249978E+03  0.7818608E-02  0.1235073E+00
         -4   -1    0    0    0  501 -0.00000000000E+00  0.00000000000E+00  0.37284856759E+03  0.37285073053E+03  0.12700000000E+01 0.  1.
          4   -1    0    0  501    0  0.00000000000E+00 -0.00000000000E+00 -0.10435714959E+02  0.10512708818E+02  0.12700000000E+01 0.  1.
         25    2    1    2    0    0  0.00000000000E+00  0.00000000000E+00  0.36241285263E+03  0.38336343934E+03  0.12499780347E+03 0.  0.
    9000005    1    3    3    0    0 -0.33722777269E+02  0.31325261497E+01  0.20137675191E+02  0.39415281160E+02  0.10000000000E+01 0.  0.
    9000005    1    3    3    0    0  0.33722777269E+02 -0.31325261497E+01  0.34227517744E+03  0.34394815819E+03  0.10000000000E+01 0.  0.
<mgrwt>
<rscale>  0 0.12499780E+03</rscale>
<asrwt>0</asrwt>
<pdfrwt beam="2">  1        4 0.16115837E-02 0.12499780E+03</pdfrwt>
<pdfrwt beam="1">  1       -4 0.57367403E-01 0.12499780E+03</pdfrwt>
<totfact> 0.66206869E+03</totfact>
</mgrwt>
</event>
<event>
 5    1  0.3304582E-002  0.1250042E+03  0.7818608E-02  0.1235063E+00
         -4   -1    0    0    0  501 -0.00000000000E+00  0.00000000000E+00  0.20586549161E+02  0.20625685597E+02  0.12700000000E+01 0. -1.
          4   -1    0    0  501    0  0.00000000000E+00 -0.00000000000E+00 -0.18953909700E+03  0.18954335175E+03  0.12700000000E+01 0. -1.
         25    2    1    2    0    0  0.00000000000E+00  0.00000000000E+00 -0.16895254784E+03  0.21016903734E+03  0.12500424327E+03 0.  0.
    9000005    1    3    3    0    0  0.18476655604E+02  0.27638326753E+00 -0.18484906404E+03  0.18577308650E+03  0.10000000000E+01 0.  0.
    9000005    1    3    3    0    0 -0.18476655604E+02 -0.27638326753E+00  0.15896516206E+02  0.24395950843E+02  0.10000000000E+01 0.  0.
<mgrwt>
<rscale>  0 0.12500424E+03</rscale>
<asrwt>0</asrwt>
<pdfrwt beam="2">  1        4 0.29163198E-01 0.12500424E+03</pdfrwt>
<pdfrwt beam="1">  1       -4 0.31704993E-02 0.12500424E+03</pdfrwt>
<totfact> 0.88439893E+03</totfact>
</mgrwt>
</event>
<event>
 5    1  0.3304582E-002  0.1249986E+03  0.7818608E-02  0.1235072E+00
         -4   -1    0    0    0  501 -0.00000000000E+00  0.00000000000E+00  0.46547950372E+02  0.46565272294E+02  0.12700000000E+01 0.  1.
          4   -1    0    0  501    0  0.00000000000E+00 -0.00000000000E+00 -0.83879153925E+02  0.83888767801E+02  0.12700000000E+01 0.  1.
         25    2    1    2    0    0  0.00000000000E+00  0.00000000000E+00 -0.37331203553E+02  0.13045404010E+03  0.12499855127E+03 0.  0.
    9000005    1    3    3    0    0  0.16686150134E+02 -0.59233040272E+02 -0.30011067306E+02  0.68473679812E+02  0.10000000000E+01 0.  0.
    9000005    1    3    3    0    0 -0.16686150134E+02  0.59233040272E+02 -0.73201362479E+01  0.61980360283E+02  0.10000000000E+01 0.  0.
<mgrwt>
<rscale>  0 0.12499855E+03</rscale>
<asrwt>0</asrwt>
<pdfrwt beam="2">  1        4 0.12906557E-01 0.12499855E+03</pdfrwt>
<pdfrwt beam="1">  1       -4 0.71632951E-02 0.12499855E+03</pdfrwt>
<totfact> 0.10335142E+04</totfact>
</mgrwt>
</event>
<event>
 5    1  0.3304582E-002  0.1250010E+03  0.7818608E-02  0.1235068E+00
         -4   -1    0    0    0  501 -0.00000000000E+00  0.00000000000E+00  0.79455451784E+02  0.79465600848E+02  0.12700000000E+01 0.  1.
          4   -1    0    0  501    0  0.00000000000E+00 -0.00000000000E+00 -0.49142076613E+02  0.49158484454E+02  0.12700000000E+01 0.  1.
         25    2    1    2    0    0  0.00000000000E+00  0.00000000000E+00  0.30313375171E+02  0.12862408530E+03  0.12500101842E+03 0.  0.
    9000005    1    3    3    0    0  0.33862449742E+02 -0.50403408509E+02  0.30354495149E+02  0.67893773408E+02  0.10000000000E+01 0.  0.
    9000005    1    3    3    0    0 -0.33862449742E+02  0.50403408509E+02 -0.41119977322E-01  0.60730311894E+02  0.10000000000E+01 0.  0.
<mgrwt>
<rscale>  0 0.12500102E+03</rscale>
<asrwt>0</asrwt>
<pdfrwt beam="2">  1        4 0.75623624E-02 0.12500102E+03</pdfrwt>
<pdfrwt beam="1">  1       -4 0.12225958E-01 0.12500102E+03</pdfrwt>
<totfact> 0.10373793E+04</totfact>
</mgrwt>
</event>
<event>
 5    1  0.3304582E-002  0.1250124E+03  0.7818608E-02  0.1235050E+00
          4   -1    0    0  501    0  0.00000000000E+00  0.00000000000E+00  0.10386239995E+03  0.10387016426E+03  0.12700000000E+01 0.  1.
         -4   -1    0    0    0  501 -0.00000000000E+00 -0.00000000000E+00 -0.37597423851E+02  0.37618867344E+02  0.12700000000E+01 0.  1.
         25    2    1    2    0    0  0.00000000000E+00  0.00000000000E+00  0.66264976100E+02  0.14148903161E+03  0.12501239541E+03 0.  0.
    9000005    1    3    3    0    0 -0.57433851849E+02  0.13047618973E+02  0.56795962268E+02  0.81827067826E+02  0.10000000000E+01 0.  0.
    9000005    1    3    3    0    0  0.57433851849E+02 -0.13047618973E+02  0.94690138323E+01  0.59661963779E+02  0.10000000000E+01 0.  0.
<mgrwt>
<rscale>  0 0.12501240E+03</rscale>
<asrwt>0</asrwt>
<pdfrwt beam="1">  1        4 0.15981078E-01 0.12501240E+03</pdfrwt>
<pdfrwt beam="2">  1       -4 0.57864657E-02 0.12501240E+03</pdfrwt>
<totfact> 0.10099997E+04</totfact>
</mgrwt>
</event>
<event>
 5    1  0.3304582E-002  0.1249998E+03  0.7818608E-02  0.1235070E+00
          4   -1    0    0  501    0  0.00000000000E+00  0.00000000000E+00  0.59650262555E+02  0.59663780662E+02  0.12700000000E+01 0. -1.
         -4   -1    0    0    0  501 -0.00000000000E+00 -0.00000000000E+00 -0.65458592161E+02  0.65470911004E+02  0.12700000000E+01 0. -1.
         25    2    1    2    0    0  0.00000000000E+00  0.00000000000E+00 -0.58083296058E+01  0.12513469167E+03  0.12499981746E+03 0.  0.
    9000005    1    3    3    0    0  0.26239094799E+01  0.17308421943E+02  0.57150331499E+02  0.59779819016E+02  0.10000000000E+01 0.  0.
    9000005    1    3    3    0    0 -0.26239094799E+01 -0.17308421943E+02 -0.62958661105E+02  0.65354872651E+02  0.10000000000E+01 0.  0.
<mgrwt>
<rscale>  0 0.12499982E+03</rscale>
<asrwt>0</asrwt>
<pdfrwt beam="1">  1        4 0.91789509E-02 0.12499982E+03</pdfrwt>
<pdfrwt beam="2">  1       -4 0.10072540E-01 0.12499982E+03</pdfrwt>
<totfact> 0.10449981E+04</totfact>
</mgrwt>
</event>
<event>
 5    1  0.3304582E-002  0.1250002E+03  0.7818608E-02  0.1235069E+00
          4   -1    0    0  501    0  0.00000000000E+00  0.00000000000E+00  0.43282543989E+03  0.43282730311E+03  0.12700000000E+01 0.  1.
         -4   -1    0    0    0  501 -0.00000000000E+00 -0.00000000000E+00 -0.89784605723E+01  0.90678362495E+01  0.12700000000E+01 0.  1.
         25    2    1    2    0    0  0.00000000000E+00  0.00000000000E+00  0.42384697932E+03  0.44189513936E+03  0.12500020925E+03 0.  0.
    9000005    1    3    3    0    0  0.18692455310E+02  0.48200096304E+02  0.33603744242E+03  0.33999238209E+03  0.10000000000E+01 0.  0.
    9000005    1    3    3    0    0 -0.18692455310E+02 -0.48200096304E+02  0.87809536898E+02  0.10190275727E+03  0.10000000000E+01 0.  0.
<mgrwt>
<rscale>  0 0.12500021E+03</rscale>
<asrwt>0</asrwt>
<pdfrwt beam="1">  1        4 0.66595559E-01 0.12500021E+03</pdfrwt>
<pdfrwt beam="2">  1       -4 0.13883198E-02 0.12500021E+03</pdfrwt>
<totfact> 0.60672085E+03</totfact>
</mgrwt>
</event>
<event>
 5    1  0.3304582E-002  0.1250195E+03  0.7818608E-02  0.1235039E+00
         -4   -1    0    0    0  501 -0.00000000000E+00  0.00000000000E+00  0.96154340601E+01  0.96989418065E+01  0.12700000000E+01 0. -1.
          4   -1    0    0  501    0  0.00000000000E+00 -0.00000000000E+00 -0.40453293437E+03  0.40453492790E+03  0.12700000000E+01 0. -1.
         25    2    1    2    0    0  0.00000000000E+00  0.00000000000E+00 -0.39491750031E+03  0.41423386971E+03  0.12501946552E+03 0.  0.
    9000005    1    3    3    0    0 -0.11106785224E+02  0.47386917438E+02 -0.67535257888E+02  0.83251977035E+02  0.10000000000E+01 0.  0.
    9000005    1    3    3    0    0  0.11106785224E+02 -0.47386917438E+02 -0.32738224242E+03  0.33098189267E+03  0.10000000000E+01 0.  0.
<mgrwt>
<rscale>  0 0.12501947E+03</rscale>
<asrwt>0</asrwt>
<pdfrwt beam="2">  1        4 0.62242400E-01 0.12501947E+03</pdfrwt>
<pdfrwt beam="1">  1       -4 0.14858749E-02 0.12501947E+03</pdfrwt>
<totfact> 0.63164444E+03</totfact>
</mgrwt>
</event>
<event>
 5    1  0.3304582E-002  0.1250055E+03  0.7818608E-02  0.1235061E+00
         -4   -1    0    0    0  501 -0.00000000000E+00  0.00000000000E+00  0.32722431219E+02  0.32747067119E+02  0.12700000000E+01 0.  1.
          4   -1    0    0  501    0  0.00000000000E+00 -0.00000000000E+00 -0.11931291666E+03  0.11931967559E+03  0.12700000000E+01 0.  1.
         25    2    1    2    0    0  0.00000000000E+00  0.00000000000E+00 -0.86590485445E+02  0.15206674271E+03  0.12500552815E+03 0.  0.
    9000005    1    3    3    0    0  0.34911482401E+02  0.29254375643E+02  0.87576770417E+01  0.46393178431E+02  0.10000000000E+01 0.  0.
    9000005    1    3    3    0    0 -0.34911482401E+02 -0.29254375643E+02 -0.95348162486E+02  0.10567356428E+03  0.10000000000E+01 0.  0.
<mgrwt>
<rscale>  0 0.12500553E+03</rscale>
<asrwt>0</asrwt>
<pdfrwt beam="2">  1        4 0.18358248E-01 0.12500553E+03</pdfrwt>
<pdfrwt beam="1">  1       -4 0.50366353E-02 0.12500553E+03</pdfrwt>
<totfact> 0.98881009E+03</totfact>
</mgrwt>
</event>
<event>
 5    1  0.3304582E-002  0.1249968E+03  0.7818608E-02  0.1235074E+00
          4   -1    0    0  501    0  0.00000000000E+00  0.00000000000E+00  0.13483120067E+04  0.13483126048E+04  0.12700000000E+01 0.  1.
         -4   -1    0    0    0  501 -0.00000000000E+00 -0.00000000000E+00 -0.27571773574E+01  0.30356098202E+01  0.12700000000E+01 0.  1.
         25    2    1    2    0    0  0.00000000000E+00  0.00000000000E+00  0.13455548293E+04  0.13513482146E+04  0.12499679371E+03 0.  0.
    9000005    1    3    3    0    0  0.42784062899E+02 -0.43826677575E+02  0.80685024699E+03  0.80917215398E+03  0.10000000000E+01 0.  0.
    9000005    1    3    3    0    0 -0.42784062899E+02  0.43826677575E+02  0.53870458232E+03  0.54217606063E+03  0.10000000000E+01 0.  0.
<mgrwt>
<rscale>  0 0.12499679E+03</rscale>
<asrwt>0</asrwt>
<pdfrwt beam="1">  1        4 0.20745461E+00 0.12499679E+03</pdfrwt>
<pdfrwt beam="2">  1       -4 0.44564389E-03 0.12499679E+03</pdfrwt>
<totfact> 0.21049429E+03</totfact>
</mgrwt>
</event>
<event>
 5    1  0.3304582E-002  0.1250019E+03  0.7818608E-02  0.1235066E+00
         -4   -1    0    0    0  501 -0.00000000000E+00  0.00000000000E+00  0.15569772622E+03  0.15570290572E+03  0.12700000000E+01 0.  1.
          4   -1    0    0  501    0  0.00000000000E+00 -0.00000000000E+00 -0.25067782028E+02  0.25099932187E+02  0.12700000000E+01 0.  1.
         25    2    1    2    0    0  0.00000000000E+00  0.00000000000E+00  0.13062994419E+03  0.18080283791E+03  0.12500193549E+03 0.  0.
    9000005    1    3    3    0    0 -0.40826960416E+02  0.44895611409E+02  0.86910186359E+02  0.10600394858E+03  0.10000000000E+01 0.  0.
    9000005    1    3    3    0    0  0.40826960416E+02 -0.44895611409E+02  0.43719757835E+02  0.74798889335E+02  0.10000000000E+01 0.  0.
<mgrwt>
<rscale>  0 0.12500194E+03</rscale>
<asrwt>0</asrwt>
<pdfrwt beam="2">  1        4 0.38594534E-02 0.12500194E+03</pdfrwt>
<pdfrwt beam="1">  1       -4 0.23956368E-01 0.12500194E+03</pdfrwt>
<totfact> 0.93468633E+03</totfact>
</mgrwt>
</event>
<event>
 5    1  0.3304582E-002  0.1249959E+03  0.7818608E-02  0.1235076E+00
         -4   -1    0    0    0  501 -0.00000000000E+00  0.00000000000E+00  0.68960713877E+01  0.70120396879E+01  0.12700000000E+01 0.  1.
          4   -1    0    0  501    0  0.00000000000E+00 -0.00000000000E+00 -0.56156924982E+03  0.56157068589E+03  0.12700000000E+01 0.  1.
         25    2    1    2    0    0  0.00000000000E+00  0.00000000000E+00 -0.55467317844E+03  0.56858272558E+03  0.12499592372E+03 0.  0.
    9000005    1    3    3    0    0  0.84862575192E+01 -0.57880132698E+02 -0.37729340941E+03  0.38180288515E+03  0.10000000000E+01 0.  0.
    9000005    1    3    3    0    0 -0.84862575192E+01  0.57880132698E+02 -0.17737976903E+03  0.18677984042E+03  0.10000000000E+01 0.  0.
<mgrwt>
<rscale>  0 0.12499592E+03</rscale>
<asrwt>0</asrwt>
<pdfrwt beam="2">  1        4 0.86404265E-01 0.12499592E+03</pdfrwt>
<pdfrwt beam="1">  1       -4 0.10699656E-02 0.12499592E+03</pdfrwt>
<totfact> 0.50917343E+03</totfact>
</mgrwt>
</event>
<event>
 5    1  0.3304582E-002  0.1249998E+03  0.7818608E-02  0.1235070E+00
          4   -1    0    0  501    0  0.00000000000E+00  0.00000000000E+00  0.12710320172E+04  0.12710326517E+04  0.12700000000E+01 0.  1.
         -4   -1    0    0    0  501 -0.00000000000E+00 -0.00000000000E+00 -0.29414152560E+01  0.32038763566E+01  0.12700000000E+01 0.  1.
         25    2    1    2    0    0  0.00000000000E+00  0.00000000000E+00  0.12680906020E+04  0.12742365281E+04  0.12499981862E+03 0.  0.
    9000005    1    3    3    0    0 -0.58979582456E+02 -0.16045629490E+02  0.76663872016E+03  0.76907215567E+03  0.10000000000E+01 0.  0.
    9000005    1    3    3    0    0  0.58979582456E+02  0.16045629490E+02  0.50145188182E+03  0.50516437241E+03  0.10000000000E+01 0.  0.
<mgrwt>
<rscale>  0 0.12499982E+03</rscale>
<asrwt>0</asrwt>
<pdfrwt beam="1">  1        4 0.19556375E+00 0.12499982E+03</pdfrwt>
<pdfrwt beam="2">  1       -4 0.47276325E-03 0.12499982E+03</pdfrwt>
<totfact> 0.22844936E+03</totfact>
</mgrwt>
</event>
<event>
 5    1  0.3304582E-002  0.1249965E+03  0.7818608E-02  0.1235075E+00
          4   -1    0    0  501    0  0.00000000000E+00  0.00000000000E+00  0.10927638588E+03  0.10928376554E+03  0.12700000000E+01 0.  1.
         -4   -1    0    0    0  501 -0.00000000000E+00 -0.00000000000E+00 -0.35724656200E+02  0.35747223117E+02  0.12700000000E+01 0.  1.
         25    2    1    2    0    0  0.00000000000E+00  0.00000000000E+00  0.73551729678E+02  0.14503098866E+03  0.12499652288E+03 0.  0.
    9000005    1    3    3    0    0 -0.19767559694E+01  0.10433558869E+02  0.10822751608E+03  0.10875183655E+03  0.10000000000E+01 0.  0.
    9000005    1    3    3    0    0  0.19767559694E+01 -0.10433558869E+02 -0.34675786406E+02  0.36279152109E+02  0.10000000000E+01 0.  0.
<mgrwt>
<rscale>  0 0.12499652E+03</rscale>
<asrwt>0</asrwt>
<pdfrwt beam="1">  1        4 0.16814055E-01 0.12499652E+03</pdfrwt>
<pdfrwt beam="2">  1       -4 0.54984045E-02 0.12499652E+03</pdfrwt>
<totfact> 0.10031144E+04</totfact>
</mgrwt>
</event>
<event>
 5    1  0.3304582E-002  0.1249906E+03  0.7818608E-02  0.1235084E+00
          4   -1    0    0  501    0  0.00000000000E+00  0.00000000000E+00  0.15775330264E+04  0.15775335376E+04  0.12700000000E+01 0.  1.
         -4   -1    0    0    0  501 -0.00000000000E+00 -0.00000000000E+00 -0.23123917025E+01  0.26381916886E+01  0.12700000000E+01 0.  1.
         25    2    1    2    0    0  0.00000000000E+00  0.00000000000E+00  0.15752206347E+04  0.15801717293E+04  0.12499058403E+03 0.  0.
    9000005    1    3    3    0    0  0.25945713045E+01  0.40380116473E+02  0.18562104088E+03  0.18998277928E+03  0.10000000000E+01 0.  0.
    9000005    1    3    3    0    0 -0.25945713045E+01 -0.40380116473E+02  0.13895995938E+04  0.13901889500E+04  0.10000000000E+01 0.  0.
<mgrwt>
<rscale>  0 0.12499058E+03</rscale>
<asrwt>0</asrwt>
<pdfrwt beam="1">  1        4 0.24272245E+00 0.12499058E+03</pdfrwt>
<pdfrwt beam="2">  1       -4 0.38085349E-03 0.12499058E+03</pdfrwt>
<totfact> 0.16410563E+03</totfact>
</mgrwt>
</event>
<event>
 5    1  0.3304582E-002  0.1249832E+03  0.7818608E-02  0.1235096E+00
          4   -1    0    0  501    0  0.00000000000E+00  0.00000000000E+00  0.92411531940E+01  0.93280122403E+01  0.12700000000E+01 0.  1.
         -4   -1    0    0    0  501 -0.00000000000E+00 -0.00000000000E+00 -0.42052342647E+03  0.42052534420E+03  0.12700000000E+01 0.  1.
         25    2    1    2    0    0  0.00000000000E+00  0.00000000000E+00 -0.41128227328E+03  0.42985335644E+03  0.12498319778E+03 0.  0.
    9000005    1    3    3    0    0  0.26913186591E+02  0.19823131347E+02 -0.24076512107E+02  0.41206244480E+02  0.10000000000E+01 0.  0.
    9000005    1    3    3    0    0 -0.26913186591E+02 -0.19823131347E+02 -0.38720576117E+03  0.38864711196E+03  0.10000000000E+01 0.  0.
<mgrwt>
<rscale>  0 0.12498320E+03</rscale>
<asrwt>0</asrwt>
<pdfrwt beam="1">  1        4 0.14285452E-02 0.12498320E+03</pdfrwt>
<pdfrwt beam="2">  1       -4 0.64702726E-01 0.12498320E+03</pdfrwt>
<totfact> 0.61772174E+03</totfact>
</mgrwt>
</event>
<event>
 5    1  0.3304582E-002  0.1250036E+03  0.7818608E-02  0.1235064E+00
         -4   -1    0    0    0  501 -0.00000000000E+00  0.00000000000E+00  0.25711718066E+03  0.25712031715E+03  0.12700000000E+01 0. -1.
          4   -1    0    0  501    0  0.00000000000E+00 -0.00000000000E+00 -0.15163594475E+02  0.15216684836E+02  0.12700000000E+01 0. -1.
         25    2    1    2    0    0  0.00000000000E+00  0.00000000000E+00  0.24195358618E+03  0.27233700198E+03  0.12500361908E+03 0.  0.
    9000005    1    3    3    0    0 -0.22287746518E+02  0.34591794416E+02  0.22344529816E+03  0.22720505530E+03  0.10000000000E+01 0.  0.
    9000005    1    3    3    0    0  0.22287746518E+02 -0.34591794416E+02  0.18508288028E+02  0.45131946684E+02  0.10000000000E+01 0.  0.
<mgrwt>
<rscale>  0 0.12500362E+03</rscale>
<asrwt>0</asrwt>
<pdfrwt beam="2">  1        4 0.23371861E-02 0.12500362E+03</pdfrwt>
<pdfrwt beam="1">  1       -4 0.39560810E-01 0.12500362E+03</pdfrwt>
<totfact> 0.79198886E+03</totfact>
</mgrwt>
</event>
<event>
 5    1  0.3304582E-002  0.1250025E+03  0.7818608E-02  0.1235065E+00
         -4   -1    0    0    0  501 -0.00000000000E+00  0.00000000000E+00  0.13746644805E+03  0.13747231445E+03  0.12700000000E+01 0. -1.
          4   -1    0    0  501    0  0.00000000000E+00 -0.00000000000E+00 -0.28396486495E+02  0.28424871948E+02  0.12700000000E+01 0. -1.
         25    2    1    2    0    0  0.00000000000E+00  0.00000000000E+00  0.10906996155E+03  0.16589718640E+03  0.12500247974E+03 0.  0.
    9000005    1    3    3    0    0  0.18815320678E+02  0.40136836545E+02  0.11299629901E+03  0.12138428865E+03  0.10000000000E+01 0.  0.
    9000005    1    3    3    0    0 -0.18815320678E+02 -0.40136836545E+02 -0.39263374571E+01  0.44512897748E+02  0.10000000000E+01 0.  0.
<mgrwt>
<rscale>  0 0.12500248E+03</rscale>
<asrwt>0</asrwt>
<pdfrwt beam="2">  1        4 0.43713250E-02 0.12500248E+03</pdfrwt>
<pdfrwt beam="1">  1       -4 0.21151319E-01 0.12500248E+03</pdfrwt>
<totfact> 0.96212390E+03</totfact>
</mgrwt>
</event>
<event>
 5    1  0.3304582E-002  0.1250019E+03  0.7818608E-02  0.1235066E+00
          4   -1    0    0  501    0  0.00000000000E+00  0.00000000000E+00  0.20973022966E+02  0.21011439558E+02  0.12700000000E+01 0. -1.
         -4   -1    0    0    0  501 -0.00000000000E+00 -0.00000000000E+00 -0.18604580172E+03  0.18605013635E+03  0.12700000000E+01 0. -1.
         25    2    1    2    0    0  0.00000000000E+00  0.00000000000E+00 -0.16507277875E+03  0.20706157591E+03  0.12500189572E+03 0.  0.
    9000005    1    3    3    0    0 -0.48316955922E+02 -0.21882746257E+02 -0.27798079313E+02  0.59892537321E+02  0.10000000000E+01 0.  0.
    9000005    1    3    3    0    0  0.48316955922E+02  0.21882746257E+02 -0.13727469944E+03  0.14716903859E+03  0.10000000000E+01 0.  0.
<mgrwt>
<rscale>  0 0.12500190E+03</rscale>
<asrwt>0</asrwt>
<pdfrwt beam="1">  1        4 0.32299076E-02 0.12500190E+03</pdfrwt>
<pdfrwt beam="2">  1       -4 0.28625719E-01 0.12500190E+03</pdfrwt>
<totfact> 0.88954253E+03</totfact>
</mgrwt>
</event>
<event>
 4    1  0.3304582E-002  0.1249301E+03  0.7818608E-02  0.1235179E+00
         -4   -1    0    0    0  501 -0.00000000000E+00  0.00000000000E+00  0.10727427320E+02  0.10802342196E+02  0.12700000000E+01 0. -1.
          4   -1    0    0  501    0  0.00000000000E+00 -0.00000000000E+00 -0.36238762162E+03  0.36238984699E+03  0.12700000000E+01 0. -1.
    9000005    1    1    2    0    0  0.44285213450E+02 -0.26772868428E+02 -0.28029330988E+03  0.28503211429E+03  0.10000000000E+01 0.  0.
    9000005    1    1    2    0    0 -0.44285213450E+02  0.26772868428E+02 -0.71366884426E+02  0.88160074903E+02  0.10000000000E+01 0.  0.
<mgrwt>
<rscale>  0 0.12493005E+03</rscale>
<asrwt>0</asrwt>
<pdfrwt beam="2">  1        4 0.55757866E-01 0.12493005E+03</pdfrwt>
<pdfrwt beam="1">  1       -4 0.16563076E-02 0.12493005E+03</pdfrwt>
<totfact> 0.67350376E+03</totfact>
</mgrwt>
</event>
<event>
 5    1  0.3304582E-002  0.1250135E+03  0.7818608E-02  0.1235048E+00
         -4   -1    0    0    0  501 -0.00000000000E+00  0.00000000000E+00  0.32742679128E+01  0.35119411107E+01  0.12700000000E+01 0. -1.
          4   -1    0    0  501    0  0.00000000000E+00 -0.00000000000E+00 -0.11512417662E+04  0.11512424667E+04  0.12700000000E+01 0. -1.
         25    2    1    2    0    0  0.00000000000E+00  0.00000000000E+00 -0.11479674983E+04  0.11547544078E+04  0.12501346025E+03 0.  0.
    9000005    1    3    3    0    0  0.42600537664E+02 -0.43730636738E+02 -0.45042925420E+03  0.45454888344E+03  0.10000000000E+01 0.  0.
    9000005    1    3    3    0    0 -0.42600537664E+02  0.43730636738E+02 -0.69753824409E+03  0.70020552438E+03  0.10000000000E+01 0.  0.
<mgrwt>
<rscale>  0 0.12501346E+03</rscale>
<asrwt>0</asrwt>
<pdfrwt beam="2">  1        4 0.17713214E+00 0.12501346E+03</pdfrwt>
<pdfrwt beam="1">  1       -4 0.52207088E-03 0.12501346E+03</pdfrwt>
<totfact> 0.25921127E+03</totfact>
</mgrwt>
</event>
<event>
 5    1  0.3304582E-002  0.1249963E+03  0.7818608E-02  0.1235075E+00
         -4   -1    0    0    0  501 -0.00000000000E+00  0.00000000000E+00  0.75400781422E+01  0.76462852674E+01  0.12700000000E+01 0. -1.
          4   -1    0    0  501    0  0.00000000000E+00 -0.00000000000E+00 -0.51430408669E+03  0.51430565473E+03  0.12700000000E+01 0. -1.
         25    2    1    2    0    0  0.00000000000E+00  0.00000000000E+00 -0.50676400855E+03  0.52195194000E+03  0.12499626917E+03 0.  0.
    9000005    1    3    3    0    0  0.54096588954E+01  0.19069589302E+02 -0.59151152327E+01  0.20709954943E+02  0.10000000000E+01 0.  0.
    9000005    1    3    3    0    0 -0.54096588954E+01 -0.19069589302E+02 -0.50084889332E+03  0.50124198505E+03  0.10000000000E+01 0.  0.
<mgrwt>
<rscale>  0 0.12499627E+03</rscale>
<asrwt>0</asrwt>
<pdfrwt beam="2">  1        4 0.79131969E-01 0.12499627E+03</pdfrwt>
<pdfrwt beam="1">  1       -4 0.11683028E-02 0.12499627E+03</pdfrwt>
<totfact> 0.54204960E+03</totfact>
</mgrwt>
</event>
<event>
 5    1  0.3304582E-002  0.1249991E+03  0.7818608E-02  0.1235071E+00
          4   -1    0    0  501    0  0.00000000000E+00  0.00000000000E+00  0.21746051229E+02  0.21783104555E+02  0.12700000000E+01 0.  1.
         -4   -1    0    0    0  501 -0.00000000000E+00 -0.00000000000E+00 -0.17943543177E+03  0.17943992609E+03  0.12700000000E+01 0.  1.
         25    2    1    2    0    0  0.00000000000E+00  0.00000000000E+00 -0.15768938054E+03  0.20122303065E+03  0.12499906930E+03 0.  0.
    9000005    1    3    3    0    0  0.15751130029E+02 -0.48930203468E+02 -0.21636216596E+02  0.55779824105E+02  0.10000000000E+01 0.  0.
    9000005    1    3    3    0    0 -0.15751130029E+02  0.48930203468E+02 -0.13605316395E+03  0.14544320654E+03  0.10000000000E+01 0.  0.
<mgrwt>
<rscale>  0 0.12499907E+03</rscale>
<asrwt>0</asrwt>
<pdfrwt beam="1">  1        4 0.33487424E-02 0.12499907E+03</pdfrwt>
<pdfrwt beam="2">  1       -4 0.27608646E-01 0.12499907E+03</pdfrwt>
<totfact> 0.89931515E+03</totfact>
</mgrwt>
</event>
<event>
 5    1  0.3304582E-002  0.1250019E+03  0.7818608E-02  0.1235066E+00
          4   -1    0    0  501    0  0.00000000000E+00  0.00000000000E+00  0.53262774677E+02  0.53277913494E+02  0.12700000000E+01 0. -1.
         -4   -1    0    0    0  501 -0.00000000000E+00 -0.00000000000E+00 -0.73310385651E+02  0.73321385314E+02  0.12700000000E+01 0. -1.
         25    2    1    2    0    0  0.00000000000E+00  0.00000000000E+00 -0.20047610975E+02  0.12659929881E+03  0.12500190300E+03 0.  0.
    9000005    1    3    3    0    0 -0.39647029617E+02 -0.46776521429E+02  0.21901167613E+01  0.61365515771E+02  0.10000000000E+01 0.  0.
    9000005    1    3    3    0    0  0.39647029617E+02  0.46776521429E+02 -0.22237727736E+02  0.65233783037E+02  0.10000000000E+01 0.  0.
<mgrwt>
<rscale>  0 0.12500190E+03</rscale>
<asrwt>0</asrwt>
<pdfrwt beam="1">  1        4 0.81962837E-02 0.12500190E+03</pdfrwt>
<pdfrwt beam="2">  1       -4 0.11280532E-01 0.12500190E+03</pdfrwt>
<totfact> 0.10417416E+04</totfact>
</mgrwt>
</event>
<event>
 5    1  0.3304582E-002  0.1249990E+03  0.7818608E-02  0.1235071E+00
         -4   -1    0    0    0  501 -0.00000000000E+00  0.00000000000E+00  0.17605727556E+02  0.17651474238E+02  0.12700000000E+01 0.  1.
          4   -1    0    0  501    0  0.00000000000E+00 -0.00000000000E+00 -0.22153493490E+03  0.22153857516E+03  0.12700000000E+01 0.  1.
         25    2    1    2    0    0  0.00000000000E+00  0.00000000000E+00 -0.20392920735E+03  0.23919004940E+03  0.12499903248E+03 0.  0.
    9000005    1    3    3    0    0 -0.56998264891E+02  0.24278163814E+02 -0.11762266500E+03  0.13294481096E+03  0.10000000000E+01 0.  0.
    9000005    1    3    3    0    0  0.56998264891E+02 -0.24278163814E+02 -0.86306542350E+02  0.10624523844E+03  0.10000000000E+01 0.  0.
<mgrwt>
<rscale>  0 0.12499903E+03</rscale>
<asrwt>0</asrwt>
<pdfrwt beam="2">  1        4 0.34086095E-01 0.12499903E+03</pdfrwt>
<pdfrwt beam="1">  1       -4 0.27123726E-02 0.12499903E+03</pdfrwt>
<totfact> 0.83919954E+03</totfact>
</mgrwt>
</event>
<event>
 5    1  0.3304582E-002  0.1250003E+03  0.7818608E-02  0.1235069E+00
         -4   -1    0    0    0  501 -0.00000000000E+00  0.00000000000E+00  0.67878220510E+03  0.67878339318E+03  0.12700000000E+01 0.  1.
          4   -1    0    0  501    0  0.00000000000E+00 -0.00000000000E+00 -0.56835468302E+01  0.58237105501E+01  0.12700000000E+01 0.  1.
         25    2    1    2    0    0  0.00000000000E+00  0.00000000000E+00  0.67309865827E+03  0.68460710373E+03  0.12500033087E+03 0.  0.
    9000005    1    3    3    0    0  0.28866508476E+02 -0.53669262230E+02  0.26073794869E+03  0.26776658288E+03  0.10000000000E+01 0.  0.
    9000005    1    3    3    0    0 -0.28866508476E+02  0.53669262230E+02  0.41236070958E+03  0.41684052085E+03  0.10000000000E+01 0.  0.
<mgrwt>
<rscale>  0 0.12500033E+03</rscale>
<asrwt>0</asrwt>
<pdfrwt beam="2">  1        4 0.88526462E-03 0.12500033E+03</pdfrwt>
<pdfrwt beam="1">  1       -4 0.10443895E+00 0.12500033E+03</pdfrwt>
<totfact> 0.43911481E+03</totfact>
</mgrwt>
</event>
<event>
 5    1  0.3304582E-002  0.1249988E+03  0.7818608E-02  0.1235071E+00
          4   -1    0    0  501    0  0.00000000000E+00  0.00000000000E+00  0.56067844768E+02  0.56082226390E+02  0.12700000000E+01 0. -1.
         -4   -1    0    0    0  501 -0.00000000000E+00 -0.00000000000E+00 -0.69639647025E+02  0.69651226391E+02  0.12700000000E+01 0. -1.
         25    2    1    2    0    0  0.00000000000E+00  0.00000000000E+00 -0.13571802257E+02  0.12573345278E+03  0.12499882932E+03 0.  0.
    9000005    1    3    3    0    0 -0.14501445333E+02 -0.82585202012E+00  0.54351259890E+02  0.56267516383E+02  0.10000000000E+01 0.  0.
    9000005    1    3    3    0    0  0.14501445333E+02  0.82585202012E+00 -0.67923062146E+02  0.69465936398E+02  0.10000000000E+01 0.  0.
<mgrwt>
<rscale>  0 0.12499883E+03</rscale>
<asrwt>0</asrwt>
<pdfrwt beam="1">  1        4 0.86278193E-02 0.12499883E+03</pdfrwt>
<pdfrwt beam="2">  1       -4 0.10715789E-01 0.12499883E+03</pdfrwt>
<totfact> 0.10437084E+04</totfact>
</mgrwt>
</event>
<event>
 5    1  0.3304582E-002  0.1250010E+03  0.7818608E-02  0.1235068E+00
          4   -1    0    0  501    0  0.00000000000E+00  0.00000000000E+00  0.88147105041E+02  0.88156253477E+02  0.12700000000E+01 0.  1.
         -4   -1    0    0    0  501 -0.00000000000E+00 -0.00000000000E+00 -0.44295250156E+02  0.44313452657E+02  0.12700000000E+01 0.  1.
         25    2    1    2    0    0  0.00000000000E+00  0.00000000000E+00  0.43851854885E+02  0.13246970613E+03  0.12500095146E+03 0.  0.
    9000005    1    3    3    0    0  0.53669846124E+02 -0.30008581350E+02  0.10108786817E+02  0.62322988604E+02  0.10000000000E+01 0.  0.
    9000005    1    3    3    0    0 -0.53669846124E+02  0.30008581350E+02  0.33743068069E+02  0.70146717530E+02  0.10000000000E+01 0.  0.
<mgrwt>
<rscale>  0 0.12500095E+03</rscale>
<asrwt>0</asrwt>
<pdfrwt beam="1">  1        4 0.13563197E-01 0.12500095E+03</pdfrwt>
<pdfrwt beam="2">  1       -4 0.68167579E-02 0.12500095E+03</pdfrwt>
<totfact> 0.10291462E+04</totfact>
</mgrwt>
</event>
<event>
 5    1  0.3304582E-002  0.1249989E+03  0.7818608E-02  0.1235071E+00
          4   -1    0    0  501    0  0.00000000000E+00  0.00000000000E+00  0.20221121008E+02  0.20260963324E+02  0.12700000000E+01 0.  1.
         -4   -1    0    0    0  501 -0.00000000000E+00 -0.00000000000E+00 -0.19294134626E+03  0.19294552598E+03  0.12700000000E+01 0.  1.
         25    2    1    2    0    0  0.00000000000E+00  0.00000000000E+00 -0.17272022525E+03  0.21320648930E+03  0.12499892348E+03 0.  0.
    9000005    1    3    3    0    0 -0.16518285502E+02  0.19722832378E+01 -0.18910354330E+03  0.18983649214E+03  0.10000000000E+01 0.  0.
    9000005    1    3    3    0    0  0.16518285502E+02 -0.19722832378E+01  0.16383318055E+02  0.23369997166E+02  0.10000000000E+01 0.  0.
<mgrwt>
<rscale>  0 0.12499892E+03</rscale>
<asrwt>0</asrwt>
<pdfrwt beam="1">  1        4 0.31143281E-02 0.12499892E+03</pdfrwt>
<pdfrwt beam="2">  1       -4 0.29686669E-01 0.12499892E+03</pdfrwt>
<totfact> 0.87956999E+03</totfact>
</mgrwt>
</event>
<event>
 5    1  0.3304582E-002  0.1250016E+03  0.7818608E-02  0.1235067E+00
          4   -1    0    0  501    0  0.00000000000E+00  0.00000000000E+00  0.28102894960E+02  0.28131576655E+02  0.12700000000E+01 0.  1.
         -4   -1    0    0    0  501 -0.00000000000E+00 -0.00000000000E+00 -0.13889913399E+03  0.13890493988E+03  0.12700000000E+01 0.  1.
         25    2    1    2    0    0  0.00000000000E+00  0.00000000000E+00 -0.11079623903E+03  0.16703651654E+03  0.12500156508E+03 0.  0.
    9000005    1    3    3    0    0 -0.45013072085E+01  0.35265768103E+02  0.13279307876E+02  0.37964143401E+02  0.10000000000E+01 0.  0.
    9000005    1    3    3    0    0  0.45013072085E+01 -0.35265768103E+02 -0.12407554691E+03  0.12907237314E+03  0.10000000000E+01 0.  0.
<mgrwt>
<rscale>  0 0.12500157E+03</rscale>
<asrwt>0</asrwt>
<pdfrwt beam="1">  1        4 0.43261753E-02 0.12500157E+03</pdfrwt>
<pdfrwt beam="2">  1       -4 0.21371750E-01 0.12500157E+03</pdfrwt>
<totfact> 0.95999718E+03</totfact>
</mgrwt>
</event>
<event>
 5    1  0.3304582E-002  0.1250249E+03  0.7818608E-02  0.1235030E+00
          4   -1    0    0  501    0  0.00000000000E+00  0.00000000000E+00  0.33899192215E+02  0.33922973525E+02  0.12700000000E+01 0. -1.
         -4   -1    0    0    0  501 -0.00000000000E+00 -0.00000000000E+00 -0.11520953695E+03  0.11521653659E+03  0.12700000000E+01 0. -1.
         25    2    1    2    0    0  0.00000000000E+00  0.00000000000E+00 -0.81310344733E+02  0.14913951011E+03  0.12502488279E+03 0.  0.
    9000005    1    3    3    0    0  0.23405501400E+01  0.49051314577E+02  0.54723148595E+01  0.49421208672E+02  0.10000000000E+01 0.  0.
    9000005    1    3    3    0    0 -0.23405501400E+01 -0.49051314577E+02 -0.86782659592E+02  0.99718301442E+02  0.10000000000E+01 0.  0.
<mgrwt>
<rscale>  0 0.12502488E+03</rscale>
<asrwt>0</asrwt>
<pdfrwt beam="1">  1        4 0.52176282E-02 0.12502488E+03</pdfrwt>
<pdfrwt beam="2">  1       -4 0.17726912E-01 0.12502488E+03</pdfrwt>
<totfact> 0.99419809E+03</totfact>
</mgrwt>
</event>
<event>
 5    1  0.3304582E-002  0.1250052E+03  0.7818608E-02  0.1235061E+00
         -4   -1    0    0    0  501 -0.00000000000E+00  0.00000000000E+00  0.11331832077E+03  0.11332543723E+03  0.12700000000E+01 0.  1.
          4   -1    0    0  501    0  0.00000000000E+00 -0.00000000000E+00 -0.34454449470E+02  0.34477847790E+02  0.12700000000E+01 0.  1.
         25    2    1    2    0    0  0.00000000000E+00  0.00000000000E+00  0.78863871303E+02  0.14780328502E+03  0.12500520335E+03 0.  0.
    9000005    1    3    3    0    0  0.55549739010E+02 -0.20471079679E+02  0.63101240607E+02  0.86530949223E+02  0.10000000000E+01 0.  0.
    9000005    1    3    3    0    0 -0.55549739010E+02  0.20471079679E+02  0.15762630696E+02  0.61272335795E+02  0.10000000000E+01 0.  0.
<mgrwt>
<rscale>  0 0.12500520E+03</rscale>
<asrwt>0</asrwt>
<pdfrwt beam="2">  1        4 0.53030318E-02 0.12500520E+03</pdfrwt>
<pdfrwt beam="1">  1       -4 0.17435935E-01 0.12500520E+03</pdfrwt>
<totfact> 0.99731713E+03</totfact>
</mgrwt>
</event>
<event>
 5    1  0.3304582E-002  0.1250007E+03  0.7818608E-02  0.1235068E+00
         -4   -1    0    0    0  501 -0.00000000000E+00  0.00000000000E+00  0.43528700614E+01  0.45343552763E+01  0.12700000000E+01 0. -1.
          4   -1    0    0  501    0  0.00000000000E+00 -0.00000000000E+00 -0.87889881501E+03  0.87889973258E+03  0.12700000000E+01 0. -1.
         25    2    1    2    0    0  0.00000000000E+00  0.00000000000E+00 -0.87454594495E+03  0.88343408786E+03  0.12500071103E+03 0.  0.
    9000005    1    3    3    0    0 -0.34642542684E+02  0.29860096059E+02 -0.13629962859E+03  0.14377176307E+03  0.10000000000E+01 0.  0.
    9000005    1    3    3    0    0  0.34642542684E+02 -0.29860096059E+02 -0.73824631636E+03  0.73966232479E+03  0.10000000000E+01 0.  0.
<mgrwt>
<rscale>  0 0.12500071E+03</rscale>
<asrwt>0</asrwt>
<pdfrwt beam="2">  1        4 0.13522910E+00 0.12500071E+03</pdfrwt>
<pdfrwt beam="1">  1       -4 0.68370400E-03 0.12500071E+03</pdfrwt>
<totfact> 0.34796323E+03</totfact>
</mgrwt>
</event>
<event>
 5    1  0.3304582E-002  0.1249983E+03  0.7818608E-02  0.1235072E+00
          4   -1    0    0  501    0  0.00000000000E+00  0.00000000000E+00  0.36390609265E+03  0.36390830874E+03  0.12700000000E+01 0. -1.
         -4   -1    0    0    0  501 -0.00000000000E+00 -0.00000000000E+00 -0.10694109217E+02  0.10769255868E+02  0.12700000000E+01 0. -1.
         25    2    1    2    0    0  0.00000000000E+00  0.00000000000E+00  0.35321198344E+03  0.37467756461E+03  0.12499828870E+03 0.  0.
    9000005    1    3    3    0    0 -0.49428717909E+02 -0.11219112760E+02  0.28617034199E+03  0.29062610220E+03  0.10000000000E+01 0.  0.
    9000005    1    3    3    0    0  0.49428717909E+02  0.11219112760E+02  0.67041641447E+02  0.84051462409E+02  0.10000000000E+01 0.  0.
<mgrwt>
<rscale>  0 0.12499829E+03</rscale>
<asrwt>0</asrwt>
<pdfrwt beam="1">  1        4 0.55991494E-01 0.12499829E+03</pdfrwt>
<pdfrwt beam="2">  1       -4 0.16511988E-02 0.12499829E+03</pdfrwt>
<totfact> 0.67094942E+03</totfact>
</mgrwt>
</event>
<event>
 5    1  0.3304582E-002  0.1250013E+03  0.7818608E-02  0.1235067E+00
          4   -1    0    0  501    0  0.00000000000E+00  0.00000000000E+00  0.10880445031E+03  0.10881186197E+03  0.12700000000E+01 0. -1.
         -4   -1    0    0    0  501 -0.00000000000E+00 -0.00000000000E+00 -0.35882421537E+02  0.35904889296E+02  0.12700000000E+01 0. -1.
         25    2    1    2    0    0  0.00000000000E+00  0.00000000000E+00  0.72922028769E+02  0.14471675127E+03  0.12500126327E+03 0.  0.
    9000005    1    3    3    0    0  0.22568808597E+02 -0.42156649747E+02 -0.10119072199E+02  0.48886908897E+02  0.10000000000E+01 0.  0.
    9000005    1    3    3    0    0 -0.22568808597E+02  0.42156649747E+02  0.83041100968E+02  0.95829842374E+02  0.10000000000E+01 0.  0.
<mgrwt>
<rscale>  0 0.12500126E+03</rscale>
<asrwt>0</asrwt>
<pdfrwt beam="1">  1        4 0.16741445E-01 0.12500126E+03</pdfrwt>
<pdfrwt beam="2">  1       -4 0.55226710E-02 0.12500126E+03</pdfrwt>
<totfact> 0.10036461E+04</totfact>
</mgrwt>
</event>
<event>
 5    1  0.3304582E-002  0.1250033E+03  0.7818608E-02  0.1235064E+00
          4   -1    0    0  501    0  0.00000000000E+00  0.00000000000E+00  0.97913746153E+02  0.97921982138E+02  0.12700000000E+01 0. -1.
         -4   -1    0    0    0  501 -0.00000000000E+00 -0.00000000000E+00 -0.39876883601E+02  0.39897101972E+02  0.12700000000E+01 0. -1.
         25    2    1    2    0    0  0.00000000000E+00  0.00000000000E+00  0.58036862552E+02  0.13781908411E+03  0.12500329008E+03 0.  0.
    9000005    1    3    3    0    0  0.13454543538E+02  0.94130340934E+01 -0.37461328591E+02  0.40914314029E+02  0.10000000000E+01 0.  0.
    9000005    1    3    3    0    0 -0.13454543538E+02 -0.94130340934E+01  0.95498191143E+02  0.96904770080E+02  0.10000000000E+01 0.  0.
<mgrwt>
<rscale>  0 0.12500329E+03</rscale>
<asrwt>0</asrwt>
<pdfrwt beam="1">  1        4 0.15065842E-01 0.12500329E+03</pdfrwt>
<pdfrwt beam="2">  1       -4 0.61370941E-02 0.12500329E+03</pdfrwt>
<totfact> 0.10178232E+04</totfact>
</mgrwt>
</event>
<event>
 5    1  0.3304582E-002  0.1250100E+03  0.7818608E-02  0.1235054E+00
         -4   -1    0    0    0  501 -0.00000000000E+00  0.00000000000E+00  0.82446760675E+02  0.82456541559E+02  0.12700000000E+01 0.  1.
          4   -1    0    0  501    0  0.00000000000E+00 -0.00000000000E+00 -0.47365574414E+02  0.47382597434E+02  0.12700000000E+01 0.  1.
         25    2    1    2    0    0  0.00000000000E+00  0.00000000000E+00  0.35081186261E+02  0.12983913899E+03  0.12501004914E+03 0.  0.
    9000005    1    3    3    0    0 -0.43861298231E+02 -0.29527670622E+02  0.52147090977E+02  0.74269885635E+02  0.10000000000E+01 0.  0.
    9000005    1    3    3    0    0  0.43861298231E+02  0.29527670622E+02 -0.17065904716E+02  0.55569253357E+02  0.10000000000E+01 0.  0.
<mgrwt>
<rscale>  0 0.12501005E+03</rscale>
<asrwt>0</asrwt>
<pdfrwt beam="2">  1        4 0.72890734E-02 0.12501005E+03</pdfrwt>
<pdfrwt beam="1">  1       -4 0.12686179E-01 0.12501005E+03</pdfrwt>
<totfact> 0.10345603E+04</totfact>
</mgrwt>
</event>
<event>
 5    1  0.3304582E-002  0.1250002E+03  0.7818608E-02  0.1235069E+00
         -4   -1    0    0    0  501 -0.00000000000E+00  0.00000000000E+00  0.45282278151E+02  0.45300084045E+02  0.12700000000E+01 0.  1.
          4   -1    0    0  501    0  0.00000000000E+00 -0.00000000000E+00 -0.86225214468E+02  0.86234566793E+02  0.12700000000E+01 0.  1.
         25    2    1    2    0    0  0.00000000000E+00  0.00000000000E+00 -0.40942936317E+02  0.13153465084E+03  0.12500016135E+03 0.  0.
    9000005    1    3    3    0    0 -0.60716590911E+01 -0.44588224155E+02 -0.66100523627E+02  0.79970332006E+02  0.10000000000E+01 0.  0.
    9000005    1    3    3    0    0  0.60716590911E+01  0.44588224155E+02  0.25157587310E+02  0.51564318832E+02  0.10000000000E+01 0.  0.
<mgrwt>
<rscale>  0 0.12500016E+03</rscale>
<asrwt>0</asrwt>
<pdfrwt beam="2">  1        4 0.13267507E-01 0.12500016E+03</pdfrwt>
<pdfrwt beam="1">  1       -4 0.69685934E-02 0.12500016E+03</pdfrwt>
<totfact> 0.10311603E+04</totfact>
</mgrwt>
</event>
<event>
 5    1  0.3304582E-002  0.1249974E+03  0.7818608E-02  0.1235073E+00
         -4   -1    0    0    0  501 -0.00000000000E+00  0.00000000000E+00  0.89785873426E+01  0.90679617703E+01  0.12700000000E+01 0.  1.
          4   -1    0    0  501    0  0.00000000000E+00 -0.00000000000E+00 -0.43280025207E+03  0.43280211539E+03  0.12700000000E+01 0.  1.
         25    2    1    2    0    0  0.00000000000E+00  0.00000000000E+00 -0.42382166473E+03  0.44187007716E+03  0.12499744639E+03 0.  0.
    9000005    1    3    3    0    0  0.89440827303E+01 -0.61799691701E+02 -0.22049149425E+03  0.22916521889E+03  0.10000000000E+01 0.  0.
    9000005    1    3    3    0    0 -0.89440827303E+01  0.61799691701E+02 -0.20333017047E+03  0.21270485828E+03  0.10000000000E+01 0.  0.
<mgrwt>
<rscale>  0 0.12499745E+03</rscale>
<asrwt>0</asrwt>
<pdfrwt beam="2">  1        4 0.66591656E-01 0.12499745E+03</pdfrwt>
<pdfrwt beam="1">  1       -4 0.13883398E-02 0.12499745E+03</pdfrwt>
<totfact> 0.60678005E+03</totfact>
</mgrwt>
</event>
<event>
 5    1  0.3304582E-002  0.1250019E+03  0.7818608E-02  0.1235066E+00
          4   -1    0    0  501    0  0.00000000000E+00  0.00000000000E+00  0.44358478968E+03  0.44358660770E+03  0.12700000000E+01 0.  1.
         -4   -1    0    0    0  501 -0.00000000000E+00 -0.00000000000E+00 -0.87587299850E+01  0.88503249065E+01  0.12700000000E+01 0.  1.
         25    2    1    2    0    0  0.00000000000E+00  0.00000000000E+00  0.43482605969E+03  0.45243693261E+03  0.12500190319E+03 0.  0.
    9000005    1    3    3    0    0  0.55403879661E+02 -0.27643799463E+02  0.18678661391E+03  0.19678416772E+03  0.10000000000E+01 0.  0.
    9000005    1    3    3    0    0 -0.55403879661E+02  0.27643799463E+02  0.24803944579E+03  0.25565276489E+03  0.10000000000E+01 0.  0.
<mgrwt>
<rscale>  0 0.12500190E+03</rscale>
<asrwt>0</asrwt>
<pdfrwt beam="1">  1        4 0.68250999E-01 0.12500190E+03</pdfrwt>
<pdfrwt beam="2">  1       -4 0.13546825E-02 0.12500190E+03</pdfrwt>
<totfact> 0.59750757E+03</totfact>
</mgrwt>
</event>
<event>
 5    1  0.3304582E-002  0.1250034E+03  0.7818608E-02  0.1235064E+00
         -4   -1    0    0    0  501 -0.00000000000E+00  0.00000000000E+00  0.75070307105E+02  0.75081048933E+02  0.12700000000E+01 0.  1.
          4   -1    0    0  501    0  0.00000000000E+00 -0.00000000000E+00 -0.52015205463E+02  0.52030707273E+02  0.12700000000E+01 0.  1.
         25    2    1    2    0    0  0.00000000000E+00  0.00000000000E+00  0.23055101642E+02  0.12711175621E+03  0.12500344337E+03 0.  0.
    9000005    1    3    3    0    0 -0.35364458600E+02 -0.23157974733E+02  0.58331327330E+02  0.72044989235E+02  0.10000000000E+01 0.  0.
    9000005    1    3    3    0    0  0.35364458600E+02  0.23157974733E+02 -0.35276225688E+02  0.55066766971E+02  0.10000000000E+01 0.  0.
<mgrwt>
<rscale>  0 0.12500344E+03</rscale>
<asrwt>0</asrwt>
<pdfrwt beam="2">  1        4 0.80043580E-02 0.12500344E+03</pdfrwt>
<pdfrwt beam="1">  1       -4 0.11551297E-01 0.12500344E+03</pdfrwt>
<totfact> 0.10405910E+04</totfact>
</mgrwt>
</event>
<event>
 5    1  0.3304582E-002  0.1249997E+03  0.7818608E-02  0.1235070E+00
          4   -1    0    0  501    0  0.00000000000E+00  0.00000000000E+00  0.69394911535E+02  0.69406531731E+02  0.12700000000E+01 0.  1.
         -4   -1    0    0    0  501 -0.00000000000E+00 -0.00000000000E+00 -0.56266396929E+02  0.56280727815E+02  0.12700000000E+01 0.  1.
         25    2    1    2    0    0  0.00000000000E+00  0.00000000000E+00  0.13128514606E+02  0.12568725955E+03  0.12499971727E+03 0.  0.
    9000005    1    3    3    0    0 -0.39711338019E+02 -0.32118865666E+02  0.42770933374E+02  0.66625555462E+02  0.10000000000E+01 0.  0.
    9000005    1    3    3    0    0  0.39711338019E+02  0.32118865666E+02 -0.29642418768E+02  0.59061704084E+02  0.10000000000E+01 0.  0.
<mgrwt>
<rscale>  0 0.12499972E+03</rscale>
<asrwt>0</asrwt>
<pdfrwt beam="1">  1        4 0.10678136E-01 0.12499972E+03</pdfrwt>
<pdfrwt beam="2">  1       -4 0.86583650E-02 0.12499972E+03</pdfrwt>
<totfact> 0.10437891E+04</totfact>
</mgrwt>
</event>
<event>
 5    1  0.3304582E-002  0.1250044E+03  0.7818608E-02  0.1235062E+00
         -4   -1    0    0    0  501 -0.00000000000E+00  0.00000000000E+00  0.78150714874E+02  0.78161033356E+02  0.12700000000E+01 0. -1.
          4   -1    0    0  501    0  0.00000000000E+00 -0.00000000000E+00 -0.49965371491E+02  0.49981509063E+02  0.12700000000E+01 0. -1.
         25    2    1    2    0    0  0.00000000000E+00  0.00000000000E+00  0.28185343383E+02  0.12814254242E+03  0.12500439031E+03 0.  0.
    9000005    1    3    3    0    0 -0.31872841027E+01  0.61909994155E+02  0.22198015692E+02  0.65854066366E+02  0.10000000000E+01 0.  0.
    9000005    1    3    3    0    0  0.31872841027E+01 -0.61909994155E+02  0.59873276909E+01  0.62288476054E+02  0.10000000000E+01 0.  0.
<mgrwt>
<rscale>  0 0.12500439E+03</rscale>
<asrwt>0</asrwt>
<pdfrwt beam="2">  1        4 0.76890153E-02 0.12500439E+03</pdfrwt>
<pdfrwt beam="1">  1       -4 0.12025222E-01 0.12500439E+03</pdfrwt>
<totfact> 0.10383381E+04</totfact>
</mgrwt>
</event>
<event>
 5    1  0.3304582E-002  0.1249983E+03  0.7818608E-02  0.1235072E+00
          4   -1    0    0  501    0  0.00000000000E+00  0.00000000000E+00  0.15073568478E+02  0.15126974802E+02  0.12700000000E+01 0. -1.
         -4   -1    0    0    0  501 -0.00000000000E+00 -0.00000000000E+00 -0.25862529846E+03  0.25862841665E+03  0.12700000000E+01 0. -1.
         25    2    1    2    0    0  0.00000000000E+00  0.00000000000E+00 -0.24355172998E+03  0.27375539146E+03  0.12499827670E+03 0.  0.
    9000005    1    3    3    0    0  0.19373707716E+02 -0.44109191627E+02 -0.20894466147E+03  0.21442908593E+03  0.10000000000E+01 0.  0.
    9000005    1    3    3    0    0 -0.19373707716E+02  0.44109191627E+02 -0.34607068508E+02  0.59326305526E+02  0.10000000000E+01 0.  0.
<mgrwt>
<rscale>  0 0.12499828E+03</rscale>
<asrwt>0</asrwt>
<pdfrwt beam="1">  1        4 0.23233588E-02 0.12499828E+03</pdfrwt>
<pdfrwt beam="2">  1       -4 0.39792852E-01 0.12499828E+03</pdfrwt>
<totfact> 0.79016477E+03</totfact>
</mgrwt>
</event>
<event>
 5    1  0.3304582E-002  0.1249948E+03  0.7818608E-02  0.1235077E+00
         -4   -1    0    0    0  501 -0.00000000000E+00  0.00000000000E+00  0.90132791635E+02  0.90141738545E+02  0.12700000000E+01 0. -1.
          4   -1    0    0  501    0  0.00000000000E+00 -0.00000000000E+00 -0.43314812624E+02  0.43333426966E+02  0.12700000000E+01 0. -1.
         25    2    1    2    0    0  0.00000000000E+00  0.00000000000E+00  0.46817979012E+02  0.13347516551E+03  0.12499478649E+03 0.  0.
    9000005    1    3    3    0    0 -0.19669569205E+01 -0.42809305704E+02 -0.25156501623E+02  0.49702667417E+02  0.10000000000E+01 0.  0.
    9000005    1    3    3    0    0  0.19669569205E+01  0.42809305704E+02  0.71974480635E+02  0.83772498095E+02  0.10000000000E+01 0.  0.
<mgrwt>
<rscale>  0 0.12499479E+03</rscale>
<asrwt>0</asrwt>
<pdfrwt beam="2">  1        4 0.66659375E-02 0.12499479E+03</pdfrwt>
<pdfrwt beam="1">  1       -4 0.13868703E-01 0.12499479E+03</pdfrwt>
<totfact> 0.10271519E+04</totfact>
</mgrwt>
</event>
<event>
 5    1  0.3304582E-002  0.1250025E+03  0.7818608E-02  0.1235065E+00
          4   -1    0    0  501    0  0.00000000000E+00  0.00000000000E+00  0.15664501509E+03  0.15665016327E+03  0.12700000000E+01 0. -1.
         -4   -1    0    0    0  501 -0.00000000000E+00 -0.00000000000E+00 -0.24916237862E+02  0.24948583311E+02  0.12700000000E+01 0. -1.
         25    2    1    2    0    0  0.00000000000E+00  0.00000000000E+00  0.13172877722E+03  0.18159874658E+03  0.12500253601E+03 0.  0.
    9000005    1    3    3    0    0  0.51568258121E+02 -0.17881009447E+02  0.21647151918E+02  0.58724908945E+02  0.10000000000E+01 0.  0.
    9000005    1    3    3    0    0 -0.51568258121E+02  0.17881009447E+02  0.11008162531E+03  0.12287383763E+03  0.10000000000E+01 0.  0.
<mgrwt>
<rscale>  0 0.12500254E+03</rscale>
<asrwt>0</asrwt>
<pdfrwt beam="1">  1        4 0.24102117E-01 0.12500254E+03</pdfrwt>
<pdfrwt beam="2">  1       -4 0.38361515E-02 0.12500254E+03</pdfrwt>
<totfact> 0.93324707E+03</totfact>
</mgrwt>
</event>
<event>
 5    1  0.3304582E-002  0.1249991E+03  0.7818608E-02  0.1235071E+00
         -4   -1    0    0    0  501 -0.00000000000E+00  0.00000000000E+00  0.14411698590E+02  0.14467548384E+02  0.12700000000E+01 0. -1.
          4   -1    0    0  501    0  0.00000000000E+00 -0.00000000000E+00 -0.27046180588E+03  0.27046478761E+03  0.12700000000E+01 0. -1.
         25    2    1    2    0    0  0.00000000000E+00  0.00000000000E+00 -0.25605010729E+03  0.28493233600E+03  0.12499911461E+03 0.  0.
    9000005    1    3    3    0    0 -0.57374472169E+02 -0.10555560476E+02 -0.17909468934E+03  0.18835911888E+03  0.10000000000E+01 0.  0.
    9000005    1    3    3    0    0  0.57374472169E+02  0.10555560476E+02 -0.76955417947E+02  0.96573217120E+02  0.10000000000E+01 0.  0.
<mgrwt>
<rscale>  0 0.12499911E+03</rscale>
<asrwt>0</asrwt>
<pdfrwt beam="2">  1        4 0.41614030E-01 0.12499911E+03</pdfrwt>
<pdfrwt beam="1">  1       -4 0.22217101E-02 0.12499911E+03</pdfrwt>
<totfact> 0.77530153E+03</totfact>
</mgrwt>
</event>
<event>
 5    1  0.3304582E-002  0.1250017E+03  0.7818608E-02  0.1235067E+00
          4   -1    0    0  501    0  0.00000000000E+00  0.00000000000E+00  0.30399432633E+03  0.30399697916E+03  0.12700000000E+01 0. -1.
         -4   -1    0    0    0  501 -0.00000000000E+00 -0.00000000000E+00 -0.12816004805E+02  0.12878776307E+02  0.12700000000E+01 0. -1.
         25    2    1    2    0    0  0.00000000000E+00  0.00000000000E+00  0.29117832153E+03  0.31687575547E+03  0.12500171791E+03 0.  0.
    9000005    1    3    3    0    0 -0.23701544770E+01  0.59867339829E+02  0.10055210586E+03  0.11705315888E+03  0.10000000000E+01 0.  0.
    9000005    1    3    3    0    0  0.23701544770E+01 -0.59867339829E+02  0.19062621566E+03  0.19982259659E+03  0.10000000000E+01 0.  0.
<mgrwt>
<rscale>  0 0.12500172E+03</rscale>
<asrwt>0</asrwt>
<pdfrwt beam="1">  1        4 0.46773385E-01 0.12500172E+03</pdfrwt>
<pdfrwt beam="2">  1       -4 0.19767259E-02 0.12500172E+03</pdfrwt>
<totfact> 0.73526461E+03</totfact>
</mgrwt>
</event>
<event>
 5    1  0.3304582E-002  0.1249991E+03  0.7818608E-02  0.1235071E+00
          4   -1    0    0  501    0  0.00000000000E+00  0.00000000000E+00  0.25809248658E+04  0.25809251783E+04  0.12700000000E+01 0. -1.
         -4   -1    0    0    0  501 -0.00000000000E+00 -0.00000000000E+00 -0.12466975177E+01  0.17796501625E+01  0.12700000000E+01 0. -1.
         25    2    1    2    0    0  0.00000000000E+00  0.00000000000E+00  0.25796781683E+04  0.25827048284E+04  0.12499911549E+03 0.  0.
    9000005    1    3    3    0    0 -0.29595681785E+02  0.63030757590E+00  0.15270990471E+03  0.15555583134E+03  0.10000000000E+01 0.  0.
    9000005    1    3    3    0    0  0.29595681785E+02 -0.63030757590E+00  0.24269682636E+04  0.24271489971E+04  0.10000000000E+01 0.  0.
<mgrwt>
<rscale>  0 0.12499912E+03</rscale>
<asrwt>0</asrwt>
<pdfrwt beam="1">  1        4 0.39710768E+00 0.12499912E+03</pdfrwt>
<pdfrwt beam="2">  1       -4 0.23281925E-03 0.12499912E+03</pdfrwt>
<totfact> 0.40516942E+02</totfact>
</mgrwt>
</event>
<event>
 5    1  0.3304582E-002  0.1249998E+03  0.7818608E-02  0.1235070E+00
         -4   -1    0    0    0  501 -0.00000000000E+00  0.00000000000E+00  0.12548948280E+03  0.12549590907E+03  0.12700000000E+01 0.  1.
          4   -1    0    0  501    0  0.00000000000E+00 -0.00000000000E+00 -0.31107834819E+02  0.31133748363E+02  0.12700000000E+01 0.  1.
         25    2    1    2    0    0  0.00000000000E+00  0.00000000000E+00  0.94381647979E+02  0.15662965743E+03  0.12499981645E+03 0.  0.
    9000005    1    3    3    0    0  0.49920235417E+02  0.37543896620E+02  0.44792162023E+02  0.76869446832E+02  0.10000000000E+01 0.  0.
    9000005    1    3    3    0    0 -0.49920235417E+02 -0.37543896620E+02  0.49589485955E+02  0.79760210599E+02  0.10000000000E+01 0.  0.
<mgrwt>
<rscale>  0 0.12499982E+03</rscale>
<asrwt>0</asrwt>
<pdfrwt beam="2">  1        4 0.47883084E-02 0.12499982E+03</pdfrwt>
<pdfrwt beam="1">  1       -4 0.19308562E-01 0.12499982E+03</pdfrwt>
<totfact> 0.97996928E+03</totfact>
</mgrwt>
</event>
<event>
 5    1  0.3304582E-002  0.1250010E+03  0.7818608E-02  0.1235068E+00
          4   -1    0    0  501    0  0.00000000000E+00  0.00000000000E+00  0.77158268686E+01  0.78196473236E+01  0.12700000000E+01 0.  1.
         -4   -1    0    0    0  501 -0.00000000000E+00 -0.00000000000E+00 -0.50278500522E+03  0.50278660919E+03  0.12700000000E+01 0.  1.
         25    2    1    2    0    0  0.00000000000E+00  0.00000000000E+00 -0.49506917835E+03  0.51060625651E+03  0.12500103132E+03 0.  0.
    9000005    1    3    3    0    0  0.25967020539E+02 -0.14296623872E+02 -0.47226018981E+03  0.47319062384E+03  0.10000000000E+01 0.  0.
    9000005    1    3    3    0    0 -0.25967020539E+02  0.14296623872E+02 -0.22808988546E+02  0.37415632673E+02  0.10000000000E+01 0.  0.
<mgrwt>
<rscale>  0 0.12500103E+03</rscale>
<asrwt>0</asrwt>
<pdfrwt beam="1">  1        4 0.11951603E-02 0.12500103E+03</pdfrwt>
<pdfrwt beam="2">  1       -4 0.77359623E-01 0.12500103E+03</pdfrwt>
<totfact> 0.55049504E+03</totfact>
</mgrwt>
</event>
<event>
 5    1  0.3304582E-002  0.1250023E+03  0.7818608E-02  0.1235066E+00
          4   -1    0    0  501    0  0.00000000000E+00  0.00000000000E+00  0.10483928282E+02  0.10560570639E+02  0.12700000000E+01 0.  1.
         -4   -1    0    0    0  501 -0.00000000000E+00 -0.00000000000E+00 -0.37117303294E+03  0.37117520564E+03  0.12700000000E+01 0.  1.
         25    2    1    2    0    0  0.00000000000E+00  0.00000000000E+00 -0.36068910466E+03  0.38173577628E+03  0.12500229067E+03 0.  0.
    9000005    1    3    3    0    0 -0.23561398653E+02  0.54465940158E+02 -0.24016494983E+03  0.24739013980E+03  0.10000000000E+01 0.  0.
    9000005    1    3    3    0    0  0.23561398653E+02 -0.54465940158E+02 -0.12052415483E+03  0.13434563648E+03  0.10000000000E+01 0.  0.
<mgrwt>
<rscale>  0 0.12500229E+03</rscale>
<asrwt>0</asrwt>
<pdfrwt beam="1">  1        4 0.16189750E-02 0.12500229E+03</pdfrwt>
<pdfrwt beam="2">  1       -4 0.57109596E-01 0.12500229E+03</pdfrwt>
<totfact> 0.66365414E+03</totfact>
</mgrwt>
</event>
<event>
 5    1  0.3304582E-002  0.1250044E+03  0.7818608E-02  0.1235062E+00
         -4   -1    0    0    0  501 -0.00000000000E+00  0.00000000000E+00  0.96005560238E+02  0.96013959905E+02  0.12700000000E+01 0.  1.
          4   -1    0    0  501    0  0.00000000000E+00 -0.00000000000E+00 -0.40670525527E+02  0.40690349552E+02  0.12700000000E+01 0.  1.
         25    2    1    2    0    0  0.00000000000E+00  0.00000000000E+00  0.55335034711E+02  0.13670430946E+03  0.12500440855E+03 0.  0.
    9000005    1    3    3    0    0  0.56484034986E+01  0.28199804450E+02  0.88343783023E+02  0.92912633328E+02  0.10000000000E+01 0.  0.
    9000005    1    3    3    0    0 -0.56484034986E+01 -0.28199804450E+02 -0.33008748312E+02  0.43791676129E+02  0.10000000000E+01 0.  0.
<mgrwt>
<rscale>  0 0.12500441E+03</rscale>
<asrwt>0</asrwt>
<pdfrwt beam="2">  1        4 0.62591750E-02 0.12500441E+03</pdfrwt>
<pdfrwt beam="1">  1       -4 0.14772257E-01 0.12500441E+03</pdfrwt>
<totfact> 0.10201258E+04</totfact>
</mgrwt>
</event>
<event>
 5    1  0.3304582E-002  0.1249971E+03  0.7818608E-02  0.1235074E+00
         -4   -1    0    0    0  501 -0.00000000000E+00  0.00000000000E+00  0.38770349515E+02  0.38791144627E+02  0.12700000000E+01 0.  1.
          4   -1    0    0  501    0  0.00000000000E+00 -0.00000000000E+00 -0.10069701864E+03  0.10070502700E+03  0.12700000000E+01 0.  1.
         25    2    1    2    0    0  0.00000000000E+00  0.00000000000E+00 -0.61926669123E+02  0.13949617162E+03  0.12499707816E+03 0.  0.
    9000005    1    3    3    0    0  0.61363007198E+02  0.36008424498E+00 -0.44145271217E+02  0.75599955582E+02  0.10000000000E+01 0.  0.
    9000005    1    3    3    0    0 -0.61363007198E+02 -0.36008424498E+00 -0.17781397906E+02  0.63896216043E+02  0.10000000000E+01 0.  0.
<mgrwt>
<rscale>  0 0.12499708E+03</rscale>
<asrwt>0</asrwt>
<pdfrwt beam="2">  1        4 0.15494065E-01 0.12499708E+03</pdfrwt>
<pdfrwt beam="1">  1       -4 0.59668848E-02 0.12499708E+03</pdfrwt>
<totfact> 0.10144706E+04</totfact>
</mgrwt>
</event>
<event>
 5    1  0.3304582E-002  0.1249918E+03  0.7818608E-02  0.1235082E+00
          4   -1    0    0  501    0  0.00000000000E+00  0.00000000000E+00  0.33854699640E+02  0.33878512182E+02  0.12700000000E+01 0. -1.
         -4   -1    0    0    0  501 -0.00000000000E+00 -0.00000000000E+00 -0.11529971572E+03  0.11530670988E+03  0.12700000000E+01 0. -1.
         25    2    1    2    0    0  0.00000000000E+00  0.00000000000E+00 -0.81445016075E+02  0.14918522207E+03  0.12499175908E+03 0.  0.
    9000005    1    3    3    0    0 -0.30041883543E+02 -0.47029749447E+02 -0.74278815957E+02  0.92912079946E+02  0.10000000000E+01 0.  0.
    9000005    1    3    3    0    0  0.30041883543E+02  0.47029749447E+02 -0.71662001184E+01  0.56273142119E+02  0.10000000000E+01 0.  0.
<mgrwt>
<rscale>  0 0.12499176E+03</rscale>
<asrwt>0</asrwt>
<pdfrwt beam="1">  1        4 0.52107851E-02 0.12499176E+03</pdfrwt>
<pdfrwt beam="2">  1       -4 0.17740787E-01 0.12499176E+03</pdfrwt>
<totfact> 0.99484812E+03</totfact>
</mgrwt>
</event>
<event>
 5    1  0.3304582E-002  0.1249963E+03  0.7818608E-02  0.1235075E+00
          4   -1    0    0  501    0  0.00000000000E+00  0.00000000000E+00  0.14544591546E+03  0.14545146003E+03  0.12700000000E+01 0. -1.
         -4   -1    0    0    0  501 -0.00000000000E+00 -0.00000000000E+00 -0.26834413874E+02  0.26864449892E+02  0.12700000000E+01 0. -1.
         25    2    1    2    0    0  0.00000000000E+00  0.00000000000E+00  0.11861150158E+03  0.17231590992E+03  0.12499633796E+03 0.  0.
    9000005    1    3    3    0    0  0.22330788959E+02 -0.52513573299E+01 -0.20826632684E+02  0.30999830940E+02  0.10000000000E+01 0.  0.
    9000005    1    3    3    0    0 -0.22330788959E+02  0.52513573299E+01  0.13943813427E+03  0.14131607898E+03  0.10000000000E+01 0.  0.
<mgrwt>
<rscale>  0 0.12499634E+03</rscale>
<asrwt>0</asrwt>
<pdfrwt beam="1">  1        4 0.22379032E-01 0.12499634E+03</pdfrwt>
<pdfrwt beam="2">  1       -4 0.41311083E-02 0.12499634E+03</pdfrwt>
<totfact> 0.95026545E+03</totfact>
</mgrwt>
</event>
<event>
 5    1  0.3304582E-002  0.1250071E+03  0.7818608E-02  0.1235058E+00
         -4   -1    0    0    0  501 -0.00000000000E+00  0.00000000000E+00  0.43793906349E+03  0.43794090496E+03  0.12700000000E+01 0. -1.
          4   -1    0    0  501    0  0.00000000000E+00 -0.00000000000E+00 -0.88735609877E+01  0.89639826307E+01  0.12700000000E+01 0. -1.
         25    2    1    2    0    0  0.00000000000E+00  0.00000000000E+00  0.42906550251E+03  0.44690488759E+03  0.12500709223E+03 0.  0.
    9000005    1    3    3    0    0  0.40528944411E+02  0.46859557349E+02  0.24385672920E+03  0.25160587796E+03  0.10000000000E+01 0.  0.
    9000005    1    3    3    0    0 -0.40528944411E+02 -0.46859557349E+02  0.18520877331E+03  0.19529900962E+03  0.10000000000E+01 0.  0.
<mgrwt>
<rscale>  0 0.12500709E+03</rscale>
<asrwt>0</asrwt>
<pdfrwt beam="2">  1        4 0.13722606E-02 0.12500709E+03</pdfrwt>
<pdfrwt beam="1">  1       -4 0.67382328E-01 0.12500709E+03</pdfrwt>
<totfact> 0.60223459E+03</totfact>
</mgrwt>
</event>
<event>
 5    1  0.3304582E-002  0.1249998E+03  0.7818608E-02  0.1235070E+00
          4   -1    0    0  501    0  0.00000000000E+00  0.00000000000E+00  0.22848563377E+02  0.22883831593E+02  0.12700000000E+01 0.  1.
         -4   -1    0    0    0  501 -0.00000000000E+00 -0.00000000000E+00 -0.17079265760E+03  0.17079737934E+03  0.12700000000E+01 0.  1.
         25    2    1    2    0    0  0.00000000000E+00  0.00000000000E+00 -0.14794409422E+03  0.19368121093E+03  0.12499982581E+03 0.  0.
    9000005    1    3    3    0    0  0.31944361134E+02 -0.50279824396E+02 -0.44706836574E+02  0.74486268439E+02  0.10000000000E+01 0.  0.
    9000005    1    3    3    0    0 -0.31944361134E+02  0.50279824396E+02 -0.10323725765E+03  0.11919494249E+03  0.10000000000E+01 0.  0.
<mgrwt>
<rscale>  0 0.12499983E+03</rscale>
<asrwt>0</asrwt>
<pdfrwt beam="1">  1        4 0.35182399E-02 0.12499983E+03</pdfrwt>
<pdfrwt beam="2">  1       -4 0.26278869E-01 0.12499983E+03</pdfrwt>
<totfact> 0.91211068E+03</totfact>
</mgrwt>
</event>
<event>
 5    1  0.3304582E-002  0.1249935E+03  0.7818608E-02  0.1235079E+00
         -4   -1    0    0    0  501 -0.00000000000E+00  0.00000000000E+00  0.73911530053E+03  0.73911639163E+03  0.12700000000E+01 0. -1.
          4   -1    0    0  501    0  0.00000000000E+00 -0.00000000000E+00 -0.52070742593E+01  0.53597128973E+01  0.12700000000E+01 0. -1.
         25    2    1    2    0    0  0.00000000000E+00  0.00000000000E+00  0.73390822627E+03  0.74447610452E+03  0.12499354234E+03 0.  0.
    9000005    1    3    3    0    0  0.14797774623E+02  0.55990128424E+02  0.50676153708E+03  0.51006090232E+03  0.10000000000E+01 0.  0.
    9000005    1    3    3    0    0 -0.14797774623E+02 -0.55990128424E+02  0.22714668919E+03  0.23441520220E+03  0.10000000000E+01 0.  0.
<mgrwt>
<rscale>  0 0.12499354E+03</rscale>
<asrwt>0</asrwt>
<pdfrwt beam="2">  1        4 0.81291387E-03 0.12499354E+03</pdfrwt>
<pdfrwt beam="1">  1       -4 0.11372185E+00 0.12499354E+03</pdfrwt>
<totfact> 0.40845520E+03</totfact>
</mgrwt>
</event>
<event>
 5    1  0.3304582E-002  0.1250022E+03  0.7818608E-02  0.1235066E+00
         -4   -1    0    0    0  501 -0.00000000000E+00  0.00000000000E+00  0.35388487950E+03  0.35388715834E+03  0.12700000000E+01 0. -1.
          4   -1    0    0  501    0  0.00000000000E+00 -0.00000000000E+00 -0.10999734397E+02  0.11072807087E+02  0.12700000000E+01 0. -1.
         25    2    1    2    0    0  0.00000000000E+00  0.00000000000E+00  0.34288514510E+03  0.36495996543E+03  0.12500221451E+03 0.  0.
    9000005    1    3    3    0    0  0.21269810252E+02  0.44672764142E+02  0.59985884623E+02  0.77764818770E+02  0.10000000000E+01 0.  0.
    9000005    1    3    3    0    0 -0.21269810252E+02 -0.44672764142E+02  0.28289926048E+03  0.28719514666E+03  0.10000000000E+01 0.  0.
<mgrwt>
<rscale>  0 0.12500221E+03</rscale>
<asrwt>0</asrwt>
<pdfrwt beam="2">  1        4 0.16980631E-02 0.12500221E+03</pdfrwt>
<pdfrwt beam="1">  1       -4 0.54449624E-01 0.12500221E+03</pdfrwt>
<totfact> 0.68106199E+03</totfact>
</mgrwt>
</event>
<event>
 5    1  0.3304582E-002  0.1249922E+03  0.7818608E-02  0.1235081E+00
          4   -1    0    0  501    0  0.00000000000E+00  0.00000000000E+00  0.25739079228E+03  0.25739392544E+03  0.12700000000E+01 0.  1.
         -4   -1    0    0    0  501 -0.00000000000E+00 -0.00000000000E+00 -0.15144645653E+02  0.15197802208E+02  0.12700000000E+01 0.  1.
         25    2    1    2    0    0  0.00000000000E+00  0.00000000000E+00  0.24224614663E+03  0.27259172764E+03  0.12499221745E+03 0.  0.
    9000005    1    3    3    0    0 -0.26846862479E+02 -0.48507750176E+02  0.18399144865E+03  0.19216557712E+03  0.10000000000E+01 0.  0.
    9000005    1    3    3    0    0  0.26846862479E+02  0.48507750176E+02  0.58254697976E+02  0.80426150525E+02  0.10000000000E+01 0.  0.
<mgrwt>
<rscale>  0 0.12499222E+03</rscale>
<asrwt>0</asrwt>
<pdfrwt beam="1">  1        4 0.39602914E-01 0.12499222E+03</pdfrwt>
<pdfrwt beam="2">  1       -4 0.23342754E-02 0.12499222E+03</pdfrwt>
<totfact> 0.79184457E+03</totfact>
</mgrwt>
</event>
<event>
 5    1  0.3304582E-002  0.1250010E+03  0.7818608E-02  0.1235068E+00
          4   -1    0    0  501    0  0.00000000000E+00  0.00000000000E+00  0.22755529878E+02  0.22790942061E+02  0.12700000000E+01 0. -1.
         -4   -1    0    0    0  501 -0.00000000000E+00 -0.00000000000E+00 -0.17149302287E+03  0.17149772533E+03  0.12700000000E+01 0. -1.
         25    2    1    2    0    0  0.00000000000E+00  0.00000000000E+00 -0.14873749299E+03  0.19428866739E+03  0.12500097782E+03 0.  0.
    9000005    1    3    3    0    0  0.22357470506E+02  0.57826025962E+02 -0.62169211817E+02  0.87804992249E+02  0.10000000000E+01 0.  0.
    9000005    1    3    3    0    0 -0.22357470506E+02 -0.57826025962E+02 -0.86568281176E+02  0.10648367514E+03  0.10000000000E+01 0.  0.
<mgrwt>
<rscale>  0 0.12500098E+03</rscale>
<asrwt>0</asrwt>
<pdfrwt beam="1">  1        4 0.35039366E-02 0.12500098E+03</pdfrwt>
<pdfrwt beam="2">  1       -4 0.26386627E-01 0.12500098E+03</pdfrwt>
<totfact> 0.91104415E+03</totfact>
</mgrwt>
</event>
<event>
 5    1  0.3304582E-002  0.1249965E+03  0.7818608E-02  0.1235075E+00
         -4   -1    0    0    0  501 -0.00000000000E+00  0.00000000000E+00  0.12558996407E+03  0.12559638520E+03  0.12700000000E+01 0. -1.
          4   -1    0    0  501    0  0.00000000000E+00 -0.00000000000E+00 -0.31081289985E+02  0.31107225642E+02  0.12700000000E+01 0. -1.
         25    2    1    2    0    0  0.00000000000E+00  0.00000000000E+00  0.94508674087E+02  0.15670361084E+03  0.12499652865E+03 0.  0.
    9000005    1    3    3    0    0  0.84176704789E+01  0.45923835363E+02  0.99325575645E+02  0.10975621079E+03  0.10000000000E+01 0.  0.
    9000005    1    3    3    0    0 -0.84176704789E+01 -0.45923835363E+02 -0.48169015578E+01  0.46947400049E+02  0.10000000000E+01 0.  0.
<mgrwt>
<rscale>  0 0.12499653E+03</rscale>
<asrwt>0</asrwt>
<pdfrwt beam="2">  1        4 0.47842258E-02 0.12499653E+03</pdfrwt>
<pdfrwt beam="1">  1       -4 0.19324022E-01 0.12499653E+03</pdfrwt>
<totfact> 0.97989741E+03</totfact>
</mgrwt>
</event>
<event>
 5    1  0.3304582E-002  0.1249991E+03  0.7818608E-02  0.1235071E+00
          4   -1    0    0  501    0  0.00000000000E+00  0.00000000000E+00  0.12743854101E+04  0.12743860429E+04  0.12700000000E+01 0.  1.
         -4   -1    0    0    0  501 -0.00000000000E+00 -0.00000000000E+00 -0.29329461506E+01  0.31961028022E+01  0.12700000000E+01 0.  1.
         25    2    1    2    0    0  0.00000000000E+00  0.00000000000E+00  0.12714524640E+04  0.12775821457E+04  0.12499908388E+03 0.  0.
    9000005    1    3    3    0    0  0.29588067216E+02 -0.13261776096E+02  0.89718661370E+02  0.95403179323E+02  0.10000000000E+01 0.  0.
    9000005    1    3    3    0    0 -0.29588067216E+02  0.13261776096E+02  0.11817338026E+04  0.11821789664E+04  0.10000000000E+01 0.  0.
<mgrwt>
<rscale>  0 0.12499908E+03</rscale>
<asrwt>0</asrwt>
<pdfrwt beam="1">  1        4 0.19607918E+00 0.12499908E+03</pdfrwt>
<pdfrwt beam="2">  1       -4 0.47151495E-03 0.12499908E+03</pdfrwt>
<totfact> 0.22764397E+03</totfact>
</mgrwt>
</event>
<event>
 5    1  0.3304582E-002  0.1250061E+03  0.7818608E-02  0.1235060E+00
         -4   -1    0    0    0  501 -0.00000000000E+00  0.00000000000E+00  0.45065701173E+03  0.45065880122E+03  0.12700000000E+01 0. -1.
          4   -1    0    0  501    0  0.00000000000E+00 -0.00000000000E+00 -0.86204172890E+01  0.87134662584E+01  0.12700000000E+01 0. -1.
         25    2    1    2    0    0  0.00000000000E+00  0.00000000000E+00  0.44203659444E+03  0.45937226748E+03  0.12500611708E+03 0.  0.
    9000005    1    3    3    0    0 -0.53930813652E+02 -0.22091099263E+02  0.30393228528E+03  0.30947113494E+03  0.10000000000E+01 0.  0.
    9000005    1    3    3    0    0  0.53930813652E+02  0.22091099263E+02  0.13810430916E+03  0.14990113254E+03  0.10000000000E+01 0.  0.
<mgrwt>
<rscale>  0 0.12500612E+03</rscale>
<asrwt>0</asrwt>
<pdfrwt beam="2">  1        4 0.13335126E-02 0.12500612E+03</pdfrwt>
<pdfrwt beam="1">  1       -4 0.69339178E-01 0.12500612E+03</pdfrwt>
<totfact> 0.59152401E+03</totfact>
</mgrwt>
</event>
<event>
 5    1  0.3304582E-002  0.1249991E+03  0.7818608E-02  0.1235071E+00
          4   -1    0    0  501    0  0.00000000000E+00  0.00000000000E+00  0.22142513978E+03  0.22142878184E+03  0.12700000000E+01 0. -1.
         -4   -1    0    0    0  501 -0.00000000000E+00 -0.00000000000E+00 -0.17614489170E+02  0.17660213156E+02  0.12700000000E+01 0. -1.
         25    2    1    2    0    0  0.00000000000E+00  0.00000000000E+00  0.20381065061E+03  0.23908899499E+03  0.12499906490E+03 0.  0.
    9000005    1    3    3    0    0  0.44778095316E+02  0.21318530204E+02  0.29180614951E+02  0.57550550294E+02  0.10000000000E+01 0.  0.
    9000005    1    3    3    0    0 -0.44778095316E+02 -0.21318530204E+02  0.17463003566E+03  0.18153844470E+03  0.10000000000E+01 0.  0.
<mgrwt>
<rscale>  0 0.12499906E+03</rscale>
<asrwt>0</asrwt>
<pdfrwt beam="1">  1        4 0.34069201E-01 0.12499906E+03</pdfrwt>
<pdfrwt beam="2">  1       -4 0.27137190E-02 0.12499906E+03</pdfrwt>
<totfact> 0.83934984E+03</totfact>
</mgrwt>
</event>
<event>
 5    1  0.3304582E-002  0.1250012E+03  0.7818608E-02  0.1235067E+00
          4   -1    0    0  501    0  0.00000000000E+00  0.00000000000E+00  0.86100355743E+02  0.86109721630E+02  0.12700000000E+01 0.  1.
         -4   -1    0    0    0  501 -0.00000000000E+00 -0.00000000000E+00 -0.45348751231E+02  0.45366531036E+02  0.12700000000E+01 0.  1.
         25    2    1    2    0    0  0.00000000000E+00  0.00000000000E+00  0.40751604512E+02  0.13147625267E+03  0.12500124697E+03 0.  0.
    9000005    1    3    3    0    0  0.46597609301E+02  0.14347745917E+01 -0.23396401375E+02  0.52170752036E+02  0.10000000000E+01 0.  0.
    9000005    1    3    3    0    0 -0.46597609301E+02 -0.14347745917E+01  0.64148005887E+02  0.79305500629E+02  0.10000000000E+01 0.  0.
<mgrwt>
<rscale>  0 0.12500125E+03</rscale>
<asrwt>0</asrwt>
<pdfrwt beam="1">  1        4 0.13248297E-01 0.12500125E+03</pdfrwt>
<pdfrwt beam="2">  1       -4 0.69788191E-02 0.12500125E+03</pdfrwt>
<totfact> 0.10312600E+04</totfact>
</mgrwt>
</event>
<event>
 5    1  0.3304582E-002  0.1249785E+03  0.7818608E-02  0.1235103E+00
          4   -1    0    0  501    0  0.00000000000E+00  0.00000000000E+00  0.30586988669E+02  0.30613343101E+02  0.12700000000E+01 0. -1.
         -4   -1    0    0    0  501 -0.00000000000E+00 -0.00000000000E+00 -0.12758120780E+03  0.12758752872E+03  0.12700000000E+01 0. -1.
         25    2    1    2    0    0  0.00000000000E+00  0.00000000000E+00 -0.96994219133E+02  0.15820087182E+03  0.12497854735E+03 0.  0.
    9000005    1    3    3    0    0  0.39424341381E+02 -0.37315364444E+02 -0.87659882173E+02  0.10311144485E+03  0.10000000000E+01 0.  0.
    9000005    1    3    3    0    0 -0.39424341381E+02  0.37315364444E+02 -0.93343369601E+01  0.55089426966E+02  0.10000000000E+01 0.  0.
<mgrwt>
<rscale>  0 0.12497855E+03</rscale>
<asrwt>0</asrwt>
<pdfrwt beam="1">  1        4 0.47082041E-02 0.12497855E+03</pdfrwt>
<pdfrwt beam="2">  1       -4 0.19630391E-01 0.12497855E+03</pdfrwt>
<totfact> 0.97737899E+03</totfact>
</mgrwt>
</event>
<event>
 5    1  0.3304582E-002  0.1249981E+03  0.7818608E-02  0.1235072E+00
          4   -1    0    0  501    0  0.00000000000E+00  0.00000000000E+00  0.38024808087E+02  0.38046010698E+02  0.12700000000E+01 0.  1.
         -4   -1    0    0    0  501 -0.00000000000E+00 -0.00000000000E+00 -0.10267209880E+03  0.10267995311E+03  0.12700000000E+01 0.  1.
         25    2    1    2    0    0  0.00000000000E+00  0.00000000000E+00 -0.64647290711E+02  0.14072596381E+03  0.12499809876E+03 0.  0.
    9000005    1    3    3    0    0  0.35683058493E+02 -0.46750213723E+02 -0.85405317240E+01  0.59437394195E+02  0.10000000000E+01 0.  0.
    9000005    1    3    3    0    0 -0.35683058493E+02  0.46750213723E+02 -0.56106758987E+02  0.81288569618E+02  0.10000000000E+01 0.  0.
<mgrwt>
<rscale>  0 0.12499810E+03</rscale>
<asrwt>0</asrwt>
<pdfrwt beam="1">  1        4 0.58522057E-02 0.12499810E+03</pdfrwt>
<pdfrwt beam="2">  1       -4 0.15797943E-01 0.12499810E+03</pdfrwt>
<totfact> 0.10118995E+04</totfact>
</mgrwt>
</event>
<event>
 5    1  0.3304582E-002  0.1250025E+03  0.7818608E-02  0.1235065E+00
          4   -1    0    0  501    0  0.00000000000E+00  0.00000000000E+00  0.24450328488E+03  0.24450658318E+03  0.12700000000E+01 0. -1.
         -4   -1    0    0    0  501 -0.00000000000E+00 -0.00000000000E+00 -0.15948265237E+02  0.15998751953E+02  0.12700000000E+01 0. -1.
         25    2    1    2    0    0  0.00000000000E+00  0.00000000000E+00  0.22855501965E+03  0.26050533514E+03  0.12500253048E+03 0.  0.
    9000005    1    3    3    0    0  0.64643467969E+00 -0.38130603481E+02  0.21745231763E+03  0.22077334813E+03  0.10000000000E+01 0.  0.
    9000005    1    3    3    0    0 -0.64643467969E+00  0.38130603481E+02  0.11102702018E+02  0.39731987010E+02  0.10000000000E+01 0.  0.
<mgrwt>
<rscale>  0 0.12500253E+03</rscale>
<asrwt>0</asrwt>
<pdfrwt beam="1">  1        4 0.37620026E-01 0.12500253E+03</pdfrwt>
<pdfrwt beam="2">  1       -4 0.24577166E-02 0.12500253E+03</pdfrwt>
<totfact> 0.80830643E+03</totfact>
</mgrwt>
</event>
<event>
 5    1  0.3304582E-002  0.1250070E+03  0.7818608E-02  0.1235058E+00
         -4   -1    0    0    0  501 -0.00000000000E+00  0.00000000000E+00  0.56816693762E+03  0.56816835701E+03  0.12700000000E+01 0.  1.
          4   -1    0    0  501    0  0.00000000000E+00 -0.00000000000E+00 -0.68158639448E+01  0.69331739711E+01  0.12700000000E+01 0.  1.
         25    2    1    2    0    0  0.00000000000E+00  0.00000000000E+00  0.56135107368E+03  0.57510153098E+03  0.12500697188E+03 0.  0.
    9000005    1    3    3    0    0 -0.19449003992E+02 -0.45688896253E+02  0.45525112171E+03  0.45795231500E+03  0.10000000000E+01 0.  0.
    9000005    1    3    3    0    0  0.19449003992E+02  0.45688896253E+02  0.10609995197E+03  0.11714921598E+03  0.10000000000E+01 0.  0.
<mgrwt>
<rscale>  0 0.12500697E+03</rscale>
<asrwt>0</asrwt>
<pdfrwt beam="2">  1        4 0.10577275E-02 0.12500697E+03</pdfrwt>
<pdfrwt beam="1">  1       -4 0.87419427E-01 0.12500697E+03</pdfrwt>
<totfact> 0.50470241E+03</totfact>
</mgrwt>
</event>
<event>
 5    1  0.3304582E-002  0.1249976E+03  0.7818608E-02  0.1235073E+00
          4   -1    0    0  501    0  0.00000000000E+00  0.00000000000E+00  0.98594865622E+02  0.98603044715E+02  0.12700000000E+01 0.  1.
         -4   -1    0    0    0  501 -0.00000000000E+00 -0.00000000000E+00 -0.39597677254E+02  0.39618038113E+02  0.12700000000E+01 0.  1.
         25    2    1    2    0    0  0.00000000000E+00  0.00000000000E+00  0.58997188368E+02  0.13822108283E+03  0.12499759799E+03 0.  0.
    9000005    1    3    3    0    0  0.21628406679E+02 -0.45128958603E+02 -0.11886455582E+02  0.51446075714E+02  0.10000000000E+01 0.  0.
    9000005    1    3    3    0    0 -0.21628406679E+02  0.45128958603E+02  0.70883643950E+02  0.86775007114E+02  0.10000000000E+01 0.  0.
<mgrwt>
<rscale>  0 0.12499760E+03</rscale>
<asrwt>0</asrwt>
<pdfrwt beam="1">  1        4 0.15170636E-01 0.12499760E+03</pdfrwt>
<pdfrwt beam="2">  1       -4 0.60941459E-02 0.12499760E+03</pdfrwt>
<totfact> 0.10171139E+04</totfact>
</mgrwt>
</event>
<event>
 5    1  0.3304582E-002  0.1249997E+03  0.7818608E-02  0.1235070E+00
          4   -1    0    0  501    0  0.00000000000E+00  0.00000000000E+00  0.15437212203E+02  0.15489364758E+02  0.12700000000E+01 0.  1.
         -4   -1    0    0    0  501 -0.00000000000E+00 -0.00000000000E+00 -0.25255949956E+03  0.25256269265E+03  0.12700000000E+01 0.  1.
         25    2    1    2    0    0  0.00000000000E+00  0.00000000000E+00 -0.23712228736E+03  0.26805205741E+03  0.12499970527E+03 0.  0.
    9000005    1    3    3    0    0 -0.45778598511E+02  0.32463577898E+02 -0.59612263542E+02  0.81879093401E+02  0.10000000000E+01 0.  0.
    9000005    1    3    3    0    0  0.45778598511E+02 -0.32463577898E+02 -0.17751002382E+03  0.18617296401E+03  0.10000000000E+01 0.  0.
<mgrwt>
<rscale>  0 0.12499971E+03</rscale>
<asrwt>0</asrwt>
<pdfrwt beam="1">  1        4 0.23792133E-02 0.12499971E+03</pdfrwt>
<pdfrwt beam="2">  1       -4 0.38859562E-01 0.12499971E+03</pdfrwt>
<totfact> 0.79789707E+03</totfact>
</mgrwt>
</event>
<event>
 5    1  0.3304582E-002  0.1249844E+03  0.7818608E-02  0.1235094E+00
          4   -1    0    0  501    0  0.00000000000E+00  0.00000000000E+00  0.74508020054E+02  0.74518842935E+02  0.12700000000E+01 0. -1.
         -4   -1    0    0    0  501 -0.00000000000E+00 -0.00000000000E+00 -0.52391792209E+02  0.52407182627E+02  0.12700000000E+01 0. -1.
         25    2    1    2    0    0  0.00000000000E+00  0.00000000000E+00  0.22116227845E+02  0.12692602556E+03  0.12498435274E+03 0.  0.
    9000005    1    3    3    0    0 -0.19869202274E+02  0.43956850626E+02 -0.29273883958E+02  0.56435363009E+02  0.10000000000E+01 0.  0.
    9000005    1    3    3    0    0  0.19869202274E+02 -0.43956850626E+02  0.51390111802E+02  0.70490662552E+02  0.10000000000E+01 0.  0.
<mgrwt>
<rscale>  0 0.12498435E+03</rscale>
<asrwt>0</asrwt>
<pdfrwt beam="1">  1        4 0.11464789E-01 0.12498435E+03</pdfrwt>
<pdfrwt beam="2">  1       -4 0.80622921E-02 0.12498435E+03</pdfrwt>
<totfact> 0.10414431E+04</totfact>
</mgrwt>
</event>
<event>
 5    1  0.3304582E-002  0.1249900E+03  0.7818608E-02  0.1235085E+00
          4   -1    0    0  501    0  0.00000000000E+00  0.00000000000E+00  0.86267300218E+03  0.86267393701E+03  0.12700000000E+01 0. -1.
         -4   -1    0    0    0  501 -0.00000000000E+00 -0.00000000000E+00 -0.44373352425E+01  0.46155004121E+01  0.12700000000E+01 0. -1.
         25    2    1    2    0    0  0.00000000000E+00  0.00000000000E+00  0.85823566694E+03  0.86728943742E+03  0.12499003262E+03 0.  0.
    9000005    1    3    3    0    0 -0.50544040587E+02 -0.15757968858E+02  0.65942279231E+03  0.66154548796E+03  0.10000000000E+01 0.  0.
    9000005    1    3    3    0    0  0.50544040587E+02  0.15757968858E+02  0.19881287463E+03  0.20574394946E+03  0.10000000000E+01 0.  0.
<mgrwt>
<rscale>  0 0.12499003E+03</rscale>
<asrwt>0</asrwt>
<pdfrwt beam="1">  1        4 0.13273282E+00 0.12499003E+03</pdfrwt>
<pdfrwt beam="2">  1       -4 0.69644325E-03 0.12499003E+03</pdfrwt>
<totfact> 0.35437764E+03</totfact>
</mgrwt>
</event>
<event>
 5    1  0.3304582E-002  0.1249997E+03  0.7818608E-02  0.1235070E+00
          4   -1    0    0  501    0  0.00000000000E+00  0.00000000000E+00  0.17451738060E+02  0.17497887338E+02  0.12700000000E+01 0. -1.
         -4   -1    0    0    0  501 -0.00000000000E+00 -0.00000000000E+00 -0.22348713980E+03  0.22349074825E+03  0.12700000000E+01 0. -1.
         25    2    1    2    0    0  0.00000000000E+00  0.00000000000E+00 -0.20603540174E+03  0.24098863559E+03  0.12499974286E+03 0.  0.
    9000005    1    3    3    0    0  0.50394538524E+02  0.43978616605E+01 -0.17375617067E+03  0.18097280885E+03  0.10000000000E+01 0.  0.
    9000005    1    3    3    0    0 -0.50394538524E+02 -0.43978616605E+01 -0.32279231070E+02  0.60015826735E+02  0.10000000000E+01 0.  0.
<mgrwt>
<rscale>  0 0.12499974E+03</rscale>
<asrwt>0</asrwt>
<pdfrwt beam="1">  1        4 0.26887104E-02 0.12499974E+03</pdfrwt>
<pdfrwt beam="2">  1       -4 0.34386462E-01 0.12499974E+03</pdfrwt>
<totfact> 0.83650828E+03</totfact>
</mgrwt>
</event>
<event>
 5    1  0.3304582E-002  0.1249980E+03  0.7818608E-02  0.1235072E+00
         -4   -1    0    0    0  501 -0.00000000000E+00  0.00000000000E+00  0.20937292403E+03  0.20937677573E+03  0.12700000000E+01 0. -1.
          4   -1    0    0  501    0  0.00000000000E+00 -0.00000000000E+00 -0.18630677081E+02  0.18673913047E+02  0.12700000000E+01 0. -1.
         25    2    1    2    0    0  0.00000000000E+00  0.00000000000E+00  0.19074224695E+03  0.22805068878E+03  0.12499804751E+03 0.  0.
    9000005    1    3    3    0    0  0.46055397168E+02 -0.50708461144E+01  0.18868472451E+02  0.50038308737E+02  0.10000000000E+01 0.  0.
    9000005    1    3    3    0    0 -0.46055397168E+02  0.50708461144E+01  0.17187377450E+03  0.17801238004E+03  0.10000000000E+01 0.  0.
<mgrwt>
<rscale>  0 0.12499805E+03</rscale>
<asrwt>0</asrwt>
<pdfrwt beam="2">  1        4 0.28698801E-02 0.12499805E+03</pdfrwt>
<pdfrwt beam="1">  1       -4 0.32214841E-01 0.12499805E+03</pdfrwt>
<totfact> 0.85613546E+03</totfact>
</mgrwt>
</event>
<event>
 5    1  0.3304582E-002  0.1249433E+03  0.7818608E-02  0.1235158E+00
          4   -1    0    0  501    0  0.00000000000E+00  0.00000000000E+00  0.15133555064E+02  0.15186750439E+02  0.12700000000E+01 0. -1.
         -4   -1    0    0    0  501 -0.00000000000E+00 -0.00000000000E+00 -0.25737705777E+03  0.25738019109E+03  0.12700000000E+01 0. -1.
         25    2    1    2    0    0  0.00000000000E+00  0.00000000000E+00 -0.24224350270E+03  0.27256694153E+03  0.12494327918E+03 0.  0.
    9000005    1    3    3    0    0  0.78299075334E+01  0.59367204187E+02 -0.15989730697E+03  0.17074519367E+03  0.10000000000E+01 0.  0.
    9000005    1    3    3    0    0 -0.78299075334E+01 -0.59367204187E+02 -0.82346195727E+02  0.10182174785E+03  0.10000000000E+01 0.  0.
<mgrwt>
<rscale>  0 0.12494328E+03</rscale>
<asrwt>0</asrwt>
<pdfrwt beam="1">  1        4 0.23325724E-02 0.12494328E+03</pdfrwt>
<pdfrwt beam="2">  1       -4 0.39600800E-01 0.12494328E+03</pdfrwt>
<totfact> 0.79274070E+03</totfact>
</mgrwt>
</event>
<event>
 5    1  0.3304582E-002  0.1250049E+03  0.7818608E-02  0.1235062E+00
          4   -1    0    0  501    0  0.00000000000E+00  0.00000000000E+00  0.46656383508E+03  0.46656556357E+03  0.12700000000E+01 0. -1.
         -4   -1    0    0    0  501 -0.00000000000E+00 -0.00000000000E+00 -0.83231231982E+01  0.84194584014E+01  0.12700000000E+01 0. -1.
         25    2    1    2    0    0  0.00000000000E+00  0.00000000000E+00  0.45824071188E+03  0.47498502197E+03  0.12500488417E+03 0.  0.
    9000005    1    3    3    0    0 -0.32725288728E+02  0.51526608799E+02  0.17819553989E+03  0.18836291136E+03  0.10000000000E+01 0.  0.
    9000005    1    3    3    0    0  0.32725288728E+02 -0.51526608799E+02  0.28004517199E+03  0.28662211061E+03  0.10000000000E+01 0.  0.
<mgrwt>
<rscale>  0 0.12500488E+03</rscale>
<asrwt>0</asrwt>
<pdfrwt beam="1">  1        4 0.71786615E-01 0.12500488E+03</pdfrwt>
<pdfrwt beam="2">  1       -4 0.12880235E-02 0.12500488E+03</pdfrwt>
<totfact> 0.57852605E+03</totfact>
</mgrwt>
</event>
<event>
 5    1  0.3304582E-002  0.1249997E+03  0.7818608E-02  0.1235070E+00
          4   -1    0    0  501    0  0.00000000000E+00  0.00000000000E+00  0.51578076811E+01  0.53118622041E+01  0.12700000000E+01 0. -1.
         -4   -1    0    0    0  501 -0.00000000000E+00 -0.00000000000E+00 -0.74604453694E+03  0.74604561791E+03  0.12700000000E+01 0. -1.
         25    2    1    2    0    0  0.00000000000E+00  0.00000000000E+00 -0.74088672926E+03  0.75135748011E+03  0.12499966931E+03 0.  0.
    9000005    1    3    3    0    0  0.43399877600E+01  0.62113317653E+02 -0.40243659055E+03  0.40722611549E+03  0.10000000000E+01 0.  0.
    9000005    1    3    3    0    0 -0.43399877600E+01 -0.62113317653E+02 -0.33845013870E+03  0.34413136462E+03  0.10000000000E+01 0.  0.
<mgrwt>
<rscale>  0 0.12499967E+03</rscale>
<asrwt>0</asrwt>
<pdfrwt beam="1">  1        4 0.80544297E-03 0.12499967E+03</pdfrwt>
<pdfrwt beam="2">  1       -4 0.11478793E+00 0.12499967E+03</pdfrwt>
<totfact> 0.40509609E+03</totfact>
</mgrwt>
</event>
<event>
 5    1  0.3304582E-002  0.1250023E+03  0.7818608E-02  0.1235066E+00
          4   -1    0    0  501    0  0.00000000000E+00  0.00000000000E+00  0.39962259086E+03  0.39962460889E+03  0.12700000000E+01 0. -1.
         -4   -1    0    0    0  501 -0.00000000000E+00 -0.00000000000E+00 -0.97319056203E+01  0.98144223978E+01  0.12700000000E+01 0. -1.
         25    2    1    2    0    0  0.00000000000E+00  0.00000000000E+00  0.38989068524E+03  0.40943903129E+03  0.12500229558E+03 0.  0.
    9000005    1    3    3    0    0  0.17683404870E+02  0.30814535607E+02  0.26549031567E+02  0.44363154640E+02  0.10000000000E+01 0.  0.
    9000005    1    3    3    0    0 -0.17683404870E+02 -0.30814535607E+02  0.36334165368E+03  0.36507587665E+03  0.10000000000E+01 0.  0.
<mgrwt>
<rscale>  0 0.12500230E+03</rscale>
<asrwt>0</asrwt>
<pdfrwt beam="1">  1        4 0.61486881E-01 0.12500230E+03</pdfrwt>
<pdfrwt beam="2">  1       -4 0.15037194E-02 0.12500230E+03</pdfrwt>
<totfact> 0.63641785E+03</totfact>
</mgrwt>
</event>
<event>
 5    1  0.3304582E-002  0.1250018E+03  0.7818608E-02  0.1235066E+00
          4   -1    0    0  501    0  0.00000000000E+00  0.00000000000E+00  0.10137068077E+03  0.10137863591E+03  0.12700000000E+01 0.  1.
         -4   -1    0    0    0  501 -0.00000000000E+00 -0.00000000000E+00 -0.38515514449E+02  0.38536447076E+02  0.12700000000E+01 0.  1.
         25    2    1    2    0    0  0.00000000000E+00  0.00000000000E+00  0.62855166322E+02  0.13991508299E+03  0.12500183405E+03 0.  0.
    9000005    1    3    3    0    0 -0.51578517346E+02  0.32223597756E+02  0.47518371926E+02  0.77186134600E+02  0.10000000000E+01 0.  0.
    9000005    1    3    3    0    0  0.51578517346E+02 -0.32223597756E+02  0.15336794396E+02  0.62728948391E+02  0.10000000000E+01 0.  0.
<mgrwt>
<rscale>  0 0.12500183E+03</rscale>
<asrwt>0</asrwt>
<pdfrwt beam="1">  1        4 0.15597711E-01 0.12500183E+03</pdfrwt>
<pdfrwt beam="2">  1       -4 0.59276860E-02 0.12500183E+03</pdfrwt>
<totfact> 0.10134927E+04</totfact>
</mgrwt>
</event>
<event>
 5    1  0.3304582E-002  0.1249994E+03  0.7818608E-02  0.1235070E+00
         -4   -1    0    0    0  501 -0.00000000000E+00  0.00000000000E+00  0.79494094625E+01  0.80502180593E+01  0.12700000000E+01 0. -1.
          4   -1    0    0  501    0  0.00000000000E+00 -0.00000000000E+00 -0.48818623024E+03  0.48818788216E+03  0.12700000000E+01 0. -1.
         25    2    1    2    0    0  0.00000000000E+00  0.00000000000E+00 -0.48023682077E+03  0.49623810022E+03  0.12499939235E+03 0.  0.
    9000005    1    3    3    0    0 -0.27974018346E+02 -0.55279306302E+02 -0.27258079171E+03  0.27953467659E+03  0.10000000000E+01 0.  0.
    9000005    1    3    3    0    0  0.27974018346E+02  0.55279306302E+02 -0.20765602907E+03  0.21670342364E+03  0.10000000000E+01 0.  0.
<mgrwt>
<rscale>  0 0.12499939E+03</rscale>
<asrwt>0</asrwt>
<pdfrwt beam="2">  1        4 0.75113432E-01 0.12499939E+03</pdfrwt>
<pdfrwt beam="1">  1       -4 0.12308680E-02 0.12499939E+03</pdfrwt>
<totfact> 0.56158190E+03</totfact>
</mgrwt>
</event>
<event>
 5    1  0.3304582E-002  0.1249974E+03  0.7818608E-02  0.1235073E+00
          4   -1    0    0  501    0  0.00000000000E+00  0.00000000000E+00  0.11099066341E+03  0.11099792910E+03  0.12700000000E+01 0. -1.
         -4   -1    0    0    0  501 -0.00000000000E+00 -0.00000000000E+00 -0.35173068258E+02  0.35195988843E+02  0.12700000000E+01 0. -1.
         25    2    1    2    0    0  0.00000000000E+00  0.00000000000E+00  0.75817595150E+02  0.14619391794E+03  0.12499741561E+03 0.  0.
    9000005    1    3    3    0    0  0.37308007508E+02  0.10981975888E+02 -0.19300033191E+02  0.43427900016E+02  0.10000000000E+01 0.  0.
    9000005    1    3    3    0    0 -0.37308007508E+02 -0.10981975888E+02  0.95117628341E+02  0.10276601792E+03  0.10000000000E+01 0.  0.
<mgrwt>
<rscale>  0 0.12499742E+03</rscale>
<asrwt>0</asrwt>
<pdfrwt beam="1">  1        4 0.17077809E-01 0.12499742E+03</pdfrwt>
<pdfrwt beam="2">  1       -4 0.54135633E-02 0.12499742E+03</pdfrwt>
<totfact> 0.10007369E+04</totfact>
</mgrwt>
</event>
<event>
 5    1  0.3304582E-002  0.1250006E+03  0.7818608E-02  0.1235068E+00
         -4   -1    0    0    0  501 -0.00000000000E+00  0.00000000000E+00  0.10245529561E+03  0.10246316655E+03  0.12700000000E+01 0.  1.
          4   -1    0    0  501    0  0.00000000000E+00 -0.00000000000E+00 -0.38106812994E+02  0.38127970004E+02  0.12700000000E+01 0.  1.
         25    2    1    2    0    0  0.00000000000E+00  0.00000000000E+00  0.64348482620E+02  0.14059113655E+03  0.12500056185E+03 0.  0.
    9000005    1    3    3    0    0 -0.20465157113E+02 -0.33820405879E+01  0.98475976920E+02  0.10064183466E+03  0.10000000000E+01 0.  0.
    9000005    1    3    3    0    0  0.20465157113E+02  0.33820405879E+01 -0.34127494300E+02  0.39949301889E+02  0.10000000000E+01 0.  0.
<mgrwt>
<rscale>  0 0.12500056E+03</rscale>
<asrwt>0</asrwt>
<pdfrwt beam="2">  1        4 0.58648196E-02 0.12500056E+03</pdfrwt>
<pdfrwt beam="1">  1       -4 0.15764586E-01 0.12500056E+03</pdfrwt>
<totfact> 0.10121221E+04</totfact>
</mgrwt>
</event>
<event>
 5    1  0.3304582E-002  0.1249932E+03  0.7818608E-02  0.1235080E+00
         -4   -1    0    0    0  501 -0.00000000000E+00  0.00000000000E+00  0.98861473696E+02  0.98869630733E+02  0.12700000000E+01 0. -1.
          4   -1    0    0  501    0  0.00000000000E+00 -0.00000000000E+00 -0.39488069005E+02  0.39508486351E+02  0.12700000000E+01 0. -1.
         25    2    1    2    0    0  0.00000000000E+00  0.00000000000E+00  0.59373404691E+02  0.13837811708E+03  0.12499320823E+03 0.  0.
    9000005    1    3    3    0    0 -0.22189105964E+02  0.35451370137E+02 -0.21714358910E+02  0.47134588690E+02  0.10000000000E+01 0.  0.
    9000005    1    3    3    0    0  0.22189105964E+02 -0.35451370137E+02  0.81087763601E+02  0.91243528395E+02  0.10000000000E+01 0.  0.
<mgrwt>
<rscale>  0 0.12499321E+03</rscale>
<asrwt>0</asrwt>
<pdfrwt beam="2">  1        4 0.60772856E-02 0.12499321E+03</pdfrwt>
<pdfrwt beam="1">  1       -4 0.15211656E-01 0.12499321E+03</pdfrwt>
<totfact> 0.10168867E+04</totfact>
</mgrwt>
</event>
<event>
 5    1  0.3304582E-002  0.1249981E+03  0.7818608E-02  0.1235072E+00
         -4   -1    0    0    0  501 -0.00000000000E+00  0.00000000000E+00  0.31141293194E+03  0.31141552158E+03  0.12700000000E+01 0. -1.
          4   -1    0    0  501    0  0.00000000000E+00 -0.00000000000E+00 -0.12508463221E+02  0.12572770266E+02  0.12700000000E+01 0. -1.
         25    2    1    2    0    0  0.00000000000E+00  0.00000000000E+00  0.29890446872E+03  0.32398829184E+03  0.12499812731E+03 0.  0.
    9000005    1    3    3    0    0 -0.56350551174E+02 -0.27001682088E+02  0.14735051262E+03  0.16005514369E+03  0.10000000000E+01 0.  0.
    9000005    1    3    3    0    0  0.56350551174E+02  0.27001682088E+02  0.15155395610E+03  0.16393314815E+03  0.10000000000E+01 0.  0.
<mgrwt>
<rscale>  0 0.12499813E+03</rscale>
<asrwt>0</asrwt>
<pdfrwt beam="2">  1        4 0.19295247E-02 0.12499813E+03</pdfrwt>
<pdfrwt beam="1">  1       -4 0.47914833E-01 0.12499813E+03</pdfrwt>
<totfact> 0.72687280E+03</totfact>
</mgrwt>
</event>
<event>
 5    1  0.3304582E-002  0.1250029E+03  0.7818608E-02  0.1235065E+00
         -4   -1    0    0    0  501 -0.00000000000E+00  0.00000000000E+00  0.20908627762E+02  0.20947162455E+02  0.12700000000E+01 0. -1.
          4   -1    0    0  501    0  0.00000000000E+00 -0.00000000000E+00 -0.18662086464E+03  0.18662518592E+03  0.12700000000E+01 0. -1.
         25    2    1    2    0    0  0.00000000000E+00  0.00000000000E+00 -0.16571223688E+03  0.20757234838E+03  0.12500293740E+03 0.  0.
    9000005    1    3    3    0    0 -0.14388120786E+01  0.16312355942E+02 -0.18300291863E+03  0.18373685358E+03  0.10000000000E+01 0.  0.
    9000005    1    3    3    0    0  0.14388120786E+01 -0.16312355942E+02  0.17290681752E+02  0.23835494793E+02  0.10000000000E+01 0.  0.
<mgrwt>
<rscale>  0 0.12500294E+03</rscale>
<asrwt>0</asrwt>
<pdfrwt beam="2">  1        4 0.28714198E-01 0.12500294E+03</pdfrwt>
<pdfrwt beam="1">  1       -4 0.32200087E-02 0.12500294E+03</pdfrwt>
<totfact> 0.88868052E+03</totfact>
</mgrwt>
</event>
<event>
 5    1  0.3304582E-002  0.1250055E+03  0.7818608E-02  0.1235061E+00
          4   -1    0    0  501    0  0.00000000000E+00  0.00000000000E+00  0.65690913733E+03  0.65691036497E+03  0.12700000000E+01 0.  1.
         -4   -1    0    0    0  501 -0.00000000000E+00 -0.00000000000E+00 -0.58778782086E+01  0.60135141336E+01  0.12700000000E+01 0.  1.
         25    2    1    2    0    0  0.00000000000E+00  0.00000000000E+00  0.65103125912E+03  0.66292387911E+03  0.12500547642E+03 0.  0.
    9000005    1    3    3    0    0 -0.23547649721E+01 -0.47741237728E+02  0.11201349110E+03  0.12178995397E+03  0.10000000000E+01 0.  0.
    9000005    1    3    3    0    0  0.23547649721E+01  0.47741237728E+02  0.53901776802E+03  0.54113392514E+03  0.10000000000E+01 0.  0.
<mgrwt>
<rscale>  0 0.12500548E+03</rscale>
<asrwt>0</asrwt>
<pdfrwt beam="1">  1        4 0.10107348E+00 0.12500548E+03</pdfrwt>
<pdfrwt beam="2">  1       -4 0.91481683E-03 0.12500548E+03</pdfrwt>
<totfact> 0.45111968E+03</totfact>
</mgrwt>
</event>
<event>
 5    1  0.3304582E-002  0.1250026E+03  0.7818608E-02  0.1235065E+00
         -4   -1    0    0    0  501 -0.00000000000E+00  0.00000000000E+00  0.42493457038E+03  0.42493646819E+03  0.12700000000E+01 0.  1.
          4   -1    0    0  501    0  0.00000000000E+00 -0.00000000000E+00 -0.91471787980E+01  0.92349217627E+01  0.12700000000E+01 0.  1.
         25    2    1    2    0    0  0.00000000000E+00  0.00000000000E+00  0.41578739158E+03  0.43417138996E+03  0.12500256342E+03 0.  0.
    9000005    1    3    3    0    0 -0.43894131109E+02 -0.37812155731E+02  0.12651491318E+03  0.13915271152E+03  0.10000000000E+01 0.  0.
    9000005    1    3    3    0    0  0.43894131109E+02  0.37812155731E+02  0.28927247840E+03  0.29501867844E+03  0.10000000000E+01 0.  0.
<mgrwt>
<rscale>  0 0.12500256E+03</rscale>
<asrwt>0</asrwt>
<pdfrwt beam="2">  1        4 0.14141538E-02 0.12500256E+03</pdfrwt>
<pdfrwt beam="1">  1       -4 0.65381443E-01 0.12500256E+03</pdfrwt>
<totfact> 0.61356224E+03</totfact>
</mgrwt>
</event>
<event>
 5    1  0.3304582E-002  0.1249729E+03  0.7818608E-02  0.1235112E+00
          4   -1    0    0  501    0  0.00000000000E+00  0.00000000000E+00  0.10358853665E+03  0.10359632148E+03  0.12700000000E+01 0. -1.
         -4   -1    0    0    0  501 -0.00000000000E+00 -0.00000000000E+00 -0.37673042011E+02  0.37694442486E+02  0.12700000000E+01 0. -1.
         25    2    1    2    0    0  0.00000000000E+00  0.00000000000E+00  0.65915494638E+02  0.14129076397E+03  0.12497290726E+03 0.  0.
    9000005    1    3    3    0    0 -0.60167470800E+02 -0.10129173332E+02  0.48160974126E+02  0.77738048108E+02  0.10000000000E+01 0.  0.
    9000005    1    3    3    0    0  0.60167470800E+02  0.10129173332E+02  0.17754520511E+02  0.63552715862E+02  0.10000000000E+01 0.  0.
<mgrwt>
<rscale>  0 0.12497291E+03</rscale>
<asrwt>0</asrwt>
<pdfrwt beam="1">  1        4 0.15938943E-01 0.12497291E+03</pdfrwt>
<pdfrwt beam="2">  1       -4 0.57980976E-02 0.12497291E+03</pdfrwt>
<totfact> 0.10113075E+04</totfact>
</mgrwt>
</event>
<event>
 5    1  0.3304582E-002  0.1249992E+03  0.7818608E-02  0.1235071E+00
         -4   -1    0    0    0  501 -0.00000000000E+00  0.00000000000E+00  0.89866481775E+02  0.89875455196E+02  0.12700000000E+01 0. -1.
          4   -1    0    0  501    0  0.00000000000E+00 -0.00000000000E+00 -0.43446265581E+02  0.43464823627E+02  0.12700000000E+01 0. -1.
         25    2    1    2    0    0  0.00000000000E+00  0.00000000000E+00  0.46420216195E+02  0.13334027882E+03  0.12499917394E+03 0.  0.
    9000005    1    3    3    0    0  0.48834808449E+02  0.25464476900E+02  0.54708806149E+02  0.77635890993E+02  0.10000000000E+01 0.  0.
    9000005    1    3    3    0    0 -0.48834808449E+02 -0.25464476900E+02 -0.82885899538E+01  0.55704387830E+02  0.10000000000E+01 0.  0.
<mgrwt>
<rscale>  0 0.12499917E+03</rscale>
<asrwt>0</asrwt>
<pdfrwt beam="2">  1        4 0.66861588E-02 0.12499917E+03</pdfrwt>
<pdfrwt beam="1">  1       -4 0.13827730E-01 0.12499917E+03</pdfrwt>
<totfact> 0.10273365E+04</totfact>
</mgrwt>
</event>
<event>
 5    1  0.3304582E-002  0.1249992E+03  0.7818608E-02  0.1235071E+00
          4   -1    0    0  501    0  0.00000000000E+00  0.00000000000E+00  0.25113114526E+03  0.25113435651E+03  0.12700000000E+01 0. -1.
         -4   -1    0    0    0  501 -0.00000000000E+00 -0.00000000000E+00 -0.15525176385E+02  0.15577034435E+02  0.12700000000E+01 0. -1.
         25    2    1    2    0    0  0.00000000000E+00  0.00000000000E+00  0.23560596887E+03  0.26671139094E+03  0.12499917396E+03 0.  0.
    9000005    1    3    3    0    0 -0.13529256226E+02 -0.22294230117E+02  0.23897649510E+03  0.24039725182E+03  0.10000000000E+01 0.  0.
    9000005    1    3    3    0    0  0.13529256226E+02  0.22294230117E+02 -0.33705262336E+01  0.26314139120E+02  0.10000000000E+01 0.  0.
<mgrwt>
<rscale>  0 0.12499917E+03</rscale>
<asrwt>0</asrwt>
<pdfrwt beam="1">  1        4 0.38639795E-01 0.12499917E+03</pdfrwt>
<pdfrwt beam="2">  1       -4 0.23927249E-02 0.12499917E+03</pdfrwt>
<totfact> 0.79974812E+03</totfact>
</mgrwt>
</event>
<event>
 5    1  0.3304582E-002  0.1249924E+03  0.7818608E-02  0.1235081E+00
          4   -1    0    0  501    0  0.00000000000E+00  0.00000000000E+00  0.77699517839E+02  0.77709896232E+02  0.12700000000E+01 0.  1.
         -4   -1    0    0    0  501 -0.00000000000E+00 -0.00000000000E+00 -0.50245893688E+02  0.50261941193E+02  0.12700000000E+01 0.  1.
         25    2    1    2    0    0  0.00000000000E+00  0.00000000000E+00  0.27453624151E+02  0.12797183743E+03  0.12499235855E+03 0.  0.
    9000005    1    3    3    0    0  0.17099369308E+02 -0.24399689468E+02  0.69963717585E+02  0.76050345530E+02  0.10000000000E+01 0.  0.
    9000005    1    3    3    0    0 -0.17099369308E+02  0.24399689468E+02 -0.42510093434E+02  0.51921491895E+02  0.10000000000E+01 0.  0.
<mgrwt>
<rscale>  0 0.12499236E+03</rscale>
<asrwt>0</asrwt>
<pdfrwt beam="1">  1        4 0.11955805E-01 0.12499236E+03</pdfrwt>
<pdfrwt beam="2">  1       -4 0.77321703E-02 0.12499236E+03</pdfrwt>
<totfact> 0.10389888E+04</totfact>
</mgrwt>
</event>
<event>
 5    1  0.3304582E-002  0.1249989E+03  0.7818608E-02  0.1235071E+00
         -4   -1    0    0    0  501 -0.00000000000E+00  0.00000000000E+00  0.39731772258E+02  0.39752064434E+02  0.12700000000E+01 0. -1.
          4   -1    0    0  501    0  0.00000000000E+00 -0.00000000000E+00 -0.98264250428E+02  0.98272457038E+02  0.12700000000E+01 0. -1.
         25    2    1    2    0    0  0.00000000000E+00  0.00000000000E+00 -0.58532478170E+02  0.13802452147E+03  0.12499887010E+03 0.  0.
    9000005    1    3    3    0    0 -0.27739015825E+02  0.49112900134E+02  0.43771554998E+00  0.56415614447E+02  0.10000000000E+01 0.  0.
    9000005    1    3    3    0    0  0.27739015825E+02 -0.49112900134E+02 -0.58970193720E+02  0.81608907025E+02  0.10000000000E+01 0.  0.
<mgrwt>
<rscale>  0 0.12499887E+03</rscale>
<asrwt>0</asrwt>
<pdfrwt beam="2">  1        4 0.15119769E-01 0.12499887E+03</pdfrwt>
<pdfrwt beam="1">  1       -4 0.61147726E-02 0.12499887E+03</pdfrwt>
<totfact> 0.10174953E+04</totfact>
</mgrwt>
</event>
<event>
 5    1  0.3304582E-002  0.1249984E+03  0.7818608E-02  0.1235072E+00
          4   -1    0    0  501    0  0.00000000000E+00  0.00000000000E+00  0.13875574138E+03  0.13876155327E+03  0.12700000000E+01 0.  1.
         -4   -1    0    0    0  501 -0.00000000000E+00 -0.00000000000E+00 -0.28130547845E+02  0.28159201374E+02  0.12700000000E+01 0.  1.
         25    2    1    2    0    0  0.00000000000E+00  0.00000000000E+00  0.11062519354E+03  0.16692075465E+03  0.12499841954E+03 0.  0.
    9000005    1    3    3    0    0 -0.30018027147E+02  0.27371884128E+02 -0.80983987479E+01  0.41435323781E+02  0.10000000000E+01 0.  0.
    9000005    1    3    3    0    0  0.30018027147E+02 -0.27371884128E+02  0.11872359229E+03  0.12548543087E+03  0.10000000000E+01 0.  0.
<mgrwt>
<rscale>  0 0.12499842E+03</rscale>
<asrwt>0</asrwt>
<pdfrwt beam="1">  1        4 0.21349688E-01 0.12499842E+03</pdfrwt>
<pdfrwt beam="2">  1       -4 0.43304279E-02 0.12499842E+03</pdfrwt>
<totfact> 0.96028273E+03</totfact>
</mgrwt>
</event>
<event>
 5    1  0.3304582E-002  0.1250035E+03  0.7818608E-02  0.1235064E+00
          4   -1    0    0  501    0  0.00000000000E+00  0.00000000000E+00  0.61067423283E+01  0.62374034553E+01  0.12700000000E+01 0. -1.
         -4   -1    0    0    0  501 -0.00000000000E+00 -0.00000000000E+00 -0.63279547618E+03  0.63279675060E+03  0.12700000000E+01 0. -1.
         25    2    1    2    0    0  0.00000000000E+00  0.00000000000E+00 -0.62668873385E+03  0.63903415406E+03  0.12500352362E+03 0.  0.
    9000005    1    3    3    0    0  0.61895190319E+02 -0.75371524600E+01 -0.33481955509E+03  0.34057738875E+03  0.10000000000E+01 0.  0.
    9000005    1    3    3    0    0 -0.61895190319E+02  0.75371524600E+01 -0.29186917876E+03  0.29845676531E+03  0.10000000000E+01 0.  0.
<mgrwt>
<rscale>  0 0.12500352E+03</rscale>
<asrwt>0</asrwt>
<pdfrwt beam="1">  1        4 0.94964821E-03 0.12500352E+03</pdfrwt>
<pdfrwt beam="2">  1       -4 0.97363248E-01 0.12500352E+03</pdfrwt>
<totfact> 0.46489246E+03</totfact>
</mgrwt>
</event>
<event>
 5    1  0.3304582E-002  0.1249972E+03  0.7818608E-02  0.1235074E+00
          4   -1    0    0  501    0  0.00000000000E+00  0.00000000000E+00  0.81044852841E+02  0.81054802893E+02  0.12700000000E+01 0.  1.
         -4   -1    0    0    0  501 -0.00000000000E+00 -0.00000000000E+00 -0.48175165704E+02  0.48191902750E+02  0.12700000000E+01 0.  1.
         25    2    1    2    0    0  0.00000000000E+00  0.00000000000E+00  0.32869687136E+02  0.12924670564E+03  0.12499717832E+03 0.  0.
    9000005    1    3    3    0    0  0.19499487089E+02 -0.47667849199E+02 -0.20160759590E+02  0.55316453892E+02  0.10000000000E+01 0.  0.
    9000005    1    3    3    0    0 -0.19499487089E+02  0.47667849199E+02  0.53030446726E+02  0.73930251751E+02  0.10000000000E+01 0.  0.
<mgrwt>
<rscale>  0 0.12499718E+03</rscale>
<asrwt>0</asrwt>
<pdfrwt beam="1">  1        4 0.12470492E-01 0.12499718E+03</pdfrwt>
<pdfrwt beam="2">  1       -4 0.74136169E-02 0.12499718E+03</pdfrwt>
<totfact> 0.10361309E+04</totfact>
</mgrwt>
</event>
<event>
 5    1  0.3304582E-002  0.1249997E+03  0.7818608E-02  0.1235070E+00
          4   -1    0    0  501    0  0.00000000000E+00  0.00000000000E+00  0.54198693649E+03  0.54198842444E+03  0.12700000000E+01 0. -1.
         -4   -1    0    0    0  501 -0.00000000000E+00 -0.00000000000E+00 -0.71497812535E+01  0.72616989729E+01  0.12700000000E+01 0. -1.
         25    2    1    2    0    0  0.00000000000E+00  0.00000000000E+00  0.53483715523E+03  0.54925012341E+03  0.12499966179E+03 0.  0.
    9000005    1    3    3    0    0  0.15631424241E+01 -0.16440033014E+02  0.25900414015E+01  0.16745937245E+02  0.10000000000E+01 0.  0.
    9000005    1    3    3    0    0 -0.15631424241E+01  0.16440033014E+02  0.53224711383E+03  0.53250418616E+03  0.10000000000E+01 0.  0.
<mgrwt>
<rscale>  0 0.12499966E+03</rscale>
<asrwt>0</asrwt>
<pdfrwt beam="1">  1        4 0.83391349E-01 0.12499966E+03</pdfrwt>
<pdfrwt beam="2">  1       -4 0.11086896E-02 0.12499966E+03</pdfrwt>
<totfact> 0.52236614E+03</totfact>
</mgrwt>
</event>
<event>
 5    1  0.3304582E-002  0.1250038E+03  0.7818608E-02  0.1235063E+00
         -4   -1    0    0    0  501 -0.00000000000E+00  0.00000000000E+00  0.32651224975E+03  0.32651471964E+03  0.12700000000E+01 0.  1.
          4   -1    0    0  501    0  0.00000000000E+00 -0.00000000000E+00 -0.11928060038E+02  0.11995478993E+02  0.12700000000E+01 0.  1.
         25    2    1    2    0    0  0.00000000000E+00  0.00000000000E+00  0.31458418971E+03  0.33851019863E+03  0.12500376857E+03 0.  0.
    9000005    1    3    3    0    0 -0.33814123616E+02  0.41004916592E+02  0.68269818524E+02  0.86524945894E+02  0.10000000000E+01 0.  0.
    9000005    1    3    3    0    0  0.33814123616E+02 -0.41004916592E+02  0.24631437119E+03  0.25198525273E+03  0.10000000000E+01 0.  0.
<mgrwt>
<rscale>  0 0.12500377E+03</rscale>
<asrwt>0</asrwt>
<pdfrwt beam="2">  1        4 0.18404626E-02 0.12500377E+03</pdfrwt>
<pdfrwt beam="1">  1       -4 0.50238019E-01 0.12500377E+03</pdfrwt>
<totfact> 0.71001430E+03</totfact>
</mgrwt>
</event>
<event>
 5    1  0.3304582E-002  0.1249972E+03  0.7818608E-02  0.1235074E+00
          4   -1    0    0  501    0  0.00000000000E+00  0.00000000000E+00  0.51999556641E+02  0.52015063115E+02  0.12700000000E+01 0.  1.
         -4   -1    0    0    0  501 -0.00000000000E+00 -0.00000000000E+00 -0.75085376486E+02  0.75096116158E+02  0.12700000000E+01 0.  1.
         25    2    1    2    0    0  0.00000000000E+00  0.00000000000E+00 -0.23085819845E+02  0.12711117927E+03  0.12499718724E+03 0.  0.
    9000005    1    3    3    0    0  0.36799658509E+02  0.45935810546E+02  0.98064526986E+01  0.59678137299E+02  0.10000000000E+01 0.  0.
    9000005    1    3    3    0    0 -0.36799658509E+02 -0.45935810546E+02 -0.32892272543E+02  0.67433041975E+02  0.10000000000E+01 0.  0.
<mgrwt>
<rscale>  0 0.12499719E+03</rscale>
<asrwt>0</asrwt>
<pdfrwt beam="1">  1        4 0.80019507E-02 0.12499719E+03</pdfrwt>
<pdfrwt beam="2">  1       -4 0.11553615E-01 0.12499719E+03</pdfrwt>
<totfact> 0.10407392E+04</totfact>
</mgrwt>
</event>
<event>
 5    1  0.3304582E-002  0.1250010E+03  0.7818608E-02  0.1235068E+00
          4   -1    0    0  501    0  0.00000000000E+00  0.00000000000E+00  0.38327176422E+02  0.38348211855E+02  0.12700000000E+01 0. -1.
         -4   -1    0    0    0  501 -0.00000000000E+00 -0.00000000000E+00 -0.10186715574E+03  0.10187507212E+03  0.12700000000E+01 0. -1.
         25    2    1    2    0    0  0.00000000000E+00  0.00000000000E+00 -0.63539979321E+02  0.14022328397E+03  0.12500096158E+03 0.  0.
    9000005    1    3    3    0    0 -0.18798045024E+02  0.11976940481E+02  0.33722003253E+02  0.40434973766E+02  0.10000000000E+01 0.  0.
    9000005    1    3    3    0    0  0.18798045024E+02 -0.11976940481E+02 -0.97261982574E+02  0.99788310209E+02  0.10000000000E+01 0.  0.
<mgrwt>
<rscale>  0 0.12500096E+03</rscale>
<asrwt>0</asrwt>
<pdfrwt beam="1">  1        4 0.58987158E-02 0.12500096E+03</pdfrwt>
<pdfrwt beam="2">  1       -4 0.15674097E-01 0.12500096E+03</pdfrwt>
<totfact> 0.10128741E+04</totfact>
</mgrwt>
</event>
<event>
 5    1  0.3304582E-002  0.1250076E+03  0.7818608E-02  0.1235057E+00
          4   -1    0    0  501    0  0.00000000000E+00  0.00000000000E+00  0.50523242216E+02  0.50539201656E+02  0.12700000000E+01 0. -1.
         -4   -1    0    0    0  501 -0.00000000000E+00 -0.00000000000E+00 -0.77291921144E+02  0.77302354260E+02  0.12700000000E+01 0. -1.
         25    2    1    2    0    0  0.00000000000E+00  0.00000000000E+00 -0.26768678928E+02  0.12784155592E+03  0.12500760476E+03 0.  0.
    9000005    1    3    3    0    0  0.25123233241E+02  0.15417649322E+02 -0.69741213365E+02  0.75721315366E+02  0.10000000000E+01 0.  0.
    9000005    1    3    3    0    0 -0.25123233241E+02 -0.15417649322E+02  0.42972534437E+02  0.52120240550E+02  0.10000000000E+01 0.  0.
<mgrwt>
<rscale>  0 0.12500760E+03</rscale>
<asrwt>0</asrwt>
<pdfrwt beam="1">  1        4 0.77748367E-02 0.12500760E+03</pdfrwt>
<pdfrwt beam="2">  1       -4 0.11893095E-01 0.12500760E+03</pdfrwt>
<totfact> 0.10389127E+04</totfact>
</mgrwt>
</event>
<event>
 5    1  0.3304582E-002  0.1249575E+03  0.7818608E-02  0.1235136E+00
          4   -1    0    0  501    0  0.00000000000E+00  0.00000000000E+00  0.37981273373E+02  0.38002500274E+02  0.12700000000E+01 0. -1.
         -4   -1    0    0    0  501 -0.00000000000E+00 -0.00000000000E+00 -0.10272302289E+03  0.10273087332E+03  0.12700000000E+01 0. -1.
         25    2    1    2    0    0  0.00000000000E+00  0.00000000000E+00 -0.64741749519E+02  0.14073337359E+03  0.12495754603E+03 0.  0.
    9000005    1    3    3    0    0  0.94852401969E+01 -0.29166991492E+02 -0.93665278671E+02  0.98564027935E+02  0.10000000000E+01 0.  0.
    9000005    1    3    3    0    0 -0.94852401969E+01  0.29166991492E+02  0.28923529152E+02  0.42169345654E+02  0.10000000000E+01 0.  0.
<mgrwt>
<rscale>  0 0.12495755E+03</rscale>
<asrwt>0</asrwt>
<pdfrwt beam="1">  1        4 0.58455096E-02 0.12495755E+03</pdfrwt>
<pdfrwt beam="2">  1       -4 0.15805779E-01 0.12495755E+03</pdfrwt>
<totfact> 0.10128092E+04</totfact>
</mgrwt>
</event>
<event>
 5    1  0.3304582E-002  0.1250023E+03  0.7818608E-02  0.1235066E+00
         -4   -1    0    0    0  501 -0.00000000000E+00  0.00000000000E+00  0.14314166734E+02  0.14370395585E+02  0.12700000000E+01 0.  1.
          4   -1    0    0  501    0  0.00000000000E+00 -0.00000000000E+00 -0.27231123426E+03  0.27231419574E+03  0.12700000000E+01 0.  1.
         25    2    1    2    0    0  0.00000000000E+00  0.00000000000E+00 -0.25799706752E+03  0.28668459133E+03  0.12500227219E+03 0.  0.
    9000005    1    3    3    0    0 -0.59486095710E+02  0.69962692773E+00 -0.85104143075E+02  0.10384026304E+03  0.10000000000E+01 0.  0.
    9000005    1    3    3    0    0  0.59486095710E+02 -0.69962692773E+00 -0.17289292445E+03  0.18284432828E+03  0.10000000000E+01 0.  0.
<mgrwt>
<rscale>  0 0.12500227E+03</rscale>
<asrwt>0</asrwt>
<pdfrwt beam="2">  1        4 0.41898585E-01 0.12500227E+03</pdfrwt>
<pdfrwt beam="1">  1       -4 0.22067328E-02 0.12500227E+03</pdfrwt>
<totfact> 0.77296144E+03</totfact>
</mgrwt>
</event>
<event>
 5    1  0.3304582E-002  0.1249992E+03  0.7818608E-02  0.1235071E+00
          4   -1    0    0  501    0  0.00000000000E+00  0.00000000000E+00  0.26585267883E+02  0.26615585066E+02  0.12700000000E+01 0.  1.
         -4   -1    0    0    0  501 -0.00000000000E+00 -0.00000000000E+00 -0.14681419536E+03  0.14681968826E+03  0.12700000000E+01 0.  1.
         25    2    1    2    0    0  0.00000000000E+00  0.00000000000E+00 -0.12022892748E+03  0.17343527332E+03  0.12499919612E+03 0.  0.
    9000005    1    3    3    0    0  0.22135243130E+02  0.10092754966E+02  0.19752097304E+02  0.31352480590E+02  0.10000000000E+01 0.  0.
    9000005    1    3    3    0    0 -0.22135243130E+02 -0.10092754966E+02 -0.13998102479E+03  0.14208279273E+03  0.10000000000E+01 0.  0.
<mgrwt>
<rscale>  0 0.12499920E+03</rscale>
<asrwt>0</asrwt>
<pdfrwt beam="1">  1        4 0.40927959E-02 0.12499920E+03</pdfrwt>
<pdfrwt beam="2">  1       -4 0.22589553E-01 0.12499920E+03</pdfrwt>
<totfact> 0.94813911E+03</totfact>
</mgrwt>
</event>
<event>
 5    1  0.3304582E-002  0.1250130E+03  0.7818608E-02  0.1235049E+00
         -4   -1    0    0    0  501 -0.00000000000E+00  0.00000000000E+00  0.30143233601E+03  0.30143501139E+03  0.12700000000E+01 0.  1.
          4   -1    0    0  501    0  0.00000000000E+00 -0.00000000000E+00 -0.12927802217E+02  0.12990033493E+02  0.12700000000E+01 0.  1.
         25    2    1    2    0    0  0.00000000000E+00  0.00000000000E+00  0.28850453379E+03  0.31442504488E+03  0.12501297065E+03 0.  0.
    9000005    1    3    3    0    0  0.22803634886E+02  0.43428398033E+02  0.24166414377E+03  0.24659397783E+03  0.10000000000E+01 0.  0.
    9000005    1    3    3    0    0 -0.22803634886E+02 -0.43428398033E+02  0.46840390022E+02  0.67831067050E+02  0.10000000000E+01 0.  0.
<mgrwt>
<rscale>  0 0.12501297E+03</rscale>
<asrwt>0</asrwt>
<pdfrwt beam="2">  1        4 0.19938856E-02 0.12501297E+03</pdfrwt>
<pdfrwt beam="1">  1       -4 0.46379194E-01 0.12501297E+03</pdfrwt>
<totfact> 0.73802907E+03</totfact>
</mgrwt>
</event>
<event>
 5    1  0.3304582E-002  0.1250004E+03  0.7818608E-02  0.1235069E+00
         -4   -1    0    0    0  501 -0.00000000000E+00  0.00000000000E+00  0.34835643614E+04  0.34835645929E+04  0.12700000000E+01 0.  1.
          4   -1    0    0  501    0  0.00000000000E+00 -0.00000000000E+00 -0.76144866167E+00  0.14807781955E+01  0.12700000000E+01 0.  1.
         25    2    1    2    0    0  0.00000000000E+00  0.00000000000E+00  0.34828029127E+04  0.34850453711E+04  0.12500043850E+03 0.  0.
    9000005    1    3    3    0    0 -0.27944626293E+02  0.20811188331E+00  0.32997890620E+04  0.32999075440E+04  0.10000000000E+01 0.  0.
    9000005    1    3    3    0    0  0.27944626293E+02 -0.20811188331E+00  0.18301385076E+03  0.18513782709E+03  0.10000000000E+01 0.  0.
<mgrwt>
<rscale>  0 0.12500044E+03</rscale>
<asrwt>0</asrwt>
<pdfrwt beam="2">  1        4 0.17249450E-03 0.12500044E+03</pdfrwt>
<pdfrwt beam="1">  1       -4 0.53599548E+00 0.12500044E+03</pdfrwt>
<totfact> 0.59937601E+01</totfact>
</mgrwt>
</event>
<event>
 5    1  0.3304582E-002  0.1250021E+03  0.7818608E-02  0.1235066E+00
         -4   -1    0    0    0  501 -0.00000000000E+00  0.00000000000E+00  0.30446564586E+01  0.32989139047E+01  0.12700000000E+01 0. -1.
          4   -1    0    0  501    0  0.00000000000E+00 -0.00000000000E+00 -0.12313478815E+04  0.12313485364E+04  0.12700000000E+01 0. -1.
         25    2    1    2    0    0  0.00000000000E+00  0.00000000000E+00 -0.12283032251E+04  0.12346474504E+04  0.12500205589E+03 0.  0.
    9000005    1    3    3    0    0  0.31305422758E+02  0.30026476194E+02 -0.16982197467E+03  0.17527727134E+03  0.10000000000E+01 0.  0.
    9000005    1    3    3    0    0 -0.31305422758E+02 -0.30026476194E+02 -0.10584812504E+04  0.10593701790E+04  0.10000000000E+01 0.  0.
<mgrwt>
<rscale>  0 0.12500206E+03</rscale>
<asrwt>0</asrwt>
<pdfrwt beam="2">  1        4 0.18945736E+00 0.12500206E+03</pdfrwt>
<pdfrwt beam="1">  1       -4 0.48801831E-03 0.12500206E+03</pdfrwt>
<totfact> 0.23822438E+03</totfact>
</mgrwt>
</event>
<event>
 5    1  0.3304582E-002  0.1250006E+03  0.7818608E-02  0.1235068E+00
          4   -1    0    0  501    0  0.00000000000E+00  0.00000000000E+00  0.38393129637E+01  0.40439119715E+01  0.12700000000E+01 0.  1.
         -4   -1    0    0    0  501 -0.00000000000E+00 -0.00000000000E+00 -0.99083364151E+03  0.99083445542E+03  0.12700000000E+01 0.  1.
         25    2    1    2    0    0  0.00000000000E+00  0.00000000000E+00 -0.98699432854E+03  0.99487836739E+03  0.12500064528E+03 0.  0.
    9000005    1    3    3    0    0 -0.89136137805E+01 -0.54500689370E+02 -0.26070360652E+03  0.26649042779E+03  0.10000000000E+01 0.  0.
    9000005    1    3    3    0    0  0.89136137805E+01  0.54500689370E+02 -0.72629072202E+03  0.72838793959E+03  0.10000000000E+01 0.  0.
<mgrwt>
<rscale>  0 0.12500065E+03</rscale>
<asrwt>0</asrwt>
<pdfrwt beam="1">  1        4 0.60646531E-03 0.12500065E+03</pdfrwt>
<pdfrwt beam="2">  1       -4 0.15245155E+00 0.12500065E+03</pdfrwt>
<totfact> 0.30773801E+03</totfact>
</mgrwt>
</event>
<event>
 5    1  0.3304582E-002  0.1250026E+03  0.7818608E-02  0.1235065E+00
         -4   -1    0    0    0  501 -0.00000000000E+00  0.00000000000E+00  0.21384085483E+02  0.21421764912E+02  0.12700000000E+01 0. -1.
          4   -1    0    0  501    0  0.00000000000E+00 -0.00000000000E+00 -0.18247771347E+03  0.18248213286E+03  0.12700000000E+01 0. -1.
         25    2    1    2    0    0  0.00000000000E+00  0.00000000000E+00 -0.16109362799E+03  0.20390389777E+03  0.12500257017E+03 0.  0.
    9000005    1    3    3    0    0  0.24561999061E+02  0.49820852236E+02 -0.12725724927E+03  0.13885538018E+03  0.10000000000E+01 0.  0.
    9000005    1    3    3    0    0 -0.24561999061E+02 -0.49820852236E+02 -0.33836378720E+02  0.65048517587E+02  0.10000000000E+01 0.  0.
<mgrwt>
<rscale>  0 0.12500257E+03</rscale>
<asrwt>0</asrwt>
<pdfrwt beam="2">  1        4 0.28076732E-01 0.12500257E+03</pdfrwt>
<pdfrwt beam="1">  1       -4 0.32930978E-02 0.12500257E+03</pdfrwt>
<totfact> 0.89476090E+03</totfact>
</mgrwt>
</event>
<event>
 5    1  0.3304582E-002  0.1250004E+03  0.7818608E-02  0.1235069E+00
         -4   -1    0    0    0  501 -0.00000000000E+00  0.00000000000E+00  0.55085930831E+02  0.55100568741E+02  0.12700000000E+01 0.  1.
          4   -1    0    0  501    0  0.00000000000E+00 -0.00000000000E+00 -0.70882621676E+02  0.70893998022E+02  0.12700000000E+01 0.  1.
         25    2    1    2    0    0  0.00000000000E+00  0.00000000000E+00 -0.15796690844E+02  0.12599456676E+03  0.12500038165E+03 0.  0.
    9000005    1    3    3    0    0 -0.54420542058E+02  0.93291790546E+00  0.23051047561E+02  0.59116973259E+02  0.10000000000E+01 0.  0.
    9000005    1    3    3    0    0  0.54420542058E+02 -0.93291790546E+00 -0.38847738405E+02  0.66877593504E+02  0.10000000000E+01 0.  0.
<mgrwt>
<rscale>  0 0.12500038E+03</rscale>
<asrwt>0</asrwt>
<pdfrwt beam="2">  1        4 0.10907020E-01 0.12500038E+03</pdfrwt>
<pdfrwt beam="1">  1       -4 0.84767597E-02 0.12500038E+03</pdfrwt>
<totfact> 0.10430986E+04</totfact>
</mgrwt>
</event>
<event>
 5    1  0.3304582E-002  0.1249965E+03  0.7818608E-02  0.1235075E+00
         -4   -1    0    0    0  501 -0.00000000000E+00  0.00000000000E+00  0.13225648879E+04  0.13225654976E+04  0.12700000000E+01 0.  1.
          4   -1    0    0  501    0  0.00000000000E+00 -0.00000000000E+00 -0.28162074780E+01  0.30893242885E+01  0.12700000000E+01 0.  1.
         25    2    1    2    0    0  0.00000000000E+00  0.00000000000E+00  0.13197486804E+04  0.13256548219E+04  0.12499650989E+03 0.  0.
    9000005    1    3    3    0    0 -0.21582392809E+02 -0.54504883648E+02  0.88941737607E+03  0.89134777213E+03  0.10000000000E+01 0.  0.
    9000005    1    3    3    0    0  0.21582392809E+02  0.54504883648E+02  0.43033130434E+03  0.43430704981E+03  0.10000000000E+01 0.  0.
<mgrwt>
<rscale>  0 0.12499651E+03</rscale>
<asrwt>0</asrwt>
<pdfrwt beam="2">  1        4 0.45431835E-03 0.12499651E+03</pdfrwt>
<pdfrwt beam="1">  1       -4 0.20349268E+00 0.12499651E+03</pdfrwt>
<totfact> 0.21632637E+03</totfact>
</mgrwt>
</event>
<event>
 5    1  0.3304582E-002  0.1249966E+03  0.7818608E-02  0.1235075E+00
          4   -1    0    0  501    0  0.00000000000E+00  0.00000000000E+00  0.62836037500E+02  0.62848870386E+02  0.12700000000E+01 0. -1.
         -4   -1    0    0    0  501 -0.00000000000E+00 -0.00000000000E+00 -0.62136717734E+02  0.62149695018E+02  0.12700000000E+01 0. -1.
         25    2    1    2    0    0  0.00000000000E+00  0.00000000000E+00  0.69931976623E+00  0.12499856540E+03  0.12499660917E+03 0.  0.
    9000005    1    3    3    0    0 -0.25681321114E+02  0.42867646346E+02  0.37871877119E+02  0.62709205336E+02  0.10000000000E+01 0.  0.
    9000005    1    3    3    0    0  0.25681321114E+02 -0.42867646346E+02 -0.37172557352E+02  0.62289360067E+02  0.10000000000E+01 0.  0.
<mgrwt>
<rscale>  0 0.12499661E+03</rscale>
<asrwt>0</asrwt>
<pdfrwt beam="1">  1        4 0.96690680E-02 0.12499661E+03</pdfrwt>
<pdfrwt beam="2">  1       -4 0.95614805E-02 0.12499661E+03</pdfrwt>
<totfact> 0.10453695E+04</totfact>
</mgrwt>
</event>
<event>
 5    1  0.3304582E-002  0.1250011E+03  0.7818608E-02  0.1235067E+00
         -4   -1    0    0    0  501 -0.00000000000E+00  0.00000000000E+00  0.14441091667E+03  0.14441650098E+03  0.12700000000E+01 0. -1.
          4   -1    0    0  501    0  0.00000000000E+00 -0.00000000000E+00 -0.27029027009E+02  0.27058847002E+02  0.12700000000E+01 0. -1.
         25    2    1    2    0    0  0.00000000000E+00  0.00000000000E+00  0.11738188966E+03  0.17147534798E+03  0.12500114777E+03 0.  0.
    9000005    1    3    3    0    0  0.38619230958E+01 -0.42382656109E+02  0.12146616445E+03  0.12870987956E+03  0.10000000000E+01 0.  0.
    9000005    1    3    3    0    0 -0.38619230958E+01  0.42382656109E+02 -0.40842747870E+01  0.42765468423E+02  0.10000000000E+01 0.  0.
<mgrwt>
<rscale>  0 0.12500115E+03</rscale>
<asrwt>0</asrwt>
<pdfrwt beam="2">  1        4 0.41610352E-02 0.12500115E+03</pdfrwt>
<pdfrwt beam="1">  1       -4 0.22219788E-01 0.12500115E+03</pdfrwt>
<totfact> 0.95171913E+03</totfact>
</mgrwt>
</event>
<event>
 5    1  0.3304582E-002  0.1250002E+03  0.7818608E-02  0.1235069E+00
         -4   -1    0    0    0  501 -0.00000000000E+00  0.00000000000E+00  0.33635944436E+02  0.33659911736E+02  0.12700000000E+01 0. -1.
          4   -1    0    0  501    0  0.00000000000E+00 -0.00000000000E+00 -0.11606485277E+03  0.11607180084E+03  0.12700000000E+01 0. -1.
         25    2    1    2    0    0  0.00000000000E+00  0.00000000000E+00 -0.82428908339E+02  0.14973171257E+03  0.12500024328E+03 0.  0.
    9000005    1    3    3    0    0 -0.57260111522E+02 -0.10412545729E+02 -0.68480343852E+02  0.89876020018E+02  0.10000000000E+01 0.  0.
    9000005    1    3    3    0    0  0.57260111522E+02  0.10412545729E+02 -0.13948564487E+02  0.59855692556E+02  0.10000000000E+01 0.  0.
<mgrwt>
<rscale>  0 0.12500024E+03</rscale>
<asrwt>0</asrwt>
<pdfrwt beam="2">  1        4 0.17858509E-01 0.12500024E+03</pdfrwt>
<pdfrwt beam="1">  1       -4 0.51771388E-02 0.12500024E+03</pdfrwt>
<totfact> 0.99356660E+03</totfact>
</mgrwt>
</event>
<event>
 5    1  0.3304582E-002  0.1249946E+03  0.7818608E-02  0.1235078E+00
         -4   -1    0    0    0  501 -0.00000000000E+00  0.00000000000E+00  0.17757839442E+03  0.17758293573E+03  0.12700000000E+01 0. -1.
          4   -1    0    0  501    0  0.00000000000E+00 -0.00000000000E+00 -0.21972254643E+02  0.22008927146E+02  0.12700000000E+01 0. -1.
         25    2    1    2    0    0  0.00000000000E+00  0.00000000000E+00  0.15560613977E+03  0.19959186288E+03  0.12499456385E+03 0.  0.
    9000005    1    3    3    0    0 -0.30179015211E+02  0.89703032952E+01 -0.83899223972E+01  0.32598007579E+02  0.10000000000E+01 0.  0.
    9000005    1    3    3    0    0  0.30179015211E+02 -0.89703032952E+01  0.16399606217E+03  0.16699385530E+03  0.10000000000E+01 0.  0.
<mgrwt>
<rscale>  0 0.12499456E+03</rscale>
<asrwt>0</asrwt>
<pdfrwt beam="2">  1        4 0.33835173E-02 0.12499456E+03</pdfrwt>
<pdfrwt beam="1">  1       -4 0.27322923E-01 0.12499456E+03</pdfrwt>
<totfact> 0.90215362E+03</totfact>
</mgrwt>
</event>
<event>
 5    1  0.3304582E-002  0.1249974E+03  0.7818608E-02  0.1235073E+00
          4   -1    0    0  501    0  0.00000000000E+00  0.00000000000E+00  0.37434497201E+03  0.37434712630E+03  0.12700000000E+01 0.  1.
         -4   -1    0    0    0  501 -0.00000000000E+00 -0.00000000000E+00 -0.10393624634E+02  0.10470927993E+02  0.12700000000E+01 0.  1.
         25    2    1    2    0    0  0.00000000000E+00  0.00000000000E+00  0.36395134737E+03  0.38481805429E+03  0.12499740659E+03 0.  0.
    9000005    1    3    3    0    0 -0.81849798597E+01  0.61234295867E+02  0.15302119845E+03  0.16502460441E+03  0.10000000000E+01 0.  0.
    9000005    1    3    3    0    0  0.81849798597E+01 -0.61234295867E+02  0.21093014892E+03  0.21979344988E+03  0.10000000000E+01 0.  0.
<mgrwt>
<rscale>  0 0.12499741E+03</rscale>
<asrwt>0</asrwt>
<pdfrwt beam="1">  1        4 0.57597637E-01 0.12499741E+03</pdfrwt>
<pdfrwt beam="2">  1       -4 0.16051316E-02 0.12499741E+03</pdfrwt>
<totfact> 0.66060434E+03</totfact>
</mgrwt>
</event>
<event>
 5    1  0.3304582E-002  0.1249993E+03  0.7818608E-02  0.1235070E+00
          4   -1    0    0  501    0  0.00000000000E+00  0.00000000000E+00  0.18615449232E+03  0.18615882442E+03  0.12700000000E+01 0. -1.
         -4   -1    0    0    0  501 -0.00000000000E+00 -0.00000000000E+00 -0.20959898496E+02  0.20998339100E+02  0.12700000000E+01 0. -1.
         25    2    1    2    0    0  0.00000000000E+00  0.00000000000E+00  0.16519459382E+03  0.20715716352E+03  0.12499934628E+03 0.  0.
    9000005    1    3    3    0    0 -0.91188785144E+01 -0.37261611764E+02  0.16435322726E+03  0.16877370935E+03  0.10000000000E+01 0.  0.
    9000005    1    3    3    0    0  0.91188785144E+01  0.37261611764E+02  0.84136656197E+00  0.38383454174E+02  0.10000000000E+01 0.  0.
<mgrwt>
<rscale>  0 0.12499935E+03</rscale>
<asrwt>0</asrwt>
<pdfrwt beam="1">  1        4 0.28642444E-01 0.12499935E+03</pdfrwt>
<pdfrwt beam="2">  1       -4 0.32278899E-02 0.12499935E+03</pdfrwt>
<totfact> 0.88943567E+03</totfact>
</mgrwt>
</event>
<event>
 5    1  0.3304582E-002  0.1249961E+03  0.7818608E-02  0.1235075E+00
          4   -1    0    0  501    0  0.00000000000E+00  0.00000000000E+00  0.74505205885E+02  0.74516029175E+02  0.12700000000E+01 0. -1.
         -4   -1    0    0    0  501 -0.00000000000E+00 -0.00000000000E+00 -0.52403645300E+02  0.52419032238E+02  0.12700000000E+01 0. -1.
         25    2    1    2    0    0  0.00000000000E+00  0.00000000000E+00  0.22101560585E+02  0.12693506141E+03  0.12499612328E+03 0.  0.
    9000005    1    3    3    0    0  0.60442192483E+02 -0.75631863827E+01 -0.31136021691E+01  0.61001269977E+02  0.10000000000E+01 0.  0.
    9000005    1    3    3    0    0 -0.60442192483E+02  0.75631863827E+01  0.25215162754E+02  0.65933791436E+02  0.10000000000E+01 0.  0.
<mgrwt>
<rscale>  0 0.12499612E+03</rscale>
<asrwt>0</asrwt>
<pdfrwt beam="1">  1        4 0.11464355E-01 0.12499612E+03</pdfrwt>
<pdfrwt beam="2">  1       -4 0.80641155E-02 0.12499612E+03</pdfrwt>
<totfact> 0.10411468E+04</totfact>
</mgrwt>
</event>
<event>
 5    1  0.3304582E-002  0.1249839E+03  0.7818608E-02  0.1235094E+00
          4   -1    0    0  501    0  0.00000000000E+00  0.00000000000E+00  0.35582080411E+01  0.37780609397E+01  0.12700000000E+01 0. -1.
         -4   -1    0    0    0  501 -0.00000000000E+00 -0.00000000000E+00 -0.10644202135E+04  0.10644209712E+04  0.12700000000E+01 0. -1.
         25    2    1    2    0    0  0.00000000000E+00  0.00000000000E+00 -0.10608620055E+04  0.10681990321E+04  0.12498390902E+03 0.  0.
    9000005    1    3    3    0    0  0.39436755740E+02 -0.33936630760E+02 -0.23469916999E+03  0.24039894552E+03  0.10000000000E+01 0.  0.
    9000005    1    3    3    0    0 -0.39436755740E+02  0.33936630760E+02 -0.82616283550E+03  0.82780008660E+03  0.10000000000E+01 0.  0.
<mgrwt>
<rscale>  0 0.12498391E+03</rscale>
<asrwt>0</asrwt>
<pdfrwt beam="1">  1        4 0.56438751E-03 0.12498391E+03</pdfrwt>
<pdfrwt beam="2">  1       -4 0.16377368E+00 0.12498391E+03</pdfrwt>
<totfact> 0.28443292E+03</totfact>
</mgrwt>
</event>
<event>
 5    1  0.3304582E-002  0.1249980E+03  0.7818608E-02  0.1235072E+00
         -4   -1    0    0    0  501 -0.00000000000E+00  0.00000000000E+00  0.45012559814E+03  0.45012738975E+03  0.12700000000E+01 0. -1.
          4   -1    0    0  501    0  0.00000000000E+00 -0.00000000000E+00 -0.86295682663E+01  0.87225196166E+01  0.12700000000E+01 0. -1.
         25    2    1    2    0    0  0.00000000000E+00  0.00000000000E+00  0.44149602988E+03  0.45884990937E+03  0.12499797970E+03 0.  0.
    9000005    1    3    3    0    0 -0.15652366445E+02 -0.46959793630E+01 -0.66516872324E+00  0.16385702515E+02  0.10000000000E+01 0.  0.
    9000005    1    3    3    0    0  0.15652366445E+02  0.46959793630E+01  0.44216119860E+03  0.44246420685E+03  0.10000000000E+01 0.  0.
<mgrwt>
<rscale>  0 0.12499798E+03</rscale>
<asrwt>0</asrwt>
<pdfrwt beam="2">  1        4 0.13349140E-02 0.12499798E+03</pdfrwt>
<pdfrwt beam="1">  1       -4 0.69257371E-01 0.12499798E+03</pdfrwt>
<totfact> 0.59207360E+03</totfact>
</mgrwt>
</event>
<event>
 5    1  0.3304582E-002  0.1250001E+03  0.7818608E-02  0.1235069E+00
          4   -1    0    0  501    0  0.00000000000E+00  0.00000000000E+00  0.25135386734E+04  0.25135389943E+04  0.12700000000E+01 0.  1.
         -4   -1    0    0    0  501 -0.00000000000E+00 -0.00000000000E+00 -0.12942516193E+01  0.18132807985E+01  0.12700000000E+01 0.  1.
         25    2    1    2    0    0  0.00000000000E+00  0.00000000000E+00  0.25122444218E+04  0.25153522751E+04  0.12500013114E+03 0.  0.
    9000005    1    3    3    0    0  0.13129783220E+01  0.25185924990E+01 -0.93417468338E-01  0.30126312542E+01  0.10000000000E+01 0.  0.
    9000005    1    3    3    0    0 -0.13129783220E+01 -0.25185924990E+01  0.25123378393E+04  0.25123396438E+04  0.10000000000E+01 0.  0.
<mgrwt>
<rscale>  0 0.12500013E+03</rscale>
<asrwt>0</asrwt>
<pdfrwt beam="1">  1        4 0.38673813E+00 0.12500013E+03</pdfrwt>
<pdfrwt beam="2">  1       -4 0.23906568E-03 0.12500013E+03</pdfrwt>
<totfact> 0.45498383E+02</totfact>
</mgrwt>
</event>
<event>
 5    1  0.3304582E-002  0.1249715E+03  0.7818608E-02  0.1235114E+00
          4   -1    0    0  501    0  0.00000000000E+00  0.00000000000E+00  0.76583666718E+01  0.77629556278E+01  0.12700000000E+01 0.  1.
         -4   -1    0    0    0  501 -0.00000000000E+00 -0.00000000000E+00 -0.50626716704E+03  0.50626875997E+03  0.12700000000E+01 0.  1.
         25    2    1    2    0    0  0.00000000000E+00  0.00000000000E+00 -0.49860880037E+03  0.51403171560E+03  0.12497147209E+03 0.  0.
    9000005    1    3    3    0    0 -0.30595761613E+02 -0.34048095150E+02 -0.74404521508E+02  0.87363643656E+02  0.10000000000E+01 0.  0.
    9000005    1    3    3    0    0  0.30595761613E+02  0.34048095150E+02 -0.42420427886E+03  0.42666807194E+03  0.10000000000E+01 0.  0.
<mgrwt>
<rscale>  0 0.12497147E+03</rscale>
<asrwt>0</asrwt>
<pdfrwt beam="1">  1        4 0.11863785E-02 0.12497147E+03</pdfrwt>
<pdfrwt beam="2">  1       -4 0.77895398E-01 0.12497147E+03</pdfrwt>
<totfact> 0.54826260E+03</totfact>
</mgrwt>
</event>
<event>
 5    1  0.3304582E-002  0.1250019E+03  0.7818608E-02  0.1235066E+00
         -4   -1    0    0    0  501 -0.00000000000E+00  0.00000000000E+00  0.33630942036E+03  0.33631181830E+03  0.12700000000E+01 0. -1.
          4   -1    0    0  501    0  0.00000000000E+00 -0.00000000000E+00 -0.11578238293E+02  0.11647682257E+02  0.12700000000E+01 0. -1.
         25    2    1    2    0    0  0.00000000000E+00  0.00000000000E+00  0.32473118207E+03  0.34795950055E+03  0.12500189365E+03 0.  0.
    9000005    1    3    3    0    0  0.60295310854E+02 -0.12431438585E+02  0.19225606110E+03  0.20187485779E+03  0.10000000000E+01 0.  0.
    9000005    1    3    3    0    0 -0.60295310854E+02  0.12431438585E+02  0.13247512097E+03  0.14608464276E+03  0.10000000000E+01 0.  0.
<mgrwt>
<rscale>  0 0.12500189E+03</rscale>
<asrwt>0</asrwt>
<pdfrwt beam="2">  1        4 0.17867937E-02 0.12500189E+03</pdfrwt>
<pdfrwt beam="1">  1       -4 0.51745437E-01 0.12500189E+03</pdfrwt>
<totfact> 0.69946687E+03</totfact>
</mgrwt>
</event>
<event>
 5    1  0.3304582E-002  0.1250016E+03  0.7818608E-02  0.1235067E+00
         -4   -1    0    0    0  501 -0.00000000000E+00  0.00000000000E+00  0.40262939615E+02  0.40282964221E+02  0.12700000000E+01 0.  1.
          4   -1    0    0  501    0  0.00000000000E+00 -0.00000000000E+00 -0.96972678706E+02  0.96980994609E+02  0.12700000000E+01 0.  1.
         25    2    1    2    0    0  0.00000000000E+00  0.00000000000E+00 -0.56709739091E+02  0.13726395883E+03  0.12500159953E+03 0.  0.
    9000005    1    3    3    0    0 -0.42605068294E+00  0.43488795010E+02  0.20923821498E+02  0.48272798931E+02  0.10000000000E+01 0.  0.
    9000005    1    3    3    0    0  0.42605068294E+00 -0.43488795010E+02 -0.77633560589E+02  0.88991159899E+02  0.10000000000E+01 0.  0.
<mgrwt>
<rscale>  0 0.12500160E+03</rscale>
<asrwt>0</asrwt>
<pdfrwt beam="2">  1        4 0.14921054E-01 0.12500160E+03</pdfrwt>
<pdfrwt beam="1">  1       -4 0.61964785E-02 0.12500160E+03</pdfrwt>
<totfact> 0.10190202E+04</totfact>
</mgrwt>
</event>
<event>
 5    1  0.3304582E-002  0.1249988E+03  0.7818608E-02  0.1235071E+00
         -4   -1    0    0    0  501 -0.00000000000E+00  0.00000000000E+00  0.17959035598E+03  0.17959484642E+03  0.12700000000E+01 0.  1.
          4   -1    0    0  501    0  0.00000000000E+00 -0.00000000000E+00 -0.21727177788E+02  0.21764263246E+02  0.12700000000E+01 0.  1.
         25    2    1    2    0    0  0.00000000000E+00  0.00000000000E+00  0.15786317819E+03  0.20135910966E+03  0.12499883206E+03 0.  0.
    9000005    1    3    3    0    0 -0.43184077673E+02 -0.80541571137E+01  0.15052904288E+03  0.15681111810E+03  0.10000000000E+01 0.  0.
    9000005    1    3    3    0    0  0.43184077673E+02  0.80541571137E+01  0.73341353100E+01  0.44547991560E+02  0.10000000000E+01 0.  0.
<mgrwt>
<rscale>  0 0.12499883E+03</rscale>
<asrwt>0</asrwt>
<pdfrwt beam="2">  1        4 0.33458408E-02 0.12499883E+03</pdfrwt>
<pdfrwt beam="1">  1       -4 0.27632484E-01 0.12499883E+03</pdfrwt>
<totfact> 0.89909135E+03</totfact>
</mgrwt>
</event>
<event>
 5    1  0.3304582E-002  0.1249993E+03  0.7818608E-02  0.1235070E+00
         -4   -1    0    0    0  501 -0.00000000000E+00  0.00000000000E+00  0.61490870563E+03  0.61491001712E+03  0.12700000000E+01 0.  1.
          4   -1    0    0  501    0  0.00000000000E+00 -0.00000000000E+00 -0.62876934526E+01  0.64146698242E+01  0.12700000000E+01 0.  1.
         25    2    1    2    0    0  0.00000000000E+00  0.00000000000E+00  0.60862101218E+03  0.62132468695E+03  0.12499932059E+03 0.  0.
    9000005    1    3    3    0    0 -0.55991359774E+02 -0.26165629812E+02  0.25833962300E+03  0.26563138626E+03  0.10000000000E+01 0.  0.
    9000005    1    3    3    0    0  0.55991359774E+02  0.26165629812E+02  0.35028138918E+03  0.35569330069E+03  0.10000000000E+01 0.  0.
<mgrwt>
<rscale>  0 0.12499932E+03</rscale>
<asrwt>0</asrwt>
<pdfrwt beam="2">  1        4 0.97720546E-03 0.12499932E+03</pdfrwt>
<pdfrwt beam="1">  1       -4 0.94611236E-01 0.12499932E+03</pdfrwt>
<totfact> 0.47549316E+03</totfact>
</mgrwt>
</event>
<event>
 5    1  0.3304582E-002  0.1250001E+03  0.7818608E-02  0.1235069E+00
          4   -1    0    0  501    0  0.00000000000E+00  0.00000000000E+00  0.22813860789E+03  0.22814214278E+03  0.12700000000E+01 0. -1.
         -4   -1    0    0    0  501 -0.00000000000E+00 -0.00000000000E+00 -0.17095073657E+02  0.17142183156E+02  0.12700000000E+01 0. -1.
         25    2    1    2    0    0  0.00000000000E+00  0.00000000000E+00  0.21104353424E+03  0.24528432594E+03  0.12500010882E+03 0.  0.
    9000005    1    3    3    0    0  0.34839957682E+02  0.35457674618E+02  0.31209182506E+02  0.58703342437E+02  0.10000000000E+01 0.  0.
    9000005    1    3    3    0    0 -0.34839957682E+02 -0.35457674618E+02  0.17983435173E+03  0.18658098350E+03  0.10000000000E+01 0.  0.
<mgrwt>
<rscale>  0 0.12500011E+03</rscale>
<asrwt>0</asrwt>
<pdfrwt beam="1">  1        4 0.35102140E-01 0.12500011E+03</pdfrwt>
<pdfrwt beam="2">  1       -4 0.26339072E-02 0.12500011E+03</pdfrwt>
<totfact> 0.83016402E+03</totfact>
</mgrwt>
</event>
<event>
 5    1  0.3304582E-002  0.1250022E+03  0.7818608E-02  0.1235066E+00
          4   -1    0    0  501    0  0.00000000000E+00  0.00000000000E+00  0.35672610526E+02  0.35695210348E+02  0.12700000000E+01 0. -1.
         -4   -1    0    0    0  501 -0.00000000000E+00 -0.00000000000E+00 -0.10944570377E+03  0.10945307202E+03  0.12700000000E+01 0. -1.
         25    2    1    2    0    0  0.00000000000E+00  0.00000000000E+00 -0.73773093247E+02  0.14514828237E+03  0.12500221833E+03 0.  0.
    9000005    1    3    3    0    0  0.16051868238E+02  0.74521802215E+01 -0.10648088365E+03  0.10794617199E+03  0.10000000000E+01 0.  0.
    9000005    1    3    3    0    0 -0.16051868238E+02 -0.74521802215E+01  0.32707790400E+02  0.37202110382E+02  0.10000000000E+01 0.  0.
<mgrwt>
<rscale>  0 0.12500222E+03</rscale>
<asrwt>0</asrwt>
<pdfrwt beam="1">  1        4 0.54903992E-02 0.12500222E+03</pdfrwt>
<pdfrwt beam="2">  1       -4 0.16840106E-01 0.12500222E+03</pdfrwt>
<totfact> 0.10027476E+04</totfact>
</mgrwt>
</event>
<event>
 5    1  0.3304582E-002  0.1249995E+03  0.7818608E-02  0.1235070E+00
          4   -1    0    0  501    0  0.00000000000E+00  0.00000000000E+00  0.17462627412E+02  0.17508747989E+02  0.12700000000E+01 0.  1.
         -4   -1    0    0    0  501 -0.00000000000E+00 -0.00000000000E+00 -0.22334739700E+03  0.22335100772E+03  0.12700000000E+01 0.  1.
         25    2    1    2    0    0  0.00000000000E+00  0.00000000000E+00 -0.20588476959E+03  0.24085975571E+03  0.12499953427E+03 0.  0.
    9000005    1    3    3    0    0  0.28491776976E+02 -0.22847388013E+02 -0.20065344826E+03  0.20395242287E+03  0.10000000000E+01 0.  0.
    9000005    1    3    3    0    0 -0.28491776976E+02  0.22847388013E+02 -0.52313213286E+01  0.36907332837E+02  0.10000000000E+01 0.  0.
<mgrwt>
<rscale>  0 0.12499953E+03</rscale>
<asrwt>0</asrwt>
<pdfrwt beam="1">  1        4 0.26903837E-02 0.12499953E+03</pdfrwt>
<pdfrwt beam="2">  1       -4 0.34364961E-01 0.12499953E+03</pdfrwt>
<totfact> 0.83670358E+03</totfact>
</mgrwt>
</event>
<event>
 5    1  0.3304582E-002  0.1250058E+03  0.7818608E-02  0.1235060E+00
          4   -1    0    0  501    0  0.00000000000E+00  0.00000000000E+00  0.90813057996E+02  0.90821937893E+02  0.12700000000E+01 0. -1.
         -4   -1    0    0    0  501 -0.00000000000E+00 -0.00000000000E+00 -0.42997825706E+02  0.43016577217E+02  0.12700000000E+01 0. -1.
         25    2    1    2    0    0  0.00000000000E+00  0.00000000000E+00  0.47815232290E+02  0.13383851511E+03  0.12500580662E+03 0.  0.
    9000005    1    3    3    0    0 -0.32817254461E+01  0.53476069797E+02 -0.10539528507E+02  0.54612648938E+02  0.10000000000E+01 0.  0.
    9000005    1    3    3    0    0  0.32817254461E+01 -0.53476069797E+02  0.58354760798E+02  0.79225866171E+02  0.10000000000E+01 0.  0.
<mgrwt>
<rscale>  0 0.12500581E+03</rscale>
<asrwt>0</asrwt>
<pdfrwt beam="1">  1        4 0.13973365E-01 0.12500581E+03</pdfrwt>
<pdfrwt beam="2">  1       -4 0.66171757E-02 0.12500581E+03</pdfrwt>
<totfact> 0.10261266E+04</totfact>
</mgrwt>
</event>
<event>
 5    1  0.3304582E-002  0.1250003E+03  0.7818608E-02  0.1235069E+00
         -4   -1    0    0    0  501 -0.00000000000E+00  0.00000000000E+00  0.12703796487E+03  0.12704431282E+03  0.12700000000E+01 0.  1.
          4   -1    0    0  501    0  0.00000000000E+00 -0.00000000000E+00 -0.30728612882E+02  0.30754845954E+02  0.12700000000E+01 0.  1.
         25    2    1    2    0    0  0.00000000000E+00  0.00000000000E+00  0.96309351989E+02  0.15779915877E+03  0.12500033291E+03 0.  0.
    9000005    1    3    3    0    0  0.47675014128E+02  0.39636663472E+02  0.58038370210E+02  0.84931881411E+02  0.10000000000E+01 0.  0.
    9000005    1    3    3    0    0 -0.47675014128E+02 -0.39636663472E+02  0.38270981779E+02  0.72867277358E+02  0.10000000000E+01 0.  0.
<mgrwt>
<rscale>  0 0.12500033E+03</rscale>
<asrwt>0</asrwt>
<pdfrwt beam="2">  1        4 0.47299851E-02 0.12500033E+03</pdfrwt>
<pdfrwt beam="1">  1       -4 0.19546809E-01 0.12500033E+03</pdfrwt>
<totfact> 0.97768043E+03</totfact>
</mgrwt>
</event>
<event>
 5    1  0.3304582E-002  0.1250001E+03  0.7818608E-02  0.1235069E+00
          4   -1    0    0  501    0  0.00000000000E+00  0.00000000000E+00  0.46590942686E+03  0.46591115777E+03  0.12700000000E+01 0. -1.
         -4   -1    0    0    0  501 -0.00000000000E+00 -0.00000000000E+00 -0.83343055220E+01  0.84305129461E+01  0.12700000000E+01 0. -1.
         25    2    1    2    0    0  0.00000000000E+00  0.00000000000E+00  0.45757512134E+03  0.47434167072E+03  0.12500011565E+03 0.  0.
    9000005    1    3    3    0    0 -0.40615419993E+01  0.52512463528E+02  0.35641704067E+03  0.36028899765E+03  0.10000000000E+01 0.  0.
    9000005    1    3    3    0    0  0.40615419993E+01 -0.52512463528E+02  0.10115808067E+03  0.11405267307E+03  0.10000000000E+01 0.  0.
<mgrwt>
<rscale>  0 0.12500012E+03</rscale>
<asrwt>0</asrwt>
<pdfrwt beam="1">  1        4 0.71685939E-01 0.12500012E+03</pdfrwt>
<pdfrwt beam="2">  1       -4 0.12897340E-02 0.12500012E+03</pdfrwt>
<totfact> 0.57911418E+03</totfact>
</mgrwt>
</event>
<event>
 5    1  0.3304582E-002  0.1250006E+03  0.7818608E-02  0.1235068E+00
         -4   -1    0    0    0  501 -0.00000000000E+00  0.00000000000E+00  0.35544496446E+02  0.35567177672E+02  0.12700000000E+01 0.  1.
          4   -1    0    0  501    0  0.00000000000E+00 -0.00000000000E+00 -0.10983708748E+03  0.10984442948E+03  0.12700000000E+01 0.  1.
         25    2    1    2    0    0  0.00000000000E+00  0.00000000000E+00 -0.74292591039E+02  0.14541160715E+03  0.12500058564E+03 0.  0.
    9000005    1    3    3    0    0  0.35012837083E+02  0.27990366783E+02  0.13505851230E+02  0.46826994466E+02  0.10000000000E+01 0.  0.
    9000005    1    3    3    0    0 -0.35012837083E+02 -0.27990366783E+02 -0.87798442269E+02  0.98584612684E+02  0.10000000000E+01 0.  0.
<mgrwt>
<rscale>  0 0.12500059E+03</rscale>
<asrwt>0</asrwt>
<pdfrwt beam="2">  1        4 0.16900323E-01 0.12500059E+03</pdfrwt>
<pdfrwt beam="1">  1       -4 0.54706936E-02 0.12500059E+03</pdfrwt>
<totfact> 0.10022500E+04</totfact>
</mgrwt>
</event>
<event>
 5    1  0.3304582E-002  0.1249983E+03  0.7818608E-02  0.1235072E+00
         -4   -1    0    0    0  501 -0.00000000000E+00  0.00000000000E+00  0.42820683095E+02  0.42839512144E+02  0.12700000000E+01 0. -1.
          4   -1    0    0  501    0  0.00000000000E+00 -0.00000000000E+00 -0.91177649621E+02  0.91186494013E+02  0.12700000000E+01 0. -1.
         25    2    1    2    0    0  0.00000000000E+00  0.00000000000E+00 -0.48356966527E+02  0.13402600616E+03  0.12499829645E+03 0.  0.
    9000005    1    3    3    0    0 -0.37266375610E+01 -0.34813041453E+02 -0.79678905855E+02  0.87037714360E+02  0.10000000000E+01 0.  0.
    9000005    1    3    3    0    0  0.37266375610E+01  0.34813041453E+02  0.31321939328E+02  0.46988291797E+02  0.10000000000E+01 0.  0.
<mgrwt>
<rscale>  0 0.12499830E+03</rscale>
<asrwt>0</asrwt>
<pdfrwt beam="2">  1        4 0.14029459E-01 0.12499830E+03</pdfrwt>
<pdfrwt beam="1">  1       -4 0.65899262E-02 0.12499830E+03</pdfrwt>
<totfact> 0.10259035E+04</totfact>
</mgrwt>
</event>
<event>
 5    1  0.3304582E-002  0.1250021E+03  0.7818608E-02  0.1235066E+00
          4   -1    0    0  501    0  0.00000000000E+00  0.00000000000E+00  0.20125886882E+03  0.20126287581E+03  0.12700000000E+01 0. -1.
         -4   -1    0    0    0  501 -0.00000000000E+00 -0.00000000000E+00 -0.19384769585E+02  0.19426327287E+02  0.12700000000E+01 0. -1.
         25    2    1    2    0    0  0.00000000000E+00  0.00000000000E+00  0.18187409923E+03  0.22068920309E+03  0.12500214554E+03 0.  0.
    9000005    1    3    3    0    0 -0.94822835981E+01 -0.20889629293E+02  0.19356454776E+03  0.19492184194E+03  0.10000000000E+01 0.  0.
    9000005    1    3    3    0    0  0.94822835981E+01  0.20889629293E+02 -0.11690448528E+02  0.25767361157E+02  0.10000000000E+01 0.  0.
<mgrwt>
<rscale>  0 0.12500215E+03</rscale>
<asrwt>0</asrwt>
<pdfrwt beam="1">  1        4 0.30966407E-01 0.12500215E+03</pdfrwt>
<pdfrwt beam="2">  1       -4 0.29857773E-02 0.12500215E+03</pdfrwt>
<totfact> 0.86755253E+03</totfact>
</mgrwt>
</event>
<event>
 5    1  0.3304582E-002  0.1249984E+03  0.7818608E-02  0.1235072E+00
          4   -1    0    0  501    0  0.00000000000E+00  0.00000000000E+00  0.15156120131E+03  0.15156652217E+03  0.12700000000E+01 0.  1.
         -4   -1    0    0    0  501 -0.00000000000E+00 -0.00000000000E+00 -0.25751322352E+02  0.25782620170E+02  0.12700000000E+01 0.  1.
         25    2    1    2    0    0  0.00000000000E+00  0.00000000000E+00  0.12580987895E+03  0.17734914234E+03  0.12499837057E+03 0.  0.
    9000005    1    3    3    0    0  0.58653627485E+02 -0.19968842457E+02  0.51365763134E+02  0.80488783744E+02  0.10000000000E+01 0.  0.
    9000005    1    3    3    0    0 -0.58653627485E+02  0.19968842457E+02  0.74444115820E+02  0.96860358592E+02  0.10000000000E+01 0.  0.
<mgrwt>
<rscale>  0 0.12499837E+03</rscale>
<asrwt>0</asrwt>
<pdfrwt beam="1">  1        4 0.23319925E-01 0.12499837E+03</pdfrwt>
<pdfrwt beam="2">  1       -4 0.39645587E-02 0.12499837E+03</pdfrwt>
<totfact> 0.94099792E+03</totfact>
</mgrwt>
</event>
<event>
 5    1  0.3304582E-002  0.1250126E+03  0.7818608E-02  0.1235050E+00
         -4   -1    0    0    0  501 -0.00000000000E+00  0.00000000000E+00  0.91884129930E+02  0.91892906326E+02  0.12700000000E+01 0. -1.
          4   -1    0    0  501    0  0.00000000000E+00 -0.00000000000E+00 -0.42501082554E+02  0.42520053131E+02  0.12700000000E+01 0. -1.
         25    2    1    2    0    0  0.00000000000E+00  0.00000000000E+00  0.49383047376E+02  0.13441295946E+03  0.12501263257E+03 0.  0.
    9000005    1    3    3    0    0  0.12810776156E+02 -0.18774296963E+02  0.87288278329E+02  0.90204399814E+02  0.10000000000E+01 0.  0.
    9000005    1    3    3    0    0 -0.12810776156E+02  0.18774296963E+02 -0.37905230952E+02  0.44208559643E+02  0.10000000000E+01 0.  0.
<mgrwt>
<rscale>  0 0.12501263E+03</rscale>
<asrwt>0</asrwt>
<pdfrwt beam="2">  1        4 0.65407625E-02 0.12501263E+03</pdfrwt>
<pdfrwt beam="1">  1       -4 0.14138154E-01 0.12501263E+03</pdfrwt>
<totfact> 0.10247539E+04</totfact>
</mgrwt>
</event>
<event>
 5    1  0.3304582E-002  0.1249966E+03  0.7818608E-02  0.1235075E+00
          4   -1    0    0  501    0  0.00000000000E+00  0.00000000000E+00  0.26004762761E+02  0.26035755919E+02  0.12700000000E+01 0.  1.
         -4   -1    0    0    0  501 -0.00000000000E+00 -0.00000000000E+00 -0.15008154211E+03  0.15008691543E+03  0.12700000000E+01 0.  1.
         25    2    1    2    0    0  0.00000000000E+00  0.00000000000E+00 -0.12407677935E+03  0.17612267135E+03  0.12499659271E+03 0.  0.
    9000005    1    3    3    0    0 -0.44149802535E+02 -0.17097807284E+02 -0.11950665607E+03  0.12854719337E+03  0.10000000000E+01 0.  0.
    9000005    1    3    3    0    0  0.44149802535E+02  0.17097807284E+02 -0.45701232775E+01  0.47575477975E+02  0.10000000000E+01 0.  0.
<mgrwt>
<rscale>  0 0.12499659E+03</rscale>
<asrwt>0</asrwt>
<pdfrwt beam="1">  1        4 0.40035302E-02 0.12499659E+03</pdfrwt>
<pdfrwt beam="2">  1       -4 0.23092265E-01 0.12499659E+03</pdfrwt>
<totfact> 0.94326837E+03</totfact>
</mgrwt>
</event>
<event>
 5    1  0.3304582E-002  0.1249999E+03  0.7818608E-02  0.1235069E+00
         -4   -1    0    0    0  501 -0.00000000000E+00  0.00000000000E+00  0.39059110306E+03  0.39059316774E+03  0.12700000000E+01 0.  1.
          4   -1    0    0  501    0  0.00000000000E+00 -0.00000000000E+00 -0.99584342171E+01  0.10039089205E+02  0.12700000000E+01 0.  1.
         25    2    1    2    0    0  0.00000000000E+00  0.00000000000E+00  0.38063266884E+03  0.40063225695E+03  0.12499990687E+03 0.  0.
    9000005    1    3    3    0    0  0.58551839781E+02  0.12880130879E+02  0.24684077771E+03  0.25401886791E+03  0.10000000000E+01 0.  0.
    9000005    1    3    3    0    0 -0.58551839781E+02 -0.12880130879E+02  0.13379189113E+03  0.14661338904E+03  0.10000000000E+01 0.  0.
<mgrwt>
<rscale>  0 0.12499991E+03</rscale>
<asrwt>0</asrwt>
<pdfrwt beam="2">  1        4 0.15384301E-02 0.12499991E+03</pdfrwt>
<pdfrwt beam="1">  1       -4 0.60097292E-01 0.12499991E+03</pdfrwt>
<totfact> 0.64491480E+03</totfact>
</mgrwt>
</event>
<event>
 5    1  0.3304582E-002  0.1250016E+03  0.7818608E-02  0.1235067E+00
          4   -1    0    0  501    0  0.00000000000E+00  0.00000000000E+00  0.19692419551E+03  0.19692829070E+03  0.12700000000E+01 0.  1.
         -4   -1    0    0    0  501 -0.00000000000E+00 -0.00000000000E+00 -0.19812179301E+02  0.19852842332E+02  0.12700000000E+01 0.  1.
         25    2    1    2    0    0  0.00000000000E+00  0.00000000000E+00  0.17711201621E+03  0.21678113303E+03  0.12500157340E+03 0.  0.
    9000005    1    3    3    0    0  0.45799170669E+02  0.39406822377E+02  0.11624324079E+03  0.13101126941E+03  0.10000000000E+01 0.  0.
    9000005    1    3    3    0    0 -0.45799170669E+02 -0.39406822377E+02  0.60868775420E+02  0.85769863617E+02  0.10000000000E+01 0.  0.
<mgrwt>
<rscale>  0 0.12500157E+03</rscale>
<asrwt>0</asrwt>
<pdfrwt beam="1">  1        4 0.30299472E-01 0.12500157E+03</pdfrwt>
<pdfrwt beam="2">  1       -4 0.30514706E-02 0.12500157E+03</pdfrwt>
<totfact> 0.87377198E+03</totfact>
</mgrwt>
</event>
<event>
 5    1  0.3304582E-002  0.1249992E+03  0.7818608E-02  0.1235071E+00
          4   -1    0    0  501    0  0.00000000000E+00  0.00000000000E+00  0.38943191447E+03  0.38943398530E+03  0.12700000000E+01 0.  1.
         -4   -1    0    0    0  501 -0.00000000000E+00 -0.00000000000E+00 -0.99881948986E+01  0.10068611490E+02  0.12700000000E+01 0.  1.
         25    2    1    2    0    0  0.00000000000E+00  0.00000000000E+00  0.37944371957E+03  0.39950259679E+03  0.12499915408E+03 0.  0.
    9000005    1    3    3    0    0 -0.40042985448E+02  0.47644379215E+02  0.20773619503E+03  0.21686114055E+03  0.10000000000E+01 0.  0.
    9000005    1    3    3    0    0  0.40042985448E+02 -0.47644379215E+02  0.17170752454E+03  0.18264145625E+03  0.10000000000E+01 0.  0.
<mgrwt>
<rscale>  0 0.12499915E+03</rscale>
<asrwt>0</asrwt>
<pdfrwt beam="1">  1        4 0.59918943E-01 0.12499915E+03</pdfrwt>
<pdfrwt beam="2">  1       -4 0.15429907E-02 0.12499915E+03</pdfrwt>
<totfact> 0.64602402E+03</totfact>
</mgrwt>
</event>
<event>
 5    1  0.3304582E-002  0.1249991E+03  0.7818608E-02  0.1235071E+00
         -4   -1    0    0    0  501 -0.00000000000E+00  0.00000000000E+00  0.52256045497E+01  0.53777172583E+01  0.12700000000E+01 0.  1.
          4   -1    0    0  501    0  0.00000000000E+00 -0.00000000000E+00 -0.73663424668E+03  0.73663534146E+03  0.12700000000E+01 0.  1.
         25    2    1    2    0    0  0.00000000000E+00  0.00000000000E+00 -0.73140864213E+03  0.74201305872E+03  0.12499911007E+03 0.  0.
    9000005    1    3    3    0    0  0.22806891437E+02 -0.54415555954E+02 -0.24347340162E+03  0.25052246271E+03  0.10000000000E+01 0.  0.
    9000005    1    3    3    0    0 -0.22806891437E+02  0.54415555954E+02 -0.48793524051E+03  0.49149059601E+03  0.10000000000E+01 0.  0.
<mgrwt>
<rscale>  0 0.12499911E+03</rscale>
<asrwt>0</asrwt>
<pdfrwt beam="2">  1        4 0.11334005E+00 0.12499911E+03</pdfrwt>
<pdfrwt beam="1">  1       -4 0.81572494E-03 0.12499911E+03</pdfrwt>
<totfact> 0.40959917E+03</totfact>
</mgrwt>
</event>
<event>
 5    1  0.3304582E-002  0.1249981E+03  0.7818608E-02  0.1235072E+00
          4   -1    0    0  501    0  0.00000000000E+00  0.00000000000E+00  0.14951156341E+02  0.15004998365E+02  0.12700000000E+01 0.  1.
         -4   -1    0    0    0  501 -0.00000000000E+00 -0.00000000000E+00 -0.26073470898E+03  0.26073780195E+03  0.12700000000E+01 0.  1.
         25    2    1    2    0    0  0.00000000000E+00  0.00000000000E+00 -0.24578355264E+03  0.27574280032E+03  0.12499814870E+03 0.  0.
    9000005    1    3    3    0    0 -0.59982963543E+02 -0.76128258994E+00 -0.84265232897E+02  0.10344160160E+03  0.10000000000E+01 0.  0.
    9000005    1    3    3    0    0  0.59982963543E+02  0.76128258994E+00 -0.16151831974E+03  0.17230119872E+03  0.10000000000E+01 0.  0.
<mgrwt>
<rscale>  0 0.12499815E+03</rscale>
<asrwt>0</asrwt>
<pdfrwt beam="1">  1        4 0.23045577E-02 0.12499815E+03</pdfrwt>
<pdfrwt beam="2">  1       -4 0.40117408E-01 0.12499815E+03</pdfrwt>
<totfact> 0.78749229E+03</totfact>
</mgrwt>
</event>
<event>
 5    1  0.3304582E-002  0.1249993E+03  0.7818608E-02  0.1235070E+00
         -4   -1    0    0    0  501 -0.00000000000E+00  0.00000000000E+00  0.63244314161E+02  0.63257064220E+02  0.12700000000E+01 0. -1.
          4   -1    0    0  501    0  0.00000000000E+00 -0.00000000000E+00 -0.61738254035E+02  0.61751315058E+02  0.12700000000E+01 0. -1.
         25    2    1    2    0    0  0.00000000000E+00  0.00000000000E+00  0.15060601258E+01  0.12500837928E+03  0.12499930669E+03 0.  0.
    9000005    1    3    3    0    0 -0.39075445070E+00  0.62479573407E+02 -0.41190898107E+00  0.62490154834E+02  0.10000000000E+01 0.  0.
    9000005    1    3    3    0    0  0.39075445070E+00 -0.62479573407E+02  0.19179691068E+01  0.62518224444E+02  0.10000000000E+01 0.  0.
<mgrwt>
<rscale>  0 0.12499931E+03</rscale>
<asrwt>0</asrwt>
<pdfrwt beam="2">  1        4 0.95001785E-02 0.12499931E+03</pdfrwt>
<pdfrwt beam="1">  1       -4 0.97318799E-02 0.12499931E+03</pdfrwt>
<totfact> 0.10452844E+04</totfact>
</mgrwt>
</event>
<event>
 5    1  0.3304582E-002  0.1249990E+03  0.7818608E-02  0.1235071E+00
          4   -1    0    0  501    0  0.00000000000E+00  0.00000000000E+00  0.12792132137E+03  0.12792762548E+03  0.12700000000E+01 0. -1.
         -4   -1    0    0    0  501 -0.00000000000E+00 -0.00000000000E+00 -0.30515578666E+02  0.30541994718E+02  0.12700000000E+01 0. -1.
         25    2    1    2    0    0  0.00000000000E+00  0.00000000000E+00  0.97405742702E+02  0.15846962020E+03  0.12499896725E+03 0.  0.
    9000005    1    3    3    0    0  0.29720215444E+02  0.18346416016E+01 -0.20949710751E+02  0.36421799741E+02  0.10000000000E+01 0.  0.
    9000005    1    3    3    0    0 -0.29720215444E+02 -0.18346416016E+01  0.11835545345E+03  0.12204782046E+03  0.10000000000E+01 0.  0.
<mgrwt>
<rscale>  0 0.12499897E+03</rscale>
<asrwt>0</asrwt>
<pdfrwt beam="1">  1        4 0.19682721E-01 0.12499897E+03</pdfrwt>
<pdfrwt beam="2">  1       -4 0.46972212E-02 0.12499897E+03</pdfrwt>
<totfact> 0.97640910E+03</totfact>
</mgrwt>
</event>
<event>
 5    1  0.3304582E-002  0.1250122E+03  0.7818608E-02  0.1235050E+00
          4   -1    0    0  501    0  0.00000000000E+00  0.00000000000E+00  0.25838517950E+02  0.25869710277E+02  0.12700000000E+01 0. -1.
         -4   -1    0    0    0  501 -0.00000000000E+00 -0.00000000000E+00 -0.15108367209E+03  0.15108900976E+03  0.12700000000E+01 0. -1.
         25    2    1    2    0    0  0.00000000000E+00  0.00000000000E+00 -0.12524515414E+03  0.17695872004E+03  0.12501215926E+03 0.  0.
    9000005    1    3    3    0    0  0.39663737836E+02  0.29325338347E+02 -0.82981811819E+01  0.50030464511E+02  0.10000000000E+01 0.  0.
    9000005    1    3    3    0    0 -0.39663737836E+02 -0.29325338347E+02 -0.11694697295E+03  0.12692825553E+03  0.10000000000E+01 0.  0.
<mgrwt>
<rscale>  0 0.12501216E+03</rscale>
<asrwt>0</asrwt>
<pdfrwt beam="1">  1        4 0.39779667E-02 0.12501216E+03</pdfrwt>
<pdfrwt beam="2">  1       -4 0.23246451E-01 0.12501216E+03</pdfrwt>
<totfact> 0.94141649E+03</totfact>
</mgrwt>
</event>
<event>
 5    1  0.3304582E-002  0.1250019E+03  0.7818608E-02  0.1235066E+00
         -4   -1    0    0    0  501 -0.00000000000E+00  0.00000000000E+00  0.23826664279E+02  0.23860486807E+02  0.12700000000E+01 0. -1.
          4   -1    0    0  501    0  0.00000000000E+00 -0.00000000000E+00 -0.16379685024E+03  0.16380177364E+03  0.12700000000E+01 0. -1.
         25    2    1    2    0    0  0.00000000000E+00  0.00000000000E+00 -0.13997018596E+03  0.18766226045E+03  0.12500188414E+03 0.  0.
    9000005    1    3    3    0    0 -0.39581487593E+02  0.12720835073E+02 -0.14002975284E+03  0.14607479415E+03  0.10000000000E+01 0.  0.
    9000005    1    3    3    0    0  0.39581487593E+02 -0.12720835073E+02  0.59566879999E-01  0.41587466300E+02  0.10000000000E+01 0.  0.
<mgrwt>
<rscale>  0 0.12500188E+03</rscale>
<asrwt>0</asrwt>
<pdfrwt beam="2">  1        4 0.25202495E-01 0.12500188E+03</pdfrwt>
<pdfrwt beam="1">  1       -4 0.36686212E-02 0.12500188E+03</pdfrwt>
<totfact> 0.92251778E+03</totfact>
</mgrwt>
</event>
<event>
 5    1  0.3304582E-002  0.1249983E+03  0.7818608E-02  0.1235072E+00
         -4   -1    0    0    0  501 -0.00000000000E+00  0.00000000000E+00  0.35642901576E+02  0.35665520223E+02  0.12700000000E+01 0. -1.
          4   -1    0    0  501    0  0.00000000000E+00 -0.00000000000E+00 -0.10952994744E+03  0.10953731002E+03  0.12700000000E+01 0. -1.
         25    2    1    2    0    0  0.00000000000E+00  0.00000000000E+00 -0.73887045867E+02  0.14520283024E+03  0.12499826544E+03 0.  0.
    9000005    1    3    3    0    0  0.53749745221E+02 -0.19089949461E+02 -0.72891739303E+01  0.57511680017E+02  0.10000000000E+01 0.  0.
    9000005    1    3    3    0    0 -0.53749745221E+02  0.19089949461E+02 -0.66597871937E+02  0.87691150228E+02  0.10000000000E+01 0.  0.
<mgrwt>
<rscale>  0 0.12499827E+03</rscale>
<asrwt>0</asrwt>
<pdfrwt beam="2">  1        4 0.16853067E-01 0.12499827E+03</pdfrwt>
<pdfrwt beam="1">  1       -4 0.54858296E-02 0.12499827E+03</pdfrwt>
<totfact> 0.10027261E+04</totfact>
</mgrwt>
</event>
<event>
 5    1  0.3304582E-002  0.1250076E+03  0.7818608E-02  0.1235057E+00
          4   -1    0    0  501    0  0.00000000000E+00  0.00000000000E+00  0.20925622812E+03  0.20926008197E+03  0.12700000000E+01 0. -1.
         -4   -1    0    0    0  501 -0.00000000000E+00 -0.00000000000E+00 -0.18643960784E+02  0.18687166016E+02  0.12700000000E+01 0. -1.
         25    2    1    2    0    0  0.00000000000E+00  0.00000000000E+00  0.19061226733E+03  0.22794724799E+03  0.12500764539E+03 0.  0.
    9000005    1    3    3    0    0 -0.56020535579E+02  0.93950121926E+01  0.47785282718E+02  0.74236109173E+02  0.10000000000E+01 0.  0.
    9000005    1    3    3    0    0  0.56020535579E+02 -0.93950121926E+01  0.14282698462E+03  0.15371113881E+03  0.10000000000E+01 0.  0.
<mgrwt>
<rscale>  0 0.12500765E+03</rscale>
<asrwt>0</asrwt>
<pdfrwt beam="1">  1        4 0.32196886E-01 0.12500765E+03</pdfrwt>
<pdfrwt beam="2">  1       -4 0.28719216E-02 0.12500765E+03</pdfrwt>
<totfact> 0.85611191E+03</totfact>
</mgrwt>
</event>
<event>
 5    1  0.3304582E-002  0.1249994E+03  0.7818608E-02  0.1235070E+00
          4   -1    0    0  501    0  0.00000000000E+00  0.00000000000E+00  0.46573658459E+03  0.46573831615E+03  0.12700000000E+01 0. -1.
         -4   -1    0    0    0  501 -0.00000000000E+00 -0.00000000000E+00 -0.83373327809E+01  0.84335056708E+01  0.12700000000E+01 0. -1.
         25    2    1    2    0    0  0.00000000000E+00  0.00000000000E+00  0.45739925181E+03  0.47417182182E+03  0.12499936419E+03 0.  0.
    9000005    1    3    3    0    0  0.57934423538E+02 -0.18544671669E+02  0.28300056975E+03  0.28946610295E+03  0.10000000000E+01 0.  0.
    9000005    1    3    3    0    0 -0.57934423538E+02  0.18544671669E+02  0.17439868206E+03  0.18470571886E+03  0.10000000000E+01 0.  0.
<mgrwt>
<rscale>  0 0.12499936E+03</rscale>
<asrwt>0</asrwt>
<pdfrwt beam="1">  1        4 0.71659314E-01 0.12499936E+03</pdfrwt>
<pdfrwt beam="2">  1       -4 0.12901977E-02 0.12499936E+03</pdfrwt>
<totfact> 0.57926331E+03</totfact>
</mgrwt>
</event>
<event>
 5    1  0.3304582E-002  0.1250016E+03  0.7818608E-02  0.1235067E+00
         -4   -1    0    0    0  501 -0.00000000000E+00  0.00000000000E+00  0.81947084706E+02  0.81956925222E+02  0.12700000000E+01 0. -1.
          4   -1    0    0  501    0  0.00000000000E+00 -0.00000000000E+00 -0.47648011038E+02  0.47664933188E+02  0.12700000000E+01 0. -1.
         25    2    1    2    0    0  0.00000000000E+00  0.00000000000E+00  0.34299073669E+02  0.12962185841E+03  0.12500159888E+03 0.  0.
    9000005    1    3    3    0    0  0.49687235358E+02 -0.97005505745E+01 -0.20843863094E+02  0.54757544390E+02  0.10000000000E+01 0.  0.
    9000005    1    3    3    0    0 -0.49687235358E+02  0.97005505745E+01  0.55142936762E+02  0.74864314020E+02  0.10000000000E+01 0.  0.
<mgrwt>
<rscale>  0 0.12500160E+03</rscale>
<asrwt>0</asrwt>
<pdfrwt beam="2">  1        4 0.73325220E-02 0.12500160E+03</pdfrwt>
<pdfrwt beam="1">  1       -4 0.12609302E-01 0.12500160E+03</pdfrwt>
<totfact> 0.10352230E+04</totfact>
</mgrwt>
</event>
<event>
 5    1  0.3304582E-002  0.1250024E+03  0.7818608E-02  0.1235066E+00
         -4   -1    0    0    0  501 -0.00000000000E+00  0.00000000000E+00  0.18618049472E+03  0.18618482622E+03  0.12700000000E+01 0. -1.
          4   -1    0    0  501    0  0.00000000000E+00 -0.00000000000E+00 -0.20957997076E+02  0.20996441161E+02  0.12700000000E+01 0. -1.
         25    2    1    2    0    0  0.00000000000E+00  0.00000000000E+00  0.16522249764E+03  0.20718126738E+03  0.12500241528E+03 0.  0.
    9000005    1    3    3    0    0  0.39655105022E+01 -0.27983562313E+02 -0.97680081837E+01  0.29920210847E+02  0.10000000000E+01 0.  0.
    9000005    1    3    3    0    0 -0.39655105022E+01  0.27983562313E+02  0.17499050583E+03  0.17726105653E+03  0.10000000000E+01 0.  0.
<mgrwt>
<rscale>  0 0.12500242E+03</rscale>
<asrwt>0</asrwt>
<pdfrwt beam="2">  1        4 0.32275977E-02 0.12500242E+03</pdfrwt>
<pdfrwt beam="1">  1       -4 0.28646444E-01 0.12500242E+03</pdfrwt>
<totfact> 0.88933492E+03</totfact>
</mgrwt>
</event>
<event>
 5    1  0.3304582E-002  0.1249911E+03  0.7818608E-02  0.1235083E+00
         -4   -1    0    0    0  501 -0.00000000000E+00  0.00000000000E+00  0.12627497757E+03  0.12628136386E+03  0.12700000000E+01 0. -1.
          4   -1    0    0  501    0  0.00000000000E+00 -0.00000000000E+00 -0.30909857992E+02  0.30935937372E+02  0.12700000000E+01 0. -1.
         25    2    1    2    0    0  0.00000000000E+00  0.00000000000E+00  0.95365119574E+02  0.15721730123E+03  0.12499109479E+03 0.  0.
    9000005    1    3    3    0    0 -0.49242270918E+02 -0.38339380571E+01 -0.46438125931E+00  0.49403602866E+02  0.10000000000E+01 0.  0.
    9000005    1    3    3    0    0  0.49242270918E+02  0.38339380571E+01  0.95829500833E+02  0.10781369837E+03  0.10000000000E+01 0.  0.
<mgrwt>
<rscale>  0 0.12499109E+03</rscale>
<asrwt>0</asrwt>
<pdfrwt beam="2">  1        4 0.47578601E-02 0.12499109E+03</pdfrwt>
<pdfrwt beam="1">  1       -4 0.19429417E-01 0.12499109E+03</pdfrwt>
<totfact> 0.97901566E+03</totfact>
</mgrwt>
</event>
<event>
 5    1  0.3304582E-002  0.1250086E+03  0.7818608E-02  0.1235056E+00
         -4   -1    0    0    0  501 -0.00000000000E+00  0.00000000000E+00  0.95631649150E+02  0.95640081656E+02  0.12700000000E+01 0.  1.
          4   -1    0    0  501    0  0.00000000000E+00 -0.00000000000E+00 -0.40832365221E+02  0.40852110711E+02  0.12700000000E+01 0.  1.
         25    2    1    2    0    0  0.00000000000E+00  0.00000000000E+00  0.54799283929E+02  0.13649219237E+03  0.12500862793E+03 0.  0.
    9000005    1    3    3    0    0 -0.50518970086E+02 -0.17471048707E+01  0.67525696482E+02  0.84356021713E+02  0.10000000000E+01 0.  0.
    9000005    1    3    3    0    0  0.50518970086E+02  0.17471048707E+01 -0.12726412553E+02  0.52136170653E+02  0.10000000000E+01 0.  0.
<mgrwt>
<rscale>  0 0.12500863E+03</rscale>
<asrwt>0</asrwt>
<pdfrwt beam="2">  1        4 0.62840699E-02 0.12500863E+03</pdfrwt>
<pdfrwt beam="1">  1       -4 0.14714729E-01 0.12500863E+03</pdfrwt>
<totfact> 0.10204729E+04</totfact>
</mgrwt>
</event>
<event>
 5    1  0.3304582E-002  0.1250006E+03  0.7818608E-02  0.1235068E+00
          4   -1    0    0  501    0  0.00000000000E+00  0.00000000000E+00  0.63138880075E+01  0.64403479542E+01  0.12700000000E+01 0.  1.
         -4   -1    0    0    0  501 -0.00000000000E+00 -0.00000000000E+00 -0.61242059706E+03  0.61242191389E+03  0.12700000000E+01 0.  1.
         25    2    1    2    0    0  0.00000000000E+00  0.00000000000E+00 -0.60610670906E+03  0.61886226184E+03  0.12500062547E+03 0.  0.
    9000005    1    3    3    0    0 -0.28989708353E+02 -0.27385691306E+02 -0.54125724599E+03  0.54272533165E+03  0.10000000000E+01 0.  0.
    9000005    1    3    3    0    0  0.28989708353E+02  0.27385691306E+02 -0.64849463066E+02  0.76136930189E+02  0.10000000000E+01 0.  0.
<mgrwt>
<rscale>  0 0.12500063E+03</rscale>
<asrwt>0</asrwt>
<pdfrwt beam="1">  1        4 0.98119686E-03 0.12500063E+03</pdfrwt>
<pdfrwt beam="2">  1       -4 0.94228336E-01 0.12500063E+03</pdfrwt>
<totfact> 0.47697577E+03</totfact>
</mgrwt>
</event>
<event>
 5    1  0.3304582E-002  0.1250025E+03  0.7818608E-02  0.1235065E+00
         -4   -1    0    0    0  501 -0.00000000000E+00  0.00000000000E+00  0.85677295228E+02  0.85686707356E+02  0.12700000000E+01 0.  1.
          4   -1    0    0  501    0  0.00000000000E+00 -0.00000000000E+00 -0.45573666098E+02  0.45591358190E+02  0.12700000000E+01 0.  1.
         25    2    1    2    0    0  0.00000000000E+00  0.00000000000E+00  0.40103629130E+02  0.13127806555E+03  0.12500251767E+03 0.  0.
    9000005    1    3    3    0    0 -0.34277930313E+02 -0.52100749196E+02  0.24245110095E+02  0.66920026426E+02  0.10000000000E+01 0.  0.
    9000005    1    3    3    0    0  0.34277930313E+02  0.52100749196E+02  0.15858519034E+02  0.64358039120E+02  0.10000000000E+01 0.  0.
<mgrwt>
<rscale>  0 0.12500252E+03</rscale>
<asrwt>0</asrwt>
<pdfrwt beam="2">  1        4 0.70134183E-02 0.12500252E+03</pdfrwt>
<pdfrwt beam="1">  1       -4 0.13183207E-01 0.12500252E+03</pdfrwt>
<totfact> 0.10316546E+04</totfact>
</mgrwt>
</event>
<event>
 5    1  0.3304582E-002  0.1249987E+03  0.7818608E-02  0.1235071E+00
         -4   -1    0    0    0  501 -0.00000000000E+00  0.00000000000E+00  0.44604045036E+03  0.44604225837E+03  0.12700000000E+01 0.  1.
          4   -1    0    0  501    0  0.00000000000E+00 -0.00000000000E+00 -0.87095573974E+01  0.88016640506E+01  0.12700000000E+01 0.  1.
         25    2    1    2    0    0  0.00000000000E+00  0.00000000000E+00  0.43733089296E+03  0.45484392243E+03  0.12499873531E+03 0.  0.
    9000005    1    3    3    0    0 -0.45042552509E+02  0.26265571207E+02  0.34400356739E+03  0.34793414052E+03  0.10000000000E+01 0.  0.
    9000005    1    3    3    0    0  0.45042552509E+02 -0.26265571207E+02  0.93327325576E+02  0.10690978190E+03  0.10000000000E+01 0.  0.
<mgrwt>
<rscale>  0 0.12499874E+03</rscale>
<asrwt>0</asrwt>
<pdfrwt beam="2">  1        4 0.13471562E-02 0.12499874E+03</pdfrwt>
<pdfrwt beam="1">  1       -4 0.68628826E-01 0.12499874E+03</pdfrwt>
<totfact> 0.59548111E+03</totfact>
</mgrwt>
</event>
<event>
 5    1  0.3304582E-002  0.1250032E+03  0.7818608E-02  0.1235064E+00
          4   -1    0    0  501    0  0.00000000000E+00  0.00000000000E+00  0.13513190336E+03  0.13513787110E+03  0.12700000000E+01 0. -1.
         -4   -1    0    0    0  501 -0.00000000000E+00 -0.00000000000E+00 -0.28887850302E+02  0.28915753406E+02  0.12700000000E+01 0. -1.
         25    2    1    2    0    0  0.00000000000E+00  0.00000000000E+00  0.10624405306E+03  0.16405362450E+03  0.12500317157E+03 0.  0.
    9000005    1    3    3    0    0  0.30627352320E+02 -0.54141122541E+02  0.61013046796E+02  0.87137177711E+02  0.10000000000E+01 0.  0.
    9000005    1    3    3    0    0 -0.30627352320E+02  0.54141122541E+02  0.45231006259E+02  0.76916446793E+02  0.10000000000E+01 0.  0.
<mgrwt>
<rscale>  0 0.12500317E+03</rscale>
<asrwt>0</asrwt>
<pdfrwt beam="1">  1        4 0.20792129E-01 0.12500317E+03</pdfrwt>
<pdfrwt beam="2">  1       -4 0.44468901E-02 0.12500317E+03</pdfrwt>
<totfact> 0.96560040E+03</totfact>
</mgrwt>
</event>
<event>
 5    1  0.3304582E-002  0.1250062E+03  0.7818608E-02  0.1235060E+00
          4   -1    0    0  501    0  0.00000000000E+00  0.00000000000E+00  0.48203457644E+03  0.48203624945E+03  0.12700000000E+01 0. -1.
         -4   -1    0    0    0  501 -0.00000000000E+00 -0.00000000000E+00 -0.80530203795E+01  0.81525478982E+01  0.12700000000E+01 0. -1.
         25    2    1    2    0    0  0.00000000000E+00  0.00000000000E+00  0.47398155606E+03  0.49018879735E+03  0.12500616609E+03 0.  0.
    9000005    1    3    3    0    0  0.60321837595E+02 -0.16130246220E+02  0.24716087514E+03  0.25492823919E+03  0.10000000000E+01 0.  0.
    9000005    1    3    3    0    0 -0.60321837595E+02  0.16130246220E+02  0.22682068092E+03  0.23526055816E+03  0.10000000000E+01 0.  0.
<mgrwt>
<rscale>  0 0.12500617E+03</rscale>
<asrwt>0</asrwt>
<pdfrwt beam="1">  1        4 0.74166971E-01 0.12500617E+03</pdfrwt>
<pdfrwt beam="2">  1       -4 0.12467105E-02 0.12500617E+03</pdfrwt>
<totfact> 0.56626019E+03</totfact>
</mgrwt>
</event>
<event>
 5    1  0.3304582E-002  0.1249988E+03  0.7818608E-02  0.1235071E+00
          4   -1    0    0  501    0  0.00000000000E+00  0.00000000000E+00  0.15548435059E+02  0.15600215793E+02  0.12700000000E+01 0. -1.
         -4   -1    0    0    0  501 -0.00000000000E+00 -0.00000000000E+00 -0.25075524090E+03  0.25075845696E+03  0.12700000000E+01 0. -1.
         25    2    1    2    0    0  0.00000000000E+00  0.00000000000E+00 -0.23520680584E+03  0.26635867276E+03  0.12499880415E+03 0.  0.
    9000005    1    3    3    0    0  0.15233860037E+02 -0.60535390326E+02 -0.11136484828E+03  0.12767040928E+03  0.10000000000E+01 0.  0.
    9000005    1    3    3    0    0 -0.15233860037E+02  0.60535390326E+02 -0.12384195756E+03  0.13868826347E+03  0.10000000000E+01 0.  0.
<mgrwt>
<rscale>  0 0.12499880E+03</rscale>
<asrwt>0</asrwt>
<pdfrwt beam="1">  1        4 0.23962976E-02 0.12499880E+03</pdfrwt>
<pdfrwt beam="2">  1       -4 0.38581957E-01 0.12499880E+03</pdfrwt>
<totfact> 0.80024041E+03</totfact>
</mgrwt>
</event>
<event>
 4    1  0.3304582E-002  0.1257964E+03  0.7818608E-02  0.1233830E+00
         -4   -1    0    0    0  501 -0.00000000000E+00  0.00000000000E+00  0.40071891474E+02  0.40092011502E+02  0.12700000000E+01 0.  1.
          4   -1    0    0  501    0  0.00000000000E+00 -0.00000000000E+00 -0.98678119085E+02  0.98686291278E+02  0.12700000000E+01 0.  1.
    9000005    1    1    2    0    0 -0.53602712241E+02 -0.22836377859E+02 -0.55419585524E+02  0.80418165690E+02  0.10000000000E+01 0.  0.
    9000005    1    1    2    0    0  0.53602712241E+02  0.22836377859E+02 -0.31866420865E+01  0.58360137090E+02  0.10000000000E+01 0.  0.
<mgrwt>
<rscale>  0 0.12579637E+03</rscale>
<asrwt>0</asrwt>
<pdfrwt beam="2">  1        4 0.15183425E-01 0.12579637E+03</pdfrwt>
<pdfrwt beam="1">  1       -4 0.61670827E-02 0.12579637E+03</pdfrwt>
<totfact> 0.99787842E+03</totfact>
</mgrwt>
</event>
<event>
 5    1  0.3304582E-002  0.1249964E+03  0.7818608E-02  0.1235075E+00
          4   -1    0    0  501    0  0.00000000000E+00  0.00000000000E+00  0.26301950757E+02  0.26332594130E+02  0.12700000000E+01 0. -1.
         -4   -1    0    0    0  501 -0.00000000000E+00 -0.00000000000E+00 -0.14838725064E+03  0.14839268530E+03  0.12700000000E+01 0. -1.
         25    2    1    2    0    0  0.00000000000E+00  0.00000000000E+00 -0.12208529988E+03  0.17472527943E+03  0.12499641125E+03 0.  0.
    9000005    1    3    3    0    0 -0.16657882419E+02  0.46524018197E+02 -0.11451000886E+03  0.12472173606E+03  0.10000000000E+01 0.  0.
    9000005    1    3    3    0    0  0.16657882419E+02 -0.46524018197E+02 -0.75752910161E+01  0.50003543373E+02  0.10000000000E+01 0.  0.
<mgrwt>
<rscale>  0 0.12499641E+03</rscale>
<asrwt>0</asrwt>
<pdfrwt beam="1">  1        4 0.40492293E-02 0.12499641E+03</pdfrwt>
<pdfrwt beam="2">  1       -4 0.22831583E-01 0.12499641E+03</pdfrwt>
<totfact> 0.94582794E+03</totfact>
</mgrwt>
</event>
<event>
 5    1  0.3304582E-002  0.1250025E+03  0.7818608E-02  0.1235065E+00
          4   -1    0    0  501    0  0.00000000000E+00  0.00000000000E+00  0.91626058413E+03  0.91626146428E+03  0.12700000000E+01 0.  1.
         -4   -1    0    0    0  501 -0.00000000000E+00 -0.00000000000E+00 -0.41679453215E+01  0.43571399109E+01  0.12700000000E+01 0.  1.
         25    2    1    2    0    0  0.00000000000E+00  0.00000000000E+00  0.91209263880E+03  0.92061860419E+03  0.12500253045E+03 0.  0.
    9000005    1    3    3    0    0  0.48795765156E+02 -0.23505004205E+02  0.68564579525E+03  0.68778242814E+03  0.10000000000E+01 0.  0.
    9000005    1    3    3    0    0 -0.48795765156E+02  0.23505004205E+02  0.22644684356E+03  0.23283617605E+03  0.10000000000E+01 0.  0.
<mgrwt>
<rscale>  0 0.12500253E+03</rscale>
<asrwt>0</asrwt>
<pdfrwt beam="1">  1        4 0.14097799E+00 0.12500253E+03</pdfrwt>
<pdfrwt beam="2">  1       -4 0.65584253E-03 0.12500253E+03</pdfrwt>
<totfact> 0.33380712E+03</totfact>
</mgrwt>
</event>
<event>
 5    1  0.3304582E-002  0.1250002E+03  0.7818608E-02  0.1235069E+00
         -4   -1    0    0    0  501 -0.00000000000E+00  0.00000000000E+00  0.26860794810E+03  0.26861095041E+03  0.12700000000E+01 0. -1.
          4   -1    0    0  501    0  0.00000000000E+00 -0.00000000000E+00 -0.14511797256E+02  0.14567263284E+02  0.12700000000E+01 0. -1.
         25    2    1    2    0    0  0.00000000000E+00  0.00000000000E+00  0.25409615084E+03  0.28317821370E+03  0.12500018736E+03 0.  0.
    9000005    1    3    3    0    0 -0.16697637724E+02 -0.55660646803E+02  0.17912042254E+03  0.18831368638E+03  0.10000000000E+01 0.  0.
    9000005    1    3    3    0    0  0.16697637724E+02  0.55660646803E+02  0.74975728304E+02  0.94864527316E+02  0.10000000000E+01 0.  0.
<mgrwt>
<rscale>  0 0.12500019E+03</rscale>
<asrwt>0</asrwt>
<pdfrwt beam="2">  1        4 0.22370817E-02 0.12500019E+03</pdfrwt>
<pdfrwt beam="1">  1       -4 0.41328798E-01 0.12500019E+03</pdfrwt>
<totfact> 0.77758250E+03</totfact>
</mgrwt>
</event>
<event>
 5    1  0.3304582E-002  0.1250008E+03  0.7818608E-02  0.1235068E+00
          4   -1    0    0  501    0  0.00000000000E+00  0.00000000000E+00  0.14753437705E+03  0.14753984313E+03  0.12700000000E+01 0.  1.
         -4   -1    0    0    0  501 -0.00000000000E+00 -0.00000000000E+00 -0.26456023212E+02  0.26486488333E+02  0.12700000000E+01 0.  1.
         25    2    1    2    0    0  0.00000000000E+00  0.00000000000E+00  0.12107835383E+03  0.17402633146E+03  0.12500078510E+03 0.  0.
    9000005    1    3    3    0    0 -0.52862033302E+02  0.31065528212E+02  0.43726503708E+02  0.75315793393E+02  0.10000000000E+01 0.  0.
    9000005    1    3    3    0    0  0.52862033302E+02 -0.31065528212E+02  0.77351850125E+02  0.98710538068E+02  0.10000000000E+01 0.  0.
<mgrwt>
<rscale>  0 0.12500079E+03</rscale>
<asrwt>0</asrwt>
<pdfrwt beam="1">  1        4 0.22700360E-01 0.12500079E+03</pdfrwt>
<pdfrwt beam="2">  1       -4 0.40729214E-02 0.12500079E+03</pdfrwt>
<totfact> 0.94701801E+03</totfact>
</mgrwt>
</event>
<event>
 5    1  0.3304582E-002  0.1250014E+03  0.7818608E-02  0.1235067E+00
          4   -1    0    0  501    0  0.00000000000E+00  0.00000000000E+00  0.10323414877E+02  0.10401240057E+02  0.12700000000E+01 0.  1.
         -4   -1    0    0    0  501 -0.00000000000E+00 -0.00000000000E+00 -0.37689625653E+03  0.37689839624E+03  0.12700000000E+01 0.  1.
         25    2    1    2    0    0  0.00000000000E+00  0.00000000000E+00 -0.36657284166E+03  0.38729963630E+03  0.12500144014E+03 0.  0.
    9000005    1    3    3    0    0 -0.34165014088E+02  0.38526075590E+01 -0.21599173311E+02  0.40615453467E+02  0.10000000000E+01 0.  0.
    9000005    1    3    3    0    0  0.34165014088E+02 -0.38526075590E+01 -0.34497366835E+03  0.34668418283E+03  0.10000000000E+01 0.  0.
<mgrwt>
<rscale>  0 0.12500144E+03</rscale>
<asrwt>0</asrwt>
<pdfrwt beam="1">  1        4 0.15943691E-02 0.12500144E+03</pdfrwt>
<pdfrwt beam="2">  1       -4 0.57990180E-01 0.12500144E+03</pdfrwt>
<totfact> 0.65804954E+03</totfact>
</mgrwt>
</event>
<event>
 5    1  0.3304582E-002  0.1250048E+03  0.7818608E-02  0.1235062E+00
         -4   -1    0    0    0  501 -0.00000000000E+00  0.00000000000E+00  0.11610865398E+03  0.11611559942E+03  0.12700000000E+01 0. -1.
          4   -1    0    0  501    0  0.00000000000E+00 -0.00000000000E+00 -0.33625680413E+02  0.33649655024E+02  0.12700000000E+01 0. -1.
         25    2    1    2    0    0  0.00000000000E+00  0.00000000000E+00  0.82482973567E+02  0.14976525445E+03  0.12500476195E+03 0.  0.
    9000005    1    3    3    0    0 -0.50139408780E+02 -0.27575728457E+02  0.11142180487E+02  0.58305482579E+02  0.10000000000E+01 0.  0.
    9000005    1    3    3    0    0  0.50139408780E+02  0.27575728457E+02  0.71340793079E+02  0.91459771867E+02  0.10000000000E+01 0.  0.
<mgrwt>
<rscale>  0 0.12500476E+03</rscale>
<asrwt>0</asrwt>
<pdfrwt beam="2">  1        4 0.51755601E-02 0.12500476E+03</pdfrwt>
<pdfrwt beam="1">  1       -4 0.17865248E-01 0.12500476E+03</pdfrwt>
<totfact> 0.99339864E+03</totfact>
</mgrwt>
</event>
<event>
 4    1  0.3304582E-002  0.1252518E+03  0.7818608E-02  0.1234676E+00
          4   -1    0    0  501    0  0.00000000000E+00  0.00000000000E+00  0.22764557123E+02  0.22799955285E+02  0.12700000000E+01 0.  1.
         -4   -1    0    0    0  501 -0.00000000000E+00 -0.00000000000E+00 -0.17211384437E+03  0.17211852987E+03  0.12700000000E+01 0.  1.
    9000005    1    1    2    0    0 -0.51452647565E+02  0.25619329565E+02 -0.36010441845E+02  0.67834186887E+02  0.10000000000E+01 0.  0.
    9000005    1    1    2    0    0  0.51452647565E+02 -0.25619329565E+02 -0.11333884541E+03  0.12708429827E+03  0.10000000000E+01 0.  0.
<mgrwt>
<rscale>  0 0.12525177E+03</rscale>
<asrwt>0</asrwt>
<pdfrwt beam="1">  1        4 0.35053230E-02 0.12525177E+03</pdfrwt>
<pdfrwt beam="2">  1       -4 0.26482135E-01 0.12525177E+03</pdfrwt>
<totfact> 0.90487428E+03</totfact>
</mgrwt>
</event>
<event>
 5    1  0.3304582E-002  0.1249983E+03  0.7818608E-02  0.1235072E+00
          4   -1    0    0  501    0  0.00000000000E+00  0.00000000000E+00  0.15490667191E+03  0.15491187786E+03  0.12700000000E+01 0.  1.
         -4   -1    0    0    0  501 -0.00000000000E+00 -0.00000000000E+00 -0.25194467706E+02  0.25226456410E+02  0.12700000000E+01 0.  1.
         25    2    1    2    0    0  0.00000000000E+00  0.00000000000E+00  0.12971220421E+03  0.18013833427E+03  0.12499825421E+03 0.  0.
    9000005    1    3    3    0    0  0.29325842621E+02 -0.55067227409E+02  0.59713013754E+02  0.86365783685E+02  0.10000000000E+01 0.  0.
    9000005    1    3    3    0    0 -0.29325842621E+02  0.55067227409E+02  0.69999190454E+02  0.93772550590E+02  0.10000000000E+01 0.  0.
<mgrwt>
<rscale>  0 0.12499825E+03</rscale>
<asrwt>0</asrwt>
<pdfrwt beam="1">  1        4 0.23834656E-01 0.12499825E+03</pdfrwt>
<pdfrwt beam="2">  1       -4 0.38789331E-02 0.12499825E+03</pdfrwt>
<totfact> 0.93595772E+03</totfact>
</mgrwt>
</event>
<event>
 5    1  0.3304582E-002  0.1250008E+03  0.7818608E-02  0.1235068E+00
         -4   -1    0    0    0  501 -0.00000000000E+00  0.00000000000E+00  0.13689376794E+02  0.13748161223E+02  0.12700000000E+01 0.  1.
          4   -1    0    0  501    0  0.00000000000E+00 -0.00000000000E+00 -0.28468095048E+03  0.28468378328E+03  0.12700000000E+01 0.  1.
         25    2    1    2    0    0  0.00000000000E+00  0.00000000000E+00 -0.27099157368E+03  0.29843194451E+03  0.12500076998E+03 0.  0.
    9000005    1    3    3    0    0  0.16625097117E+02  0.59377794827E+02 -0.15974703342E+03  0.17123735299E+03  0.10000000000E+01 0.  0.
    9000005    1    3    3    0    0 -0.16625097117E+02 -0.59377794827E+02 -0.11124454026E+03  0.12719459151E+03  0.10000000000E+01 0.  0.
<mgrwt>
<rscale>  0 0.12500077E+03</rscale>
<asrwt>0</asrwt>
<pdfrwt beam="2">  1        4 0.43801805E-01 0.12500077E+03</pdfrwt>
<pdfrwt beam="1">  1       -4 0.21107980E-02 0.12500077E+03</pdfrwt>
<totfact> 0.75794661E+03</totfact>
</mgrwt>
</event>
<event>
 5    1  0.3304582E-002  0.1250002E+03  0.7818608E-02  0.1235069E+00
         -4   -1    0    0    0  501 -0.00000000000E+00  0.00000000000E+00  0.53509186863E+02  0.53524255985E+02  0.12700000000E+01 0.  1.
          4   -1    0    0  501    0  0.00000000000E+00 -0.00000000000E+00 -0.72970881254E+02  0.72981932086E+02  0.12700000000E+01 0.  1.
         25    2    1    2    0    0  0.00000000000E+00  0.00000000000E+00 -0.19461694391E+02  0.12650618807E+03  0.12500023229E+03 0.  0.
    9000005    1    3    3    0    0  0.40699749943E+02  0.47247999710E+02 -0.13832000313E+02  0.63884014861E+02  0.10000000000E+01 0.  0.
    9000005    1    3    3    0    0 -0.40699749943E+02 -0.47247999710E+02 -0.56296940774E+01  0.62622173209E+02  0.10000000000E+01 0.  0.
<mgrwt>
<rscale>  0 0.12500023E+03</rscale>
<asrwt>0</asrwt>
<pdfrwt beam="2">  1        4 0.11228299E-01 0.12500023E+03</pdfrwt>
<pdfrwt beam="1">  1       -4 0.82341918E-02 0.12500023E+03</pdfrwt>
<totfact> 0.10419838E+04</totfact>
</mgrwt>
</event>
<event>
 5    1  0.3304582E-002  0.1250001E+03  0.7818608E-02  0.1235069E+00
          4   -1    0    0  501    0  0.00000000000E+00  0.00000000000E+00  0.59856629651E+02  0.59870101163E+02  0.12700000000E+01 0.  1.
         -4   -1    0    0    0  501 -0.00000000000E+00 -0.00000000000E+00 -0.65233201544E+02  0.65245562942E+02  0.12700000000E+01 0.  1.
         25    2    1    2    0    0  0.00000000000E+00  0.00000000000E+00 -0.53765718923E+01  0.12511566410E+03  0.12500008752E+03 0.  0.
    9000005    1    3    3    0    0 -0.36735463175E+02  0.49439560747E+02  0.78804091238E+01  0.62103665508E+02  0.10000000000E+01 0.  0.
    9000005    1    3    3    0    0  0.36735463175E+02 -0.49439560747E+02 -0.13256981016E+02  0.63011998597E+02  0.10000000000E+01 0.  0.
<mgrwt>
<rscale>  0 0.12500009E+03</rscale>
<asrwt>0</asrwt>
<pdfrwt beam="1">  1        4 0.92106994E-02 0.12500009E+03</pdfrwt>
<pdfrwt beam="2">  1       -4 0.10037864E-01 0.12500009E+03</pdfrwt>
<totfact> 0.10450330E+04</totfact>
</mgrwt>
</event>
<event>
 5    1  0.3304582E-002  0.1250100E+03  0.7818608E-02  0.1235054E+00
         -4   -1    0    0    0  501 -0.00000000000E+00  0.00000000000E+00  0.75543325826E+01  0.76603420791E+01  0.12700000000E+01 0. -1.
          4   -1    0    0  501    0  0.00000000000E+00 -0.00000000000E+00 -0.51345958545E+03  0.51346115607E+03  0.12700000000E+01 0. -1.
         25    2    1    2    0    0  0.00000000000E+00  0.00000000000E+00 -0.50590525287E+03  0.52112149815E+03  0.12500996341E+03 0.  0.
    9000005    1    3    3    0    0  0.37675900584E+02 -0.22709941254E+02 -0.67897989229E+02  0.80909528845E+02  0.10000000000E+01 0.  0.
    9000005    1    3    3    0    0 -0.37675900584E+02  0.22709941254E+02 -0.43800726364E+03  0.44021196930E+03  0.10000000000E+01 0.  0.
<mgrwt>
<rscale>  0 0.12500996E+03</rscale>
<asrwt>0</asrwt>
<pdfrwt beam="2">  1        4 0.79002031E-01 0.12500996E+03</pdfrwt>
<pdfrwt beam="1">  1       -4 0.11704808E-02 0.12500996E+03</pdfrwt>
<totfact> 0.54250180E+03</totfact>
</mgrwt>
</event>
<event>
 5    1  0.3304582E-002  0.1249688E+03  0.7818608E-02  0.1235118E+00
          4   -1    0    0  501    0  0.00000000000E+00  0.00000000000E+00  0.82913850288E+02  0.82923576078E+02  0.12700000000E+01 0. -1.
         -4   -1    0    0    0  501 -0.00000000000E+00 -0.00000000000E+00 -0.47067558920E+02  0.47084689684E+02  0.12700000000E+01 0. -1.
         25    2    1    2    0    0  0.00000000000E+00  0.00000000000E+00  0.35846291368E+02  0.13000826576E+03  0.12496876634E+03 0.  0.
    9000005    1    3    3    0    0  0.21465125941E+02  0.33968936069E+01 -0.43013749690E+02  0.48202418822E+02  0.10000000000E+01 0.  0.
    9000005    1    3    3    0    0 -0.21465125941E+02 -0.33968936069E+01  0.78860041059E+02  0.81805846940E+02  0.10000000000E+01 0.  0.
<mgrwt>
<rscale>  0 0.12496877E+03</rscale>
<asrwt>0</asrwt>
<pdfrwt beam="1">  1        4 0.12758043E-01 0.12496877E+03</pdfrwt>
<pdfrwt beam="2">  1       -4 0.72432289E-02 0.12496877E+03</pdfrwt>
<totfact> 0.10351627E+04</totfact>
</mgrwt>
</event>
<event>
 5    1  0.3304582E-002  0.1250027E+03  0.7818608E-02  0.1235065E+00
          4   -1    0    0  501    0  0.00000000000E+00  0.00000000000E+00  0.16207794855E+03  0.16208292416E+03  0.12700000000E+01 0.  1.
         -4   -1    0    0    0  501 -0.00000000000E+00 -0.00000000000E+00 -0.24080022609E+02  0.24113489769E+02  0.12700000000E+01 0.  1.
         25    2    1    2    0    0  0.00000000000E+00  0.00000000000E+00  0.13799792594E+03  0.18619641393E+03  0.12500270796E+03 0.  0.
    9000005    1    3    3    0    0  0.29527311908E+02  0.51025759565E+02  0.38113775481E+02  0.70207906742E+02  0.10000000000E+01 0.  0.
    9000005    1    3    3    0    0 -0.29527311908E+02 -0.51025759565E+02  0.99884150456E+02  0.11598850719E+03  0.10000000000E+01 0.  0.
<mgrwt>
<rscale>  0 0.12500271E+03</rscale>
<asrwt>0</asrwt>
<pdfrwt beam="1">  1        4 0.24938026E-01 0.12500271E+03</pdfrwt>
<pdfrwt beam="2">  1       -4 0.37075761E-02 0.12500271E+03</pdfrwt>
<totfact> 0.92507757E+03</totfact>
</mgrwt>
</event>
<event>
 5    1  0.3304582E-002  0.1249763E+03  0.7818608E-02  0.1235106E+00
         -4   -1    0    0    0  501 -0.00000000000E+00  0.00000000000E+00  0.19632970957E+03  0.19633381716E+03  0.12700000000E+01 0.  1.
          4   -1    0    0  501    0  0.00000000000E+00 -0.00000000000E+00 -0.19864250231E+02  0.19904806888E+02  0.12700000000E+01 0.  1.
         25    2    1    2    0    0  0.00000000000E+00  0.00000000000E+00  0.17646545934E+03  0.21623862405E+03  0.12497633452E+03 0.  0.
    9000005    1    3    3    0    0 -0.12482883147E+02 -0.45245776071E+02  0.15958833231E+03  0.16635034846E+03  0.10000000000E+01 0.  0.
    9000005    1    3    3    0    0  0.12482883147E+02  0.45245776071E+02  0.16877127026E+02  0.49888275582E+02  0.10000000000E+01 0.  0.
<mgrwt>
<rscale>  0 0.12497633E+03</rscale>
<asrwt>0</asrwt>
<pdfrwt beam="2">  1        4 0.30594742E-02 0.12497633E+03</pdfrwt>
<pdfrwt beam="1">  1       -4 0.30208006E-01 0.12497633E+03</pdfrwt>
<totfact> 0.87513327E+03</totfact>
</mgrwt>
</event>
<event>
 5    1  0.3304582E-002  0.1249986E+03  0.7818608E-02  0.1235072E+00
          4   -1    0    0  501    0  0.00000000000E+00  0.00000000000E+00  0.26954091251E+03  0.26954390443E+03  0.12700000000E+01 0. -1.
         -4   -1    0    0    0  501 -0.00000000000E+00 -0.00000000000E+00 -0.14460999094E+02  0.14516659216E+02  0.12700000000E+01 0. -1.
         25    2    1    2    0    0  0.00000000000E+00  0.00000000000E+00  0.25507991342E+03  0.28406056365E+03  0.12499856636E+03 0.  0.
    9000005    1    3    3    0    0  0.87228551959E+01  0.34603293709E+02  0.10960291462E+02  0.37344398874E+02  0.10000000000E+01 0.  0.
    9000005    1    3    3    0    0 -0.87228551959E+01 -0.34603293709E+02  0.24411962195E+03  0.24671616478E+03  0.10000000000E+01 0.  0.
<mgrwt>
<rscale>  0 0.12499857E+03</rscale>
<asrwt>0</asrwt>
<pdfrwt beam="1">  1        4 0.41472344E-01 0.12499857E+03</pdfrwt>
<pdfrwt beam="2">  1       -4 0.22292808E-02 0.12499857E+03</pdfrwt>
<totfact> 0.77645239E+03</totfact>
</mgrwt>
</event>
<event>
 5    1  0.3304582E-002  0.1250225E+03  0.7818608E-02  0.1235034E+00
         -4   -1    0    0    0  501 -0.00000000000E+00  0.00000000000E+00  0.13519576206E+03  0.13520172698E+03  0.12700000000E+01 0. -1.
          4   -1    0    0  501    0  0.00000000000E+00 -0.00000000000E+00 -0.28883152864E+02  0.28911060502E+02  0.12700000000E+01 0. -1.
         25    2    1    2    0    0  0.00000000000E+00  0.00000000000E+00  0.10631260920E+03  0.16411278749E+03  0.12502254254E+03 0.  0.
    9000005    1    3    3    0    0  0.27725366030E+02  0.14697416012E+02 -0.17799906449E+02  0.36090810860E+02  0.10000000000E+01 0.  0.
    9000005    1    3    3    0    0 -0.27725366030E+02 -0.14697416012E+02  0.12411251565E+03  0.12802197663E+03  0.10000000000E+01 0.  0.
<mgrwt>
<rscale>  0 0.12502254E+03</rscale>
<asrwt>0</asrwt>
<pdfrwt beam="2">  1        4 0.44461675E-02 0.12502254E+03</pdfrwt>
<pdfrwt beam="1">  1       -4 0.20801954E-01 0.12502254E+03</pdfrwt>
<totfact> 0.96506794E+03</totfact>
</mgrwt>
</event>
<event>
 5    1  0.3304582E-002  0.1250042E+03  0.7818608E-02  0.1235063E+00
         -4   -1    0    0    0  501 -0.00000000000E+00  0.00000000000E+00  0.86118000546E+02  0.86127364514E+02  0.12700000000E+01 0.  1.
          4   -1    0    0  501    0  0.00000000000E+00 -0.00000000000E+00 -0.45341622176E+02  0.45359404775E+02  0.12700000000E+01 0.  1.
         25    2    1    2    0    0  0.00000000000E+00  0.00000000000E+00  0.40776378371E+02  0.13148676929E+03  0.12500422979E+03 0.  0.
    9000005    1    3    3    0    0 -0.41166977728E+02  0.23410310066E+02 -0.22503292135E+02  0.52441975836E+02  0.10000000000E+01 0.  0.
    9000005    1    3    3    0    0  0.41166977728E+02 -0.23410310066E+02  0.63279670505E+02  0.79044793453E+02  0.10000000000E+01 0.  0.
<mgrwt>
<rscale>  0 0.12500423E+03</rscale>
<asrwt>0</asrwt>
<pdfrwt beam="2">  1        4 0.69777225E-02 0.12500423E+03</pdfrwt>
<pdfrwt beam="1">  1       -4 0.13251011E-01 0.12500423E+03</pdfrwt>
<totfact> 0.10311681E+04</totfact>
</mgrwt>
</event>
<event>
 5    1  0.3304582E-002  0.1250019E+03  0.7818608E-02  0.1235066E+00
          4   -1    0    0  501    0  0.00000000000E+00  0.00000000000E+00  0.68282760788E+03  0.68282878892E+03  0.12700000000E+01 0. -1.
         -4   -1    0    0    0  501 -0.00000000000E+00 -0.00000000000E+00 -0.56491837462E+01  0.57901793581E+01  0.12700000000E+01 0. -1.
         25    2    1    2    0    0  0.00000000000E+00  0.00000000000E+00  0.67717842413E+03  0.68861896828E+03  0.12500186145E+03 0.  0.
    9000005    1    3    3    0    0 -0.30892246461E+02  0.53901317748E+02  0.37582338283E+03  0.38092505566E+03  0.10000000000E+01 0.  0.
    9000005    1    3    3    0    0  0.30892246461E+02 -0.53901317748E+02  0.30135504130E+03  0.30769391262E+03  0.10000000000E+01 0.  0.
<mgrwt>
<rscale>  0 0.12500186E+03</rscale>
<asrwt>0</asrwt>
<pdfrwt beam="1">  1        4 0.10506131E+00 0.12500186E+03</pdfrwt>
<pdfrwt beam="2">  1       -4 0.88004207E-03 0.12500186E+03</pdfrwt>
<totfact> 0.43692557E+03</totfact>
</mgrwt>
</event>
<event>
 5    1  0.3304582E-002  0.1249994E+03  0.7818608E-02  0.1235070E+00
          4   -1    0    0  501    0  0.00000000000E+00  0.00000000000E+00  0.23274585605E+02  0.23309209233E+02  0.12700000000E+01 0.  1.
         -4   -1    0    0    0  501 -0.00000000000E+00 -0.00000000000E+00 -0.16766995419E+03  0.16767476386E+03  0.12700000000E+01 0.  1.
         25    2    1    2    0    0  0.00000000000E+00  0.00000000000E+00 -0.14439536858E+03  0.19098397310E+03  0.12499942205E+03 0.  0.
    9000005    1    3    3    0    0  0.21630743455E+02 -0.55109056637E+02 -0.10276735556E+03  0.11860449635E+03  0.10000000000E+01 0.  0.
    9000005    1    3    3    0    0 -0.21630743455E+02  0.55109056637E+02 -0.41628013019E+02  0.72379476744E+02  0.10000000000E+01 0.  0.
<mgrwt>
<rscale>  0 0.12499942E+03</rscale>
<asrwt>0</asrwt>
<pdfrwt beam="1">  1        4 0.35837389E-02 0.12499942E+03</pdfrwt>
<pdfrwt beam="2">  1       -4 0.25798410E-01 0.12499942E+03</pdfrwt>
<totfact> 0.91677575E+03</totfact>
</mgrwt>
</event>
<event>
 5    1  0.3304582E-002  0.1250024E+03  0.7818608E-02  0.1235065E+00
         -4   -1    0    0    0  501 -0.00000000000E+00  0.00000000000E+00  0.66850599450E+02  0.66862661829E+02  0.12700000000E+01 0.  1.
          4   -1    0    0  501    0  0.00000000000E+00 -0.00000000000E+00 -0.58410573292E+02  0.58424378236E+02  0.12700000000E+01 0.  1.
         25    2    1    2    0    0  0.00000000000E+00  0.00000000000E+00  0.84400261585E+01  0.12528704006E+03  0.12500243344E+03 0.  0.
    9000005    1    3    3    0    0 -0.34538811113E+02 -0.62486031391E+01 -0.47602908511E+02  0.59152442155E+02  0.10000000000E+01 0.  0.
    9000005    1    3    3    0    0  0.34538811113E+02  0.62486031391E+01  0.56042934669E+02  0.66134597909E+02  0.10000000000E+01 0.  0.
<mgrwt>
<rscale>  0 0.12500243E+03</rscale>
<asrwt>0</asrwt>
<pdfrwt beam="2">  1        4 0.89882319E-02 0.12500243E+03</pdfrwt>
<pdfrwt beam="1">  1       -4 0.10286697E-01 0.12500243E+03</pdfrwt>
<totfact> 0.10446057E+04</totfact>
</mgrwt>
</event>
<event>
 5    1  0.3304582E-002  0.1250047E+03  0.7818608E-02  0.1235062E+00
          4   -1    0    0  501    0  0.00000000000E+00  0.00000000000E+00  0.13721675079E+02  0.13780321730E+02  0.12700000000E+01 0.  1.
         -4   -1    0    0    0  501 -0.00000000000E+00 -0.00000000000E+00 -0.28403143612E+03  0.28403427540E+03  0.12700000000E+01 0.  1.
         25    2    1    2    0    0  0.00000000000E+00  0.00000000000E+00 -0.27030976104E+03  0.29781459713E+03  0.12500466932E+03 0.  0.
    9000005    1    3    3    0    0 -0.55544538501E+02 -0.27298488436E+02 -0.11450339377E+03  0.13016309159E+03  0.10000000000E+01 0.  0.
    9000005    1    3    3    0    0  0.55544538501E+02  0.27298488436E+02 -0.15580636727E+03  0.16765150554E+03  0.10000000000E+01 0.  0.
<mgrwt>
<rscale>  0 0.12500467E+03</rscale>
<asrwt>0</asrwt>
<pdfrwt beam="1">  1        4 0.21157568E-02 0.12500467E+03</pdfrwt>
<pdfrwt beam="2">  1       -4 0.43701869E-01 0.12500467E+03</pdfrwt>
<totfact> 0.75865928E+03</totfact>
</mgrwt>
</event>
<event>
 5    1  0.3304582E-002  0.1250022E+03  0.7818608E-02  0.1235066E+00
          4   -1    0    0  501    0  0.00000000000E+00  0.00000000000E+00  0.92857213676E+02  0.92865898109E+02  0.12700000000E+01 0.  1.
         -4   -1    0    0    0  501 -0.00000000000E+00 -0.00000000000E+00 -0.42048537528E+02  0.42067712183E+02  0.12700000000E+01 0.  1.
         25    2    1    2    0    0  0.00000000000E+00  0.00000000000E+00  0.50808676147E+02  0.13493361029E+03  0.12500223044E+03 0.  0.
    9000005    1    3    3    0    0 -0.11009310431E+02 -0.54872248681E+02  0.55420429932E+02  0.78769236669E+02  0.10000000000E+01 0.  0.
    9000005    1    3    3    0    0  0.11009310431E+02  0.54872248681E+02 -0.46117537849E+01  0.56164373623E+02  0.10000000000E+01 0.  0.
<mgrwt>
<rscale>  0 0.12500223E+03</rscale>
<asrwt>0</asrwt>
<pdfrwt beam="1">  1        4 0.14287868E-01 0.12500223E+03</pdfrwt>
<pdfrwt beam="2">  1       -4 0.64711489E-02 0.12500223E+03</pdfrwt>
<totfact> 0.10238955E+04</totfact>
</mgrwt>
</event>
<event>
 5    1  0.3304582E-002  0.1250041E+03  0.7818608E-02  0.1235063E+00
          4   -1    0    0  501    0  0.00000000000E+00  0.00000000000E+00  0.12655183126E+04  0.12655189498E+04  0.12700000000E+01 0. -1.
         -4   -1    0    0    0  501 -0.00000000000E+00 -0.00000000000E+00 -0.29555930257E+01  0.32168975945E+01  0.12700000000E+01 0. -1.
         25    2    1    2    0    0  0.00000000000E+00  0.00000000000E+00  0.12625627195E+04  0.12687358474E+04  0.12500411884E+03 0.  0.
    9000005    1    3    3    0    0 -0.58371155153E+02  0.22245373673E+02  0.65015796710E+03  0.65315268551E+03  0.10000000000E+01 0.  0.
    9000005    1    3    3    0    0  0.58371155153E+02 -0.22245373673E+02  0.61240475243E+03  0.61558316189E+03  0.10000000000E+01 0.  0.
<mgrwt>
<rscale>  0 0.12500412E+03</rscale>
<asrwt>0</asrwt>
<pdfrwt beam="1">  1        4 0.19471507E+00 0.12500412E+03</pdfrwt>
<pdfrwt beam="2">  1       -4 0.47485648E-03 0.12500412E+03</pdfrwt>
<totfact> 0.22976610E+03</totfact>
</mgrwt>
</event>
<event>
 5    1  0.3304582E-002  0.1250007E+03  0.7818608E-02  0.1235068E+00
         -4   -1    0    0    0  501 -0.00000000000E+00  0.00000000000E+00  0.38921041990E+01  0.40940658392E+01  0.12700000000E+01 0. -1.
          4   -1    0    0  501    0  0.00000000000E+00 -0.00000000000E+00 -0.97806264324E+03  0.97806346778E+03  0.12700000000E+01 0. -1.
         25    2    1    2    0    0  0.00000000000E+00  0.00000000000E+00 -0.97417053904E+03  0.98215753362E+03  0.12500072682E+03 0.  0.
    9000005    1    3    3    0    0  0.40679238308E+02  0.30388428065E+02 -0.77331211555E+03  0.77497799004E+03  0.10000000000E+01 0.  0.
    9000005    1    3    3    0    0 -0.40679238308E+02 -0.30388428065E+02 -0.20085842349E+03  0.20717954358E+03  0.10000000000E+01 0.  0.
<mgrwt>
<rscale>  0 0.12500073E+03</rscale>
<asrwt>0</asrwt>
<pdfrwt beam="2">  1        4 0.15048658E+00 0.12500073E+03</pdfrwt>
<pdfrwt beam="1">  1       -4 0.61438498E-03 0.12500073E+03</pdfrwt>
<totfact> 0.31200595E+03</totfact>
</mgrwt>
</event>
<event>
 5    1  0.3304582E-002  0.1250039E+03  0.7818608E-02  0.1235063E+00
          4   -1    0    0  501    0  0.00000000000E+00  0.00000000000E+00  0.87710918246E+01  0.88625589868E+01  0.12700000000E+01 0. -1.
         -4   -1    0    0    0  501 -0.00000000000E+00 -0.00000000000E+00 -0.44298035443E+03  0.44298217494E+03  0.12700000000E+01 0. -1.
         25    2    1    2    0    0  0.00000000000E+00  0.00000000000E+00 -0.43420926261E+03  0.45184473393E+03  0.12500391930E+03 0.  0.
    9000005    1    3    3    0    0  0.17828000563E+02 -0.45708799133E+02 -0.77186459841E+02  0.91465192861E+02  0.10000000000E+01 0.  0.
    9000005    1    3    3    0    0 -0.17828000563E+02  0.45708799133E+02 -0.35702280277E+03  0.36037954106E+03  0.10000000000E+01 0.  0.
<mgrwt>
<rscale>  0 0.12500392E+03</rscale>
<asrwt>0</asrwt>
<pdfrwt beam="1">  1        4 0.13565751E-02 0.12500392E+03</pdfrwt>
<pdfrwt beam="2">  1       -4 0.68157982E-01 0.12500392E+03</pdfrwt>
<totfact> 0.59799163E+03</totfact>
</mgrwt>
</event>
<event>
 5    1  0.3304582E-002  0.1250033E+03  0.7818608E-02  0.1235064E+00
          4   -1    0    0  501    0  0.00000000000E+00  0.00000000000E+00  0.65619640944E+03  0.65619763842E+03  0.12700000000E+01 0. -1.
         -4   -1    0    0    0  501 -0.00000000000E+00 -0.00000000000E+00 -0.58842006156E+01  0.60196940857E+01  0.12700000000E+01 0. -1.
         25    2    1    2    0    0  0.00000000000E+00  0.00000000000E+00  0.65031220883E+03  0.66221733250E+03  0.12500330603E+03 0.  0.
    9000005    1    3    3    0    0  0.32351619459E+02  0.28812734317E+02  0.86549084856E+02  0.96791244593E+02  0.10000000000E+01 0.  0.
    9000005    1    3    3    0    0 -0.32351619459E+02 -0.28812734317E+02  0.56376312397E+03  0.56542608791E+03  0.10000000000E+01 0.  0.
<mgrwt>
<rscale>  0 0.12500331E+03</rscale>
<asrwt>0</asrwt>
<pdfrwt beam="1">  1        4 0.10096375E+00 0.12500331E+03</pdfrwt>
<pdfrwt beam="2">  1       -4 0.91577925E-03 0.12500331E+03</pdfrwt>
<totfact> 0.45154275E+03</totfact>
</mgrwt>
</event>
<event>
 5    1  0.3304582E-002  0.1249979E+03  0.7818608E-02  0.1235073E+00
          4   -1    0    0  501    0  0.00000000000E+00  0.00000000000E+00  0.99105390448E+02  0.99113527411E+02  0.12700000000E+01 0.  1.
         -4   -1    0    0    0  501 -0.00000000000E+00 -0.00000000000E+00 -0.39393793072E+02  0.39414259255E+02  0.12700000000E+01 0.  1.
         25    2    1    2    0    0  0.00000000000E+00  0.00000000000E+00  0.59711597376E+02  0.13852778667E+03  0.12499789125E+03 0.  0.
    9000005    1    3    3    0    0  0.45524090069E+02  0.15597699434E+02  0.74038174407E+02  0.88308449617E+02  0.10000000000E+01 0.  0.
    9000005    1    3    3    0    0 -0.45524090069E+02 -0.15597699434E+02 -0.14326577031E+02  0.50219337049E+02  0.10000000000E+01 0.  0.
<mgrwt>
<rscale>  0 0.12499789E+03</rscale>
<asrwt>0</asrwt>
<pdfrwt beam="1">  1        4 0.15249183E-01 0.12499789E+03</pdfrwt>
<pdfrwt beam="2">  1       -4 0.60627838E-02 0.12499789E+03</pdfrwt>
<totfact> 0.10164673E+04</totfact>
</mgrwt>
</event>
<event>
 5    1  0.3304582E-002  0.1250044E+03  0.7818608E-02  0.1235062E+00
          4   -1    0    0  501    0  0.00000000000E+00  0.00000000000E+00  0.15516346326E+04  0.15516351524E+04  0.12700000000E+01 0.  1.
         -4   -1    0    0    0  501 -0.00000000000E+00 -0.00000000000E+00 -0.23569735882E+01  0.26773540101E+01  0.12700000000E+01 0.  1.
         25    2    1    2    0    0  0.00000000000E+00  0.00000000000E+00  0.15492776591E+04  0.15543125064E+04  0.12500441068E+03 0.  0.
    9000005    1    3    3    0    0  0.19082096712E+01  0.58682464010E+02  0.10408127985E+04  0.10424680112E+04  0.10000000000E+01 0.  0.
    9000005    1    3    3    0    0 -0.19082096712E+01 -0.58682464010E+02  0.50846486058E+03  0.51184449523E+03  0.10000000000E+01 0.  0.
<mgrwt>
<rscale>  0 0.12500441E+03</rscale>
<asrwt>0</asrwt>
<pdfrwt beam="1">  1        4 0.23873791E+00 0.12500441E+03</pdfrwt>
<pdfrwt beam="2">  1       -4 0.38729562E-03 0.12500441E+03</pdfrwt>
<totfact> 0.16885503E+03</totfact>
</mgrwt>
</event>
<event>
 5    1  0.3304582E-002  0.1249991E+03  0.7818608E-02  0.1235071E+00
         -4   -1    0    0    0  501 -0.00000000000E+00  0.00000000000E+00  0.24280977812E+02  0.24314168369E+02  0.12700000000E+01 0. -1.
          4   -1    0    0  501    0  0.00000000000E+00 -0.00000000000E+00 -0.16072894176E+03  0.16073395914E+03  0.12700000000E+01 0. -1.
         25    2    1    2    0    0  0.00000000000E+00  0.00000000000E+00 -0.13644796395E+03  0.18504812751E+03  0.12499905051E+03 0.  0.
    9000005    1    3    3    0    0  0.26968440029E+02  0.52586624457E+02 -0.38155503783E+02  0.70352628227E+02  0.10000000000E+01 0.  0.
    9000005    1    3    3    0    0 -0.26968440029E+02 -0.52586624457E+02 -0.98292460169E+02  0.11469549928E+03  0.10000000000E+01 0.  0.
<mgrwt>
<rscale>  0 0.12499905E+03</rscale>
<asrwt>0</asrwt>
<pdfrwt beam="2">  1        4 0.24730468E-01 0.12499905E+03</pdfrwt>
<pdfrwt beam="1">  1       -4 0.37384742E-02 0.12499905E+03</pdfrwt>
<totfact> 0.92718109E+03</totfact>
</mgrwt>
</event>
<event>
 5    1  0.3304582E-002  0.1250008E+03  0.7818608E-02  0.1235068E+00
         -4   -1    0    0    0  501 -0.00000000000E+00  0.00000000000E+00  0.40755669660E+03  0.40755867534E+03  0.12700000000E+01 0. -1.
          4   -1    0    0  501    0  0.00000000000E+00 -0.00000000000E+00 -0.95405916253E+01  0.96247487531E+01  0.12700000000E+01 0. -1.
         25    2    1    2    0    0  0.00000000000E+00  0.00000000000E+00  0.39801610498E+03  0.41718342409E+03  0.12500075807E+03 0.  0.
    9000005    1    3    3    0    0 -0.33897894842E+02 -0.44222370841E+02  0.10457469061E+03  0.11849705175E+03  0.10000000000E+01 0.  0.
    9000005    1    3    3    0    0  0.33897894842E+02  0.44222370841E+02  0.29344141437E+03  0.29868637234E+03  0.10000000000E+01 0.  0.
<mgrwt>
<rscale>  0 0.12500076E+03</rscale>
<asrwt>0</asrwt>
<pdfrwt beam="2">  1        4 0.14744090E-02 0.12500076E+03</pdfrwt>
<pdfrwt beam="1">  1       -4 0.62707664E-01 0.12500076E+03</pdfrwt>
<totfact> 0.62914112E+03</totfact>
</mgrwt>
</event>
<event>
 5    1  0.3304582E-002  0.1250053E+03  0.7818608E-02  0.1235061E+00
         -4   -1    0    0    0  501 -0.00000000000E+00  0.00000000000E+00  0.32015815537E+03  0.32016067427E+03  0.12700000000E+01 0.  1.
          4   -1    0    0  501    0  0.00000000000E+00 -0.00000000000E+00 -0.12166425744E+02  0.12232531030E+02  0.12700000000E+01 0.  1.
         25    2    1    2    0    0  0.00000000000E+00  0.00000000000E+00  0.30799172962E+03  0.33239320530E+03  0.12500534953E+03 0.  0.
    9000005    1    3    3    0    0  0.41549040800E+02  0.17343296910E+02  0.38749865780E+02  0.59410982462E+02  0.10000000000E+01 0.  0.
    9000005    1    3    3    0    0 -0.41549040800E+02 -0.17343296910E+02  0.26924186384E+03  0.27298222283E+03  0.10000000000E+01 0.  0.
<mgrwt>
<rscale>  0 0.12500535E+03</rscale>
<asrwt>0</asrwt>
<pdfrwt beam="2">  1        4 0.18770367E-02 0.12500535E+03</pdfrwt>
<pdfrwt beam="1">  1       -4 0.49260377E-01 0.12500535E+03</pdfrwt>
<totfact> 0.71697468E+03</totfact>
</mgrwt>
</event>
<event>
 5    1  0.3304582E-002  0.1250023E+03  0.7818608E-02  0.1235066E+00
          4   -1    0    0  501    0  0.00000000000E+00  0.00000000000E+00  0.56512890915E+02  0.56527159309E+02  0.12700000000E+01 0.  1.
         -4   -1    0    0    0  501 -0.00000000000E+00 -0.00000000000E+00 -0.69095110923E+02  0.69106781530E+02  0.12700000000E+01 0.  1.
         25    2    1    2    0    0  0.00000000000E+00  0.00000000000E+00 -0.12582220008E+02  0.12563394084E+03  0.12500229930E+03 0.  0.
    9000005    1    3    3    0    0  0.27777627515E+02  0.55927162026E+02 -0.38395911545E+01  0.62571451181E+02  0.10000000000E+01 0.  0.
    9000005    1    3    3    0    0 -0.27777627515E+02 -0.55927162026E+02 -0.87426288538E+01  0.63062489658E+02  0.10000000000E+01 0.  0.
<mgrwt>
<rscale>  0 0.12500230E+03</rscale>
<asrwt>0</asrwt>
<pdfrwt beam="1">  1        4 0.86962862E-02 0.12500230E+03</pdfrwt>
<pdfrwt beam="2">  1       -4 0.10632012E-01 0.12500230E+03</pdfrwt>
<totfact> 0.10438457E+04</totfact>
</mgrwt>
</event>
<event>
 5    1  0.3304582E-002  0.1249999E+03  0.7818608E-02  0.1235069E+00
          4   -1    0    0  501    0  0.00000000000E+00  0.00000000000E+00  0.95849023707E+02  0.95857437091E+02  0.12700000000E+01 0.  1.
         -4   -1    0    0    0  501 -0.00000000000E+00 -0.00000000000E+00 -0.40734020223E+02  0.40753813361E+02  0.12700000000E+01 0.  1.
         25    2    1    2    0    0  0.00000000000E+00  0.00000000000E+00  0.55115003485E+02  0.13661125045E+03  0.12499988056E+03 0.  0.
    9000005    1    3    3    0    0  0.50085128567E+02  0.10416847480E+02 -0.11668179209E+02  0.52480255536E+02  0.10000000000E+01 0.  0.
    9000005    1    3    3    0    0 -0.50085128567E+02 -0.10416847480E+02  0.66783182693E+02  0.84130994917E+02  0.10000000000E+01 0.  0.
<mgrwt>
<rscale>  0 0.12499988E+03</rscale>
<asrwt>0</asrwt>
<pdfrwt beam="1">  1        4 0.14748173E-01 0.12499988E+03</pdfrwt>
<pdfrwt beam="2">  1       -4 0.62689422E-02 0.12499988E+03</pdfrwt>
<totfact> 0.10204248E+04</totfact>
</mgrwt>
</event>
<event>
 5    1  0.3304582E-002  0.1250029E+03  0.7818608E-02  0.1235065E+00
         -4   -1    0    0    0  501 -0.00000000000E+00  0.00000000000E+00  0.10641707540E+03  0.10642465334E+03  0.12700000000E+01 0. -1.
          4   -1    0    0  501    0  0.00000000000E+00 -0.00000000000E+00 -0.36688805009E+02  0.36710779248E+02  0.12700000000E+01 0. -1.
         25    2    1    2    0    0  0.00000000000E+00  0.00000000000E+00  0.69728270396E+02  0.14313543258E+03  0.12500288144E+03 0.  0.
    9000005    1    3    3    0    0 -0.36735225430E+01  0.28467350826E+02  0.98428162614E+02  0.10253286315E+03  0.10000000000E+01 0.  0.
    9000005    1    3    3    0    0  0.36735225430E+01 -0.28467350826E+02 -0.28699892218E+02  0.40602569430E+02  0.10000000000E+01 0.  0.
<mgrwt>
<rscale>  0 0.12500288E+03</rscale>
<asrwt>0</asrwt>
<pdfrwt beam="2">  1        4 0.56467049E-02 0.12500288E+03</pdfrwt>
<pdfrwt beam="1">  1       -4 0.16374131E-01 0.12500288E+03</pdfrwt>
<totfact> 0.10068357E+04</totfact>
</mgrwt>
</event>
<event>
 5    1  0.3304582E-002  0.1249993E+03  0.7818608E-02  0.1235070E+00
         -4   -1    0    0    0  501 -0.00000000000E+00  0.00000000000E+00  0.10472851847E+03  0.10473621857E+03  0.12700000000E+01 0.  1.
          4   -1    0    0  501    0  0.00000000000E+00 -0.00000000000E+00 -0.37278538514E+02  0.37300165331E+02  0.12700000000E+01 0.  1.
         25    2    1    2    0    0  0.00000000000E+00  0.00000000000E+00  0.67449979956E+02  0.14203638390E+03  0.12499933822E+03 0.  0.
    9000005    1    3    3    0    0  0.11461548506E+02 -0.19526533303E+02  0.99909355313E+02  0.10244770313E+03  0.10000000000E+01 0.  0.
    9000005    1    3    3    0    0 -0.11461548506E+02  0.19526533303E+02 -0.32459375357E+02  0.39588680776E+02  0.10000000000E+01 0.  0.
<mgrwt>
<rscale>  0 0.12499934E+03</rscale>
<asrwt>0</asrwt>
<pdfrwt beam="2">  1        4 0.57374157E-02 0.12499934E+03</pdfrwt>
<pdfrwt beam="1">  1       -4 0.16114336E-01 0.12499934E+03</pdfrwt>
<totfact> 0.10091704E+04</totfact>
</mgrwt>
</event>
<event>
 5    1  0.3304582E-002  0.1249907E+03  0.7818608E-02  0.1235084E+00
          4   -1    0    0  501    0  0.00000000000E+00  0.00000000000E+00  0.32171159969E+01  0.34587187422E+01  0.12700000000E+01 0. -1.
         -4   -1    0    0    0  501 -0.00000000000E+00 -0.00000000000E+00 -0.11698497761E+04  0.11698504655E+04  0.12700000000E+01 0. -1.
         25    2    1    2    0    0  0.00000000000E+00  0.00000000000E+00 -0.11666326601E+04  0.11733091842E+04  0.12499071213E+03 0.  0.
    9000005    1    3    3    0    0 -0.34238190209E+02 -0.37135512940E+02 -0.92865318266E+03  0.93002636181E+03  0.10000000000E+01 0.  0.
    9000005    1    3    3    0    0  0.34238190209E+02  0.37135512940E+02 -0.23797947748E+03  0.24328282244E+03  0.10000000000E+01 0.  0.
<mgrwt>
<rscale>  0 0.12499071E+03</rscale>
<asrwt>0</asrwt>
<pdfrwt beam="1">  1        4 0.51357971E-03 0.12499071E+03</pdfrwt>
<pdfrwt beam="2">  1       -4 0.17999520E+00 0.12499071E+03</pdfrwt>
<totfact> 0.25427472E+03</totfact>
</mgrwt>
</event>
<event>
 5    1  0.3304582E-002  0.1250002E+03  0.7818608E-02  0.1235069E+00
          4   -1    0    0  501    0  0.00000000000E+00  0.00000000000E+00  0.12950640685E+03  0.12951263381E+03  0.12700000000E+01 0. -1.
         -4   -1    0    0    0  501 -0.00000000000E+00 -0.00000000000E+00 -0.30142382534E+02  0.30169125357E+02  0.12700000000E+01 0. -1.
         25    2    1    2    0    0  0.00000000000E+00  0.00000000000E+00  0.99364024318E+02  0.15968175916E+03  0.12500021952E+03 0.  0.
    9000005    1    3    3    0    0 -0.23891199142E+02 -0.62398066911E+00  0.12344404290E+03  0.12574025002E+03  0.10000000000E+01 0.  0.
    9000005    1    3    3    0    0  0.23891199142E+02  0.62398066911E+00 -0.24080018578E+02  0.33941509145E+02  0.10000000000E+01 0.  0.
<mgrwt>
<rscale>  0 0.12500022E+03</rscale>
<asrwt>0</asrwt>
<pdfrwt beam="1">  1        4 0.19926599E-01 0.12500022E+03</pdfrwt>
<pdfrwt beam="2">  1       -4 0.46398256E-02 0.12500022E+03</pdfrwt>
<totfact> 0.97403693E+03</totfact>
</mgrwt>
</event>
<event>
 5    1  0.3304582E-002  0.1249826E+03  0.7818608E-02  0.1235096E+00
          4   -1    0    0  501    0  0.00000000000E+00  0.00000000000E+00  0.96642222009E+03  0.96642305456E+03  0.12700000000E+01 0.  1.
         -4   -1    0    0    0  501 -0.00000000000E+00 -0.00000000000E+00 -0.39402019257E+01  0.41398177756E+01  0.12700000000E+01 0.  1.
         25    2    1    2    0    0  0.00000000000E+00  0.00000000000E+00  0.96248201817E+03  0.97056287234E+03  0.12498261425E+03 0.  0.
    9000005    1    3    3    0    0 -0.23218357517E+01 -0.58873225577E+02  0.64277929626E+03  0.64547476427E+03  0.10000000000E+01 0.  0.
    9000005    1    3    3    0    0  0.23218357517E+01  0.58873225577E+02  0.31970272190E+03  0.32508810806E+03  0.10000000000E+01 0.  0.
<mgrwt>
<rscale>  0 0.12498261E+03</rscale>
<asrwt>0</asrwt>
<pdfrwt beam="1">  1        4 0.14869573E+00 0.12498261E+03</pdfrwt>
<pdfrwt beam="2">  1       -4 0.62160428E-03 0.12498261E+03</pdfrwt>
<totfact> 0.31608968E+03</totfact>
</mgrwt>
</event>
<event>
 5    1  0.3304582E-002  0.1249840E+03  0.7818608E-02  0.1235094E+00
          4   -1    0    0  501    0  0.00000000000E+00  0.00000000000E+00  0.29713060040E+02  0.29740188919E+02  0.12700000000E+01 0. -1.
         -4   -1    0    0    0  501 -0.00000000000E+00 -0.00000000000E+00 -0.13134184827E+03  0.13134798822E+03  0.12700000000E+01 0. -1.
         25    2    1    2    0    0  0.00000000000E+00  0.00000000000E+00 -0.10162878823E+03  0.16108817713E+03  0.12498395983E+03 0.  0.
    9000005    1    3    3    0    0 -0.96318481667E+01 -0.15179159818E+02 -0.12794303537E+03  0.12920371392E+03  0.10000000000E+01 0.  0.
    9000005    1    3    3    0    0  0.96318481667E+01  0.15179159818E+02  0.26314247136E+02  0.31884463211E+02  0.10000000000E+01 0.  0.
<mgrwt>
<rscale>  0 0.12498396E+03</rscale>
<asrwt>0</asrwt>
<pdfrwt beam="1">  1        4 0.45737992E-02 0.12498396E+03</pdfrwt>
<pdfrwt beam="2">  1       -4 0.20208997E-01 0.12498396E+03</pdfrwt>
<totfact> 0.97168427E+03</totfact>
</mgrwt>
</event>
<event>
 5    1  0.3304582E-002  0.1249779E+03  0.7818608E-02  0.1235104E+00
         -4   -1    0    0    0  501 -0.00000000000E+00  0.00000000000E+00  0.30793085249E+02  0.30819263442E+02  0.12700000000E+01 0.  1.
          4   -1    0    0  501    0  0.00000000000E+00 -0.00000000000E+00 -0.12672660173E+03  0.12673296527E+03  0.12700000000E+01 0.  1.
         25    2    1    2    0    0  0.00000000000E+00  0.00000000000E+00 -0.95933516484E+02  0.15755222871E+03  0.12497785879E+03 0.  0.
    9000005    1    3    3    0    0  0.20831895432E+02 -0.49547389795E+02 -0.78048094427E+01  0.54321512803E+02  0.10000000000E+01 0.  0.
    9000005    1    3    3    0    0 -0.20831895432E+02  0.49547389795E+02 -0.88128707042E+02  0.10323071591E+03  0.10000000000E+01 0.  0.
<mgrwt>
<rscale>  0 0.12497786E+03</rscale>
<asrwt>0</asrwt>
<pdfrwt beam="2">  1        4 0.19498903E-01 0.12497786E+03</pdfrwt>
<pdfrwt beam="1">  1       -4 0.47399010E-02 0.12497786E+03</pdfrwt>
<totfact> 0.97865492E+03</totfact>
</mgrwt>
</event>
<event>
 5    1  0.3304582E-002  0.1250001E+03  0.7818608E-02  0.1235069E+00
         -4   -1    0    0    0  501 -0.00000000000E+00  0.00000000000E+00  0.56477548674E+02  0.56491825995E+02  0.12700000000E+01 0.  1.
          4   -1    0    0  501    0  0.00000000000E+00 -0.00000000000E+00 -0.69135936867E+02  0.69147600583E+02  0.12700000000E+01 0.  1.
         25    2    1    2    0    0  0.00000000000E+00  0.00000000000E+00 -0.12658388193E+02  0.12563942658E+03  0.12500012288E+03 0.  0.
    9000005    1    3    3    0    0  0.57551620222E+02 -0.19754048609E+02  0.79860580071E+01  0.61377427033E+02  0.10000000000E+01 0.  0.
    9000005    1    3    3    0    0 -0.57551620222E+02  0.19754048609E+02 -0.20644446200E+02  0.64261999545E+02  0.10000000000E+01 0.  0.
<mgrwt>
<rscale>  0 0.12500012E+03</rscale>
<asrwt>0</asrwt>
<pdfrwt beam="2">  1        4 0.10638293E-01 0.12500012E+03</pdfrwt>
<pdfrwt beam="1">  1       -4 0.86908491E-02 0.12500012E+03</pdfrwt>
<totfact> 0.10438849E+04</totfact>
</mgrwt>
</event>
<event>
 5    1  0.3304582E-002  0.1250027E+03  0.7818608E-02  0.1235065E+00
         -4   -1    0    0    0  501 -0.00000000000E+00  0.00000000000E+00  0.18106164772E+02  0.18150650202E+02  0.12700000000E+01 0.  1.
          4   -1    0    0  501    0  0.00000000000E+00 -0.00000000000E+00 -0.21543979058E+03  0.21544353382E+03  0.12700000000E+01 0.  1.
         25    2    1    2    0    0  0.00000000000E+00  0.00000000000E+00 -0.19733362581E+03  0.23359418402E+03  0.12500273171E+03 0.  0.
    9000005    1    3    3    0    0  0.16398951695E+02 -0.45931549489E+02 -0.17168513911E+03  0.17848086690E+03  0.10000000000E+01 0.  0.
    9000005    1    3    3    0    0 -0.16398951695E+02  0.45931549489E+02 -0.25648486696E+02  0.55113317129E+02  0.10000000000E+01 0.  0.
<mgrwt>
<rscale>  0 0.12500273E+03</rscale>
<asrwt>0</asrwt>
<pdfrwt beam="2">  1        4 0.33148291E-01 0.12500273E+03</pdfrwt>
<pdfrwt beam="1">  1       -4 0.27892739E-02 0.12500273E+03</pdfrwt>
<totfact> 0.84755581E+03</totfact>
</mgrwt>
</event>
<event>
 5    1  0.3304582E-002  0.1249993E+03  0.7818608E-02  0.1235070E+00
          4   -1    0    0  501    0  0.00000000000E+00  0.00000000000E+00  0.41498355508E+03  0.41498549841E+03  0.12700000000E+01 0.  1.
         -4   -1    0    0    0  501 -0.00000000000E+00 -0.00000000000E+00 -0.93681133317E+01  0.94538059741E+01  0.12700000000E+01 0.  1.
         25    2    1    2    0    0  0.00000000000E+00  0.00000000000E+00  0.40561544175E+03  0.42443930438E+03  0.12499934607E+03 0.  0.
    9000005    1    3    3    0    0  0.46052970718E+02 -0.40939865257E+02  0.16747779165E+03  0.17845660362E+03  0.10000000000E+01 0.  0.
    9000005    1    3    3    0    0 -0.46052970718E+02  0.40939865257E+02  0.23813765010E+03  0.24598270076E+03  0.10000000000E+01 0.  0.
<mgrwt>
<rscale>  0 0.12499935E+03</rscale>
<asrwt>0</asrwt>
<pdfrwt beam="1">  1        4 0.63850364E-01 0.12499935E+03</pdfrwt>
<pdfrwt beam="2">  1       -4 0.14479895E-02 0.12499935E+03</pdfrwt>
<totfact> 0.62244185E+03</totfact>
</mgrwt>
</event>
<event>
 5    1  0.3304582E-002  0.1249981E+03  0.7818608E-02  0.1235072E+00
          4   -1    0    0  501    0  0.00000000000E+00  0.00000000000E+00  0.92828068618E+02  0.92836755778E+02  0.12700000000E+01 0.  1.
         -4   -1    0    0    0  501 -0.00000000000E+00 -0.00000000000E+00 -0.42058951800E+02  0.42078121708E+02  0.12700000000E+01 0.  1.
         25    2    1    2    0    0  0.00000000000E+00  0.00000000000E+00  0.50769116819E+02  0.13491487749E+03  0.12499808376E+03 0.  0.
    9000005    1    3    3    0    0 -0.59595712681E+02 -0.12677895658E+02  0.10399577593E+02  0.61818518442E+02  0.10000000000E+01 0.  0.
    9000005    1    3    3    0    0  0.59595712681E+02  0.12677895658E+02  0.40369539225E+02  0.73096359044E+02  0.10000000000E+01 0.  0.
<mgrwt>
<rscale>  0 0.12499808E+03</rscale>
<asrwt>0</asrwt>
<pdfrwt beam="1">  1        4 0.14283384E-01 0.12499808E+03</pdfrwt>
<pdfrwt beam="2">  1       -4 0.64727509E-02 0.12499808E+03</pdfrwt>
<totfact> 0.10240308E+04</totfact>
</mgrwt>
</event>
<event>
 5    1  0.3304582E-002  0.1249993E+03  0.7818608E-02  0.1235070E+00
          4   -1    0    0  501    0  0.00000000000E+00  0.00000000000E+00  0.24351592219E+02  0.24384686662E+02  0.12700000000E+01 0. -1.
         -4   -1    0    0    0  501 -0.00000000000E+00 -0.00000000000E+00 -0.16026418765E+03  0.16026921958E+03  0.12700000000E+01 0. -1.
         25    2    1    2    0    0  0.00000000000E+00  0.00000000000E+00 -0.13591259543E+03  0.18465390624E+03  0.12499932596E+03 0.  0.
    9000005    1    3    3    0    0 -0.12682762577E+02 -0.25511130845E+02 -0.15011972152E+03  0.15280249033E+03  0.10000000000E+01 0.  0.
    9000005    1    3    3    0    0  0.12682762577E+02  0.25511130845E+02  0.14207126084E+02  0.31851415905E+02  0.10000000000E+01 0.  0.
<mgrwt>
<rscale>  0 0.12499933E+03</rscale>
<asrwt>0</asrwt>
<pdfrwt beam="1">  1        4 0.37493317E-02 0.12499933E+03</pdfrwt>
<pdfrwt beam="2">  1       -4 0.24658961E-01 0.12499933E+03</pdfrwt>
<totfact> 0.92787331E+03</totfact>
</mgrwt>
</event>
<event>
 5    1  0.3304582E-002  0.1250023E+03  0.7818608E-02  0.1235066E+00
          4   -1    0    0  501    0  0.00000000000E+00  0.00000000000E+00  0.65962528791E+02  0.65974753539E+02  0.12700000000E+01 0.  1.
         -4   -1    0    0    0  501 -0.00000000000E+00 -0.00000000000E+00 -0.59196912296E+02  0.59210533905E+02  0.12700000000E+01 0.  1.
         25    2    1    2    0    0  0.00000000000E+00  0.00000000000E+00  0.67656164956E+01  0.12518528744E+03  0.12500233048E+03 0.  0.
    9000005    1    3    3    0    0  0.44012229250E+02  0.99364667820E+01  0.46684802706E+02  0.64932892277E+02  0.10000000000E+01 0.  0.
    9000005    1    3    3    0    0 -0.44012229250E+02 -0.99364667820E+01 -0.39919186211E+02  0.60252395167E+02  0.10000000000E+01 0.  0.
<mgrwt>
<rscale>  0 0.12500233E+03</rscale>
<asrwt>0</asrwt>
<pdfrwt beam="1">  1        4 0.10150070E-01 0.12500233E+03</pdfrwt>
<pdfrwt beam="2">  1       -4 0.91092054E-02 0.12500233E+03</pdfrwt>
<totfact> 0.10448289E+04</totfact>
</mgrwt>
</event>
<event>
 5    1  0.3304582E-002  0.1250037E+03  0.7818608E-02  0.1235064E+00
          4   -1    0    0  501    0  0.00000000000E+00  0.00000000000E+00  0.31297830426E+02  0.31323586790E+02  0.12700000000E+01 0.  1.
         -4   -1    0    0    0  501 -0.00000000000E+00 -0.00000000000E+00 -0.12473599687E+03  0.12474246196E+03  0.12700000000E+01 0.  1.
         25    2    1    2    0    0  0.00000000000E+00  0.00000000000E+00 -0.93438166448E+02  0.15606604875E+03  0.12500368244E+03 0.  0.
    9000005    1    3    3    0    0 -0.27260405132E+02  0.18853675563E+02  0.19426108152E+02  0.38431295165E+02  0.10000000000E+01 0.  0.
    9000005    1    3    3    0    0  0.27260405132E+02 -0.18853675563E+02 -0.11286427460E+03  0.11763475359E+03  0.10000000000E+01 0.  0.
<mgrwt>
<rscale>  0 0.12500368E+03</rscale>
<asrwt>0</asrwt>
<pdfrwt beam="1">  1        4 0.48175295E-02 0.12500368E+03</pdfrwt>
<pdfrwt beam="2">  1       -4 0.19192632E-01 0.12500368E+03</pdfrwt>
<totfact> 0.98098502E+03</totfact>
</mgrwt>
</event>
<event>
 5    1  0.3304582E-002  0.1249879E+03  0.7818608E-02  0.1235088E+00
          4   -1    0    0  501    0  0.00000000000E+00  0.00000000000E+00  0.10646198613E+02  0.10721681068E+02  0.12700000000E+01 0.  1.
         -4   -1    0    0    0  501 -0.00000000000E+00 -0.00000000000E+00 -0.36547177397E+03  0.36547398057E+03  0.12700000000E+01 0.  1.
         25    2    1    2    0    0  0.00000000000E+00  0.00000000000E+00 -0.35482557536E+03  0.37619566163E+03  0.12498794703E+03 0.  0.
    9000005    1    3    3    0    0  0.50734066875E+02 -0.90637000063E+01 -0.71066430089E+02  0.87792560534E+02  0.10000000000E+01 0.  0.
    9000005    1    3    3    0    0 -0.50734066875E+02  0.90637000063E+01 -0.28375914527E+03  0.28840310110E+03  0.10000000000E+01 0.  0.
<mgrwt>
<rscale>  0 0.12498795E+03</rscale>
<asrwt>0</asrwt>
<pdfrwt beam="1">  1        4 0.16438531E-02 0.12498795E+03</pdfrwt>
<pdfrwt beam="2">  1       -4 0.56232393E-01 0.12498795E+03</pdfrwt>
<totfact> 0.66953536E+03</totfact>
</mgrwt>
</event>
<event>
 5    1  0.3304582E-002  0.1250000E+03  0.7818608E-02  0.1235069E+00
         -4   -1    0    0    0  501 -0.00000000000E+00  0.00000000000E+00  0.72469890815E+03  0.72470002096E+03  0.12700000000E+01 0. -1.
          4   -1    0    0  501    0  0.00000000000E+00 -0.00000000000E+00 -0.53142266046E+01  0.54638726564E+01  0.12700000000E+01 0. -1.
         25    2    1    2    0    0  0.00000000000E+00  0.00000000000E+00  0.71938468155E+03  0.73016389361E+03  0.12499996597E+03 0.  0.
    9000005    1    3    3    0    0 -0.31525993811E+02  0.27283424530E+02  0.87774725810E+02  0.97178578045E+02  0.10000000000E+01 0.  0.
    9000005    1    3    3    0    0  0.31525993811E+02 -0.27283424530E+02  0.63160995574E+03  0.63298531557E+03  0.10000000000E+01 0.  0.
<mgrwt>
<rscale>  0 0.12499997E+03</rscale>
<asrwt>0</asrwt>
<pdfrwt beam="2">  1        4 0.82917058E-03 0.12499997E+03</pdfrwt>
<pdfrwt beam="1">  1       -4 0.11150368E+00 0.12499997E+03</pdfrwt>
<totfact> 0.41541388E+03</totfact>
</mgrwt>
</event>
<event>
 5    1  0.3304582E-002  0.1250013E+03  0.7818608E-02  0.1235067E+00
          4   -1    0    0  501    0  0.00000000000E+00  0.00000000000E+00  0.81754901033E+02  0.81764764678E+02  0.12700000000E+01 0. -1.
         -4   -1    0    0    0  501 -0.00000000000E+00 -0.00000000000E+00 -0.47759817605E+02  0.47776700154E+02  0.12700000000E+01 0. -1.
         25    2    1    2    0    0  0.00000000000E+00  0.00000000000E+00  0.33995083428E+02  0.12954146483E+03  0.12500130165E+03 0.  0.
    9000005    1    3    3    0    0 -0.38549429892E+02 -0.39749820545E+02 -0.13024025830E+02  0.56892284426E+02  0.10000000000E+01 0.  0.
    9000005    1    3    3    0    0  0.38549429892E+02  0.39749820545E+02  0.47019109258E+02  0.72649180407E+02  0.10000000000E+01 0.  0.
<mgrwt>
<rscale>  0 0.12500130E+03</rscale>
<asrwt>0</asrwt>
<pdfrwt beam="1">  1        4 0.12579734E-01 0.12500130E+03</pdfrwt>
<pdfrwt beam="2">  1       -4 0.73497217E-02 0.12500130E+03</pdfrwt>
<totfact> 0.10354022E+04</totfact>
</mgrwt>
</event>
<event>
 5    1  0.3304582E-002  0.1250042E+03  0.7818608E-02  0.1235063E+00
          4   -1    0    0  501    0  0.00000000000E+00  0.00000000000E+00  0.73250546568E+01  0.74343342489E+01  0.12700000000E+01 0.  1.
         -4   -1    0    0    0  501 -0.00000000000E+00 -0.00000000000E+00 -0.52924948140E+03  0.52925100516E+03  0.12700000000E+01 0.  1.
         25    2    1    2    0    0  0.00000000000E+00  0.00000000000E+00 -0.52192442674E+03  0.53668533941E+03  0.12500418515E+03 0.  0.
    9000005    1    3    3    0    0 -0.51356358737E+02 -0.25255293466E+02 -0.15318263128E+03  0.16352744099E+03  0.10000000000E+01 0.  0.
    9000005    1    3    3    0    0  0.51356358737E+02  0.25255293466E+02 -0.36874179547E+03  0.37315789842E+03  0.10000000000E+01 0.  0.
<mgrwt>
<rscale>  0 0.12500419E+03</rscale>
<asrwt>0</asrwt>
<pdfrwt beam="1">  1        4 0.11354552E-02 0.12500419E+03</pdfrwt>
<pdfrwt beam="2">  1       -4 0.81431490E-01 0.12500419E+03</pdfrwt>
<totfact> 0.53121428E+03</totfact>
</mgrwt>
</event>
<event>
 5    1  0.3304582E-002  0.1250036E+03  0.7818608E-02  0.1235064E+00
          4   -1    0    0  501    0  0.00000000000E+00  0.00000000000E+00  0.66331349941E+02  0.66343506728E+02  0.12700000000E+01 0.  1.
         -4   -1    0    0    0  501 -0.00000000000E+00 -0.00000000000E+00 -0.58868944518E+02  0.58882641998E+02  0.12700000000E+01 0.  1.
         25    2    1    2    0    0  0.00000000000E+00  0.00000000000E+00  0.74624054232E+01  0.12522614873E+03  0.12500360327E+03 0.  0.
    9000005    1    3    3    0    0  0.38098520239E+02 -0.92209013179E+01 -0.45027339132E+02  0.59707483072E+02  0.10000000000E+01 0.  0.
    9000005    1    3    3    0    0 -0.38098520239E+02  0.92209013179E+01  0.52489744555E+02  0.65518665653E+02  0.10000000000E+01 0.  0.
<mgrwt>
<rscale>  0 0.12500360E+03</rscale>
<asrwt>0</asrwt>
<pdfrwt beam="1">  1        4 0.10206812E-01 0.12500360E+03</pdfrwt>
<pdfrwt beam="2">  1       -4 0.90587495E-02 0.12500360E+03</pdfrwt>
<totfact> 0.10447102E+04</totfact>
</mgrwt>
</event>
<event>
 5    1  0.3304582E-002  0.1250040E+03  0.7818608E-02  0.1235063E+00
          4   -1    0    0  501    0  0.00000000000E+00  0.00000000000E+00  0.30457631094E+02  0.30484097360E+02  0.12700000000E+01 0.  1.
         -4   -1    0    0    0  501 -0.00000000000E+00 -0.00000000000E+00 -0.12817481964E+03  0.12818111128E+03  0.12700000000E+01 0.  1.
         25    2    1    2    0    0  0.00000000000E+00  0.00000000000E+00 -0.97717188546E+02  0.15866520864E+03  0.12500399792E+03 0.  0.
    9000005    1    3    3    0    0 -0.35887263442E+02 -0.45854219420E+02 -0.20054169386E+02  0.61592814725E+02  0.10000000000E+01 0.  0.
    9000005    1    3    3    0    0  0.35887263442E+02  0.45854219420E+02 -0.77663019160E+02  0.97072393918E+02  0.10000000000E+01 0.  0.
<mgrwt>
<rscale>  0 0.12500400E+03</rscale>
<asrwt>0</asrwt>
<pdfrwt beam="1">  1        4 0.46883093E-02 0.12500400E+03</pdfrwt>
<pdfrwt beam="2">  1       -4 0.19721723E-01 0.12500400E+03</pdfrwt>
<totfact> 0.97591969E+03</totfact>
</mgrwt>
</event>
<event>
 5    1  0.3304582E-002  0.1249997E+03  0.7818608E-02  0.1235070E+00
         -4   -1    0    0    0  501 -0.00000000000E+00  0.00000000000E+00  0.21058717713E+03  0.21059100663E+03  0.12700000000E+01 0. -1.
          4   -1    0    0  501    0  0.00000000000E+00 -0.00000000000E+00 -0.18523495020E+02  0.18566980578E+02  0.12700000000E+01 0. -1.
         25    2    1    2    0    0  0.00000000000E+00  0.00000000000E+00  0.19206368211E+03  0.22915798720E+03  0.12499970045E+03 0.  0.
    9000005    1    3    3    0    0  0.18623841818E+02  0.44740607835E+02  0.23701058893E+02  0.53956553505E+02  0.10000000000E+01 0.  0.
    9000005    1    3    3    0    0 -0.18623841818E+02 -0.44740607835E+02  0.16836262322E+03  0.17520143370E+03  0.10000000000E+01 0.  0.
<mgrwt>
<rscale>  0 0.12499970E+03</rscale>
<asrwt>0</asrwt>
<pdfrwt beam="2">  1        4 0.28534082E-02 0.12499970E+03</pdfrwt>
<pdfrwt beam="1">  1       -4 0.32401666E-01 0.12499970E+03</pdfrwt>
<totfact> 0.85439627E+03</totfact>
</mgrwt>
</event>
<event>
 5    1  0.3304582E-002  0.1249973E+03  0.7818608E-02  0.1235073E+00
          4   -1    0    0  501    0  0.00000000000E+00  0.00000000000E+00  0.24476647567E+03  0.24476977042E+03  0.12700000000E+01 0. -1.
         -4   -1    0    0    0  501 -0.00000000000E+00 -0.00000000000E+00 -0.15929726624E+02  0.15980271909E+02  0.12700000000E+01 0. -1.
         25    2    1    2    0    0  0.00000000000E+00  0.00000000000E+00  0.22883674905E+03  0.26075004233E+03  0.12499730742E+03 0.  0.
    9000005    1    3    3    0    0 -0.57588686325E+02 -0.34665206984E+01  0.64326864874E+02  0.86414229748E+02  0.10000000000E+01 0.  0.
    9000005    1    3    3    0    0  0.57588686325E+02  0.34665206984E+01  0.16450988417E+03  0.17433581258E+03  0.10000000000E+01 0.  0.
<mgrwt>
<rscale>  0 0.12499731E+03</rscale>
<asrwt>0</asrwt>
<pdfrwt beam="1">  1        4 0.37660520E-01 0.12499731E+03</pdfrwt>
<pdfrwt beam="2">  1       -4 0.24548688E-02 0.12499731E+03</pdfrwt>
<totfact> 0.80805762E+03</totfact>
</mgrwt>
</event>
<event>
 5    1  0.3304582E-002  0.1249905E+03  0.7818608E-02  0.1235084E+00
         -4   -1    0    0    0  501 -0.00000000000E+00  0.00000000000E+00  0.10612054463E+03  0.10612814374E+03  0.12700000000E+01 0.  1.
          4   -1    0    0  501    0  0.00000000000E+00 -0.00000000000E+00 -0.36784061718E+02  0.36805979086E+02  0.12700000000E+01 0.  1.
         25    2    1    2    0    0  0.00000000000E+00  0.00000000000E+00  0.69336482916E+02  0.14293412283E+03  0.12499046206E+03 0.  0.
    9000005    1    3    3    0    0 -0.12006522706E+02  0.57317699727E+02  0.59596244525E+02  0.83559485703E+02  0.10000000000E+01 0.  0.
    9000005    1    3    3    0    0  0.12006522706E+02 -0.57317699727E+02  0.97402383908E+01  0.59374637122E+02  0.10000000000E+01 0.  0.
<mgrwt>
<rscale>  0 0.12499046E+03</rscale>
<asrwt>0</asrwt>
<pdfrwt beam="2">  1        4 0.56613570E-02 0.12499046E+03</pdfrwt>
<pdfrwt beam="1">  1       -4 0.16328508E-01 0.12499046E+03</pdfrwt>
<totfact> 0.10075297E+04</totfact>
</mgrwt>
</event>
<event>
 5    1  0.3304582E-002  0.1250005E+03  0.7818608E-02  0.1235069E+00
          4   -1    0    0  501    0  0.00000000000E+00  0.00000000000E+00  0.17485667643E+02  0.17531727608E+02  0.12700000000E+01 0.  1.
         -4   -1    0    0    0  501 -0.00000000000E+00 -0.00000000000E+00 -0.22305727640E+03  0.22306089181E+03  0.12700000000E+01 0.  1.
         25    2    1    2    0    0  0.00000000000E+00  0.00000000000E+00 -0.20557160876E+03  0.24059261942E+03  0.12500048877E+03 0.  0.
    9000005    1    3    3    0    0 -0.12445896679E+02 -0.57497699063E+02 -0.62211126874E+02  0.85627741116E+02  0.10000000000E+01 0.  0.
    9000005    1    3    3    0    0  0.12445896679E+02  0.57497699063E+02 -0.14336048189E+03  0.15496487831E+03  0.10000000000E+01 0.  0.
<mgrwt>
<rscale>  0 0.12500049E+03</rscale>
<asrwt>0</asrwt>
<pdfrwt beam="1">  1        4 0.26939241E-02 0.12500049E+03</pdfrwt>
<pdfrwt beam="2">  1       -4 0.34320323E-01 0.12500049E+03</pdfrwt>
<totfact> 0.83708275E+03</totfact>
</mgrwt>
</event>
<event>
 5    1  0.3304582E-002  0.1250039E+03  0.7818608E-02  0.1235063E+00
          4   -1    0    0  501    0  0.00000000000E+00  0.00000000000E+00  0.65712878664E+02  0.65725149846E+02  0.12700000000E+01 0. -1.
         -4   -1    0    0    0  501 -0.00000000000E+00 -0.00000000000E+00 -0.59423353509E+02  0.59436923223E+02  0.12700000000E+01 0. -1.
         25    2    1    2    0    0  0.00000000000E+00  0.00000000000E+00  0.62895251544E+01  0.12516207307E+03  0.12500394557E+03 0.  0.
    9000005    1    3    3    0    0  0.10834168645E+02 -0.44639151760E+02 -0.39281748547E+02  0.60449059951E+02  0.10000000000E+01 0.  0.
    9000005    1    3    3    0    0 -0.10834168645E+02  0.44639151760E+02  0.45571273701E+02  0.64713013118E+02  0.10000000000E+01 0.  0.
<mgrwt>
<rscale>  0 0.12500395E+03</rscale>
<asrwt>0</asrwt>
<pdfrwt beam="1">  1        4 0.10111661E-01 0.12500395E+03</pdfrwt>
<pdfrwt beam="2">  1       -4 0.91440422E-02 0.12500395E+03</pdfrwt>
<totfact> 0.10448412E+04</totfact>
</mgrwt>
</event>
<event>
 5    1  0.3304582E-002  0.1249989E+03  0.7818608E-02  0.1235071E+00
         -4   -1    0    0    0  501 -0.00000000000E+00  0.00000000000E+00  0.47230358772E+01  0.48908044223E+01  0.12700000000E+01 0.  1.
          4   -1    0    0  501    0  0.00000000000E+00 -0.00000000000E+00 -0.81244807247E+03  0.81244906509E+03  0.12700000000E+01 0.  1.
         25    2    1    2    0    0  0.00000000000E+00  0.00000000000E+00 -0.80772503660E+03  0.81733986951E+03  0.12499891020E+03 0.  0.
    9000005    1    3    3    0    0  0.29157309296E+02 -0.58915179284E+01 -0.76321708491E+03  0.76379720959E+03  0.10000000000E+01 0.  0.
    9000005    1    3    3    0    0 -0.29157309296E+02  0.58915179284E+01 -0.44507951681E+02  0.53542659924E+02  0.10000000000E+01 0.  0.
<mgrwt>
<rscale>  0 0.12499891E+03</rscale>
<asrwt>0</asrwt>
<pdfrwt beam="2">  1        4 0.12500488E+00 0.12499891E+03</pdfrwt>
<pdfrwt beam="1">  1       -4 0.73960318E-03 0.12499891E+03</pdfrwt>
<totfact> 0.37503179E+03</totfact>
</mgrwt>
</event>
<event>
 5    1  0.3304582E-002  0.1249988E+03  0.7818608E-02  0.1235071E+00
         -4   -1    0    0    0  501 -0.00000000000E+00  0.00000000000E+00  0.25299965927E+03  0.25300284681E+03  0.12700000000E+01 0. -1.
          4   -1    0    0  501    0  0.00000000000E+00 -0.00000000000E+00 -0.15410050539E+02  0.15462294707E+02  0.12700000000E+01 0. -1.
         25    2    1    2    0    0  0.00000000000E+00  0.00000000000E+00  0.23758960873E+03  0.26846514151E+03  0.12499884011E+03 0.  0.
    9000005    1    3    3    0    0  0.11466392295E+02 -0.29200468373E+01 -0.12992741201E+02  0.17601595089E+02  0.10000000000E+01 0.  0.
    9000005    1    3    3    0    0 -0.11466392295E+02  0.29200468373E+01  0.25058234993E+03  0.25086354642E+03  0.10000000000E+01 0.  0.
<mgrwt>
<rscale>  0 0.12499884E+03</rscale>
<asrwt>0</asrwt>
<pdfrwt beam="2">  1        4 0.23750410E-02 0.12499884E+03</pdfrwt>
<pdfrwt beam="1">  1       -4 0.38927288E-01 0.12499884E+03</pdfrwt>
<totfact> 0.79734639E+03</totfact>
</mgrwt>
</event>
<event>
 5    1  0.3304582E-002  0.1249992E+03  0.7818608E-02  0.1235071E+00
          4   -1    0    0  501    0  0.00000000000E+00  0.00000000000E+00  0.90362507297E+01  0.91250603971E+01  0.12700000000E+01 0.  1.
         -4   -1    0    0    0  501 -0.00000000000E+00 -0.00000000000E+00 -0.43007746351E+03  0.43007933863E+03  0.12700000000E+01 0.  1.
         25    2    1    2    0    0  0.00000000000E+00  0.00000000000E+00 -0.42104121278E+03  0.43920439903E+03  0.12499920507E+03 0.  0.
    9000005    1    3    3    0    0 -0.21577899719E+02 -0.58439316639E+02 -0.19314990245E+03  0.20294985662E+03  0.10000000000E+01 0.  0.
    9000005    1    3    3    0    0  0.21577899719E+02  0.58439316639E+02 -0.22789131033E+03  0.23625454241E+03  0.10000000000E+01 0.  0.
<mgrwt>
<rscale>  0 0.12499921E+03</rscale>
<asrwt>0</asrwt>
<pdfrwt beam="1">  1        4 0.13971685E-02 0.12499921E+03</pdfrwt>
<pdfrwt beam="2">  1       -4 0.66172723E-01 0.12499921E+03</pdfrwt>
<totfact> 0.60911513E+03</totfact>
</mgrwt>
</event>
<event>
 5    1  0.3304582E-002  0.1249963E+03  0.7818608E-02  0.1235075E+00
         -4   -1    0    0    0  501 -0.00000000000E+00  0.00000000000E+00  0.55712842630E+03  0.55712987381E+03  0.12700000000E+01 0. -1.
          4   -1    0    0  501    0  0.00000000000E+00 -0.00000000000E+00 -0.69520052942E+01  0.70670557950E+01  0.12700000000E+01 0. -1.
         25    2    1    2    0    0  0.00000000000E+00  0.00000000000E+00  0.55017642101E+03  0.56419692961E+03  0.12499632453E+03 0.  0.
    9000005    1    3    3    0    0  0.33405800588E+02 -0.40203492306E+02  0.42966225224E+03  0.43283128273E+03  0.10000000000E+01 0.  0.
    9000005    1    3    3    0    0 -0.33405800588E+02  0.40203492306E+02  0.12051416876E+03  0.13136564688E+03  0.10000000000E+01 0.  0.
<mgrwt>
<rscale>  0 0.12499632E+03</rscale>
<asrwt>0</asrwt>
<pdfrwt beam="2">  1        4 0.10785006E-02 0.12499632E+03</pdfrwt>
<pdfrwt beam="1">  1       -4 0.85721035E-01 0.12499632E+03</pdfrwt>
<totfact> 0.51212637E+03</totfact>
</mgrwt>
</event>
<event>
 5    1  0.3304582E-002  0.1249961E+03  0.7818608E-02  0.1235075E+00
          4   -1    0    0  501    0  0.00000000000E+00  0.00000000000E+00  0.81369186860E+02  0.81379097256E+02  0.12700000000E+01 0.  1.
         -4   -1    0    0    0  501 -0.00000000000E+00 -0.00000000000E+00 -0.47982238758E+02  0.47999043076E+02  0.12700000000E+01 0.  1.
         25    2    1    2    0    0  0.00000000000E+00  0.00000000000E+00  0.33386948101E+02  0.12937814033E+03  0.12499605951E+03 0.  0.
    9000005    1    3    3    0    0 -0.44021193618E+02 -0.31994940279E+02 -0.15099180851E+02  0.56484749742E+02  0.10000000000E+01 0.  0.
    9000005    1    3    3    0    0  0.44021193618E+02  0.31994940279E+02  0.48486128952E+02  0.72893390591E+02  0.10000000000E+01 0.  0.
<mgrwt>
<rscale>  0 0.12499606E+03</rscale>
<asrwt>0</asrwt>
<pdfrwt beam="1">  1        4 0.12520391E-01 0.12499606E+03</pdfrwt>
<pdfrwt beam="2">  1       -4 0.73839380E-02 0.12499606E+03</pdfrwt>
<totfact> 0.10358750E+04</totfact>
</mgrwt>
</event>
<event>
 5    1  0.3304582E-002  0.1250016E+03  0.7818608E-02  0.1235067E+00
          4   -1    0    0  501    0  0.00000000000E+00  0.00000000000E+00  0.93198066595E+02  0.93206719269E+02  0.12700000000E+01 0. -1.
         -4   -1    0    0    0  501 -0.00000000000E+00 -0.00000000000E+00 -0.41894270940E+02  0.41913516169E+02  0.12700000000E+01 0. -1.
         25    2    1    2    0    0  0.00000000000E+00  0.00000000000E+00  0.51303795654E+02  0.13512023544E+03  0.12500159430E+03 0.  0.
    9000005    1    3    3    0    0  0.23347874997E+02  0.43652722427E+02 -0.15575556135E+02  0.51906467720E+02  0.10000000000E+01 0.  0.
    9000005    1    3    3    0    0 -0.23347874997E+02 -0.43652722427E+02  0.66879351789E+02  0.83213767719E+02  0.10000000000E+01 0.  0.
<mgrwt>
<rscale>  0 0.12500159E+03</rscale>
<asrwt>0</asrwt>
<pdfrwt beam="1">  1        4 0.14340310E-01 0.12500159E+03</pdfrwt>
<pdfrwt beam="2">  1       -4 0.64474184E-02 0.12500159E+03</pdfrwt>
<totfact> 0.10235169E+04</totfact>
</mgrwt>
</event>
<event>
 5    1  0.3304582E-002  0.1249547E+03  0.7818608E-02  0.1235140E+00
          4   -1    0    0  501    0  0.00000000000E+00  0.00000000000E+00  0.28022300070E+03  0.28022587857E+03  0.12700000000E+01 0. -1.
         -4   -1    0    0    0  501 -0.00000000000E+00 -0.00000000000E+00 -0.13897795838E+02  0.13955702388E+02  0.12700000000E+01 0. -1.
         25    2    1    2    0    0  0.00000000000E+00  0.00000000000E+00  0.26632520486E+03  0.29418158096E+03  0.12495474313E+03 0.  0.
    9000005    1    3    3    0    0 -0.47483156953E+02 -0.35168073725E+02  0.85434715657E+02  0.10388230958E+03  0.10000000000E+01 0.  0.
    9000005    1    3    3    0    0  0.47483156953E+02  0.35168073725E+02  0.18089048920E+03  0.19029927138E+03  0.10000000000E+01 0.  0.
<mgrwt>
<rscale>  0 0.12495474E+03</rscale>
<asrwt>0</asrwt>
<pdfrwt beam="1">  1        4 0.43115901E-01 0.12495474E+03</pdfrwt>
<pdfrwt beam="2">  1       -4 0.21427984E-02 0.12495474E+03</pdfrwt>
<totfact> 0.76411308E+03</totfact>
</mgrwt>
</event>
<event>
 5    1  0.3304582E-002  0.1249979E+03  0.7818608E-02  0.1235073E+00
          4   -1    0    0  501    0  0.00000000000E+00  0.00000000000E+00  0.95392417281E+02  0.95400870933E+02  0.12700000000E+01 0. -1.
         -4   -1    0    0    0  501 -0.00000000000E+00 -0.00000000000E+00 -0.40927798093E+02  0.40947497564E+02  0.12700000000E+01 0. -1.
         25    2    1    2    0    0  0.00000000000E+00  0.00000000000E+00  0.54464619189E+02  0.13634836850E+03  0.12499793138E+03 0.  0.
    9000005    1    3    3    0    0  0.11366915169E+02  0.45529116758E+02  0.72247196410E+02  0.86155467745E+02  0.10000000000E+01 0.  0.
    9000005    1    3    3    0    0 -0.11366915169E+02 -0.45529116758E+02 -0.17782577221E+02  0.50192900752E+02  0.10000000000E+01 0.  0.
<mgrwt>
<rscale>  0 0.12499793E+03</rscale>
<asrwt>0</asrwt>
<pdfrwt beam="1">  1        4 0.14677922E-01 0.12499793E+03</pdfrwt>
<pdfrwt beam="2">  1       -4 0.62987499E-02 0.12499793E+03</pdfrwt>
<totfact> 0.10210205E+04</totfact>
</mgrwt>
</event>
<event>
 5    1  0.3304582E-002  0.1249886E+03  0.7818608E-02  0.1235087E+00
          4   -1    0    0  501    0  0.00000000000E+00  0.00000000000E+00  0.26590004375E+02  0.26620316164E+02  0.12700000000E+01 0.  1.
         -4   -1    0    0    0  501 -0.00000000000E+00 -0.00000000000E+00 -0.14676315075E+03  0.14676864556E+03  0.12700000000E+01 0.  1.
         25    2    1    2    0    0  0.00000000000E+00  0.00000000000E+00 -0.12017314638E+03  0.17338896172E+03  0.12498858723E+03 0.  0.
    9000005    1    3    3    0    0 -0.16565376751E+02 -0.52296684666E+02 -0.18580971992E+02  0.57927605285E+02  0.10000000000E+01 0.  0.
    9000005    1    3    3    0    0  0.16565376751E+02  0.52296684666E+02 -0.10159217439E+03  0.11546135644E+03  0.10000000000E+01 0.  0.
<mgrwt>
<rscale>  0 0.12498859E+03</rscale>
<asrwt>0</asrwt>
<pdfrwt beam="1">  1        4 0.40935243E-02 0.12498859E+03</pdfrwt>
<pdfrwt beam="2">  1       -4 0.22581700E-01 0.12498859E+03</pdfrwt>
<totfact> 0.94845014E+03</totfact>
</mgrwt>
</event>
<event>
 5    1  0.3304582E-002  0.1249999E+03  0.7818608E-02  0.1235069E+00
          4   -1    0    0  501    0  0.00000000000E+00  0.00000000000E+00  0.45901643443E+02  0.45919209170E+02  0.12700000000E+01 0.  1.
         -4   -1    0    0    0  501 -0.00000000000E+00 -0.00000000000E+00 -0.85061664305E+02  0.85071144546E+02  0.12700000000E+01 0.  1.
         25    2    1    2    0    0  0.00000000000E+00  0.00000000000E+00 -0.39160020862E+02  0.13099035372E+03  0.12499986213E+03 0.  0.
    9000005    1    3    3    0    0  0.30715111030E+02 -0.27200438348E+02  0.29816679674E+02  0.50727864913E+02  0.10000000000E+01 0.  0.
    9000005    1    3    3    0    0 -0.30715111030E+02  0.27200438348E+02 -0.68976700536E+02  0.80262488802E+02  0.10000000000E+01 0.  0.
<mgrwt>
<rscale>  0 0.12499986E+03</rscale>
<asrwt>0</asrwt>
<pdfrwt beam="1">  1        4 0.70638718E-02 0.12499986E+03</pdfrwt>
<pdfrwt beam="2">  1       -4 0.13088490E-01 0.12499986E+03</pdfrwt>
<totfact> 0.10323328E+04</totfact>
</mgrwt>
</event>
<event>
 5    1  0.3304582E-002  0.1249952E+03  0.7818608E-02  0.1235077E+00
          4   -1    0    0  501    0  0.00000000000E+00  0.00000000000E+00  0.83143780859E+02  0.83153479756E+02  0.12700000000E+01 0. -1.
         -4   -1    0    0    0  501 -0.00000000000E+00 -0.00000000000E+00 -0.46957218142E+02  0.46974389146E+02  0.12700000000E+01 0. -1.
         25    2    1    2    0    0  0.00000000000E+00  0.00000000000E+00  0.36186562717E+02  0.13012786890E+03  0.12499517968E+03 0.  0.
    9000005    1    3    3    0    0  0.45619632303E+02 -0.84419213016E+01  0.61675567913E+02  0.77183499300E+02  0.10000000000E+01 0.  0.
    9000005    1    3    3    0    0 -0.45619632303E+02  0.84419213016E+01 -0.25489005196E+02  0.52944369603E+02  0.10000000000E+01 0.  0.
<mgrwt>
<rscale>  0 0.12499518E+03</rscale>
<asrwt>0</asrwt>
<pdfrwt beam="1">  1        4 0.12793418E-01 0.12499518E+03</pdfrwt>
<pdfrwt beam="2">  1       -4 0.72262543E-02 0.12499518E+03</pdfrwt>
<totfact> 0.10342898E+04</totfact>
</mgrwt>
</event>
<event>
 5    1  0.3304582E-002  0.1249735E+03  0.7818608E-02  0.1235111E+00
          4   -1    0    0  501    0  0.00000000000E+00  0.00000000000E+00  0.40360350658E+02  0.40380326958E+02  0.12700000000E+01 0.  1.
         -4   -1    0    0    0  501 -0.00000000000E+00 -0.00000000000E+00 -0.96695248318E+02  0.96703588079E+02  0.12700000000E+01 0.  1.
         25    2    1    2    0    0  0.00000000000E+00  0.00000000000E+00 -0.56334897660E+02  0.13708391504E+03  0.12497351346E+03 0.  0.
    9000005    1    3    3    0    0 -0.54867360075E+02  0.18940919354E+02 -0.28100058347E+01  0.58121267712E+02  0.10000000000E+01 0.  0.
    9000005    1    3    3    0    0  0.54867360075E+02 -0.18940919354E+02 -0.53524891825E+02  0.78962647325E+02  0.10000000000E+01 0.  0.
<mgrwt>
<rscale>  0 0.12497351E+03</rscale>
<asrwt>0</asrwt>
<pdfrwt beam="1">  1        4 0.62114629E-02 0.12497351E+03</pdfrwt>
<pdfrwt beam="2">  1       -4 0.14878370E-01 0.12497351E+03</pdfrwt>
<totfact> 0.10200422E+04</totfact>
</mgrwt>
</event>
<event>
 5    1  0.3304582E-002  0.1249987E+03  0.7818608E-02  0.1235071E+00
         -4   -1    0    0    0  501 -0.00000000000E+00  0.00000000000E+00  0.20648234967E+04  0.20648238873E+04  0.12700000000E+01 0.  1.
          4   -1    0    0  501    0  0.00000000000E+00 -0.00000000000E+00 -0.16781871663E+01  0.21045693538E+01  0.12700000000E+01 0.  1.
         25    2    1    2    0    0  0.00000000000E+00  0.00000000000E+00  0.20631453096E+04  0.20669284567E+04  0.12499870613E+03 0.  0.
    9000005    1    3    3    0    0 -0.20734080051E+02 -0.20634395323E+01  0.20057719566E+04  0.20058804305E+04  0.10000000000E+01 0.  0.
    9000005    1    3    3    0    0  0.20734080051E+02  0.20634395323E+01  0.57373352995E+02  0.61048026112E+02  0.10000000000E+01 0.  0.
<mgrwt>
<rscale>  0 0.12499871E+03</rscale>
<asrwt>0</asrwt>
<pdfrwt beam="2">  1        4 0.29101065E-03 0.12499871E+03</pdfrwt>
<pdfrwt beam="1">  1       -4 0.31769871E+00 0.12499871E+03</pdfrwt>
<totfact> 0.90130195E+02</totfact>
</mgrwt>
</event>
<event>
 5    1  0.3304582E-002  0.1250049E+03  0.7818608E-02  0.1235062E+00
         -4   -1    0    0    0  501 -0.00000000000E+00  0.00000000000E+00  0.20233970043E+02  0.20273787108E+02  0.12700000000E+01 0. -1.
          4   -1    0    0  501    0  0.00000000000E+00 -0.00000000000E+00 -0.19283754839E+03  0.19284173036E+03  0.12700000000E+01 0. -1.
         25    2    1    2    0    0  0.00000000000E+00  0.00000000000E+00 -0.17260357835E+03  0.21311551747E+03  0.12500491402E+03 0.  0.
    9000005    1    3    3    0    0 -0.24566714897E+02 -0.12123914103E+02  0.94596627083E+01  0.28999965390E+02  0.10000000000E+01 0.  0.
    9000005    1    3    3    0    0  0.24566714897E+02  0.12123914103E+02 -0.18206324106E+03  0.18411555208E+03  0.10000000000E+01 0.  0.
<mgrwt>
<rscale>  0 0.12500491E+03</rscale>
<asrwt>0</asrwt>
<pdfrwt beam="2">  1        4 0.29670698E-01 0.12500491E+03</pdfrwt>
<pdfrwt beam="1">  1       -4 0.31163031E-02 0.12500491E+03</pdfrwt>
<totfact> 0.87959930E+03</totfact>
</mgrwt>
</event>
<event>
 5    1  0.3304582E-002  0.1249984E+03  0.7818608E-02  0.1235072E+00
         -4   -1    0    0    0  501 -0.00000000000E+00  0.00000000000E+00  0.24285377907E+03  0.24285709977E+03  0.12700000000E+01 0. -1.
          4   -1    0    0  501    0  0.00000000000E+00 -0.00000000000E+00 -0.16055864627E+02  0.16106014060E+02  0.12700000000E+01 0. -1.
         25    2    1    2    0    0  0.00000000000E+00  0.00000000000E+00  0.22679791444E+03  0.25896311383E+03  0.12499840130E+03 0.  0.
    9000005    1    3    3    0    0 -0.55760956482E+01  0.31778059492E+02  0.22427457257E+03  0.22658557282E+03  0.10000000000E+01 0.  0.
    9000005    1    3    3    0    0  0.55760956482E+01 -0.31778059492E+02  0.25233418727E+01  0.32377541011E+02  0.10000000000E+01 0.  0.
<mgrwt>
<rscale>  0 0.12499840E+03</rscale>
<asrwt>0</asrwt>
<pdfrwt beam="2">  1        4 0.24742463E-02 0.12499840E+03</pdfrwt>
<pdfrwt beam="1">  1       -4 0.37366230E-01 0.12499840E+03</pdfrwt>
<totfact> 0.81054680E+03</totfact>
</mgrwt>
</event>
<event>
 5    1  0.3304582E-002  0.1250019E+03  0.7818608E-02  0.1235066E+00
         -4   -1    0    0    0  501 -0.00000000000E+00  0.00000000000E+00  0.78117107480E+01  0.79142734860E+01  0.12700000000E+01 0.  1.
          4   -1    0    0  501    0  0.00000000000E+00 -0.00000000000E+00 -0.49670067096E+03  0.49670229457E+03  0.12700000000E+01 0.  1.
         25    2    1    2    0    0  0.00000000000E+00  0.00000000000E+00 -0.48888896021E+03  0.50461656805E+03  0.12500186135E+03 0.  0.
    9000005    1    3    3    0    0 -0.42060973480E+02  0.45674010319E+02 -0.27302531639E+03  0.27999832874E+03  0.10000000000E+01 0.  0.
    9000005    1    3    3    0    0  0.42060973480E+02 -0.45674010319E+02 -0.21586364382E+03  0.22461823931E+03  0.10000000000E+01 0.  0.
<mgrwt>
<rscale>  0 0.12500186E+03</rscale>
<asrwt>0</asrwt>
<pdfrwt beam="2">  1        4 0.76423478E-01 0.12500186E+03</pdfrwt>
<pdfrwt beam="1">  1       -4 0.12098164E-02 0.12500186E+03</pdfrwt>
<totfact> 0.55505688E+03</totfact>
</mgrwt>
</event>
<event>
 5    1  0.3304582E-002  0.1249995E+03  0.7818608E-02  0.1235070E+00
         -4   -1    0    0    0  501 -0.00000000000E+00  0.00000000000E+00  0.11211028197E+03  0.11211747511E+03  0.12700000000E+01 0. -1.
          4   -1    0    0  501    0  0.00000000000E+00 -0.00000000000E+00 -0.34822736969E+02  0.34845887992E+02  0.12700000000E+01 0. -1.
         25    2    1    2    0    0  0.00000000000E+00  0.00000000000E+00  0.77287545006E+02  0.14696336310E+03  0.12499946192E+03 0.  0.
    9000005    1    3    3    0    0  0.23901825840E+02 -0.56540962547E+02  0.24880475948E+02  0.66243609561E+02  0.10000000000E+01 0.  0.
    9000005    1    3    3    0    0 -0.23901825840E+02  0.56540962547E+02  0.52407069058E+02  0.80719753539E+02  0.10000000000E+01 0.  0.
<mgrwt>
<rscale>  0 0.12499946E+03</rscale>
<asrwt>0</asrwt>
<pdfrwt beam="2">  1        4 0.53596784E-02 0.12499946E+03</pdfrwt>
<pdfrwt beam="1">  1       -4 0.17250070E-01 0.12499946E+03</pdfrwt>
<totfact> 0.99913698E+03</totfact>
</mgrwt>
</event>
<event>
 5    1  0.3304582E-002  0.1250015E+03  0.7818608E-02  0.1235067E+00
         -4   -1    0    0    0  501 -0.00000000000E+00  0.00000000000E+00  0.20845755589E+03  0.20846142451E+03  0.12700000000E+01 0. -1.
          4   -1    0    0  501    0  0.00000000000E+00 -0.00000000000E+00 -0.18713698873E+02  0.18756743468E+02  0.12700000000E+01 0. -1.
         25    2    1    2    0    0  0.00000000000E+00  0.00000000000E+00  0.18974385702E+03  0.22721816798E+03  0.12500145832E+03 0.  0.
    9000005    1    3    3    0    0 -0.19276811417E+02  0.78179503871E+01  0.20198856794E+03  0.20305934449E+03  0.10000000000E+01 0.  0.
    9000005    1    3    3    0    0  0.19276811417E+02 -0.78179503871E+01 -0.12244710922E+02  0.24158823486E+02  0.10000000000E+01 0.  0.
<mgrwt>
<rscale>  0 0.12500146E+03</rscale>
<asrwt>0</asrwt>
<pdfrwt beam="2">  1        4 0.28826391E-02 0.12500146E+03</pdfrwt>
<pdfrwt beam="1">  1       -4 0.32074004E-01 0.12500146E+03</pdfrwt>
<totfact> 0.85735795E+03</totfact>
</mgrwt>
</event>
<event>
 5    1  0.3304582E-002  0.1249998E+03  0.7818608E-02  0.1235070E+00
         -4   -1    0    0    0  501 -0.00000000000E+00  0.00000000000E+00  0.30503742896E+02  0.30530169188E+02  0.12700000000E+01 0.  1.
          4   -1    0    0  501    0  0.00000000000E+00 -0.00000000000E+00 -0.12797257707E+03  0.12797887865E+03  0.12700000000E+01 0.  1.
         25    2    1    2    0    0  0.00000000000E+00  0.00000000000E+00 -0.97468834169E+02  0.15850904784E+03  0.12499977845E+03 0.  0.
    9000005    1    3    3    0    0  0.33119131312E+02  0.41362121252E+02 -0.67243041668E+01  0.53422075960E+02  0.10000000000E+01 0.  0.
    9000005    1    3    3    0    0 -0.33119131312E+02 -0.41362121252E+02 -0.90744530003E+02  0.10508697188E+03  0.10000000000E+01 0.  0.
<mgrwt>
<rscale>  0 0.12499978E+03</rscale>
<asrwt>0</asrwt>
<pdfrwt beam="2">  1        4 0.19690606E-01 0.12499978E+03</pdfrwt>
<pdfrwt beam="1">  1       -4 0.46954011E-02 0.12499978E+03</pdfrwt>
<totfact> 0.97631487E+03</totfact>
</mgrwt>
</event>
<event>
 5    1  0.3304582E-002  0.1249994E+03  0.7818608E-02  0.1235070E+00
          4   -1    0    0  501    0  0.00000000000E+00  0.00000000000E+00  0.22253415118E+03  0.22253777509E+03  0.12700000000E+01 0.  1.
         -4   -1    0    0    0  501 -0.00000000000E+00 -0.00000000000E+00 -0.17526561693E+02  0.17572514470E+02  0.12700000000E+01 0.  1.
         25    2    1    2    0    0  0.00000000000E+00  0.00000000000E+00  0.20500758949E+03  0.24011028956E+03  0.12499935762E+03 0.  0.
    9000005    1    3    3    0    0  0.26653036420E+02 -0.82716869359E+01 -0.49014743507E+01  0.28351888931E+02  0.10000000000E+01 0.  0.
    9000005    1    3    3    0    0 -0.26653036420E+02  0.82716869359E+01  0.20990906384E+03  0.21175840063E+03  0.10000000000E+01 0.  0.
<mgrwt>
<rscale>  0 0.12499936E+03</rscale>
<asrwt>0</asrwt>
<pdfrwt beam="1">  1        4 0.34239837E-01 0.12499936E+03</pdfrwt>
<pdfrwt beam="2">  1       -4 0.27002077E-02 0.12499936E+03</pdfrwt>
<totfact> 0.83782143E+03</totfact>
</mgrwt>
</event>
<event>
 5    1  0.3304582E-002  0.1250007E+03  0.7818608E-02  0.1235068E+00
          4   -1    0    0  501    0  0.00000000000E+00  0.00000000000E+00  0.14950646502E+02  0.15004490356E+02  0.12700000000E+01 0.  1.
         -4   -1    0    0    0  501 -0.00000000000E+00 -0.00000000000E+00 -0.26075415262E+03  0.26075724536E+03  0.12700000000E+01 0.  1.
         25    2    1    2    0    0  0.00000000000E+00  0.00000000000E+00 -0.24580350612E+03  0.27576173572E+03  0.12500068506E+03 0.  0.
    9000005    1    3    3    0    0 -0.45206178079E+02  0.24875922103E+02 -0.20067615787E+03  0.20720600950E+03  0.10000000000E+01 0.  0.
    9000005    1    3    3    0    0  0.45206178079E+02 -0.24875922103E+02 -0.45127348253E+02  0.68555726219E+02  0.10000000000E+01 0.  0.
<mgrwt>
<rscale>  0 0.12500069E+03</rscale>
<asrwt>0</asrwt>
<pdfrwt beam="1">  1        4 0.23044794E-02 0.12500069E+03</pdfrwt>
<pdfrwt beam="2">  1       -4 0.40120400E-01 0.12500069E+03</pdfrwt>
<totfact> 0.78742247E+03</totfact>
</mgrwt>
</event>
<event>
 5    1  0.3304582E-002  0.1249999E+03  0.7818608E-02  0.1235069E+00
         -4   -1    0    0    0  501 -0.00000000000E+00  0.00000000000E+00  0.15477274782E+02  0.15529292794E+02  0.12700000000E+01 0.  1.
          4   -1    0    0  501    0  0.00000000000E+00 -0.00000000000E+00 -0.25190866782E+03  0.25191186916E+03  0.12700000000E+01 0.  1.
         25    2    1    2    0    0  0.00000000000E+00  0.00000000000E+00 -0.23643139304E+03  0.26744116195E+03  0.12499988597E+03 0.  0.
    9000005    1    3    3    0    0  0.51159907427E+01  0.28040845528E+02 -0.23720096159E+03  0.23890951961E+03  0.10000000000E+01 0.  0.
    9000005    1    3    3    0    0 -0.51159907427E+01 -0.28040845528E+02  0.76956855199E+00  0.28531642346E+02  0.10000000000E+01 0.  0.
<mgrwt>
<rscale>  0 0.12499989E+03</rscale>
<asrwt>0</asrwt>
<pdfrwt beam="2">  1        4 0.38759424E-01 0.12499989E+03</pdfrwt>
<pdfrwt beam="1">  1       -4 0.23853670E-02 0.12499989E+03</pdfrwt>
<totfact> 0.79873213E+03</totfact>
</mgrwt>
</event>
<event>
 5    1  0.3304582E-002  0.1250018E+03  0.7818608E-02  0.1235067E+00
          4   -1    0    0  501    0  0.00000000000E+00  0.00000000000E+00  0.22234042765E+03  0.22234405471E+03  0.12700000000E+01 0.  1.
         -4   -1    0    0    0  501 -0.00000000000E+00 -0.00000000000E+00 -0.17542549310E+02  0.17588460316E+02  0.12700000000E+01 0.  1.
         25    2    1    2    0    0  0.00000000000E+00  0.00000000000E+00  0.20479787834E+03  0.23993251503E+03  0.12500176318E+03 0.  0.
    9000005    1    3    3    0    0 -0.47571653207E+02 -0.12111202403E+02  0.28168311457E+02  0.56605628543E+02  0.10000000000E+01 0.  0.
    9000005    1    3    3    0    0  0.47571653207E+02  0.12111202403E+02  0.17662956688E+03  0.18332688649E+03  0.10000000000E+01 0.  0.
<mgrwt>
<rscale>  0 0.12500176E+03</rscale>
<asrwt>0</asrwt>
<pdfrwt beam="1">  1        4 0.34210030E-01 0.12500176E+03</pdfrwt>
<pdfrwt beam="2">  1       -4 0.27026644E-02 0.12500176E+03</pdfrwt>
<totfact> 0.83804124E+03</totfact>
</mgrwt>
</event>
<event>
 5    1  0.3304582E-002  0.1249988E+03  0.7818608E-02  0.1235071E+00
          4   -1    0    0  501    0  0.00000000000E+00  0.00000000000E+00  0.10686159829E+03  0.10686914470E+03  0.12700000000E+01 0. -1.
         -4   -1    0    0    0  501 -0.00000000000E+00 -0.00000000000E+00 -0.36533709525E+02  0.36555776995E+02  0.12700000000E+01 0. -1.
         25    2    1    2    0    0  0.00000000000E+00  0.00000000000E+00  0.70327888761E+02  0.14342492169E+03  0.12499878489E+03 0.  0.
    9000005    1    3    3    0    0 -0.44630815142E+02 -0.24595102469E+02  0.76666995427E+02  0.92063330993E+02  0.10000000000E+01 0.  0.
    9000005    1    3    3    0    0  0.44630815142E+02  0.24595102469E+02 -0.63391066662E+01  0.51361590698E+02  0.10000000000E+01 0.  0.
<mgrwt>
<rscale>  0 0.12499878E+03</rscale>
<asrwt>0</asrwt>
<pdfrwt beam="1">  1        4 0.16442524E-01 0.12499878E+03</pdfrwt>
<pdfrwt beam="2">  1       -4 0.56228487E-02 0.12499878E+03</pdfrwt>
<totfact> 0.10063364E+04</totfact>
</mgrwt>
</event>
<event>
 5    1  0.3304582E-002  0.1249997E+03  0.7818608E-02  0.1235070E+00
         -4   -1    0    0    0  501 -0.00000000000E+00  0.00000000000E+00  0.46937626023E+02  0.46954804192E+02  0.12700000000E+01 0. -1.
          4   -1    0    0  501    0  0.00000000000E+00 -0.00000000000E+00 -0.83184484775E+02  0.83194178927E+02  0.12700000000E+01 0. -1.
         25    2    1    2    0    0  0.00000000000E+00  0.00000000000E+00 -0.36246858752E+02  0.13014898312E+03  0.12499969215E+03 0.  0.
    9000005    1    3    3    0    0  0.19386087242E+02 -0.32099560961E+02  0.33926176595E+02  0.50578529544E+02  0.10000000000E+01 0.  0.
    9000005    1    3    3    0    0 -0.19386087242E+02  0.32099560961E+02 -0.70173035346E+02  0.79570453575E+02  0.10000000000E+01 0.  0.
<mgrwt>
<rscale>  0 0.12499969E+03</rscale>
<asrwt>0</asrwt>
<pdfrwt beam="2">  1        4 0.12799680E-01 0.12499969E+03</pdfrwt>
<pdfrwt beam="1">  1       -4 0.72232404E-02 0.12499969E+03</pdfrwt>
<totfact> 0.10341393E+04</totfact>
</mgrwt>
</event>
<event>
 5    1  0.3304582E-002  0.1249995E+03  0.7818608E-02  0.1235070E+00
         -4   -1    0    0    0  501 -0.00000000000E+00  0.00000000000E+00  0.49527663214E+02  0.49543943358E+02  0.12700000000E+01 0. -1.
          4   -1    0    0  501    0  0.00000000000E+00 -0.00000000000E+00 -0.78835041558E+02  0.78845270482E+02  0.12700000000E+01 0. -1.
         25    2    1    2    0    0  0.00000000000E+00  0.00000000000E+00 -0.29307378343E+02  0.12838921384E+03  0.12499947122E+03 0.  0.
    9000005    1    3    3    0    0  0.10118950732E+02  0.24949212873E+02  0.43270310657E+02  0.50972307886E+02  0.10000000000E+01 0.  0.
    9000005    1    3    3    0    0 -0.10118950732E+02 -0.24949212873E+02 -0.72577689000E+02  0.77416905954E+02  0.10000000000E+01 0.  0.
<mgrwt>
<rscale>  0 0.12499947E+03</rscale>
<asrwt>0</asrwt>
<pdfrwt beam="2">  1        4 0.12130507E-01 0.12499947E+03</pdfrwt>
<pdfrwt beam="1">  1       -4 0.76216797E-02 0.12499947E+03</pdfrwt>
<totfact> 0.10379215E+04</totfact>
</mgrwt>
</event>
<event>
 5    1  0.3304582E-002  0.1249776E+03  0.7818608E-02  0.1235104E+00
          4   -1    0    0  501    0  0.00000000000E+00  0.00000000000E+00  0.22315564420E+02  0.22351673659E+02  0.12700000000E+01 0. -1.
         -4   -1    0    0    0  501 -0.00000000000E+00 -0.00000000000E+00 -0.17480330617E+03  0.17480791958E+03  0.12700000000E+01 0. -1.
         25    2    1    2    0    0  0.00000000000E+00  0.00000000000E+00 -0.15248774175E+03  0.19715959324E+03  0.12497757328E+03 0.  0.
    9000005    1    3    3    0    0  0.50936715487E+02  0.24873867558E+02 -0.11770069473E+03  0.13064345300E+03  0.10000000000E+01 0.  0.
    9000005    1    3    3    0    0 -0.50936715487E+02 -0.24873867558E+02 -0.34787047021E+02  0.66516140240E+02  0.10000000000E+01 0.  0.
<mgrwt>
<rscale>  0 0.12497757E+03</rscale>
<asrwt>0</asrwt>
<pdfrwt beam="1">  1        4 0.34362964E-02 0.12497757E+03</pdfrwt>
<pdfrwt beam="2">  1       -4 0.26895948E-01 0.12497757E+03</pdfrwt>
<totfact> 0.90661782E+03</totfact>
</mgrwt>
</event>
<event>
 5    1  0.3304582E-002  0.1250024E+03  0.7818608E-02  0.1235065E+00
         -4   -1    0    0    0  501 -0.00000000000E+00  0.00000000000E+00  0.93748079991E+02  0.93756681906E+02  0.12700000000E+01 0.  1.
          4   -1    0    0  501    0  0.00000000000E+00 -0.00000000000E+00 -0.41648954182E+02  0.41668312715E+02  0.12700000000E+01 0.  1.
         25    2    1    2    0    0  0.00000000000E+00  0.00000000000E+00  0.52099125809E+02  0.13542499462E+03  0.12500244101E+03 0.  0.
    9000005    1    3    3    0    0 -0.32037472349E+02 -0.53245413189E+02  0.33230076666E+02  0.70474900889E+02  0.10000000000E+01 0.  0.
    9000005    1    3    3    0    0  0.32037472349E+02  0.53245413189E+02  0.18869049143E+02  0.64950093731E+02  0.10000000000E+01 0.  0.
<mgrwt>
<rscale>  0 0.12500244E+03</rscale>
<asrwt>0</asrwt>
<pdfrwt beam="2">  1        4 0.64096823E-02 0.12500244E+03</pdfrwt>
<pdfrwt beam="1">  1       -4 0.14424932E-01 0.12500244E+03</pdfrwt>
<totfact> 0.10228558E+04</totfact>
</mgrwt>
</event>
<event>
 5    1  0.3304582E-002  0.1250004E+03  0.7818608E-02  0.1235069E+00
         -4   -1    0    0    0  501 -0.00000000000E+00  0.00000000000E+00  0.42720076676E+03  0.42720265451E+03  0.12700000000E+01 0. -1.
          4   -1    0    0  501    0  0.00000000000E+00 -0.00000000000E+00 -0.90978724241E+01  0.91860863617E+01  0.12700000000E+01 0. -1.
         25    2    1    2    0    0  0.00000000000E+00  0.00000000000E+00  0.41810289434E+03  0.43638874088E+03  0.12500041163E+03 0.  0.
    9000005    1    3    3    0    0  0.53215416015E+02  0.16775434022E+02  0.11080446670E+03  0.12406419922E+03  0.10000000000E+01 0.  0.
    9000005    1    3    3    0    0 -0.53215416015E+02 -0.16775434022E+02  0.30729842764E+03  0.31232454165E+03  0.10000000000E+01 0.  0.
<mgrwt>
<rscale>  0 0.12500041E+03</rscale>
<asrwt>0</asrwt>
<pdfrwt beam="2">  1        4 0.14066040E-02 0.12500041E+03</pdfrwt>
<pdfrwt beam="1">  1       -4 0.65730106E-01 0.12500041E+03</pdfrwt>
<totfact> 0.61160584E+03</totfact>
</mgrwt>
</event>
<event>
 5    1  0.3304582E-002  0.1250024E+03  0.7818608E-02  0.1235066E+00
         -4   -1    0    0    0  501 -0.00000000000E+00  0.00000000000E+00  0.12274379233E+04  0.12274385803E+04  0.12700000000E+01 0.  1.
          4   -1    0    0  501    0  0.00000000000E+00 -0.00000000000E+00 -0.30551817778E+01  0.33086304863E+01  0.12700000000E+01 0.  1.
         25    2    1    2    0    0  0.00000000000E+00  0.00000000000E+00  0.12243827415E+04  0.12307472108E+04  0.12500239665E+03 0.  0.
    9000005    1    3    3    0    0  0.61745686438E+02  0.80396075053E+01  0.66450829229E+03  0.66741998442E+03  0.10000000000E+01 0.  0.
    9000005    1    3    3    0    0 -0.61745686438E+02 -0.80396075053E+01  0.55987444924E+03  0.56332722640E+03  0.10000000000E+01 0.  0.
<mgrwt>
<rscale>  0 0.12500240E+03</rscale>
<asrwt>0</asrwt>
<pdfrwt beam="2">  1        4 0.48957456E-03 0.12500240E+03</pdfrwt>
<pdfrwt beam="1">  1       -4 0.18885615E+00 0.12500240E+03</pdfrwt>
<totfact> 0.23920587E+03</totfact>
</mgrwt>
</event>
<event>
 5    1  0.3304582E-002  0.1250142E+03  0.7818608E-02  0.1235047E+00
         -4   -1    0    0    0  501 -0.00000000000E+00  0.00000000000E+00  0.63259581977E+02  0.63272328960E+02  0.12700000000E+01 0. -1.
          4   -1    0    0  501    0  0.00000000000E+00 -0.00000000000E+00 -0.61738090479E+02  0.61751151535E+02  0.12700000000E+01 0. -1.
         25    2    1    2    0    0  0.00000000000E+00  0.00000000000E+00  0.15214914990E+01  0.12502348049E+03  0.12501422215E+03 0.  0.
    9000005    1    3    3    0    0 -0.12321297326E+02 -0.40829066900E+02 -0.44929746043E+02  0.61955703137E+02  0.10000000000E+01 0.  0.
    9000005    1    3    3    0    0  0.12321297326E+02  0.40829066900E+02  0.46451237542E+02  0.63067777358E+02  0.10000000000E+01 0.  0.
<mgrwt>
<rscale>  0 0.12501422E+03</rscale>
<asrwt>0</asrwt>
<pdfrwt beam="2">  1        4 0.95001530E-02 0.12501422E+03</pdfrwt>
<pdfrwt beam="1">  1       -4 0.97342286E-02 0.12501422E+03</pdfrwt>
<totfact> 0.10448994E+04</totfact>
</mgrwt>
</event>
<event>
 5    1  0.3304582E-002  0.1250013E+03  0.7818608E-02  0.1235067E+00
          4   -1    0    0  501    0  0.00000000000E+00  0.00000000000E+00  0.96261191347E+01  0.97095349835E+01  0.12700000000E+01 0. -1.
         -4   -1    0    0    0  501 -0.00000000000E+00 -0.00000000000E+00 -0.40397014863E+03  0.40397214493E+03  0.12700000000E+01 0. -1.
         25    2    1    2    0    0  0.00000000000E+00  0.00000000000E+00 -0.39434402949E+03  0.41368167992E+03  0.12500127480E+03 0.  0.
    9000005    1    3    3    0    0  0.52857391287E+02 -0.18088026441E+02 -0.28985048949E+03  0.29518703693E+03  0.10000000000E+01 0.  0.
    9000005    1    3    3    0    0 -0.52857391287E+02  0.18088026441E+02 -0.10449354001E+03  0.11849464299E+03  0.10000000000E+01 0.  0.
<mgrwt>
<rscale>  0 0.12500127E+03</rscale>
<asrwt>0</asrwt>
<pdfrwt beam="1">  1        4 0.14875119E-02 0.12500127E+03</pdfrwt>
<pdfrwt beam="2">  1       -4 0.62155811E-01 0.12500127E+03</pdfrwt>
<totfact> 0.63241754E+03</totfact>
</mgrwt>
</event>
<event>
 5    1  0.3304582E-002  0.1249960E+03  0.7818608E-02  0.1235075E+00
         -4   -1    0    0    0  501 -0.00000000000E+00  0.00000000000E+00  0.22239249514E+03  0.22239612136E+03  0.12700000000E+01 0.  1.
          4   -1    0    0  501    0  0.00000000000E+00 -0.00000000000E+00 -0.17536815762E+02  0.17582741739E+02  0.12700000000E+01 0.  1.
         25    2    1    2    0    0  0.00000000000E+00  0.00000000000E+00  0.20485567938E+03  0.23997886310E+03  0.12499602137E+03 0.  0.
    9000005    1    3    3    0    0  0.13462287978E+02 -0.42440575570E+01 -0.14445436681E+02  0.20221668158E+02  0.10000000000E+01 0.  0.
    9000005    1    3    3    0    0 -0.13462287978E+02  0.42440575570E+01  0.21930111606E+03  0.21975719494E+03  0.10000000000E+01 0.  0.
<mgrwt>
<rscale>  0 0.12499602E+03</rscale>
<asrwt>0</asrwt>
<pdfrwt beam="2">  1        4 0.27017831E-02 0.12499602E+03</pdfrwt>
<pdfrwt beam="1">  1       -4 0.34218045E-01 0.12499602E+03</pdfrwt>
<totfact> 0.83807945E+03</totfact>
</mgrwt>
</event>
<event>
 5    1  0.3304582E-002  0.1249980E+03  0.7818608E-02  0.1235072E+00
         -4   -1    0    0    0  501 -0.00000000000E+00  0.00000000000E+00  0.16059937514E+02  0.16110074269E+02  0.12700000000E+01 0. -1.
          4   -1    0    0  501    0  0.00000000000E+00 -0.00000000000E+00 -0.24279074864E+03  0.24279407020E+03  0.12700000000E+01 0. -1.
         25    2    1    2    0    0  0.00000000000E+00  0.00000000000E+00 -0.22673081113E+03  0.25890414447E+03  0.12499798122E+03 0.  0.
    9000005    1    3    3    0    0 -0.16160978299E+02  0.60083099770E+02 -0.12543712869E+03  0.14002367425E+03  0.10000000000E+01 0.  0.
    9000005    1    3    3    0    0  0.16160978299E+02 -0.60083099770E+02 -0.10129368244E+03  0.11888047022E+03  0.10000000000E+01 0.  0.
<mgrwt>
<rscale>  0 0.12499798E+03</rscale>
<asrwt>0</asrwt>
<pdfrwt beam="2">  1        4 0.37356532E-01 0.12499798E+03</pdfrwt>
<pdfrwt beam="1">  1       -4 0.24748720E-02 0.12499798E+03</pdfrwt>
<totfact> 0.81063739E+03</totfact>
</mgrwt>
</event>
<event>
 5    1  0.3304582E-002  0.1249964E+03  0.7818608E-02  0.1235075E+00
         -4   -1    0    0    0  501 -0.00000000000E+00  0.00000000000E+00  0.11641643940E+02  0.11710711918E+02  0.12700000000E+01 0.  1.
          4   -1    0    0  501    0  0.00000000000E+00 -0.00000000000E+00 -0.33445893869E+03  0.33446134989E+03  0.12700000000E+01 0.  1.
         25    2    1    2    0    0  0.00000000000E+00  0.00000000000E+00 -0.32281729475E+03  0.34617206181E+03  0.12499636229E+03 0.  0.
    9000005    1    3    3    0    0 -0.55462877384E+02  0.93869890916E+01 -0.86031762618E+02  0.10279450623E+03  0.10000000000E+01 0.  0.
    9000005    1    3    3    0    0  0.55462877384E+02 -0.93869890916E+01 -0.23678553214E+03  0.24337755558E+03  0.10000000000E+01 0.  0.
<mgrwt>
<rscale>  0 0.12499636E+03</rscale>
<asrwt>0</asrwt>
<pdfrwt beam="2">  1        4 0.51460712E-01 0.12499636E+03</pdfrwt>
<pdfrwt beam="1">  1       -4 0.17965208E-02 0.12499636E+03</pdfrwt>
<totfact> 0.70153391E+03</totfact>
</mgrwt>
</event>
<event>
 5    1  0.3304582E-002  0.1250046E+03  0.7818608E-02  0.1235062E+00
         -4   -1    0    0    0  501 -0.00000000000E+00  0.00000000000E+00  0.24506587812E+01  0.27601863093E+01  0.12700000000E+01 0.  1.
          4   -1    0    0  501    0  0.00000000000E+00 -0.00000000000E+00 -0.14990782117E+04  0.14990787497E+04  0.12700000000E+01 0.  1.
         25    2    1    2    0    0  0.00000000000E+00  0.00000000000E+00 -0.14966275529E+04  0.15018389360E+04  0.12500462971E+03 0.  0.
    9000005    1    3    3    0    0 -0.38695381743E+02  0.42659341927E+02 -0.45688735633E+03  0.46050429791E+03  0.10000000000E+01 0.  0.
    9000005    1    3    3    0    0  0.38695381743E+02 -0.42659341927E+02 -0.10397401966E+04  0.10413346381E+04  0.10000000000E+01 0.  0.
<mgrwt>
<rscale>  0 0.12500463E+03</rscale>
<asrwt>0</asrwt>
<pdfrwt beam="2">  1        4 0.23065058E+00 0.12500463E+03</pdfrwt>
<pdfrwt beam="1">  1       -4 0.40087682E-03 0.12500463E+03</pdfrwt>
<totfact> 0.17892590E+03</totfact>
</mgrwt>
</event>
<event>
 5    1  0.3304582E-002  0.1249991E+03  0.7818608E-02  0.1235071E+00
          4   -1    0    0  501    0  0.00000000000E+00  0.00000000000E+00  0.64565724714E+03  0.64565849618E+03  0.12700000000E+01 0. -1.
         -4   -1    0    0    0  501 -0.00000000000E+00 -0.00000000000E+00 -0.59820335331E+01  0.61153597761E+01  0.12700000000E+01 0. -1.
         25    2    1    2    0    0  0.00000000000E+00  0.00000000000E+00  0.63967521361E+03  0.65177385596E+03  0.12499912160E+03 0.  0.
    9000005    1    3    3    0    0 -0.31555383948E+02 -0.32674109799E+02  0.96059425519E+02  0.10626266013E+03  0.10000000000E+01 0.  0.
    9000005    1    3    3    0    0  0.31555383948E+02  0.32674109799E+02  0.54361578809E+03  0.54551119582E+03  0.10000000000E+01 0.  0.
<mgrwt>
<rscale>  0 0.12499912E+03</rscale>
<asrwt>0</asrwt>
<pdfrwt beam="1">  1        4 0.99342185E-01 0.12499912E+03</pdfrwt>
<pdfrwt beam="2">  1       -4 0.93066527E-03 0.12499912E+03</pdfrwt>
<totfact> 0.45755200E+03</totfact>
</mgrwt>
</event>
<event>
 5    1  0.3304582E-002  0.1250009E+03  0.7818608E-02  0.1235068E+00
         -4   -1    0    0    0  501 -0.00000000000E+00  0.00000000000E+00  0.14360432215E+03  0.14360993782E+03  0.12700000000E+01 0.  1.
          4   -1    0    0  501    0  0.00000000000E+00 -0.00000000000E+00 -0.27180908437E+02  0.27210561984E+02  0.12700000000E+01 0.  1.
         25    2    1    2    0    0  0.00000000000E+00  0.00000000000E+00  0.11642341372E+03  0.17082049981E+03  0.12500092757E+03 0.  0.
    9000005    1    3    3    0    0 -0.36393884755E+02  0.50281196035E+02  0.48301180641E+02  0.78655690027E+02  0.10000000000E+01 0.  0.
    9000005    1    3    3    0    0  0.36393884755E+02 -0.50281196035E+02  0.68122233076E+02  0.92164809779E+02  0.10000000000E+01 0.  0.
<mgrwt>
<rscale>  0 0.12500093E+03</rscale>
<asrwt>0</asrwt>
<pdfrwt beam="2">  1        4 0.41843913E-02 0.12500093E+03</pdfrwt>
<pdfrwt beam="1">  1       -4 0.22095685E-01 0.12500093E+03</pdfrwt>
<totfact> 0.95293943E+03</totfact>
</mgrwt>
</event>
<event>
 5    1  0.3304582E-002  0.1250029E+03  0.7818608E-02  0.1235065E+00
          4   -1    0    0  501    0  0.00000000000E+00  0.00000000000E+00  0.53820455401E+03  0.53820605241E+03  0.12700000000E+01 0. -1.
         -4   -1    0    0    0  501 -0.00000000000E+00 -0.00000000000E+00 -0.72011922760E+01  0.73123231737E+01  0.12700000000E+01 0. -1.
         25    2    1    2    0    0  0.00000000000E+00  0.00000000000E+00  0.53100336173E+03  0.54551837559E+03  0.12500291170E+03 0.  0.
    9000005    1    3    3    0    0  0.45432700835E+02  0.34633776975E+02  0.15494367820E+03  0.16514288428E+03  0.10000000000E+01 0.  0.
    9000005    1    3    3    0    0 -0.45432700835E+02 -0.34633776975E+02  0.37605968353E+03  0.38037549131E+03  0.10000000000E+01 0.  0.
<mgrwt>
<rscale>  0 0.12500291E+03</rscale>
<asrwt>0</asrwt>
<pdfrwt beam="1">  1        4 0.82809379E-01 0.12500291E+03</pdfrwt>
<pdfrwt beam="2">  1       -4 0.11165393E-02 0.12500291E+03</pdfrwt>
<totfact> 0.52494570E+03</totfact>
</mgrwt>
</event>
<event>
 5    1  0.3304582E-002  0.1250008E+03  0.7818608E-02  0.1235068E+00
          4   -1    0    0  501    0  0.00000000000E+00  0.00000000000E+00  0.38508958866E+01  0.40549104958E+01  0.12700000000E+01 0.  1.
         -4   -1    0    0    0  501 -0.00000000000E+00 -0.00000000000E+00 -0.98800623843E+03  0.98800705467E+03  0.12700000000E+01 0.  1.
         25    2    1    2    0    0  0.00000000000E+00  0.00000000000E+00 -0.98415534254E+03  0.99206196516E+03  0.12500081788E+03 0.  0.
    9000005    1    3    3    0    0 -0.57252835385E+02  0.15107310360E+02 -0.33351095398E+03  0.33872802425E+03  0.10000000000E+01 0.  0.
    9000005    1    3    3    0    0  0.57252835385E+02 -0.15107310360E+02 -0.65064438856E+03  0.65333394092E+03  0.10000000000E+01 0.  0.
<mgrwt>
<rscale>  0 0.12500082E+03</rscale>
<asrwt>0</asrwt>
<pdfrwt beam="1">  1        4 0.60820252E-03 0.12500082E+03</pdfrwt>
<pdfrwt beam="2">  1       -4 0.15201652E+00 0.12500082E+03</pdfrwt>
<totfact> 0.30867527E+03</totfact>
</mgrwt>
</event>
<event>
 5    1  0.3304582E-002  0.1250003E+03  0.7818608E-02  0.1235069E+00
         -4   -1    0    0    0  501 -0.00000000000E+00  0.00000000000E+00  0.16283369436E+03  0.16283864688E+03  0.12700000000E+01 0.  1.
          4   -1    0    0  501    0  0.00000000000E+00 -0.00000000000E+00 -0.23967189870E+02  0.24000814367E+02  0.12700000000E+01 0.  1.
         25    2    1    2    0    0  0.00000000000E+00  0.00000000000E+00  0.13886650449E+03  0.18683946125E+03  0.12500031284E+03 0.  0.
    9000005    1    3    3    0    0 -0.31561143852E+02 -0.23461396476E+02  0.14202651411E+03  0.14737392455E+03  0.10000000000E+01 0.  0.
    9000005    1    3    3    0    0  0.31561143852E+02  0.23461396476E+02 -0.31600096285E+01  0.39465536696E+02  0.10000000000E+01 0.  0.
<mgrwt>
<rscale>  0 0.12500031E+03</rscale>
<asrwt>0</asrwt>
<pdfrwt beam="2">  1        4 0.36902274E-02 0.12500031E+03</pdfrwt>
<pdfrwt beam="1">  1       -4 0.25054306E-01 0.12500031E+03</pdfrwt>
<totfact> 0.92399516E+03</totfact>
</mgrwt>
</event>
<event>
 5    1  0.3304582E-002  0.1249998E+03  0.7818608E-02  0.1235070E+00
         -4   -1    0    0    0  501 -0.00000000000E+00  0.00000000000E+00  0.26344677530E+01  0.29246060147E+01  0.12700000000E+01 0.  1.
          4   -1    0    0  501    0  0.00000000000E+00 -0.00000000000E+00 -0.14050660848E+04  0.14050666588E+04  0.12700000000E+01 0.  1.
         25    2    1    2    0    0  0.00000000000E+00  0.00000000000E+00 -0.14024316171E+04  0.14079912648E+04  0.12499984474E+03 0.  0.
    9000005    1    3    3    0    0 -0.34802468310E+02 -0.16498053853E+02 -0.14689209952E+03  0.15186074701E+03  0.10000000000E+01 0.  0.
    9000005    1    3    3    0    0  0.34802468310E+02  0.16498053853E+02 -0.12555395175E+04  0.12561305178E+04  0.10000000000E+01 0.  0.
<mgrwt>
<rscale>  0 0.12499984E+03</rscale>
<asrwt>0</asrwt>
<pdfrwt beam="2">  1        4 0.21618581E+00 0.12499984E+03</pdfrwt>
<pdfrwt beam="1">  1       -4 0.42766633E-03 0.12499984E+03</pdfrwt>
<totfact> 0.19810229E+03</totfact>
</mgrwt>
</event>
<event>
 5    1  0.3304582E-002  0.1250018E+03  0.7818608E-02  0.1235067E+00
         -4   -1    0    0    0  501 -0.00000000000E+00  0.00000000000E+00  0.96000276740E+03  0.96000360745E+03  0.12700000000E+01 0.  1.
          4   -1    0    0  501    0  0.00000000000E+00 -0.00000000000E+00 -0.39691563502E+01  0.41673855272E+01  0.12700000000E+01 0.  1.
         25    2    1    2    0    0  0.00000000000E+00  0.00000000000E+00  0.95603361105E+03  0.96417099298E+03  0.12500175295E+03 0.  0.
    9000005    1    3    3    0    0 -0.77331024444E+01  0.57888890070E+02  0.30650555947E+03  0.31202176599E+03  0.10000000000E+01 0.  0.
    9000005    1    3    3    0    0  0.77331024444E+01 -0.57888890070E+02  0.64952805158E+03  0.65214922699E+03  0.10000000000E+01 0.  0.
<mgrwt>
<rscale>  0 0.12500175E+03</rscale>
<asrwt>0</asrwt>
<pdfrwt beam="2">  1        4 0.62595204E-03 0.12500175E+03</pdfrwt>
<pdfrwt beam="1">  1       -4 0.14770814E+00 0.12500175E+03</pdfrwt>
<totfact> 0.31816888E+03</totfact>
</mgrwt>
</event>
<event>
 5    1  0.3304582E-002  0.1249998E+03  0.7818608E-02  0.1235070E+00
         -4   -1    0    0    0  501 -0.00000000000E+00  0.00000000000E+00  0.14023827528E+02  0.14081215805E+02  0.12700000000E+01 0. -1.
          4   -1    0    0  501    0  0.00000000000E+00 -0.00000000000E+00 -0.27791527810E+03  0.27791817986E+03  0.12700000000E+01 0. -1.
         25    2    1    2    0    0  0.00000000000E+00  0.00000000000E+00 -0.26389145057E+03  0.29199939567E+03  0.12499979755E+03 0.  0.
    9000005    1    3    3    0    0  0.32652610781E+02  0.53281686895E+02 -0.13270698086E+03  0.14668767473E+03  0.10000000000E+01 0.  0.
    9000005    1    3    3    0    0 -0.32652610781E+02 -0.53281686895E+02 -0.13118446971E+03  0.14531172094E+03  0.10000000000E+01 0.  0.
<mgrwt>
<rscale>  0 0.12499980E+03</rscale>
<asrwt>0</asrwt>
<pdfrwt beam="2">  1        4 0.42760830E-01 0.12499980E+03</pdfrwt>
<pdfrwt beam="1">  1       -4 0.21621498E-02 0.12499980E+03</pdfrwt>
<totfact> 0.76613852E+03</totfact>
</mgrwt>
</event>
<event>
 5    1  0.3304582E-002  0.1250016E+03  0.7818608E-02  0.1235067E+00
          4   -1    0    0  501    0  0.00000000000E+00  0.00000000000E+00  0.13877701990E+02  0.13935692036E+02  0.12700000000E+01 0. -1.
         -4   -1    0    0    0  501 -0.00000000000E+00 -0.00000000000E+00 -0.28083739728E+03  0.28084026886E+03  0.12700000000E+01 0. -1.
         25    2    1    2    0    0  0.00000000000E+00  0.00000000000E+00 -0.26695969529E+03  0.29477596089E+03  0.12500155283E+03 0.  0.
    9000005    1    3    3    0    0 -0.20763996347E+02 -0.37606039099E+02 -0.26448956530E+02  0.50456962082E+02  0.10000000000E+01 0.  0.
    9000005    1    3    3    0    0  0.20763996347E+02  0.37606039099E+02 -0.24051073876E+03  0.24431899881E+03  0.10000000000E+01 0.  0.
<mgrwt>
<rscale>  0 0.12500155E+03</rscale>
<asrwt>0</asrwt>
<pdfrwt beam="1">  1        4 0.21397129E-02 0.12500155E+03</pdfrwt>
<pdfrwt beam="2">  1       -4 0.43210431E-01 0.12500155E+03</pdfrwt>
<totfact> 0.76256212E+03</totfact>
</mgrwt>
</event>
<event>
 5    1  0.3304582E-002  0.1250052E+03  0.7818608E-02  0.1235061E+00
          4   -1    0    0  501    0  0.00000000000E+00  0.00000000000E+00  0.15011982329E+03  0.15012519524E+03  0.12700000000E+01 0.  1.
         -4   -1    0    0    0  501 -0.00000000000E+00 -0.00000000000E+00 -0.26001700171E+02  0.26032696975E+02  0.12700000000E+01 0.  1.
         25    2    1    2    0    0  0.00000000000E+00  0.00000000000E+00  0.12411812312E+03  0.17615789221E+03  0.12500517790E+03 0.  0.
    9000005    1    3    3    0    0  0.31258318911E+01 -0.12273411367E+02  0.14829924046E+03  0.14884244077E+03  0.10000000000E+01 0.  0.
    9000005    1    3    3    0    0 -0.31258318911E+01  0.12273411367E+02 -0.24181117343E+02  0.27315451444E+02  0.10000000000E+01 0.  0.
<mgrwt>
<rscale>  0 0.12500518E+03</rscale>
<asrwt>0</asrwt>
<pdfrwt beam="1">  1        4 0.23098155E-01 0.12500518E+03</pdfrwt>
<pdfrwt beam="2">  1       -4 0.40030592E-02 0.12500518E+03</pdfrwt>
<totfact> 0.94302249E+03</totfact>
</mgrwt>
</event>
<event>
 5    1  0.3304582E-002  0.1249715E+03  0.7818608E-02  0.1235114E+00
         -4   -1    0    0    0  501 -0.00000000000E+00  0.00000000000E+00  0.10263629754E+02  0.10341904840E+02  0.12700000000E+01 0. -1.
          4   -1    0    0  501    0  0.00000000000E+00 -0.00000000000E+00 -0.37889346186E+03  0.37889559029E+03  0.12700000000E+01 0. -1.
         25    2    1    2    0    0  0.00000000000E+00  0.00000000000E+00 -0.36862983211E+03  0.38923749513E+03  0.12497149473E+03 0.  0.
    9000005    1    3    3    0    0  0.46604235646E+02  0.40174032391E+02 -0.15054458825E+03  0.16263634498E+03  0.10000000000E+01 0.  0.
    9000005    1    3    3    0    0 -0.46604235646E+02 -0.40174032391E+02 -0.21808524386E+03  0.22660115015E+03  0.10000000000E+01 0.  0.
<mgrwt>
<rscale>  0 0.12497149E+03</rscale>
<asrwt>0</asrwt>
<pdfrwt beam="2">  1        4 0.58297476E-01 0.12497149E+03</pdfrwt>
<pdfrwt beam="1">  1       -4 0.15852051E-02 0.12497149E+03</pdfrwt>
<totfact> 0.65654505E+03</totfact>
</mgrwt>
</event>
<event>
 5    1  0.3304582E-002  0.1250022E+03  0.7818608E-02  0.1235066E+00
          4   -1    0    0  501    0  0.00000000000E+00  0.00000000000E+00  0.89966964348E+02  0.89975927747E+02  0.12700000000E+01 0. -1.
         -4   -1    0    0    0  501 -0.00000000000E+00 -0.00000000000E+00 -0.43399861764E+02  0.43418439644E+02  0.12700000000E+01 0. -1.
         25    2    1    2    0    0  0.00000000000E+00  0.00000000000E+00  0.46567102584E+02  0.13339436739E+03  0.12500224881E+03 0.  0.
    9000005    1    3    3    0    0  0.17959372217E+02 -0.21415252508E+02 -0.36363881012E+02  0.45874654579E+02  0.10000000000E+01 0.  0.
    9000005    1    3    3    0    0 -0.17959372217E+02  0.21415252508E+02  0.82930983597E+02  0.87519712812E+02  0.10000000000E+01 0.  0.
<mgrwt>
<rscale>  0 0.12500225E+03</rscale>
<asrwt>0</asrwt>
<pdfrwt beam="1">  1        4 0.13843190E-01 0.12500225E+03</pdfrwt>
<pdfrwt beam="2">  1       -4 0.66790204E-02 0.12500225E+03</pdfrwt>
<totfact> 0.10271504E+04</totfact>
</mgrwt>
</event>
<event>
 5    1  0.3304582E-002  0.1250029E+03  0.7818608E-02  0.1235065E+00
         -4   -1    0    0    0  501 -0.00000000000E+00  0.00000000000E+00  0.16677402991E+03  0.16677886542E+03  0.12700000000E+01 0.  1.
          4   -1    0    0  501    0  0.00000000000E+00 -0.00000000000E+00 -0.23401091056E+02  0.23435527786E+02  0.12700000000E+01 0.  1.
         25    2    1    2    0    0  0.00000000000E+00  0.00000000000E+00  0.14337293885E+03  0.19021439321E+03  0.12500286312E+03 0.  0.
    9000005    1    3    3    0    0 -0.37730848805E+02 -0.45475041491E+02  0.10264182265E+03  0.11843960531E+03  0.10000000000E+01 0.  0.
    9000005    1    3    3    0    0  0.37730848805E+02  0.45475041491E+02  0.40731116200E+02  0.71774787893E+02  0.10000000000E+01 0.  0.
<mgrwt>
<rscale>  0 0.12500286E+03</rscale>
<asrwt>0</asrwt>
<pdfrwt beam="2">  1        4 0.36031888E-02 0.12500286E+03</pdfrwt>
<pdfrwt beam="1">  1       -4 0.25660564E-01 0.12500286E+03</pdfrwt>
<totfact> 0.91804136E+03</totfact>
</mgrwt>
</event>
<event>
 5    1  0.3304582E-002  0.1249837E+03  0.7818608E-02  0.1235095E+00
         -4   -1    0    0    0  501 -0.00000000000E+00  0.00000000000E+00  0.27166484554E+03  0.27166781408E+03  0.12700000000E+01 0. -1.
          4   -1    0    0  501    0  0.00000000000E+00 -0.00000000000E+00 -0.14344075929E+02  0.14400187993E+02  0.12700000000E+01 0. -1.
         25    2    1    2    0    0  0.00000000000E+00  0.00000000000E+00  0.25732076962E+03  0.28606800207E+03  0.12498369226E+03 0.  0.
    9000005    1    3    3    0    0  0.56410167473E+02 -0.26325624328E+02  0.14100430266E+03  0.15413746741E+03  0.10000000000E+01 0.  0.
    9000005    1    3    3    0    0 -0.56410167473E+02  0.26325624328E+02  0.11631646696E+03  0.13193053466E+03  0.10000000000E+01 0.  0.
<mgrwt>
<rscale>  0 0.12498369E+03</rscale>
<asrwt>0</asrwt>
<pdfrwt beam="2">  1        4 0.22113257E-02 0.12498369E+03</pdfrwt>
<pdfrwt beam="1">  1       -4 0.41799133E-01 0.12498369E+03</pdfrwt>
<totfact> 0.77408397E+03</totfact>
</mgrwt>
</event>
<event>
 5    1  0.3304582E-002  0.1249902E+03  0.7818608E-02  0.1235085E+00
         -4   -1    0    0    0  501 -0.00000000000E+00  0.00000000000E+00  0.30785014519E+01  0.33301758496E+01  0.12700000000E+01 0. -1.
          4   -1    0    0  501    0  0.00000000000E+00 -0.00000000000E+00 -0.12186065288E+04  0.12186071906E+04  0.12700000000E+01 0. -1.
         25    2    1    2    0    0  0.00000000000E+00  0.00000000000E+00 -0.12155280273E+04  0.12219373664E+04  0.12499016845E+03 0.  0.
    9000005    1    3    3    0    0 -0.57942336036E+02  0.22891556955E+02 -0.65495197048E+03  0.65790912847E+03  0.10000000000E+01 0.  0.
    9000005    1    3    3    0    0  0.57942336036E+02 -0.22891556955E+02 -0.56057605687E+03  0.56402823796E+03  0.10000000000E+01 0.  0.
<mgrwt>
<rscale>  0 0.12499017E+03</rscale>
<asrwt>0</asrwt>
<pdfrwt beam="2">  1        4 0.18749697E+00 0.12499017E+03</pdfrwt>
<pdfrwt beam="1">  1       -4 0.49302706E-03 0.12499017E+03</pdfrwt>
<totfact> 0.24150901E+03</totfact>
</mgrwt>
</event>
<event>
 5    1  0.3304582E-002  0.1250009E+03  0.7818608E-02  0.1235068E+00
          4   -1    0    0  501    0  0.00000000000E+00  0.00000000000E+00  0.45402200913E+03  0.45402378537E+03  0.12700000000E+01 0. -1.
         -4   -1    0    0    0  501 -0.00000000000E+00 -0.00000000000E+00 -0.85551076771E+01  0.86488593101E+01  0.12700000000E+01 0. -1.
         25    2    1    2    0    0  0.00000000000E+00  0.00000000000E+00  0.44546690146E+03  0.46267264468E+03  0.12500086335E+03 0.  0.
    9000005    1    3    3    0    0 -0.51865253892E+02 -0.30242107825E+02  0.15854781314E+03  0.16953760261E+03  0.10000000000E+01 0.  0.
    9000005    1    3    3    0    0  0.51865253892E+02  0.30242107825E+02  0.28691908832E+03  0.29313504207E+03  0.10000000000E+01 0.  0.
<mgrwt>
<rscale>  0 0.12500086E+03</rscale>
<asrwt>0</asrwt>
<pdfrwt beam="1">  1        4 0.69856902E-01 0.12500086E+03</pdfrwt>
<pdfrwt beam="2">  1       -4 0.13235185E-02 0.12500086E+03</pdfrwt>
<totfact> 0.58880345E+03</totfact>
</mgrwt>
</event>
<event>
 5    1  0.3304582E-002  0.1249983E+03  0.7818608E-02  0.1235072E+00
         -4   -1    0    0    0  501 -0.00000000000E+00  0.00000000000E+00  0.18044633715E+03  0.18045080629E+03  0.12700000000E+01 0. -1.
          4   -1    0    0  501    0  0.00000000000E+00 -0.00000000000E+00 -0.21623762978E+02  0.21661025491E+02  0.12700000000E+01 0. -1.
         25    2    1    2    0    0  0.00000000000E+00  0.00000000000E+00  0.15882257417E+03  0.20211183178E+03  0.12499832991E+03 0.  0.
    9000005    1    3    3    0    0  0.52214897194E+02 -0.17278822601E+02  0.12738201846E+03  0.13875205161E+03  0.10000000000E+01 0.  0.
    9000005    1    3    3    0    0 -0.52214897194E+02  0.17278822601E+02  0.31440555708E+02  0.63359780166E+02  0.10000000000E+01 0.  0.
<mgrwt>
<rscale>  0 0.12499833E+03</rscale>
<asrwt>0</asrwt>
<pdfrwt beam="2">  1        4 0.33299430E-02 0.12499833E+03</pdfrwt>
<pdfrwt beam="1">  1       -4 0.27764184E-01 0.12499833E+03</pdfrwt>
<totfact> 0.89783903E+03</totfact>
</mgrwt>
</event>
<event>
 5    1  0.3304582E-002  0.1249657E+03  0.7818608E-02  0.1235123E+00
          4   -1    0    0  501    0  0.00000000000E+00  0.00000000000E+00  0.14134398983E+03  0.14134969530E+03  0.12700000000E+01 0.  1.
         -4   -1    0    0    0  501 -0.00000000000E+00 -0.00000000000E+00 -0.27600452959E+02  0.27629656233E+02  0.12700000000E+01 0.  1.
         25    2    1    2    0    0  0.00000000000E+00  0.00000000000E+00  0.11374353687E+03  0.16897935154E+03  0.12496571156E+03 0.  0.
    9000005    1    3    3    0    0 -0.25344230666E+02 -0.16957109036E+02  0.13060398592E+03  0.13412037397E+03  0.10000000000E+01 0.  0.
    9000005    1    3    3    0    0  0.25344230666E+02  0.16957109036E+02 -0.16860449047E+02  0.34858977567E+02  0.10000000000E+01 0.  0.
<mgrwt>
<rscale>  0 0.12496571E+03</rscale>
<asrwt>0</asrwt>
<pdfrwt beam="1">  1        4 0.21747914E-01 0.12496571E+03</pdfrwt>
<pdfrwt beam="2">  1       -4 0.42489088E-02 0.12496571E+03</pdfrwt>
<totfact> 0.95712702E+03</totfact>
</mgrwt>
</event>
<event>
 5    1  0.3304582E-002  0.1249956E+03  0.7818608E-02  0.1235076E+00
          4   -1    0    0  501    0  0.00000000000E+00  0.00000000000E+00  0.60753574435E+02  0.60766847101E+02  0.12700000000E+01 0. -1.
         -4   -1    0    0    0  501 -0.00000000000E+00 -0.00000000000E+00 -0.64265485195E+02  0.64278032696E+02  0.12700000000E+01 0. -1.
         25    2    1    2    0    0  0.00000000000E+00  0.00000000000E+00 -0.35119107598E+01  0.12504487980E+03  0.12499555371E+03 0.  0.
    9000005    1    3    3    0    0 -0.42130063994E+02  0.45758245450E+02  0.42641259524E+01  0.62353364696E+02  0.10000000000E+01 0.  0.
    9000005    1    3    3    0    0  0.42130063994E+02 -0.45758245450E+02 -0.77760367122E+01  0.62691515102E+02  0.10000000000E+01 0.  0.
<mgrwt>
<rscale>  0 0.12499555E+03</rscale>
<asrwt>0</asrwt>
<pdfrwt beam="1">  1        4 0.93486899E-02 0.12499555E+03</pdfrwt>
<pdfrwt beam="2">  1       -4 0.98889839E-02 0.12499555E+03</pdfrwt>
<totfact> 0.10452938E+04</totfact>
</mgrwt>
</event>
<event>
 5    1  0.3304582E-002  0.1250038E+03  0.7818608E-02  0.1235063E+00
          4   -1    0    0  501    0  0.00000000000E+00  0.00000000000E+00  0.72553326433E+01  0.73656467309E+01  0.12700000000E+01 0.  1.
         -4   -1    0    0    0  501 -0.00000000000E+00 -0.00000000000E+00 -0.53425635830E+03  0.53425786778E+03  0.12700000000E+01 0.  1.
         25    2    1    2    0    0  0.00000000000E+00  0.00000000000E+00 -0.52700102566E+03  0.54162351451E+03  0.12500380165E+03 0.  0.
    9000005    1    3    3    0    0 -0.33481387568E+02 -0.66070956143E+01 -0.49033829135E+03  0.49152547949E+03  0.10000000000E+01 0.  0.
    9000005    1    3    3    0    0  0.33481387568E+02  0.66070956143E+01 -0.36662734312E+02  0.50098035024E+02  0.10000000000E+01 0.  0.
<mgrwt>
<rscale>  0 0.12500380E+03</rscale>
<asrwt>0</asrwt>
<pdfrwt beam="1">  1        4 0.11248073E-02 0.12500380E+03</pdfrwt>
<pdfrwt beam="2">  1       -4 0.82201857E-01 0.12500380E+03</pdfrwt>
<totfact> 0.52769196E+03</totfact>
</mgrwt>
</event>
<event>
 5    1  0.3304582E-002  0.1249993E+03  0.7818608E-02  0.1235070E+00
          4   -1    0    0  501    0  0.00000000000E+00  0.00000000000E+00  0.42136242408E+01  0.44008555126E+01  0.12700000000E+01 0. -1.
         -4   -1    0    0    0  501 -0.00000000000E+00 -0.00000000000E+00 -0.90670499733E+03  0.90670588676E+03  0.12700000000E+01 0. -1.
         25    2    1    2    0    0  0.00000000000E+00  0.00000000000E+00 -0.90249137309E+03  0.91110674227E+03  0.12499926925E+03 0.  0.
    9000005    1    3    3    0    0  0.17173881642E+01 -0.49253619420E+02 -0.73130780766E+03  0.73296724210E+03  0.10000000000E+01 0.  0.
    9000005    1    3    3    0    0 -0.17173881642E+01  0.49253619420E+02 -0.17118356543E+03  0.17813950017E+03  0.10000000000E+01 0.  0.
<mgrwt>
<rscale>  0 0.12499927E+03</rscale>
<asrwt>0</asrwt>
<pdfrwt beam="1">  1        4 0.66272143E-03 0.12499927E+03</pdfrwt>
<pdfrwt beam="2">  1       -4 0.13950740E+00 0.12499927E+03</pdfrwt>
<totfact> 0.33738760E+03</totfact>
</mgrwt>
</event>
<event>
 5    1  0.3304582E-002  0.1249884E+03  0.7818608E-02  0.1235087E+00
         -4   -1    0    0    0  501 -0.00000000000E+00  0.00000000000E+00  0.17581608919E+02  0.17627418193E+02  0.12700000000E+01 0.  1.
          4   -1    0    0  501    0  0.00000000000E+00 -0.00000000000E+00 -0.22180017108E+03  0.22180380698E+03  0.12700000000E+01 0.  1.
         25    2    1    2    0    0  0.00000000000E+00  0.00000000000E+00 -0.20421856216E+03  0.23943122518E+03  0.12498836129E+03 0.  0.
    9000005    1    3    3    0    0 -0.52322673163E+02 -0.33235839089E+02 -0.86996506055E+02  0.10682544263E+03  0.10000000000E+01 0.  0.
    9000005    1    3    3    0    0  0.52322673163E+02  0.33235839089E+02 -0.11722205611E+03  0.13260578255E+03  0.10000000000E+01 0.  0.
<mgrwt>
<rscale>  0 0.12498836E+03</rscale>
<asrwt>0</asrwt>
<pdfrwt beam="2">  1        4 0.34126905E-01 0.12498836E+03</pdfrwt>
<pdfrwt beam="1">  1       -4 0.27086665E-02 0.12498836E+03</pdfrwt>
<totfact> 0.83903920E+03</totfact>
</mgrwt>
</event>
<event>
 5    1  0.3304582E-002  0.1250016E+03  0.7818608E-02  0.1235067E+00
          4   -1    0    0  501    0  0.00000000000E+00  0.00000000000E+00  0.37484274741E+03  0.37484489884E+03  0.12700000000E+01 0. -1.
         -4   -1    0    0    0  501 -0.00000000000E+00 -0.00000000000E+00 -0.10380420185E+02  0.10457821150E+02  0.12700000000E+01 0. -1.
         25    2    1    2    0    0  0.00000000000E+00  0.00000000000E+00  0.36446232723E+03  0.38530271999E+03  0.12500159225E+03 0.  0.
    9000005    1    3    3    0    0  0.49813274002E+02 -0.37579766467E+02  0.17166600734E+03  0.18265765571E+03  0.10000000000E+01 0.  0.
    9000005    1    3    3    0    0 -0.49813274002E+02  0.37579766467E+02  0.19279631989E+03  0.20264506428E+03  0.10000000000E+01 0.  0.
<mgrwt>
<rscale>  0 0.12500159E+03</rscale>
<asrwt>0</asrwt>
<pdfrwt beam="1">  1        4 0.57674235E-01 0.12500159E+03</pdfrwt>
<pdfrwt beam="2">  1       -4 0.16031071E-02 0.12500159E+03</pdfrwt>
<totfact> 0.66005454E+03</totfact>
</mgrwt>
</event>
<event>
 5    1  0.3304582E-002  0.1250144E+03  0.7818608E-02  0.1235047E+00
         -4   -1    0    0    0  501 -0.00000000000E+00  0.00000000000E+00  0.24495527137E+02  0.24528427379E+02  0.12700000000E+01 0.  1.
          4   -1    0    0  501    0  0.00000000000E+00 -0.00000000000E+00 -0.15936224116E+03  0.15936730156E+03  0.12700000000E+01 0.  1.
         25    2    1    2    0    0  0.00000000000E+00  0.00000000000E+00 -0.13486671402E+03  0.18389572894E+03  0.12501443345E+03 0.  0.
    9000005    1    3    3    0    0  0.39150389766E+01  0.58032490864E+02 -0.10107560483E+03  0.11662064747E+03  0.10000000000E+01 0.  0.
    9000005    1    3    3    0    0 -0.39150389766E+01 -0.58032490864E+02 -0.33791109199E+02  0.67275081471E+02  0.10000000000E+01 0.  0.
<mgrwt>
<rscale>  0 0.12501443E+03</rscale>
<asrwt>0</asrwt>
<pdfrwt beam="2">  1        4 0.24520187E-01 0.12501443E+03</pdfrwt>
<pdfrwt beam="1">  1       -4 0.37714628E-02 0.12501443E+03</pdfrwt>
<totfact> 0.92890369E+03</totfact>
</mgrwt>
</event>
<event>
 5    1  0.3304582E-002  0.1249934E+03  0.7818608E-02  0.1235080E+00
          4   -1    0    0  501    0  0.00000000000E+00  0.00000000000E+00  0.35567897026E+03  0.35568123760E+03  0.12700000000E+01 0. -1.
         -4   -1    0    0    0  501 -0.00000000000E+00 -0.00000000000E+00 -0.10942327971E+02  0.11015781472E+02  0.12700000000E+01 0. -1.
         25    2    1    2    0    0  0.00000000000E+00  0.00000000000E+00  0.34473664228E+03  0.36669701907E+03  0.12499340488E+03 0.  0.
    9000005    1    3    3    0    0  0.16323100886E+01 -0.35171692641E+02  0.32382174874E+03  0.32573184885E+03  0.10000000000E+01 0.  0.
    9000005    1    3    3    0    0 -0.16323100886E+01  0.35171692641E+02  0.20914893548E+02  0.40965170225E+02  0.10000000000E+01 0.  0.
<mgrwt>
<rscale>  0 0.12499340E+03</rscale>
<asrwt>0</asrwt>
<pdfrwt beam="1">  1        4 0.54725670E-01 0.12499340E+03</pdfrwt>
<pdfrwt beam="2">  1       -4 0.16892596E-02 0.12499340E+03</pdfrwt>
<totfact> 0.67935814E+03</totfact>
</mgrwt>
</event>
<event>
 5    1  0.3304582E-002  0.1250000E+03  0.7818608E-02  0.1235069E+00
         -4   -1    0    0    0  501 -0.00000000000E+00  0.00000000000E+00  0.23831606452E+03  0.23831944845E+03  0.12700000000E+01 0.  1.
          4   -1    0    0  501    0  0.00000000000E+00 -0.00000000000E+00 -0.16362932621E+02  0.16412143795E+02  0.12700000000E+01 0.  1.
         25    2    1    2    0    0  0.00000000000E+00  0.00000000000E+00  0.22195313190E+03  0.25473159224E+03  0.12499996531E+03 0.  0.
    9000005    1    3    3    0    0  0.39819262205E+02 -0.42436268508E+01  0.20874396284E+03  0.21255263827E+03  0.10000000000E+01 0.  0.
    9000005    1    3    3    0    0 -0.39819262205E+02  0.42436268508E+01  0.13209169059E+02  0.42178953977E+02  0.10000000000E+01 0.  0.
<mgrwt>
<rscale>  0 0.12499997E+03</rscale>
<asrwt>0</asrwt>
<pdfrwt beam="2">  1        4 0.25214202E-02 0.12499997E+03</pdfrwt>
<pdfrwt beam="1">  1       -4 0.36668054E-01 0.12499997E+03</pdfrwt>
<totfact> 0.81651203E+03</totfact>
</mgrwt>
</event>
<event>
 5    1  0.3304582E-002  0.1250037E+03  0.7818608E-02  0.1235064E+00
          4   -1    0    0  501    0  0.00000000000E+00  0.00000000000E+00  0.88835544713E+01  0.89738754195E+01  0.12700000000E+01 0.  1.
         -4   -1    0    0    0  501 -0.00000000000E+00 -0.00000000000E+00 -0.43742734040E+03  0.43742918402E+03  0.12700000000E+01 0.  1.
         25    2    1    2    0    0  0.00000000000E+00  0.00000000000E+00 -0.42854378593E+03  0.44640305944E+03  0.12500366001E+03 0.  0.
    9000005    1    3    3    0    0  0.39613954530E+02  0.48169740770E+02 -0.22850693178E+03  0.23686706649E+03  0.10000000000E+01 0.  0.
    9000005    1    3    3    0    0 -0.39613954530E+02 -0.48169740770E+02 -0.20003685415E+03  0.20953599294E+03  0.10000000000E+01 0.  0.
<mgrwt>
<rscale>  0 0.12500366E+03</rscale>
<asrwt>0</asrwt>
<pdfrwt beam="1">  1        4 0.13737906E-02 0.12500366E+03</pdfrwt>
<pdfrwt beam="2">  1       -4 0.67303587E-01 0.12500366E+03</pdfrwt>
<totfact> 0.60271816E+03</totfact>
</mgrwt>
</event>
<event>
 5    1  0.3304582E-002  0.1250024E+03  0.7818608E-02  0.1235066E+00
         -4   -1    0    0    0  501 -0.00000000000E+00  0.00000000000E+00  0.22936604470E+02  0.22971737518E+02  0.12700000000E+01 0.  1.
          4   -1    0    0  501    0  0.00000000000E+00 -0.00000000000E+00 -0.17014504962E+03  0.17014978933E+03  0.12700000000E+01 0.  1.
         25    2    1    2    0    0  0.00000000000E+00  0.00000000000E+00 -0.14720844515E+03  0.19312152685E+03  0.12500239122E+03 0.  0.
    9000005    1    3    3    0    0  0.42026969699E+02  0.26437724976E+02 -0.14974107241E+02  0.51869484011E+02  0.10000000000E+01 0.  0.
    9000005    1    3    3    0    0 -0.42026969699E+02 -0.26437724976E+02 -0.13223433791E+03  0.14125204284E+03  0.10000000000E+01 0.  0.
<mgrwt>
<rscale>  0 0.12500239E+03</rscale>
<asrwt>0</asrwt>
<pdfrwt beam="2">  1        4 0.26179228E-01 0.12500239E+03</pdfrwt>
<pdfrwt beam="1">  1       -4 0.35317756E-02 0.12500239E+03</pdfrwt>
<totfact> 0.91302110E+03</totfact>
</mgrwt>
</event>
<event>
 5    1  0.3304582E-002  0.1250039E+03  0.7818608E-02  0.1235063E+00
         -4   -1    0    0    0  501 -0.00000000000E+00  0.00000000000E+00  0.50086519199E+03  0.50086680210E+03  0.12700000000E+01 0. -1.
          4   -1    0    0  501    0  0.00000000000E+00 -0.00000000000E+00 -0.77461562730E+01  0.78495755940E+01  0.12700000000E+01 0. -1.
         25    2    1    2    0    0  0.00000000000E+00  0.00000000000E+00  0.49311903572E+03  0.50871637769E+03  0.12500387814E+03 0.  0.
    9000005    1    3    3    0    0  0.40539325769E+02 -0.36695627098E+02  0.36969357310E+03  0.37371693027E+03  0.10000000000E+01 0.  0.
    9000005    1    3    3    0    0 -0.40539325769E+02  0.36695627098E+02  0.12342546262E+03  0.13499944742E+03  0.10000000000E+01 0.  0.
<mgrwt>
<rscale>  0 0.12500388E+03</rscale>
<asrwt>0</asrwt>
<pdfrwt beam="2">  1        4 0.11997951E-02 0.12500388E+03</pdfrwt>
<pdfrwt beam="1">  1       -4 0.77064291E-01 0.12500388E+03</pdfrwt>
<totfact> 0.55189649E+03</totfact>
</mgrwt>
</event>
<event>
 5    1  0.3304582E-002  0.1250005E+03  0.7818608E-02  0.1235069E+00
          4   -1    0    0  501    0  0.00000000000E+00  0.00000000000E+00  0.65080980830E+02  0.65093371135E+02  0.12700000000E+01 0.  1.
         -4   -1    0    0    0  501 -0.00000000000E+00 -0.00000000000E+00 -0.59997014619E+02  0.60010454616E+02  0.12700000000E+01 0.  1.
         25    2    1    2    0    0  0.00000000000E+00  0.00000000000E+00  0.50839662101E+01  0.12510382575E+03  0.12500048202E+03 0.  0.
    9000005    1    3    3    0    0 -0.14988582677E+02 -0.60644894170E+02  0.42224563603E+01  0.62620203907E+02  0.10000000000E+01 0.  0.
    9000005    1    3    3    0    0  0.14988582677E+02  0.60644894170E+02  0.86150984987E+00  0.62483621845E+02  0.10000000000E+01 0.  0.
<mgrwt>
<rscale>  0 0.12500048E+03</rscale>
<asrwt>0</asrwt>
<pdfrwt beam="1">  1        4 0.10014446E-01 0.12500048E+03</pdfrwt>
<pdfrwt beam="2">  1       -4 0.92322969E-02 0.12500048E+03</pdfrwt>
<totfact> 0.10450494E+04</totfact>
</mgrwt>
</event>
<event>
 5    1  0.3304582E-002  0.1250037E+03  0.7818608E-02  0.1235063E+00
          4   -1    0    0  501    0  0.00000000000E+00  0.00000000000E+00  0.38377194227E+02  0.38398202259E+02  0.12700000000E+01 0. -1.
         -4   -1    0    0    0  501 -0.00000000000E+00 -0.00000000000E+00 -0.10173893790E+03  0.10174686426E+03  0.12700000000E+01 0. -1.
         25    2    1    2    0    0  0.00000000000E+00  0.00000000000E+00 -0.63361743676E+02  0.14014506651E+03  0.12500371637E+03 0.  0.
    9000005    1    3    3    0    0  0.18139907323E+02 -0.59675253564E+02 -0.36064773222E+02  0.72054562612E+02  0.10000000000E+01 0.  0.
    9000005    1    3    3    0    0 -0.18139907323E+02  0.59675253564E+02 -0.27296970454E+02  0.68090503902E+02  0.10000000000E+01 0.  0.
<mgrwt>
<rscale>  0 0.12500372E+03</rscale>
<asrwt>0</asrwt>
<pdfrwt beam="1">  1        4 0.59064095E-02 0.12500372E+03</pdfrwt>
<pdfrwt beam="2">  1       -4 0.15654370E-01 0.12500372E+03</pdfrwt>
<totfact> 0.10129732E+04</totfact>
</mgrwt>
</event>
<event>
 5    1  0.3304582E-002  0.1249973E+03  0.7818608E-02  0.1235073E+00
          4   -1    0    0  501    0  0.00000000000E+00  0.00000000000E+00  0.38685520184E+02  0.38706360872E+02  0.12700000000E+01 0.  1.
         -4   -1    0    0    0  501 -0.00000000000E+00 -0.00000000000E+00 -0.10091808765E+03  0.10092607846E+03  0.12700000000E+01 0.  1.
         25    2    1    2    0    0  0.00000000000E+00  0.00000000000E+00 -0.62232567462E+02  0.13963243934E+03  0.12499730262E+03 0.  0.
    9000005    1    3    3    0    0 -0.10424588388E+02 -0.41523081478E+02  0.19735481411E+02  0.47152174552E+02  0.10000000000E+01 0.  0.
    9000005    1    3    3    0    0  0.10424588388E+02  0.41523081478E+02 -0.81968048873E+02  0.92480264784E+02  0.10000000000E+01 0.  0.
<mgrwt>
<rscale>  0 0.12499730E+03</rscale>
<asrwt>0</asrwt>
<pdfrwt beam="1">  1        4 0.59538363E-02 0.12499730E+03</pdfrwt>
<pdfrwt beam="2">  1       -4 0.15528077E-01 0.12499730E+03</pdfrwt>
<totfact> 0.10141826E+04</totfact>
</mgrwt>
</event>
<event>
 5    1  0.3304582E-002  0.1250020E+03  0.7818608E-02  0.1235066E+00
         -4   -1    0    0    0  501 -0.00000000000E+00  0.00000000000E+00  0.13183296453E+03  0.13183908160E+03  0.12700000000E+01 0. -1.
          4   -1    0    0  501    0  0.00000000000E+00 -0.00000000000E+00 -0.29610817550E+02  0.29638040016E+02  0.12700000000E+01 0. -1.
         25    2    1    2    0    0  0.00000000000E+00  0.00000000000E+00  0.10222214698E+03  0.16147712162E+03  0.12500197387E+03 0.  0.
    9000005    1    3    3    0    0 -0.18900293712E+01  0.46832878803E+02  0.10450592844E+03  0.11453986130E+03  0.10000000000E+01 0.  0.
    9000005    1    3    3    0    0  0.18900293712E+01 -0.46832878803E+02 -0.22837814588E+01  0.46937260314E+02  0.10000000000E+01 0.  0.
<mgrwt>
<rscale>  0 0.12500197E+03</rscale>
<asrwt>0</asrwt>
<pdfrwt beam="2">  1        4 0.45580750E-02 0.12500197E+03</pdfrwt>
<pdfrwt beam="1">  1       -4 0.20284559E-01 0.12500197E+03</pdfrwt>
<totfact> 0.97054456E+03</totfact>
</mgrwt>
</event>
<event>
 5    1  0.3304582E-002  0.1250007E+03  0.7818608E-02  0.1235068E+00
         -4   -1    0    0    0  501 -0.00000000000E+00  0.00000000000E+00  0.54171578001E+01  0.55640361816E+01  0.12700000000E+01 0.  1.
          4   -1    0    0  501    0  0.00000000000E+00 -0.00000000000E+00 -0.71130365231E+03  0.71130478607E+03  0.12700000000E+01 0.  1.
         25    2    1    2    0    0  0.00000000000E+00  0.00000000000E+00 -0.70588649451E+03  0.71686882225E+03  0.12500066075E+03 0.  0.
    9000005    1    3    3    0    0  0.32776475443E+02  0.50441010745E+02 -0.45004789356E+03  0.45405142815E+03  0.10000000000E+01 0.  0.
    9000005    1    3    3    0    0 -0.32776475443E+02 -0.50441010745E+02 -0.25583860095E+03  0.26281739410E+03  0.10000000000E+01 0.  0.
<mgrwt>
<rscale>  0 0.12500066E+03</rscale>
<asrwt>0</asrwt>
<pdfrwt beam="2">  1        4 0.10944264E+00 0.12500066E+03</pdfrwt>
<pdfrwt beam="1">  1       -4 0.84479501E-03 0.12500066E+03</pdfrwt>
<totfact> 0.42210455E+03</totfact>
</mgrwt>
</event>
<event>
 5    1  0.3304582E-002  0.1250133E+03  0.7818608E-02  0.1235049E+00
          4   -1    0    0  501    0  0.00000000000E+00  0.00000000000E+00  0.19288912637E+03  0.19289330723E+03  0.12700000000E+01 0.  1.
         -4   -1    0    0    0  501 -0.00000000000E+00 -0.00000000000E+00 -0.20231253077E+02  0.20271075479E+02  0.12700000000E+01 0.  1.
         25    2    1    2    0    0  0.00000000000E+00  0.00000000000E+00  0.17265787330E+03  0.21316438271E+03  0.12501325067E+03 0.  0.
    9000005    1    3    3    0    0 -0.55498694315E+02  0.16437305848E+02  0.46130124405E+02  0.74022148522E+02  0.10000000000E+01 0.  0.
    9000005    1    3    3    0    0  0.55498694315E+02 -0.16437305848E+02  0.12652774889E+03  0.13914223418E+03  0.10000000000E+01 0.  0.
<mgrwt>
<rscale>  0 0.12501325E+03</rscale>
<asrwt>0</asrwt>
<pdfrwt beam="1">  1        4 0.29678636E-01 0.12501325E+03</pdfrwt>
<pdfrwt beam="2">  1       -4 0.31158852E-02 0.12501325E+03</pdfrwt>
<totfact> 0.87935643E+03</totfact>
</mgrwt>
</event>
<event>
 5    1  0.3304582E-002  0.1250008E+03  0.7818608E-02  0.1235068E+00
         -4   -1    0    0    0  501 -0.00000000000E+00  0.00000000000E+00  0.10239429998E+04  0.10239437873E+04  0.12700000000E+01 0. -1.
          4   -1    0    0  501    0  0.00000000000E+00 -0.00000000000E+00 -0.37084527249E+01  0.39198879592E+01  0.12700000000E+01 0. -1.
         25    2    1    2    0    0  0.00000000000E+00  0.00000000000E+00  0.10202345470E+04  0.10278636753E+04  0.12500081624E+03 0.  0.
    9000005    1    3    3    0    0 -0.10275255282E+02  0.61531386580E+02  0.54045126408E+03  0.54404067977E+03  0.10000000000E+01 0.  0.
    9000005    1    3    3    0    0  0.10275255282E+02 -0.61531386580E+02  0.47978328295E+03  0.48382299553E+03  0.10000000000E+01 0.  0.
<mgrwt>
<rscale>  0 0.12500082E+03</rscale>
<asrwt>0</asrwt>
<pdfrwt beam="2">  1        4 0.58685533E-03 0.12500082E+03</pdfrwt>
<pdfrwt beam="1">  1       -4 0.15754620E+00 0.12500082E+03</pdfrwt>
<totfact> 0.29695569E+03</totfact>
</mgrwt>
</event>
<event>
 5    1  0.3304582E-002  0.1250012E+03  0.7818608E-02  0.1235067E+00
          4   -1    0    0  501    0  0.00000000000E+00  0.00000000000E+00  0.51197105903E+01  0.52748778686E+01  0.12700000000E+01 0. -1.
         -4   -1    0    0    0  501 -0.00000000000E+00 -0.00000000000E+00 -0.75145138950E+03  0.75145246268E+03  0.12700000000E+01 0. -1.
         25    2    1    2    0    0  0.00000000000E+00  0.00000000000E+00 -0.74633167891E+03  0.75672734055E+03  0.12500117201E+03 0.  0.
    9000005    1    3    3    0    0 -0.32809343364E+02 -0.79061752105E+01 -0.54760827593E+02  0.64332797678E+02  0.10000000000E+01 0.  0.
    9000005    1    3    3    0    0  0.32809343364E+02  0.79061752105E+01 -0.69157085131E+03  0.69239454288E+03  0.10000000000E+01 0.  0.
<mgrwt>
<rscale>  0 0.12500117E+03</rscale>
<asrwt>0</asrwt>
<pdfrwt beam="1">  1        4 0.79966688E-03 0.12500117E+03</pdfrwt>
<pdfrwt beam="2">  1       -4 0.11561984E+00 0.12500117E+03</pdfrwt>
<totfact> 0.40253412E+03</totfact>
</mgrwt>
</event>
<event>
 5    1  0.3304582E-002  0.1250010E+03  0.7818608E-02  0.1235068E+00
         -4   -1    0    0    0  501 -0.00000000000E+00  0.00000000000E+00  0.90948551493E+01  0.91830980713E+01  0.12700000000E+01 0. -1.
          4   -1    0    0  501    0  0.00000000000E+00 -0.00000000000E+00 -0.42734534742E+03  0.42734723453E+03  0.12700000000E+01 0. -1.
         25    2    1    2    0    0  0.00000000000E+00  0.00000000000E+00 -0.41825049227E+03  0.43653033261E+03  0.12500102799E+03 0.  0.
    9000005    1    3    3    0    0  0.34252602762E+02  0.26859583460E+02 -0.52533959078E+02  0.68231186975E+02  0.10000000000E+01 0.  0.
    9000005    1    3    3    0    0 -0.34252602762E+02 -0.26859583460E+02 -0.36571653320E+03  0.36829914563E+03  0.10000000000E+01 0.  0.
<mgrwt>
<rscale>  0 0.12500103E+03</rscale>
<asrwt>0</asrwt>
<pdfrwt beam="2">  1        4 0.65752356E-01 0.12500103E+03</pdfrwt>
<pdfrwt beam="1">  1       -4 0.14061419E-02 0.12500103E+03</pdfrwt>
<totfact> 0.61147106E+03</totfact>
</mgrwt>
</event>
<event>
 5    1  0.3304582E-002  0.1249986E+03  0.7818608E-02  0.1235071E+00
          4   -1    0    0  501    0  0.00000000000E+00  0.00000000000E+00  0.13997384514E+03  0.13997960645E+03  0.12700000000E+01 0.  1.
         -4   -1    0    0    0  501 -0.00000000000E+00 -0.00000000000E+00 -0.27885579370E+02  0.27914484355E+02  0.12700000000E+01 0.  1.
         25    2    1    2    0    0  0.00000000000E+00  0.00000000000E+00  0.11208826577E+03  0.16789409081E+03  0.12499858561E+03 0.  0.
    9000005    1    3    3    0    0 -0.69045245012E+01 -0.35640547537E+02  0.12436426756E+03  0.12955845064E+03  0.10000000000E+01 0.  0.
    9000005    1    3    3    0    0  0.69045245012E+01  0.35640547537E+02 -0.12276001788E+02  0.38335640169E+02  0.10000000000E+01 0.  0.
<mgrwt>
<rscale>  0 0.12499859E+03</rscale>
<asrwt>0</asrwt>
<pdfrwt beam="1">  1        4 0.21537104E-01 0.12499859E+03</pdfrwt>
<pdfrwt beam="2">  1       -4 0.42927558E-02 0.12499859E+03</pdfrwt>
<totfact> 0.95845132E+03</totfact>
</mgrwt>
</event>
<event>
 5    1  0.3304582E-002  0.1249519E+03  0.7818608E-02  0.1235144E+00
          4   -1    0    0  501    0  0.00000000000E+00  0.00000000000E+00  0.17347628734E+04  0.17347633383E+04  0.12700000000E+01 0. -1.
         -4   -1    0    0    0  501 -0.00000000000E+00 -0.00000000000E+00 -0.20703044130E+01  0.24287981313E+01  0.12700000000E+01 0. -1.
         25    2    1    2    0    0  0.00000000000E+00  0.00000000000E+00  0.17326925690E+04  0.17371921364E+04  0.12495191144E+03 0.  0.
    9000005    1    3    3    0    0 -0.48652369093E+02 -0.26111436582E+02  0.12724878411E+04  0.12736856621E+04  0.10000000000E+01 0.  0.
    9000005    1    3    3    0    0  0.48652369093E+02  0.26111436582E+02  0.46020472796E+03  0.46350647437E+03  0.10000000000E+01 0.  0.
<mgrwt>
<rscale>  0 0.12495191E+03</rscale>
<asrwt>0</asrwt>
<pdfrwt beam="1">  1        4 0.26691351E+00 0.12495191E+03</pdfrwt>
<pdfrwt beam="2">  1       -4 0.34612148E-03 0.12495191E+03</pdfrwt>
<totfact> 0.13710914E+03</totfact>
</mgrwt>
</event>
<event>
 5    1  0.3304582E-002  0.1250068E+03  0.7818608E-02  0.1235059E+00
         -4   -1    0    0    0  501 -0.00000000000E+00  0.00000000000E+00  0.14034479259E+03  0.14035053868E+03  0.12700000000E+01 0. -1.
          4   -1    0    0  501    0  0.00000000000E+00 -0.00000000000E+00 -0.27815481464E+02  0.27844459217E+02  0.12700000000E+01 0. -1.
         25    2    1    2    0    0  0.00000000000E+00  0.00000000000E+00  0.11252931113E+03  0.16819499789E+03  0.12500684563E+03 0.  0.
    9000005    1    3    3    0    0  0.38507689380E+02  0.49218587807E+02  0.55450290131E+02  0.83552655270E+02  0.10000000000E+01 0.  0.
    9000005    1    3    3    0    0 -0.38507689380E+02 -0.49218587807E+02  0.57079020995E+02  0.84642342624E+02  0.10000000000E+01 0.  0.
<mgrwt>
<rscale>  0 0.12500685E+03</rscale>
<asrwt>0</asrwt>
<pdfrwt beam="2">  1        4 0.42819759E-02 0.12500685E+03</pdfrwt>
<pdfrwt beam="1">  1       -4 0.21594178E-01 0.12500685E+03</pdfrwt>
<totfact> 0.95770985E+03</totfact>
</mgrwt>
</event>
<event>
 5    1  0.3304582E-002  0.1250015E+03  0.7818608E-02  0.1235067E+00
          4   -1    0    0  501    0  0.00000000000E+00  0.00000000000E+00  0.45951622805E+03  0.45951798305E+03  0.12700000000E+01 0.  1.
         -4   -1    0    0    0  501 -0.00000000000E+00 -0.00000000000E+00 -0.84517714795E+01  0.85466567230E+01  0.12700000000E+01 0.  1.
         25    2    1    2    0    0  0.00000000000E+00  0.00000000000E+00  0.45106445658E+03  0.46806463977E+03  0.12500145207E+03 0.  0.
    9000005    1    3    3    0    0 -0.36981981470E+02  0.46160360611E+02  0.30106438817E+03  0.30682113954E+03  0.10000000000E+01 0.  0.
    9000005    1    3    3    0    0  0.36981981470E+02 -0.46160360611E+02  0.15000006840E+03  0.16124350023E+03  0.10000000000E+01 0.  0.
<mgrwt>
<rscale>  0 0.12500145E+03</rscale>
<asrwt>0</asrwt>
<pdfrwt beam="1">  1        4 0.70702253E-01 0.12500145E+03</pdfrwt>
<pdfrwt beam="2">  1       -4 0.13077061E-02 0.12500145E+03</pdfrwt>
<totfact> 0.58428310E+03</totfact>
</mgrwt>
</event>
<event>
 5    1  0.3304582E-002  0.1249995E+03  0.7818608E-02  0.1235070E+00
          4   -1    0    0  501    0  0.00000000000E+00  0.00000000000E+00  0.26878674172E+02  0.26908660785E+02  0.12700000000E+01 0. -1.
         -4   -1    0    0    0  501 -0.00000000000E+00 -0.00000000000E+00 -0.14521396993E+03  0.14521952335E+03  0.12700000000E+01 0. -1.
         25    2    1    2    0    0  0.00000000000E+00  0.00000000000E+00 -0.11833529576E+03  0.17212818414E+03  0.12499947821E+03 0.  0.
    9000005    1    3    3    0    0  0.54014432147E+02 -0.30111199678E+02 -0.71558952058E+02  0.94582909904E+02  0.10000000000E+01 0.  0.
    9000005    1    3    3    0    0 -0.54014432147E+02  0.30111199678E+02 -0.46776343699E+02  0.77545274234E+02  0.10000000000E+01 0.  0.
<mgrwt>
<rscale>  0 0.12499948E+03</rscale>
<asrwt>0</asrwt>
<pdfrwt beam="1">  1        4 0.41379146E-02 0.12499948E+03</pdfrwt>
<pdfrwt beam="2">  1       -4 0.22343344E-01 0.12499948E+03</pdfrwt>
<totfact> 0.95054567E+03</totfact>
</mgrwt>
</event>
<event>
 5    1  0.3304582E-002  0.1249970E+03  0.7818608E-02  0.1235074E+00
          4   -1    0    0  501    0  0.00000000000E+00  0.00000000000E+00  0.45172785453E+02  0.45190634490E+02  0.12700000000E+01 0.  1.
         -4   -1    0    0    0  501 -0.00000000000E+00 -0.00000000000E+00 -0.86429724938E+02  0.86439055136E+02  0.12700000000E+01 0.  1.
         25    2    1    2    0    0  0.00000000000E+00  0.00000000000E+00 -0.41256939485E+02  0.13162968963E+03  0.12499696050E+03 0.  0.
    9000005    1    3    3    0    0 -0.41853379937E+02  0.18078204314E+02  0.24377298978E+02  0.51708602658E+02  0.10000000000E+01 0.  0.
    9000005    1    3    3    0    0  0.41853379937E+02 -0.18078204314E+02 -0.65634238463E+02  0.79921086967E+02  0.10000000000E+01 0.  0.
<mgrwt>
<rscale>  0 0.12499696E+03</rscale>
<asrwt>0</asrwt>
<pdfrwt beam="1">  1        4 0.69517500E-02 0.12499696E+03</pdfrwt>
<pdfrwt beam="2">  1       -4 0.13298971E-01 0.12499696E+03</pdfrwt>
<totfact> 0.10310316E+04</totfact>
</mgrwt>
</event>
<event>
 5    1  0.3304582E-002  0.1249987E+03  0.7818608E-02  0.1235071E+00
          4   -1    0    0  501    0  0.00000000000E+00  0.00000000000E+00  0.11353277683E+02  0.11424089204E+02  0.12700000000E+01 0.  1.
         -4   -1    0    0    0  501 -0.00000000000E+00 -0.00000000000E+00 -0.34291502791E+03  0.34291737965E+03  0.12700000000E+01 0.  1.
         25    2    1    2    0    0  0.00000000000E+00  0.00000000000E+00 -0.33156175023E+03  0.35434146886E+03  0.12499872934E+03 0.  0.
    9000005    1    3    3    0    0 -0.48403189293E+02 -0.60126519802E+01 -0.55038209125E+02  0.73547434906E+02  0.10000000000E+01 0.  0.
    9000005    1    3    3    0    0  0.48403189293E+02  0.60126519802E+01 -0.27652354111E+03  0.28079403395E+03  0.10000000000E+01 0.  0.
<mgrwt>
<rscale>  0 0.12499873E+03</rscale>
<asrwt>0</asrwt>
<pdfrwt beam="1">  1        4 0.17522863E-02 0.12499873E+03</pdfrwt>
<pdfrwt beam="2">  1       -4 0.52761778E-01 0.12499873E+03</pdfrwt>
<totfact> 0.69251518E+03</totfact>
</mgrwt>
</event>
<event>
 5    1  0.3304582E-002  0.1249994E+03  0.7818608E-02  0.1235070E+00
         -4   -1    0    0    0  501 -0.00000000000E+00  0.00000000000E+00  0.32257512310E+03  0.32257762313E+03  0.12700000000E+01 0.  1.
          4   -1    0    0  501    0  0.00000000000E+00 -0.00000000000E+00 -0.12073623270E+02  0.12140233889E+02  0.12700000000E+01 0.  1.
         25    2    1    2    0    0  0.00000000000E+00  0.00000000000E+00  0.31050149983E+03  0.33471785702E+03  0.12499944964E+03 0.  0.
    9000005    1    3    3    0    0  0.35908543567E+00  0.32152403668E+02  0.29873716755E+03  0.30046430950E+03  0.10000000000E+01 0.  0.
    9000005    1    3    3    0    0 -0.35908543567E+00 -0.32152403668E+02  0.11764332281E+02  0.34253547524E+02  0.10000000000E+01 0.  0.
<mgrwt>
<rscale>  0 0.12499945E+03</rscale>
<asrwt>0</asrwt>
<pdfrwt beam="2">  1        4 0.18627969E-02 0.12499945E+03</pdfrwt>
<pdfrwt beam="1">  1       -4 0.49632254E-01 0.12499945E+03</pdfrwt>
<totfact> 0.71440032E+03</totfact>
</mgrwt>
</event>
<event>
 5    1  0.3304582E-002  0.1249951E+03  0.7818608E-02  0.1235077E+00
          4   -1    0    0  501    0  0.00000000000E+00  0.00000000000E+00  0.23707359290E+01  0.26894774297E+01  0.12700000000E+01 0. -1.
         -4   -1    0    0    0  501 -0.00000000000E+00 -0.00000000000E+00 -0.15434677169E+04  0.15434682394E+04  0.12700000000E+01 0. -1.
         25    2    1    2    0    0  0.00000000000E+00  0.00000000000E+00 -0.15410969809E+04  0.15461577168E+04  0.12499512202E+03 0.  0.
    9000005    1    3    3    0    0  0.40209999077E+02 -0.41640990014E+02 -0.10617316067E+04  0.10633089019E+04  0.10000000000E+01 0.  0.
    9000005    1    3    3    0    0 -0.40209999077E+02  0.41640990014E+02 -0.47936537420E+03  0.48284881491E+03  0.10000000000E+01 0.  0.
<mgrwt>
<rscale>  0 0.12499512E+03</rscale>
<asrwt>0</asrwt>
<pdfrwt beam="1">  1        4 0.38928861E-03 0.12499512E+03</pdfrwt>
<pdfrwt beam="2">  1       -4 0.23748038E+00 0.12499512E+03</pdfrwt>
<totfact> 0.17042628E+03</totfact>
</mgrwt>
</event>
<event>
 5    1  0.3304582E-002  0.1249957E+03  0.7818608E-02  0.1235076E+00
          4   -1    0    0  501    0  0.00000000000E+00  0.00000000000E+00  0.18393595241E+03  0.18394033676E+03  0.12700000000E+01 0.  1.
         -4   -1    0    0    0  501 -0.00000000000E+00 -0.00000000000E+00 -0.21211907479E+02  0.21249892209E+02  0.12700000000E+01 0.  1.
         25    2    1    2    0    0  0.00000000000E+00  0.00000000000E+00  0.16272404493E+03  0.20519022897E+03  0.12499566099E+03 0.  0.
    9000005    1    3    3    0    0  0.43635812541E+02 -0.22726511693E+02  0.14460863389E+03  0.15275220281E+03  0.10000000000E+01 0.  0.
    9000005    1    3    3    0    0 -0.43635812541E+02  0.22726511693E+02  0.18115411040E+02  0.52438026155E+02  0.10000000000E+01 0.  0.
<mgrwt>
<rscale>  0 0.12499566E+03</rscale>
<asrwt>0</asrwt>
<pdfrwt beam="1">  1        4 0.28301098E-01 0.12499566E+03</pdfrwt>
<pdfrwt beam="2">  1       -4 0.32666295E-02 0.12499566E+03</pdfrwt>
<totfact> 0.89276116E+03</totfact>
</mgrwt>
</event>
<event>
 5    1  0.3304582E-002  0.1250189E+03  0.7818608E-02  0.1235040E+00
         -4   -1    0    0    0  501 -0.00000000000E+00  0.00000000000E+00  0.22808065716E+02  0.22843396458E+02  0.12700000000E+01 0.  1.
          4   -1    0    0  501    0  0.00000000000E+00 -0.00000000000E+00 -0.17114769485E+03  0.17115240680E+03  0.12700000000E+01 0.  1.
         25    2    1    2    0    0  0.00000000000E+00  0.00000000000E+00 -0.14833962913E+03  0.19399580325E+03  0.12501890301E+03 0.  0.
    9000005    1    3    3    0    0  0.23690719371E+02 -0.51583799980E+02 -0.11476155523E+03  0.12803653058E+03  0.10000000000E+01 0.  0.
    9000005    1    3    3    0    0 -0.23690719371E+02  0.51583799980E+02 -0.33578073907E+02  0.65959272676E+02  0.10000000000E+01 0.  0.
<mgrwt>
<rscale>  0 0.12501890E+03</rscale>
<asrwt>0</asrwt>
<pdfrwt beam="2">  1        4 0.26333494E-01 0.12501890E+03</pdfrwt>
<pdfrwt beam="1">  1       -4 0.35120135E-02 0.12501890E+03</pdfrwt>
<totfact> 0.91118097E+03</totfact>
</mgrwt>
</event>
<event>
 5    1  0.3304582E-002  0.1249842E+03  0.7818608E-02  0.1235094E+00
          4   -1    0    0  501    0  0.00000000000E+00  0.00000000000E+00  0.23298002265E+02  0.23332591145E+02  0.12700000000E+01 0.  1.
         -4   -1    0    0    0  501 -0.00000000000E+00 -0.00000000000E+00 -0.16746094439E+03  0.16746576007E+03  0.12700000000E+01 0.  1.
         25    2    1    2    0    0  0.00000000000E+00  0.00000000000E+00 -0.14416294213E+03  0.19079835122E+03  0.12498422678E+03 0.  0.
    9000005    1    3    3    0    0 -0.40571952256E+02  0.10145563050E+02 -0.14295239311E+03  0.14894765005E+03  0.10000000000E+01 0.  0.
    9000005    1    3    3    0    0  0.40571952256E+02 -0.10145563050E+02 -0.12105490186E+01  0.41850701170E+02  0.10000000000E+01 0.  0.
<mgrwt>
<rscale>  0 0.12498423E+03</rscale>
<asrwt>0</asrwt>
<pdfrwt beam="1">  1        4 0.35873393E-02 0.12498423E+03</pdfrwt>
<pdfrwt beam="2">  1       -4 0.25766253E-01 0.12498423E+03</pdfrwt>
<totfact> 0.91740997E+03</totfact>
</mgrwt>
</event>
<event>
 5    1  0.3304582E-002  0.1250028E+03  0.7818608E-02  0.1235065E+00
          4   -1    0    0  501    0  0.00000000000E+00  0.00000000000E+00  0.37011956341E+02  0.37033738836E+02  0.12700000000E+01 0.  1.
         -4   -1    0    0    0  501 -0.00000000000E+00 -0.00000000000E+00 -0.10548829866E+03  0.10549594331E+03  0.12700000000E+01 0.  1.
         25    2    1    2    0    0  0.00000000000E+00  0.00000000000E+00 -0.68476342322E+02  0.14252968215E+03  0.12500280331E+03 0.  0.
    9000005    1    3    3    0    0  0.14680629979E+02 -0.57424653802E+02 -0.56822238583E+02  0.82115032475E+02  0.10000000000E+01 0.  0.
    9000005    1    3    3    0    0 -0.14680629979E+02  0.57424653802E+02 -0.11654103739E+02  0.60414649671E+02  0.10000000000E+01 0.  0.
<mgrwt>
<rscale>  0 0.12500280E+03</rscale>
<asrwt>0</asrwt>
<pdfrwt beam="1">  1        4 0.56964108E-02 0.12500280E+03</pdfrwt>
<pdfrwt beam="2">  1       -4 0.16231233E-01 0.12500280E+03</pdfrwt>
<totfact> 0.10080787E+04</totfact>
</mgrwt>
</event>
<event>
 5    1  0.3304582E-002  0.1250018E+03  0.7818608E-02  0.1235066E+00
         -4   -1    0    0    0  501 -0.00000000000E+00  0.00000000000E+00  0.13314016123E+04  0.13314022180E+04  0.12700000000E+01 0.  1.
          4   -1    0    0  501    0  0.00000000000E+00 -0.00000000000E+00 -0.27959566849E+01  0.30708750844E+01  0.12700000000E+01 0.  1.
         25    2    1    2    0    0  0.00000000000E+00  0.00000000000E+00  0.13286056556E+04  0.13344730931E+04  0.12500179228E+03 0.  0.
    9000005    1    3    3    0    0  0.32821755595E+02 -0.32178652371E+02  0.21230249422E+03  0.21722357690E+03  0.10000000000E+01 0.  0.
    9000005    1    3    3    0    0 -0.32821755595E+02  0.32178652371E+02  0.11163031614E+04  0.11172495162E+04  0.10000000000E+01 0.  0.
<mgrwt>
<rscale>  0 0.12500179E+03</rscale>
<asrwt>0</asrwt>
<pdfrwt beam="2">  1        4 0.45134242E-03 0.12500179E+03</pdfrwt>
<pdfrwt beam="1">  1       -4 0.20485172E+00 0.12500179E+03</pdfrwt>
<totfact> 0.21428453E+03</totfact>
</mgrwt>
</event>
<event>
 5    1  0.3304582E-002  0.1249991E+03  0.7818608E-02  0.1235071E+00
         -4   -1    0    0    0  501 -0.00000000000E+00  0.00000000000E+00  0.50899121794E+03  0.50899280235E+03  0.12700000000E+01 0. -1.
          4   -1    0    0  501    0  0.00000000000E+00 -0.00000000000E+00 -0.76202303926E+01  0.77253356714E+01  0.12700000000E+01 0. -1.
         25    2    1    2    0    0  0.00000000000E+00  0.00000000000E+00  0.50137098755E+03  0.51671813802E+03  0.12499906800E+03 0.  0.
    9000005    1    3    3    0    0  0.14218386993E+01 -0.40613153517E+02  0.54440304282E+02  0.67942597788E+02  0.10000000000E+01 0.  0.
    9000005    1    3    3    0    0 -0.14218386993E+01  0.40613153517E+02  0.44693068327E+03  0.44877554023E+03  0.10000000000E+01 0.  0.
<mgrwt>
<rscale>  0 0.12499907E+03</rscale>
<asrwt>0</asrwt>
<pdfrwt beam="2">  1        4 0.11805498E-02 0.12499907E+03</pdfrwt>
<pdfrwt beam="1">  1       -4 0.78314561E-01 0.12499907E+03</pdfrwt>
<totfact> 0.54591292E+03</totfact>
</mgrwt>
</event>
<event>
 5    1  0.3304582E-002  0.1249973E+03  0.7818608E-02  0.1235073E+00
          4   -1    0    0  501    0  0.00000000000E+00  0.00000000000E+00  0.94023491481E+03  0.94023577253E+03  0.12700000000E+01 0.  1.
         -4   -1    0    0    0  501 -0.00000000000E+00 -0.00000000000E+00 -0.40564300106E+01  0.42505910684E+01  0.12700000000E+01 0.  1.
         25    2    1    2    0    0  0.00000000000E+00  0.00000000000E+00  0.93617848480E+03  0.94448636359E+03  0.12499734239E+03 0.  0.
    9000005    1    3    3    0    0  0.19560756817E+02  0.67682955624E+01  0.91361770352E+03  0.91385269120E+03  0.10000000000E+01 0.  0.
    9000005    1    3    3    0    0 -0.19560756817E+02 -0.67682955624E+01  0.22560781286E+02  0.30633672393E+02  0.10000000000E+01 0.  0.
<mgrwt>
<rscale>  0 0.12499734E+03</rscale>
<asrwt>0</asrwt>
<pdfrwt beam="1">  1        4 0.14466656E+00 0.12499734E+03</pdfrwt>
<pdfrwt beam="2">  1       -4 0.63906746E-03 0.12499734E+03</pdfrwt>
<totfact> 0.32514416E+03</totfact>
</mgrwt>
</event>
<event>
 5    1  0.3304582E-002  0.1249973E+03  0.7818608E-02  0.1235074E+00
          4   -1    0    0  501    0  0.00000000000E+00  0.00000000000E+00  0.61663107307E+03  0.61663238090E+03  0.12700000000E+01 0.  1.
         -4   -1    0    0    0  501 -0.00000000000E+00 -0.00000000000E+00 -0.62695652494E+01  0.63969014700E+01  0.12700000000E+01 0.  1.
         25    2    1    2    0    0  0.00000000000E+00  0.00000000000E+00  0.61036150782E+03  0.62302928237E+03  0.12499726582E+03 0.  0.
    9000005    1    3    3    0    0 -0.14582844596E+02  0.45777389327E+02  0.50435815409E+03  0.50664225675E+03  0.10000000000E+01 0.  0.
    9000005    1    3    3    0    0  0.14582844596E+02 -0.45777389327E+02  0.10600335373E+03  0.11638702562E+03  0.10000000000E+01 0.  0.
<mgrwt>
<rscale>  0 0.12499727E+03</rscale>
<asrwt>0</asrwt>
<pdfrwt beam="1">  1        4 0.94876175E-01 0.12499727E+03</pdfrwt>
<pdfrwt beam="2">  1       -4 0.97444460E-03 0.12499727E+03</pdfrwt>
<totfact> 0.47448329E+03</totfact>
</mgrwt>
</event>
<event>
 5    1  0.3304582E-002  0.1250029E+03  0.7818608E-02  0.1235065E+00
         -4   -1    0    0    0  501 -0.00000000000E+00  0.00000000000E+00  0.13665387349E+02  0.13724274531E+02  0.12700000000E+01 0.  1.
          4   -1    0    0  501    0  0.00000000000E+00 -0.00000000000E+00 -0.28518842011E+03  0.28519124787E+03  0.12700000000E+01 0.  1.
         25    2    1    2    0    0  0.00000000000E+00  0.00000000000E+00 -0.27152303276E+03  0.29891552241E+03  0.12500292883E+03 0.  0.
    9000005    1    3    3    0    0 -0.70233700244E+00  0.41762584801E+02 -0.24691887205E+03  0.25042870470E+03  0.10000000000E+01 0.  0.
    9000005    1    3    3    0    0  0.70233700244E+00 -0.41762584801E+02 -0.24604160712E+02  0.48486817701E+02  0.10000000000E+01 0.  0.
<mgrwt>
<rscale>  0 0.12500293E+03</rscale>
<asrwt>0</asrwt>
<pdfrwt beam="2">  1        4 0.43879884E-01 0.12500293E+03</pdfrwt>
<pdfrwt beam="1">  1       -4 0.21071148E-02 0.12500293E+03</pdfrwt>
<totfact> 0.75730153E+03</totfact>
</mgrwt>
</event>
<event>
 5    1  0.3304582E-002  0.1249986E+03  0.7818608E-02  0.1235072E+00
          4   -1    0    0  501    0  0.00000000000E+00  0.00000000000E+00  0.97033422029E+02  0.97041732727E+02  0.12700000000E+01 0.  1.
         -4   -1    0    0    0  501 -0.00000000000E+00 -0.00000000000E+00 -0.40235763347E+02  0.40255801471E+02  0.12700000000E+01 0.  1.
         25    2    1    2    0    0  0.00000000000E+00  0.00000000000E+00  0.56797658683E+02  0.13729753420E+03  0.12499855545E+03 0.  0.
    9000005    1    3    3    0    0  0.60557402284E+02 -0.13339465186E+02  0.36908320997E+02  0.72168999312E+02  0.10000000000E+01 0.  0.
    9000005    1    3    3    0    0 -0.60557402284E+02  0.13339465186E+02  0.19889337686E+02  0.65128534886E+02  0.10000000000E+01 0.  0.
<mgrwt>
<rscale>  0 0.12499856E+03</rscale>
<asrwt>0</asrwt>
<pdfrwt beam="1">  1        4 0.14930399E-01 0.12499856E+03</pdfrwt>
<pdfrwt beam="2">  1       -4 0.61922981E-02 0.12499856E+03</pdfrwt>
<totfact> 0.10190200E+04</totfact>
</mgrwt>
</event>
<event>
 5    1  0.3304582E-002  0.1249968E+03  0.7818608E-02  0.1235074E+00
          4   -1    0    0  501    0  0.00000000000E+00  0.00000000000E+00  0.13126929645E+02  0.13188221333E+02  0.12700000000E+01 0. -1.
         -4   -1    0    0    0  501 -0.00000000000E+00 -0.00000000000E+00 -0.29680433363E+03  0.29680705073E+03  0.12700000000E+01 0. -1.
         25    2    1    2    0    0  0.00000000000E+00  0.00000000000E+00 -0.28367740398E+03  0.30999527206E+03  0.12499679663E+03 0.  0.
    9000005    1    3    3    0    0 -0.45421207832E+01 -0.46567983096E+02 -0.39109286044E+02  0.60989705408E+02  0.10000000000E+01 0.  0.
    9000005    1    3    3    0    0  0.45421207832E+01  0.46567983096E+02 -0.24456811794E+03  0.24900556665E+03  0.10000000000E+01 0.  0.
<mgrwt>
<rscale>  0 0.12499680E+03</rscale>
<asrwt>0</asrwt>
<pdfrwt beam="1">  1        4 0.20244516E-02 0.12499680E+03</pdfrwt>
<pdfrwt beam="2">  1       -4 0.45667124E-01 0.12499680E+03</pdfrwt>
<totfact> 0.74367202E+03</totfact>
</mgrwt>
</event>
<event>
 5    1  0.3304582E-002  0.1249977E+03  0.7818608E-02  0.1235073E+00
         -4   -1    0    0    0  501 -0.00000000000E+00  0.00000000000E+00  0.13554115039E+03  0.13554710011E+03  0.12700000000E+01 0. -1.
          4   -1    0    0  501    0  0.00000000000E+00 -0.00000000000E+00 -0.28798032119E+02  0.28826022166E+02  0.12700000000E+01 0. -1.
         25    2    1    2    0    0  0.00000000000E+00  0.00000000000E+00  0.10674311827E+03  0.16437312227E+03  0.12499772009E+03 0.  0.
    9000005    1    3    3    0    0  0.21047368979E+02 -0.58737400501E+02  0.48809871195E+02  0.79224222840E+02  0.10000000000E+01 0.  0.
    9000005    1    3    3    0    0 -0.21047368979E+02  0.58737400501E+02  0.57933247072E+02  0.85148899434E+02  0.10000000000E+01 0.  0.
<mgrwt>
<rscale>  0 0.12499772E+03</rscale>
<asrwt>0</asrwt>
<pdfrwt beam="2">  1        4 0.44330773E-02 0.12499772E+03</pdfrwt>
<pdfrwt beam="1">  1       -4 0.20855095E-01 0.12499772E+03</pdfrwt>
<totfact> 0.96511188E+03</totfact>
</mgrwt>
</event>
<event>
 5    1  0.3304582E-002  0.1250018E+03  0.7818608E-02  0.1235066E+00
          4   -1    0    0  501    0  0.00000000000E+00  0.00000000000E+00  0.35986458567E+02  0.36008861412E+02  0.12700000000E+01 0. -1.
         -4   -1    0    0    0  501 -0.00000000000E+00 -0.00000000000E+00 -0.10849104365E+03  0.10849847673E+03  0.12700000000E+01 0. -1.
         25    2    1    2    0    0  0.00000000000E+00  0.00000000000E+00 -0.72504585086E+02  0.14450733814E+03  0.12500182366E+03 0.  0.
    9000005    1    3    3    0    0 -0.35633215050E+02  0.47090328109E+02 -0.12613032861E+02  0.60392993088E+02  0.10000000000E+01 0.  0.
    9000005    1    3    3    0    0  0.35633215050E+02 -0.47090328109E+02 -0.59891552225E+02  0.84114345055E+02  0.10000000000E+01 0.  0.
<mgrwt>
<rscale>  0 0.12500182E+03</rscale>
<asrwt>0</asrwt>
<pdfrwt beam="1">  1        4 0.55386733E-02 0.12500182E+03</pdfrwt>
<pdfrwt beam="2">  1       -4 0.16693225E-01 0.12500182E+03</pdfrwt>
<totfact> 0.10040595E+04</totfact>
</mgrwt>
</event>
<event>
 5    1  0.3304582E-002  0.1250017E+03  0.7818608E-02  0.1235067E+00
          4   -1    0    0  501    0  0.00000000000E+00  0.00000000000E+00  0.67576268422E+02  0.67588201292E+02  0.12700000000E+01 0. -1.
         -4   -1    0    0    0  501 -0.00000000000E+00 -0.00000000000E+00 -0.57782641637E+02  0.57796596566E+02  0.12700000000E+01 0. -1.
         25    2    1    2    0    0  0.00000000000E+00  0.00000000000E+00  0.97936267845E+01  0.12538479786E+03  0.12500172962E+03 0.  0.
    9000005    1    3    3    0    0  0.90594792477E+01 -0.60167056238E+02  0.19195647641E+02  0.63809260370E+02  0.10000000000E+01 0.  0.
    9000005    1    3    3    0    0 -0.90594792477E+01  0.60167056238E+02 -0.94020208569E+01  0.61575537487E+02  0.10000000000E+01 0.  0.
<mgrwt>
<rscale>  0 0.12500173E+03</rscale>
<asrwt>0</asrwt>
<pdfrwt beam="1">  1        4 0.10398340E-01 0.12500173E+03</pdfrwt>
<pdfrwt beam="2">  1       -4 0.88916286E-02 0.12500173E+03</pdfrwt>
<totfact> 0.10444096E+04</totfact>
</mgrwt>
</event>
<event>
 5    1  0.3304582E-002  0.1249971E+03  0.7818608E-02  0.1235074E+00
          4   -1    0    0  501    0  0.00000000000E+00  0.00000000000E+00  0.93489456995E+02  0.93498082704E+02  0.12700000000E+01 0.  1.
         -4   -1    0    0    0  501 -0.00000000000E+00 -0.00000000000E+00 -0.41760662005E+02  0.41779968778E+02  0.12700000000E+01 0.  1.
         25    2    1    2    0    0  0.00000000000E+00  0.00000000000E+00  0.51728794990E+02  0.13527805148E+03  0.12499713189E+03 0.  0.
    9000005    1    3    3    0    0 -0.40041317723E+02  0.42835204408E+02  0.24790752016E+01  0.58696743313E+02  0.10000000000E+01 0.  0.
    9000005    1    3    3    0    0  0.40041317723E+02 -0.42835204408E+02  0.49249719789E+02  0.76581308169E+02  0.10000000000E+01 0.  0.
<mgrwt>
<rscale>  0 0.12499713E+03</rscale>
<asrwt>0</asrwt>
<pdfrwt beam="1">  1        4 0.14385142E-01 0.12499713E+03</pdfrwt>
<pdfrwt beam="2">  1       -4 0.64268659E-02 0.12499713E+03</pdfrwt>
<totfact> 0.10232875E+04</totfact>
</mgrwt>
</event>
<event>
 5    1  0.3304582E-002  0.1250027E+03  0.7818608E-02  0.1235065E+00
          4   -1    0    0  501    0  0.00000000000E+00  0.00000000000E+00  0.63198544565E+01  0.64461973559E+01  0.12700000000E+01 0. -1.
         -4   -1    0    0    0  501 -0.00000000000E+00 -0.00000000000E+00 -0.61187439498E+03  0.61187571298E+03  0.12700000000E+01 0. -1.
         25    2    1    2    0    0  0.00000000000E+00  0.00000000000E+00 -0.60555454053E+03  0.61832191034E+03  0.12500273297E+03 0.  0.
    9000005    1    3    3    0    0 -0.23219494811E+02  0.39087747778E+02 -0.90688365086E+02  0.10145135055E+03  0.10000000000E+01 0.  0.
    9000005    1    3    3    0    0  0.23219494811E+02 -0.39087747778E+02 -0.51486617544E+03  0.51687055979E+03  0.10000000000E+01 0.  0.
<mgrwt>
<rscale>  0 0.12500273E+03</rscale>
<asrwt>0</asrwt>
<pdfrwt beam="1">  1        4 0.98210585E-03 0.12500273E+03</pdfrwt>
<pdfrwt beam="2">  1       -4 0.94144296E-01 0.12500273E+03</pdfrwt>
<totfact> 0.47728291E+03</totfact>
</mgrwt>
</event>
<event>
 5    1  0.3304582E-002  0.1249991E+03  0.7818608E-02  0.1235071E+00
          4   -1    0    0  501    0  0.00000000000E+00  0.00000000000E+00  0.11035695673E+02  0.11108531811E+02  0.12700000000E+01 0. -1.
         -4   -1    0    0    0  501 -0.00000000000E+00 -0.00000000000E+00 -0.35272154113E+03  0.35272382749E+03  0.12700000000E+01 0. -1.
         25    2    1    2    0    0  0.00000000000E+00  0.00000000000E+00 -0.34168584546E+03  0.36383235930E+03  0.12499907474E+03 0.  0.
    9000005    1    3    3    0    0  0.38288491832E+02  0.21851048013E+02 -0.29976061128E+03  0.30298663499E+03  0.10000000000E+01 0.  0.
    9000005    1    3    3    0    0 -0.38288491832E+02 -0.21851048013E+02 -0.41925234175E+02  0.60845724309E+02  0.10000000000E+01 0.  0.
<mgrwt>
<rscale>  0 0.12499907E+03</rscale>
<asrwt>0</asrwt>
<pdfrwt beam="1">  1        4 0.17035783E-02 0.12499907E+03</pdfrwt>
<pdfrwt beam="2">  1       -4 0.54270623E-01 0.12499907E+03</pdfrwt>
<totfact> 0.68230562E+03</totfact>
</mgrwt>
</event>
<event>
 5    1  0.3304582E-002  0.1250079E+03  0.7818608E-02  0.1235057E+00
         -4   -1    0    0    0  501 -0.00000000000E+00  0.00000000000E+00  0.15981363016E+02  0.16031745502E+02  0.12700000000E+01 0. -1.
          4   -1    0    0  501    0  0.00000000000E+00 -0.00000000000E+00 -0.24401929520E+03  0.24402260004E+03  0.12700000000E+01 0. -1.
         25    2    1    2    0    0  0.00000000000E+00  0.00000000000E+00 -0.22803793218E+03  0.26005434554E+03  0.12500785623E+03 0.  0.
    9000005    1    3    3    0    0 -0.19703315078E+02  0.57300953533E+02 -0.14584973377E+03  0.15793911720E+03  0.10000000000E+01 0.  0.
    9000005    1    3    3    0    0  0.19703315078E+02 -0.57300953533E+02 -0.82188198413E+02  0.10211522834E+03  0.10000000000E+01 0.  0.
<mgrwt>
<rscale>  0 0.12500786E+03</rscale>
<asrwt>0</asrwt>
<pdfrwt beam="2">  1        4 0.37545557E-01 0.12500786E+03</pdfrwt>
<pdfrwt beam="1">  1       -4 0.24628012E-02 0.12500786E+03</pdfrwt>
<totfact> 0.80884290E+03</totfact>
</mgrwt>
</event>
<event>
 5    1  0.3304582E-002  0.1249994E+03  0.7818608E-02  0.1235070E+00
         -4   -1    0    0    0  501 -0.00000000000E+00  0.00000000000E+00  0.36170337979E+03  0.36170560938E+03  0.12700000000E+01 0. -1.
          4   -1    0    0  501    0  0.00000000000E+00 -0.00000000000E+00 -0.10759891499E+02  0.10834581905E+02  0.12700000000E+01 0. -1.
         25    2    1    2    0    0  0.00000000000E+00  0.00000000000E+00  0.35094348829E+03  0.37254019128E+03  0.12499944857E+03 0.  0.
    9000005    1    3    3    0    0  0.20518475477E+02  0.55994008975E+02  0.23113931084E+03  0.23871053159E+03  0.10000000000E+01 0.  0.
    9000005    1    3    3    0    0 -0.20518475477E+02 -0.55994008975E+02  0.11980417745E+03  0.13382965969E+03  0.10000000000E+01 0.  0.
<mgrwt>
<rscale>  0 0.12499945E+03</rscale>
<asrwt>0</asrwt>
<pdfrwt beam="2">  1        4 0.16612847E-02 0.12499945E+03</pdfrwt>
<pdfrwt beam="1">  1       -4 0.55652596E-01 0.12499945E+03</pdfrwt>
<totfact> 0.67314835E+03</totfact>
</mgrwt>
</event>
<event>
 5    1  0.3304582E-002  0.1250020E+03  0.7818608E-02  0.1235066E+00
          4   -1    0    0  501    0  0.00000000000E+00  0.00000000000E+00  0.35683606623E+01  0.37876242972E+01  0.12700000000E+01 0. -1.
         -4   -1    0    0    0  501 -0.00000000000E+00 -0.00000000000E+00 -0.10618754595E+04  0.10618762190E+04  0.12700000000E+01 0. -1.
         25    2    1    2    0    0  0.00000000000E+00  0.00000000000E+00 -0.10583070989E+04  0.10656638433E+04  0.12500204547E+03 0.  0.
    9000005    1    3    3    0    0 -0.35766088739E+01  0.17636366462E+02 -0.10393509885E+04  0.10395072442E+04  0.10000000000E+01 0.  0.
    9000005    1    3    3    0    0  0.35766088739E+01 -0.17636366462E+02 -0.18956110383E+02  0.26156599050E+02  0.10000000000E+01 0.  0.
<mgrwt>
<rscale>  0 0.12500205E+03</rscale>
<asrwt>0</asrwt>
<pdfrwt beam="1">  1        4 0.56590426E-03 0.12500205E+03</pdfrwt>
<pdfrwt beam="2">  1       -4 0.16338214E+00 0.12500205E+03</pdfrwt>
<totfact> 0.28509458E+03</totfact>
</mgrwt>
</event>
<event>
 5    1  0.3304582E-002  0.1250281E+03  0.7818608E-02  0.1235025E+00
          4   -1    0    0  501    0  0.00000000000E+00  0.00000000000E+00  0.34577142379E+02  0.34600457729E+02  0.12700000000E+01 0. -1.
         -4   -1    0    0    0  501 -0.00000000000E+00 -0.00000000000E+00 -0.11295778275E+03  0.11296492191E+03  0.12700000000E+01 0. -1.
         25    2    1    2    0    0  0.00000000000E+00  0.00000000000E+00 -0.78380640367E+02  0.14756537964E+03  0.12502806279E+03 0.  0.
    9000005    1    3    3    0    0  0.98100822947E+01 -0.11403899196E+02 -0.11079529885E+03  0.11181629970E+03  0.10000000000E+01 0.  0.
    9000005    1    3    3    0    0 -0.98100822947E+01  0.11403899196E+02  0.32414658488E+02  0.35749079937E+02  0.10000000000E+01 0.  0.
<mgrwt>
<rscale>  0 0.12502806E+03</rscale>
<asrwt>0</asrwt>
<pdfrwt beam="1">  1        4 0.53219031E-02 0.12502806E+03</pdfrwt>
<pdfrwt beam="2">  1       -4 0.17380463E-01 0.12502806E+03</pdfrwt>
<totfact> 0.99728220E+03</totfact>
</mgrwt>
</event>
<event>
 5    1  0.3304582E-002  0.1249852E+03  0.7818608E-02  0.1235092E+00
         -4   -1    0    0    0  501 -0.00000000000E+00  0.00000000000E+00  0.11243130962E+02  0.11314631847E+02  0.12700000000E+01 0. -1.
          4   -1    0    0  501    0  0.00000000000E+00 -0.00000000000E+00 -0.34617828062E+03  0.34618061019E+03  0.12700000000E+01 0. -1.
         25    2    1    2    0    0  0.00000000000E+00  0.00000000000E+00 -0.33493514965E+03  0.35749524204E+03  0.12498517354E+03 0.  0.
    9000005    1    3    3    0    0 -0.61006533707E+02  0.40832292668E+01 -0.20430371096E+03  0.21325917618E+03  0.10000000000E+01 0.  0.
    9000005    1    3    3    0    0  0.61006533707E+02 -0.40832292668E+01 -0.13063143870E+03  0.14423606585E+03  0.10000000000E+01 0.  0.
<mgrwt>
<rscale>  0 0.12498517E+03</rscale>
<asrwt>0</asrwt>
<pdfrwt beam="2">  1        4 0.53263868E-01 0.12498517E+03</pdfrwt>
<pdfrwt beam="1">  1       -4 0.17353920E-02 0.12498517E+03</pdfrwt>
<totfact> 0.68930392E+03</totfact>
</mgrwt>
</event>
<event>
 5    1  0.3304582E-002  0.1250001E+03  0.7818608E-02  0.1235069E+00
          4   -1    0    0  501    0  0.00000000000E+00  0.00000000000E+00  0.19461617649E+04  0.19461621793E+04  0.12700000000E+01 0. -1.
         -4   -1    0    0    0  501 -0.00000000000E+00 -0.00000000000E+00 -0.18058107571E+01  0.22076803415E+01  0.12700000000E+01 0. -1.
         25    2    1    2    0    0  0.00000000000E+00  0.00000000000E+00  0.19443559542E+04  0.19483698597E+04  0.12500013388E+03 0.  0.
    9000005    1    3    3    0    0 -0.24309920170E+01  0.55648050413E+02  0.14137709675E+04  0.14148681789E+04  0.10000000000E+01 0.  0.
    9000005    1    3    3    0    0  0.24309920170E+01 -0.55648050413E+02  0.53058498670E+03  0.53350168073E+03  0.10000000000E+01 0.  0.
<mgrwt>
<rscale>  0 0.12500013E+03</rscale>
<asrwt>0</asrwt>
<pdfrwt beam="1">  1        4 0.29944028E+00 0.12500013E+03</pdfrwt>
<pdfrwt beam="2">  1       -4 0.30876213E-03 0.12500013E+03</pdfrwt>
<totfact> 0.10550232E+03</totfact>
</mgrwt>
</event>
<event>
 5    1  0.3304582E-002  0.1250038E+03  0.7818608E-02  0.1235063E+00
          4   -1    0    0  501    0  0.00000000000E+00  0.00000000000E+00  0.27127457071E+03  0.27127754351E+03  0.12700000000E+01 0. -1.
         -4   -1    0    0    0  501 -0.00000000000E+00 -0.00000000000E+00 -0.14369436605E+02  0.14425450023E+02  0.12700000000E+01 0. -1.
         25    2    1    2    0    0  0.00000000000E+00  0.00000000000E+00  0.25690513410E+03  0.28570299353E+03  0.12500381028E+03 0.  0.
    9000005    1    3    3    0    0 -0.55025499222E+02  0.29605747342E+02  0.13093773932E+03  0.14508617239E+03  0.10000000000E+01 0.  0.
    9000005    1    3    3    0    0  0.55025499222E+02 -0.29605747342E+02  0.12596739479E+03  0.14061682115E+03  0.10000000000E+01 0.  0.
<mgrwt>
<rscale>  0 0.12500381E+03</rscale>
<asrwt>0</asrwt>
<pdfrwt beam="1">  1        4 0.41739085E-01 0.12500381E+03</pdfrwt>
<pdfrwt beam="2">  1       -4 0.22152201E-02 0.12500381E+03</pdfrwt>
<totfact> 0.77421401E+03</totfact>
</mgrwt>
</event>
<event>
 5    1  0.3304582E-002  0.1250040E+03  0.7818608E-02  0.1235063E+00
          4   -1    0    0  501    0  0.00000000000E+00  0.00000000000E+00  0.25796105642E+04  0.25796108768E+04  0.12700000000E+01 0.  1.
         -4   -1    0    0    0  501 -0.00000000000E+00 -0.00000000000E+00 -0.12477437951E+01  0.17803832672E+01  0.12700000000E+01 0.  1.
         25    2    1    2    0    0  0.00000000000E+00  0.00000000000E+00  0.25783628204E+04  0.25813912601E+04  0.12500401607E+03 0.  0.
    9000005    1    3    3    0    0  0.51110902591E+02 -0.58962395657E+01  0.55662491591E+03  0.55899855726E+03  0.10000000000E+01 0.  0.
    9000005    1    3    3    0    0 -0.51110902591E+02  0.58962395657E+01  0.20217379045E+04  0.20223927028E+04  0.10000000000E+01 0.  0.
<mgrwt>
<rscale>  0 0.12500402E+03</rscale>
<asrwt>0</asrwt>
<pdfrwt beam="1">  1        4 0.39690087E+00 0.12500402E+03</pdfrwt>
<pdfrwt beam="2">  1       -4 0.23295883E-03 0.12500402E+03</pdfrwt>
<totfact> 0.40607797E+02</totfact>
</mgrwt>
</event>
<event>
 5    1  0.3304582E-002  0.1249993E+03  0.7818608E-02  0.1235070E+00
         -4   -1    0    0    0  501 -0.00000000000E+00  0.00000000000E+00  0.60799175797E+02  0.60812438511E+02  0.12700000000E+01 0.  1.
          4   -1    0    0  501    0  0.00000000000E+00 -0.00000000000E+00 -0.64221110440E+02  0.64233666610E+02  0.12700000000E+01 0.  1.
         25    2    1    2    0    0  0.00000000000E+00  0.00000000000E+00 -0.34219346429E+01  0.12504610512E+03  0.12499927507E+03 0.  0.
    9000005    1    3    3    0    0  0.60065096644E+02  0.56137574650E+01  0.14600802591E+02  0.62076674718E+02  0.10000000000E+01 0.  0.
    9000005    1    3    3    0    0 -0.60065096644E+02 -0.56137574650E+01 -0.18022737234E+02  0.62969430402E+02  0.10000000000E+01 0.  0.
<mgrwt>
<rscale>  0 0.12499928E+03</rscale>
<asrwt>0</asrwt>
<pdfrwt beam="2">  1        4 0.98821569E-02 0.12499928E+03</pdfrwt>
<pdfrwt beam="1">  1       -4 0.93557054E-02 0.12499928E+03</pdfrwt>
<totfact> 0.10452032E+04</totfact>
</mgrwt>
</event>
<event>
 5    1  0.3304582E-002  0.1250019E+03  0.7818608E-02  0.1235066E+00
         -4   -1    0    0    0  501 -0.00000000000E+00  0.00000000000E+00  0.34656458569E+03  0.34656691266E+03  0.12700000000E+01 0. -1.
          4   -1    0    0  501    0  0.00000000000E+00 -0.00000000000E+00 -0.11233544884E+02  0.11305106397E+02  0.12700000000E+01 0. -1.
         25    2    1    2    0    0  0.00000000000E+00  0.00000000000E+00  0.33533104080E+03  0.35787201906E+03  0.12500190038E+03 0.  0.
    9000005    1    3    3    0    0 -0.40197351345E+02  0.34438739956E+02  0.26276983734E+03  0.26805007233E+03  0.10000000000E+01 0.  0.
    9000005    1    3    3    0    0  0.40197351345E+02 -0.34438739956E+02  0.72561203467E+02  0.89821946725E+02  0.10000000000E+01 0.  0.
<mgrwt>
<rscale>  0 0.12500190E+03</rscale>
<asrwt>0</asrwt>
<pdfrwt beam="2">  1        4 0.17339218E-02 0.12500190E+03</pdfrwt>
<pdfrwt beam="1">  1       -4 0.53323300E-01 0.12500190E+03</pdfrwt>
<totfact> 0.68864244E+03</totfact>
</mgrwt>
</event>
<event>
 5    1  0.3304582E-002  0.1250020E+03  0.7818608E-02  0.1235066E+00
          4   -1    0    0  501    0  0.00000000000E+00  0.00000000000E+00  0.11046461240E+03  0.11047191269E+03  0.12700000000E+01 0. -1.
         -4   -1    0    0    0  501 -0.00000000000E+00 -0.00000000000E+00 -0.35343286853E+02  0.35366097121E+02  0.12700000000E+01 0. -1.
         25    2    1    2    0    0  0.00000000000E+00  0.00000000000E+00  0.75121325549E+02  0.14583800981E+03  0.12500204620E+03 0.  0.
    9000005    1    3    3    0    0  0.39863660745E+02  0.35669788269E+02 -0.13486656383E+00  0.53501994656E+02  0.10000000000E+01 0.  0.
    9000005    1    3    3    0    0 -0.39863660745E+02 -0.35669788269E+02  0.75256192113E+02  0.92336015154E+02  0.10000000000E+01 0.  0.
<mgrwt>
<rscale>  0 0.12500205E+03</rscale>
<asrwt>0</asrwt>
<pdfrwt beam="1">  1        4 0.16996872E-01 0.12500205E+03</pdfrwt>
<pdfrwt beam="2">  1       -4 0.54397449E-02 0.12500205E+03</pdfrwt>
<totfact> 0.10013528E+04</totfact>
</mgrwt>
</event>
<event>
 5    1  0.3304582E-002  0.1250016E+03  0.7818608E-02  0.1235067E+00
          4   -1    0    0  501    0  0.00000000000E+00  0.00000000000E+00  0.45156346634E+02  0.45174202166E+02  0.12700000000E+01 0.  1.
         -4   -1    0    0    0  501 -0.00000000000E+00 -0.00000000000E+00 -0.86467641248E+02  0.86476967355E+02  0.12700000000E+01 0.  1.
         25    2    1    2    0    0  0.00000000000E+00  0.00000000000E+00 -0.41311294614E+02  0.13165116952E+03  0.12500162948E+03 0.  0.
    9000005    1    3    3    0    0 -0.51444353990E+02  0.90729703466E+01 -0.56780587314E+02  0.77161359786E+02  0.10000000000E+01 0.  0.
    9000005    1    3    3    0    0  0.51444353990E+02 -0.90729703466E+01  0.15469292700E+02  0.54489809735E+02  0.10000000000E+01 0.  0.
<mgrwt>
<rscale>  0 0.12500163E+03</rscale>
<asrwt>0</asrwt>
<pdfrwt beam="1">  1        4 0.69492212E-02 0.12500163E+03</pdfrwt>
<pdfrwt beam="2">  1       -4 0.13304805E-01 0.12500163E+03</pdfrwt>
<totfact> 0.10308771E+04</totfact>
</mgrwt>
</event>
<event>
 5    1  0.3304582E-002  0.1249991E+03  0.7818608E-02  0.1235071E+00
          4   -1    0    0  501    0  0.00000000000E+00  0.00000000000E+00  0.47067939881E+03  0.47068111218E+03  0.12700000000E+01 0.  1.
         -4   -1    0    0    0  501 -0.00000000000E+00 -0.00000000000E+00 -0.82487245627E+01  0.83459185781E+01  0.12700000000E+01 0.  1.
         25    2    1    2    0    0  0.00000000000E+00  0.00000000000E+00  0.46243067424E+03  0.47902703076E+03  0.12499907085E+03 0.  0.
    9000005    1    3    3    0    0  0.10204333338E+02 -0.61032422429E+02  0.26464756471E+03  0.27178745099E+03  0.10000000000E+01 0.  0.
    9000005    1    3    3    0    0 -0.10204333338E+02  0.61032422429E+02  0.19778310953E+03  0.20723957977E+03  0.10000000000E+01 0.  0.
<mgrwt>
<rscale>  0 0.12499907E+03</rscale>
<asrwt>0</asrwt>
<pdfrwt beam="1">  1        4 0.72419848E-01 0.12499907E+03</pdfrwt>
<pdfrwt beam="2">  1       -4 0.12766424E-02 0.12499907E+03</pdfrwt>
<totfact> 0.57530300E+03</totfact>
</mgrwt>
</event>
<event>
 5    1  0.3304582E-002  0.1249985E+03  0.7818608E-02  0.1235072E+00
          4   -1    0    0  501    0  0.00000000000E+00  0.00000000000E+00  0.37657497061E+02  0.37678906365E+02  0.12700000000E+01 0.  1.
         -4   -1    0    0    0  501 -0.00000000000E+00 -0.00000000000E+00 -0.10367376134E+03  0.10368153977E+03  0.12700000000E+01 0.  1.
         25    2    1    2    0    0  0.00000000000E+00  0.00000000000E+00 -0.66016264277E+02  0.14136044614E+03  0.12499851433E+03 0.  0.
    9000005    1    3    3    0    0  0.10804739417E+01  0.62421960765E+02 -0.36102853274E+02  0.72125478329E+02  0.10000000000E+01 0.  0.
    9000005    1    3    3    0    0 -0.10804739417E+01 -0.62421960765E+02 -0.29913411003E+02  0.69234967810E+02  0.10000000000E+01 0.  0.
<mgrwt>
<rscale>  0 0.12499851E+03</rscale>
<asrwt>0</asrwt>
<pdfrwt beam="1">  1        4 0.57957064E-02 0.12499851E+03</pdfrwt>
<pdfrwt beam="2">  1       -4 0.15952054E-01 0.12499851E+03</pdfrwt>
<totfact> 0.10105806E+04</totfact>
</mgrwt>
</event>
<event>
 5    1  0.3304582E-002  0.1249993E+03  0.7818608E-02  0.1235070E+00
          4   -1    0    0  501    0  0.00000000000E+00  0.00000000000E+00  0.20573754506E+03  0.20574146483E+03  0.12700000000E+01 0.  1.
         -4   -1    0    0    0  501 -0.00000000000E+00 -0.00000000000E+00 -0.18961027757E+02  0.19003512138E+02  0.12700000000E+01 0.  1.
         25    2    1    2    0    0  0.00000000000E+00  0.00000000000E+00  0.18677651731E+03  0.22474497697E+03  0.12499934901E+03 0.  0.
    9000005    1    3    3    0    0  0.32825407313E+01  0.46920229991E+02  0.19410483957E+02  0.50892533279E+02  0.10000000000E+01 0.  0.
    9000005    1    3    3    0    0 -0.32825407313E+01 -0.46920229991E+02  0.16736603335E+03  0.17385244369E+03  0.10000000000E+01 0.  0.
<mgrwt>
<rscale>  0 0.12499935E+03</rscale>
<asrwt>0</asrwt>
<pdfrwt beam="1">  1        4 0.31655500E-01 0.12499935E+03</pdfrwt>
<pdfrwt beam="2">  1       -4 0.29206507E-02 0.12499935E+03</pdfrwt>
<totfact> 0.86124294E+03</totfact>
</mgrwt>
</event>
<event>
 5    1  0.3304582E-002  0.1249958E+03  0.7818608E-02  0.1235076E+00
         -4   -1    0    0    0  501 -0.00000000000E+00  0.00000000000E+00  0.11387435800E+03  0.11388143970E+03  0.12700000000E+01 0. -1.
          4   -1    0    0  501    0  0.00000000000E+00 -0.00000000000E+00 -0.34280966089E+02  0.34304482739E+02  0.12700000000E+01 0. -1.
         25    2    1    2    0    0  0.00000000000E+00  0.00000000000E+00  0.79593391907E+02  0.14818592244E+03  0.12499583823E+03 0.  0.
    9000005    1    3    3    0    0  0.26211296161E+02 -0.43632378114E+02  0.82773858148E+02  0.97176787655E+02  0.10000000000E+01 0.  0.
    9000005    1    3    3    0    0 -0.26211296161E+02  0.43632378114E+02 -0.31804662409E+01  0.51009134788E+02  0.10000000000E+01 0.  0.
<mgrwt>
<rscale>  0 0.12499584E+03</rscale>
<asrwt>0</asrwt>
<pdfrwt beam="2">  1        4 0.52763486E-02 0.12499584E+03</pdfrwt>
<pdfrwt beam="1">  1       -4 0.17521485E-01 0.12499584E+03</pdfrwt>
<totfact> 0.99675881E+03</totfact>
</mgrwt>
</event>
<event>
 5    1  0.3304582E-002  0.1250188E+03  0.7818608E-02  0.1235040E+00
         -4   -1    0    0    0  501 -0.00000000000E+00  0.00000000000E+00  0.40863847621E+01  0.42791868881E+01  0.12700000000E+01 0.  1.
          4   -1    0    0  501    0  0.00000000000E+00 -0.00000000000E+00 -0.93397454384E+03  0.93397540730E+03  0.12700000000E+01 0.  1.
         25    2    1    2    0    0  0.00000000000E+00  0.00000000000E+00 -0.92988815908E+03  0.93825459419E+03  0.12501877908E+03 0.  0.
    9000005    1    3    3    0    0  0.69325168866E+00  0.53957650511E+02 -0.22826975601E+03  0.23456340327E+03  0.10000000000E+01 0.  0.
    9000005    1    3    3    0    0 -0.69325168866E+00 -0.53957650511E+02 -0.70161840307E+03  0.70369119091E+03  0.10000000000E+01 0.  0.
<mgrwt>
<rscale>  0 0.12501878E+03</rscale>
<asrwt>0</asrwt>
<pdfrwt beam="2">  1        4 0.14370312E+00 0.12501878E+03</pdfrwt>
<pdfrwt beam="1">  1       -4 0.64357268E-03 0.12501878E+03</pdfrwt>
<totfact> 0.32723314E+03</totfact>
</mgrwt>
</event>
<event>
 5    1  0.3304582E-002  0.1249977E+03  0.7818608E-02  0.1235073E+00
          4   -1    0    0  501    0  0.00000000000E+00  0.00000000000E+00  0.52765737063E+03  0.52765889898E+03  0.12700000000E+01 0.  1.
         -4   -1    0    0    0  501 -0.00000000000E+00 -0.00000000000E+00 -0.73467108647E+01  0.74556730434E+01  0.12700000000E+01 0.  1.
         25    2    1    2    0    0  0.00000000000E+00  0.00000000000E+00  0.52031065976E+03  0.53511457203E+03  0.12499769011E+03 0.  0.
    9000005    1    3    3    0    0  0.20737745458E+02 -0.55392510057E+02  0.34649160138E+03  0.35150506979E+03  0.10000000000E+01 0.  0.
    9000005    1    3    3    0    0 -0.20737745458E+02  0.55392510057E+02  0.17381905838E+03  0.18360950224E+03  0.10000000000E+01 0.  0.
<mgrwt>
<rscale>  0 0.12499769E+03</rscale>
<asrwt>0</asrwt>
<pdfrwt beam="1">  1        4 0.81186550E-01 0.12499769E+03</pdfrwt>
<pdfrwt beam="2">  1       -4 0.11387626E-02 0.12499769E+03</pdfrwt>
<totfact> 0.53241955E+03</totfact>
</mgrwt>
</event>
<event>
 5    1  0.3304582E-002  0.1249979E+03  0.7818608E-02  0.1235072E+00
         -4   -1    0    0    0  501 -0.00000000000E+00  0.00000000000E+00  0.17538971929E+03  0.17539431728E+03  0.12700000000E+01 0.  1.
          4   -1    0    0  501    0  0.00000000000E+00 -0.00000000000E+00 -0.22248099038E+02  0.22284317598E+02  0.12700000000E+01 0.  1.
         25    2    1    2    0    0  0.00000000000E+00  0.00000000000E+00  0.15314162026E+03  0.19767863488E+03  0.12499794731E+03 0.  0.
    9000005    1    3    3    0    0 -0.43877892450E+02 -0.14394923776E+02  0.99872622734E+01  0.47257049041E+02  0.10000000000E+01 0.  0.
    9000005    1    3    3    0    0  0.43877892450E+02  0.14394923776E+02  0.14315435798E+03  0.15042158584E+03  0.10000000000E+01 0.  0.
<mgrwt>
<rscale>  0 0.12499795E+03</rscale>
<asrwt>0</asrwt>
<pdfrwt beam="2">  1        4 0.34259244E-02 0.12499795E+03</pdfrwt>
<pdfrwt beam="1">  1       -4 0.26986172E-01 0.12499795E+03</pdfrwt>
<totfact> 0.90532316E+03</totfact>
</mgrwt>
</event>
<event>
 5    1  0.3304582E-002  0.1250131E+03  0.7818608E-02  0.1235049E+00
          4   -1    0    0  501    0  0.00000000000E+00  0.00000000000E+00  0.30716808675E+03  0.30717071217E+03  0.12700000000E+01 0. -1.
         -4   -1    0    0    0  501 -0.00000000000E+00 -0.00000000000E+00 -0.12685258867E+02  0.12748674148E+02  0.12700000000E+01 0. -1.
         25    2    1    2    0    0  0.00000000000E+00  0.00000000000E+00  0.29448282788E+03  0.31991938632E+03  0.12501311062E+03 0.  0.
    9000005    1    3    3    0    0 -0.31520748780E+02  0.18570516034E+02  0.17567469521E+02  0.40596030037E+02  0.10000000000E+01 0.  0.
    9000005    1    3    3    0    0  0.31520748780E+02 -0.18570516034E+02  0.27691535836E+03  0.27932335628E+03  0.10000000000E+01 0.  0.
<mgrwt>
<rscale>  0 0.12501311E+03</rscale>
<asrwt>0</asrwt>
<pdfrwt beam="1">  1        4 0.47261708E-01 0.12501311E+03</pdfrwt>
<pdfrwt beam="2">  1       -4 0.19566584E-02 0.12501311E+03</pdfrwt>
<totfact> 0.73144453E+03</totfact>
</mgrwt>
</event>
<event>
 5    1  0.3304582E-002  0.1250028E+03  0.7818608E-02  0.1235065E+00
          4   -1    0    0  501    0  0.00000000000E+00  0.00000000000E+00  0.41141992966E+02  0.41161589926E+02  0.12700000000E+01 0. -1.
         -4   -1    0    0    0  501 -0.00000000000E+00 -0.00000000000E+00 -0.94903332050E+02  0.94911829264E+02  0.12700000000E+01 0. -1.
         25    2    1    2    0    0  0.00000000000E+00  0.00000000000E+00 -0.53761339083E+02  0.13607341919E+03  0.12500277529E+03 0.  0.
    9000005    1    3    3    0    0 -0.24836643934E+02 -0.49893224887E+02 -0.57655078262E+02  0.80195391519E+02  0.10000000000E+01 0.  0.
    9000005    1    3    3    0    0  0.24836643934E+02  0.49893224887E+02  0.38937391785E+01  0.55878027670E+02  0.10000000000E+01 0.  0.
<mgrwt>
<rscale>  0 0.12500278E+03</rscale>
<asrwt>0</asrwt>
<pdfrwt beam="1">  1        4 0.63316985E-02 0.12500278E+03</pdfrwt>
<pdfrwt beam="2">  1       -4 0.14602674E-01 0.12500278E+03</pdfrwt>
<totfact> 0.10214856E+04</totfact>
</mgrwt>
</event>
<event>
 5    1  0.3304582E-002  0.1249991E+03  0.7818608E-02  0.1235071E+00
         -4   -1    0    0    0  501 -0.00000000000E+00  0.00000000000E+00  0.48722680588E+01  0.50350666368E+01  0.12700000000E+01 0.  1.
          4   -1    0    0  501    0  0.00000000000E+00 -0.00000000000E+00 -0.78838242052E+03  0.78838344344E+03  0.12700000000E+01 0.  1.
         25    2    1    2    0    0  0.00000000000E+00  0.00000000000E+00 -0.78351015246E+03  0.79341851007E+03  0.12499909247E+03 0.  0.
    9000005    1    3    3    0    0  0.34384672688E+02 -0.36989461897E+02 -0.15813412519E+03  0.16600580580E+03  0.10000000000E+01 0.  0.
    9000005    1    3    3    0    0 -0.34384672688E+02  0.36989461897E+02 -0.62537602727E+03  0.62741270428E+03  0.10000000000E+01 0.  0.
<mgrwt>
<rscale>  0 0.12499909E+03</rscale>
<asrwt>0</asrwt>
<pdfrwt beam="2">  1        4 0.12130211E+00 0.12499909E+03</pdfrwt>
<pdfrwt beam="1">  1       -4 0.76218198E-03 0.12499909E+03</pdfrwt>
<totfact> 0.38561028E+03</totfact>
</mgrwt>
</event>
<event>
 5    1  0.3304582E-002  0.1250014E+03  0.7818608E-02  0.1235067E+00
          4   -1    0    0  501    0  0.00000000000E+00  0.00000000000E+00  0.98978112330E+01  0.99789562182E+01  0.12700000000E+01 0. -1.
         -4   -1    0    0    0  501 -0.00000000000E+00 -0.00000000000E+00 -0.39297329225E+03  0.39297534442E+03  0.12700000000E+01 0. -1.
         25    2    1    2    0    0  0.00000000000E+00  0.00000000000E+00 -0.38307548102E+03  0.40295430064E+03  0.12500137698E+03 0.  0.
    9000005    1    3    3    0    0 -0.31299664840E+02 -0.53804845065E+02 -0.20940057723E+03  0.21845876525E+03  0.10000000000E+01 0.  0.
    9000005    1    3    3    0    0  0.31299664840E+02  0.53804845065E+02 -0.17367490378E+03  0.18449553538E+03  0.10000000000E+01 0.  0.
<mgrwt>
<rscale>  0 0.12500138E+03</rscale>
<asrwt>0</asrwt>
<pdfrwt beam="1">  1        4 0.15291403E-02 0.12500138E+03</pdfrwt>
<pdfrwt beam="2">  1       -4 0.60463817E-01 0.12500138E+03</pdfrwt>
<totfact> 0.64264520E+03</totfact>
</mgrwt>
</event>
<event>
 5    1  0.3304582E-002  0.1249993E+03  0.7818608E-02  0.1235070E+00
         -4   -1    0    0    0  501 -0.00000000000E+00  0.00000000000E+00  0.39045289271E+02  0.39065938031E+02  0.12700000000E+01 0. -1.
          4   -1    0    0  501    0  0.00000000000E+00 -0.00000000000E+00 -0.99991909070E+02  0.99999973898E+02  0.12700000000E+01 0. -1.
         25    2    1    2    0    0  0.00000000000E+00  0.00000000000E+00 -0.60946619799E+02  0.13906591193E+03  0.12499934958E+03 0.  0.
    9000005    1    3    3    0    0  0.85736766384E+01 -0.31289012139E+01  0.38305275940E+02  0.39390254109E+02  0.10000000000E+01 0.  0.
    9000005    1    3    3    0    0 -0.85736766384E+01  0.31289012139E+01 -0.99251895740E+02  0.99675657820E+02  0.10000000000E+01 0.  0.
<mgrwt>
<rscale>  0 0.12499935E+03</rscale>
<asrwt>0</asrwt>
<pdfrwt beam="2">  1        4 0.15385579E-01 0.12499935E+03</pdfrwt>
<pdfrwt beam="1">  1       -4 0.60091764E-02 0.12499935E+03</pdfrwt>
<totfact> 0.10153131E+04</totfact>
</mgrwt>
</event>
<event>
 5    1  0.3304582E-002  0.1249992E+03  0.7818608E-02  0.1235071E+00
          4   -1    0    0  501    0  0.00000000000E+00  0.00000000000E+00  0.19257223645E+03  0.19257642419E+03  0.12700000000E+01 0. -1.
         -4   -1    0    0    0  501 -0.00000000000E+00 -0.00000000000E+00 -0.20260040252E+02  0.20299806181E+02  0.12700000000E+01 0. -1.
         25    2    1    2    0    0  0.00000000000E+00  0.00000000000E+00  0.17231219620E+03  0.21287623037E+03  0.12499918598E+03 0.  0.
    9000005    1    3    3    0    0 -0.23785995381E+02  0.43627991296E+02  0.21620279415E+02  0.54199738770E+02  0.10000000000E+01 0.  0.
    9000005    1    3    3    0    0  0.23785995381E+02 -0.43627991296E+02  0.15069191679E+03  0.15867649160E+03  0.10000000000E+01 0.  0.
<mgrwt>
<rscale>  0 0.12499919E+03</rscale>
<asrwt>0</asrwt>
<pdfrwt beam="1">  1        4 0.29629880E-01 0.12499919E+03</pdfrwt>
<pdfrwt beam="2">  1       -4 0.31203103E-02 0.12499919E+03</pdfrwt>
<totfact> 0.88009899E+03</totfact>
</mgrwt>
</event>
<event>
 5    1  0.3304582E-002  0.1249858E+03  0.7818608E-02  0.1235092E+00
          4   -1    0    0  501    0  0.00000000000E+00  0.00000000000E+00  0.45039553614E+02  0.45057455430E+02  0.12700000000E+01 0. -1.
         -4   -1    0    0    0  501 -0.00000000000E+00 -0.00000000000E+00 -0.86669788882E+02  0.86679093240E+02  0.12700000000E+01 0. -1.
         25    2    1    2    0    0  0.00000000000E+00  0.00000000000E+00 -0.41630235268E+02  0.13173654867E+03  0.12498576626E+03 0.  0.
    9000005    1    3    3    0    0 -0.28219655298E+02 -0.51254415516E+01  0.37696730621E+02  0.47377870317E+02  0.10000000000E+01 0.  0.
    9000005    1    3    3    0    0  0.28219655298E+02  0.51254415516E+01 -0.79326965889E+02  0.84358678352E+02  0.10000000000E+01 0.  0.
<mgrwt>
<rscale>  0 0.12498577E+03</rscale>
<asrwt>0</asrwt>
<pdfrwt beam="1">  1        4 0.69312549E-02 0.12498577E+03</pdfrwt>
<pdfrwt beam="2">  1       -4 0.13335906E-01 0.12498577E+03</pdfrwt>
<totfact> 0.10310635E+04</totfact>
</mgrwt>
</event>
<event>
 5    1  0.3304582E-002  0.1250026E+03  0.7818608E-02  0.1235065E+00
          4   -1    0    0  501    0  0.00000000000E+00  0.00000000000E+00  0.33237486881E+02  0.33261741298E+02  0.12700000000E+01 0. -1.
         -4   -1    0    0    0  501 -0.00000000000E+00 -0.00000000000E+00 -0.11745970533E+03  0.11746657089E+03  0.12700000000E+01 0. -1.
         25    2    1    2    0    0  0.00000000000E+00  0.00000000000E+00 -0.84222218446E+02  0.15072831218E+03  0.12500256803E+03 0.  0.
    9000005    1    3    3    0    0 -0.51938028217E+02  0.34703773262E+02 -0.39855309166E+02  0.74103686294E+02  0.10000000000E+01 0.  0.
    9000005    1    3    3    0    0  0.51938028217E+02 -0.34703773262E+02 -0.44366909280E+02  0.76624625890E+02  0.10000000000E+01 0.  0.
<mgrwt>
<rscale>  0 0.12500257E+03</rscale>
<asrwt>0</asrwt>
<pdfrwt beam="1">  1        4 0.51158534E-02 0.12500257E+03</pdfrwt>
<pdfrwt beam="2">  1       -4 0.18073118E-01 0.12500257E+03</pdfrwt>
<totfact> 0.99152988E+03</totfact>
</mgrwt>
</event>
<event>
 5    1  0.3304582E-002  0.1249976E+03  0.7818608E-02  0.1235073E+00
          4   -1    0    0  501    0  0.00000000000E+00  0.00000000000E+00  0.73713947588E+03  0.73714056991E+03  0.12700000000E+01 0.  1.
         -4   -1    0    0    0  501 -0.00000000000E+00 -0.00000000000E+00 -0.52217930387E+01  0.53740136340E+01  0.12700000000E+01 0.  1.
         25    2    1    2    0    0  0.00000000000E+00  0.00000000000E+00  0.73191768285E+03  0.74251458354E+03  0.12499764923E+03 0.  0.
    9000005    1    3    3    0    0  0.30997393784E+02  0.22114350082E+02  0.71619465525E+02  0.81118621432E+02  0.10000000000E+01 0.  0.
    9000005    1    3    3    0    0 -0.30997393784E+02 -0.22114350082E+02  0.66029821732E+03  0.66139596211E+03  0.10000000000E+01 0.  0.
<mgrwt>
<rscale>  0 0.12499765E+03</rscale>
<asrwt>0</asrwt>
<pdfrwt beam="1">  1        4 0.11341781E+00 0.12499765E+03</pdfrwt>
<pdfrwt beam="2">  1       -4 0.81514658E-03 0.12499765E+03</pdfrwt>
<totfact> 0.40936867E+03</totfact>
</mgrwt>
</event>
<event>
 5    1  0.3304582E-002  0.1250038E+03  0.7818608E-02  0.1235063E+00
         -4   -1    0    0    0  501 -0.00000000000E+00  0.00000000000E+00  0.36128360957E+03  0.36128584174E+03  0.12700000000E+01 0. -1.
          4   -1    0    0  501    0  0.00000000000E+00 -0.00000000000E+00 -0.10773230171E+02  0.10847828737E+02  0.12700000000E+01 0. -1.
         25    2    1    2    0    0  0.00000000000E+00  0.00000000000E+00  0.35051037940E+03  0.37213367048E+03  0.12500377050E+03 0.  0.
    9000005    1    3    3    0    0  0.44628819338E+02 -0.24343311747E+02  0.67048746717E+02  0.84147862591E+02  0.10000000000E+01 0.  0.
    9000005    1    3    3    0    0 -0.44628819338E+02  0.24343311747E+02  0.28346163268E+03  0.28798580789E+03  0.10000000000E+01 0.  0.
<mgrwt>
<rscale>  0 0.12500377E+03</rscale>
<asrwt>0</asrwt>
<pdfrwt beam="2">  1        4 0.16633299E-02 0.12500377E+03</pdfrwt>
<pdfrwt beam="1">  1       -4 0.55588009E-01 0.12500377E+03</pdfrwt>
<totfact> 0.67350685E+03</totfact>
</mgrwt>
</event>
<event>
 5    1  0.3304582E-002  0.1249991E+03  0.7818608E-02  0.1235071E+00
          4   -1    0    0  501    0  0.00000000000E+00  0.00000000000E+00  0.16743785004E+02  0.16791880069E+02  0.12700000000E+01 0.  1.
         -4   -1    0    0    0  501 -0.00000000000E+00 -0.00000000000E+00 -0.23290757088E+03  0.23291103339E+03  0.12700000000E+01 0.  1.
         25    2    1    2    0    0  0.00000000000E+00  0.00000000000E+00 -0.21616378587E+03  0.24970291345E+03  0.12499905065E+03 0.  0.
    9000005    1    3    3    0    0 -0.18076488909E+02 -0.45010466772E+02 -0.18679212162E+03  0.19298963255E+03  0.10000000000E+01 0.  0.
    9000005    1    3    3    0    0  0.18076488909E+02  0.45010466772E+02 -0.29371664252E+02  0.56713280907E+02  0.10000000000E+01 0.  0.
<mgrwt>
<rscale>  0 0.12499905E+03</rscale>
<asrwt>0</asrwt>
<pdfrwt beam="1">  1        4 0.25799330E-02 0.12499905E+03</pdfrwt>
<pdfrwt beam="2">  1       -4 0.35835898E-01 0.12499905E+03</pdfrwt>
<totfact> 0.82374928E+03</totfact>
</mgrwt>
</event>
<event>
 5    1  0.3304582E-002  0.1250002E+03  0.7818608E-02  0.1235069E+00
          4   -1    0    0  501    0  0.00000000000E+00  0.00000000000E+00  0.62144711940E+02  0.62157687554E+02  0.12700000000E+01 0. -1.
         -4   -1    0    0    0  501 -0.00000000000E+00 -0.00000000000E+00 -0.62831515585E+02  0.62844349394E+02  0.12700000000E+01 0. -1.
         25    2    1    2    0    0  0.00000000000E+00  0.00000000000E+00 -0.68680364483E+00  0.12500203695E+03  0.12500015017E+03 0.  0.
    9000005    1    3    3    0    0  0.57189948273E+02 -0.20252541289E+02 -0.15323740530E+02  0.62583325543E+02  0.10000000000E+01 0.  0.
    9000005    1    3    3    0    0 -0.57189948273E+02  0.20252541289E+02  0.14636936886E+02  0.62418711405E+02  0.10000000000E+01 0.  0.
<mgrwt>
<rscale>  0 0.12500015E+03</rscale>
<asrwt>0</asrwt>
<pdfrwt beam="1">  1        4 0.95627102E-02 0.12500015E+03</pdfrwt>
<pdfrwt beam="2">  1       -4 0.96683724E-02 0.12500015E+03</pdfrwt>
<totfact> 0.10452783E+04</totfact>
</mgrwt>
</event>
<event>
 5    1  0.3304582E-002  0.1250059E+03  0.7818608E-02  0.1235060E+00
         -4   -1    0    0    0  501 -0.00000000000E+00  0.00000000000E+00  0.16303795172E+02  0.16353184308E+02  0.12700000000E+01 0. -1.
          4   -1    0    0  501    0  0.00000000000E+00 -0.00000000000E+00 -0.23920069350E+03  0.23920406491E+03  0.12700000000E+01 0. -1.
         25    2    1    2    0    0  0.00000000000E+00  0.00000000000E+00 -0.22289689833E+03  0.25555724922E+03  0.12500592124E+03 0.  0.
    9000005    1    3    3    0    0 -0.31637682479E+02 -0.59144023572E+01 -0.22096396170E+03  0.22329799703E+03  0.10000000000E+01 0.  0.
    9000005    1    3    3    0    0  0.31637682479E+02  0.59144023572E+01 -0.19329366290E+01  0.32259252190E+02  0.10000000000E+01 0.  0.
<mgrwt>
<rscale>  0 0.12500592E+03</rscale>
<asrwt>0</asrwt>
<pdfrwt beam="2">  1        4 0.36804163E-01 0.12500592E+03</pdfrwt>
<pdfrwt beam="1">  1       -4 0.25123348E-02 0.12500592E+03</pdfrwt>
<totfact> 0.81522860E+03</totfact>
</mgrwt>
</event>
<event>
 5    1  0.3304582E-002  0.1250059E+03  0.7818608E-02  0.1235060E+00
          4   -1    0    0  501    0  0.00000000000E+00  0.00000000000E+00  0.19341262649E+03  0.19341679603E+03  0.12700000000E+01 0.  1.
         -4   -1    0    0    0  501 -0.00000000000E+00 -0.00000000000E+00 -0.20174008088E+02  0.20213943265E+02  0.12700000000E+01 0.  1.
         25    2    1    2    0    0  0.00000000000E+00  0.00000000000E+00  0.17323861840E+03  0.21363073929E+03  0.12500589532E+03 0.  0.
    9000005    1    3    3    0    0  0.38225042113E+02  0.40843926713E+02  0.39005736039E+02  0.68204308059E+02  0.10000000000E+01 0.  0.
    9000005    1    3    3    0    0 -0.38225042113E+02 -0.40843926713E+02  0.13423288236E+03  0.14542643123E+03  0.10000000000E+01 0.  0.
<mgrwt>
<rscale>  0 0.12500590E+03</rscale>
<asrwt>0</asrwt>
<pdfrwt beam="1">  1        4 0.29759182E-01 0.12500590E+03</pdfrwt>
<pdfrwt beam="2">  1       -4 0.31070862E-02 0.12500590E+03</pdfrwt>
<totfact> 0.87874765E+03</totfact>
</mgrwt>
</event>
<event>
 5    1  0.3304582E-002  0.1250000E+03  0.7818608E-02  0.1235069E+00
          4   -1    0    0  501    0  0.00000000000E+00  0.00000000000E+00  0.28757151394E+02  0.28785181193E+02  0.12700000000E+01 0.  1.
         -4   -1    0    0    0  501 -0.00000000000E+00 -0.00000000000E+00 -0.13573864656E+03  0.13574458763E+03  0.12700000000E+01 0.  1.
         25    2    1    2    0    0  0.00000000000E+00  0.00000000000E+00 -0.10698149517E+03  0.16452976882E+03  0.12500001808E+03 0.  0.
    9000005    1    3    3    0    0  0.34206689127E+02  0.23920890538E+02  0.77241467362E+01  0.42461382784E+02  0.10000000000E+01 0.  0.
    9000005    1    3    3    0    0 -0.34206689127E+02 -0.23920890538E+02 -0.11470564190E+03  0.12206838603E+03  0.10000000000E+01 0.  0.
<mgrwt>
<rscale>  0 0.12500002E+03</rscale>
<asrwt>0</asrwt>
<pdfrwt beam="1">  1        4 0.44267904E-02 0.12500002E+03</pdfrwt>
<pdfrwt beam="2">  1       -4 0.20885482E-01 0.12500002E+03</pdfrwt>
<totfact> 0.96476482E+03</totfact>
</mgrwt>
</event>
<event>
 5    1  0.3304582E-002  0.1249987E+03  0.7818608E-02  0.1235071E+00
          4   -1    0    0  501    0  0.00000000000E+00  0.00000000000E+00  0.14437773786E+03  0.14438332345E+03  0.12700000000E+01 0.  1.
         -4   -1    0    0    0  501 -0.00000000000E+00 -0.00000000000E+00 -0.27034203487E+02  0.27064017776E+02  0.12700000000E+01 0.  1.
         25    2    1    2    0    0  0.00000000000E+00  0.00000000000E+00  0.11734353438E+03  0.17144734123E+03  0.12499874301E+03 0.  0.
    9000005    1    3    3    0    0  0.59649156321E+02  0.17973920811E+02  0.51940089561E+02  0.81116315145E+02  0.10000000000E+01 0.  0.
    9000005    1    3    3    0    0 -0.59649156321E+02 -0.17973920811E+02  0.65403444816E+02  0.90331026081E+02  0.10000000000E+01 0.  0.
<mgrwt>
<rscale>  0 0.12499874E+03</rscale>
<asrwt>0</asrwt>
<pdfrwt beam="1">  1        4 0.22214682E-01 0.12499874E+03</pdfrwt>
<pdfrwt beam="2">  1       -4 0.41618314E-02 0.12499874E+03</pdfrwt>
<totfact> 0.95182243E+03</totfact>
</mgrwt>
</event>
<event>
 5    1  0.3304582E-002  0.1250011E+03  0.7818608E-02  0.1235068E+00
         -4   -1    0    0    0  501 -0.00000000000E+00  0.00000000000E+00  0.12083845683E+04  0.12083852357E+04  0.12700000000E+01 0. -1.
          4   -1    0    0  501    0  0.00000000000E+00 -0.00000000000E+00 -0.31072517225E+01  0.33567712563E+01  0.12700000000E+01 0. -1.
         25    2    1    2    0    0  0.00000000000E+00  0.00000000000E+00  0.12052773166E+04  0.12117420070E+04  0.12500112605E+03 0.  0.
    9000005    1    3    3    0    0  0.39161829375E+02  0.32671779198E+02  0.95272302891E+03  0.95408766047E+03  0.10000000000E+01 0.  0.
    9000005    1    3    3    0    0 -0.39161829375E+02 -0.32671779198E+02  0.25255428771E+03  0.25765434652E+03  0.10000000000E+01 0.  0.
<mgrwt>
<rscale>  0 0.12500113E+03</rscale>
<asrwt>0</asrwt>
<pdfrwt beam="2">  1        4 0.49728433E-03 0.12500113E+03</pdfrwt>
<pdfrwt beam="1">  1       -4 0.18592439E+00 0.12500113E+03</pdfrwt>
<totfact> 0.24406886E+03</totfact>
</mgrwt>
</event>
<event>
 5    1  0.3304582E-002  0.1250009E+03  0.7818608E-02  0.1235068E+00
          4   -1    0    0  501    0  0.00000000000E+00  0.00000000000E+00  0.83715366141E+01  0.84673210215E+01  0.12700000000E+01 0. -1.
         -4   -1    0    0    0  501 -0.00000000000E+00 -0.00000000000E+00 -0.46386658067E+03  0.46386831921E+03  0.12700000000E+01 0. -1.
         25    2    1    2    0    0  0.00000000000E+00  0.00000000000E+00 -0.45549504406E+03  0.47233564023E+03  0.12500088747E+03 0.  0.
    9000005    1    3    3    0    0 -0.52621315637E+02  0.30767145697E+02 -0.27978958687E+03  0.28635438365E+03  0.10000000000E+01 0.  0.
    9000005    1    3    3    0    0  0.52621315637E+02 -0.30767145697E+02 -0.17570545719E+03  0.18598125658E+03  0.10000000000E+01 0.  0.
<mgrwt>
<rscale>  0 0.12500089E+03</rscale>
<asrwt>0</asrwt>
<pdfrwt beam="1">  1        4 0.12954308E-02 0.12500089E+03</pdfrwt>
<pdfrwt beam="2">  1       -4 0.71371571E-01 0.12500089E+03</pdfrwt>
<totfact> 0.58075413E+03</totfact>
</mgrwt>
</event>
<event>
 5    1  0.3304582E-002  0.1250020E+03  0.7818608E-02  0.1235066E+00
          4   -1    0    0  501    0  0.00000000000E+00  0.00000000000E+00  0.36513265731E+03  0.36513486595E+03  0.12700000000E+01 0.  1.
         -4   -1    0    0    0  501 -0.00000000000E+00 -0.00000000000E+00 -0.10658564258E+02  0.10733959755E+02  0.12700000000E+01 0.  1.
         25    2    1    2    0    0  0.00000000000E+00  0.00000000000E+00  0.35447409305E+03  0.37586882571E+03  0.12500196596E+03 0.  0.
    9000005    1    3    3    0    0  0.25158224442E+02 -0.56382175546E+02  0.20631038044E+03  0.21535287102E+03  0.10000000000E+01 0.  0.
    9000005    1    3    3    0    0 -0.25158224442E+02  0.56382175546E+02  0.14816371261E+03  0.16051595469E+03  0.10000000000E+01 0.  0.
<mgrwt>
<rscale>  0 0.12500197E+03</rscale>
<asrwt>0</asrwt>
<pdfrwt beam="1">  1        4 0.56180226E-01 0.12500197E+03</pdfrwt>
<pdfrwt beam="2">  1       -4 0.16457486E-02 0.12500197E+03</pdfrwt>
<totfact> 0.66966473E+03</totfact>
</mgrwt>
</event>
<event>
 5    1  0.3304582E-002  0.1249999E+03  0.7818608E-02  0.1235069E+00
          4   -1    0    0  501    0  0.00000000000E+00  0.00000000000E+00  0.28776953123E+02  0.28804963653E+02  0.12700000000E+01 0. -1.
         -4   -1    0    0    0  501 -0.00000000000E+00 -0.00000000000E+00 -0.13564514595E+03  0.13565109111E+03  0.12700000000E+01 0. -1.
         25    2    1    2    0    0  0.00000000000E+00  0.00000000000E+00 -0.10686819282E+03  0.16445605476E+03  0.12499993324E+03 0.  0.
    9000005    1    3    3    0    0 -0.12232972554E+02 -0.35603608634E+01 -0.13392477582E+03  0.13453314597E+03  0.10000000000E+01 0.  0.
    9000005    1    3    3    0    0  0.12232972554E+02  0.35603608634E+01  0.27056582996E+02  0.29922908789E+02  0.10000000000E+01 0.  0.
<mgrwt>
<rscale>  0 0.12499993E+03</rscale>
<asrwt>0</asrwt>
<pdfrwt beam="1">  1        4 0.44298356E-02 0.12499993E+03</pdfrwt>
<pdfrwt beam="2">  1       -4 0.20871096E-01 0.12499993E+03</pdfrwt>
<totfact> 0.96490651E+03</totfact>
</mgrwt>
</event>
<event>
 5    1  0.3304582E-002  0.1250006E+03  0.7818608E-02  0.1235068E+00
         -4   -1    0    0    0  501 -0.00000000000E+00  0.00000000000E+00  0.22561525572E+02  0.22597241782E+02  0.12700000000E+01 0.  1.
          4   -1    0    0  501    0  0.00000000000E+00 -0.00000000000E+00 -0.17296434703E+03  0.17296900949E+03  0.12700000000E+01 0.  1.
         25    2    1    2    0    0  0.00000000000E+00  0.00000000000E+00 -0.15040282146E+03  0.19556625127E+03  0.12500059973E+03 0.  0.
    9000005    1    3    3    0    0 -0.34764422448E+02  0.51412892781E+02 -0.86638152756E+02  0.10657870390E+03  0.10000000000E+01 0.  0.
    9000005    1    3    3    0    0  0.34764422448E+02 -0.51412892781E+02 -0.63764668701E+02  0.88987547369E+02  0.10000000000E+01 0.  0.
<mgrwt>
<rscale>  0 0.12500060E+03</rscale>
<asrwt>0</asrwt>
<pdfrwt beam="2">  1        4 0.26613005E-01 0.12500060E+03</pdfrwt>
<pdfrwt beam="1">  1       -4 0.34741101E-02 0.12500060E+03</pdfrwt>
<totfact> 0.90886504E+03</totfact>
</mgrwt>
</event>
<event>
 5    1  0.3304582E-002  0.1250008E+03  0.7818608E-02  0.1235068E+00
         -4   -1    0    0    0  501 -0.00000000000E+00  0.00000000000E+00  0.22602609881E+03  0.22602966673E+03  0.12700000000E+01 0. -1.
          4   -1    0    0  501    0  0.00000000000E+00 -0.00000000000E+00 -0.17255482007E+02  0.17302154758E+02  0.12700000000E+01 0. -1.
         25    2    1    2    0    0  0.00000000000E+00  0.00000000000E+00  0.20877061680E+03  0.24333182149E+03  0.12500081964E+03 0.  0.
    9000005    1    3    3    0    0 -0.40058588113E+01  0.56830673712E+02  0.54393028337E+02  0.78774195718E+02  0.10000000000E+01 0.  0.
    9000005    1    3    3    0    0  0.40058588113E+01 -0.56830673712E+02  0.15437758847E+03  0.16455762577E+03  0.10000000000E+01 0.  0.
<mgrwt>
<rscale>  0 0.12500082E+03</rscale>
<asrwt>0</asrwt>
<pdfrwt beam="2">  1        4 0.26585544E-02 0.12500082E+03</pdfrwt>
<pdfrwt beam="1">  1       -4 0.34777108E-01 0.12500082E+03</pdfrwt>
<totfact> 0.83302121E+03</totfact>
</mgrwt>
</event>
<event>
 5    1  0.3304582E-002  0.1250014E+03  0.7818608E-02  0.1235067E+00
         -4   -1    0    0    0  501 -0.00000000000E+00  0.00000000000E+00  0.66849219476E+01  0.68044898006E+01  0.12700000000E+01 0. -1.
          4   -1    0    0  501    0  0.00000000000E+00 -0.00000000000E+00 -0.57905053839E+03  0.57905193110E+03  0.12700000000E+01 0. -1.
         25    2    1    2    0    0  0.00000000000E+00  0.00000000000E+00 -0.57236561644E+03  0.58585642090E+03  0.12500138809E+03 0.  0.
    9000005    1    3    3    0    0  0.14374444777E+02  0.39891406066E+02 -0.50133639512E+03  0.50312734969E+03  0.10000000000E+01 0.  0.
    9000005    1    3    3    0    0 -0.14374444777E+02 -0.39891406066E+02 -0.71029221325E+02  0.82729071206E+02  0.10000000000E+01 0.  0.
<mgrwt>
<rscale>  0 0.12500139E+03</rscale>
<asrwt>0</asrwt>
<pdfrwt beam="2">  1        4 0.89093963E-01 0.12500139E+03</pdfrwt>
<pdfrwt beam="1">  1       -4 0.10377546E-02 0.12500139E+03</pdfrwt>
<totfact> 0.49771241E+03</totfact>
</mgrwt>
</event>
<event>
 5    1  0.3304582E-002  0.1250011E+03  0.7818608E-02  0.1235068E+00
          4   -1    0    0  501    0  0.00000000000E+00  0.00000000000E+00  0.47994915187E+03  0.47995083215E+03  0.12700000000E+01 0.  1.
         -4   -1    0    0    0  501 -0.00000000000E+00 -0.00000000000E+00 -0.80877765049E+01  0.81868815060E+01  0.12700000000E+01 0.  1.
         25    2    1    2    0    0  0.00000000000E+00  0.00000000000E+00  0.47186137537E+03  0.48813771366E+03  0.12500107972E+03 0.  0.
    9000005    1    3    3    0    0  0.13244800742E+02 -0.50796768314E+02  0.10352751276E+03  0.11608049930E+03  0.10000000000E+01 0.  0.
    9000005    1    3    3    0    0 -0.13244800742E+02  0.50796768314E+02  0.36833386260E+03  0.37205721436E+03  0.10000000000E+01 0.  0.
<mgrwt>
<rscale>  0 0.12500108E+03</rscale>
<asrwt>0</asrwt>
<pdfrwt beam="1">  1        4 0.73846084E-01 0.12500108E+03</pdfrwt>
<pdfrwt beam="2">  1       -4 0.12520260E-02 0.12500108E+03</pdfrwt>
<totfact> 0.56795274E+03</totfact>
</mgrwt>
</event>
<event>
 5    1  0.3304582E-002  0.1250133E+03  0.7818608E-02  0.1235048E+00
         -4   -1    0    0    0  501 -0.00000000000E+00  0.00000000000E+00  0.85310895183E+02  0.85320347731E+02  0.12700000000E+01 0.  1.
          4   -1    0    0  501    0  0.00000000000E+00 -0.00000000000E+00 -0.45777376467E+02  0.45794989859E+02  0.12700000000E+01 0.  1.
         25    2    1    2    0    0  0.00000000000E+00  0.00000000000E+00  0.39533518716E+02  0.13111533759E+03  0.12501332989E+03 0.  0.
    9000005    1    3    3    0    0 -0.62132226998E+01  0.61712698716E+02  0.11709199169E+02  0.63128176469E+02  0.10000000000E+01 0.  0.
    9000005    1    3    3    0    0  0.62132226998E+01 -0.61712698716E+02  0.27824319547E+02  0.67987161122E+02  0.10000000000E+01 0.  0.
<mgrwt>
<rscale>  0 0.12501333E+03</rscale>
<asrwt>0</asrwt>
<pdfrwt beam="2">  1        4 0.70447554E-02 0.12501333E+03</pdfrwt>
<pdfrwt beam="1">  1       -4 0.13126835E-01 0.12501333E+03</pdfrwt>
<totfact> 0.10317514E+04</totfact>
</mgrwt>
</event>
<event>
 5    1  0.3304582E-002  0.1250067E+03  0.7818608E-02  0.1235059E+00
          4   -1    0    0  501    0  0.00000000000E+00  0.00000000000E+00  0.84255522695E+01  0.85207294902E+01  0.12700000000E+01 0. -1.
         -4   -1    0    0    0  501 -0.00000000000E+00 -0.00000000000E+00 -0.46096880354E+03  0.46097055300E+03  0.12700000000E+01 0. -1.
         25    2    1    2    0    0  0.00000000000E+00  0.00000000000E+00 -0.45254325127E+03  0.46949128249E+03  0.12500668009E+03 0.  0.
    9000005    1    3    3    0    0  0.30853577787E+02 -0.22156319755E+02 -0.41265655843E+03  0.41440231778E+03  0.10000000000E+01 0.  0.
    9000005    1    3    3    0    0 -0.30853577787E+02  0.22156319755E+02 -0.39886692838E+02  0.55088964710E+02  0.10000000000E+01 0.  0.
<mgrwt>
<rscale>  0 0.12500668E+03</rscale>
<asrwt>0</asrwt>
<pdfrwt beam="1">  1        4 0.13036951E-02 0.12500668E+03</pdfrwt>
<pdfrwt beam="2">  1       -4 0.70925713E-01 0.12500668E+03</pdfrwt>
<totfact> 0.58303121E+03</totfact>
</mgrwt>
</event>
<event>
 5    1  0.3304582E-002  0.1250059E+03  0.7818608E-02  0.1235060E+00
          4   -1    0    0  501    0  0.00000000000E+00  0.00000000000E+00  0.13653615691E+02  0.13712553426E+02  0.12700000000E+01 0.  1.
         -4   -1    0    0    0  501 -0.00000000000E+00 -0.00000000000E+00 -0.28544694836E+03  0.28544977356E+03  0.12700000000E+01 0.  1.
         25    2    1    2    0    0  0.00000000000E+00  0.00000000000E+00 -0.27179333267E+03  0.29916232699E+03  0.12500592869E+03 0.  0.
    9000005    1    3    3    0    0 -0.73206458970E+01  0.61685067787E+02 -0.11949311368E+03  0.13467829692E+03  0.10000000000E+01 0.  0.
    9000005    1    3    3    0    0  0.73206458970E+01 -0.61685067787E+02 -0.15230021899E+03  0.16448403007E+03  0.10000000000E+01 0.  0.
<mgrwt>
<rscale>  0 0.12500593E+03</rscale>
<asrwt>0</asrwt>
<pdfrwt beam="1">  1        4 0.21053075E-02 0.12500593E+03</pdfrwt>
<pdfrwt beam="2">  1       -4 0.43919662E-01 0.12500593E+03</pdfrwt>
<totfact> 0.75694074E+03</totfact>
</mgrwt>
</event>
<event>
 5    1  0.3304582E-002  0.1249930E+03  0.7818608E-02  0.1235080E+00
         -4   -1    0    0    0  501 -0.00000000000E+00  0.00000000000E+00  0.25243840677E+02  0.25275766895E+02  0.12700000000E+01 0.  1.
          4   -1    0    0  501    0  0.00000000000E+00 -0.00000000000E+00 -0.15459111302E+03  0.15459632960E+03  0.12700000000E+01 0.  1.
         25    2    1    2    0    0  0.00000000000E+00  0.00000000000E+00 -0.12934727234E+03  0.17987209649E+03  0.12499301674E+03 0.  0.
    9000005    1    3    3    0    0  0.51813841704E+02  0.20705495363E+02 -0.24189762712E+02  0.60823814008E+02  0.10000000000E+01 0.  0.
    9000005    1    3    3    0    0 -0.51813841704E+02 -0.20705495363E+02 -0.10515750963E+03  0.11904828248E+03  0.10000000000E+01 0.  0.
<mgrwt>
<rscale>  0 0.12499302E+03</rscale>
<asrwt>0</asrwt>
<pdfrwt beam="2">  1        4 0.23786105E-01 0.12499302E+03</pdfrwt>
<pdfrwt beam="1">  1       -4 0.38865250E-02 0.12499302E+03</pdfrwt>
<totfact> 0.93654695E+03</totfact>
</mgrwt>
</event>
<event>
 5    1  0.3304582E-002  0.1250005E+03  0.7818608E-02  0.1235069E+00
          4   -1    0    0  501    0  0.00000000000E+00  0.00000000000E+00  0.95510569725E+01  0.96351226921E+01  0.12700000000E+01 0. -1.
         -4   -1    0    0    0  501 -0.00000000000E+00 -0.00000000000E+00 -0.40711229532E+03  0.40711427622E+03  0.12700000000E+01 0. -1.
         25    2    1    2    0    0  0.00000000000E+00  0.00000000000E+00 -0.39756123835E+03  0.41674939891E+03  0.12500049302E+03 0.  0.
    9000005    1    3    3    0    0  0.49446216442E+02 -0.48718830703E+01 -0.72413584512E+02  0.87825911820E+02  0.10000000000E+01 0.  0.
    9000005    1    3    3    0    0 -0.49446216442E+02  0.48718830703E+01 -0.32514765384E+03  0.32892348710E+03  0.10000000000E+01 0.  0.
<mgrwt>
<rscale>  0 0.12500049E+03</rscale>
<asrwt>0</asrwt>
<pdfrwt beam="1">  1        4 0.14760127E-02 0.12500049E+03</pdfrwt>
<pdfrwt beam="2">  1       -4 0.62639266E-01 0.12500049E+03</pdfrwt>
<totfact> 0.62955044E+03</totfact>
</mgrwt>
</event>
<event>
 5    1  0.3304582E-002  0.1249980E+03  0.7818608E-02  0.1235072E+00
          4   -1    0    0  501    0  0.00000000000E+00  0.00000000000E+00  0.29013610580E+02  0.29041392854E+02  0.12700000000E+01 0.  1.
         -4   -1    0    0    0  501 -0.00000000000E+00 -0.00000000000E+00 -0.13453558407E+03  0.13454157827E+03  0.12700000000E+01 0.  1.
         25    2    1    2    0    0  0.00000000000E+00  0.00000000000E+00 -0.10552197349E+03  0.16358297112E+03  0.12499800619E+03 0.  0.
    9000005    1    3    3    0    0  0.54466887627E+01 -0.47422914360E+01  0.28472070740E+02  0.29390722325E+02  0.10000000000E+01 0.  0.
    9000005    1    3    3    0    0 -0.54466887627E+01  0.47422914360E+01 -0.13399404423E+03  0.13419224879E+03  0.10000000000E+01 0.  0.
<mgrwt>
<rscale>  0 0.12499801E+03</rscale>
<asrwt>0</asrwt>
<pdfrwt beam="1">  1        4 0.44662307E-02 0.12499801E+03</pdfrwt>
<pdfrwt beam="2">  1       -4 0.20700380E-01 0.12499801E+03</pdfrwt>
<totfact> 0.96660760E+03</totfact>
</mgrwt>
</event>
<event>
 5    1  0.3304582E-002  0.1250000E+03  0.7818608E-02  0.1235069E+00
         -4   -1    0    0    0  501 -0.00000000000E+00  0.00000000000E+00  0.67064023370E+02  0.67076047368E+02  0.12700000000E+01 0.  1.
          4   -1    0    0  501    0  0.00000000000E+00 -0.00000000000E+00 -0.58222430487E+02  0.58236280031E+02  0.12700000000E+01 0.  1.
         25    2    1    2    0    0  0.00000000000E+00  0.00000000000E+00  0.88415928825E+01  0.12531232740E+03  0.12500002253E+03 0.  0.
    9000005    1    3    3    0    0  0.34035399511E+02  0.44351189015E+02 -0.23574141116E+02  0.60680940305E+02  0.10000000000E+01 0.  0.
    9000005    1    3    3    0    0 -0.34035399511E+02 -0.44351189015E+02  0.32415733999E+02  0.64631387093E+02  0.10000000000E+01 0.  0.
<mgrwt>
<rscale>  0 0.12500002E+03</rscale>
<asrwt>0</asrwt>
<pdfrwt beam="2">  1        4 0.89592872E-02 0.12500002E+03</pdfrwt>
<pdfrwt beam="1">  1       -4 0.10319532E-01 0.12500002E+03</pdfrwt>
<totfact> 0.10446077E+04</totfact>
</mgrwt>
</event>
<event>
 5    1  0.3304582E-002  0.1250010E+03  0.7818608E-02  0.1235068E+00
          4   -1    0    0  501    0  0.00000000000E+00  0.00000000000E+00  0.53250160086E+02  0.53265302488E+02  0.12700000000E+01 0. -1.
         -4   -1    0    0    0  501 -0.00000000000E+00 -0.00000000000E+00 -0.73326701025E+02  0.73337698241E+02  0.12700000000E+01 0. -1.
         25    2    1    2    0    0  0.00000000000E+00  0.00000000000E+00 -0.20076540940E+02  0.12660300073E+03  0.12500100919E+03 0.  0.
    9000005    1    3    3    0    0  0.27543641313E+02  0.50021632342E+02  0.15674033642E+02  0.59224076266E+02  0.10000000000E+01 0.  0.
    9000005    1    3    3    0    0 -0.27543641313E+02 -0.50021632342E+02 -0.35750574581E+02  0.67378924463E+02  0.10000000000E+01 0.  0.
<mgrwt>
<rscale>  0 0.12500101E+03</rscale>
<asrwt>0</asrwt>
<pdfrwt beam="1">  1        4 0.81943431E-02 0.12500101E+03</pdfrwt>
<pdfrwt beam="2">  1       -4 0.11283042E-01 0.12500101E+03</pdfrwt>
<totfact> 0.10417546E+04</totfact>
</mgrwt>
</event>
<event>
 5    1  0.3304582E-002  0.1250024E+03  0.7818608E-02  0.1235066E+00
          4   -1    0    0  501    0  0.00000000000E+00  0.00000000000E+00  0.17760685546E+04  0.17760690087E+04  0.12700000000E+01 0.  1.
         -4   -1    0    0    0  501 -0.00000000000E+00 -0.00000000000E+00 -0.20156433641E+01  0.23823765805E+01  0.12700000000E+01 0.  1.
         25    2    1    2    0    0  0.00000000000E+00  0.00000000000E+00  0.17740529112E+04  0.17784513852E+04  0.12500239124E+03 0.  0.
    9000005    1    3    3    0    0  0.12528367767E+02 -0.27077503498E+01  0.16817049112E+02  0.21168491956E+02  0.10000000000E+01 0.  0.
    9000005    1    3    3    0    0 -0.12528367767E+02  0.27077503498E+01  0.17572358621E+04  0.17572828933E+04  0.10000000000E+01 0.  0.
<mgrwt>
<rscale>  0 0.12500239E+03</rscale>
<asrwt>0</asrwt>
<pdfrwt beam="1">  1        4 0.27326915E+00 0.12500239E+03</pdfrwt>
<pdfrwt beam="2">  1       -4 0.33834466E-03 0.12500239E+03</pdfrwt>
<totfact> 0.13037776E+03</totfact>
</mgrwt>
</event>
<event>
 5    1  0.3304582E-002  0.1249945E+03  0.7818608E-02  0.1235078E+00
          4   -1    0    0  501    0  0.00000000000E+00  0.00000000000E+00  0.79803038259E+02  0.79813143124E+02  0.12700000000E+01 0. -1.
         -4   -1    0    0    0  501 -0.00000000000E+00 -0.00000000000E+00 -0.48922880195E+02  0.48939361526E+02  0.12700000000E+01 0. -1.
         25    2    1    2    0    0  0.00000000000E+00  0.00000000000E+00  0.30880158063E+02  0.12875250465E+03  0.12499449305E+03 0.  0.
    9000005    1    3    3    0    0 -0.52801408442E+01  0.31525771679E+02 -0.39869270420E+02  0.51110790359E+02  0.10000000000E+01 0.  0.
    9000005    1    3    3    0    0  0.52801408442E+01 -0.31525771679E+02  0.70749428483E+02  0.77641714291E+02  0.10000000000E+01 0.  0.
<mgrwt>
<rscale>  0 0.12499449E+03</rscale>
<asrwt>0</asrwt>
<pdfrwt beam="1">  1        4 0.12279435E-01 0.12499449E+03</pdfrwt>
<pdfrwt beam="2">  1       -4 0.75286421E-02 0.12499449E+03</pdfrwt>
<totfact> 0.10372558E+04</totfact>
</mgrwt>
</event>
<event>
 5    1  0.3304582E-002  0.1249972E+03  0.7818608E-02  0.1235074E+00
         -4   -1    0    0    0  501 -0.00000000000E+00  0.00000000000E+00  0.44276101034E+02  0.44294311404E+02  0.12700000000E+01 0. -1.
          4   -1    0    0  501    0  0.00000000000E+00 -0.00000000000E+00 -0.88179959215E+02  0.88189104242E+02  0.12700000000E+01 0. -1.
         25    2    1    2    0    0  0.00000000000E+00  0.00000000000E+00 -0.43903858181E+02  0.13248341565E+03  0.12499722660E+03 0.  0.
    9000005    1    3    3    0    0 -0.10198842493E+02 -0.39742924354E+02  0.28004361866E+02  0.49686625040E+02  0.10000000000E+01 0.  0.
    9000005    1    3    3    0    0  0.10198842493E+02  0.39742924354E+02 -0.71908220047E+02  0.82796790606E+02  0.10000000000E+01 0.  0.
<mgrwt>
<rscale>  0 0.12499723E+03</rscale>
<asrwt>0</asrwt>
<pdfrwt beam="2">  1        4 0.13568252E-01 0.12499723E+03</pdfrwt>
<pdfrwt beam="1">  1       -4 0.68138121E-02 0.12499723E+03</pdfrwt>
<totfact> 0.10292035E+04</totfact>
</mgrwt>
</event>
<event>
 5    1  0.3304582E-002  0.1249951E+03  0.7818608E-02  0.1235077E+00
         -4   -1    0    0    0  501 -0.00000000000E+00  0.00000000000E+00  0.56927780076E+02  0.56941944508E+02  0.12700000000E+01 0.  1.
          4   -1    0    0  501    0  0.00000000000E+00 -0.00000000000E+00 -0.68583673603E+02  0.68595431225E+02  0.12700000000E+01 0.  1.
         25    2    1    2    0    0  0.00000000000E+00  0.00000000000E+00 -0.11655893527E+02  0.12553737573E+03  0.12499509131E+03 0.  0.
    9000005    1    3    3    0    0  0.42335089901E+02  0.45217258401E+02  0.24590881922E+01  0.61999253293E+02  0.10000000000E+01 0.  0.
    9000005    1    3    3    0    0 -0.42335089901E+02 -0.45217258401E+02 -0.14114981720E+02  0.63538122440E+02  0.10000000000E+01 0.  0.
<mgrwt>
<rscale>  0 0.12499509E+03</rscale>
<asrwt>0</asrwt>
<pdfrwt beam="2">  1        4 0.10553328E-01 0.12499509E+03</pdfrwt>
<pdfrwt beam="1">  1       -4 0.87601141E-02 0.12499509E+03</pdfrwt>
<totfact> 0.10442285E+04</totfact>
</mgrwt>
</event>
<event>
 5    1  0.3304582E-002  0.1250012E+03  0.7818608E-02  0.1235067E+00
          4   -1    0    0  501    0  0.00000000000E+00  0.00000000000E+00  0.68729213928E+03  0.68729331265E+03  0.12700000000E+01 0.  1.
         -4   -1    0    0    0  501 -0.00000000000E+00 -0.00000000000E+00 -0.56115039430E+01  0.57534230248E+01  0.12700000000E+01 0.  1.
         25    2    1    2    0    0  0.00000000000E+00  0.00000000000E+00  0.68168063534E+03  0.69304673568E+03  0.12500115695E+03 0.  0.
    9000005    1    3    3    0    0 -0.20012120510E+02  0.12086430398E+02  0.19520369893E+02  0.30473129275E+02  0.10000000000E+01 0.  0.
    9000005    1    3    3    0    0  0.20012120510E+02 -0.12086430398E+02  0.66216026545E+03  0.66257360640E+03  0.10000000000E+01 0.  0.
<mgrwt>
<rscale>  0 0.12500116E+03</rscale>
<asrwt>0</asrwt>
<pdfrwt beam="1">  1        4 0.10574827E+00 0.12500116E+03</pdfrwt>
<pdfrwt beam="2">  1       -4 0.87431535E-03 0.12500116E+03</pdfrwt>
<totfact> 0.43455189E+03</totfact>
</mgrwt>
</event>
<event>
 5    1  0.3304582E-002  0.1250005E+03  0.7818608E-02  0.1235069E+00
          4   -1    0    0  501    0  0.00000000000E+00  0.00000000000E+00  0.43318653301E+01  0.45141950819E+01  0.12700000000E+01 0. -1.
         -4   -1    0    0    0  501 -0.00000000000E+00 -0.00000000000E+00 -0.88298537740E+03  0.88298629072E+03  0.12700000000E+01 0. -1.
         25    2    1    2    0    0  0.00000000000E+00  0.00000000000E+00 -0.87865351207E+03  0.88750048580E+03  0.12500047211E+03 0.  0.
    9000005    1    3    3    0    0 -0.55211429361E+02  0.32583911004E+01 -0.23277227087E+03  0.23925477870E+03  0.10000000000E+01 0.  0.
    9000005    1    3    3    0    0  0.55211429361E+02 -0.32583911004E+01 -0.64588124120E+03  0.64824570710E+03  0.10000000000E+01 0.  0.
<mgrwt>
<rscale>  0 0.12500047E+03</rscale>
<asrwt>0</asrwt>
<pdfrwt beam="1">  1        4 0.68053714E-03 0.12500047E+03</pdfrwt>
<pdfrwt beam="2">  1       -4 0.13585786E+00 0.12500047E+03</pdfrwt>
<totfact> 0.34639588E+03</totfact>
</mgrwt>
</event>
<event>
 5    1  0.3304582E-002  0.1250002E+03  0.7818608E-02  0.1235069E+00
          4   -1    0    0  501    0  0.00000000000E+00  0.00000000000E+00  0.29146523709E+03  0.29146800396E+03  0.12700000000E+01 0. -1.
         -4   -1    0    0    0  501 -0.00000000000E+00 -0.00000000000E+00 -0.13369225804E+02  0.13429411699E+02  0.12700000000E+01 0. -1.
         25    2    1    2    0    0  0.00000000000E+00  0.00000000000E+00  0.27809601129E+03  0.30489741566E+03  0.12500017033E+03 0.  0.
    9000005    1    3    3    0    0  0.41574551881E+01 -0.31750352264E+02  0.81505546045E+01  0.33057538367E+02  0.10000000000E+01 0.  0.
    9000005    1    3    3    0    0 -0.41574551881E+01  0.31750352264E+02  0.26994545669E+03  0.27183987730E+03  0.10000000000E+01 0.  0.
<mgrwt>
<rscale>  0 0.12500017E+03</rscale>
<asrwt>0</asrwt>
<pdfrwt beam="1">  1        4 0.44845644E-01 0.12500017E+03</pdfrwt>
<pdfrwt beam="2">  1       -4 0.20616467E-02 0.12500017E+03</pdfrwt>
<totfact> 0.74988312E+03</totfact>
</mgrwt>
</event>
<event>
 5    1  0.3304582E-002  0.1250013E+03  0.7818608E-02  0.1235067E+00
          4   -1    0    0  501    0  0.00000000000E+00  0.00000000000E+00  0.19979487136E+02  0.20019810345E+02  0.12700000000E+01 0.  1.
         -4   -1    0    0    0  501 -0.00000000000E+00 -0.00000000000E+00 -0.19527772952E+03  0.19528185924E+03  0.12700000000E+01 0.  1.
         25    2    1    2    0    0  0.00000000000E+00  0.00000000000E+00 -0.17529824239E+03  0.21530166958E+03  0.12500134056E+03 0.  0.
    9000005    1    3    3    0    0  0.51731696371E+02 -0.29755076898E+02 -0.11958553542E+03  0.13365340734E+03  0.10000000000E+01 0.  0.
    9000005    1    3    3    0    0 -0.51731696371E+02  0.29755076898E+02 -0.55712706968E+02  0.81648262249E+02  0.10000000000E+01 0.  0.
<mgrwt>
<rscale>  0 0.12500134E+03</rscale>
<asrwt>0</asrwt>
<pdfrwt beam="1">  1        4 0.30771868E-02 0.12500134E+03</pdfrwt>
<pdfrwt beam="2">  1       -4 0.30046146E-01 0.12500134E+03</pdfrwt>
<totfact> 0.87614678E+03</totfact>
</mgrwt>
</event>
<event>
 5    1  0.3304582E-002  0.1250090E+03  0.7818608E-02  0.1235055E+00
          4   -1    0    0  501    0  0.00000000000E+00  0.00000000000E+00  0.44011662114E+02  0.44029981854E+02  0.12700000000E+01 0.  1.
         -4   -1    0    0    0  501 -0.00000000000E+00 -0.00000000000E+00 -0.88726394054E+02  0.88735482767E+02  0.12700000000E+01 0.  1.
         25    2    1    2    0    0  0.00000000000E+00  0.00000000000E+00 -0.44714731940E+02  0.13276546462E+03  0.12500904505E+03 0.  0.
    9000005    1    3    3    0    0  0.36579465544E+02 -0.24474633915E+02 -0.69481024915E+02  0.82253740511E+02  0.10000000000E+01 0.  0.
    9000005    1    3    3    0    0 -0.36579465544E+02  0.24474633915E+02  0.24766292975E+02  0.50511724110E+02  0.10000000000E+01 0.  0.
<mgrwt>
<rscale>  0 0.12500905E+03</rscale>
<asrwt>0</asrwt>
<pdfrwt beam="1">  1        4 0.67731333E-02 0.12500905E+03</pdfrwt>
<pdfrwt beam="2">  1       -4 0.13652323E-01 0.12500905E+03</pdfrwt>
<totfact> 0.10283289E+04</totfact>
</mgrwt>
</event>
<event>
 5    1  0.3304582E-002  0.1250043E+03  0.7818608E-02  0.1235063E+00
          4   -1    0    0  501    0  0.00000000000E+00  0.00000000000E+00  0.35909145437E+03  0.35909370017E+03  0.12700000000E+01 0. -1.
         -4   -1    0    0    0  501 -0.00000000000E+00 -0.00000000000E+00 -0.10839550076E+02  0.10913695335E+02  0.12700000000E+01 0. -1.
         25    2    1    2    0    0  0.00000000000E+00  0.00000000000E+00  0.34825190429E+03  0.37000739551E+03  0.12500433546E+03 0.  0.
    9000005    1    3    3    0    0 -0.16954935481E+02 -0.57233080935E+02  0.11935271243E+03  0.13345098484E+03  0.10000000000E+01 0.  0.
    9000005    1    3    3    0    0  0.16954935481E+02  0.57233080935E+02  0.22889919186E+03  0.23655641066E+03  0.10000000000E+01 0.  0.
<mgrwt>
<rscale>  0 0.12500434E+03</rscale>
<asrwt>0</asrwt>
<pdfrwt beam="1">  1        4 0.55250709E-01 0.12500434E+03</pdfrwt>
<pdfrwt beam="2">  1       -4 0.16734995E-02 0.12500434E+03</pdfrwt>
<totfact> 0.67571689E+03</totfact>
</mgrwt>
</event>
<event>
 5    1  0.3304582E-002  0.1250000E+03  0.7818608E-02  0.1235069E+00
         -4   -1    0    0    0  501 -0.00000000000E+00  0.00000000000E+00  0.11411211893E+04  0.11411218960E+04  0.12700000000E+01 0.  1.
          4   -1    0    0  501    0  0.00000000000E+00 -0.00000000000E+00 -0.33046440917E+01  0.35402786010E+01  0.12700000000E+01 0.  1.
         25    2    1    2    0    0  0.00000000000E+00  0.00000000000E+00  0.11378165452E+04  0.11446621746E+04  0.12500001380E+03 0.  0.
    9000005    1    3    3    0    0 -0.29530290753E+02  0.71352469989E+01  0.68824213646E+02  0.75237771137E+02  0.10000000000E+01 0.  0.
    9000005    1    3    3    0    0  0.29530290753E+02 -0.71352469989E+01  0.10689923315E+04  0.10694244034E+04  0.10000000000E+01 0.  0.
<mgrwt>
<rscale>  0 0.12500001E+03</rscale>
<asrwt>0</asrwt>
<pdfrwt beam="2">  1        4 0.52658742E-03 0.12500001E+03</pdfrwt>
<pdfrwt beam="1">  1       -4 0.17557511E+00 0.12500001E+03</pdfrwt>
<totfact> 0.26208826E+03</totfact>
</mgrwt>
</event>
<event>
 5    1  0.3304582E-002  0.1249919E+03  0.7818608E-02  0.1235082E+00
          4   -1    0    0  501    0  0.00000000000E+00  0.00000000000E+00  0.15913278822E+02  0.15963876186E+02  0.12700000000E+01 0.  1.
         -4   -1    0    0    0  501 -0.00000000000E+00 -0.00000000000E+00 -0.24499745104E+03  0.24500074268E+03  0.12700000000E+01 0.  1.
         25    2    1    2    0    0  0.00000000000E+00  0.00000000000E+00 -0.22908417221E+03  0.26096461887E+03  0.12499189710E+03 0.  0.
    9000005    1    3    3    0    0 -0.34143031595E+02  0.23234163195E+00 -0.22380965173E+03  0.22640132685E+03  0.10000000000E+01 0.  0.
    9000005    1    3    3    0    0  0.34143031595E+02 -0.23234163195E+00 -0.52745204836E+01  0.34563292023E+02  0.10000000000E+01 0.  0.
<mgrwt>
<rscale>  0 0.12499190E+03</rscale>
<asrwt>0</asrwt>
<pdfrwt beam="1">  1        4 0.24523422E-02 0.12499190E+03</pdfrwt>
<pdfrwt beam="2">  1       -4 0.37696058E-01 0.12499190E+03</pdfrwt>
<totfact> 0.80785451E+03</totfact>
</mgrwt>
</event>
<event>
 5    1  0.3304582E-002  0.1249950E+03  0.7818608E-02  0.1235077E+00
         -4   -1    0    0    0  501 -0.00000000000E+00  0.00000000000E+00  0.34174243207E+03  0.34174479188E+03  0.12700000000E+01 0. -1.
          4   -1    0    0  501    0  0.00000000000E+00 -0.00000000000E+00 -0.11391786976E+02  0.11462360599E+02  0.12700000000E+01 0. -1.
         25    2    1    2    0    0  0.00000000000E+00  0.00000000000E+00  0.33035064509E+03  0.35320715248E+03  0.12499497529E+03 0.  0.
    9000005    1    3    3    0    0  0.27983388708E+02 -0.54922733075E+02  0.19418035753E+03  0.20373165661E+03  0.10000000000E+01 0.  0.
    9000005    1    3    3    0    0 -0.27983388708E+02  0.54922733075E+02  0.13617028756E+03  0.14947549587E+03  0.10000000000E+01 0.  0.
<mgrwt>
<rscale>  0 0.12499498E+03</rscale>
<asrwt>0</asrwt>
<pdfrwt beam="2">  1        4 0.17581926E-02 0.12499498E+03</pdfrwt>
<pdfrwt beam="1">  1       -4 0.52581376E-01 0.12499498E+03</pdfrwt>
<totfact> 0.69380872E+03</totfact>
</mgrwt>
</event>
<event>
 5    1  0.3304582E-002  0.1250052E+03  0.7818608E-02  0.1235061E+00
         -4   -1    0    0    0  501 -0.00000000000E+00  0.00000000000E+00  0.25099852490E+02  0.25131961623E+02  0.12700000000E+01 0.  1.
          4   -1    0    0  501    0  0.00000000000E+00 -0.00000000000E+00 -0.15550719534E+03  0.15551238119E+03  0.12700000000E+01 0.  1.
         25    2    1    2    0    0  0.00000000000E+00  0.00000000000E+00 -0.13040734286E+03  0.18064434281E+03  0.12500521397E+03 0.  0.
    9000005    1    3    3    0    0 -0.55797638579E+02  0.55815428491E+01 -0.10506957676E+03  0.11910141079E+03  0.10000000000E+01 0.  0.
    9000005    1    3    3    0    0  0.55797638579E+02 -0.55815428491E+01 -0.25337766095E+02  0.61542932025E+02  0.10000000000E+01 0.  0.
<mgrwt>
<rscale>  0 0.12500521E+03</rscale>
<asrwt>0</asrwt>
<pdfrwt beam="2">  1        4 0.23927052E-01 0.12500521E+03</pdfrwt>
<pdfrwt beam="1">  1       -4 0.38643847E-02 0.12500521E+03</pdfrwt>
<totfact> 0.93490219E+03</totfact>
</mgrwt>
</event>
<event>
 5    1  0.3304582E-002  0.1250048E+03  0.7818608E-02  0.1235062E+00
         -4   -1    0    0    0  501 -0.00000000000E+00  0.00000000000E+00  0.12796723448E+03  0.12797353633E+03  0.12700000000E+01 0.  1.
          4   -1    0    0  501    0  0.00000000000E+00 -0.00000000000E+00 -0.30507471161E+02  0.30533894226E+02  0.12700000000E+01 0.  1.
         25    2    1    2    0    0  0.00000000000E+00  0.00000000000E+00  0.97459763318E+02  0.15850743055E+03  0.12500480021E+03 0.  0.
    9000005    1    3    3    0    0  0.32121409873E+02 -0.10872083812E+01  0.11669079871E+03  0.12104011524E+03  0.10000000000E+01 0.  0.
    9000005    1    3    3    0    0 -0.32121409873E+02  0.10872083812E+01 -0.19231035393E+02  0.37467315310E+02  0.10000000000E+01 0.  0.
<mgrwt>
<rscale>  0 0.12500480E+03</rscale>
<asrwt>0</asrwt>
<pdfrwt beam="2">  1        4 0.46959744E-02 0.12500480E+03</pdfrwt>
<pdfrwt beam="1">  1       -4 0.19689784E-01 0.12500480E+03</pdfrwt>
<totfact> 0.97620779E+03</totfact>
</mgrwt>
</event>
<event>
 5    1  0.3304582E-002  0.1249996E+03  0.7818608E-02  0.1235070E+00
          4   -1    0    0  501    0  0.00000000000E+00  0.00000000000E+00  0.51174904531E+02  0.51190660806E+02  0.12700000000E+01 0. -1.
         -4   -1    0    0    0  501 -0.00000000000E+00 -0.00000000000E+00 -0.76298052826E+02  0.76308621826E+02  0.12700000000E+01 0. -1.
         25    2    1    2    0    0  0.00000000000E+00  0.00000000000E+00 -0.25123148294E+02  0.12749928263E+03  0.12499957797E+03 0.  0.
    9000005    1    3    3    0    0 -0.36456580286E+02  0.16640014150E+02  0.36347834899E+02  0.54112266807E+02  0.10000000000E+01 0.  0.
    9000005    1    3    3    0    0  0.36456580286E+02 -0.16640014150E+02 -0.61470983194E+02  0.73387015826E+02  0.10000000000E+01 0.  0.
<mgrwt>
<rscale>  0 0.12499958E+03</rscale>
<asrwt>0</asrwt>
<pdfrwt beam="1">  1        4 0.78750872E-02 0.12499958E+03</pdfrwt>
<pdfrwt beam="2">  1       -4 0.11740187E-01 0.12499958E+03</pdfrwt>
<totfact> 0.10398415E+04</totfact>
</mgrwt>
</event>
<event>
 5    1  0.3304582E-002  0.1249961E+03  0.7818608E-02  0.1235075E+00
          4   -1    0    0  501    0  0.00000000000E+00  0.00000000000E+00  0.31434015527E+02  0.31459660395E+02  0.12700000000E+01 0. -1.
         -4   -1    0    0    0  501 -0.00000000000E+00 -0.00000000000E+00 -0.12418090792E+03  0.12418740191E+03  0.12700000000E+01 0. -1.
         25    2    1    2    0    0  0.00000000000E+00  0.00000000000E+00 -0.92746892397E+02  0.15564706230E+03  0.12499608776E+03 0.  0.
    9000005    1    3    3    0    0 -0.47206137365E+02 -0.34215485776E+02 -0.18366155245E+02  0.61134560850E+02  0.10000000000E+01 0.  0.
    9000005    1    3    3    0    0  0.47206137365E+02  0.34215485776E+02 -0.74380737151E+02  0.94512501454E+02  0.10000000000E+01 0.  0.
<mgrwt>
<rscale>  0 0.12499609E+03</rscale>
<asrwt>0</asrwt>
<pdfrwt beam="1">  1        4 0.48384747E-02 0.12499609E+03</pdfrwt>
<pdfrwt beam="2">  1       -4 0.19107227E-01 0.12499609E+03</pdfrwt>
<totfact> 0.98197261E+03</totfact>
</mgrwt>
</event>
<event>
 5    1  0.3304582E-002  0.1249986E+03  0.7818608E-02  0.1235071E+00
         -4   -1    0    0    0  501 -0.00000000000E+00  0.00000000000E+00  0.46208112221E+02  0.46225561489E+02  0.12700000000E+01 0.  1.
          4   -1    0    0  501    0  0.00000000000E+00 -0.00000000000E+00 -0.84495960380E+02  0.84505504085E+02  0.12700000000E+01 0.  1.
         25    2    1    2    0    0  0.00000000000E+00  0.00000000000E+00 -0.38287848160E+02  0.13073106557E+03  0.12499860875E+03 0.  0.
    9000005    1    3    3    0    0 -0.54360979408E+02 -0.18142971982E+02 -0.45204097029E+02  0.72997903414E+02  0.10000000000E+01 0.  0.
    9000005    1    3    3    0    0  0.54360979408E+02  0.18142971982E+02  0.69162488689E+01  0.57733162160E+02  0.10000000000E+01 0.  0.
<mgrwt>
<rscale>  0 0.12499861E+03</rscale>
<asrwt>0</asrwt>
<pdfrwt beam="2">  1        4 0.13001455E-01 0.12499861E+03</pdfrwt>
<pdfrwt beam="1">  1       -4 0.71110167E-02 0.12499861E+03</pdfrwt>
<totfact> 0.10329182E+04</totfact>
</mgrwt>
</event>
<event>
 5    1  0.3304582E-002  0.1250001E+03  0.7818608E-02  0.1235069E+00
         -4   -1    0    0    0  501 -0.00000000000E+00  0.00000000000E+00  0.11988998353E+02  0.12056076539E+02  0.12700000000E+01 0. -1.
          4   -1    0    0  501    0  0.00000000000E+00 -0.00000000000E+00 -0.32484288914E+03  0.32484537172E+03  0.12700000000E+01 0. -1.
         25    2    1    2    0    0  0.00000000000E+00  0.00000000000E+00 -0.31285389079E+03  0.33690144826E+03  0.12500011542E+03 0.  0.
    9000005    1    3    3    0    0  0.22172800572E+02  0.53539305843E+02 -0.21947219321E+03  0.22699588972E+03  0.10000000000E+01 0.  0.
    9000005    1    3    3    0    0 -0.22172800572E+02 -0.53539305843E+02 -0.93381697577E+02  0.10990555854E+03  0.10000000000E+01 0.  0.
<mgrwt>
<rscale>  0 0.12500012E+03</rscale>
<asrwt>0</asrwt>
<pdfrwt beam="2">  1        4 0.49981173E-01 0.12500012E+03</pdfrwt>
<pdfrwt beam="1">  1       -4 0.18498124E-02 0.12500012E+03</pdfrwt>
<totfact> 0.71189830E+03</totfact>
</mgrwt>
</event>
<event>
 5    1  0.3304582E-002  0.1249996E+03  0.7818608E-02  0.1235070E+00
         -4   -1    0    0    0  501 -0.00000000000E+00  0.00000000000E+00  0.11971376172E+03  0.11972049802E+03  0.12700000000E+01 0.  1.
          4   -1    0    0  501    0  0.00000000000E+00 -0.00000000000E+00 -0.32609696967E+02  0.32634417970E+02  0.12700000000E+01 0.  1.
         25    2    1    2    0    0  0.00000000000E+00  0.00000000000E+00  0.87104064754E+02  0.15235491599E+03  0.12499960931E+03 0.  0.
    9000005    1    3    3    0    0 -0.49949483417E+02 -0.27646775310E+01 -0.20957381576E+01  0.50079800857E+02  0.10000000000E+01 0.  0.
    9000005    1    3    3    0    0  0.49949483417E+02  0.27646775310E+01  0.89199802911E+02  0.10227511513E+03  0.10000000000E+01 0.  0.
<mgrwt>
<rscale>  0 0.12499961E+03</rscale>
<asrwt>0</asrwt>
<pdfrwt beam="2">  1        4 0.50192964E-02 0.12499961E+03</pdfrwt>
<pdfrwt beam="1">  1       -4 0.18419921E-01 0.12499961E+03</pdfrwt>
<totfact> 0.98837205E+03</totfact>
</mgrwt>
</event>
<event>
 5    1  0.3304582E-002  0.1249983E+03  0.7818608E-02  0.1235072E+00
          4   -1    0    0  501    0  0.00000000000E+00  0.00000000000E+00  0.11771217115E+02  0.11839529229E+02  0.12700000000E+01 0.  1.
         -4   -1    0    0    0  501 -0.00000000000E+00 -0.00000000000E+00 -0.33080902380E+03  0.33081146160E+03  0.12700000000E+01 0.  1.
         25    2    1    2    0    0  0.00000000000E+00  0.00000000000E+00 -0.31903780669E+03  0.34265099083E+03  0.12499831768E+03 0.  0.
    9000005    1    3    3    0    0  0.20949436185E+02  0.58327308028E+02 -0.13755622544E+03  0.15087633644E+03  0.10000000000E+01 0.  0.
    9000005    1    3    3    0    0 -0.20949436185E+02 -0.58327308028E+02 -0.18148158124E+03  0.19177465440E+03  0.10000000000E+01 0.  0.
<mgrwt>
<rscale>  0 0.12499832E+03</rscale>
<asrwt>0</asrwt>
<pdfrwt beam="1">  1        4 0.18163990E-02 0.12499832E+03</pdfrwt>
<pdfrwt beam="2">  1       -4 0.50899131E-01 0.12499832E+03</pdfrwt>
<totfact> 0.70543306E+03</totfact>
</mgrwt>
</event>
<event>
 5    1  0.3304582E-002  0.1250005E+03  0.7818608E-02  0.1235069E+00
          4   -1    0    0  501    0  0.00000000000E+00  0.00000000000E+00  0.25480026170E+03  0.25480342671E+03  0.12700000000E+01 0.  1.
         -4   -1    0    0    0  501 -0.00000000000E+00 -0.00000000000E+00 -0.15301188839E+02  0.15353803434E+02  0.12700000000E+01 0.  1.
         25    2    1    2    0    0  0.00000000000E+00  0.00000000000E+00  0.23949907286E+03  0.27015723014E+03  0.12500049239E+03 0.  0.
    9000005    1    3    3    0    0 -0.62195723032E+02 -0.41436152160E+01  0.12936728141E+03  0.14360491290E+03  0.10000000000E+01 0.  0.
    9000005    1    3    3    0    0  0.62195723032E+02  0.41436152160E+01  0.11013179145E+03  0.12655231724E+03  0.10000000000E+01 0.  0.
<mgrwt>
<rscale>  0 0.12500049E+03</rscale>
<asrwt>0</asrwt>
<pdfrwt beam="1">  1        4 0.39204332E-01 0.12500049E+03</pdfrwt>
<pdfrwt beam="2">  1       -4 0.23583197E-02 0.12500049E+03</pdfrwt>
<totfact> 0.79500563E+03</totfact>
</mgrwt>
</event>
<event>
 5    1  0.3304582E-002  0.1249996E+03  0.7818608E-02  0.1235070E+00
         -4   -1    0    0    0  501 -0.00000000000E+00  0.00000000000E+00  0.11693129458E+04  0.11693136355E+04  0.12700000000E+01 0.  1.
          4   -1    0    0  501    0  0.00000000000E+00 -0.00000000000E+00 -0.32191969141E+01  0.34606543849E+01  0.12700000000E+01 0.  1.
         25    2    1    2    0    0  0.00000000000E+00  0.00000000000E+00  0.11660937489E+04  0.11727742899E+04  0.12499961509E+03 0.  0.
    9000005    1    3    3    0    0  0.36914915178E+02  0.26974960814E+02  0.18335244145E+03  0.18896951410E+03  0.10000000000E+01 0.  0.
    9000005    1    3    3    0    0 -0.36914915178E+02 -0.26974960814E+02  0.98274130745E+03  0.98380477578E+03  0.10000000000E+01 0.  0.
<mgrwt>
<rscale>  0 0.12499962E+03</rscale>
<asrwt>0</asrwt>
<pdfrwt beam="2">  1        4 0.51388774E-03 0.12499962E+03</pdfrwt>
<pdfrwt beam="1">  1       -4 0.17991294E+00 0.12499962E+03</pdfrwt>
<totfact> 0.25436920E+03</totfact>
</mgrwt>
</event>
<event>
 5    1  0.3304582E-002  0.1249984E+03  0.7818608E-02  0.1235072E+00
          4   -1    0    0  501    0  0.00000000000E+00  0.00000000000E+00  0.13885032445E+03  0.13885613238E+03  0.12700000000E+01 0. -1.
         -4   -1    0    0    0  501 -0.00000000000E+00 -0.00000000000E+00 -0.28111351432E+02  0.28140024508E+02  0.12700000000E+01 0. -1.
         25    2    1    2    0    0  0.00000000000E+00  0.00000000000E+00  0.11073897302E+03  0.16699615689E+03  0.12499838507E+03 0.  0.
    9000005    1    3    3    0    0  0.56482312629E+02  0.39151770978E+01  0.90705479139E+02  0.10693018375E+03  0.10000000000E+01 0.  0.
    9000005    1    3    3    0    0 -0.56482312629E+02 -0.39151770978E+01  0.20033493877E+02  0.60065973134E+02  0.10000000000E+01 0.  0.
<mgrwt>
<rscale>  0 0.12499839E+03</rscale>
<asrwt>0</asrwt>
<pdfrwt beam="1">  1        4 0.21364241E-01 0.12499839E+03</pdfrwt>
<pdfrwt beam="2">  1       -4 0.43274757E-02 0.12499839E+03</pdfrwt>
<totfact> 0.96014164E+03</totfact>
</mgrwt>
</event>
<event>
 5    1  0.3304582E-002  0.1249947E+03  0.7818608E-02  0.1235078E+00
          4   -1    0    0  501    0  0.00000000000E+00  0.00000000000E+00  0.12575005514E+02  0.12638973996E+02  0.12700000000E+01 0.  1.
         -4   -1    0    0    0  501 -0.00000000000E+00 -0.00000000000E+00 -0.30975620934E+03  0.30975881283E+03  0.12700000000E+01 0.  1.
         25    2    1    2    0    0  0.00000000000E+00  0.00000000000E+00 -0.29718120382E+03  0.32239778682E+03  0.12499466005E+03 0.  0.
    9000005    1    3    3    0    0  0.54217529294E+02  0.57517227058E+01 -0.22734537994E+03  0.23379380782E+03  0.10000000000E+01 0.  0.
    9000005    1    3    3    0    0 -0.54217529294E+02 -0.57517227058E+01 -0.69835823886E+02  0.88603979000E+02  0.10000000000E+01 0.  0.
<mgrwt>
<rscale>  0 0.12499466E+03</rscale>
<asrwt>0</asrwt>
<pdfrwt beam="1">  1        4 0.19397374E-02 0.12499466E+03</pdfrwt>
<pdfrwt beam="2">  1       -4 0.47659917E-01 0.12499466E+03</pdfrwt>
<totfact> 0.72880473E+03</totfact>
</mgrwt>
</event>
<event>
 5    1  0.3304582E-002  0.1250000E+03  0.7818608E-02  0.1235069E+00
          4   -1    0    0  501    0  0.00000000000E+00  0.00000000000E+00  0.17295719286E+03  0.17296185551E+03  0.12700000000E+01 0. -1.
         -4   -1    0    0    0  501 -0.00000000000E+00 -0.00000000000E+00 -0.22562246688E+02  0.22597961757E+02  0.12700000000E+01 0. -1.
         25    2    1    2    0    0  0.00000000000E+00  0.00000000000E+00  0.15039494617E+03  0.19555981727E+03  0.12500000918E+03 0.  0.
    9000005    1    3    3    0    0  0.57221165363E+02 -0.24586045385E+02  0.67141521009E+02  0.91584492336E+02  0.10000000000E+01 0.  0.
    9000005    1    3    3    0    0 -0.57221165363E+02  0.24586045385E+02  0.83253425161E+02  0.10397532493E+03  0.10000000000E+01 0.  0.
<mgrwt>
<rscale>  0 0.12500001E+03</rscale>
<asrwt>0</asrwt>
<pdfrwt beam="1">  1        4 0.26611904E-01 0.12500001E+03</pdfrwt>
<pdfrwt beam="2">  1       -4 0.34742210E-02 0.12500001E+03</pdfrwt>
<totfact> 0.90888805E+03</totfact>
</mgrwt>
</event>
<event>
 5    1  0.3304582E-002  0.1249966E+03  0.7818608E-02  0.1235075E+00
         -4   -1    0    0    0  501 -0.00000000000E+00  0.00000000000E+00  0.36232542678E+02  0.36254793461E+02  0.12700000000E+01 0. -1.
          4   -1    0    0  501    0  0.00000000000E+00 -0.00000000000E+00 -0.10774552080E+03  0.10775300530E+03  0.12700000000E+01 0. -1.
         25    2    1    2    0    0  0.00000000000E+00  0.00000000000E+00 -0.71512978121E+02  0.14400779877E+03  0.12499656021E+03 0.  0.
    9000005    1    3    3    0    0 -0.16652197600E+02 -0.56179736694E+02 -0.60775148489E+02  0.84427940717E+02  0.10000000000E+01 0.  0.
    9000005    1    3    3    0    0  0.16652197600E+02  0.56179736694E+02 -0.10737829632E+02  0.59579858048E+02  0.10000000000E+01 0.  0.
<mgrwt>
<rscale>  0 0.12499656E+03</rscale>
<asrwt>0</asrwt>
<pdfrwt beam="2">  1        4 0.16578521E-01 0.12499656E+03</pdfrwt>
<pdfrwt beam="1">  1       -4 0.55765247E-02 0.12499656E+03</pdfrwt>
<totfact> 0.10051965E+04</totfact>
</mgrwt>
</event>
<event>
 5    1  0.3304582E-002  0.1250068E+03  0.7818608E-02  0.1235059E+00
         -4   -1    0    0    0  501 -0.00000000000E+00  0.00000000000E+00  0.18378726578E+03  0.18379165368E+03  0.12700000000E+01 0. -1.
          4   -1    0    0  501    0  0.00000000000E+00 -0.00000000000E+00 -0.21232891251E+02  0.21270838509E+02  0.12700000000E+01 0. -1.
         25    2    1    2    0    0  0.00000000000E+00  0.00000000000E+00  0.16255437453E+03  0.20506249219E+03  0.12500680391E+03 0.  0.
    9000005    1    3    3    0    0  0.61943697077E+02  0.58067315688E+01  0.71581331023E+02  0.94845277637E+02  0.10000000000E+01 0.  0.
    9000005    1    3    3    0    0 -0.61943697077E+02 -0.58067315688E+01  0.90973043504E+02  0.11021721455E+03  0.10000000000E+01 0.  0.
<mgrwt>
<rscale>  0 0.12500680E+03</rscale>
<asrwt>0</asrwt>
<pdfrwt beam="2">  1        4 0.32698553E-02 0.12500680E+03</pdfrwt>
<pdfrwt beam="1">  1       -4 0.28278220E-01 0.12500680E+03</pdfrwt>
<totfact> 0.89275056E+03</totfact>
</mgrwt>
</event>
<event>
 5    1  0.3304582E-002  0.1249998E+03  0.7818608E-02  0.1235070E+00
          4   -1    0    0  501    0  0.00000000000E+00  0.00000000000E+00  0.23148837562E+03  0.23149185935E+03  0.12700000000E+01 0.  1.
         -4   -1    0    0    0  501 -0.00000000000E+00 -0.00000000000E+00 -0.16846938591E+02  0.16894740006E+02  0.12700000000E+01 0.  1.
         25    2    1    2    0    0  0.00000000000E+00  0.00000000000E+00  0.21464143703E+03  0.24838659936E+03  0.12499982501E+03 0.  0.
    9000005    1    3    3    0    0 -0.15956743984E+02  0.35893422524E+02  0.20390017887E+03  0.20765172381E+03  0.10000000000E+01 0.  0.
    9000005    1    3    3    0    0  0.15956743984E+02 -0.35893422524E+02  0.10741258159E+02  0.40734875548E+02  0.10000000000E+01 0.  0.
<mgrwt>
<rscale>  0 0.12499983E+03</rscale>
<asrwt>0</asrwt>
<pdfrwt beam="1">  1        4 0.35617539E-01 0.12499983E+03</pdfrwt>
<pdfrwt beam="2">  1       -4 0.25957819E-02 0.12499983E+03</pdfrwt>
<totfact> 0.82564297E+03</totfact>
</mgrwt>
</event>
<event>
 5    1  0.3304582E-002  0.1249924E+03  0.7818608E-02  0.1235081E+00
         -4   -1    0    0    0  501 -0.00000000000E+00  0.00000000000E+00  0.32278348723E+03  0.32278598565E+03  0.12700000000E+01 0.  1.
          4   -1    0    0  501    0  0.00000000000E+00 -0.00000000000E+00 -0.12064414434E+02  0.12131075617E+02  0.12700000000E+01 0.  1.
         25    2    1    2    0    0  0.00000000000E+00  0.00000000000E+00  0.31071907280E+03  0.33491706126E+03  0.12499238267E+03 0.  0.
    9000005    1    3    3    0    0 -0.86508353387E+01  0.63112341082E+00  0.32117573485E+03  0.32129439448E+03  0.10000000000E+01 0.  0.
    9000005    1    3    3    0    0  0.86508353387E+01 -0.63112341082E+00 -0.10456662056E+02  0.13622666779E+02  0.10000000000E+01 0.  0.
<mgrwt>
<rscale>  0 0.12499238E+03</rscale>
<asrwt>0</asrwt>
<pdfrwt beam="2">  1        4 0.18613835E-02 0.12499238E+03</pdfrwt>
<pdfrwt beam="1">  1       -4 0.49664324E-01 0.12499238E+03</pdfrwt>
<totfact> 0.71428416E+03</totfact>
</mgrwt>
</event>
<event>
 5    1  0.3304582E-002  0.1249878E+03  0.7818608E-02  0.1235088E+00
          4   -1    0    0  501    0  0.00000000000E+00  0.00000000000E+00  0.22692998815E+02  0.22728508425E+02  0.12700000000E+01 0.  1.
         -4   -1    0    0    0  501 -0.00000000000E+00 -0.00000000000E+00 -0.17192860851E+03  0.17193329906E+03  0.12700000000E+01 0.  1.
         25    2    1    2    0    0  0.00000000000E+00  0.00000000000E+00 -0.14923560969E+03  0.19466180748E+03  0.12498780777E+03 0.  0.
    9000005    1    3    3    0    0 -0.34084421974E+02  0.24937500835E+02 -0.28930240310E+01  0.42343787706E+02  0.10000000000E+01 0.  0.
    9000005    1    3    3    0    0  0.34084421974E+02 -0.24937500835E+02 -0.14634258566E+03  0.15231801977E+03  0.10000000000E+01 0.  0.
<mgrwt>
<rscale>  0 0.12498781E+03</rscale>
<asrwt>0</asrwt>
<pdfrwt beam="1">  1        4 0.34943230E-02 0.12498781E+03</pdfrwt>
<pdfrwt beam="2">  1       -4 0.26453647E-01 0.12498781E+03</pdfrwt>
<totfact> 0.91067301E+03</totfact>
</mgrwt>
</event>
<event>
 5    1  0.3304582E-002  0.1250036E+03  0.7818608E-02  0.1235064E+00
          4   -1    0    0  501    0  0.00000000000E+00  0.00000000000E+00  0.16073961937E+03  0.16074463641E+03  0.12700000000E+01 0.  1.
         -4   -1    0    0    0  501 -0.00000000000E+00 -0.00000000000E+00 -0.24281134597E+02  0.24314324941E+02  0.12700000000E+01 0.  1.
         25    2    1    2    0    0  0.00000000000E+00  0.00000000000E+00  0.13645848477E+03  0.18505896135E+03  0.12500360439E+03 0.  0.
    9000005    1    3    3    0    0  0.29925531474E+02  0.11547522157E+02  0.14763038684E+03  0.15107817122E+03  0.10000000000E+01 0.  0.
    9000005    1    3    3    0    0 -0.29925531474E+02 -0.11547522157E+02 -0.11171902067E+02  0.33980790129E+02  0.10000000000E+01 0.  0.
<mgrwt>
<rscale>  0 0.12500360E+03</rscale>
<asrwt>0</asrwt>
<pdfrwt beam="1">  1        4 0.24732111E-01 0.12500360E+03</pdfrwt>
<pdfrwt beam="2">  1       -4 0.37384982E-02 0.12500360E+03</pdfrwt>
<totfact> 0.92706729E+03</totfact>
</mgrwt>
</event>
<event>
 5    1  0.3304582E-002  0.1250594E+03  0.7818608E-02  0.1234977E+00
         -4   -1    0    0    0  501 -0.00000000000E+00  0.00000000000E+00  0.86442573634E+02  0.86451902446E+02  0.12700000000E+01 0. -1.
          4   -1    0    0  501    0  0.00000000000E+00 -0.00000000000E+00 -0.45211198595E+02  0.45229032473E+02  0.12700000000E+01 0. -1.
         25    2    1    2    0    0  0.00000000000E+00  0.00000000000E+00  0.41231375039E+02  0.13168093492E+03  0.12505935524E+03 0.  0.
    9000005    1    3    3    0    0 -0.24870354526E+02  0.57349318573E+02  0.19333982518E+02  0.65439145433E+02  0.10000000000E+01 0.  0.
    9000005    1    3    3    0    0  0.24870354526E+02 -0.57349318573E+02  0.21897392520E+02  0.66241789485E+02  0.10000000000E+01 0.  0.
<mgrwt>
<rscale>  0 0.12505936E+03</rscale>
<asrwt>0</asrwt>
<pdfrwt beam="2">  1        4 0.69576586E-02 0.12505936E+03</pdfrwt>
<pdfrwt beam="1">  1       -4 0.13300947E-01 0.12505936E+03</pdfrwt>
<totfact> 0.10294722E+04</totfact>
</mgrwt>
</event>
<event>
 5    1  0.3304582E-002  0.1250012E+03  0.7818608E-02  0.1235067E+00
         -4   -1    0    0    0  501 -0.00000000000E+00  0.00000000000E+00  0.15374695781E+02  0.15427059679E+02  0.12700000000E+01 0. -1.
          4   -1    0    0  501    0  0.00000000000E+00 -0.00000000000E+00 -0.25358893737E+03  0.25359211749E+03  0.12700000000E+01 0. -1.
         25    2    1    2    0    0  0.00000000000E+00  0.00000000000E+00 -0.23821424158E+03  0.26901917717E+03  0.12500117116E+03 0.  0.
    9000005    1    3    3    0    0 -0.29973911148E+02 -0.45131803924E+02 -0.18613521071E+03  0.19386240414E+03  0.10000000000E+01 0.  0.
    9000005    1    3    3    0    0  0.29973911148E+02  0.45131803924E+02 -0.52079030878E+02  0.75156773030E+02  0.10000000000E+01 0.  0.
<mgrwt>
<rscale>  0 0.12500117E+03</rscale>
<asrwt>0</asrwt>
<pdfrwt beam="2">  1        4 0.39017952E-01 0.12500117E+03</pdfrwt>
<pdfrwt beam="1">  1       -4 0.23696106E-02 0.12500117E+03</pdfrwt>
<totfact> 0.79654701E+03</totfact>
</mgrwt>
</event>
<event>
 5    1  0.3304582E-002  0.1250018E+03  0.7818608E-02  0.1235067E+00
          4   -1    0    0  501    0  0.00000000000E+00  0.00000000000E+00  0.25877868597E+03  0.25878180232E+03  0.12700000000E+01 0.  1.
         -4   -1    0    0    0  501 -0.00000000000E+00 -0.00000000000E+00 -0.15065442666E+02  0.15118877694E+02  0.12700000000E+01 0.  1.
         25    2    1    2    0    0  0.00000000000E+00  0.00000000000E+00  0.24371324330E+03  0.27390068001E+03  0.12500175019E+03 0.  0.
    9000005    1    3    3    0    0 -0.12650046272E+02  0.38943234397E+01  0.25568287732E+03  0.25602719226E+03  0.10000000000E+01 0.  0.
    9000005    1    3    3    0    0  0.12650046272E+02 -0.38943234397E+01 -0.11969634016E+02  0.17873487746E+02  0.10000000000E+01 0.  0.
<mgrwt>
<rscale>  0 0.12500175E+03</rscale>
<asrwt>0</asrwt>
<pdfrwt beam="1">  1        4 0.39816456E-01 0.12500175E+03</pdfrwt>
<pdfrwt beam="2">  1       -4 0.23221105E-02 0.12500175E+03</pdfrwt>
<totfact> 0.78990768E+03</totfact>
</mgrwt>
</event>
<event>
 5    1  0.3304582E-002  0.1250009E+03  0.7818608E-02  0.1235068E+00
         -4   -1    0    0    0  501 -0.00000000000E+00  0.00000000000E+00  0.16470825046E+02  0.16519714819E+02  0.12700000000E+01 0.  1.
          4   -1    0    0  501    0  0.00000000000E+00 -0.00000000000E+00 -0.23676307812E+03  0.23676648424E+03  0.12700000000E+01 0.  1.
         25    2    1    2    0    0  0.00000000000E+00  0.00000000000E+00 -0.22029225307E+03  0.25328619906E+03  0.12500088748E+03 0.  0.
    9000005    1    3    3    0    0 -0.38937481738E+02 -0.44271236235E+02 -0.15212650124E+03  0.16315496382E+03  0.10000000000E+01 0.  0.
    9000005    1    3    3    0    0  0.38937481738E+02  0.44271236235E+02 -0.68165751837E+02  0.90131235237E+02  0.10000000000E+01 0.  0.
<mgrwt>
<rscale>  0 0.12500089E+03</rscale>
<asrwt>0</asrwt>
<pdfrwt beam="2">  1        4 0.36429109E-01 0.12500089E+03</pdfrwt>
<pdfrwt beam="1">  1       -4 0.25379960E-02 0.12500089E+03</pdfrwt>
<totfact> 0.81855961E+03</totfact>
</mgrwt>
</event>
<event>
 5    1  0.3304582E-002  0.1249927E+03  0.7818608E-02  0.1235081E+00
         -4   -1    0    0    0  501 -0.00000000000E+00  0.00000000000E+00  0.10142054934E+03  0.10142850058E+03  0.12700000000E+01 0.  1.
          4   -1    0    0  501    0  0.00000000000E+00 -0.00000000000E+00 -0.38490918169E+02  0.38511864165E+02  0.12700000000E+01 0.  1.
         25    2    1    2    0    0  0.00000000000E+00  0.00000000000E+00  0.62929631175E+02  0.13994036474E+03  0.12499266860E+03 0.  0.
    9000005    1    3    3    0    0  0.29703507545E+02  0.52273533394E+02  0.50529773657E+02  0.78543482733E+02  0.10000000000E+01 0.  0.
    9000005    1    3    3    0    0 -0.29703507545E+02 -0.52273533394E+02  0.12399857518E+02  0.61396882009E+02  0.10000000000E+01 0.  0.
<mgrwt>
<rscale>  0 0.12499267E+03</rscale>
<asrwt>0</asrwt>
<pdfrwt beam="2">  1        4 0.59239026E-02 0.12499267E+03</pdfrwt>
<pdfrwt beam="1">  1       -4 0.15605384E-01 0.12499267E+03</pdfrwt>
<totfact> 0.10136496E+04</totfact>
</mgrwt>
</event>
<event>
 5    1  0.3304582E-002  0.1249995E+03  0.7818608E-02  0.1235070E+00
         -4   -1    0    0    0  501 -0.00000000000E+00  0.00000000000E+00  0.78378423966E+02  0.78388712474E+02  0.12700000000E+01 0.  1.
          4   -1    0    0  501    0  0.00000000000E+00 -0.00000000000E+00 -0.49816313976E+02  0.49832499818E+02  0.12700000000E+01 0.  1.
         25    2    1    2    0    0  0.00000000000E+00  0.00000000000E+00  0.28562109990E+02  0.12822121229E+03  0.12499954062E+03 0.  0.
    9000005    1    3    3    0    0  0.28505798742E+02 -0.45837578287E+02  0.46581636098E+02  0.71305770922E+02  0.10000000000E+01 0.  0.
    9000005    1    3    3    0    0 -0.28505798742E+02  0.45837578287E+02 -0.18019526108E+02  0.56915441370E+02  0.10000000000E+01 0.  0.
<mgrwt>
<rscale>  0 0.12499954E+03</rscale>
<asrwt>0</asrwt>
<pdfrwt beam="2">  1        4 0.76660849E-02 0.12499954E+03</pdfrwt>
<pdfrwt beam="1">  1       -4 0.12060255E-01 0.12499954E+03</pdfrwt>
<totfact> 0.10382821E+04</totfact>
</mgrwt>
</event>
<event>
 5    1  0.3304582E-002  0.1250172E+03  0.7818608E-02  0.1235042E+00
         -4   -1    0    0    0  501 -0.00000000000E+00  0.00000000000E+00  0.24268669413E+02  0.24301876781E+02  0.12700000000E+01 0.  1.
          4   -1    0    0  501    0  0.00000000000E+00 -0.00000000000E+00 -0.16085710438E+03  0.16086211775E+03  0.12700000000E+01 0.  1.
         25    2    1    2    0    0  0.00000000000E+00  0.00000000000E+00 -0.13658843496E+03  0.18516399454E+03  0.12501721604E+03 0.  0.
    9000005    1    3    3    0    0  0.10636072377E+02  0.14366961943E+02  0.20409070825E+02  0.27148955837E+02  0.10000000000E+01 0.  0.
    9000005    1    3    3    0    0 -0.10636072377E+02 -0.14366961943E+02 -0.15699750579E+03  0.15801503870E+03  0.10000000000E+01 0.  0.
<mgrwt>
<rscale>  0 0.12501722E+03</rscale>
<asrwt>0</asrwt>
<pdfrwt beam="2">  1        4 0.24750186E-01 0.12501722E+03</pdfrwt>
<pdfrwt beam="1">  1       -4 0.37365816E-02 0.12501722E+03</pdfrwt>
<totfact> 0.92659885E+03</totfact>
</mgrwt>
</event>
<event>
 5    1  0.3304582E-002  0.1249996E+03  0.7818608E-02  0.1235070E+00
         -4   -1    0    0    0  501 -0.00000000000E+00  0.00000000000E+00  0.47749510763E+03  0.47749679655E+03  0.12700000000E+01 0.  1.
          4   -1    0    0  501    0  0.00000000000E+00 -0.00000000000E+00 -0.81296514891E+01  0.82282521434E+01  0.12700000000E+01 0.  1.
         25    2    1    2    0    0  0.00000000000E+00  0.00000000000E+00  0.46936545614E+03  0.48572504869E+03  0.12499956602E+03 0.  0.
    9000005    1    3    3    0    0 -0.34379176083E+01 -0.35731955838E+02  0.35911632844E+02  0.50786192208E+02  0.10000000000E+01 0.  0.
    9000005    1    3    3    0    0  0.34379176083E+01  0.35731955838E+02  0.43345382330E+03  0.43493885648E+03  0.10000000000E+01 0.  0.
<mgrwt>
<rscale>  0 0.12499957E+03</rscale>
<asrwt>0</asrwt>
<pdfrwt beam="2">  1        4 0.12584301E-02 0.12499957E+03</pdfrwt>
<pdfrwt beam="1">  1       -4 0.73468506E-01 0.12499957E+03</pdfrwt>
<totfact> 0.56989730E+03</totfact>
</mgrwt>
</event>
<event>
 5    1  0.3304582E-002  0.1250002E+03  0.7818608E-02  0.1235069E+00
         -4   -1    0    0    0  501 -0.00000000000E+00  0.00000000000E+00  0.70545078132E+02  0.70556508904E+02  0.12700000000E+01 0.  1.
          4   -1    0    0  501    0  0.00000000000E+00 -0.00000000000E+00 -0.55349390751E+02  0.55363959003E+02  0.12700000000E+01 0.  1.
         25    2    1    2    0    0  0.00000000000E+00  0.00000000000E+00  0.15195687382E+02  0.12592046791E+03  0.12500022129E+03 0.  0.
    9000005    1    3    3    0    0 -0.56244677348E+02  0.12523111429E+02 -0.16766403949E+02  0.60020032916E+02  0.10000000000E+01 0.  0.
    9000005    1    3    3    0    0  0.56244677348E+02 -0.12523111429E+02  0.31962091330E+02  0.65900434991E+02  0.10000000000E+01 0.  0.
<mgrwt>
<rscale>  0 0.12500022E+03</rscale>
<asrwt>0</asrwt>
<pdfrwt beam="2">  1        4 0.85172908E-02 0.12500022E+03</pdfrwt>
<pdfrwt beam="1">  1       -4 0.10855089E-01 0.12500022E+03</pdfrwt>
<totfact> 0.10432649E+04</totfact>
</mgrwt>
</event>
<event>
 5    1  0.3304582E-002  0.1250013E+03  0.7818608E-02  0.1235067E+00
         -4   -1    0    0    0  501 -0.00000000000E+00  0.00000000000E+00  0.79743287944E+02  0.79753400380E+02  0.12700000000E+01 0.  1.
          4   -1    0    0  501    0  0.00000000000E+00 -0.00000000000E+00 -0.48964873976E+02  0.48981341177E+02  0.12700000000E+01 0.  1.
         25    2    1    2    0    0  0.00000000000E+00  0.00000000000E+00  0.30778413969E+02  0.12873474156E+03  0.12500129166E+03 0.  0.
    9000005    1    3    3    0    0 -0.16489482789E+02  0.21761796993E+02  0.73280683630E+02  0.78208295240E+02  0.10000000000E+01 0.  0.
    9000005    1    3    3    0    0  0.16489482789E+02 -0.21761796993E+02 -0.42502269661E+02  0.50526446317E+02  0.10000000000E+01 0.  0.
<mgrwt>
<rscale>  0 0.12500129E+03</rscale>
<asrwt>0</asrwt>
<pdfrwt beam="2">  1        4 0.75351022E-02 0.12500129E+03</pdfrwt>
<pdfrwt beam="1">  1       -4 0.12270243E-01 0.12500129E+03</pdfrwt>
<totfact> 0.10371348E+04</totfact>
</mgrwt>
</event>
<event>
 5    1  0.3304582E-002  0.1250017E+03  0.7818608E-02  0.1235067E+00
         -4   -1    0    0    0  501 -0.00000000000E+00  0.00000000000E+00  0.49570348595E+02  0.49586614725E+02  0.12700000000E+01 0. -1.
          4   -1    0    0  501    0  0.00000000000E+00 -0.00000000000E+00 -0.78770038610E+02  0.78780275975E+02  0.12700000000E+01 0. -1.
         25    2    1    2    0    0  0.00000000000E+00  0.00000000000E+00 -0.29199690015E+02  0.12836689070E+03  0.12500174691E+03 0.  0.
    9000005    1    3    3    0    0  0.41628942208E+02  0.63639352885E+01 -0.62015243527E+02  0.74969053158E+02  0.10000000000E+01 0.  0.
    9000005    1    3    3    0    0 -0.41628942208E+02 -0.63639352885E+01  0.32815553512E+02  0.53397837541E+02  0.10000000000E+01 0.  0.
<mgrwt>
<rscale>  0 0.12500175E+03</rscale>
<asrwt>0</asrwt>
<pdfrwt beam="2">  1        4 0.12120506E-01 0.12500175E+03</pdfrwt>
<pdfrwt beam="1">  1       -4 0.76282462E-02 0.12500175E+03</pdfrwt>
<totfact> 0.10379163E+04</totfact>
</mgrwt>
</event>
<event>
 5    1  0.3304582E-002  0.1249995E+03  0.7818608E-02  0.1235070E+00
          4   -1    0    0  501    0  0.00000000000E+00  0.00000000000E+00  0.13182522987E+03  0.13183134730E+03  0.12700000000E+01 0. -1.
         -4   -1    0    0    0  501 -0.00000000000E+00 -0.00000000000E+00 -0.29611386942E+02  0.29638608885E+02  0.12700000000E+01 0. -1.
         25    2    1    2    0    0  0.00000000000E+00  0.00000000000E+00  0.10221384293E+03  0.16146995619E+03  0.12499950826E+03 0.  0.
    9000005    1    3    3    0    0 -0.20636845307E+02 -0.56673437973E+02  0.29981085338E+02  0.67361884133E+02  0.10000000000E+01 0.  0.
    9000005    1    3    3    0    0  0.20636845307E+02  0.56673437973E+02  0.72232757593E+02  0.94108072053E+02  0.10000000000E+01 0.  0.
<mgrwt>
<rscale>  0 0.12499951E+03</rscale>
<asrwt>0</asrwt>
<pdfrwt beam="1">  1        4 0.20283369E-01 0.12499951E+03</pdfrwt>
<pdfrwt beam="2">  1       -4 0.45581626E-02 0.12499951E+03</pdfrwt>
<totfact> 0.97061208E+03</totfact>
</mgrwt>
</event>
<event>
 5    1  0.3304582E-002  0.1249949E+03  0.7818608E-02  0.1235077E+00
         -4   -1    0    0    0  501 -0.00000000000E+00  0.00000000000E+00  0.21947226656E+02  0.21983940909E+02  0.12700000000E+01 0.  1.
          4   -1    0    0  501    0  0.00000000000E+00 -0.00000000000E+00 -0.17778152804E+03  0.17778606416E+03  0.12700000000E+01 0.  1.
         25    2    1    2    0    0  0.00000000000E+00  0.00000000000E+00 -0.15583430138E+03  0.19977000507E+03  0.12499490166E+03 0.  0.
    9000005    1    3    3    0    0 -0.33601383524E+02  0.52495478598E+02 -0.85083032309E+02  0.10547488153E+03  0.10000000000E+01 0.  0.
    9000005    1    3    3    0    0  0.33601383524E+02 -0.52495478598E+02 -0.70751269072E+02  0.94295123539E+02  0.10000000000E+01 0.  0.
<mgrwt>
<rscale>  0 0.12499490E+03</rscale>
<asrwt>0</asrwt>
<pdfrwt beam="2">  1        4 0.27354176E-01 0.12499490E+03</pdfrwt>
<pdfrwt beam="1">  1       -4 0.33796696E-02 0.12499490E+03</pdfrwt>
<totfact> 0.90184600E+03</totfact>
</mgrwt>
</event>
<event>
 5    1  0.3304582E-002  0.1249957E+03  0.7818608E-02  0.1235076E+00
         -4   -1    0    0    0  501 -0.00000000000E+00  0.00000000000E+00  0.49034645460E+03  0.49034809926E+03  0.12700000000E+01 0. -1.
          4   -1    0    0  501    0  0.00000000000E+00 -0.00000000000E+00 -0.79134659085E+01  0.80147266132E+01  0.12700000000E+01 0. -1.
         25    2    1    2    0    0  0.00000000000E+00  0.00000000000E+00  0.48243298870E+03  0.49836282587E+03  0.12499567043E+03 0.  0.
    9000005    1    3    3    0    0 -0.46498246526E+02  0.27470839740E+02  0.11587840238E+03  0.12784966994E+03  0.10000000000E+01 0.  0.
    9000005    1    3    3    0    0  0.46498246526E+02 -0.27470839740E+02  0.36655458631E+03  0.37051315592E+03  0.10000000000E+01 0.  0.
<mgrwt>
<rscale>  0 0.12499567E+03</rscale>
<asrwt>0</asrwt>
<pdfrwt beam="2">  1        4 0.12253722E-02 0.12499567E+03</pdfrwt>
<pdfrwt beam="1">  1       -4 0.75445823E-01 0.12499567E+03</pdfrwt>
<totfact> 0.55996949E+03</totfact>
</mgrwt>
</event>
<event>
 5    1  0.3304582E-002  0.1250107E+03  0.7818608E-02  0.1235053E+00
          4   -1    0    0  501    0  0.00000000000E+00  0.00000000000E+00  0.20895622856E+02  0.20934181488E+02  0.12700000000E+01 0. -1.
         -4   -1    0    0    0  501 -0.00000000000E+00 -0.00000000000E+00 -0.18675991366E+03  0.18676423172E+03  0.12700000000E+01 0. -1.
         25    2    1    2    0    0  0.00000000000E+00  0.00000000000E+00 -0.16586429080E+03  0.20769841321E+03  0.12501067109E+03 0.  0.
    9000005    1    3    3    0    0 -0.38872749638E+01  0.42608769923E+02 -0.15862003717E+03  0.16429222250E+03  0.10000000000E+01 0.  0.
    9000005    1    3    3    0    0  0.38872749638E+01 -0.42608769923E+02 -0.72442536270E+01  0.43406190706E+02  0.10000000000E+01 0.  0.
<mgrwt>
<rscale>  0 0.12501067E+03</rscale>
<asrwt>0</asrwt>
<pdfrwt beam="1">  1        4 0.32180096E-02 0.12501067E+03</pdfrwt>
<pdfrwt beam="2">  1       -4 0.28735591E-01 0.12501067E+03</pdfrwt>
<totfact> 0.88831947E+03</totfact>
</mgrwt>
</event>
<event>
 5    1  0.3304582E-002  0.1250015E+03  0.7818608E-02  0.1235067E+00
          4   -1    0    0  501    0  0.00000000000E+00  0.00000000000E+00  0.45269156001E+01  0.47016874472E+01  0.12700000000E+01 0. -1.
         -4   -1    0    0    0  501 -0.00000000000E+00 -0.00000000000E+00 -0.84639836970E+03  0.84639932250E+03  0.12700000000E+01 0. -1.
         25    2    1    2    0    0  0.00000000000E+00  0.00000000000E+00 -0.84187145410E+03  0.85110100995E+03  0.12500153562E+03 0.  0.
    9000005    1    3    3    0    0  0.34287985388E+02 -0.50332633535E+02 -0.32553919553E+03  0.33118847771E+03  0.10000000000E+01 0.  0.
    9000005    1    3    3    0    0 -0.34287985388E+02  0.50332633535E+02 -0.51633225857E+03  0.51991253224E+03  0.10000000000E+01 0.  0.
<mgrwt>
<rscale>  0 0.12500154E+03</rscale>
<asrwt>0</asrwt>
<pdfrwt beam="1">  1        4 0.70996651E-03 0.12500154E+03</pdfrwt>
<pdfrwt beam="2">  1       -4 0.13022853E+00 0.12500154E+03</pdfrwt>
<totfact> 0.36081132E+03</totfact>
</mgrwt>
</event>
<event>
 5    1  0.3304582E-002  0.1249991E+03  0.7818608E-02  0.1235071E+00
         -4   -1    0    0    0  501 -0.00000000000E+00  0.00000000000E+00  0.67127249978E+03  0.67127370115E+03  0.12700000000E+01 0.  1.
          4   -1    0    0  501    0  0.00000000000E+00 -0.00000000000E+00 -0.57485775352E+01  0.58871931919E+01  0.12700000000E+01 0.  1.
         25    2    1    2    0    0  0.00000000000E+00  0.00000000000E+00  0.66552392224E+03  0.67716089434E+03  0.12499914300E+03 0.  0.
    9000005    1    3    3    0    0 -0.32352599356E+02 -0.43941551741E+02  0.16776500902E+03  0.17641895846E+03  0.10000000000E+01 0.  0.
    9000005    1    3    3    0    0  0.32352599356E+02  0.43941551741E+02  0.49775891322E+03  0.50074193588E+03  0.10000000000E+01 0.  0.
<mgrwt>
<rscale>  0 0.12499914E+03</rscale>
<asrwt>0</asrwt>
<pdfrwt beam="2">  1        4 0.89515247E-03 0.12499914E+03</pdfrwt>
<pdfrwt beam="1">  1       -4 0.10328336E+00 0.12499914E+03</pdfrwt>
<totfact> 0.44320939E+03</totfact>
</mgrwt>
</event>
<event>
 5    1  0.3304582E-002  0.1250013E+03  0.7818608E-02  0.1235067E+00
          4   -1    0    0  501    0  0.00000000000E+00  0.00000000000E+00  0.56130928577E+02  0.56145294041E+02  0.12700000000E+01 0.  1.
         -4   -1    0    0    0  501 -0.00000000000E+00 -0.00000000000E+00 -0.69564147299E+02  0.69575739230E+02  0.12700000000E+01 0.  1.
         25    2    1    2    0    0  0.00000000000E+00  0.00000000000E+00 -0.13433218721E+02  0.12572103327E+03  0.12500130736E+03 0.  0.
    9000005    1    3    3    0    0  0.56407250188E+02  0.18739521158E+02  0.12691757815E+02  0.60786743978E+02  0.10000000000E+01 0.  0.
    9000005    1    3    3    0    0 -0.56407250188E+02 -0.18739521158E+02 -0.26124976537E+02  0.64934289293E+02  0.10000000000E+01 0.  0.
<mgrwt>
<rscale>  0 0.12500131E+03</rscale>
<asrwt>0</asrwt>
<pdfrwt beam="1">  1        4 0.86375242E-02 0.12500131E+03</pdfrwt>
<pdfrwt beam="2">  1       -4 0.10704173E-01 0.12500131E+03</pdfrwt>
<totfact> 0.10436774E+04</totfact>
</mgrwt>
</event>
<event>
 5    1  0.3304582E-002  0.1249995E+03  0.7818608E-02  0.1235070E+00
         -4   -1    0    0    0  501 -0.00000000000E+00  0.00000000000E+00  0.53445913062E+01  0.54934102550E+01  0.12700000000E+01 0.  1.
          4   -1    0    0  501    0  0.00000000000E+00 -0.00000000000E+00 -0.72068796046E+03  0.72068907946E+03  0.12700000000E+01 0.  1.
         25    2    1    2    0    0  0.00000000000E+00  0.00000000000E+00 -0.71534336915E+03  0.72618248972E+03  0.12499949030E+03 0.  0.
    9000005    1    3    3    0    0  0.29952463160E+01  0.61276445311E+02 -0.42676398167E+03  0.43115225883E+03  0.10000000000E+01 0.  0.
    9000005    1    3    3    0    0 -0.29952463160E+01 -0.61276445311E+02 -0.28857938749E+03  0.29503023088E+03  0.10000000000E+01 0.  0.
<mgrwt>
<rscale>  0 0.12499949E+03</rscale>
<asrwt>0</asrwt>
<pdfrwt beam="2">  1        4 0.11088653E+00 0.12499949E+03</pdfrwt>
<pdfrwt beam="1">  1       -4 0.83377907E-03 0.12499949E+03</pdfrwt>
<totfact> 0.41740532E+03</totfact>
</mgrwt>
</event>
<event>
 5    1  0.3304582E-002  0.1249990E+03  0.7818608E-02  0.1235071E+00
         -4   -1    0    0    0  501 -0.00000000000E+00  0.00000000000E+00  0.14768966693E+03  0.14769512726E+03  0.12700000000E+01 0. -1.
          4   -1    0    0  501    0  0.00000000000E+00 -0.00000000000E+00 -0.26427410555E+02  0.26457908622E+02  0.12700000000E+01 0. -1.
         25    2    1    2    0    0  0.00000000000E+00  0.00000000000E+00  0.12126225637E+03  0.17415303589E+03  0.12499898035E+03 0.  0.
    9000005    1    3    3    0    0  0.40631247775E+02 -0.36051942368E+02  0.10367614483E+03  0.11704863883E+03  0.10000000000E+01 0.  0.
    9000005    1    3    3    0    0 -0.40631247775E+02  0.36051942368E+02  0.17586111543E+02  0.57104397059E+02  0.10000000000E+01 0.  0.
<mgrwt>
<rscale>  0 0.12499898E+03</rscale>
<asrwt>0</asrwt>
<pdfrwt beam="2">  1        4 0.40685215E-02 0.12499898E+03</pdfrwt>
<pdfrwt beam="1">  1       -4 0.22724253E-01 0.12499898E+03</pdfrwt>
<totfact> 0.94682355E+03</totfact>
</mgrwt>
</event>
<event>
 5    1  0.3304582E-002  0.1249984E+03  0.7818608E-02  0.1235072E+00
         -4   -1    0    0    0  501 -0.00000000000E+00  0.00000000000E+00  0.14293024580E+04  0.14293030222E+04  0.12700000000E+01 0.  1.
          4   -1    0    0  501    0  0.00000000000E+00 -0.00000000000E+00 -0.25847661672E+01  0.28799159952E+01  0.12700000000E+01 0.  1.
         25    2    1    2    0    0  0.00000000000E+00  0.00000000000E+00  0.14267176918E+04  0.14321829382E+04  0.12499838536E+03 0.  0.
    9000005    1    3    3    0    0 -0.62792875571E+01  0.58617086744E+01  0.14225618608E+04  0.14225881473E+04  0.10000000000E+01 0.  0.
    9000005    1    3    3    0    0  0.62792875571E+01 -0.58617086744E+01  0.41558310200E+01  0.95947908928E+01  0.10000000000E+01 0.  0.
<mgrwt>
<rscale>  0 0.12499839E+03</rscale>
<asrwt>0</asrwt>
<pdfrwt beam="2">  1        4 0.42040286E-03 0.12499839E+03</pdfrwt>
<pdfrwt beam="1">  1       -4 0.21991580E+00 0.12499839E+03</pdfrwt>
<totfact> 0.19301290E+03</totfact>
</mgrwt>
</event>
<event>
 5    1  0.3304582E-002  0.1249959E+03  0.7818608E-02  0.1235076E+00
         -4   -1    0    0    0  501 -0.00000000000E+00  0.00000000000E+00  0.10697015475E+03  0.10697769350E+03  0.12700000000E+01 0.  1.
          4   -1    0    0  501    0  0.00000000000E+00 -0.00000000000E+00 -0.36494912065E+02  0.36517002980E+02  0.12700000000E+01 0.  1.
         25    2    1    2    0    0  0.00000000000E+00  0.00000000000E+00  0.70475242686E+02  0.14349469648E+03  0.12499587228E+03 0.  0.
    9000005    1    3    3    0    0 -0.52784939400E+02  0.13326290329E+02  0.70456060512E+02  0.89044350210E+02  0.10000000000E+01 0.  0.
    9000005    1    3    3    0    0  0.52784939400E+02 -0.13326290329E+02  0.19182173588E-01  0.54450346274E+02  0.10000000000E+01 0.  0.
<mgrwt>
<rscale>  0 0.12499587E+03</rscale>
<asrwt>0</asrwt>
<pdfrwt beam="2">  1        4 0.56168811E-02 0.12499587E+03</pdfrwt>
<pdfrwt beam="1">  1       -4 0.16459226E-01 0.12499587E+03</pdfrwt>
<totfact> 0.10062598E+04</totfact>
</mgrwt>
</event>
<event>
 5    1  0.3304582E-002  0.1250028E+03  0.7818608E-02  0.1235065E+00
          4   -1    0    0  501    0  0.00000000000E+00  0.00000000000E+00  0.25403939240E+02  0.25435664507E+02  0.12700000000E+01 0.  1.
         -4   -1    0    0    0  501 -0.00000000000E+00 -0.00000000000E+00 -0.15364206213E+03  0.15364731093E+03  0.12700000000E+01 0.  1.
         25    2    1    2    0    0  0.00000000000E+00  0.00000000000E+00 -0.12823812289E+03  0.17908297544E+03  0.12500278368E+03 0.  0.
    9000005    1    3    3    0    0 -0.55861321974E+02  0.26972060684E+02 -0.53260823791E+02  0.81766097505E+02  0.10000000000E+01 0.  0.
    9000005    1    3    3    0    0  0.55861321974E+02 -0.26972060684E+02 -0.74977299103E+02  0.97316877935E+02  0.10000000000E+01 0.  0.
<mgrwt>
<rscale>  0 0.12500278E+03</rscale>
<asrwt>0</asrwt>
<pdfrwt beam="1">  1        4 0.39111426E-02 0.12500278E+03</pdfrwt>
<pdfrwt beam="2">  1       -4 0.23640084E-01 0.12500278E+03</pdfrwt>
<totfact> 0.93776478E+03</totfact>
</mgrwt>
</event>
<event>
 5    1  0.3304582E-002  0.1249997E+03  0.7818608E-02  0.1235070E+00
          4   -1    0    0  501    0  0.00000000000E+00  0.00000000000E+00  0.11371271606E+02  0.11441971768E+02  0.12700000000E+01 0.  1.
         -4   -1    0    0    0  501 -0.00000000000E+00 -0.00000000000E+00 -0.34238117459E+03  0.34238352999E+03  0.12700000000E+01 0.  1.
         25    2    1    2    0    0  0.00000000000E+00  0.00000000000E+00 -0.33100990298E+03  0.35382550176E+03  0.12499971930E+03 0.  0.
    9000005    1    3    3    0    0  0.53583839597E+02 -0.30680695509E+02 -0.13825166880E+03  0.15141683153E+03  0.10000000000E+01 0.  0.
    9000005    1    3    3    0    0 -0.53583839597E+02  0.30680695509E+02 -0.19275823418E+03  0.20240867023E+03  0.10000000000E+01 0.  0.
<mgrwt>
<rscale>  0 0.12499972E+03</rscale>
<asrwt>0</asrwt>
<pdfrwt beam="1">  1        4 0.17550463E-02 0.12499972E+03</pdfrwt>
<pdfrwt beam="2">  1       -4 0.52679639E-01 0.12499972E+03</pdfrwt>
<totfact> 0.69306178E+03</totfact>
</mgrwt>
</event>
<event>
 5    1  0.3304582E-002  0.1250054E+03  0.7818608E-02  0.1235061E+00
          4   -1    0    0  501    0  0.00000000000E+00  0.00000000000E+00  0.72962404221E+02  0.72973456337E+02  0.12700000000E+01 0. -1.
         -4   -1    0    0    0  501 -0.00000000000E+00 -0.00000000000E+00 -0.53519824367E+02  0.53534890495E+02  0.12700000000E+01 0. -1.
         25    2    1    2    0    0  0.00000000000E+00  0.00000000000E+00  0.19442579854E+02  0.12650834683E+03  0.12500539151E+03 0.  0.
    9000005    1    3    3    0    0 -0.35865196345E+02  0.39978836895E+02 -0.22615458316E+02  0.58284463309E+02  0.10000000000E+01 0.  0.
    9000005    1    3    3    0    0  0.35865196345E+02 -0.39978836895E+02  0.42058038169E+02  0.68223883523E+02  0.10000000000E+01 0.  0.
<mgrwt>
<rscale>  0 0.12500539E+03</rscale>
<asrwt>0</asrwt>
<pdfrwt beam="1">  1        4 0.11226994E-01 0.12500539E+03</pdfrwt>
<pdfrwt beam="2">  1       -4 0.82358282E-02 0.12500539E+03</pdfrwt>
<totfact> 0.10418578E+04</totfact>
</mgrwt>
</event>
<event>
 5    1  0.3304582E-002  0.1250001E+03  0.7818608E-02  0.1235069E+00
          4   -1    0    0  501    0  0.00000000000E+00  0.00000000000E+00  0.30612854077E+01  0.33142673923E+01  0.12700000000E+01 0.  1.
         -4   -1    0    0    0  501 -0.00000000000E+00 -0.00000000000E+00 -0.12251328698E+04  0.12251335281E+04  0.12700000000E+01 0.  1.
         25    2    1    2    0    0  0.00000000000E+00  0.00000000000E+00 -0.12220715844E+04  0.12284477955E+04  0.12500011504E+03 0.  0.
    9000005    1    3    3    0    0  0.43616077611E+02 -0.38421579819E+02 -0.38549840836E+03  0.38985715701E+03  0.10000000000E+01 0.  0.
    9000005    1    3    3    0    0 -0.43616077611E+02  0.38421579819E+02 -0.83657317604E+03  0.83859063845E+03  0.10000000000E+01 0.  0.
<mgrwt>
<rscale>  0 0.12500012E+03</rscale>
<asrwt>0</asrwt>
<pdfrwt beam="1">  1        4 0.49047875E-03 0.12500012E+03</pdfrwt>
<pdfrwt beam="2">  1       -4 0.18850111E+00 0.12500012E+03</pdfrwt>
<totfact> 0.23980047E+03</totfact>
</mgrwt>
</event>
<event>
 5    1  0.3304582E-002  0.1250000E+03  0.7818608E-02  0.1235069E+00
         -4   -1    0    0    0  501 -0.00000000000E+00  0.00000000000E+00  0.64166239232E+03  0.64166364914E+03  0.12700000000E+01 0.  1.
          4   -1    0    0  501    0  0.00000000000E+00 -0.00000000000E+00 -0.60201869374E+01  0.61526864670E+01  0.12700000000E+01 0.  1.
         25    2    1    2    0    0  0.00000000000E+00  0.00000000000E+00  0.63564220539E+03  0.64781633560E+03  0.12499996562E+03 0.  0.
    9000005    1    3    3    0    0  0.12636332806E+02  0.15403495295E+00  0.64559788010E+00  0.12693204094E+02  0.10000000000E+01 0.  0.
    9000005    1    3    3    0    0 -0.12636332806E+02 -0.15403495295E+00  0.63499660751E+03  0.63512313151E+03  0.10000000000E+01 0.  0.
<mgrwt>
<rscale>  0 0.12499997E+03</rscale>
<asrwt>0</asrwt>
<pdfrwt beam="2">  1        4 0.93647124E-03 0.12499997E+03</pdfrwt>
<pdfrwt beam="1">  1       -4 0.98727613E-01 0.12499997E+03</pdfrwt>
<totfact> 0.45981892E+03</totfact>
</mgrwt>
</event>
<event>
 5    1  0.3304582E-002  0.1250061E+03  0.7818608E-02  0.1235060E+00
          4   -1    0    0  501    0  0.00000000000E+00  0.00000000000E+00  0.27344676688E+01  0.30149980815E+01  0.12700000000E+01 0. -1.
         -4   -1    0    0    0  501 -0.00000000000E+00 -0.00000000000E+00 -0.13586747698E+04  0.13586753633E+04  0.12700000000E+01 0. -1.
         25    2    1    2    0    0  0.00000000000E+00  0.00000000000E+00 -0.13559403021E+04  0.13616903614E+04  0.12500614980E+03 0.  0.
    9000005    1    3    3    0    0 -0.40014504012E+02  0.26808107067E+02 -0.11117517112E+04  0.11127949957E+04  0.10000000000E+01 0.  0.
    9000005    1    3    3    0    0  0.40014504012E+02 -0.26808107067E+02 -0.24418859086E+03  0.24889536565E+03  0.10000000000E+01 0.  0.
<mgrwt>
<rscale>  0 0.12500615E+03</rscale>
<asrwt>0</asrwt>
<pdfrwt beam="1">  1        4 0.44231334E-03 0.12500615E+03</pdfrwt>
<pdfrwt beam="2">  1       -4 0.20904800E+00 0.12500615E+03</pdfrwt>
<totfact> 0.20814831E+03</totfact>
</mgrwt>
</event>
<event>
 5    1  0.3304582E-002  0.1249967E+03  0.7818608E-02  0.1235074E+00
          4   -1    0    0  501    0  0.00000000000E+00  0.00000000000E+00  0.66609793195E+02  0.66621899173E+02  0.12700000000E+01 0. -1.
         -4   -1    0    0    0  501 -0.00000000000E+00 -0.00000000000E+00 -0.58616364490E+02  0.58630120979E+02  0.12700000000E+01 0. -1.
         25    2    1    2    0    0  0.00000000000E+00  0.00000000000E+00  0.79934287048E+01  0.12525202015E+03  0.12499669456E+03 0.  0.
    9000005    1    3    3    0    0  0.50352046512E+02  0.21491964549E+02 -0.26194720947E+02  0.60699230091E+02  0.10000000000E+01 0.  0.
    9000005    1    3    3    0    0 -0.50352046512E+02 -0.21491964549E+02  0.34188149652E+02  0.64552790062E+02  0.10000000000E+01 0.  0.
<mgrwt>
<rscale>  0 0.12499669E+03</rscale>
<asrwt>0</asrwt>
<pdfrwt beam="1">  1        4 0.10249650E-01 0.12499669E+03</pdfrwt>
<pdfrwt beam="2">  1       -4 0.90198917E-02 0.12499669E+03</pdfrwt>
<totfact> 0.10448172E+04</totfact>
</mgrwt>
</event>
<event>
 5    1  0.3304582E-002  0.1249939E+03  0.7818608E-02  0.1235079E+00
          4   -1    0    0  501    0  0.00000000000E+00  0.00000000000E+00  0.23208551411E+01  0.26456130832E+01  0.12700000000E+01 0. -1.
         -4   -1    0    0    0  501 -0.00000000000E+00 -0.00000000000E+00 -0.15725707962E+04  0.15725713090E+04  0.12700000000E+01 0. -1.
         25    2    1    2    0    0  0.00000000000E+00  0.00000000000E+00 -0.15702499411E+04  0.15752169221E+04  0.12499389702E+03 0.  0.
    9000005    1    3    3    0    0 -0.28447885744E-01  0.26023010950E+02 -0.69152757444E+02  0.73893854753E+02  0.10000000000E+01 0.  0.
    9000005    1    3    3    0    0  0.28447885744E-01 -0.26023010950E+02 -0.15010971836E+04  0.15013230674E+04  0.10000000000E+01 0.  0.
<mgrwt>
<rscale>  0 0.12499390E+03</rscale>
<asrwt>0</asrwt>
<pdfrwt beam="1">  1        4 0.38207672E-03 0.12499390E+03</pdfrwt>
<pdfrwt beam="2">  1       -4 0.24195819E+00 0.12499390E+03</pdfrwt>
<totfact> 0.16500634E+03</totfact>
</mgrwt>
</event>
<event>
 5    1  0.3304582E-002  0.1249977E+03  0.7818608E-02  0.1235073E+00
         -4   -1    0    0    0  501 -0.00000000000E+00  0.00000000000E+00  0.46813153402E+02  0.46830377230E+02  0.12700000000E+01 0. -1.
          4   -1    0    0  501    0  0.00000000000E+00 -0.00000000000E+00 -0.83402924783E+02  0.83412593547E+02  0.12700000000E+01 0. -1.
         25    2    1    2    0    0  0.00000000000E+00  0.00000000000E+00 -0.36589771380E+02  0.13024297078E+03  0.12499768025E+03 0.  0.
    9000005    1    3    3    0    0 -0.19309321071E+02  0.24441638298E+02  0.38152800217E+02  0.49263371051E+02  0.10000000000E+01 0.  0.
    9000005    1    3    3    0    0  0.19309321071E+02 -0.24441638298E+02 -0.74742571597E+02  0.80979599726E+02  0.10000000000E+01 0.  0.
<mgrwt>
<rscale>  0 0.12499768E+03</rscale>
<asrwt>0</asrwt>
<pdfrwt beam="2">  1        4 0.12833288E-01 0.12499768E+03</pdfrwt>
<pdfrwt beam="1">  1       -4 0.72040923E-02 0.12499768E+03</pdfrwt>
<totfact> 0.10339854E+04</totfact>
</mgrwt>
</event>
<event>
 5    1  0.3304582E-002  0.1249981E+03  0.7818608E-02  0.1235072E+00
         -4   -1    0    0    0  501 -0.00000000000E+00  0.00000000000E+00  0.34182605427E+02  0.34206189699E+02  0.12700000000E+01 0.  1.
          4   -1    0    0  501    0  0.00000000000E+00 -0.00000000000E+00 -0.11420595845E+03  0.11421301960E+03  0.12700000000E+01 0.  1.
         25    2    1    2    0    0  0.00000000000E+00  0.00000000000E+00 -0.80023353027E+02  0.14841920930E+03  0.12499809862E+03 0.  0.
    9000005    1    3    3    0    0  0.47894337975E+02  0.29329197536E+02 -0.72552199035E+02  0.91754515000E+02  0.10000000000E+01 0.  0.
    9000005    1    3    3    0    0 -0.47894337975E+02 -0.29329197536E+02 -0.74711539923E+01  0.56664694300E+02  0.10000000000E+01 0.  0.
<mgrwt>
<rscale>  0 0.12499810E+03</rscale>
<asrwt>0</asrwt>
<pdfrwt beam="2">  1        4 0.17572505E-01 0.12499810E+03</pdfrwt>
<pdfrwt beam="1">  1       -4 0.52612198E-02 0.12499810E+03</pdfrwt>
<totfact> 0.99624006E+03</totfact>
</mgrwt>
</event>
<event>
 4    1  0.3304582E-002  0.1256477E+03  0.7818608E-02  0.1234060E+00
          4   -1    0    0  501    0  0.00000000000E+00  0.00000000000E+00  0.95652685143E+01  0.96492104211E+01  0.12700000000E+01 0. -1.
         -4   -1    0    0    0  501 -0.00000000000E+00 -0.00000000000E+00 -0.41073435767E+03  0.41073632110E+03  0.12700000000E+01 0. -1.
    9000005    1    1    2    0    0 -0.62730959324E+02 -0.27788211683E+01 -0.19484373692E+03  0.20471437888E+03  0.10000000000E+01 0.  0.
    9000005    1    1    2    0    0  0.62730959324E+02  0.27788211683E+01 -0.20632535224E+03  0.21567115264E+03  0.10000000000E+01 0.  0.
<mgrwt>
<rscale>  0 0.12564775E+03</rscale>
<asrwt>0</asrwt>
<pdfrwt beam="1">  1        4 0.14781882E-02 0.12564775E+03</pdfrwt>
<pdfrwt beam="2">  1       -4 0.63196496E-01 0.12564775E+03</pdfrwt>
<totfact> 0.61730992E+03</totfact>
</mgrwt>
</event>
<event>
 5    1  0.3304582E-002  0.1249981E+03  0.7818608E-02  0.1235072E+00
          4   -1    0    0  501    0  0.00000000000E+00  0.00000000000E+00  0.55677534365E+02  0.55692016780E+02  0.12700000000E+01 0.  1.
         -4   -1    0    0    0  501 -0.00000000000E+00 -0.00000000000E+00 -0.70126997237E+02  0.70138496145E+02  0.12700000000E+01 0.  1.
         25    2    1    2    0    0  0.00000000000E+00  0.00000000000E+00 -0.14449462872E+02  0.12583051292E+03  0.12499812401E+03 0.  0.
    9000005    1    3    3    0    0 -0.12957445861E+02 -0.50509228912E+02  0.27443757458E+02  0.58934178809E+02  0.10000000000E+01 0.  0.
    9000005    1    3    3    0    0  0.12957445861E+02  0.50509228912E+02 -0.41893220330E+02  0.66896334116E+02  0.10000000000E+01 0.  0.
<mgrwt>
<rscale>  0 0.12499812E+03</rscale>
<asrwt>0</asrwt>
<pdfrwt beam="1">  1        4 0.85677731E-02 0.12499812E+03</pdfrwt>
<pdfrwt beam="2">  1       -4 0.10790767E-01 0.12499812E+03</pdfrwt>
<totfact> 0.10435117E+04</totfact>
</mgrwt>
</event>
<event>
 5    1  0.3304582E-002  0.1250004E+03  0.7818608E-02  0.1235069E+00
          4   -1    0    0  501    0  0.00000000000E+00  0.00000000000E+00  0.32132592273E+02  0.32157680049E+02  0.12700000000E+01 0. -1.
         -4   -1    0    0    0  501 -0.00000000000E+00 -0.00000000000E+00 -0.12149153577E+03  0.12149817350E+03  0.12700000000E+01 0. -1.
         25    2    1    2    0    0  0.00000000000E+00  0.00000000000E+00 -0.89358943493E+02  0.15365585354E+03  0.12500040218E+03 0.  0.
    9000005    1    3    3    0    0 -0.99795120717E+01  0.60760366740E+02 -0.57796265577E+02  0.84456030822E+02  0.10000000000E+01 0.  0.
    9000005    1    3    3    0    0  0.99795120717E+01 -0.60760366740E+02 -0.31562677916E+02  0.69199822722E+02  0.10000000000E+01 0.  0.
<mgrwt>
<rscale>  0 0.12500040E+03</rscale>
<asrwt>0</asrwt>
<pdfrwt beam="1">  1        4 0.49459162E-02 0.12500040E+03</pdfrwt>
<pdfrwt beam="2">  1       -4 0.18693446E-01 0.12500040E+03</pdfrwt>
<totfact> 0.98578995E+03</totfact>
</mgrwt>
</event>
<event>
 5    1  0.3304582E-002  0.1250009E+03  0.7818608E-02  0.1235068E+00
          4   -1    0    0  501    0  0.00000000000E+00  0.00000000000E+00  0.16177158669E+02  0.16226933247E+02  0.12700000000E+01 0. -1.
         -4   -1    0    0    0  501 -0.00000000000E+00 -0.00000000000E+00 -0.24104820759E+03  0.24105155317E+03  0.12700000000E+01 0. -1.
         25    2    1    2    0    0  0.00000000000E+00  0.00000000000E+00 -0.22487104892E+03  0.25727848641E+03  0.12500092370E+03 0.  0.
    9000005    1    3    3    0    0  0.52646769279E+02 -0.30713457679E+01 -0.18144528868E+03  0.18895636603E+03  0.10000000000E+01 0.  0.
    9000005    1    3    3    0    0 -0.52646769279E+02  0.30713457679E+01 -0.43425760243E+02  0.68322120378E+02  0.10000000000E+01 0.  0.
<mgrwt>
<rscale>  0 0.12500092E+03</rscale>
<asrwt>0</asrwt>
<pdfrwt beam="1">  1        4 0.24928800E-02 0.12500092E+03</pdfrwt>
<pdfrwt beam="2">  1       -4 0.37088423E-01 0.12500092E+03</pdfrwt>
<totfact> 0.81287839E+03</totfact>
</mgrwt>
</event>
<event>
 5    1  0.3304582E-002  0.1249956E+03  0.7818608E-02  0.1235076E+00
         -4   -1    0    0    0  501 -0.00000000000E+00  0.00000000000E+00  0.52779129205E+02  0.52794406708E+02  0.12700000000E+01 0. -1.
          4   -1    0    0  501    0  0.00000000000E+00 -0.00000000000E+00 -0.73974646410E+02  0.73985547315E+02  0.12700000000E+01 0. -1.
         25    2    1    2    0    0  0.00000000000E+00  0.00000000000E+00 -0.21195517205E+02  0.12677995402E+03  0.12499562709E+03 0.  0.
    9000005    1    3    3    0    0  0.40259608690E+02  0.34769934412E+02  0.22660448728E+02  0.57829753306E+02  0.10000000000E+01 0.  0.
    9000005    1    3    3    0    0 -0.40259608690E+02 -0.34769934412E+02 -0.43855965934E+02  0.68950200716E+02  0.10000000000E+01 0.  0.
<mgrwt>
<rscale>  0 0.12499563E+03</rscale>
<asrwt>0</asrwt>
<pdfrwt beam="2">  1        4 0.11382729E-01 0.12499563E+03</pdfrwt>
<pdfrwt beam="1">  1       -4 0.81218798E-02 0.12499563E+03</pdfrwt>
<totfact> 0.10414958E+04</totfact>
</mgrwt>
</event>
<event>
 5    1  0.3304582E-002  0.1250185E+03  0.7818608E-02  0.1235040E+00
         -4   -1    0    0    0  501 -0.00000000000E+00  0.00000000000E+00  0.94551091110E+01  0.95400203511E+01  0.12700000000E+01 0. -1.
          4   -1    0    0  501    0  0.00000000000E+00 -0.00000000000E+00 -0.41132537030E+03  0.41132733091E+03  0.12700000000E+01 0. -1.
         25    2    1    2    0    0  0.00000000000E+00  0.00000000000E+00 -0.40187026119E+03  0.42086735126E+03  0.12501848075E+03 0.  0.
    9000005    1    3    3    0    0  0.54027014261E+01  0.75911074145E+00  0.86684702519E+01  0.10291151944E+02  0.10000000000E+01 0.  0.
    9000005    1    3    3    0    0 -0.54027014261E+01 -0.75911074145E+00 -0.41053873144E+03  0.41057619932E+03  0.10000000000E+01 0.  0.
<mgrwt>
<rscale>  0 0.12501848E+03</rscale>
<asrwt>0</asrwt>
<pdfrwt beam="2">  1        4 0.63287495E-01 0.12501848E+03</pdfrwt>
<pdfrwt beam="1">  1       -4 0.14613149E-02 0.12501848E+03</pdfrwt>
<totfact> 0.62547132E+03</totfact>
</mgrwt>
</event>
<event>
 5    1  0.3304582E-002  0.1250170E+03  0.7818608E-02  0.1235043E+00
          4   -1    0    0  501    0  0.00000000000E+00  0.00000000000E+00  0.10922558368E+02  0.10996143928E+02  0.12700000000E+01 0.  1.
         -4   -1    0    0    0  501 -0.00000000000E+00 -0.00000000000E+00 -0.35645316938E+03  0.35645543180E+03  0.12700000000E+01 0.  1.
         25    2    1    2    0    0  0.00000000000E+00  0.00000000000E+00 -0.34553061101E+03  0.36745157573E+03  0.12501702828E+03 0.  0.
    9000005    1    3    3    0    0 -0.58398896554E+02  0.57420830204E+01 -0.23600358176E+03  0.24319147444E+03  0.10000000000E+01 0.  0.
    9000005    1    3    3    0    0  0.58398896554E+02 -0.57420830204E+01 -0.10952702925E+03  0.12426010129E+03  0.10000000000E+01 0.  0.
<mgrwt>
<rscale>  0 0.12501703E+03</rscale>
<asrwt>0</asrwt>
<pdfrwt beam="1">  1        4 0.16862283E-02 0.12501703E+03</pdfrwt>
<pdfrwt beam="2">  1       -4 0.54844775E-01 0.12501703E+03</pdfrwt>
<totfact> 0.67820861E+03</totfact>
</mgrwt>
</event>
<event>
 5    1  0.3304582E-002  0.1250130E+03  0.7818608E-02  0.1235049E+00
          4   -1    0    0  501    0  0.00000000000E+00  0.00000000000E+00  0.93516972036E+02  0.93525595207E+02  0.12700000000E+01 0.  1.
         -4   -1    0    0    0  501 -0.00000000000E+00 -0.00000000000E+00 -0.41758967751E+02  0.41778275307E+02  0.12700000000E+01 0.  1.
         25    2    1    2    0    0  0.00000000000E+00  0.00000000000E+00  0.51758004285E+02  0.13530387051E+03  0.12501298480E+03 0.  0.
    9000005    1    3    3    0    0 -0.82315951448E+01 -0.27702582717E+02 -0.34098139598E+02  0.44708784057E+02  0.10000000000E+01 0.  0.
    9000005    1    3    3    0    0  0.82315951448E+01  0.27702582717E+02  0.85856143883E+02  0.90595086457E+02  0.10000000000E+01 0.  0.
<mgrwt>
<rscale>  0 0.12501298E+03</rscale>
<asrwt>0</asrwt>
<pdfrwt beam="1">  1        4 0.14389375E-01 0.12501298E+03</pdfrwt>
<pdfrwt beam="2">  1       -4 0.64266052E-02 0.12501298E+03</pdfrwt>
<totfact> 0.10228675E+04</totfact>
</mgrwt>
</event>
<event>
 5    1  0.3304582E-002  0.1249974E+03  0.7818608E-02  0.1235073E+00
          4   -1    0    0  501    0  0.00000000000E+00  0.00000000000E+00  0.22861092841E+01  0.26151855879E+01  0.12700000000E+01 0. -1.
         -4   -1    0    0    0  501 -0.00000000000E+00 -0.00000000000E+00 -0.15935711905E+04  0.15935716965E+04  0.12700000000E+01 0. -1.
         25    2    1    2    0    0  0.00000000000E+00  0.00000000000E+00 -0.15912850812E+04  0.15961868821E+04  0.12499741219E+03 0.  0.
    9000005    1    3    3    0    0 -0.37040016426E+02 -0.44735268366E+02 -0.50113932582E+03  0.50449462925E+03  0.10000000000E+01 0.  0.
    9000005    1    3    3    0    0  0.37040016426E+02  0.44735268366E+02 -0.10901457554E+04  0.10916922529E+04  0.10000000000E+01 0.  0.
<mgrwt>
<rscale>  0 0.12499741E+03</rscale>
<asrwt>0</asrwt>
<pdfrwt beam="1">  1        4 0.37706288E-03 0.12499741E+03</pdfrwt>
<pdfrwt beam="2">  1       -4 0.24518932E+00 0.12499741E+03</pdfrwt>
<totfact> 0.16116107E+03</totfact>
</mgrwt>
</event>
<event>
 5    1  0.3304582E-002  0.1250003E+03  0.7818608E-02  0.1235069E+00
          4   -1    0    0  501    0  0.00000000000E+00  0.00000000000E+00  0.32365762103E+02  0.32390669282E+02  0.12700000000E+01 0. -1.
         -4   -1    0    0    0  501 -0.00000000000E+00 -0.00000000000E+00 -0.12061662897E+03  0.12062331484E+03  0.12700000000E+01 0. -1.
         25    2    1    2    0    0  0.00000000000E+00  0.00000000000E+00 -0.88250866863E+02  0.15301398412E+03  0.12500025534E+03 0.  0.
    9000005    1    3    3    0    0 -0.31760475986E+02 -0.48800791849E+02 -0.16345408953E+02  0.60484853589E+02  0.10000000000E+01 0.  0.
    9000005    1    3    3    0    0  0.31760475986E+02  0.48800791849E+02 -0.71905457911E+02  0.92529130533E+02  0.10000000000E+01 0.  0.
<mgrwt>
<rscale>  0 0.12500026E+03</rscale>
<asrwt>0</asrwt>
<pdfrwt beam="1">  1        4 0.49817783E-02 0.12500026E+03</pdfrwt>
<pdfrwt beam="2">  1       -4 0.18558834E-01 0.12500026E+03</pdfrwt>
<totfact> 0.98705696E+03</totfact>
</mgrwt>
</event>
<event>
 5    1  0.3304582E-002  0.1249991E+03  0.7818608E-02  0.1235071E+00
         -4   -1    0    0    0  501 -0.00000000000E+00  0.00000000000E+00  0.76219959482E+02  0.76230539309E+02  0.12700000000E+01 0. -1.
          4   -1    0    0  501    0  0.00000000000E+00 -0.00000000000E+00 -0.51226978464E+02  0.51242718727E+02  0.12700000000E+01 0. -1.
         25    2    1    2    0    0  0.00000000000E+00  0.00000000000E+00  0.24992981018E+02  0.12747325804E+03  0.12499912965E+03 0.  0.
    9000005    1    3    3    0    0 -0.55255072421E+02 -0.29039994947E+02  0.15513298068E+02  0.64328117894E+02  0.10000000000E+01 0.  0.
    9000005    1    3    3    0    0  0.55255072421E+02  0.29039994947E+02  0.94796829504E+01  0.63145140143E+02  0.10000000000E+01 0.  0.
<mgrwt>
<rscale>  0 0.12499913E+03</rscale>
<asrwt>0</asrwt>
<pdfrwt beam="2">  1        4 0.78830983E-02 0.12499913E+03</pdfrwt>
<pdfrwt beam="1">  1       -4 0.11728172E-01 0.12499913E+03</pdfrwt>
<totfact> 0.10399084E+04</totfact>
</mgrwt>
</event>
<event>
 5    1  0.3304582E-002  0.1250004E+03  0.7818608E-02  0.1235069E+00
          4   -1    0    0  501    0  0.00000000000E+00  0.00000000000E+00  0.34680869766E+03  0.34681102300E+03  0.12700000000E+01 0. -1.
         -4   -1    0    0    0  501 -0.00000000000E+00 -0.00000000000E+00 -0.11225319748E+02  0.11296933364E+02  0.12700000000E+01 0. -1.
         25    2    1    2    0    0  0.00000000000E+00  0.00000000000E+00  0.33558337791E+03  0.35810795636E+03  0.12500041951E+03 0.  0.
    9000005    1    3    3    0    0 -0.17264530434E+02  0.56357708729E+02  0.22726904465E+03  0.23479027663E+03  0.10000000000E+01 0.  0.
    9000005    1    3    3    0    0  0.17264530434E+02 -0.56357708729E+02  0.10831433326E+03  0.12331767973E+03  0.10000000000E+01 0.  0.
<mgrwt>
<rscale>  0 0.12500042E+03</rscale>
<asrwt>0</asrwt>
<pdfrwt beam="1">  1        4 0.53360862E-01 0.12500042E+03</pdfrwt>
<pdfrwt beam="2">  1       -4 0.17326602E-02 0.12500042E+03</pdfrwt>
<totfact> 0.68841062E+03</totfact>
</mgrwt>
</event>
<event>
 5    1  0.3304582E-002  0.1249936E+03  0.7818608E-02  0.1235079E+00
         -4   -1    0    0    0  501 -0.00000000000E+00  0.00000000000E+00  0.13141550095E+03  0.13142163745E+03  0.12700000000E+01 0.  1.
          4   -1    0    0  501    0  0.00000000000E+00 -0.00000000000E+00 -0.29700973359E+02  0.29728113268E+02  0.12700000000E+01 0.  1.
         25    2    1    2    0    0  0.00000000000E+00  0.00000000000E+00  0.10171452759E+03  0.16114975072E+03  0.12499358797E+03 0.  0.
    9000005    1    3    3    0    0 -0.42320114964E+02 -0.32514832601E+02  0.92766138528E+02  0.10702692618E+03  0.10000000000E+01 0.  0.
    9000005    1    3    3    0    0  0.42320114964E+02  0.32514832601E+02  0.89483890657E+01  0.54122824543E+02  0.10000000000E+01 0.  0.
<mgrwt>
<rscale>  0 0.12499359E+03</rscale>
<asrwt>0</asrwt>
<pdfrwt beam="2">  1        4 0.45719403E-02 0.12499359E+03</pdfrwt>
<pdfrwt beam="1">  1       -4 0.20220329E-01 0.12499359E+03</pdfrwt>
<totfact> 0.97135576E+03</totfact>
</mgrwt>
</event>
<event>
 5    1  0.3304582E-002  0.1249995E+03  0.7818608E-02  0.1235070E+00
          4   -1    0    0  501    0  0.00000000000E+00  0.00000000000E+00  0.12297288964E+04  0.12297295522E+04  0.12700000000E+01 0.  1.
         -4   -1    0    0    0  501 -0.00000000000E+00 -0.00000000000E+00 -0.30488665624E+01  0.33027999206E+01  0.12700000000E+01 0.  1.
         25    2    1    2    0    0  0.00000000000E+00  0.00000000000E+00  0.12266800298E+04  0.12330323521E+04  0.12499954304E+03 0.  0.
    9000005    1    3    3    0    0 -0.41365863624E+02  0.23188664037E+02  0.10148025925E+04  0.10159105033E+04  0.10000000000E+01 0.  0.
    9000005    1    3    3    0    0  0.41365863624E+02 -0.23188664037E+02  0.21187743727E+03  0.21712184882E+03  0.10000000000E+01 0.  0.
<mgrwt>
<rscale>  0 0.12499954E+03</rscale>
<asrwt>0</asrwt>
<pdfrwt beam="1">  1        4 0.18920847E+00 0.12499954E+03</pdfrwt>
<pdfrwt beam="2">  1       -4 0.48864063E-03 0.12499954E+03</pdfrwt>
<totfact> 0.23864405E+03</totfact>
</mgrwt>
</event>
<event>
 5    1  0.3304582E-002  0.1249995E+03  0.7818608E-02  0.1235070E+00
         -4   -1    0    0    0  501 -0.00000000000E+00  0.00000000000E+00  0.19608120718E+03  0.19608531998E+03  0.12700000000E+01 0. -1.
          4   -1    0    0  501    0  0.00000000000E+00 -0.00000000000E+00 -0.19896859702E+02  0.19937350025E+02  0.12700000000E+01 0. -1.
         25    2    1    2    0    0  0.00000000000E+00  0.00000000000E+00  0.17618434748E+03  0.21602267000E+03  0.12499947863E+03 0.  0.
    9000005    1    3    3    0    0 -0.32695296330E+02  0.35226157767E+00 -0.39427664316E+01  0.32949232122E+02  0.10000000000E+01 0.  0.
    9000005    1    3    3    0    0  0.32695296330E+02 -0.35226157767E+00  0.18012711391E+03  0.18307343788E+03  0.10000000000E+01 0.  0.
<mgrwt>
<rscale>  0 0.12499948E+03</rscale>
<asrwt>0</asrwt>
<pdfrwt beam="2">  1        4 0.30644864E-02 0.12499948E+03</pdfrwt>
<pdfrwt beam="1">  1       -4 0.30169770E-01 0.12499948E+03</pdfrwt>
<totfact> 0.87502668E+03</totfact>
</mgrwt>
</event>
<event>
 5    1  0.3304582E-002  0.1249958E+03  0.7818608E-02  0.1235076E+00
          4   -1    0    0  501    0  0.00000000000E+00  0.00000000000E+00  0.35567825533E+02  0.35590491892E+02  0.12700000000E+01 0. -1.
         -4   -1    0    0    0  501 -0.00000000000E+00 -0.00000000000E+00 -0.10975669477E+03  0.10976404214E+03  0.12700000000E+01 0. -1.
         25    2    1    2    0    0  0.00000000000E+00  0.00000000000E+00 -0.74188869241E+02  0.14535453404E+03  0.12499580891E+03 0.  0.
    9000005    1    3    3    0    0  0.59516264801E+02  0.16628547638E+02 -0.26291975058E+02  0.67163697969E+02  0.10000000000E+01 0.  0.
    9000005    1    3    3    0    0 -0.59516264801E+02 -0.16628547638E+02 -0.47896894183E+02  0.78190836066E+02  0.10000000000E+01 0.  0.
<mgrwt>
<rscale>  0 0.12499581E+03</rscale>
<asrwt>0</asrwt>
<pdfrwt beam="1">  1        4 0.54742820E-02 0.12499581E+03</pdfrwt>
<pdfrwt beam="2">  1       -4 0.16887954E-01 0.12499581E+03</pdfrwt>
<totfact> 0.10024736E+04</totfact>
</mgrwt>
</event>
<event>
 5    1  0.3304582E-002  0.1249992E+03  0.7818608E-02  0.1235071E+00
          4   -1    0    0  501    0  0.00000000000E+00  0.00000000000E+00  0.70957695582E+01  0.72085258980E+01  0.12700000000E+01 0. -1.
         -4   -1    0    0    0  501 -0.00000000000E+00 -0.00000000000E+00 -0.54604410214E+03  0.54604557903E+03  0.12700000000E+01 0. -1.
         25    2    1    2    0    0  0.00000000000E+00  0.00000000000E+00 -0.53894833258E+03  0.55325410493E+03  0.12499919772E+03 0.  0.
    9000005    1    3    3    0    0 -0.25331958220E+02 -0.23995538978E+02 -0.40013479890E+02  0.53099647560E+02  0.10000000000E+01 0.  0.
    9000005    1    3    3    0    0  0.25331958220E+02  0.23995538978E+02 -0.49893485269E+03  0.50015445737E+03  0.10000000000E+01 0.  0.
<mgrwt>
<rscale>  0 0.12499920E+03</rscale>
<asrwt>0</asrwt>
<pdfrwt beam="1">  1        4 0.11004445E-02 0.12499920E+03</pdfrwt>
<pdfrwt beam="2">  1       -4 0.84015539E-01 0.12499920E+03</pdfrwt>
<totfact> 0.51958796E+03</totfact>
</mgrwt>
</event>
<event>
 5    1  0.3304582E-002  0.1250064E+03  0.7818608E-02  0.1235059E+00
         -4   -1    0    0    0  501 -0.00000000000E+00  0.00000000000E+00  0.30907568979E+02  0.30933650289E+02  0.12700000000E+01 0. -1.
          4   -1    0    0  501    0  0.00000000000E+00 -0.00000000000E+00 -0.12631522839E+03  0.12632161265E+03  0.12700000000E+01 0. -1.
         25    2    1    2    0    0  0.00000000000E+00  0.00000000000E+00 -0.95407659407E+02  0.15725526294E+03  0.12500638483E+03 0.  0.
    9000005    1    3    3    0    0  0.39605456960E+02  0.47034592115E+02 -0.61757417814E+02  0.87154023037E+02  0.10000000000E+01 0.  0.
    9000005    1    3    3    0    0 -0.39605456960E+02 -0.47034592115E+02 -0.33650241593E+02  0.70101239902E+02  0.10000000000E+01 0.  0.
<mgrwt>
<rscale>  0 0.12500638E+03</rscale>
<asrwt>0</asrwt>
<pdfrwt beam="2">  1        4 0.19435609E-01 0.12500638E+03</pdfrwt>
<pdfrwt beam="1">  1       -4 0.47575080E-02 0.12500638E+03</pdfrwt>
<totfact> 0.97860524E+03</totfact>
</mgrwt>
</event>
<event>
 5    1  0.3304582E-002  0.1250084E+03  0.7818608E-02  0.1235056E+00
          4   -1    0    0  501    0  0.00000000000E+00  0.00000000000E+00  0.23801286533E+02  0.23835145072E+02  0.12700000000E+01 0. -1.
         -4   -1    0    0    0  501 -0.00000000000E+00 -0.00000000000E+00 -0.16398829395E+03  0.16399321160E+03  0.12700000000E+01 0. -1.
         25    2    1    2    0    0  0.00000000000E+00  0.00000000000E+00 -0.14018700741E+03  0.18782835667E+03  0.12500837781E+03 0.  0.
    9000005    1    3    3    0    0 -0.30589689992E+02  0.12603248487E+02 -0.14975860526E+03  0.15337278395E+03  0.10000000000E+01 0.  0.
    9000005    1    3    3    0    0  0.30589689992E+02 -0.12603248487E+02  0.95715978510E+01  0.34455572723E+02  0.10000000000E+01 0.  0.
<mgrwt>
<rscale>  0 0.12500838E+03</rscale>
<asrwt>0</asrwt>
<pdfrwt beam="1">  1        4 0.36647193E-02 0.12500838E+03</pdfrwt>
<pdfrwt beam="2">  1       -4 0.25231950E-01 0.12500838E+03</pdfrwt>
<totfact> 0.92209243E+03</totfact>
</mgrwt>
</event>
<event>
 5    1  0.3304582E-002  0.1249884E+03  0.7818608E-02  0.1235087E+00
         -4   -1    0    0    0  501 -0.00000000000E+00  0.00000000000E+00  0.32617023173E+03  0.32617270420E+03  0.12700000000E+01 0.  1.
          4   -1    0    0  501    0  0.00000000000E+00 -0.00000000000E+00 -0.11937686459E+02  0.12005051353E+02  0.12700000000E+01 0.  1.
         25    2    1    2    0    0  0.00000000000E+00  0.00000000000E+00  0.31423254527E+03  0.33817775555E+03  0.12498840684E+03 0.  0.
    9000005    1    3    3    0    0  0.40953746334E+01  0.42149357091E+02  0.28143554441E+03  0.28460552709E+03  0.10000000000E+01 0.  0.
    9000005    1    3    3    0    0 -0.40953746334E+01 -0.42149357091E+02  0.32797000858E+02  0.53572228457E+02  0.10000000000E+01 0.  0.
<mgrwt>
<rscale>  0 0.12498841E+03</rscale>
<asrwt>0</asrwt>
<pdfrwt beam="2">  1        4 0.18419393E-02 0.12498841E+03</pdfrwt>
<pdfrwt beam="1">  1       -4 0.50185407E-01 0.12498841E+03</pdfrwt>
<totfact> 0.71063274E+03</totfact>
</mgrwt>
</event>
<event>
 5    1  0.3304582E-002  0.1249971E+03  0.7818608E-02  0.1235074E+00
         -4   -1    0    0    0  501 -0.00000000000E+00  0.00000000000E+00  0.13243012829E+02  0.13303769721E+02  0.12700000000E+01 0. -1.
          4   -1    0    0  501    0  0.00000000000E+00 -0.00000000000E+00 -0.29421592903E+03  0.29421867003E+03  0.12700000000E+01 0. -1.
         25    2    1    2    0    0  0.00000000000E+00  0.00000000000E+00 -0.28097291620E+03  0.30752243975E+03  0.12499708522E+03 0.  0.
    9000005    1    3    3    0    0 -0.32643887693E+02 -0.37244051539E+02 -0.46728349069E+02  0.68097587222E+02  0.10000000000E+01 0.  0.
    9000005    1    3    3    0    0  0.32643887693E+02  0.37244051539E+02 -0.23424456713E+03  0.23942485253E+03  0.10000000000E+01 0.  0.
<mgrwt>
<rscale>  0 0.12499709E+03</rscale>
<asrwt>0</asrwt>
<pdfrwt beam="2">  1        4 0.45268869E-01 0.12499709E+03</pdfrwt>
<pdfrwt beam="1">  1       -4 0.20422713E-02 0.12499709E+03</pdfrwt>
<totfact> 0.74669655E+03</totfact>
</mgrwt>
</event>
<event>
 5    1  0.3304582E-002  0.1249910E+03  0.7818608E-02  0.1235083E+00
         -4   -1    0    0    0  501 -0.00000000000E+00  0.00000000000E+00  0.33748711483E+03  0.33748950440E+03  0.12700000000E+01 0. -1.
          4   -1    0    0  501    0  0.00000000000E+00 -0.00000000000E+00 -0.11535568759E+02  0.11605268053E+02  0.12700000000E+01 0. -1.
         25    2    1    2    0    0  0.00000000000E+00  0.00000000000E+00  0.32595154607E+03  0.34909477245E+03  0.12499099873E+03 0.  0.
    9000005    1    3    3    0    0 -0.78629187962E+01 -0.61493607520E+02  0.14109098386E+03  0.15411344842E+03  0.10000000000E+01 0.  0.
    9000005    1    3    3    0    0  0.78629187962E+01  0.61493607520E+02  0.18486056221E+03  0.19498132403E+03  0.10000000000E+01 0.  0.
<mgrwt>
<rscale>  0 0.12499100E+03</rscale>
<asrwt>0</asrwt>
<pdfrwt beam="2">  1        4 0.17802480E-02 0.12499100E+03</pdfrwt>
<pdfrwt beam="1">  1       -4 0.51926644E-01 0.12499100E+03</pdfrwt>
<totfact> 0.69838164E+03</totfact>
</mgrwt>
</event>
<event>
 4    1  0.3304582E-002  0.1248486E+03  0.7818608E-02  0.1235306E+00
          4   -1    0    0  501    0  0.00000000000E+00  0.00000000000E+00  0.98398593528E+02  0.98406788934E+02  0.12700000000E+01 0. -1.
         -4   -1    0    0    0  501 -0.00000000000E+00 -0.00000000000E+00 -0.39582097675E+02  0.39602466544E+02  0.12700000000E+01 0. -1.
    9000005    1    1    2    0    0 -0.51961871379E+02  0.12697702041E+02  0.64962798815E+02  0.84157191874E+02  0.10000000000E+01 0.  0.
    9000005    1    1    2    0    0  0.51961871379E+02 -0.12697702041E+02 -0.61463029622E+01  0.53852063604E+02  0.10000000000E+01 0.  0.
<mgrwt>
<rscale>  0 0.12484861E+03</rscale>
<asrwt>0</asrwt>
<pdfrwt beam="1">  1        4 0.15140442E-01 0.12484861E+03</pdfrwt>
<pdfrwt beam="2">  1       -4 0.60917507E-02 0.12484861E+03</pdfrwt>
<totfact> 0.10209803E+04</totfact>
</mgrwt>
</event>
<event>
 5    1  0.3304582E-002  0.1250055E+03  0.7818608E-02  0.1235061E+00
         -4   -1    0    0    0  501 -0.00000000000E+00  0.00000000000E+00  0.54424455159E+02  0.54439270930E+02  0.12700000000E+01 0. -1.
          4   -1    0    0  501    0  0.00000000000E+00 -0.00000000000E+00 -0.71749938114E+02  0.71761176965E+02  0.12700000000E+01 0. -1.
         25    2    1    2    0    0  0.00000000000E+00  0.00000000000E+00 -0.17325482955E+02  0.12620044789E+03  0.12500552263E+03 0.  0.
    9000005    1    3    3    0    0 -0.31398586030E+02  0.14817617206E+02 -0.61122540412E+02  0.70302190085E+02  0.10000000000E+01 0.  0.
    9000005    1    3    3    0    0  0.31398586030E+02 -0.14817617206E+02  0.43797057457E+02  0.55898257810E+02  0.10000000000E+01 0.  0.
<mgrwt>
<rscale>  0 0.12500552E+03</rscale>
<asrwt>0</asrwt>
<pdfrwt beam="2">  1        4 0.11040456E-01 0.12500552E+03</pdfrwt>
<pdfrwt beam="1">  1       -4 0.83749973E-02 0.12500552E+03</pdfrwt>
<totfact> 0.10425270E+04</totfact>
</mgrwt>
</event>
<event>
 5    1  0.3304582E-002  0.1249956E+03  0.7818608E-02  0.1235076E+00
         -4   -1    0    0    0  501 -0.00000000000E+00  0.00000000000E+00  0.20423611791E+01  0.24050237391E+01  0.12700000000E+01 0. -1.
          4   -1    0    0  501    0  0.00000000000E+00 -0.00000000000E+00 -0.17561632445E+04  0.17561637038E+04  0.12700000000E+01 0. -1.
         25    2    1    2    0    0  0.00000000000E+00  0.00000000000E+00 -0.17541208834E+04  0.17585687275E+04  0.12499558338E+03 0.  0.
    9000005    1    3    3    0    0 -0.59495787900E+02 -0.10838589070E+02 -0.10985083911E+04  0.11001722180E+04  0.10000000000E+01 0.  0.
    9000005    1    3    3    0    0  0.59495787900E+02  0.10838589070E+02 -0.65561249222E+03  0.65839650952E+03  0.10000000000E+01 0.  0.
<mgrwt>
<rscale>  0 0.12499558E+03</rscale>
<asrwt>0</asrwt>
<pdfrwt beam="2">  1        4 0.27020578E+00 0.12499558E+03</pdfrwt>
<pdfrwt beam="1">  1       -4 0.34214326E-03 0.12499558E+03</pdfrwt>
<totfact> 0.13354143E+03</totfact>
</mgrwt>
</event>
<event>
 5    1  0.3304582E-002  0.1249981E+03  0.7818608E-02  0.1235072E+00
         -4   -1    0    0    0  501 -0.00000000000E+00  0.00000000000E+00  0.60559857940E+02  0.60573173053E+02  0.12700000000E+01 0. -1.
          4   -1    0    0  501    0  0.00000000000E+00 -0.00000000000E+00 -0.64473628841E+02  0.64486135843E+02  0.12700000000E+01 0. -1.
         25    2    1    2    0    0  0.00000000000E+00  0.00000000000E+00 -0.39137709014E+01  0.12505930890E+03  0.12499805254E+03 0.  0.
    9000005    1    3    3    0    0 -0.56865886750E+02  0.77608405986E+01  0.22777053287E+02  0.61755597958E+02  0.10000000000E+01 0.  0.
    9000005    1    3    3    0    0  0.56865886750E+02 -0.77608405986E+01 -0.26690824188E+02  0.63303710938E+02  0.10000000000E+01 0.  0.
<mgrwt>
<rscale>  0 0.12499805E+03</rscale>
<asrwt>0</asrwt>
<pdfrwt beam="2">  1        4 0.99210062E-02 0.12499805E+03</pdfrwt>
<pdfrwt beam="1">  1       -4 0.93188875E-02 0.12499805E+03</pdfrwt>
<totfact> 0.10452035E+04</totfact>
</mgrwt>
</event>
<event>
 5    1  0.3304582E-002  0.1250038E+03  0.7818608E-02  0.1235063E+00
          4   -1    0    0  501    0  0.00000000000E+00  0.00000000000E+00  0.17310637451E+02  0.17357161893E+02  0.12700000000E+01 0. -1.
         -4   -1    0    0    0  501 -0.00000000000E+00 -0.00000000000E+00 -0.22531846681E+03  0.22532204593E+03  0.12700000000E+01 0. -1.
         25    2    1    2    0    0  0.00000000000E+00  0.00000000000E+00 -0.20800782936E+03  0.24267920783E+03  0.12500376330E+03 0.  0.
    9000005    1    3    3    0    0 -0.41524867203E+02 -0.21128051631E+02 -0.23144389015E+02  0.52032412060E+02  0.10000000000E+01 0.  0.
    9000005    1    3    3    0    0  0.41524867203E+02  0.21128051631E+02 -0.18486344034E+03  0.19064679577E+03  0.10000000000E+01 0.  0.
<mgrwt>
<rscale>  0 0.12500376E+03</rscale>
<asrwt>0</asrwt>
<pdfrwt beam="1">  1        4 0.26670293E-02 0.12500376E+03</pdfrwt>
<pdfrwt beam="2">  1       -4 0.34668231E-01 0.12500376E+03</pdfrwt>
<totfact> 0.83392964E+03</totfact>
</mgrwt>
</event>
<event>
 5    1  0.3304582E-002  0.1250028E+03  0.7818608E-02  0.1235065E+00
          4   -1    0    0  501    0  0.00000000000E+00  0.00000000000E+00  0.30493529808E+02  0.30519964943E+02  0.12700000000E+01 0.  1.
         -4   -1    0    0    0  501 -0.00000000000E+00 -0.00000000000E+00 -0.12802168520E+03  0.12802798437E+03  0.12700000000E+01 0.  1.
         25    2    1    2    0    0  0.00000000000E+00  0.00000000000E+00 -0.97528155393E+02  0.15854794931E+03  0.12500284452E+03 0.  0.
    9000005    1    3    3    0    0 -0.41854498049E+01 -0.45443341529E+02 -0.10291573255E+03  0.11258447178E+03  0.10000000000E+01 0.  0.
    9000005    1    3    3    0    0  0.41854498049E+01  0.45443341529E+02  0.53875771573E+01  0.45963477534E+02  0.10000000000E+01 0.  0.
<mgrwt>
<rscale>  0 0.12500284E+03</rscale>
<asrwt>0</asrwt>
<pdfrwt beam="1">  1        4 0.46938304E-02 0.12500284E+03</pdfrwt>
<pdfrwt beam="2">  1       -4 0.19698162E-01 0.12500284E+03</pdfrwt>
<totfact> 0.97617219E+03</totfact>
</mgrwt>
</event>
<event>
 5    1  0.3304582E-002  0.1249949E+03  0.7818608E-02  0.1235077E+00
          4   -1    0    0  501    0  0.00000000000E+00  0.00000000000E+00  0.12143419497E+03  0.12144083584E+03  0.12700000000E+01 0. -1.
         -4   -1    0    0    0  501 -0.00000000000E+00 -0.00000000000E+00 -0.32144966306E+02  0.32170044433E+02  0.12700000000E+01 0. -1.
         25    2    1    2    0    0  0.00000000000E+00  0.00000000000E+00  0.89289228666E+02  0.15361088027E+03  0.12499494462E+03 0.  0.
    9000005    1    3    3    0    0  0.30928127249E+02 -0.24974738579E+02  0.10389730494E+03  0.11124718691E+03  0.10000000000E+01 0.  0.
    9000005    1    3    3    0    0 -0.30928127249E+02  0.24974738579E+02 -0.14608076275E+02  0.42363693355E+02  0.10000000000E+01 0.  0.
<mgrwt>
<rscale>  0 0.12499494E+03</rscale>
<asrwt>0</asrwt>
<pdfrwt beam="1">  1        4 0.18684624E-01 0.12499494E+03</pdfrwt>
<pdfrwt beam="2">  1       -4 0.49478193E-02 0.12499494E+03</pdfrwt>
<totfact> 0.98599945E+03</totfact>
</mgrwt>
</event>
<event>
 5    1  0.3304582E-002  0.1249906E+03  0.7818608E-02  0.1235084E+00
         -4   -1    0    0    0  501 -0.00000000000E+00  0.00000000000E+00  0.11549628979E+02  0.11619243932E+02  0.12700000000E+01 0.  1.
          4   -1    0    0  501    0  0.00000000000E+00 -0.00000000000E+00 -0.33707668500E+03  0.33707907748E+03  0.12700000000E+01 0.  1.
         25    2    1    2    0    0  0.00000000000E+00  0.00000000000E+00 -0.32552705602E+03  0.34869832141E+03  0.12499062025E+03 0.  0.
    9000005    1    3    3    0    0 -0.53471872471E+02  0.18551445065E+02 -0.23664133387E+03  0.24331773087E+03  0.10000000000E+01 0.  0.
    9000005    1    3    3    0    0  0.53471872471E+02 -0.18551445065E+02 -0.88885722155E+02  0.10538059054E+03  0.10000000000E+01 0.  0.
<mgrwt>
<rscale>  0 0.12499062E+03</rscale>
<asrwt>0</asrwt>
<pdfrwt beam="2">  1        4 0.51863483E-01 0.12499062E+03</pdfrwt>
<pdfrwt beam="1">  1       -4 0.17824053E-02 0.12499062E+03</pdfrwt>
<totfact> 0.69882503E+03</totfact>
</mgrwt>
</event>
<event>
 5    1  0.3304582E-002  0.1249991E+03  0.7818608E-02  0.1235071E+00
         -4   -1    0    0    0  501 -0.00000000000E+00  0.00000000000E+00  0.45909657845E+02  0.45927220507E+02  0.12700000000E+01 0.  1.
          4   -1    0    0  501    0  0.00000000000E+00 -0.00000000000E+00 -0.85045842540E+02  0.85055324544E+02  0.12700000000E+01 0.  1.
         25    2    1    2    0    0  0.00000000000E+00  0.00000000000E+00 -0.39136184694E+02  0.13098254505E+03  0.12499914462E+03 0.  0.
    9000005    1    3    3    0    0 -0.19377295769E+02  0.16539540644E+02  0.40226139120E+02  0.47625395164E+02  0.10000000000E+01 0.  0.
    9000005    1    3    3    0    0  0.19377295769E+02 -0.16539540644E+02 -0.79362323814E+02  0.83357149886E+02  0.10000000000E+01 0.  0.
<mgrwt>
<rscale>  0 0.12499914E+03</rscale>
<asrwt>0</asrwt>
<pdfrwt beam="2">  1        4 0.13086056E-01 0.12499914E+03</pdfrwt>
<pdfrwt beam="1">  1       -4 0.70651046E-02 0.12499914E+03</pdfrwt>
<totfact> 0.10323663E+04</totfact>
</mgrwt>
</event>
<event>
 5    1  0.3304582E-002  0.1250015E+03  0.7818608E-02  0.1235067E+00
          4   -1    0    0  501    0  0.00000000000E+00  0.00000000000E+00  0.22777844054E+02  0.22813221600E+02  0.12700000000E+01 0.  1.
         -4   -1    0    0    0  501 -0.00000000000E+00 -0.00000000000E+00 -0.17132657350E+03  0.17133128053E+03  0.12700000000E+01 0.  1.
         25    2    1    2    0    0  0.00000000000E+00  0.00000000000E+00 -0.14854872945E+03  0.19414450213E+03  0.12500145074E+03 0.  0.
    9000005    1    3    3    0    0  0.22642975808E+02  0.58023291805E+02 -0.66364953067E+02  0.91020402883E+02  0.10000000000E+01 0.  0.
    9000005    1    3    3    0    0 -0.22642975808E+02 -0.58023291805E+02 -0.82183776384E+02  0.10312409925E+03  0.10000000000E+01 0.  0.
<mgrwt>
<rscale>  0 0.12500145E+03</rscale>
<asrwt>0</asrwt>
<pdfrwt beam="1">  1        4 0.35073672E-02 0.12500145E+03</pdfrwt>
<pdfrwt beam="2">  1       -4 0.26361017E-01 0.12500145E+03</pdfrwt>
<totfact> 0.91128184E+03</totfact>
</mgrwt>
</event>
<event>
 5    1  0.3304582E-002  0.1250013E+03  0.7818608E-02  0.1235067E+00
          4   -1    0    0  501    0  0.00000000000E+00  0.00000000000E+00  0.57639619659E+03  0.57639759571E+03  0.12700000000E+01 0. -1.
         -4   -1    0    0    0  501 -0.00000000000E+00 -0.00000000000E+00 -0.67162409699E+01  0.68352609874E+01  0.12700000000E+01 0. -1.
         25    2    1    2    0    0  0.00000000000E+00  0.00000000000E+00  0.56967995562E+03  0.58323285670E+03  0.12500125319E+03 0.  0.
    9000005    1    3    3    0    0  0.55564209352E+02 -0.64985756091E+01  0.15488921176E+03  0.16468539937E+03  0.10000000000E+01 0.  0.
    9000005    1    3    3    0    0 -0.55564209352E+02  0.64985756091E+01  0.41479074386E+03  0.41854745733E+03  0.10000000000E+01 0.  0.
<mgrwt>
<rscale>  0 0.12500125E+03</rscale>
<asrwt>0</asrwt>
<pdfrwt beam="1">  1        4 0.88685598E-01 0.12500125E+03</pdfrwt>
<pdfrwt beam="2">  1       -4 0.10425309E-02 0.12500125E+03</pdfrwt>
<totfact> 0.49942026E+03</totfact>
</mgrwt>
</event>
<event>
 5    1  0.3304582E-002  0.1250014E+03  0.7818608E-02  0.1235067E+00
          4   -1    0    0  501    0  0.00000000000E+00  0.00000000000E+00  0.72769394779E+03  0.72769505601E+03  0.12700000000E+01 0. -1.
         -4   -1    0    0    0  501 -0.00000000000E+00 -0.00000000000E+00 -0.52918627001E+01  0.54421237432E+01  0.12700000000E+01 0. -1.
         25    2    1    2    0    0  0.00000000000E+00  0.00000000000E+00  0.72240208509E+03  0.73313717976E+03  0.12500140720E+03 0.  0.
    9000005    1    3    3    0    0 -0.19155358289E+02 -0.29577772423E+02  0.66389380670E+03  0.66482912011E+03  0.10000000000E+01 0.  0.
    9000005    1    3    3    0    0  0.19155358289E+02  0.29577772423E+02  0.58508278386E+02  0.68308059645E+02  0.10000000000E+01 0.  0.
<mgrwt>
<rscale>  0 0.12500141E+03</rscale>
<asrwt>0</asrwt>
<pdfrwt beam="1">  1        4 0.11196454E+00 0.12500141E+03</pdfrwt>
<pdfrwt beam="2">  1       -4 0.82577663E-03 0.12500141E+03</pdfrwt>
<totfact> 0.41392695E+03</totfact>
</mgrwt>
</event>
<event>
 5    1  0.3304582E-002  0.1249963E+03  0.7818608E-02  0.1235075E+00
          4   -1    0    0  501    0  0.00000000000E+00  0.00000000000E+00  0.73823005391E+03  0.73823114632E+03  0.12700000000E+01 0.  1.
         -4   -1    0    0    0  501 -0.00000000000E+00 -0.00000000000E+00 -0.52137350569E+01  0.53661842350E+01  0.12700000000E+01 0.  1.
         25    2    1    2    0    0  0.00000000000E+00  0.00000000000E+00  0.73301631886E+03  0.74359733056E+03  0.12499626515E+03 0.  0.
    9000005    1    3    3    0    0  0.36987952870E+01 -0.46264408980E+02  0.11757863385E+03  0.12641128020E+03  0.10000000000E+01 0.  0.
    9000005    1    3    3    0    0 -0.36987952870E+01  0.46264408980E+02  0.61543768501E+03  0.61718605035E+03  0.10000000000E+01 0.  0.
<mgrwt>
<rscale>  0 0.12499627E+03</rscale>
<asrwt>0</asrwt>
<pdfrwt beam="1">  1        4 0.11358566E+00 0.12499627E+03</pdfrwt>
<pdfrwt beam="2">  1       -4 0.81392400E-03 0.12499627E+03</pdfrwt>
<totfact> 0.40885602E+03</totfact>
</mgrwt>
</event>
<event>
 5    1  0.3304582E-002  0.1250187E+03  0.7818608E-02  0.1235040E+00
         -4   -1    0    0    0  501 -0.00000000000E+00  0.00000000000E+00  0.66533276367E+01  0.67734532287E+01  0.12700000000E+01 0.  1.
          4   -1    0    0  501    0  0.00000000000E+00 -0.00000000000E+00 -0.58191292486E+03  0.58191431072E+03  0.12700000000E+01 0.  1.
         25    2    1    2    0    0  0.00000000000E+00  0.00000000000E+00 -0.57525959723E+03  0.58868776395E+03  0.12501871549E+03 0.  0.
    9000005    1    3    3    0    0  0.43876766771E+02 -0.36455446330E+02 -0.16737099487E+03  0.17682822217E+03  0.10000000000E+01 0.  0.
    9000005    1    3    3    0    0 -0.43876766771E+02  0.36455446330E+02 -0.40788860235E+03  0.41185954178E+03  0.10000000000E+01 0.  0.
<mgrwt>
<rscale>  0 0.12501872E+03</rscale>
<asrwt>0</asrwt>
<pdfrwt beam="2">  1        4 0.89534372E-01 0.12501872E+03</pdfrwt>
<pdfrwt beam="1">  1       -4 0.10329364E-02 0.12501872E+03</pdfrwt>
<totfact> 0.49569212E+03</totfact>
</mgrwt>
</event>
<event>
 5    1  0.3304582E-002  0.1249945E+03  0.7818608E-02  0.1235078E+00
          4   -1    0    0  501    0  0.00000000000E+00  0.00000000000E+00  0.53833105874E+03  0.53833255679E+03  0.12700000000E+01 0. -1.
         -4   -1    0    0    0  501 -0.00000000000E+00 -0.00000000000E+00 -0.71984925466E+01  0.73096644891E+01  0.12700000000E+01 0. -1.
         25    2    1    2    0    0  0.00000000000E+00  0.00000000000E+00  0.53113256619E+03  0.54564222128E+03  0.12499452298E+03 0.  0.
    9000005    1    3    3    0    0 -0.30615166325E+02  0.27825146434E+01  0.28071644905E+02  0.41641902508E+02  0.10000000000E+01 0.  0.
    9000005    1    3    3    0    0  0.30615166325E+02 -0.27825146434E+01  0.50306092128E+03  0.50400031877E+03  0.10000000000E+01 0.  0.
<mgrwt>
<rscale>  0 0.12499452E+03</rscale>
<asrwt>0</asrwt>
<pdfrwt beam="1">  1        4 0.82828836E-01 0.12499452E+03</pdfrwt>
<pdfrwt beam="2">  1       -4 0.11161272E-02 0.12499452E+03</pdfrwt>
<totfact> 0.52495515E+03</totfact>
</mgrwt>
</event>
<event>
 5    1  0.3304582E-002  0.1250007E+03  0.7818608E-02  0.1235068E+00
         -4   -1    0    0    0  501 -0.00000000000E+00  0.00000000000E+00  0.45470862536E+02  0.45488594612E+02  0.12700000000E+01 0.  1.
          4   -1    0    0  501    0  0.00000000000E+00 -0.00000000000E+00 -0.85868412855E+02  0.85877804037E+02  0.12700000000E+01 0.  1.
         25    2    1    2    0    0  0.00000000000E+00  0.00000000000E+00 -0.40397550319E+02  0.13136639865E+03  0.12500067449E+03 0.  0.
    9000005    1    3    3    0    0 -0.12504272642E+01 -0.33304627279E+02  0.35356634710E+02  0.48598903121E+02  0.10000000000E+01 0.  0.
    9000005    1    3    3    0    0  0.12504272642E+01  0.33304627279E+02 -0.75754185028E+02  0.82767495527E+02  0.10000000000E+01 0.  0.
<mgrwt>
<rscale>  0 0.12500067E+03</rscale>
<asrwt>0</asrwt>
<pdfrwt beam="2">  1        4 0.13212611E-01 0.12500067E+03</pdfrwt>
<pdfrwt beam="1">  1       -4 0.69976037E-02 0.12500067E+03</pdfrwt>
<totfact> 0.10315084E+04</totfact>
</mgrwt>
</event>
<event>
 5    1  0.3304582E-002  0.1249842E+03  0.7818608E-02  0.1235094E+00
          4   -1    0    0  501    0  0.00000000000E+00  0.00000000000E+00  0.11914363845E+03  0.11915040697E+03  0.12700000000E+01 0. -1.
         -4   -1    0    0    0  501 -0.00000000000E+00 -0.00000000000E+00 -0.32757753596E+02  0.32782362951E+02  0.12700000000E+01 0. -1.
         25    2    1    2    0    0  0.00000000000E+00  0.00000000000E+00  0.86385884851E+02  0.15193276993E+03  0.12498418090E+03 0.  0.
    9000005    1    3    3    0    0 -0.23233908434E+02  0.60622911361E+00 -0.27313617098E+02  0.35877788308E+02  0.10000000000E+01 0.  0.
    9000005    1    3    3    0    0  0.23233908434E+02 -0.60622911361E+00  0.11369950195E+03  0.11605498162E+03  0.10000000000E+01 0.  0.
<mgrwt>
<rscale>  0 0.12498418E+03</rscale>
<asrwt>0</asrwt>
<pdfrwt beam="1">  1        4 0.18332204E-01 0.12498418E+03</pdfrwt>
<pdfrwt beam="2">  1       -4 0.50420682E-02 0.12498418E+03</pdfrwt>
<totfact> 0.98955034E+03</totfact>
</mgrwt>
</event>
<event>
 5    1  0.3304582E-002  0.1250076E+03  0.7818608E-02  0.1235057E+00
          4   -1    0    0  501    0  0.00000000000E+00  0.00000000000E+00  0.39267056615E+03  0.39267261990E+03  0.12700000000E+01 0. -1.
         -4   -1    0    0    0  501 -0.00000000000E+00 -0.00000000000E+00 -0.99065031211E+01  0.99875774884E+01  0.12700000000E+01 0. -1.
         25    2    1    2    0    0  0.00000000000E+00  0.00000000000E+00  0.38276406303E+03  0.40266019739E+03  0.12500762623E+03 0.  0.
    9000005    1    3    3    0    0  0.55692151822E+02 -0.97600825970E+01  0.27714106468E+03  0.28285163022E+03  0.10000000000E+01 0.  0.
    9000005    1    3    3    0    0 -0.55692151822E+02  0.97600825970E+01  0.10562299835E+03  0.11980856717E+03  0.10000000000E+01 0.  0.
<mgrwt>
<rscale>  0 0.12500763E+03</rscale>
<asrwt>0</asrwt>
<pdfrwt beam="1">  1        4 0.60417241E-01 0.12500763E+03</pdfrwt>
<pdfrwt beam="2">  1       -4 0.15304721E-02 0.12500763E+03</pdfrwt>
<totfact> 0.64284063E+03</totfact>
</mgrwt>
</event>
<event>
 5    1  0.3304582E-002  0.1250002E+03  0.7818608E-02  0.1235069E+00
         -4   -1    0    0    0  501 -0.00000000000E+00  0.00000000000E+00  0.78493452522E+03  0.78493555263E+03  0.12700000000E+01 0. -1.
          4   -1    0    0  501    0  0.00000000000E+00 -0.00000000000E+00 -0.48944704790E+01  0.50565542882E+01  0.12700000000E+01 0. -1.
         25    2    1    2    0    0  0.00000000000E+00  0.00000000000E+00  0.78004005474E+03  0.78999210692E+03  0.12500016797E+03 0.  0.
    9000005    1    3    3    0    0  0.17822817527E+02 -0.59895944271E+02  0.38819343169E+03  0.39319246861E+03  0.10000000000E+01 0.  0.
    9000005    1    3    3    0    0 -0.17822817527E+02  0.59895944271E+02  0.39184662305E+03  0.39679963831E+03  0.10000000000E+01 0.  0.
<mgrwt>
<rscale>  0 0.12500017E+03</rscale>
<asrwt>0</asrwt>
<pdfrwt beam="2">  1        4 0.76554304E-03 0.12500017E+03</pdfrwt>
<pdfrwt beam="1">  1       -4 0.12077162E+00 0.12500017E+03</pdfrwt>
<totfact> 0.38715313E+03</totfact>
</mgrwt>
</event>
<event>
 5    1  0.3304582E-002  0.1250436E+03  0.7818608E-02  0.1235001E+00
          4   -1    0    0  501    0  0.00000000000E+00  0.00000000000E+00  0.33734266448E+03  0.33734505506E+03  0.12700000000E+01 0.  1.
         -4   -1    0    0    0  501 -0.00000000000E+00 -0.00000000000E+00 -0.11550319735E+02  0.11619930550E+02  0.12700000000E+01 0.  1.
         25    2    1    2    0    0  0.00000000000E+00  0.00000000000E+00  0.32579234474E+03  0.34896498561E+03  0.12504362955E+03 0.  0.
    9000005    1    3    3    0    0  0.10364115622E+02  0.31975757880E+02  0.30999027517E+03  0.31180897147E+03  0.10000000000E+01 0.  0.
    9000005    1    3    3    0    0 -0.10364115622E+02 -0.31975757880E+02  0.15802069567E+02  0.37156014146E+02  0.10000000000E+01 0.  0.
<mgrwt>
<rscale>  0 0.12504363E+03</rscale>
<asrwt>0</asrwt>
<pdfrwt beam="1">  1        4 0.51904415E-01 0.12504363E+03</pdfrwt>
<pdfrwt beam="2">  1       -4 0.17825107E-02 0.12504363E+03</pdfrwt>
<totfact> 0.69771173E+03</totfact>
</mgrwt>
</event>
<event>
 5    1  0.3304582E-002  0.1249989E+03  0.7818608E-02  0.1235071E+00
          4   -1    0    0  501    0  0.00000000000E+00  0.00000000000E+00  0.13595290451E+03  0.13595883621E+03  0.12700000000E+01 0. -1.
         -4   -1    0    0    0  501 -0.00000000000E+00 -0.00000000000E+00 -0.28711265877E+02  0.28739340429E+02  0.12700000000E+01 0. -1.
         25    2    1    2    0    0  0.00000000000E+00  0.00000000000E+00  0.10724163863E+03  0.16469817664E+03  0.12499888132E+03 0.  0.
    9000005    1    3    3    0    0 -0.43344498186E+01  0.50599880656E+02  0.10160098549E+03  0.11359091350E+03  0.10000000000E+01 0.  0.
    9000005    1    3    3    0    0  0.43344498186E+01 -0.50599880656E+02  0.56406531401E+01  0.51107263138E+02  0.10000000000E+01 0.  0.
<mgrwt>
<rscale>  0 0.12499888E+03</rscale>
<asrwt>0</asrwt>
<pdfrwt beam="1">  1        4 0.20918448E-01 0.12499888E+03</pdfrwt>
<pdfrwt beam="2">  1       -4 0.44197336E-02 0.12499888E+03</pdfrwt>
<totfact> 0.96447007E+03</totfact>
</mgrwt>
</event>
<event>
 5    1  0.3304582E-002  0.1249962E+03  0.7818608E-02  0.1235075E+00
          4   -1    0    0  501    0  0.00000000000E+00  0.00000000000E+00  0.33490907465E+02  0.33514978485E+02  0.12700000000E+01 0. -1.
         -4   -1    0    0    0  501 -0.00000000000E+00 -0.00000000000E+00 -0.11655958039E+03  0.11656649896E+03  0.12700000000E+01 0. -1.
         25    2    1    2    0    0  0.00000000000E+00  0.00000000000E+00 -0.83068672924E+02  0.15008147745E+03  0.12499618175E+03 0.  0.
    9000005    1    3    3    0    0 -0.56878929446E+02  0.25469018793E+02 -0.36015369505E+02  0.71986042909E+02  0.10000000000E+01 0.  0.
    9000005    1    3    3    0    0  0.56878929446E+02 -0.25469018793E+02 -0.47053303419E+02  0.78095434539E+02  0.10000000000E+01 0.  0.
<mgrwt>
<rscale>  0 0.12499618E+03</rscale>
<asrwt>0</asrwt>
<pdfrwt beam="1">  1        4 0.51548312E-02 0.12499618E+03</pdfrwt>
<pdfrwt beam="2">  1       -4 0.17934627E-01 0.12499618E+03</pdfrwt>
<totfact> 0.99295992E+03</totfact>
</mgrwt>
</event>
<event>
 5    1  0.3304582E-002  0.1249982E+03  0.7818608E-02  0.1235072E+00
         -4   -1    0    0    0  501 -0.00000000000E+00  0.00000000000E+00  0.41083884849E+02  0.41103509513E+02  0.12700000000E+01 0.  1.
          4   -1    0    0  501    0  0.00000000000E+00 -0.00000000000E+00 -0.95030543728E+02  0.95039029568E+02  0.12700000000E+01 0.  1.
         25    2    1    2    0    0  0.00000000000E+00  0.00000000000E+00 -0.53946658879E+02  0.13614253908E+03  0.12499819576E+03 0.  0.
    9000005    1    3    3    0    0 -0.32256384034E+02  0.35557895676E+02 -0.70543641035E+02  0.85336062402E+02  0.10000000000E+01 0.  0.
    9000005    1    3    3    0    0  0.32256384034E+02 -0.35557895676E+02  0.16596982156E+02  0.50806476679E+02  0.10000000000E+01 0.  0.
<mgrwt>
<rscale>  0 0.12499820E+03</rscale>
<asrwt>0</asrwt>
<pdfrwt beam="2">  1        4 0.14622246E-01 0.12499820E+03</pdfrwt>
<pdfrwt beam="1">  1       -4 0.63227600E-02 0.12499820E+03</pdfrwt>
<totfact> 0.10214460E+04</totfact>
</mgrwt>
</event>
<event>
 5    1  0.3304582E-002  0.1249988E+03  0.7818608E-02  0.1235071E+00
          4   -1    0    0  501    0  0.00000000000E+00  0.00000000000E+00  0.22080700788E+02  0.22117193476E+02  0.12700000000E+01 0. -1.
         -4   -1    0    0    0  501 -0.00000000000E+00 -0.00000000000E+00 -0.17671963205E+03  0.17672419543E+03  0.12700000000E+01 0. -1.
         25    2    1    2    0    0  0.00000000000E+00  0.00000000000E+00 -0.15463893126E+03  0.19884138891E+03  0.12499879552E+03 0.  0.
    9000005    1    3    3    0    0 -0.61328703251E+02  0.11997873804E+01 -0.96310432504E+02  0.11418996778E+03  0.10000000000E+01 0.  0.
    9000005    1    3    3    0    0  0.61328703251E+02 -0.11997873804E+01 -0.58328498758E+02  0.84651421132E+02  0.10000000000E+01 0.  0.
<mgrwt>
<rscale>  0 0.12499880E+03</rscale>
<asrwt>0</asrwt>
<pdfrwt beam="1">  1        4 0.34001891E-02 0.12499880E+03</pdfrwt>
<pdfrwt beam="2">  1       -4 0.27190793E-01 0.12499880E+03</pdfrwt>
<totfact> 0.90333719E+03</totfact>
</mgrwt>
</event>
<event>
 5    1  0.3304582E-002  0.1250062E+03  0.7818608E-02  0.1235060E+00
          4   -1    0    0  501    0  0.00000000000E+00  0.00000000000E+00  0.19282840114E+03  0.19283258331E+03  0.12700000000E+01 0. -1.
         -4   -1    0    0    0  501 -0.00000000000E+00 -0.00000000000E+00 -0.20235356070E+02  0.20275170413E+02  0.12700000000E+01 0. -1.
         25    2    1    2    0    0  0.00000000000E+00  0.00000000000E+00  0.17259304507E+03  0.21310775372E+03  0.12500622180E+03 0.  0.
    9000005    1    3    3    0    0  0.40518520203E+02 -0.13377644862E+02  0.84546902463E+01  0.43510845184E+02  0.10000000000E+01 0.  0.
    9000005    1    3    3    0    0 -0.40518520203E+02  0.13377644862E+02  0.16413835482E+03  0.16959690853E+03  0.10000000000E+01 0.  0.
<mgrwt>
<rscale>  0 0.12500622E+03</rscale>
<asrwt>0</asrwt>
<pdfrwt beam="1">  1        4 0.29669293E-01 0.12500622E+03</pdfrwt>
<pdfrwt beam="2">  1       -4 0.31165160E-02 0.12500622E+03</pdfrwt>
<totfact> 0.87958613E+03</totfact>
</mgrwt>
</event>
<event>
 5    1  0.3304582E-002  0.1250029E+03  0.7818608E-02  0.1235065E+00
         -4   -1    0    0    0  501 -0.00000000000E+00  0.00000000000E+00  0.25062139539E+03  0.25062461317E+03  0.12700000000E+01 0.  1.
          4   -1    0    0  501    0  0.00000000000E+00 -0.00000000000E+00 -0.15557778414E+02  0.15609528153E+02  0.12700000000E+01 0.  1.
         25    2    1    2    0    0  0.00000000000E+00  0.00000000000E+00  0.23506361697E+03  0.26623414132E+03  0.12500285589E+03 0.  0.
    9000005    1    3    3    0    0  0.14108638444E+02  0.59968617957E+02  0.95179843355E+02  0.11338205943E+03  0.10000000000E+01 0.  0.
    9000005    1    3    3    0    0 -0.14108638444E+02 -0.59968617957E+02  0.13988377362E+03  0.15285208190E+03  0.10000000000E+01 0.  0.
<mgrwt>
<rscale>  0 0.12500286E+03</rscale>
<asrwt>0</asrwt>
<pdfrwt beam="2">  1        4 0.23977328E-02 0.12500286E+03</pdfrwt>
<pdfrwt beam="1">  1       -4 0.38561363E-01 0.12500286E+03</pdfrwt>
<totfact> 0.80033986E+03</totfact>
</mgrwt>
</event>
<event>
 5    1  0.3304582E-002  0.1250013E+03  0.7818608E-02  0.1235067E+00
         -4   -1    0    0    0  501 -0.00000000000E+00  0.00000000000E+00  0.15373651102E+02  0.15426018547E+02  0.12700000000E+01 0. -1.
          4   -1    0    0  501    0  0.00000000000E+00 -0.00000000000E+00 -0.25360655131E+03  0.25360973121E+03  0.12700000000E+01 0. -1.
         25    2    1    2    0    0  0.00000000000E+00  0.00000000000E+00 -0.23823290021E+03  0.26903574976E+03  0.12500127963E+03 0.  0.
    9000005    1    3    3    0    0 -0.54804432096E+02  0.10077066500E+02 -0.58231457656E+02  0.80603819434E+02  0.10000000000E+01 0.  0.
    9000005    1    3    3    0    0  0.54804432096E+02 -0.10077066500E+02 -0.18000144255E+03  0.18843193033E+03  0.10000000000E+01 0.  0.
<mgrwt>
<rscale>  0 0.12500128E+03</rscale>
<asrwt>0</asrwt>
<pdfrwt beam="2">  1        4 0.39020662E-01 0.12500128E+03</pdfrwt>
<pdfrwt beam="1">  1       -4 0.23694502E-02 0.12500128E+03</pdfrwt>
<totfact> 0.79652243E+03</totfact>
</mgrwt>
</event>
<event>
 5    1  0.3304582E-002  0.1249990E+03  0.7818608E-02  0.1235071E+00
          4   -1    0    0  501    0  0.00000000000E+00  0.00000000000E+00  0.55184673241E+02  0.55199284965E+02  0.12700000000E+01 0. -1.
         -4   -1    0    0    0  501 -0.00000000000E+00 -0.00000000000E+00 -0.70754293047E+02  0.70765690024E+02  0.12700000000E+01 0. -1.
         25    2    1    2    0    0  0.00000000000E+00  0.00000000000E+00 -0.15569619806E+02  0.12596497499E+03  0.12499904745E+03 0.  0.
    9000005    1    3    3    0    0  0.38717260425E+02  0.46473195425E+02  0.80338256643E+01  0.61027260324E+02  0.10000000000E+01 0.  0.
    9000005    1    3    3    0    0 -0.38717260425E+02 -0.46473195425E+02 -0.23603445470E+02  0.64937714665E+02  0.10000000000E+01 0.  0.
<mgrwt>
<rscale>  0 0.12499905E+03</rscale>
<asrwt>0</asrwt>
<pdfrwt beam="1">  1        4 0.84919504E-02 0.12499905E+03</pdfrwt>
<pdfrwt beam="2">  1       -4 0.10887277E-01 0.12499905E+03</pdfrwt>
<totfact> 0.10431949E+04</totfact>
</mgrwt>
</event>
<event>
 5    1  0.3304582E-002  0.1249993E+03  0.7818608E-02  0.1235070E+00
         -4   -1    0    0    0  501 -0.00000000000E+00  0.00000000000E+00  0.26501659260E+02  0.26532071979E+02  0.12700000000E+01 0.  1.
          4   -1    0    0  501    0  0.00000000000E+00 -0.00000000000E+00 -0.14727704965E+03  0.14728252529E+03  0.12700000000E+01 0.  1.
         25    2    1    2    0    0  0.00000000000E+00  0.00000000000E+00 -0.12077539039E+03  0.17381459727E+03  0.12499927719E+03 0.  0.
    9000005    1    3    3    0    0  0.29778817475E+02 -0.37945072398E+02 -0.51399491172E+01  0.48518301356E+02  0.10000000000E+01 0.  0.
    9000005    1    3    3    0    0 -0.29778817475E+02  0.37945072398E+02 -0.11563544128E+03  0.12529629591E+03  0.10000000000E+01 0.  0.
<mgrwt>
<rscale>  0 0.12499928E+03</rscale>
<asrwt>0</asrwt>
<pdfrwt beam="2">  1        4 0.22660768E-01 0.12499928E+03</pdfrwt>
<pdfrwt beam="1">  1       -4 0.40799391E-02 0.12499928E+03</pdfrwt>
<totfact> 0.94743930E+03</totfact>
</mgrwt>
</event>
<event>
 5    1  0.3304582E-002  0.1250001E+03  0.7818608E-02  0.1235069E+00
         -4   -1    0    0    0  501 -0.00000000000E+00  0.00000000000E+00  0.55572845559E+02  0.55587355248E+02  0.12700000000E+01 0.  1.
          4   -1    0    0  501    0  0.00000000000E+00 -0.00000000000E+00 -0.70261287445E+02  0.70272764379E+02  0.12700000000E+01 0.  1.
         25    2    1    2    0    0  0.00000000000E+00  0.00000000000E+00 -0.14688441887E+02  0.12586011963E+03  0.12500007755E+03 0.  0.
    9000005    1    3    3    0    0  0.40588940479E+00 -0.61798803595E+02 -0.16681535079E+02  0.64019766358E+02  0.10000000000E+01 0.  0.
    9000005    1    3    3    0    0 -0.40588940479E+00  0.61798803595E+02  0.19930931926E+01  0.61840353269E+02  0.10000000000E+01 0.  0.
<mgrwt>
<rscale>  0 0.12500008E+03</rscale>
<asrwt>0</asrwt>
<pdfrwt beam="2">  1        4 0.10811428E-01 0.12500008E+03</pdfrwt>
<pdfrwt beam="1">  1       -4 0.85516675E-02 0.12500008E+03</pdfrwt>
<totfact> 0.10434007E+04</totfact>
</mgrwt>
</event>
<event>
 5    1  0.3304582E-002  0.1250045E+03  0.7818608E-02  0.1235062E+00
         -4   -1    0    0    0  501 -0.00000000000E+00  0.00000000000E+00  0.63832538707E+02  0.63845171296E+02  0.12700000000E+01 0.  1.
          4   -1    0    0  501    0  0.00000000000E+00 -0.00000000000E+00 -0.61174416172E+02  0.61187597551E+02  0.12700000000E+01 0.  1.
         25    2    1    2    0    0  0.00000000000E+00  0.00000000000E+00  0.26581225345E+01  0.12503276885E+03  0.12500451060E+03 0.  0.
    9000005    1    3    3    0    0 -0.53313578409E+02  0.71620591499E+01  0.33146615080E+02  0.63192806753E+02  0.10000000000E+01 0.  0.
    9000005    1    3    3    0    0  0.53313578409E+02 -0.71620591499E+01 -0.30488492546E+02  0.61839962094E+02  0.10000000000E+01 0.  0.
<mgrwt>
<rscale>  0 0.12500451E+03</rscale>
<asrwt>0</asrwt>
<pdfrwt beam="2">  1        4 0.94134344E-02 0.12500451E+03</pdfrwt>
<pdfrwt beam="1">  1       -4 0.98223762E-02 0.12500451E+03</pdfrwt>
<totfact> 0.10451085E+04</totfact>
</mgrwt>
</event>
<event>
 5    1  0.3304582E-002  0.1250001E+03  0.7818608E-02  0.1235069E+00
          4   -1    0    0  501    0  0.00000000000E+00  0.00000000000E+00  0.40719602973E+02  0.40739403117E+02  0.12700000000E+01 0.  1.
         -4   -1    0    0    0  501 -0.00000000000E+00 -0.00000000000E+00 -0.95883316972E+02  0.95891727347E+02  0.12700000000E+01 0.  1.
         25    2    1    2    0    0  0.00000000000E+00  0.00000000000E+00 -0.55163713999E+02  0.13663113046E+03  0.12500012188E+03 0.  0.
    9000005    1    3    3    0    0  0.30234918381E+02 -0.46332628225E+02  0.41804488432E+01  0.55491791107E+02  0.10000000000E+01 0.  0.
    9000005    1    3    3    0    0 -0.30234918381E+02  0.46332628225E+02 -0.59344162843E+02  0.81139339357E+02  0.10000000000E+01 0.  0.
<mgrwt>
<rscale>  0 0.12500012E+03</rscale>
<asrwt>0</asrwt>
<pdfrwt beam="1">  1        4 0.62667244E-02 0.12500012E+03</pdfrwt>
<pdfrwt beam="2">  1       -4 0.14753449E-01 0.12500012E+03</pdfrwt>
<totfact> 0.10203776E+04</totfact>
</mgrwt>
</event>
<event>
 5    1  0.3304582E-002  0.1249981E+03  0.7818608E-02  0.1235072E+00
         -4   -1    0    0    0  501 -0.00000000000E+00  0.00000000000E+00  0.11739874537E+03  0.11740561449E+03  0.12700000000E+01 0. -1.
          4   -1    0    0  501    0  0.00000000000E+00 -0.00000000000E+00 -0.33252373647E+02  0.33276617213E+02  0.12700000000E+01 0. -1.
         25    2    1    2    0    0  0.00000000000E+00  0.00000000000E+00  0.84146371722E+02  0.15068223171E+03  0.12499809230E+03 0.  0.
    9000005    1    3    3    0    0 -0.12433470235E+01 -0.29248903407E+02 -0.24480529210E+02  0.38175130292E+02  0.10000000000E+01 0.  0.
    9000005    1    3    3    0    0  0.12433470235E+01  0.29248903407E+02  0.10862690093E+03  0.11250710141E+03  0.10000000000E+01 0.  0.
<mgrwt>
<rscale>  0 0.12499809E+03</rscale>
<asrwt>0</asrwt>
<pdfrwt beam="2">  1        4 0.51181431E-02 0.12499809E+03</pdfrwt>
<pdfrwt beam="1">  1       -4 0.18063739E-01 0.12499809E+03</pdfrwt>
<totfact> 0.99172137E+03</totfact>
</mgrwt>
</event>
<event>
 5    1  0.3304582E-002  0.1249940E+03  0.7818608E-02  0.1235079E+00
         -4   -1    0    0    0  501 -0.00000000000E+00  0.00000000000E+00  0.45216904892E+02  0.45234736520E+02  0.12700000000E+01 0. -1.
          4   -1    0    0  501    0  0.00000000000E+00 -0.00000000000E+00 -0.86341322843E+02  0.86350662593E+02  0.12700000000E+01 0. -1.
         25    2    1    2    0    0  0.00000000000E+00  0.00000000000E+00 -0.41124417951E+02  0.13158539911E+03  0.12499399789E+03 0.  0.
    9000005    1    3    3    0    0 -0.29934447884E+02  0.37220511078E+02  0.21854434417E+02  0.52536215306E+02  0.10000000000E+01 0.  0.
    9000005    1    3    3    0    0  0.29934447884E+02 -0.37220511078E+02 -0.62978852367E+02  0.79049183807E+02  0.10000000000E+01 0.  0.
<mgrwt>
<rscale>  0 0.12499400E+03</rscale>
<asrwt>0</asrwt>
<pdfrwt beam="2">  1        4 0.13285371E-01 0.12499400E+03</pdfrwt>
<pdfrwt beam="1">  1       -4 0.69585370E-02 0.12499400E+03</pdfrwt>
<totfact> 0.10311952E+04</totfact>
</mgrwt>
</event>
<event>
 5    1  0.3304582E-002  0.1249989E+03  0.7818608E-02  0.1235071E+00
         -4   -1    0    0    0  501 -0.00000000000E+00  0.00000000000E+00  0.23502571462E+03  0.23502914592E+03  0.12700000000E+01 0. -1.
          4   -1    0    0  501    0  0.00000000000E+00 -0.00000000000E+00 -0.16592396913E+02  0.16640929521E+02  0.12700000000E+01 0. -1.
         25    2    1    2    0    0  0.00000000000E+00  0.00000000000E+00  0.21843331770E+03  0.25167007544E+03  0.12499885035E+03 0.  0.
    9000005    1    3    3    0    0 -0.43852839962E+02  0.22707411983E+02  0.18631830227E+03  0.19275426815E+03  0.10000000000E+01 0.  0.
    9000005    1    3    3    0    0  0.43852839962E+02 -0.22707411983E+02  0.32115015439E+02  0.58915807287E+02  0.10000000000E+01 0.  0.
<mgrwt>
<rscale>  0 0.12499885E+03</rscale>
<asrwt>0</asrwt>
<pdfrwt beam="2">  1        4 0.25566736E-02 0.12499885E+03</pdfrwt>
<pdfrwt beam="1">  1       -4 0.36161801E-01 0.12499885E+03</pdfrwt>
<totfact> 0.82091548E+03</totfact>
</mgrwt>
</event>
<event>
 5    1  0.3304582E-002  0.1250179E+03  0.7818608E-02  0.1235041E+00
          4   -1    0    0  501    0  0.00000000000E+00  0.00000000000E+00  0.35936490267E+03  0.35936714676E+03  0.12700000000E+01 0. -1.
         -4   -1    0    0    0  501 -0.00000000000E+00 -0.00000000000E+00 -0.10833616442E+02  0.10907802034E+02  0.12700000000E+01 0. -1.
         25    2    1    2    0    0  0.00000000000E+00  0.00000000000E+00  0.34853128623E+03  0.37027494880E+03  0.12501791962E+03 0.  0.
    9000005    1    3    3    0    0  0.39485269206E+02  0.46764443007E+02  0.13675847920E+03  0.14983284435E+03  0.10000000000E+01 0.  0.
    9000005    1    3    3    0    0 -0.39485269206E+02 -0.46764443007E+02  0.21177280704E+03  0.22044210445E+03  0.10000000000E+01 0.  0.
<mgrwt>
<rscale>  0 0.12501792E+03</rscale>
<asrwt>0</asrwt>
<pdfrwt beam="1">  1        4 0.55292788E-01 0.12501792E+03</pdfrwt>
<pdfrwt beam="2">  1       -4 0.16725894E-02 0.12501792E+03</pdfrwt>
<totfact> 0.67523426E+03</totfact>
</mgrwt>
</event>
<event>
 5    1  0.3304582E-002  0.1250029E+03  0.7818608E-02  0.1235065E+00
         -4   -1    0    0    0  501 -0.00000000000E+00  0.00000000000E+00  0.13359618700E+04  0.13359624736E+04  0.12700000000E+01 0.  1.
          4   -1    0    0  501    0  0.00000000000E+00 -0.00000000000E+00 -0.27855268678E+01  0.30613820296E+01  0.12700000000E+01 0.  1.
         25    2    1    2    0    0  0.00000000000E+00  0.00000000000E+00  0.13331763431E+04  0.13390238556E+04  0.12500289670E+03 0.  0.
    9000005    1    3    3    0    0 -0.20071119102E+02 -0.58997930981E+02  0.61654452068E+03  0.61968681741E+03  0.10000000000E+01 0.  0.
    9000005    1    3    3    0    0  0.20071119102E+02  0.58997930981E+02  0.71663182242E+03  0.71933703824E+03  0.10000000000E+01 0.  0.
<mgrwt>
<rscale>  0 0.12500290E+03</rscale>
<asrwt>0</asrwt>
<pdfrwt beam="2">  1        4 0.44980777E-03 0.12500290E+03</pdfrwt>
<pdfrwt beam="1">  1       -4 0.20555427E+00 0.12500290E+03</pdfrwt>
<totfact> 0.21324379E+03</totfact>
</mgrwt>
</event>
<event>
 5    1  0.3304582E-002  0.1250080E+03  0.7818608E-02  0.1235057E+00
         -4   -1    0    0    0  501 -0.00000000000E+00  0.00000000000E+00  0.32890728841E+01  0.35257482095E+01  0.12700000000E+01 0.  1.
          4   -1    0    0  501    0  0.00000000000E+00 -0.00000000000E+00 -0.11463085326E+04  0.11463092361E+04  0.12700000000E+01 0.  1.
         25    2    1    2    0    0  0.00000000000E+00  0.00000000000E+00 -0.11430194597E+04  0.11498349843E+04  0.12500802333E+03 0.  0.
    9000005    1    3    3    0    0 -0.39764885946E+02  0.28095741349E+02 -0.21112127846E+03  0.21666520499E+03  0.10000000000E+01 0.  0.
    9000005    1    3    3    0    0  0.39764885946E+02 -0.28095741349E+02 -0.93189818128E+03  0.93316977936E+03  0.10000000000E+01 0.  0.
<mgrwt>
<rscale>  0 0.12500802E+03</rscale>
<asrwt>0</asrwt>
<pdfrwt beam="2">  1        4 0.17637311E+00 0.12500802E+03</pdfrwt>
<pdfrwt beam="1">  1       -4 0.52427204E-03 0.12500802E+03</pdfrwt>
<totfact> 0.26060304E+03</totfact>
</mgrwt>
</event>
<event>
 5    1  0.3304582E-002  0.1250001E+03  0.7818608E-02  0.1235069E+00
          4   -1    0    0  501    0  0.00000000000E+00  0.00000000000E+00  0.24144464573E+02  0.24177842533E+02  0.12700000000E+01 0.  1.
         -4   -1    0    0    0  501 -0.00000000000E+00 -0.00000000000E+00 -0.16163914977E+03  0.16164413890E+03  0.12700000000E+01 0.  1.
         25    2    1    2    0    0  0.00000000000E+00  0.00000000000E+00 -0.13749468520E+03  0.18582198143E+03  0.12500008130E+03 0.  0.
    9000005    1    3    3    0    0  0.35259030635E+02 -0.50840009780E+02 -0.81821533775E+02  0.10258493664E+03  0.10000000000E+01 0.  0.
    9000005    1    3    3    0    0 -0.35259030635E+02  0.50840009780E+02 -0.55673151425E+02  0.83237044790E+02  0.10000000000E+01 0.  0.
<mgrwt>
<rscale>  0 0.12500008E+03</rscale>
<asrwt>0</asrwt>
<pdfrwt beam="1">  1        4 0.37174844E-02 0.12500008E+03</pdfrwt>
<pdfrwt beam="2">  1       -4 0.24870512E-01 0.12500008E+03</pdfrwt>
<totfact> 0.92579233E+03</totfact>
</mgrwt>
</event>
<event>
 5    1  0.3304582E-002  0.1250018E+03  0.7818608E-02  0.1235066E+00
         -4   -1    0    0    0  501 -0.00000000000E+00  0.00000000000E+00  0.27576967933E+03  0.27577260368E+03  0.12700000000E+01 0.  1.
          4   -1    0    0  501    0  0.00000000000E+00 -0.00000000000E+00 -0.14133843873E+02  0.14190787244E+02  0.12700000000E+01 0.  1.
         25    2    1    2    0    0  0.00000000000E+00  0.00000000000E+00  0.26163583546E+03  0.28996339092E+03  0.12500183070E+03 0.  0.
    9000005    1    3    3    0    0 -0.52959739078E+02  0.23487991858E+02  0.76468975935E+02  0.95942295185E+02  0.10000000000E+01 0.  0.
    9000005    1    3    3    0    0  0.52959739078E+02 -0.23487991858E+02  0.18516685952E+03  0.19402109574E+03  0.10000000000E+01 0.  0.
<mgrwt>
<rscale>  0 0.12500183E+03</rscale>
<asrwt>0</asrwt>
<pdfrwt beam="2">  1        4 0.21790426E-02 0.12500183E+03</pdfrwt>
<pdfrwt beam="1">  1       -4 0.42430712E-01 0.12500183E+03</pdfrwt>
<totfact> 0.76872181E+03</totfact>
</mgrwt>
</event>
<event>
 5    1  0.3304582E-002  0.1249887E+03  0.7818608E-02  0.1235087E+00
         -4   -1    0    0    0  501 -0.00000000000E+00  0.00000000000E+00  0.11365311591E+03  0.11366021141E+03  0.12700000000E+01 0. -1.
          4   -1    0    0  501    0  0.00000000000E+00 -0.00000000000E+00 -0.34343805646E+02  0.34367279296E+02  0.12700000000E+01 0. -1.
         25    2    1    2    0    0  0.00000000000E+00  0.00000000000E+00  0.79309310267E+02  0.14802749070E+03  0.12498868472E+03 0.  0.
    9000005    1    3    3    0    0 -0.50453953897E+01 -0.57750555654E+02  0.67276661140E+02  0.88812903495E+02  0.10000000000E+01 0.  0.
    9000005    1    3    3    0    0  0.50453953897E+01  0.57750555654E+02  0.12032649127E+02  0.59214587207E+02  0.10000000000E+01 0.  0.
<mgrwt>
<rscale>  0 0.12498868E+03</rscale>
<asrwt>0</asrwt>
<pdfrwt beam="2">  1        4 0.52860140E-02 0.12498868E+03</pdfrwt>
<pdfrwt beam="1">  1       -4 0.17487446E-01 0.12498868E+03</pdfrwt>
<totfact> 0.99723750E+03</totfact>
</mgrwt>
</event>
<event>
 5    1  0.3304582E-002  0.1249995E+03  0.7818608E-02  0.1235070E+00
         -4   -1    0    0    0  501 -0.00000000000E+00  0.00000000000E+00  0.31350017623E+04  0.31350020195E+04  0.12700000000E+01 0.  1.
          4   -1    0    0  501    0  0.00000000000E+00 -0.00000000000E+00 -0.92206200522E+00  0.15694261185E+01  0.12700000000E+01 0.  1.
         25    2    1    2    0    0  0.00000000000E+00  0.00000000000E+00  0.31340797003E+04  0.31365714457E+04  0.12499946370E+03 0.  0.
    9000005    1    3    3    0    0 -0.25353218315E+02  0.27526078700E+02  0.31121560683E+03  0.31345912751E+03  0.10000000000E+01 0.  0.
    9000005    1    3    3    0    0  0.25353218315E+02 -0.27526078700E+02  0.28228640935E+04  0.28231123182E+04  0.10000000000E+01 0.  0.
<mgrwt>
<rscale>  0 0.12499946E+03</rscale>
<asrwt>0</asrwt>
<pdfrwt beam="2">  1        4 0.19167606E-03 0.12499946E+03</pdfrwt>
<pdfrwt beam="1">  1       -4 0.48234937E+00 0.12499946E+03</pdfrwt>
<totfact> 0.13553984E+02</totfact>
</mgrwt>
</event>
<event>
 5    1  0.3304582E-002  0.1250110E+03  0.7818608E-02  0.1235052E+00
          4   -1    0    0  501    0  0.00000000000E+00  0.00000000000E+00  0.18383785925E+03  0.18384224595E+03  0.12700000000E+01 0.  1.
         -4   -1    0    0    0  501 -0.00000000000E+00 -0.00000000000E+00 -0.21228482155E+02  0.21266437281E+02  0.12700000000E+01 0.  1.
         25    2    1    2    0    0  0.00000000000E+00  0.00000000000E+00  0.16260937710E+03  0.20510868323E+03  0.12501104917E+03 0.  0.
    9000005    1    3    3    0    0  0.57724129166E+02 -0.10947020686E+01  0.42041390254E+02  0.71426549372E+02  0.10000000000E+01 0.  0.
    9000005    1    3    3    0    0 -0.57724129166E+02  0.10947020686E+01  0.12056798684E+03  0.13368213386E+03  0.10000000000E+01 0.  0.
<mgrwt>
<rscale>  0 0.12501105E+03</rscale>
<asrwt>0</asrwt>
<pdfrwt beam="1">  1        4 0.28286006E-01 0.12501105E+03</pdfrwt>
<pdfrwt beam="2">  1       -4 0.32691772E-02 0.12501105E+03</pdfrwt>
<totfact> 0.89258917E+03</totfact>
</mgrwt>
</event>
<event>
 5    1  0.3304582E-002  0.1250035E+03  0.7818608E-02  0.1235064E+00
         -4   -1    0    0    0  501 -0.00000000000E+00  0.00000000000E+00  0.26442382352E+03  0.26442687334E+03  0.12700000000E+01 0. -1.
          4   -1    0    0  501    0  0.00000000000E+00 -0.00000000000E+00 -0.14743089656E+02  0.14797688759E+02  0.12700000000E+01 0. -1.
         25    2    1    2    0    0  0.00000000000E+00  0.00000000000E+00  0.24968073386E+03  0.27922456210E+03  0.12500354882E+03 0.  0.
    9000005    1    3    3    0    0 -0.26943643395E+02 -0.10476950359E+02  0.10797532558E+01  0.28946368948E+02  0.10000000000E+01 0.  0.
    9000005    1    3    3    0    0  0.26943643395E+02  0.10476950359E+02  0.24860098060E+03  0.25027819315E+03  0.10000000000E+01 0.  0.
<mgrwt>
<rscale>  0 0.12500355E+03</rscale>
<asrwt>0</asrwt>
<pdfrwt beam="2">  1        4 0.22726024E-02 0.12500355E+03</pdfrwt>
<pdfrwt beam="1">  1       -4 0.40685020E-01 0.12500355E+03</pdfrwt>
<totfact> 0.78274861E+03</totfact>
</mgrwt>
</event>
<event>
 5    1  0.3304582E-002  0.1249988E+03  0.7818608E-02  0.1235071E+00
          4   -1    0    0  501    0  0.00000000000E+00  0.00000000000E+00  0.80660583497E+02  0.80670580945E+02  0.12700000000E+01 0.  1.
         -4   -1    0    0    0  501 -0.00000000000E+00 -0.00000000000E+00 -0.48406001996E+02  0.48422659254E+02  0.12700000000E+01 0.  1.
         25    2    1    2    0    0  0.00000000000E+00  0.00000000000E+00  0.32254581501E+02  0.12909324020E+03  0.12499882654E+03 0.  0.
    9000005    1    3    3    0    0 -0.57325113468E+02  0.19629822037E+02  0.34003723042E+00  0.60602097098E+02  0.10000000000E+01 0.  0.
    9000005    1    3    3    0    0  0.57325113468E+02 -0.19629822037E+02  0.31914544270E+02  0.68491143102E+02  0.10000000000E+01 0.  0.
<mgrwt>
<rscale>  0 0.12499883E+03</rscale>
<asrwt>0</asrwt>
<pdfrwt beam="1">  1        4 0.12411371E-01 0.12499883E+03</pdfrwt>
<pdfrwt beam="2">  1       -4 0.74491277E-02 0.12499883E+03</pdfrwt>
<totfact> 0.10364218E+04</totfact>
</mgrwt>
</event>
<event>
 5    1  0.3304582E-002  0.1250013E+03  0.7818608E-02  0.1235067E+00
         -4   -1    0    0    0  501 -0.00000000000E+00  0.00000000000E+00  0.19934710335E+02  0.19975123933E+02  0.12700000000E+01 0. -1.
          4   -1    0    0  501    0  0.00000000000E+00 -0.00000000000E+00 -0.19571537977E+03  0.19571950026E+03  0.12700000000E+01 0. -1.
         25    2    1    2    0    0  0.00000000000E+00  0.00000000000E+00 -0.17578066944E+03  0.21569462419E+03  0.12500130861E+03 0.  0.
    9000005    1    3    3    0    0 -0.47899542244E+02 -0.39366017835E+02 -0.74382298269E+02  0.96838916780E+02  0.10000000000E+01 0.  0.
    9000005    1    3    3    0    0  0.47899542244E+02  0.39366017835E+02 -0.10139837117E+03  0.11885570741E+03  0.10000000000E+01 0.  0.
<mgrwt>
<rscale>  0 0.12500131E+03</rscale>
<asrwt>0</asrwt>
<pdfrwt beam="2">  1        4 0.30113483E-01 0.12500131E+03</pdfrwt>
<pdfrwt beam="1">  1       -4 0.30703043E-02 0.12500131E+03</pdfrwt>
<totfact> 0.87551678E+03</totfact>
</mgrwt>
</event>
<event>
 5    1  0.3304582E-002  0.1250014E+03  0.7818608E-02  0.1235067E+00
          4   -1    0    0  501    0  0.00000000000E+00  0.00000000000E+00  0.26700389269E+02  0.26730575885E+02  0.12700000000E+01 0. -1.
         -4   -1    0    0    0  501 -0.00000000000E+00 -0.00000000000E+00 -0.14618698331E+03  0.14619249977E+03  0.12700000000E+01 0. -1.
         25    2    1    2    0    0  0.00000000000E+00  0.00000000000E+00 -0.11948659404E+03  0.17292307566E+03  0.12500137575E+03 0.  0.
    9000005    1    3    3    0    0  0.29102702144E+02 -0.25407804473E+02 -0.12769493303E+03  0.13341484071E+03  0.10000000000E+01 0.  0.
    9000005    1    3    3    0    0 -0.29102702144E+02  0.25407804473E+02  0.82083389823E+01  0.39508234952E+02  0.10000000000E+01 0.  0.
<mgrwt>
<rscale>  0 0.12500138E+03</rscale>
<asrwt>0</asrwt>
<pdfrwt beam="1">  1        4 0.41104987E-02 0.12500138E+03</pdfrwt>
<pdfrwt beam="2">  1       -4 0.22493051E-01 0.12500138E+03</pdfrwt>
<totfact> 0.94903677E+03</totfact>
</mgrwt>
</event>
<event>
 5    1  0.3304582E-002  0.1250009E+03  0.7818608E-02  0.1235068E+00
          4   -1    0    0  501    0  0.00000000000E+00  0.00000000000E+00  0.88187499589E+02  0.88196643835E+02  0.12700000000E+01 0.  1.
         -4   -1    0    0    0  501 -0.00000000000E+00 -0.00000000000E+00 -0.44274895274E+02  0.44293106140E+02  0.12700000000E+01 0.  1.
         25    2    1    2    0    0  0.00000000000E+00  0.00000000000E+00  0.43912604315E+02  0.13248974997E+03  0.12500086812E+03 0.  0.
    9000005    1    3    3    0    0  0.97139150777E+01  0.58598296017E+02  0.42541060648E+02  0.73067518661E+02  0.10000000000E+01 0.  0.
    9000005    1    3    3    0    0 -0.97139150777E+01 -0.58598296017E+02  0.13715436668E+01  0.59422231313E+02  0.10000000000E+01 0.  0.
<mgrwt>
<rscale>  0 0.12500087E+03</rscale>
<asrwt>0</asrwt>
<pdfrwt beam="1">  1        4 0.13569412E-01 0.12500087E+03</pdfrwt>
<pdfrwt beam="2">  1       -4 0.68136266E-02 0.12500087E+03</pdfrwt>
<totfact> 0.10291055E+04</totfact>
</mgrwt>
</event>
<event>
 5    1  0.3304582E-002  0.1250037E+03  0.7818608E-02  0.1235064E+00
         -4   -1    0    0    0  501 -0.00000000000E+00  0.00000000000E+00  0.75467202777E+02  0.75477888119E+02  0.12700000000E+01 0.  1.
          4   -1    0    0  501    0  0.00000000000E+00 -0.00000000000E+00 -0.51741781786E+02  0.51757365489E+02  0.12700000000E+01 0.  1.
         25    2    1    2    0    0  0.00000000000E+00  0.00000000000E+00  0.23725420991E+02  0.12723525361E+03  0.12500365658E+03 0.  0.
    9000005    1    3    3    0    0 -0.53215796743E+01  0.26220519962E+02 -0.45622460365E+02  0.52898428777E+02  0.10000000000E+01 0.  0.
    9000005    1    3    3    0    0  0.53215796743E+01 -0.26220519962E+02  0.69347881357E+02  0.74336824831E+02  0.10000000000E+01 0.  0.
<mgrwt>
<rscale>  0 0.12500366E+03</rscale>
<asrwt>0</asrwt>
<pdfrwt beam="2">  1        4 0.79622948E-02 0.12500366E+03</pdfrwt>
<pdfrwt beam="1">  1       -4 0.11612360E-01 0.12500366E+03</pdfrwt>
<totfact> 0.10403180E+04</totfact>
</mgrwt>
</event>
<event>
 5    1  0.3304582E-002  0.1250014E+03  0.7818608E-02  0.1235067E+00
          4   -1    0    0  501    0  0.00000000000E+00  0.00000000000E+00  0.20284049389E+02  0.20323768342E+02  0.12700000000E+01 0. -1.
         -4   -1    0    0    0  501 -0.00000000000E+00 -0.00000000000E+00 -0.19235152513E+03  0.19235571767E+03  0.12700000000E+01 0. -1.
         25    2    1    2    0    0  0.00000000000E+00  0.00000000000E+00 -0.17206747574E+03  0.21267948601E+03  0.12500139024E+03 0.  0.
    9000005    1    3    3    0    0 -0.52287564246E+02 -0.30046550736E+02 -0.58151655831E+02  0.83781857594E+02  0.10000000000E+01 0.  0.
    9000005    1    3    3    0    0  0.52287564246E+02  0.30046550736E+02 -0.11391581991E+03  0.12889762841E+03  0.10000000000E+01 0.  0.
<mgrwt>
<rscale>  0 0.12500139E+03</rscale>
<asrwt>0</asrwt>
<pdfrwt beam="1">  1        4 0.31240009E-02 0.12500139E+03</pdfrwt>
<pdfrwt beam="2">  1       -4 0.29595919E-01 0.12500139E+03</pdfrwt>
<totfact> 0.88037412E+03</totfact>
</mgrwt>
</event>
<event>
 5    1  0.3304582E-002  0.1250002E+03  0.7818608E-02  0.1235069E+00
         -4   -1    0    0    0  501 -0.00000000000E+00  0.00000000000E+00  0.13299520127E+03  0.13300126489E+03  0.12700000000E+01 0. -1.
          4   -1    0    0  501    0  0.00000000000E+00 -0.00000000000E+00 -0.29350984837E+02  0.29378448068E+02  0.12700000000E+01 0. -1.
         25    2    1    2    0    0  0.00000000000E+00  0.00000000000E+00  0.10364421644E+03  0.16237971296E+03  0.12500019032E+03 0.  0.
    9000005    1    3    3    0    0 -0.42309075194E+02 -0.38692594853E+02  0.84117901312E+02  0.10180371340E+03  0.10000000000E+01 0.  0.
    9000005    1    3    3    0    0  0.42309075194E+02  0.38692594853E+02  0.19526315125E+02  0.60575999559E+02  0.10000000000E+01 0.  0.
<mgrwt>
<rscale>  0 0.12500019E+03</rscale>
<asrwt>0</asrwt>
<pdfrwt beam="2">  1        4 0.45181151E-02 0.12500019E+03</pdfrwt>
<pdfrwt beam="1">  1       -4 0.20463379E-01 0.12500019E+03</pdfrwt>
<totfact> 0.96885533E+03</totfact>
</mgrwt>
</event>
<event>
 5    1  0.3304582E-002  0.1249991E+03  0.7818608E-02  0.1235071E+00
          4   -1    0    0  501    0  0.00000000000E+00  0.00000000000E+00  0.13784897057E+03  0.13785482069E+03  0.12700000000E+01 0.  1.
         -4   -1    0    0    0  501 -0.00000000000E+00 -0.00000000000E+00 -0.28316085513E+02  0.28344551483E+02  0.12700000000E+01 0.  1.
         25    2    1    2    0    0  0.00000000000E+00  0.00000000000E+00  0.10953288506E+03  0.16619937217E+03  0.12499911360E+03 0.  0.
    9000005    1    3    3    0    0 -0.17590364697E+02  0.48617657923E+02  0.10143720510E+03  0.11385782437E+03  0.10000000000E+01 0.  0.
    9000005    1    3    3    0    0  0.17590364697E+02 -0.48617657923E+02  0.80956799562E+01  0.52341547800E+02  0.10000000000E+01 0.  0.
<mgrwt>
<rscale>  0 0.12499911E+03</rscale>
<asrwt>0</asrwt>
<pdfrwt beam="1">  1        4 0.21210174E-01 0.12499911E+03</pdfrwt>
<pdfrwt beam="2">  1       -4 0.43589604E-02 0.12499911E+03</pdfrwt>
<totfact> 0.96162645E+03</totfact>
</mgrwt>
</event>
<event>
 5    1  0.3304582E-002  0.1250000E+03  0.7818608E-02  0.1235069E+00
          4   -1    0    0  501    0  0.00000000000E+00  0.00000000000E+00  0.18790732797E+03  0.18791161966E+03  0.12700000000E+01 0.  1.
         -4   -1    0    0    0  501 -0.00000000000E+00 -0.00000000000E+00 -0.20764230799E+02  0.20803032968E+02  0.12700000000E+01 0.  1.
         25    2    1    2    0    0  0.00000000000E+00  0.00000000000E+00  0.16714309717E+03  0.20871465263E+03  0.12499996516E+03 0.  0.
    9000005    1    3    3    0    0  0.18165068047E+01 -0.57166314895E+02  0.41530438975E+02  0.70689918780E+02  0.10000000000E+01 0.  0.
    9000005    1    3    3    0    0 -0.18165068047E+01  0.57166314895E+02  0.12561265819E+03  0.13802473385E+03  0.10000000000E+01 0.  0.
<mgrwt>
<rscale>  0 0.12499997E+03</rscale>
<asrwt>0</asrwt>
<pdfrwt beam="1">  1        4 0.28912134E-01 0.12499997E+03</pdfrwt>
<pdfrwt beam="2">  1       -4 0.31978121E-02 0.12499997E+03</pdfrwt>
<totfact> 0.88686295E+03</totfact>
</mgrwt>
</event>
<event>
 5    1  0.3304582E-002  0.1249998E+03  0.7818608E-02  0.1235070E+00
         -4   -1    0    0    0  501 -0.00000000000E+00  0.00000000000E+00  0.62978650946E+02  0.62991454777E+02  0.12700000000E+01 0.  1.
          4   -1    0    0  501    0  0.00000000000E+00 -0.00000000000E+00 -0.61999143710E+02  0.62012149784E+02  0.12700000000E+01 0.  1.
         25    2    1    2    0    0  0.00000000000E+00  0.00000000000E+00  0.97950723546E+00  0.12500360456E+03  0.12499976687E+03 0.  0.
    9000005    1    3    3    0    0 -0.56639965324E+02 -0.40333178257E+00  0.26891077052E+02  0.62708678614E+02  0.10000000000E+01 0.  0.
    9000005    1    3    3    0    0  0.56639965324E+02  0.40333178257E+00 -0.25911569817E+02  0.62294925947E+02  0.10000000000E+01 0.  0.
<mgrwt>
<rscale>  0 0.12499977E+03</rscale>
<asrwt>0</asrwt>
<pdfrwt beam="2">  1        4 0.95403151E-02 0.12499977E+03</pdfrwt>
<pdfrwt beam="1">  1       -4 0.96910086E-02 0.12499977E+03</pdfrwt>
<totfact> 0.10452839E+04</totfact>
</mgrwt>
</event>
<event>
 5    1  0.3304582E-002  0.1250008E+03  0.7818608E-02  0.1235068E+00
          4   -1    0    0  501    0  0.00000000000E+00  0.00000000000E+00  0.87368160725E+02  0.87377390716E+02  0.12700000000E+01 0. -1.
         -4   -1    0    0    0  501 -0.00000000000E+00 -0.00000000000E+00 -0.44690152420E+02  0.44708194141E+02  0.12700000000E+01 0. -1.
         25    2    1    2    0    0  0.00000000000E+00  0.00000000000E+00  0.42678008305E+02  0.13208558486E+03  0.12500075733E+03 0.  0.
    9000005    1    3    3    0    0 -0.35867137043E+02 -0.14699280140E+02  0.73135396306E+02  0.82778659986E+02  0.10000000000E+01 0.  0.
    9000005    1    3    3    0    0  0.35867137043E+02  0.14699280140E+02 -0.30457388001E+02  0.49306924871E+02  0.10000000000E+01 0.  0.
<mgrwt>
<rscale>  0 0.12500076E+03</rscale>
<asrwt>0</asrwt>
<pdfrwt beam="1">  1        4 0.13443353E-01 0.12500076E+03</pdfrwt>
<pdfrwt beam="2">  1       -4 0.68775059E-02 0.12500076E+03</pdfrwt>
<totfact> 0.10299696E+04</totfact>
</mgrwt>
</event>
<event>
 5    1  0.3304582E-002  0.1250014E+03  0.7818608E-02  0.1235067E+00
         -4   -1    0    0    0  501 -0.00000000000E+00  0.00000000000E+00  0.29063648046E+03  0.29063925522E+03  0.12700000000E+01 0.  1.
          4   -1    0    0  501    0  0.00000000000E+00 -0.00000000000E+00 -0.13407788467E+02  0.13467802032E+02  0.12700000000E+01 0.  1.
         25    2    1    2    0    0  0.00000000000E+00  0.00000000000E+00  0.27722869199E+03  0.30410705725E+03  0.12500141842E+03 0.  0.
    9000005    1    3    3    0    0  0.28745483339E+02 -0.39889624589E+02  0.23245513934E+03  0.23760024573E+03  0.10000000000E+01 0.  0.
    9000005    1    3    3    0    0 -0.28745483339E+02  0.39889624589E+02  0.44773552649E+02  0.66506811524E+02  0.10000000000E+01 0.  0.
<mgrwt>
<rscale>  0 0.12500142E+03</rscale>
<asrwt>0</asrwt>
<pdfrwt beam="2">  1        4 0.20675665E-02 0.12500142E+03</pdfrwt>
<pdfrwt beam="1">  1       -4 0.44718135E-01 0.12500142E+03</pdfrwt>
<totfact> 0.75084163E+03</totfact>
</mgrwt>
</event>
<event>
 5    1  0.3304582E-002  0.1249951E+03  0.7818608E-02  0.1235077E+00
         -4   -1    0    0    0  501 -0.00000000000E+00  0.00000000000E+00  0.10066561748E+04  0.10066569760E+04  0.12700000000E+01 0.  1.
          4   -1    0    0  501    0  0.00000000000E+00 -0.00000000000E+00 -0.37753724968E+01  0.39832571458E+01  0.12700000000E+01 0.  1.
         25    2    1    2    0    0  0.00000000000E+00  0.00000000000E+00  0.10028808023E+04  0.10106402331E+04  0.12499510814E+03 0.  0.
    9000005    1    3    3    0    0 -0.45573332255E+01  0.52670691829E+02  0.77081696785E+03  0.77262848057E+03  0.10000000000E+01 0.  0.
    9000005    1    3    3    0    0  0.45573332255E+01 -0.52670691829E+02  0.23206383449E+03  0.23801175253E+03  0.10000000000E+01 0.  0.
<mgrwt>
<rscale>  0 0.12499511E+03</rscale>
<asrwt>0</asrwt>
<pdfrwt beam="2">  1        4 0.59687942E-03 0.12499511E+03</pdfrwt>
<pdfrwt beam="1">  1       -4 0.15488620E+00 0.12499511E+03</pdfrwt>
<totfact> 0.30258950E+03</totfact>
</mgrwt>
</event>
<event>
 5    1  0.3304582E-002  0.1249958E+03  0.7818608E-02  0.1235076E+00
         -4   -1    0    0    0  501 -0.00000000000E+00  0.00000000000E+00  0.60486361653E+02  0.60499692942E+02  0.12700000000E+01 0. -1.
          4   -1    0    0  501    0  0.00000000000E+00 -0.00000000000E+00 -0.64549644491E+02  0.64562136767E+02  0.12700000000E+01 0. -1.
         25    2    1    2    0    0  0.00000000000E+00  0.00000000000E+00 -0.40632828380E+01  0.12506182971E+03  0.12499580386E+03 0.  0.
    9000005    1    3    3    0    0  0.33509025973E+02 -0.52671842813E+02  0.76445437929E+00  0.62440069166E+02  0.10000000000E+01 0.  0.
    9000005    1    3    3    0    0 -0.33509025973E+02  0.52671842813E+02 -0.48277372173E+01  0.62621760544E+02  0.10000000000E+01 0.  0.
<mgrwt>
<rscale>  0 0.12499580E+03</rscale>
<asrwt>0</asrwt>
<pdfrwt beam="2">  1        4 0.99327009E-02 0.12499580E+03</pdfrwt>
<pdfrwt beam="1">  1       -4 0.93075806E-02 0.12499580E+03</pdfrwt>
<totfact> 0.10452511E+04</totfact>
</mgrwt>
</event>
<event>
 5    1  0.3304582E-002  0.1249985E+03  0.7818608E-02  0.1235072E+00
         -4   -1    0    0    0  501 -0.00000000000E+00  0.00000000000E+00  0.22595328018E+04  0.22595331587E+04  0.12700000000E+01 0.  1.
          4   -1    0    0  501    0  0.00000000000E+00 -0.00000000000E+00 -0.14950930767E+01  0.19616837941E+01  0.12700000000E+01 0.  1.
         25    2    1    2    0    0  0.00000000000E+00  0.00000000000E+00  0.22580377087E+04  0.22614948425E+04  0.12499851462E+03 0.  0.
    9000005    1    3    3    0    0  0.34080238426E+02 -0.20676130763E+02  0.19997378922E+04  0.20001353960E+04  0.10000000000E+01 0.  0.
    9000005    1    3    3    0    0 -0.34080238426E+02  0.20676130763E+02  0.25829981653E+03  0.26135944646E+03  0.10000000000E+01 0.  0.
<mgrwt>
<rscale>  0 0.12499851E+03</rscale>
<asrwt>0</asrwt>
<pdfrwt beam="2">  1        4 0.26593342E-03 0.12499851E+03</pdfrwt>
<pdfrwt beam="1">  1       -4 0.34765629E+00 0.12499851E+03</pdfrwt>
<totfact> 0.68227988E+02</totfact>
</mgrwt>
</event>
<event>
 5    1  0.3304582E-002  0.1250036E+03  0.7818608E-02  0.1235064E+00
          4   -1    0    0  501    0  0.00000000000E+00  0.00000000000E+00  0.40717219566E+03  0.40717417626E+03  0.12700000000E+01 0. -1.
         -4   -1    0    0    0  501 -0.00000000000E+00 -0.00000000000E+00 -0.95501232548E+01  0.96341971218E+01  0.12700000000E+01 0. -1.
         25    2    1    2    0    0  0.00000000000E+00  0.00000000000E+00  0.39762207240E+03  0.41680837339E+03  0.12500363060E+03 0.  0.
    9000005    1    3    3    0    0 -0.32342479775E+02 -0.51886086197E+02  0.15568601739E+03  0.16726427577E+03  0.10000000000E+01 0.  0.
    9000005    1    3    3    0    0  0.32342479775E+02  0.51886086197E+02  0.24193605502E+03  0.24954409762E+03  0.10000000000E+01 0.  0.
<mgrwt>
<rscale>  0 0.12500363E+03</rscale>
<asrwt>0</asrwt>
<pdfrwt beam="1">  1        4 0.62648518E-01 0.12500363E+03</pdfrwt>
<pdfrwt beam="2">  1       -4 0.14758688E-02 0.12500363E+03</pdfrwt>
<totfact> 0.62945154E+03</totfact>
</mgrwt>
</event>
<event>
 5    1  0.3304582E-002  0.1249950E+03  0.7818608E-02  0.1235077E+00
          4   -1    0    0  501    0  0.00000000000E+00  0.00000000000E+00  0.16266299511E+03  0.16266795283E+03  0.12700000000E+01 0.  1.
         -4   -1    0    0    0  501 -0.00000000000E+00 -0.00000000000E+00 -0.23990339564E+02  0.24023931660E+02  0.12700000000E+01 0.  1.
         25    2    1    2    0    0  0.00000000000E+00  0.00000000000E+00  0.13867265555E+03  0.18669188449E+03  0.12499501726E+03 0.  0.
    9000005    1    3    3    0    0  0.53734399207E+02 -0.31758542503E+02  0.73804124581E+02  0.96664572027E+02  0.10000000000E+01 0.  0.
    9000005    1    3    3    0    0 -0.53734399207E+02  0.31758542503E+02  0.64868530967E+02  0.90027312466E+02  0.10000000000E+01 0.  0.
<mgrwt>
<rscale>  0 0.12499502E+03</rscale>
<asrwt>0</asrwt>
<pdfrwt beam="1">  1        4 0.25028041E-01 0.12499502E+03</pdfrwt>
<pdfrwt beam="2">  1       -4 0.36937869E-02 0.12499502E+03</pdfrwt>
<totfact> 0.92436443E+03</totfact>
</mgrwt>
</event>
<event>
 5    1  0.3304582E-002  0.1250067E+03  0.7818608E-02  0.1235059E+00
          4   -1    0    0  501    0  0.00000000000E+00  0.00000000000E+00  0.18445251475E+02  0.18488921060E+02  0.12700000000E+01 0. -1.
         -4   -1    0    0    0  501 -0.00000000000E+00 -0.00000000000E+00 -0.21150197712E+03  0.21150579005E+03  0.12700000000E+01 0. -1.
         25    2    1    2    0    0  0.00000000000E+00  0.00000000000E+00 -0.19305672565E+03  0.22999471111E+03  0.12500667111E+03 0.  0.
    9000005    1    3    3    0    0 -0.28964247968E+02 -0.41572604633E+02 -0.29217213379E+02  0.58496621047E+02  0.10000000000E+01 0.  0.
    9000005    1    3    3    0    0  0.28964247968E+02  0.41572604633E+02 -0.16383951227E+03  0.17149809006E+03  0.10000000000E+01 0.  0.
<mgrwt>
<rscale>  0 0.12500667E+03</rscale>
<asrwt>0</asrwt>
<pdfrwt beam="1">  1        4 0.28413836E-02 0.12500667E+03</pdfrwt>
<pdfrwt beam="2">  1       -4 0.32542416E-01 0.12500667E+03</pdfrwt>
<totfact> 0.85297713E+03</totfact>
</mgrwt>
</event>
<event>
 5    1  0.3304582E-002  0.1250009E+03  0.7818608E-02  0.1235068E+00
          4   -1    0    0  501    0  0.00000000000E+00  0.00000000000E+00  0.10863607802E+04  0.10863615226E+04  0.12700000000E+01 0.  1.
         -4   -1    0    0    0  501 -0.00000000000E+00 -0.00000000000E+00 -0.34828653284E+01  0.37071890828E+01  0.12700000000E+01 0.  1.
         25    2    1    2    0    0  0.00000000000E+00  0.00000000000E+00  0.10828779149E+04  0.10900687116E+04  0.12500087017E+03 0.  0.
    9000005    1    3    3    0    0 -0.12276559109E+02  0.57037601410E+02  0.34618907703E+03  0.35107246964E+03  0.10000000000E+01 0.  0.
    9000005    1    3    3    0    0  0.12276559109E+02 -0.57037601410E+02  0.73668883785E+03  0.73899624200E+03  0.10000000000E+01 0.  0.
<mgrwt>
<rscale>  0 0.12500087E+03</rscale>
<asrwt>0</asrwt>
<pdfrwt beam="1">  1        4 0.16714973E+00 0.12500087E+03</pdfrwt>
<pdfrwt beam="2">  1       -4 0.55313824E-03 0.12500087E+03</pdfrwt>
<totfact> 0.27775352E+03</totfact>
</mgrwt>
</event>
<event>
 5    1  0.3304582E-002  0.1250002E+03  0.7818608E-02  0.1235069E+00
         -4   -1    0    0    0  501 -0.00000000000E+00  0.00000000000E+00  0.93763464893E+01  0.94619645681E+01  0.12700000000E+01 0.  1.
          4   -1    0    0  501    0  0.00000000000E+00 -0.00000000000E+00 -0.41462790900E+03  0.41462985399E+03  0.12700000000E+01 0.  1.
         25    2    1    2    0    0  0.00000000000E+00  0.00000000000E+00 -0.40525156251E+03  0.42409181856E+03  0.12500016661E+03 0.  0.
    9000005    1    3    3    0    0 -0.58620319496E+02 -0.12231322841E+02 -0.26325162619E+03  0.26997845434E+03  0.10000000000E+01 0.  0.
    9000005    1    3    3    0    0  0.58620319496E+02  0.12231322841E+02 -0.14199993632E+03  0.15411336422E+03  0.10000000000E+01 0.  0.
<mgrwt>
<rscale>  0 0.12500017E+03</rscale>
<asrwt>0</asrwt>
<pdfrwt beam="2">  1        4 0.63795630E-01 0.12500017E+03</pdfrwt>
<pdfrwt beam="1">  1       -4 0.14492508E-02 0.12500017E+03</pdfrwt>
<totfact> 0.62274985E+03</totfact>
</mgrwt>
</event>
<event>
 5    1  0.3304582E-002  0.1250008E+03  0.7818608E-02  0.1235068E+00
          4   -1    0    0  501    0  0.00000000000E+00  0.00000000000E+00  0.44610903794E+02  0.44628977552E+02  0.12700000000E+01 0. -1.
         -4   -1    0    0    0  501 -0.00000000000E+00 -0.00000000000E+00 -0.87523322812E+02  0.87532536443E+02  0.12700000000E+01 0. -1.
         25    2    1    2    0    0  0.00000000000E+00  0.00000000000E+00 -0.42912419018E+02  0.13216151399E+03  0.12500076030E+03 0.  0.
    9000005    1    3    3    0    0  0.59892689432E+02 -0.52516379653E+01 -0.39479242521E+02  0.71932777916E+02  0.10000000000E+01 0.  0.
    9000005    1    3    3    0    0 -0.59892689432E+02  0.52516379653E+01 -0.34331764974E+01  0.60228736078E+02  0.10000000000E+01 0.  0.
<mgrwt>
<rscale>  0 0.12500076E+03</rscale>
<asrwt>0</asrwt>
<pdfrwt beam="1">  1        4 0.68653150E-02 0.12500076E+03</pdfrwt>
<pdfrwt beam="2">  1       -4 0.13467226E-01 0.12500076E+03</pdfrwt>
<totfact> 0.10298076E+04</totfact>
</mgrwt>
</event>
<event>
 5    1  0.3304582E-002  0.1250004E+03  0.7818608E-02  0.1235069E+00
          4   -1    0    0  501    0  0.00000000000E+00  0.00000000000E+00  0.38624139373E+02  0.38645013162E+02  0.12700000000E+01 0. -1.
         -4   -1    0    0    0  501 -0.00000000000E+00 -0.00000000000E+00 -0.10108336524E+03  0.10109134299E+03  0.12700000000E+01 0. -1.
         25    2    1    2    0    0  0.00000000000E+00  0.00000000000E+00 -0.62459225864E+02  0.13973635615E+03  0.12500037734E+03 0.  0.
    9000005    1    3    3    0    0 -0.52045887471E+02  0.24898563022E+02 -0.58071968416E+02  0.81866149041E+02  0.10000000000E+01 0.  0.
    9000005    1    3    3    0    0  0.52045887471E+02 -0.24898563022E+02 -0.43872574483E+01  0.57870207111E+02  0.10000000000E+01 0.  0.
<mgrwt>
<rscale>  0 0.12500038E+03</rscale>
<asrwt>0</asrwt>
<pdfrwt beam="1">  1        4 0.59443947E-02 0.12500038E+03</pdfrwt>
<pdfrwt beam="2">  1       -4 0.15553506E-01 0.12500038E+03</pdfrwt>
<totfact> 0.10138967E+04</totfact>
</mgrwt>
</event>
<event>
 5    1  0.3304582E-002  0.1249999E+03  0.7818608E-02  0.1235069E+00
          4   -1    0    0  501    0  0.00000000000E+00  0.00000000000E+00  0.16322364705E+02  0.16371697822E+02  0.12700000000E+01 0. -1.
         -4   -1    0    0    0  501 -0.00000000000E+00 -0.00000000000E+00 -0.23890635642E+03  0.23890973199E+03  0.12700000000E+01 0. -1.
         25    2    1    2    0    0  0.00000000000E+00  0.00000000000E+00 -0.22258399172E+03  0.25528142981E+03  0.12499990015E+03 0.  0.
    9000005    1    3    3    0    0  0.58575178478E+02 -0.95295327847E+01 -0.15127951073E+03  0.16250647340E+03  0.10000000000E+01 0.  0.
    9000005    1    3    3    0    0 -0.58575178478E+02  0.95295327847E+01 -0.71304480984E+02  0.92774956412E+02  0.10000000000E+01 0.  0.
<mgrwt>
<rscale>  0 0.12499990E+03</rscale>
<asrwt>0</asrwt>
<pdfrwt beam="1">  1        4 0.25151877E-02 0.12499990E+03</pdfrwt>
<pdfrwt beam="2">  1       -4 0.36758876E-01 0.12499990E+03</pdfrwt>
<totfact> 0.81573022E+03</totfact>
</mgrwt>
</event>
<event>
 5    1  0.3304582E-002  0.1250005E+03  0.7818608E-02  0.1235069E+00
          4   -1    0    0  501    0  0.00000000000E+00  0.00000000000E+00  0.95812571516E+02  0.95820988101E+02  0.12700000000E+01 0.  1.
         -4   -1    0    0    0  501 -0.00000000000E+00 -0.00000000000E+00 -0.40749901194E+02  0.40769686623E+02  0.12700000000E+01 0.  1.
         25    2    1    2    0    0  0.00000000000E+00  0.00000000000E+00  0.55062670322E+02  0.13659067472E+03  0.12500045903E+03 0.  0.
    9000005    1    3    3    0    0 -0.36748889939E+02  0.37132973357E+02  0.65002917834E+02  0.83400946931E+02  0.10000000000E+01 0.  0.
    9000005    1    3    3    0    0  0.36748889939E+02 -0.37132973357E+02 -0.99402475115E+01  0.53189727793E+02  0.10000000000E+01 0.  0.
<mgrwt>
<rscale>  0 0.12500046E+03</rscale>
<asrwt>0</asrwt>
<pdfrwt beam="1">  1        4 0.14742565E-01 0.12500046E+03</pdfrwt>
<pdfrwt beam="2">  1       -4 0.62713850E-02 0.12500046E+03</pdfrwt>
<totfact> 0.10204546E+04</totfact>
</mgrwt>
</event>
<event>
 5    1  0.3304582E-002  0.1249999E+03  0.7818608E-02  0.1235069E+00
         -4   -1    0    0    0  501 -0.00000000000E+00  0.00000000000E+00  0.33643700939E+03  0.33643940641E+03  0.12700000000E+01 0. -1.
          4   -1    0    0  501    0  0.00000000000E+00 -0.00000000000E+00 -0.11573455458E+02  0.11642927950E+02  0.12700000000E+01 0. -1.
         25    2    1    2    0    0  0.00000000000E+00  0.00000000000E+00  0.32486355393E+03  0.34808233436E+03  0.12499993129E+03 0.  0.
    9000005    1    3    3    0    0  0.90461314878E+01  0.24117345452E+02  0.38829264986E+01  0.26068294243E+02  0.10000000000E+01 0.  0.
    9000005    1    3    3    0    0 -0.90461314878E+01 -0.24117345452E+02  0.32098062743E+03  0.32201404011E+03  0.10000000000E+01 0.  0.
<mgrwt>
<rscale>  0 0.12499993E+03</rscale>
<asrwt>0</asrwt>
<pdfrwt beam="2">  1        4 0.17860598E-02 0.12499993E+03</pdfrwt>
<pdfrwt beam="1">  1       -4 0.51765074E-01 0.12499993E+03</pdfrwt>
<totfact> 0.69936139E+03</totfact>
</mgrwt>
</event>
<event>
 5    1  0.3304582E-002  0.1250054E+03  0.7818608E-02  0.1235061E+00
          4   -1    0    0  501    0  0.00000000000E+00  0.00000000000E+00  0.79362555605E+03  0.79362657221E+03  0.12700000000E+01 0. -1.
         -4   -1    0    0    0  501 -0.00000000000E+00 -0.00000000000E+00 -0.48395063381E+01  0.50033710233E+01  0.12700000000E+01 0. -1.
         25    2    1    2    0    0  0.00000000000E+00  0.00000000000E+00  0.78878604971E+03  0.79862994323E+03  0.12500541591E+03 0.  0.
    9000005    1    3    3    0    0  0.73147649628E+01  0.50355725109E+02  0.62619012684E+03  0.62825494808E+03  0.10000000000E+01 0.  0.
    9000005    1    3    3    0    0 -0.73147649628E+01 -0.50355725109E+02  0.16259592287E+03  0.17037499515E+03  0.10000000000E+01 0.  0.
<mgrwt>
<rscale>  0 0.12500542E+03</rscale>
<asrwt>0</asrwt>
<pdfrwt beam="1">  1        4 0.12210886E+00 0.12500542E+03</pdfrwt>
<pdfrwt beam="2">  1       -4 0.75722294E-03 0.12500542E+03</pdfrwt>
<totfact> 0.38321442E+03</totfact>
</mgrwt>
</event>
<event>
 5    1  0.3304582E-002  0.1249979E+03  0.7818608E-02  0.1235073E+00
          4   -1    0    0  501    0  0.00000000000E+00  0.00000000000E+00  0.63194217332E+02  0.63206977496E+02  0.12700000000E+01 0.  1.
         -4   -1    0    0    0  501 -0.00000000000E+00 -0.00000000000E+00 -0.61785760143E+02  0.61798811124E+02  0.12700000000E+01 0.  1.
         25    2    1    2    0    0  0.00000000000E+00  0.00000000000E+00  0.14084571893E+01  0.12500578862E+03  0.12499785373E+03 0.  0.
    9000005    1    3    3    0    0 -0.15013210732E+02  0.49981255117E+02  0.35080725218E+02  0.62890218964E+02  0.10000000000E+01 0.  0.
    9000005    1    3    3    0    0  0.15013210732E+02 -0.49981255117E+02 -0.33672268028E+02  0.62115569656E+02  0.10000000000E+01 0.  0.
<mgrwt>
<rscale>  0 0.12499785E+03</rscale>
<asrwt>0</asrwt>
<pdfrwt beam="1">  1        4 0.97241727E-02 0.12499785E+03</pdfrwt>
<pdfrwt beam="2">  1       -4 0.95074871E-02 0.12499785E+03</pdfrwt>
<totfact> 0.10453244E+04</totfact>
</mgrwt>
</event>
<event>
 5    1  0.3304582E-002  0.1249922E+03  0.7818608E-02  0.1235082E+00
          4   -1    0    0  501    0  0.00000000000E+00  0.00000000000E+00  0.94018584192E+02  0.94027161361E+02  0.12700000000E+01 0.  1.
         -4   -1    0    0    0  501 -0.00000000000E+00 -0.00000000000E+00 -0.41522253034E+02  0.41541670609E+02  0.12700000000E+01 0.  1.
         25    2    1    2    0    0  0.00000000000E+00  0.00000000000E+00  0.52496331159E+02  0.13556883197E+03  0.12499217342E+03 0.  0.
    9000005    1    3    3    0    0  0.51208976792E+02 -0.11866558309E+02  0.62894573955E+02  0.81975008040E+02  0.10000000000E+01 0.  0.
    9000005    1    3    3    0    0 -0.51208976792E+02  0.11866558309E+02 -0.10398242796E+02  0.53593823930E+02  0.10000000000E+01 0.  0.
<mgrwt>
<rscale>  0 0.12499217E+03</rscale>
<asrwt>0</asrwt>
<pdfrwt beam="1">  1        4 0.14466551E-01 0.12499217E+03</pdfrwt>
<pdfrwt beam="2">  1       -4 0.63901924E-02 0.12499217E+03</pdfrwt>
<totfact> 0.10227900E+04</totfact>
</mgrwt>
</event>
<event>
 5    1  0.3304582E-002  0.1250019E+03  0.7818608E-02  0.1235066E+00
         -4   -1    0    0    0  501 -0.00000000000E+00  0.00000000000E+00  0.20784367503E+02  0.20823132150E+02  0.12700000000E+01 0. -1.
          4   -1    0    0  501    0  0.00000000000E+00 -0.00000000000E+00 -0.18773140449E+03  0.18773570021E+03  0.12700000000E+01 0. -1.
         25    2    1    2    0    0  0.00000000000E+00  0.00000000000E+00 -0.16694703699E+03  0.20855883236E+03  0.12500189357E+03 0.  0.
    9000005    1    3    3    0    0 -0.16636604865E+02  0.16985823544E+02 -0.17989859862E+03  0.18146570091E+03  0.10000000000E+01 0.  0.
    9000005    1    3    3    0    0  0.16636604865E+02 -0.16985823544E+02  0.12951561629E+02  0.27093131446E+02  0.10000000000E+01 0.  0.
<mgrwt>
<rscale>  0 0.12500189E+03</rscale>
<asrwt>0</asrwt>
<pdfrwt beam="2">  1        4 0.28885066E-01 0.12500189E+03</pdfrwt>
<pdfrwt beam="1">  1       -4 0.32009075E-02 0.12500189E+03</pdfrwt>
<totfact> 0.88708029E+03</totfact>
</mgrwt>
</event>
<event>
 5    1  0.3304582E-002  0.1249915E+03  0.7818608E-02  0.1235083E+00
         -4   -1    0    0    0  501 -0.00000000000E+00  0.00000000000E+00  0.17799259558E+02  0.17844510103E+02  0.12700000000E+01 0. -1.
          4   -1    0    0  501    0  0.00000000000E+00 -0.00000000000E+00 -0.21910589819E+03  0.21910957880E+03  0.12700000000E+01 0. -1.
         25    2    1    2    0    0  0.00000000000E+00  0.00000000000E+00 -0.20130663863E+03  0.23695408890E+03  0.12499150967E+03 0.  0.
    9000005    1    3    3    0    0  0.28037559481E+02 -0.54398621953E+02 -0.76718284423E+02  0.98142803999E+02  0.10000000000E+01 0.  0.
    9000005    1    3    3    0    0 -0.28037559481E+02  0.54398621953E+02 -0.12458835421E+03  0.13881128491E+03  0.10000000000E+01 0.  0.
<mgrwt>
<rscale>  0 0.12499151E+03</rscale>
<asrwt>0</asrwt>
<pdfrwt beam="2">  1        4 0.33712362E-01 0.12499151E+03</pdfrwt>
<pdfrwt beam="1">  1       -4 0.27421117E-02 0.12499151E+03</pdfrwt>
<totfact> 0.84269057E+03</totfact>
</mgrwt>
</event>
<event>
 5    1  0.3304582E-002  0.1250012E+03  0.7818608E-02  0.1235067E+00
         -4   -1    0    0    0  501 -0.00000000000E+00  0.00000000000E+00  0.56662982785E+02  0.56677213394E+02  0.12700000000E+01 0.  1.
          4   -1    0    0  501    0  0.00000000000E+00 -0.00000000000E+00 -0.68910928502E+02  0.68922630297E+02  0.12700000000E+01 0.  1.
         25    2    1    2    0    0  0.00000000000E+00  0.00000000000E+00 -0.12247945717E+02  0.12559984369E+03  0.12500123424E+03 0.  0.
    9000005    1    3    3    0    0 -0.43903865919E+01  0.47130912055E+02 -0.47120450174E+02  0.66797718451E+02  0.10000000000E+01 0.  0.
    9000005    1    3    3    0    0  0.43903865919E+01 -0.47130912055E+02  0.34872504457E+02  0.58802125240E+02  0.10000000000E+01 0.  0.
<mgrwt>
<rscale>  0 0.12500123E+03</rscale>
<asrwt>0</asrwt>
<pdfrwt beam="2">  1        4 0.10603676E-01 0.12500123E+03</pdfrwt>
<pdfrwt beam="1">  1       -4 0.87193768E-02 0.12500123E+03</pdfrwt>
<totfact> 0.10439460E+04</totfact>
</mgrwt>
</event>
<event>
 5    1  0.3304582E-002  0.1249987E+03  0.7818608E-02  0.1235071E+00
          4   -1    0    0  501    0  0.00000000000E+00  0.00000000000E+00  0.13610343832E+04  0.13610349757E+04  0.12700000000E+01 0. -1.
         -4   -1    0    0    0  501 -0.00000000000E+00 -0.00000000000E+00 -0.27288802323E+01  0.30099314481E+01  0.12700000000E+01 0. -1.
         25    2    1    2    0    0  0.00000000000E+00  0.00000000000E+00  0.13583055030E+04  0.13640449072E+04  0.12499867759E+03 0.  0.
    9000005    1    3    3    0    0  0.19949387079E+02 -0.57068456085E+02  0.50648007951E+03  0.51007632533E+03  0.10000000000E+01 0.  0.
    9000005    1    3    3    0    0 -0.19949387079E+02  0.57068456085E+02  0.85182542348E+03  0.85396858186E+03  0.10000000000E+01 0.  0.
<mgrwt>
<rscale>  0 0.12499868E+03</rscale>
<asrwt>0</asrwt>
<pdfrwt beam="1">  1        4 0.20941119E+00 0.12499868E+03</pdfrwt>
<pdfrwt beam="2">  1       -4 0.44149343E-03 0.12499868E+03</pdfrwt>
<totfact> 0.20766059E+03</totfact>
</mgrwt>
</event>
<event>
 5    1  0.3304582E-002  0.1249929E+03  0.7818608E-02  0.1235080E+00
          4   -1    0    0  501    0  0.00000000000E+00  0.00000000000E+00  0.41813443871E+02  0.41832726284E+02  0.12700000000E+01 0. -1.
         -4   -1    0    0    0  501 -0.00000000000E+00 -0.00000000000E+00 -0.93365201847E+02  0.93373839033E+02  0.12700000000E+01 0. -1.
         25    2    1    2    0    0  0.00000000000E+00  0.00000000000E+00 -0.51551757975E+02  0.13520656532E+03  0.12499292602E+03 0.  0.
    9000005    1    3    3    0    0 -0.23782580478E+02  0.41966925655E+02  0.17193814347E+02  0.51219734820E+02  0.10000000000E+01 0.  0.
    9000005    1    3    3    0    0  0.23782580478E+02 -0.41966925655E+02 -0.68745572323E+02  0.83986830498E+02  0.10000000000E+01 0.  0.
<mgrwt>
<rscale>  0 0.12499293E+03</rscale>
<asrwt>0</asrwt>
<pdfrwt beam="1">  1        4 0.64349852E-02 0.12499293E+03</pdfrwt>
<pdfrwt beam="2">  1       -4 0.14366025E-01 0.12499293E+03</pdfrwt>
<totfact> 0.10235352E+04</totfact>
</mgrwt>
</event>
<event>
 5    1  0.3304582E-002  0.1249995E+03  0.7818608E-02  0.1235070E+00
          4   -1    0    0  501    0  0.00000000000E+00  0.00000000000E+00  0.88705092462E+02  0.88714183357E+02  0.12700000000E+01 0.  1.
         -4   -1    0    0    0  501 -0.00000000000E+00 -0.00000000000E+00 -0.44015493277E+02  0.44033811423E+02  0.12700000000E+01 0.  1.
         25    2    1    2    0    0  0.00000000000E+00  0.00000000000E+00  0.44689599185E+02  0.13274799478E+03  0.12499947937E+03 0.  0.
    9000005    1    3    3    0    0 -0.49338654705E+02 -0.84441171926E+01  0.62075252530E+02  0.79749250403E+02  0.10000000000E+01 0.  0.
    9000005    1    3    3    0    0  0.49338654705E+02  0.84441171926E+01 -0.17385653345E+02  0.52998744376E+02  0.10000000000E+01 0.  0.
<mgrwt>
<rscale>  0 0.12499948E+03</rscale>
<asrwt>0</asrwt>
<pdfrwt beam="1">  1        4 0.13649046E-01 0.12499948E+03</pdfrwt>
<pdfrwt beam="2">  1       -4 0.67737228E-02 0.12499948E+03</pdfrwt>
<totfact> 0.10285880E+04</totfact>
</mgrwt>
</event>
<event>
 5    1  0.3304582E-002  0.1249900E+03  0.7818608E-02  0.1235085E+00
         -4   -1    0    0    0  501 -0.00000000000E+00  0.00000000000E+00  0.28532520040E+03  0.28532802681E+03  0.12700000000E+01 0. -1.
          4   -1    0    0  501    0  0.00000000000E+00 -0.00000000000E+00 -0.13655966646E+02  0.13714894277E+02  0.12700000000E+01 0. -1.
         25    2    1    2    0    0  0.00000000000E+00  0.00000000000E+00  0.27166923375E+03  0.29904292109E+03  0.12498998393E+03 0.  0.
    9000005    1    3    3    0    0  0.54947609389E+02 -0.90632289449E+00  0.20699244026E+03  0.21416566374E+03  0.10000000000E+01 0.  0.
    9000005    1    3    3    0    0 -0.54947609389E+02  0.90632289449E+00  0.64676793495E+02  0.84877257352E+02  0.10000000000E+01 0.  0.
<mgrwt>
<rscale>  0 0.12498998E+03</rscale>
<asrwt>0</asrwt>
<pdfrwt beam="2">  1        4 0.21056682E-02 0.12498998E+03</pdfrwt>
<pdfrwt beam="1">  1       -4 0.43900936E-01 0.12498998E+03</pdfrwt>
<totfact> 0.75735887E+03</totfact>
</mgrwt>
</event>
<event>
 5    1  0.3304582E-002  0.1249975E+03  0.7818608E-02  0.1235073E+00
         -4   -1    0    0    0  501 -0.00000000000E+00  0.00000000000E+00  0.32735850416E+03  0.32736096766E+03  0.12700000000E+01 0. -1.
          4   -1    0    0  501    0  0.00000000000E+00 -0.00000000000E+00 -0.11895854577E+02  0.11963455024E+02  0.12700000000E+01 0. -1.
         25    2    1    2    0    0  0.00000000000E+00  0.00000000000E+00  0.31546264959E+03  0.33932442268E+03  0.12499752216E+03 0.  0.
    9000005    1    3    3    0    0  0.91313687191E+01  0.61547013822E+02  0.14197739163E+03  0.15501611703E+03  0.10000000000E+01 0.  0.
    9000005    1    3    3    0    0 -0.91313687191E+01 -0.61547013822E+02  0.17348525796E+03  0.18430830566E+03  0.10000000000E+01 0.  0.
<mgrwt>
<rscale>  0 0.12499752E+03</rscale>
<asrwt>0</asrwt>
<pdfrwt beam="2">  1        4 0.18355207E-02 0.12499752E+03</pdfrwt>
<pdfrwt beam="1">  1       -4 0.50368246E-01 0.12499752E+03</pdfrwt>
<totfact> 0.70919073E+03</totfact>
</mgrwt>
</event>
<event>
 5    1  0.3304582E-002  0.1249948E+03  0.7818608E-02  0.1235077E+00
         -4   -1    0    0    0  501 -0.00000000000E+00  0.00000000000E+00  0.31854896005E+02  0.31880202313E+02  0.12700000000E+01 0. -1.
          4   -1    0    0  501    0  0.00000000000E+00 -0.00000000000E+00 -0.12253891043E+03  0.12254549143E+03  0.12700000000E+01 0. -1.
         25    2    1    2    0    0  0.00000000000E+00  0.00000000000E+00 -0.90684014422E+02  0.15442569374E+03  0.12499481755E+03 0.  0.
    9000005    1    3    3    0    0 -0.25717098660E+02  0.50622812800E+02 -0.77579801451E+02  0.96143975019E+02  0.10000000000E+01 0.  0.
    9000005    1    3    3    0    0  0.25717098660E+02 -0.50622812800E+02 -0.13104212972E+02  0.58281718719E+02  0.10000000000E+01 0.  0.
<mgrwt>
<rscale>  0 0.12499482E+03</rscale>
<asrwt>0</asrwt>
<pdfrwt beam="2">  1        4 0.18854593E-01 0.12499482E+03</pdfrwt>
<pdfrwt beam="1">  1       -4 0.49032062E-02 0.12499482E+03</pdfrwt>
<totfact> 0.98439834E+03</totfact>
</mgrwt>
</event>
<event>
 5    1  0.3304582E-002  0.1250025E+03  0.7818608E-02  0.1235065E+00
         -4   -1    0    0    0  501 -0.00000000000E+00  0.00000000000E+00  0.42739441823E+02  0.42758306647E+02  0.12700000000E+01 0.  1.
          4   -1    0    0  501    0  0.00000000000E+00 -0.00000000000E+00 -0.91356997645E+02  0.91365824676E+02  0.12700000000E+01 0.  1.
         25    2    1    2    0    0  0.00000000000E+00  0.00000000000E+00 -0.48617555822E+02  0.13412413132E+03  0.12500246345E+03 0.  0.
    9000005    1    3    3    0    0  0.48900485051E+02  0.36355294775E+02 -0.39193302781E+02  0.72457434948E+02  0.10000000000E+01 0.  0.
    9000005    1    3    3    0    0 -0.48900485051E+02 -0.36355294775E+02 -0.94242530405E+01  0.61666696375E+02  0.10000000000E+01 0.  0.
<mgrwt>
<rscale>  0 0.12500246E+03</rscale>
<asrwt>0</asrwt>
<pdfrwt beam="2">  1        4 0.14057053E-01 0.12500246E+03</pdfrwt>
<pdfrwt beam="1">  1       -4 0.65774289E-02 0.12500246E+03</pdfrwt>
<totfact> 0.10255995E+04</totfact>
</mgrwt>
</event>
<event>
 5    1  0.3304582E-002  0.1250004E+03  0.7818608E-02  0.1235069E+00
          4   -1    0    0  501    0  0.00000000000E+00  0.00000000000E+00  0.22325346173E+03  0.22325707397E+03  0.12700000000E+01 0.  1.
         -4   -1    0    0    0  501 -0.00000000000E+00 -0.00000000000E+00 -0.17470225388E+02  0.17516325960E+02  0.12700000000E+01 0.  1.
         25    2    1    2    0    0  0.00000000000E+00  0.00000000000E+00  0.20578323634E+03  0.24077339992E+03  0.12500035900E+03 0.  0.
    9000005    1    3    3    0    0  0.51220428243E+02 -0.25039004466E+02  0.53602875297E+02  0.78260796406E+02  0.10000000000E+01 0.  0.
    9000005    1    3    3    0    0 -0.51220428243E+02  0.25039004466E+02  0.15218036105E+03  0.16251260352E+03  0.10000000000E+01 0.  0.
<mgrwt>
<rscale>  0 0.12500036E+03</rscale>
<asrwt>0</asrwt>
<pdfrwt beam="1">  1        4 0.34350512E-01 0.12500036E+03</pdfrwt>
<pdfrwt beam="2">  1       -4 0.26915509E-02 0.12500036E+03</pdfrwt>
<totfact> 0.83681646E+03</totfact>
</mgrwt>
</event>
<event>
 5    1  0.3304582E-002  0.1250044E+03  0.7818608E-02  0.1235062E+00
          4   -1    0    0  501    0  0.00000000000E+00  0.00000000000E+00  0.18578802765E+03  0.18579236830E+03  0.12700000000E+01 0. -1.
         -4   -1    0    0    0  501 -0.00000000000E+00 -0.00000000000E+00 -0.21003034248E+02  0.21041396047E+02  0.12700000000E+01 0. -1.
         25    2    1    2    0    0  0.00000000000E+00  0.00000000000E+00  0.16478499340E+03  0.20683376434E+03  0.12500444801E+03 0.  0.
    9000005    1    3    3    0    0 -0.27590253806E+02 -0.55896516663E+02  0.89770898835E+02  0.10929527418E+03  0.10000000000E+01 0.  0.
    9000005    1    3    3    0    0  0.27590253806E+02  0.55896516663E+02  0.75014094564E+02  0.97538490164E+02  0.10000000000E+01 0.  0.
<mgrwt>
<rscale>  0 0.12500445E+03</rscale>
<asrwt>0</asrwt>
<pdfrwt beam="1">  1        4 0.28586058E-01 0.12500445E+03</pdfrwt>
<pdfrwt beam="2">  1       -4 0.32345209E-02 0.12500445E+03</pdfrwt>
<totfact> 0.88986741E+03</totfact>
</mgrwt>
</event>
<event>
 5    1  0.3304582E-002  0.1250004E+03  0.7818608E-02  0.1235069E+00
          4   -1    0    0  501    0  0.00000000000E+00  0.00000000000E+00  0.38041135002E+02  0.38062328519E+02  0.12700000000E+01 0. -1.
         -4   -1    0    0    0  501 -0.00000000000E+00 -0.00000000000E+00 -0.10263191537E+03  0.10263977276E+03  0.12700000000E+01 0. -1.
         25    2    1    2    0    0  0.00000000000E+00  0.00000000000E+00 -0.64590780365E+02  0.14070210128E+03  0.12500044958E+03 0.  0.
    9000005    1    3    3    0    0 -0.61522184029E+01  0.36686174056E+02  0.24227329920E+02  0.44403701121E+02  0.10000000000E+01 0.  0.
    9000005    1    3    3    0    0  0.61522184029E+01 -0.36686174056E+02 -0.88818110285E+02  0.96298400157E+02  0.10000000000E+01 0.  0.
<mgrwt>
<rscale>  0 0.12500045E+03</rscale>
<asrwt>0</asrwt>
<pdfrwt beam="1">  1        4 0.58547170E-02 0.12500045E+03</pdfrwt>
<pdfrwt beam="2">  1       -4 0.15791760E-01 0.12500045E+03</pdfrwt>
<totfact> 0.10118953E+04</totfact>
</mgrwt>
</event>
<event>
 5    1  0.3304582E-002  0.1250006E+03  0.7818608E-02  0.1235068E+00
          4   -1    0    0  501    0  0.00000000000E+00  0.00000000000E+00  0.98783151170E+02  0.98791314674E+02  0.12700000000E+01 0.  1.
         -4   -1    0    0    0  501 -0.00000000000E+00 -0.00000000000E+00 -0.39524091922E+02  0.39544490669E+02  0.12700000000E+01 0.  1.
         25    2    1    2    0    0  0.00000000000E+00  0.00000000000E+00  0.59259059248E+02  0.13833580534E+03  0.12500063575E+03 0.  0.
    9000005    1    3    3    0    0  0.51856938195E+02 -0.60637036362E+01 -0.83762032716E+01  0.52887345575E+02  0.10000000000E+01 0.  0.
    9000005    1    3    3    0    0 -0.51856938195E+02  0.60637036362E+01  0.67635262519E+02  0.85448459768E+02  0.10000000000E+01 0.  0.
<mgrwt>
<rscale>  0 0.12500064E+03</rscale>
<asrwt>0</asrwt>
<pdfrwt beam="1">  1        4 0.15199605E-01 0.12500064E+03</pdfrwt>
<pdfrwt beam="2">  1       -4 0.60828267E-02 0.12500064E+03</pdfrwt>
<totfact> 0.10168048E+04</totfact>
</mgrwt>
</event>
<event>
 5    1  0.3304582E-002  0.1250008E+03  0.7818608E-02  0.1235068E+00
          4   -1    0    0  501    0  0.00000000000E+00  0.00000000000E+00  0.10319560566E+04  0.10319568380E+04  0.12700000000E+01 0.  1.
         -4   -1    0    0    0  501 -0.00000000000E+00 -0.00000000000E+00 -0.36780059806E+01  0.38910959887E+01  0.12700000000E+01 0.  1.
         25    2    1    2    0    0  0.00000000000E+00  0.00000000000E+00  0.10282780506E+04  0.10358479340E+04  0.12500077248E+03 0.  0.
    9000005    1    3    3    0    0  0.30571054255E+02 -0.34642765185E+02  0.86283106579E+03  0.86406779747E+03  0.10000000000E+01 0.  0.
    9000005    1    3    3    0    0 -0.30571054255E+02  0.34642765185E+02  0.16544698478E+03  0.17178013655E+03  0.10000000000E+01 0.  0.
<mgrwt>
<rscale>  0 0.12500077E+03</rscale>
<asrwt>0</asrwt>
<pdfrwt beam="1">  1        4 0.15877909E+00 0.12500077E+03</pdfrwt>
<pdfrwt beam="2">  1       -4 0.58229810E-03 0.12500077E+03</pdfrwt>
<totfact> 0.29440264E+03</totfact>
</mgrwt>
</event>
<event>
 5    1  0.3304582E-002  0.1250025E+03  0.7818608E-02  0.1235065E+00
          4   -1    0    0  501    0  0.00000000000E+00  0.00000000000E+00  0.12899757979E+03  0.12900383130E+03  0.12700000000E+01 0.  1.
         -4   -1    0    0    0  501 -0.00000000000E+00 -0.00000000000E+00 -0.30262477149E+02  0.30289113939E+02  0.12700000000E+01 0.  1.
         25    2    1    2    0    0  0.00000000000E+00  0.00000000000E+00  0.98735102638E+02  0.15929294524E+03  0.12500248762E+03 0.  0.
    9000005    1    3    3    0    0 -0.11225691329E+02 -0.57751888631E+02  0.22512714193E+02  0.63000945125E+02  0.10000000000E+01 0.  0.
    9000005    1    3    3    0    0  0.11225691329E+02  0.57751888631E+02  0.76222388446E+02  0.96292000118E+02  0.10000000000E+01 0.  0.
<mgrwt>
<rscale>  0 0.12500249E+03</rscale>
<asrwt>0</asrwt>
<pdfrwt beam="1">  1        4 0.19848311E-01 0.12500249E+03</pdfrwt>
<pdfrwt beam="2">  1       -4 0.46582956E-02 0.12500249E+03</pdfrwt>
<totfact> 0.97473822E+03</totfact>
</mgrwt>
</event>
<event>
 5    1  0.3304582E-002  0.1249997E+03  0.7818608E-02  0.1235070E+00
         -4   -1    0    0    0  501 -0.00000000000E+00  0.00000000000E+00  0.12774035468E+03  0.12774666772E+03  0.12700000000E+01 0. -1.
          4   -1    0    0  501    0  0.00000000000E+00 -0.00000000000E+00 -0.30559188490E+02  0.30585566877E+02  0.12700000000E+01 0. -1.
         25    2    1    2    0    0  0.00000000000E+00  0.00000000000E+00  0.97181166191E+02  0.15833223460E+03  0.12499966980E+03 0.  0.
    9000005    1    3    3    0    0 -0.13759241511E+02 -0.45426985209E+02  0.10007847892E+03  0.11076836035E+03  0.10000000000E+01 0.  0.
    9000005    1    3    3    0    0  0.13759241511E+02  0.45426985209E+02 -0.28973127312E+01  0.47563874245E+02  0.10000000000E+01 0.  0.
<mgrwt>
<rscale>  0 0.12499967E+03</rscale>
<asrwt>0</asrwt>
<pdfrwt beam="2">  1        4 0.47039283E-02 0.12499967E+03</pdfrwt>
<pdfrwt beam="1">  1       -4 0.19654877E-01 0.12499967E+03</pdfrwt>
<totfact> 0.97666008E+03</totfact>
</mgrwt>
</event>
<event>
 5    1  0.3304582E-002  0.1249871E+03  0.7818608E-02  0.1235089E+00
          4   -1    0    0  501    0  0.00000000000E+00  0.00000000000E+00  0.11657386196E+02  0.11726361453E+02  0.12700000000E+01 0. -1.
         -4   -1    0    0    0  501 -0.00000000000E+00 -0.00000000000E+00 -0.33396051378E+03  0.33396292858E+03  0.12700000000E+01 0. -1.
         25    2    1    2    0    0  0.00000000000E+00  0.00000000000E+00 -0.32230312758E+03  0.34568929003E+03  0.12498711610E+03 0.  0.
    9000005    1    3    3    0    0 -0.42131374666E+02  0.44844449748E+02 -0.19124257061E+03  0.20089997068E+03  0.10000000000E+01 0.  0.
    9000005    1    3    3    0    0  0.42131374666E+02 -0.44844449748E+02 -0.13106055697E+03  0.14478931935E+03  0.10000000000E+01 0.  0.
<mgrwt>
<rscale>  0 0.12498712E+03</rscale>
<asrwt>0</asrwt>
<pdfrwt beam="1">  1        4 0.17989358E-02 0.12498712E+03</pdfrwt>
<pdfrwt beam="2">  1       -4 0.51384025E-01 0.12498712E+03</pdfrwt>
<totfact> 0.70221432E+03</totfact>
</mgrwt>
</event>
<event>
 5    1  0.3304582E-002  0.1249942E+03  0.7818608E-02  0.1235078E+00
          4   -1    0    0  501    0  0.00000000000E+00  0.00000000000E+00  0.82473431660E+02  0.82483209381E+02  0.12700000000E+01 0. -1.
         -4   -1    0    0    0  501 -0.00000000000E+00 -0.00000000000E+00 -0.47338266544E+02  0.47355299380E+02  0.12700000000E+01 0. -1.
         25    2    1    2    0    0  0.00000000000E+00  0.00000000000E+00  0.35135165116E+02  0.12983850876E+03  0.12499423399E+03 0.  0.
    9000005    1    3    3    0    0 -0.43308154787E+02 -0.41762253928E+02  0.24980305728E-01  0.60172109388E+02  0.10000000000E+01 0.  0.
    9000005    1    3    3    0    0  0.43308154787E+02  0.41762253928E+02  0.35110184810E+02  0.69666399373E+02  0.10000000000E+01 0.  0.
<mgrwt>
<rscale>  0 0.12499423E+03</rscale>
<asrwt>0</asrwt>
<pdfrwt beam="1">  1        4 0.12690283E-01 0.12499423E+03</pdfrwt>
<pdfrwt beam="2">  1       -4 0.72848725E-02 0.12499423E+03</pdfrwt>
<totfact> 0.10349310E+04</totfact>
</mgrwt>
</event>
<event>
 5    1  0.3304582E-002  0.1249976E+03  0.7818608E-02  0.1235073E+00
         -4   -1    0    0    0  501 -0.00000000000E+00  0.00000000000E+00  0.11381850816E+02  0.11452485669E+02  0.12700000000E+01 0. -1.
          4   -1    0    0  501    0  0.00000000000E+00 -0.00000000000E+00 -0.34205333651E+03  0.34205569417E+03  0.12700000000E+01 0. -1.
         25    2    1    2    0    0  0.00000000000E+00  0.00000000000E+00 -0.33067148569E+03  0.35350817984E+03  0.12499760704E+03 0.  0.
    9000005    1    3    3    0    0 -0.39220157190E+02 -0.42868471532E+02 -0.23039318136E+03  0.23760880581E+03  0.10000000000E+01 0.  0.
    9000005    1    3    3    0    0  0.39220157190E+02  0.42868471532E+02 -0.10027830433E+03  0.11589937404E+03  0.10000000000E+01 0.  0.
<mgrwt>
<rscale>  0 0.12499761E+03</rscale>
<asrwt>0</asrwt>
<pdfrwt beam="2">  1        4 0.52629197E-01 0.12499761E+03</pdfrwt>
<pdfrwt beam="1">  1       -4 0.17566690E-02 0.12499761E+03</pdfrwt>
<totfact> 0.69344005E+03</totfact>
</mgrwt>
</event>
<event>
 5    1  0.3304582E-002  0.1250164E+03  0.7818608E-02  0.1235044E+00
          4   -1    0    0  501    0  0.00000000000E+00  0.00000000000E+00  0.11786425533E+02  0.11854650009E+02  0.12700000000E+01 0. -1.
         -4   -1    0    0    0  501 -0.00000000000E+00 -0.00000000000E+00 -0.33047997520E+03  0.33048241543E+03  0.12700000000E+01 0. -1.
         25    2    1    2    0    0  0.00000000000E+00  0.00000000000E+00 -0.31869354967E+03  0.34233706544E+03  0.12501635002E+03 0.  0.
    9000005    1    3    3    0    0  0.36481055521E+02  0.49111057112E+02 -0.12433151048E+03  0.13857159825E+03  0.10000000000E+01 0.  0.
    9000005    1    3    3    0    0 -0.36481055521E+02 -0.49111057112E+02 -0.19436203918E+03  0.20376546719E+03  0.10000000000E+01 0.  0.
<mgrwt>
<rscale>  0 0.12501635E+03</rscale>
<asrwt>0</asrwt>
<pdfrwt beam="1">  1        4 0.18187322E-02 0.12501635E+03</pdfrwt>
<pdfrwt beam="2">  1       -4 0.50848502E-01 0.12501635E+03</pdfrwt>
<totfact> 0.70550343E+03</totfact>
</mgrwt>
</event>
<event>
 5    1  0.3304582E-002  0.1250051E+03  0.7818608E-02  0.1235061E+00
          4   -1    0    0  501    0  0.00000000000E+00  0.00000000000E+00  0.25862945136E+03  0.25863256951E+03  0.12700000000E+01 0.  1.
         -4   -1    0    0    0  501 -0.00000000000E+00 -0.00000000000E+00 -0.15074975909E+02  0.15128377265E+02  0.12700000000E+01 0.  1.
         25    2    1    2    0    0  0.00000000000E+00  0.00000000000E+00  0.24355447545E+03  0.27376094677E+03  0.12500509376E+03 0.  0.
    9000005    1    3    3    0    0 -0.34065536862E+02  0.40739715852E+02  0.19392706819E+03  0.20106937366E+03  0.10000000000E+01 0.  0.
    9000005    1    3    3    0    0  0.34065536862E+02 -0.40739715852E+02  0.49627407260E+02  0.72691573107E+02  0.10000000000E+01 0.  0.
<mgrwt>
<rscale>  0 0.12500509E+03</rscale>
<asrwt>0</asrwt>
<pdfrwt beam="1">  1        4 0.39793490E-01 0.12500509E+03</pdfrwt>
<pdfrwt beam="2">  1       -4 0.23235750E-02 0.12500509E+03</pdfrwt>
<totfact> 0.79003751E+03</totfact>
</mgrwt>
</event>
<event>
 5    1  0.3304582E-002  0.1250012E+03  0.7818608E-02  0.1235067E+00
          4   -1    0    0  501    0  0.00000000000E+00  0.00000000000E+00  0.56035977377E+03  0.56036121293E+03  0.12700000000E+01 0. -1.
         -4   -1    0    0    0  501 -0.00000000000E+00 -0.00000000000E+00 -0.69118012907E+01  0.70275100200E+01  0.12700000000E+01 0. -1.
         25    2    1    2    0    0  0.00000000000E+00  0.00000000000E+00  0.55344797248E+03  0.56738872295E+03  0.12500121876E+03 0.  0.
    9000005    1    3    3    0    0 -0.58746867675E+02 -0.21166057607E+02  0.28796192495E+03  0.29465618385E+03  0.10000000000E+01 0.  0.
    9000005    1    3    3    0    0  0.58746867675E+02  0.21166057607E+02  0.26548604752E+03  0.27273253910E+03  0.10000000000E+01 0.  0.
<mgrwt>
<rscale>  0 0.12500122E+03</rscale>
<asrwt>0</asrwt>
<pdfrwt beam="1">  1        4 0.86218238E-01 0.12500122E+03</pdfrwt>
<pdfrwt beam="2">  1       -4 0.10723650E-02 0.12500122E+03</pdfrwt>
<totfact> 0.50991652E+03</totfact>
</mgrwt>
</event>
<event>
 5    1  0.3304582E-002  0.1250021E+03  0.7818608E-02  0.1235066E+00
          4   -1    0    0  501    0  0.00000000000E+00  0.00000000000E+00  0.12062148212E+03  0.12062816772E+03  0.12700000000E+01 0.  1.
         -4   -1    0    0    0  501 -0.00000000000E+00 -0.00000000000E+00 -0.32365439978E+02  0.32390347404E+02  0.12700000000E+01 0.  1.
         25    2    1    2    0    0  0.00000000000E+00  0.00000000000E+00  0.88256042140E+02  0.15301851513E+03  0.12500214797E+03 0.  0.
    9000005    1    3    3    0    0 -0.21500940631E+02  0.53196925882E+02  0.74440454980E+02  0.93992471555E+02  0.10000000000E+01 0.  0.
    9000005    1    3    3    0    0  0.21500940631E+02 -0.53196925882E+02  0.13815587160E+02  0.59026043574E+02  0.10000000000E+01 0.  0.
<mgrwt>
<rscale>  0 0.12500215E+03</rscale>
<asrwt>0</asrwt>
<pdfrwt beam="1">  1        4 0.18559581E-01 0.12500215E+03</pdfrwt>
<pdfrwt beam="2">  1       -4 0.49817287E-02 0.12500215E+03</pdfrwt>
<totfact> 0.98700600E+03</totfact>
</mgrwt>
</event>
<event>
 5    1  0.3304582E-002  0.1250003E+03  0.7818608E-02  0.1235069E+00
         -4   -1    0    0    0  501 -0.00000000000E+00  0.00000000000E+00  0.54615036229E+02  0.54629800313E+02  0.12700000000E+01 0. -1.
          4   -1    0    0  501    0  0.00000000000E+00 -0.00000000000E+00 -0.71493621864E+02  0.71504901002E+02  0.12700000000E+01 0. -1.
         25    2    1    2    0    0  0.00000000000E+00  0.00000000000E+00 -0.16878585636E+02  0.12613470132E+03  0.12500030489E+03 0.  0.
    9000005    1    3    3    0    0 -0.13638676408E+02 -0.58571920636E+02 -0.25581269312E+02  0.65361186654E+02  0.10000000000E+01 0.  0.
    9000005    1    3    3    0    0  0.13638676408E+02  0.58571920636E+02  0.87026836759E+01  0.60773514662E+02  0.10000000000E+01 0.  0.
<mgrwt>
<rscale>  0 0.12500030E+03</rscale>
<asrwt>0</asrwt>
<pdfrwt beam="2">  1        4 0.11001022E-01 0.12500030E+03</pdfrwt>
<pdfrwt beam="1">  1       -4 0.84043166E-02 0.12500030E+03</pdfrwt>
<totfact> 0.10427935E+04</totfact>
</mgrwt>
</event>
<event>
 5    1  0.3304582E-002  0.1249951E+03  0.7818608E-02  0.1235077E+00
         -4   -1    0    0    0  501 -0.00000000000E+00  0.00000000000E+00  0.10619520603E+03  0.10620279979E+03  0.12700000000E+01 0. -1.
          4   -1    0    0  501    0  0.00000000000E+00 -0.00000000000E+00 -0.36760903143E+02  0.36782834310E+02  0.12700000000E+01 0. -1.
         25    2    1    2    0    0  0.00000000000E+00  0.00000000000E+00  0.69434302889E+02  0.14298563410E+03  0.12499507647E+03 0.  0.
    9000005    1    3    3    0    0  0.57988423714E+01  0.43699583554E+02  0.85382566051E+02  0.96096112102E+02  0.10000000000E+01 0.  0.
    9000005    1    3    3    0    0 -0.57988423714E+01 -0.43699583554E+02 -0.15948263163E+02  0.46889522002E+02  0.10000000000E+01 0.  0.
<mgrwt>
<rscale>  0 0.12499508E+03</rscale>
<asrwt>0</asrwt>
<pdfrwt beam="2">  1        4 0.56577948E-02 0.12499508E+03</pdfrwt>
<pdfrwt beam="1">  1       -4 0.16339995E-01 0.12499508E+03</pdfrwt>
<totfact> 0.10073194E+04</totfact>
</mgrwt>
</event>
<event>
 5    1  0.3304582E-002  0.1250300E+03  0.7818608E-02  0.1235022E+00
         -4   -1    0    0    0  501 -0.00000000000E+00  0.00000000000E+00  0.96835421816E+02  0.96843749505E+02  0.12700000000E+01 0. -1.
          4   -1    0    0  501    0  0.00000000000E+00 -0.00000000000E+00 -0.40338385711E+02  0.40358372883E+02  0.12700000000E+01 0. -1.
         25    2    1    2    0    0  0.00000000000E+00  0.00000000000E+00  0.56497036105E+02  0.13720212239E+03  0.12503002559E+03 0.  0.
    9000005    1    3    3    0    0  0.41083765000E+02  0.17615489305E+01 -0.23410469693E+02  0.47328943496E+02  0.10000000000E+01 0.  0.
    9000005    1    3    3    0    0 -0.41083765000E+02 -0.17615489305E+01  0.79907505798E+02  0.89873178892E+02  0.10000000000E+01 0.  0.
<mgrwt>
<rscale>  0 0.12503003E+03</rscale>
<asrwt>0</asrwt>
<pdfrwt beam="2">  1        4 0.62080837E-02 0.12503003E+03</pdfrwt>
<pdfrwt beam="1">  1       -4 0.14899935E-01 0.12503003E+03</pdfrwt>
<totfact> 0.10184965E+04</totfact>
</mgrwt>
</event>
<event>
 5    1  0.3304582E-002  0.1250006E+03  0.7818608E-02  0.1235068E+00
         -4   -1    0    0    0  501 -0.00000000000E+00  0.00000000000E+00  0.25253965989E+03  0.25254285323E+03  0.12700000000E+01 0. -1.
          4   -1    0    0  501    0  0.00000000000E+00 -0.00000000000E+00 -0.15438653094E+02  0.15490800798E+02  0.12700000000E+01 0. -1.
         25    2    1    2    0    0  0.00000000000E+00  0.00000000000E+00  0.23710100680E+03  0.26803365403E+03  0.12500060907E+03 0.  0.
    9000005    1    3    3    0    0 -0.21095065433E+02  0.38904370601E+02  0.23941873416E+02  0.50326584825E+02  0.10000000000E+01 0.  0.
    9000005    1    3    3    0    0  0.21095065433E+02 -0.38904370601E+02  0.21315913338E+03  0.21770706920E+03  0.10000000000E+01 0.  0.
<mgrwt>
<rscale>  0 0.12500061E+03</rscale>
<asrwt>0</asrwt>
<pdfrwt beam="2">  1        4 0.23794344E-02 0.12500061E+03</pdfrwt>
<pdfrwt beam="1">  1       -4 0.38856512E-01 0.12500061E+03</pdfrwt>
<totfact> 0.79790624E+03</totfact>
</mgrwt>
</event>
<event>
 5    1  0.3304582E-002  0.1249993E+03  0.7818608E-02  0.1235070E+00
          4   -1    0    0  501    0  0.00000000000E+00  0.00000000000E+00  0.11085772052E+04  0.11085779326E+04  0.12700000000E+01 0.  1.
         -4   -1    0    0    0  501 -0.00000000000E+00 -0.00000000000E+00 -0.34084325962E+01  0.36373496894E+01  0.12700000000E+01 0.  1.
         25    2    1    2    0    0  0.00000000000E+00  0.00000000000E+00  0.11051687726E+04  0.11122152823E+04  0.12499927344E+03 0.  0.
    9000005    1    3    3    0    0 -0.50873399281E+02  0.36017169084E+02  0.51292649067E+03  0.51670100063E+03  0.10000000000E+01 0.  0.
    9000005    1    3    3    0    0  0.50873399281E+02 -0.36017169084E+02  0.59224228191E+03  0.59551428170E+03  0.10000000000E+01 0.  0.
<mgrwt>
<rscale>  0 0.12499927E+03</rscale>
<asrwt>0</asrwt>
<pdfrwt beam="1">  1        4 0.17056804E+00 0.12499927E+03</pdfrwt>
<pdfrwt beam="2">  1       -4 0.54203911E-03 0.12499927E+03</pdfrwt>
<totfact> 0.27129037E+03</totfact>
</mgrwt>
</event>
<event>
 5    1  0.3304582E-002  0.1249961E+03  0.7818608E-02  0.1235075E+00
         -4   -1    0    0    0  501 -0.00000000000E+00  0.00000000000E+00  0.67799362093E+02  0.67811255704E+02  0.12700000000E+01 0.  1.
          4   -1    0    0  501    0  0.00000000000E+00 -0.00000000000E+00 -0.57587281480E+02  0.57601283738E+02  0.12700000000E+01 0.  1.
         25    2    1    2    0    0  0.00000000000E+00  0.00000000000E+00  0.10212080613E+02  0.12541253944E+03  0.12499607377E+03 0.  0.
    9000005    1    3    3    0    0 -0.28108420156E+02  0.32205405010E+02 -0.40627990699E+02  0.58982243292E+02  0.10000000000E+01 0.  0.
    9000005    1    3    3    0    0  0.28108420156E+02 -0.32205405010E+02  0.50840071312E+02  0.66430296150E+02  0.10000000000E+01 0.  0.
<mgrwt>
<rscale>  0 0.12499607E+03</rscale>
<asrwt>0</asrwt>
<pdfrwt beam="2">  1        4 0.88615738E-02 0.12499607E+03</pdfrwt>
<pdfrwt beam="1">  1       -4 0.10432663E-01 0.12499607E+03</pdfrwt>
<totfact> 0.10444814E+04</totfact>
</mgrwt>
</event>
<event>
 5    1  0.3304582E-002  0.1249983E+03  0.7818608E-02  0.1235072E+00
         -4   -1    0    0    0  501 -0.00000000000E+00  0.00000000000E+00  0.10243605325E+03  0.10244392567E+03  0.12700000000E+01 0. -1.
          4   -1    0    0  501    0  0.00000000000E+00 -0.00000000000E+00 -0.38112610552E+02  0.38133764345E+02  0.12700000000E+01 0. -1.
         25    2    1    2    0    0  0.00000000000E+00  0.00000000000E+00  0.64323442702E+02  0.14057769001E+03  0.12499832658E+03 0.  0.
    9000005    1    3    3    0    0  0.46792366167E+02  0.25794364161E+02 -0.42853653627E+01  0.53611930671E+02  0.10000000000E+01 0.  0.
    9000005    1    3    3    0    0 -0.46792366167E+02 -0.25794364161E+02  0.68608808065E+02  0.86965759343E+02  0.10000000000E+01 0.  0.
<mgrwt>
<rscale>  0 0.12499833E+03</rscale>
<asrwt>0</asrwt>
<pdfrwt beam="2">  1        4 0.58657113E-02 0.12499833E+03</pdfrwt>
<pdfrwt beam="1">  1       -4 0.15761626E-01 0.12499833E+03</pdfrwt>
<totfact> 0.10122008E+04</totfact>
</mgrwt>
</event>
<event>
 5    1  0.3304582E-002  0.1249986E+03  0.7818608E-02  0.1235071E+00
         -4   -1    0    0    0  501 -0.00000000000E+00  0.00000000000E+00  0.11698588516E+04  0.11698595410E+04  0.12700000000E+01 0. -1.
          4   -1    0    0  501    0  0.00000000000E+00 -0.00000000000E+00 -0.32175262545E+01  0.34591003452E+01  0.12700000000E+01 0. -1.
         25    2    1    2    0    0  0.00000000000E+00  0.00000000000E+00  0.11666413254E+04  0.11733186413E+04  0.12499860808E+03 0.  0.
    9000005    1    3    3    0    0  0.11304082368E+02 -0.49465761336E+02  0.24093043254E+03  0.24621762152E+03  0.10000000000E+01 0.  0.
    9000005    1    3    3    0    0 -0.11304082368E+02  0.49465761336E+02  0.92571089283E+03  0.92710101980E+03  0.10000000000E+01 0.  0.
<mgrwt>
<rscale>  0 0.12499861E+03</rscale>
<asrwt>0</asrwt>
<pdfrwt beam="2">  1        4 0.51363933E-03 0.12499861E+03</pdfrwt>
<pdfrwt beam="1">  1       -4 0.17999705E+00 0.12499861E+03</pdfrwt>
<totfact> 0.25422758E+03</totfact>
</mgrwt>
</event>
<event>
 5    1  0.3304582E-002  0.1249962E+03  0.7818608E-02  0.1235075E+00
          4   -1    0    0  501    0  0.00000000000E+00  0.00000000000E+00  0.31938135451E+02  0.31963375856E+02  0.12700000000E+01 0.  1.
         -4   -1    0    0    0  501 -0.00000000000E+00 -0.00000000000E+00 -0.12222254535E+03  0.12222914338E+03  0.12700000000E+01 0.  1.
         25    2    1    2    0    0  0.00000000000E+00  0.00000000000E+00 -0.90284409895E+02  0.15419251923E+03  0.12499623321E+03 0.  0.
    9000005    1    3    3    0    0  0.46452590306E+02 -0.40225486242E+02 -0.31127024309E+02  0.68889945071E+02  0.10000000000E+01 0.  0.
    9000005    1    3    3    0    0 -0.46452590306E+02  0.40225486242E+02 -0.59157385586E+02  0.85302574164E+02  0.10000000000E+01 0.  0.
<mgrwt>
<rscale>  0 0.12499623E+03</rscale>
<asrwt>0</asrwt>
<pdfrwt beam="1">  1        4 0.49160085E-02 0.12499623E+03</pdfrwt>
<pdfrwt beam="2">  1       -4 0.18805917E-01 0.12499623E+03</pdfrwt>
<totfact> 0.98482594E+03</totfact>
</mgrwt>
</event>
<event>
 5    1  0.3304582E-002  0.1249984E+03  0.7818608E-02  0.1235072E+00
          4   -1    0    0  501    0  0.00000000000E+00  0.00000000000E+00  0.18580352075E+02  0.18623704874E+02  0.12700000000E+01 0.  1.
         -4   -1    0    0    0  501 -0.00000000000E+00 -0.00000000000E+00 -0.20993990768E+03  0.20994374898E+03  0.12700000000E+01 0.  1.
         25    2    1    2    0    0  0.00000000000E+00  0.00000000000E+00 -0.19135955560E+03  0.22856745385E+03  0.12499840575E+03 0.  0.
    9000005    1    3    3    0    0 -0.31397036235E+02  0.49198955364E+02 -0.13652020090E+03  0.14847584432E+03  0.10000000000E+01 0.  0.
    9000005    1    3    3    0    0  0.31397036235E+02 -0.49198955364E+02 -0.54839354702E+02  0.80091609532E+02  0.10000000000E+01 0.  0.
<mgrwt>
<rscale>  0 0.12499841E+03</rscale>
<asrwt>0</asrwt>
<pdfrwt beam="1">  1        4 0.28621462E-02 0.12499841E+03</pdfrwt>
<pdfrwt beam="2">  1       -4 0.32302076E-01 0.12499841E+03</pdfrwt>
<totfact> 0.85533096E+03</totfact>
</mgrwt>
</event>
<event>
 5    1  0.3304582E-002  0.1249977E+03  0.7818608E-02  0.1235073E+00
         -4   -1    0    0    0  501 -0.00000000000E+00  0.00000000000E+00  0.37430832799E+02  0.37452371674E+02  0.12700000000E+01 0.  1.
          4   -1    0    0  501    0  0.00000000000E+00 -0.00000000000E+00 -0.10429991503E+03  0.10430764677E+03  0.12700000000E+01 0.  1.
         25    2    1    2    0    0  0.00000000000E+00  0.00000000000E+00 -0.66869082228E+02  0.14176001844E+03  0.12499771466E+03 0.  0.
    9000005    1    3    3    0    0  0.40180429506E+01  0.44831498374E+02 -0.82596202146E+02  0.94069870440E+02  0.10000000000E+01 0.  0.
    9000005    1    3    3    0    0 -0.40180429506E+01 -0.44831498374E+02  0.15727119918E+02  0.47690148003E+02  0.10000000000E+01 0.  0.
<mgrwt>
<rscale>  0 0.12499771E+03</rscale>
<asrwt>0</asrwt>
<pdfrwt beam="2">  1        4 0.16048392E-01 0.12499771E+03</pdfrwt>
<pdfrwt beam="1">  1       -4 0.57608413E-02 0.12499771E+03</pdfrwt>
<totfact> 0.10097758E+04</totfact>
</mgrwt>
</event>
<event>
 5    1  0.3304582E-002  0.1250010E+03  0.7818608E-02  0.1235068E+00
          4   -1    0    0  501    0  0.00000000000E+00  0.00000000000E+00  0.31175552286E+02  0.31201409589E+02  0.12700000000E+01 0. -1.
         -4   -1    0    0    0  501 -0.00000000000E+00 -0.00000000000E+00 -0.12521956320E+03  0.12522600332E+03  0.12700000000E+01 0. -1.
         25    2    1    2    0    0  0.00000000000E+00  0.00000000000E+00 -0.94044010916E+02  0.15642741291E+03  0.12500103808E+03 0.  0.
    9000005    1    3    3    0    0  0.50219377249E+02  0.22397799804E+02 -0.98640609283E+01  0.55874385771E+02  0.10000000000E+01 0.  0.
    9000005    1    3    3    0    0 -0.50219377249E+02 -0.22397799804E+02 -0.84179949988E+02  0.10055302714E+03  0.10000000000E+01 0.  0.
<mgrwt>
<rscale>  0 0.12500104E+03</rscale>
<asrwt>0</asrwt>
<pdfrwt beam="1">  1        4 0.47987233E-02 0.12500104E+03</pdfrwt>
<pdfrwt beam="2">  1       -4 0.19267032E-01 0.12500104E+03</pdfrwt>
<totfact> 0.98033718E+03</totfact>
</mgrwt>
</event>
<event>
 5    1  0.3304582E-002  0.1249892E+03  0.7818608E-02  0.1235086E+00
          4   -1    0    0  501    0  0.00000000000E+00  0.00000000000E+00  0.12961193566E+03  0.12961815754E+03  0.12700000000E+01 0. -1.
         -4   -1    0    0    0  501 -0.00000000000E+00 -0.00000000000E+00 -0.30112498880E+02  0.30139268219E+02  0.12700000000E+01 0. -1.
         25    2    1    2    0    0  0.00000000000E+00  0.00000000000E+00  0.99499436779E+02  0.15975742576E+03  0.12498918820E+03 0.  0.
    9000005    1    3    3    0    0  0.52830479269E+02  0.29207064739E+02  0.29121539295E+02  0.67031158586E+02  0.10000000000E+01 0.  0.
    9000005    1    3    3    0    0 -0.52830479269E+02 -0.29207064739E+02  0.70377897484E+02  0.92726267178E+02  0.10000000000E+01 0.  0.
<mgrwt>
<rscale>  0 0.12498919E+03</rscale>
<asrwt>0</asrwt>
<pdfrwt beam="1">  1        4 0.19942836E-01 0.12498919E+03</pdfrwt>
<pdfrwt beam="2">  1       -4 0.46352299E-02 0.12498919E+03</pdfrwt>
<totfact> 0.97413243E+03</totfact>
</mgrwt>
</event>
<event>
 5    1  0.3304582E-002  0.1250120E+03  0.7818608E-02  0.1235051E+00
         -4   -1    0    0    0  501 -0.00000000000E+00  0.00000000000E+00  0.35326981685E+03  0.35327209965E+03  0.12700000000E+01 0.  1.
          4   -1    0    0  501    0  0.00000000000E+00 -0.00000000000E+00 -0.11020751907E+02  0.11093686159E+02  0.12700000000E+01 0.  1.
         25    2    1    2    0    0  0.00000000000E+00  0.00000000000E+00  0.34224906494E+03  0.36436578581E+03  0.12501201311E+03 0.  0.
    9000005    1    3    3    0    0  0.18519511483E+02 -0.44145247385E+02  0.28822751794E+03  0.29217781789E+03  0.10000000000E+01 0.  0.
    9000005    1    3    3    0    0 -0.18519511483E+02  0.44145247385E+02  0.54021547003E+02  0.72187967923E+02  0.10000000000E+01 0.  0.
<mgrwt>
<rscale>  0 0.12501201E+03</rscale>
<asrwt>0</asrwt>
<pdfrwt beam="2">  1        4 0.17012861E-02 0.12501201E+03</pdfrwt>
<pdfrwt beam="1">  1       -4 0.54354993E-01 0.12501201E+03</pdfrwt>
<totfact> 0.68154417E+03</totfact>
</mgrwt>
</event>
<event>
 5    1  0.3304582E-002  0.1250047E+03  0.7818608E-02  0.1235062E+00
          4   -1    0    0  501    0  0.00000000000E+00  0.00000000000E+00  0.11312012203E+04  0.11312019332E+04  0.12700000000E+01 0. -1.
         -4   -1    0    0    0  501 -0.00000000000E+00 -0.00000000000E+00 -0.33359488443E+01  0.35695174312E+01  0.12700000000E+01 0. -1.
         25    2    1    2    0    0  0.00000000000E+00  0.00000000000E+00  0.11278652715E+04  0.11347714507E+04  0.12500469849E+03 0.  0.
    9000005    1    3    3    0    0  0.38868287343E+02  0.80479235876E+01  0.12574219664E+03  0.13186209785E+03  0.10000000000E+01 0.  0.
    9000005    1    3    3    0    0 -0.38868287343E+02 -0.80479235876E+01  0.10021230748E+04  0.10029093528E+04  0.10000000000E+01 0.  0.
<mgrwt>
<rscale>  0 0.12500470E+03</rscale>
<asrwt>0</asrwt>
<pdfrwt beam="1">  1        4 0.17404927E+00 0.12500470E+03</pdfrwt>
<pdfrwt beam="2">  1       -4 0.53124366E-03 0.12500470E+03</pdfrwt>
<totfact> 0.26483806E+03</totfact>
</mgrwt>
</event>
<event>
 5    1  0.3304582E-002  0.1250017E+03  0.7818608E-02  0.1235067E+00
          4   -1    0    0  501    0  0.00000000000E+00  0.00000000000E+00  0.20392642332E+03  0.20393037789E+03  0.12700000000E+01 0. -1.
         -4   -1    0    0    0  501 -0.00000000000E+00 -0.00000000000E+00 -0.19130532864E+02  0.19172641645E+02  0.12700000000E+01 0. -1.
         25    2    1    2    0    0  0.00000000000E+00  0.00000000000E+00  0.18479589045E+03  0.22310301954E+03  0.12500174478E+03 0.  0.
    9000005    1    3    3    0    0 -0.82334672526E+01  0.26667390349E+01  0.20286040280E+03  0.20304739473E+03  0.10000000000E+01 0.  0.
    9000005    1    3    3    0    0  0.82334672526E+01 -0.26667390349E+01 -0.18064512349E+02  0.20055624809E+02  0.10000000000E+01 0.  0.
<mgrwt>
<rscale>  0 0.12500174E+03</rscale>
<asrwt>0</asrwt>
<pdfrwt beam="1">  1        4 0.31376838E-01 0.12500174E+03</pdfrwt>
<pdfrwt beam="2">  1       -4 0.29467024E-02 0.12500174E+03</pdfrwt>
<totfact> 0.86376342E+03</totfact>
</mgrwt>
</event>
<event>
 5    1  0.3304582E-002  0.1249999E+03  0.7818608E-02  0.1235069E+00
         -4   -1    0    0    0  501 -0.00000000000E+00  0.00000000000E+00  0.13276913370E+02  0.13337515835E+02  0.12700000000E+01 0. -1.
          4   -1    0    0  501    0  0.00000000000E+00 -0.00000000000E+00 -0.29348143170E+03  0.29348417956E+03  0.12700000000E+01 0. -1.
         25    2    1    2    0    0  0.00000000000E+00  0.00000000000E+00 -0.28020451833E+03  0.30682169539E+03  0.12499992269E+03 0.  0.
    9000005    1    3    3    0    0  0.49081806050E+02 -0.32586073666E+02 -0.19125935426E+03  0.20012999893E+03  0.10000000000E+01 0.  0.
    9000005    1    3    3    0    0 -0.49081806050E+02  0.32586073666E+02 -0.88945164069E+02  0.10669169646E+03  0.10000000000E+01 0.  0.
<mgrwt>
<rscale>  0 0.12499992E+03</rscale>
<asrwt>0</asrwt>
<pdfrwt beam="2">  1        4 0.45155858E-01 0.12499992E+03</pdfrwt>
<pdfrwt beam="1">  1       -4 0.20474754E-02 0.12499992E+03</pdfrwt>
<totfact> 0.74751159E+03</totfact>
</mgrwt>
</event>
<event>
 5    1  0.3304582E-002  0.1250016E+03  0.7818608E-02  0.1235067E+00
          4   -1    0    0  501    0  0.00000000000E+00  0.00000000000E+00  0.83085787886E+01  0.84050806948E+01  0.12700000000E+01 0. -1.
         -4   -1    0    0    0  501 -0.00000000000E+00 -0.00000000000E+00 -0.46734668984E+03  0.46734841543E+03  0.12700000000E+01 0. -1.
         25    2    1    2    0    0  0.00000000000E+00  0.00000000000E+00 -0.45903811105E+03  0.47575349612E+03  0.12500160670E+03 0.  0.
    9000005    1    3    3    0    0 -0.61816215653E+02  0.83772048289E+01 -0.24372323287E+03  0.25158186803E+03  0.10000000000E+01 0.  0.
    9000005    1    3    3    0    0  0.61816215653E+02 -0.83772048289E+01 -0.21531487818E+03  0.22417162809E+03  0.10000000000E+01 0.  0.
<mgrwt>
<rscale>  0 0.12500161E+03</rscale>
<asrwt>0</asrwt>
<pdfrwt beam="1">  1        4 0.12857992E-02 0.12500161E+03</pdfrwt>
<pdfrwt beam="2">  1       -4 0.71907026E-01 0.12500161E+03</pdfrwt>
<totfact> 0.57793893E+03</totfact>
</mgrwt>
</event>
<event>
 5    1  0.3304582E-002  0.1249986E+03  0.7818608E-02  0.1235072E+00
         -4   -1    0    0    0  501 -0.00000000000E+00  0.00000000000E+00  0.45083937010E+01  0.46838567189E+01  0.12700000000E+01 0.  1.
          4   -1    0    0  501    0  0.00000000000E+00 -0.00000000000E+00 -0.84970518615E+03  0.84970613525E+03  0.12700000000E+01 0.  1.
         25    2    1    2    0    0  0.00000000000E+00  0.00000000000E+00 -0.84519679245E+03  0.85438999197E+03  0.12499856159E+03 0.  0.
    9000005    1    3    3    0    0 -0.95026368495E+01  0.45898251033E+01 -0.84360410134E+03  0.84367069784E+03  0.10000000000E+01 0.  0.
    9000005    1    3    3    0    0  0.95026368495E+01 -0.45898251033E+01 -0.15926911162E+01  0.10719294126E+02  0.10000000000E+01 0.  0.
<mgrwt>
<rscale>  0 0.12499856E+03</rscale>
<asrwt>0</asrwt>
<pdfrwt beam="2">  1        4 0.13073732E+00 0.12499856E+03</pdfrwt>
<pdfrwt beam="1">  1       -4 0.70716987E-03 0.12499856E+03</pdfrwt>
<totfact> 0.35949511E+03</totfact>
</mgrwt>
</event>
<event>
 5    1  0.3304582E-002  0.1249984E+03  0.7818608E-02  0.1235072E+00
         -4   -1    0    0    0  501 -0.00000000000E+00  0.00000000000E+00  0.12066030695E+02  0.12132682998E+02  0.12700000000E+01 0. -1.
          4   -1    0    0  501    0  0.00000000000E+00 -0.00000000000E+00 -0.32277177502E+03  0.32277427352E+03  0.12700000000E+01 0. -1.
         25    2    1    2    0    0  0.00000000000E+00  0.00000000000E+00 -0.31070574432E+03  0.33490695652E+03  0.12499843987E+03 0.  0.
    9000005    1    3    3    0    0  0.44811402709E+02 -0.12016071541E+02 -0.26752215734E+03  0.27151713105E+03  0.10000000000E+01 0.  0.
    9000005    1    3    3    0    0 -0.44811402709E+02  0.12016071541E+02 -0.43183586985E+02  0.63389825469E+02  0.10000000000E+01 0.  0.
<mgrwt>
<rscale>  0 0.12499844E+03</rscale>
<asrwt>0</asrwt>
<pdfrwt beam="2">  1        4 0.49662509E-01 0.12499844E+03</pdfrwt>
<pdfrwt beam="1">  1       -4 0.18616320E-02 0.12499844E+03</pdfrwt>
<totfact> 0.71419998E+03</totfact>
</mgrwt>
</event>
<event>
 5    1  0.3304582E-002  0.1249961E+03  0.7818608E-02  0.1235075E+00
          4   -1    0    0  501    0  0.00000000000E+00  0.00000000000E+00  0.48866092398E+02  0.48882592876E+02  0.12700000000E+01 0. -1.
         -4   -1    0    0    0  501 -0.00000000000E+00 -0.00000000000E+00 -0.79897794606E+02  0.79907887489E+02  0.12700000000E+01 0. -1.
         25    2    1    2    0    0  0.00000000000E+00  0.00000000000E+00 -0.31031702208E+02  0.12879048037E+03  0.12499608510E+03 0.  0.
    9000005    1    3    3    0    0  0.28160732051E+02  0.45207943740E+02  0.18159937037E+02  0.56281154217E+02  0.10000000000E+01 0.  0.
    9000005    1    3    3    0    0 -0.28160732051E+02 -0.45207943740E+02 -0.49191639245E+02  0.72509326148E+02  0.10000000000E+01 0.  0.
<mgrwt>
<rscale>  0 0.12499609E+03</rscale>
<asrwt>0</asrwt>
<pdfrwt beam="1">  1        4 0.75199060E-02 0.12499609E+03</pdfrwt>
<pdfrwt beam="2">  1       -4 0.12294014E-01 0.12499609E+03</pdfrwt>
<totfact> 0.10371368E+04</totfact>
</mgrwt>
</event>
<event>
 5    1  0.3304582E-002  0.1249976E+03  0.7818608E-02  0.1235073E+00
          4   -1    0    0  501    0  0.00000000000E+00  0.00000000000E+00  0.12556455150E+03  0.12557097393E+03  0.12700000000E+01 0. -1.
         -4   -1    0    0    0  501 -0.00000000000E+00 -0.00000000000E+00 -0.31088113023E+02  0.31114042992E+02  0.12700000000E+01 0. -1.
         25    2    1    2    0    0  0.00000000000E+00  0.00000000000E+00  0.94476438481E+02  0.15668501692E+03  0.12499758838E+03 0.  0.
    9000005    1    3    3    0    0 -0.15222070521E+02 -0.59778947370E+02  0.59764816957E+02  0.85895676989E+02  0.10000000000E+01 0.  0.
    9000005    1    3    3    0    0  0.15222070521E+02  0.59778947370E+02  0.34711621524E+02  0.70789339935E+02  0.10000000000E+01 0.  0.
<mgrwt>
<rscale>  0 0.12499759E+03</rscale>
<asrwt>0</asrwt>
<pdfrwt beam="1">  1        4 0.19320112E-01 0.12499759E+03</pdfrwt>
<pdfrwt beam="2">  1       -4 0.47852753E-02 0.12499759E+03</pdfrwt>
<totfact> 0.97991034E+03</totfact>
</mgrwt>
</event>
<event>
 5    1  0.3304582E-002  0.1250015E+03  0.7818608E-02  0.1235067E+00
          4   -1    0    0  501    0  0.00000000000E+00  0.00000000000E+00  0.36031387731E+03  0.36031611549E+03  0.12700000000E+01 0.  1.
         -4   -1    0    0    0  501 -0.00000000000E+00 -0.00000000000E+00 -0.10802025831E+02  0.10876426898E+02  0.12700000000E+01 0.  1.
         25    2    1    2    0    0  0.00000000000E+00  0.00000000000E+00  0.34951185148E+03  0.37119254239E+03  0.12500147679E+03 0.  0.
    9000005    1    3    3    0    0 -0.40602217939E+02  0.21488731556E+02  0.30056754564E+03  0.30405945993E+03  0.10000000000E+01 0.  0.
    9000005    1    3    3    0    0  0.40602217939E+02 -0.21488731556E+02  0.48944305842E+02  0.67133082454E+02  0.10000000000E+01 0.  0.
<mgrwt>
<rscale>  0 0.12500148E+03</rscale>
<asrwt>0</asrwt>
<pdfrwt beam="1">  1        4 0.55438801E-01 0.12500148E+03</pdfrwt>
<pdfrwt beam="2">  1       -4 0.16677454E-02 0.12500148E+03</pdfrwt>
<totfact> 0.67452154E+03</totfact>
</mgrwt>
</event>
<event>
 5    1  0.3304582E-002  0.1250005E+03  0.7818608E-02  0.1235068E+00
         -4   -1    0    0    0  501 -0.00000000000E+00  0.00000000000E+00  0.14230842510E+02  0.14287399292E+02  0.12700000000E+01 0.  1.
          4   -1    0    0  501    0  0.00000000000E+00 -0.00000000000E+00 -0.27389178199E+03  0.27389472639E+03  0.12700000000E+01 0.  1.
         25    2    1    2    0    0  0.00000000000E+00  0.00000000000E+00 -0.25966093949E+03  0.28818212568E+03  0.12500053627E+03 0.  0.
    9000005    1    3    3    0    0  0.10486790168E+02 -0.17741369830E+02  0.61822065969E+01  0.21539467261E+02  0.10000000000E+01 0.  0.
    9000005    1    3    3    0    0 -0.10486790168E+02  0.17741369830E+02 -0.26584314608E+03  0.26664265842E+03  0.10000000000E+01 0.  0.
<mgrwt>
<rscale>  0 0.12500054E+03</rscale>
<asrwt>0</asrwt>
<pdfrwt beam="2">  1        4 0.42141770E-01 0.12500054E+03</pdfrwt>
<pdfrwt beam="1">  1       -4 0.21939376E-02 0.12500054E+03</pdfrwt>
<totfact> 0.77104657E+03</totfact>
</mgrwt>
</event>
<event>
 5    1  0.3304582E-002  0.1250005E+03  0.7818608E-02  0.1235068E+00
          4   -1    0    0  501    0  0.00000000000E+00  0.00000000000E+00  0.37036884091E+03  0.37037101832E+03  0.12700000000E+01 0. -1.
         -4   -1    0    0    0  501 -0.00000000000E+00 -0.00000000000E+00 -0.10506561738E+02  0.10583040185E+02  0.12700000000E+01 0. -1.
         25    2    1    2    0    0  0.00000000000E+00  0.00000000000E+00  0.35986227917E+03  0.38095405851E+03  0.12500053890E+03 0.  0.
    9000005    1    3    3    0    0  0.62604777410E+01  0.10463206543E+02  0.36672339066E+03  0.36692740090E+03  0.10000000000E+01 0.  0.
    9000005    1    3    3    0    0 -0.62604777410E+01 -0.10463206543E+02 -0.68611114948E+01  0.14026657608E+02  0.10000000000E+01 0.  0.
<mgrwt>
<rscale>  0 0.12500054E+03</rscale>
<asrwt>0</asrwt>
<pdfrwt beam="1">  1        4 0.56985884E-01 0.12500054E+03</pdfrwt>
<pdfrwt beam="2">  1       -4 0.16224442E-02 0.12500054E+03</pdfrwt>
<totfact> 0.66447497E+03</totfact>
</mgrwt>
</event>
<event>
 5    1  0.3304582E-002  0.1249993E+03  0.7818608E-02  0.1235070E+00
          4   -1    0    0  501    0  0.00000000000E+00  0.00000000000E+00  0.21518700181E+04  0.21518703928E+04  0.12700000000E+01 0.  1.
         -4   -1    0    0    0  501 -0.00000000000E+00 -0.00000000000E+00 -0.15927083508E+01  0.20370615824E+01  0.12700000000E+01 0.  1.
         25    2    1    2    0    0  0.00000000000E+00  0.00000000000E+00  0.21502773097E+04  0.21539074544E+04  0.12499925404E+03 0.  0.
    9000005    1    3    3    0    0  0.28906352934E+02 -0.17595147181E+02  0.16987087182E+03  0.17321166108E+03  0.10000000000E+01 0.  0.
    9000005    1    3    3    0    0 -0.28906352934E+02  0.17595147181E+02  0.19804064379E+04  0.19806957933E+04  0.10000000000E+01 0.  0.
<mgrwt>
<rscale>  0 0.12499925E+03</rscale>
<asrwt>0</asrwt>
<pdfrwt beam="1">  1        4 0.33109364E+00 0.12499925E+03</pdfrwt>
<pdfrwt beam="2">  1       -4 0.27923979E-03 0.12499925E+03</pdfrwt>
<totfact> 0.79837115E+02</totfact>
</mgrwt>
</event>
<event>
 5    1  0.3304582E-002  0.1250020E+03  0.7818608E-02  0.1235066E+00
         -4   -1    0    0    0  501 -0.00000000000E+00  0.00000000000E+00  0.43472461235E+02  0.43491008103E+02  0.12700000000E+01 0. -1.
          4   -1    0    0  501    0  0.00000000000E+00 -0.00000000000E+00 -0.89816459951E+02  0.89825438369E+02  0.12700000000E+01 0. -1.
         25    2    1    2    0    0  0.00000000000E+00  0.00000000000E+00 -0.46343998716E+02  0.13331644647E+03  0.12500203472E+03 0.  0.
    9000005    1    3    3    0    0 -0.30065332246E+02 -0.50425666832E+01 -0.81353506901E+02  0.86883512630E+02  0.10000000000E+01 0.  0.
    9000005    1    3    3    0    0  0.30065332246E+02  0.50425666832E+01  0.35009508185E+02  0.46432933842E+02  0.10000000000E+01 0.  0.
<mgrwt>
<rscale>  0 0.12500203E+03</rscale>
<asrwt>0</asrwt>
<pdfrwt beam="2">  1        4 0.13820034E-01 0.12500203E+03</pdfrwt>
<pdfrwt beam="1">  1       -4 0.66901883E-02 0.12500203E+03</pdfrwt>
<totfact> 0.10273208E+04</totfact>
</mgrwt>
</event>
<event>
 5    1  0.3304582E-002  0.1250005E+03  0.7818608E-02  0.1235069E+00
          4   -1    0    0  501    0  0.00000000000E+00  0.00000000000E+00  0.37528403980E+02  0.37549886888E+02  0.12700000000E+01 0.  1.
         -4   -1    0    0    0  501 -0.00000000000E+00 -0.00000000000E+00 -0.10403347239E+03  0.10404122394E+03  0.12700000000E+01 0.  1.
         25    2    1    2    0    0  0.00000000000E+00  0.00000000000E+00 -0.66505068412E+02  0.14159111082E+03  0.12500047416E+03 0.  0.
    9000005    1    3    3    0    0 -0.36774676072E+02  0.49791180072E+02 -0.23525521283E+02  0.66226796426E+02  0.10000000000E+01 0.  0.
    9000005    1    3    3    0    0  0.36774676072E+02 -0.49791180072E+02 -0.42979547129E+02  0.75364314397E+02  0.10000000000E+01 0.  0.
<mgrwt>
<rscale>  0 0.12500047E+03</rscale>
<asrwt>0</asrwt>
<pdfrwt beam="1">  1        4 0.57758495E-02 0.12500047E+03</pdfrwt>
<pdfrwt beam="2">  1       -4 0.16007398E-01 0.12500047E+03</pdfrwt>
<totfact> 0.10100607E+04</totfact>
</mgrwt>
</event>
<event>
 5    1  0.3304582E-002  0.1249996E+03  0.7818608E-02  0.1235070E+00
         -4   -1    0    0    0  501 -0.00000000000E+00  0.00000000000E+00  0.23811566447E+04  0.23811569834E+04  0.12700000000E+01 0.  1.
          4   -1    0    0  501    0  0.00000000000E+00 -0.00000000000E+00 -0.13942848503E+01  0.18859825672E+01  0.12700000000E+01 0.  1.
         25    2    1    2    0    0  0.00000000000E+00  0.00000000000E+00  0.23797623599E+04  0.23830429659E+04  0.12499955277E+03 0.  0.
    9000005    1    3    3    0    0  0.42416681453E+01 -0.55914591047E+02  0.17157234219E+04  0.17166398264E+04  0.10000000000E+01 0.  0.
    9000005    1    3    3    0    0 -0.42416681453E+01  0.55914591047E+02  0.66403893797E+03  0.66640313953E+03  0.10000000000E+01 0.  0.
<mgrwt>
<rscale>  0 0.12499955E+03</rscale>
<asrwt>0</asrwt>
<pdfrwt beam="2">  1        4 0.25235323E-03 0.12499955E+03</pdfrwt>
<pdfrwt beam="1">  1       -4 0.36637121E+00 0.12499955E+03</pdfrwt>
<totfact> 0.56543860E+02</totfact>
</mgrwt>
</event>
<event>
 5    1  0.3304582E-002  0.1250034E+03  0.7818608E-02  0.1235064E+00
          4   -1    0    0  501    0  0.00000000000E+00  0.00000000000E+00  0.49792938813E+02  0.49809132252E+02  0.12700000000E+01 0.  1.
         -4   -1    0    0    0  501 -0.00000000000E+00 -0.00000000000E+00 -0.78420034971E+02  0.78430318021E+02  0.12700000000E+01 0.  1.
         25    2    1    2    0    0  0.00000000000E+00  0.00000000000E+00 -0.28627096157E+02  0.12823945027E+03  0.12500338384E+03 0.  0.
    9000005    1    3    3    0    0 -0.35734009403E+02  0.17805893089E+02  0.35009067330E+02  0.53109359363E+02  0.10000000000E+01 0.  0.
    9000005    1    3    3    0    0  0.35734009403E+02 -0.17805893089E+02 -0.63636163487E+02  0.75130090909E+02  0.10000000000E+01 0.  0.
<mgrwt>
<rscale>  0 0.12500338E+03</rscale>
<asrwt>0</asrwt>
<pdfrwt beam="1">  1        4 0.76624887E-02 0.12500338E+03</pdfrwt>
<pdfrwt beam="2">  1       -4 0.12066657E-01 0.12500338E+03</pdfrwt>
<totfact> 0.10381527E+04</totfact>
</mgrwt>
</event>
<event>
 5    1  0.3304582E-002  0.1250042E+03  0.7818608E-02  0.1235063E+00
          4   -1    0    0  501    0  0.00000000000E+00  0.00000000000E+00  0.11389432742E+03  0.11390140788E+03  0.12700000000E+01 0. -1.
         -4   -1    0    0    0  501 -0.00000000000E+00 -0.00000000000E+00 -0.34279540608E+02  0.34303058235E+02  0.12700000000E+01 0. -1.
         25    2    1    2    0    0  0.00000000000E+00  0.00000000000E+00  0.79614786808E+02  0.14820446612E+03  0.12500419792E+03 0.  0.
    9000005    1    3    3    0    0 -0.42896574591E+02 -0.44479192165E+02  0.50865751442E+02  0.80042734318E+02  0.10000000000E+01 0.  0.
    9000005    1    3    3    0    0  0.42896574591E+02  0.44479192165E+02  0.28749035365E+02  0.68161731799E+02  0.10000000000E+01 0.  0.
<mgrwt>
<rscale>  0 0.12500420E+03</rscale>
<asrwt>0</asrwt>
<pdfrwt beam="1">  1        4 0.17524557E-01 0.12500420E+03</pdfrwt>
<pdfrwt beam="2">  1       -4 0.52761293E-02 0.12500420E+03</pdfrwt>
<totfact> 0.99653405E+03</totfact>
</mgrwt>
</event>
<event>
 5    1  0.3304582E-002  0.1250008E+03  0.7818608E-02  0.1235068E+00
          4   -1    0    0  501    0  0.00000000000E+00  0.00000000000E+00  0.44446611427E+02  0.44464751965E+02  0.12700000000E+01 0.  1.
         -4   -1    0    0    0  501 -0.00000000000E+00 -0.00000000000E+00 -0.87846794014E+02  0.87855973722E+02  0.12700000000E+01 0.  1.
         25    2    1    2    0    0  0.00000000000E+00  0.00000000000E+00 -0.43400182587E+02  0.13232072569E+03  0.12500079439E+03 0.  0.
    9000005    1    3    3    0    0 -0.48145565057E+02  0.10380805065E+02  0.19017203063E+02  0.52805402762E+02  0.10000000000E+01 0.  0.
    9000005    1    3    3    0    0  0.48145565057E+02 -0.10380805065E+02 -0.62417385650E+02  0.79515322925E+02  0.10000000000E+01 0.  0.
<mgrwt>
<rscale>  0 0.12500079E+03</rscale>
<asrwt>0</asrwt>
<pdfrwt beam="1">  1        4 0.68400418E-02 0.12500079E+03</pdfrwt>
<pdfrwt beam="2">  1       -4 0.13516993E-01 0.12500079E+03</pdfrwt>
<totfact> 0.10294673E+04</totfact>
</mgrwt>
</event>
<event>
 5    1  0.3304582E-002  0.1250008E+03  0.7818608E-02  0.1235068E+00
          4   -1    0    0  501    0  0.00000000000E+00  0.00000000000E+00  0.14056556025E+02  0.14113811225E+02  0.12700000000E+01 0.  1.
         -4   -1    0    0    0  501 -0.00000000000E+00 -0.00000000000E+00 -0.27727512199E+03  0.27727803046E+03  0.12700000000E+01 0.  1.
         25    2    1    2    0    0  0.00000000000E+00  0.00000000000E+00 -0.26321856597E+03  0.29139184168E+03  0.12500076772E+03 0.  0.
    9000005    1    3    3    0    0 -0.40706457976E+02 -0.16964655119E+02 -0.28393474338E+02  0.52459552316E+02  0.10000000000E+01 0.  0.
    9000005    1    3    3    0    0  0.40706457976E+02  0.16964655119E+02 -0.23482509163E+03  0.23893228937E+03  0.10000000000E+01 0.  0.
<mgrwt>
<rscale>  0 0.12500077E+03</rscale>
<asrwt>0</asrwt>
<pdfrwt beam="1">  1        4 0.21671753E-02 0.12500077E+03</pdfrwt>
<pdfrwt beam="2">  1       -4 0.42662335E-01 0.12500077E+03</pdfrwt>
<totfact> 0.76690169E+03</totfact>
</mgrwt>
</event>
<event>
 5    1  0.3304582E-002  0.1250009E+03  0.7818608E-02  0.1235068E+00
         -4   -1    0    0    0  501 -0.00000000000E+00  0.00000000000E+00  0.39011858287E+03  0.39012065006E+03  0.12700000000E+01 0. -1.
          4   -1    0    0  501    0  0.00000000000E+00 -0.00000000000E+00 -0.99707497477E+01  0.10051305912E+02  0.12700000000E+01 0. -1.
         25    2    1    2    0    0  0.00000000000E+00  0.00000000000E+00  0.38014783313E+03  0.40017195597E+03  0.12500087726E+03 0.  0.
    9000005    1    3    3    0    0 -0.36950710801E+02 -0.23824946340E+02  0.33224866522E+03  0.33514647340E+03  0.10000000000E+01 0.  0.
    9000005    1    3    3    0    0  0.36950710801E+02  0.23824946340E+02  0.47899167909E+02  0.65025482568E+02  0.10000000000E+01 0.  0.
<mgrwt>
<rscale>  0 0.12500088E+03</rscale>
<asrwt>0</asrwt>
<pdfrwt beam="2">  1        4 0.15403174E-02 0.12500088E+03</pdfrwt>
<pdfrwt beam="1">  1       -4 0.60024590E-01 0.12500088E+03</pdfrwt>
<totfact> 0.64534822E+03</totfact>
</mgrwt>
</event>
<event>
 5    1  0.3304582E-002  0.1250078E+03  0.7818608E-02  0.1235057E+00
         -4   -1    0    0    0  501 -0.00000000000E+00  0.00000000000E+00  0.22744603455E+02  0.22780032623E+02  0.12700000000E+01 0.  1.
          4   -1    0    0  501    0  0.00000000000E+00 -0.00000000000E+00 -0.17159393016E+03  0.17159862986E+03  0.12700000000E+01 0.  1.
         25    2    1    2    0    0  0.00000000000E+00  0.00000000000E+00 -0.14884932671E+03  0.19437866248E+03  0.12500776922E+03 0.  0.
    9000005    1    3    3    0    0  0.43342331026E+02  0.41265060168E+02 -0.10242954620E+03  0.11863462726E+03  0.10000000000E+01 0.  0.
    9000005    1    3    3    0    0 -0.43342331026E+02 -0.41265060168E+02 -0.46419780507E+02  0.75744035223E+02  0.10000000000E+01 0.  0.
<mgrwt>
<rscale>  0 0.12500777E+03</rscale>
<asrwt>0</asrwt>
<pdfrwt beam="2">  1        4 0.26402152E-01 0.12500777E+03</pdfrwt>
<pdfrwt beam="1">  1       -4 0.35022567E-02 0.12500777E+03</pdfrwt>
<totfact> 0.91075131E+03</totfact>
</mgrwt>
</event>
<event>
 5    1  0.3304582E-002  0.1249895E+03  0.7818608E-02  0.1235086E+00
          4   -1    0    0  501    0  0.00000000000E+00  0.00000000000E+00  0.13484692535E+03  0.13485290571E+03  0.12700000000E+01 0. -1.
         -4   -1    0    0    0  501 -0.00000000000E+00 -0.00000000000E+00 -0.28942622589E+02  0.28970472939E+02  0.12700000000E+01 0. -1.
         25    2    1    2    0    0  0.00000000000E+00  0.00000000000E+00  0.10590430277E+03  0.16382337865E+03  0.12498951175E+03 0.  0.
    9000005    1    3    3    0    0 -0.20077368309E+02  0.52425077349E+02  0.88921294283E+02  0.10516409097E+03  0.10000000000E+01 0.  0.
    9000005    1    3    3    0    0  0.20077368309E+02 -0.52425077349E+02  0.16983008483E+02  0.58659287674E+02  0.10000000000E+01 0.  0.
<mgrwt>
<rscale>  0 0.12498951E+03</rscale>
<asrwt>0</asrwt>
<pdfrwt beam="1">  1        4 0.20748283E-01 0.12498951E+03</pdfrwt>
<pdfrwt beam="2">  1       -4 0.44553135E-02 0.12498951E+03</pdfrwt>
<totfact> 0.96633460E+03</totfact>
</mgrwt>
</event>
<event>
 5    1  0.3304582E-002  0.1249992E+03  0.7818608E-02  0.1235071E+00
          4   -1    0    0  501    0  0.00000000000E+00  0.00000000000E+00  0.23321997293E+03  0.23322343079E+03  0.12700000000E+01 0.  1.
         -4   -1    0    0    0  501 -0.00000000000E+00 -0.00000000000E+00 -0.16721327956E+02  0.16769487428E+02  0.12700000000E+01 0.  1.
         25    2    1    2    0    0  0.00000000000E+00  0.00000000000E+00  0.21649864497E+03  0.24999291822E+03  0.12499918355E+03 0.  0.
    9000005    1    3    3    0    0 -0.39232957437E+01  0.43530837240E+02  0.19757537632E+03  0.20235452891E+03  0.10000000000E+01 0.  0.
    9000005    1    3    3    0    0  0.39232957437E+01 -0.43530837240E+02  0.18923268648E+02  0.47638389316E+02  0.10000000000E+01 0.  0.
<mgrwt>
<rscale>  0 0.12499918E+03</rscale>
<asrwt>0</asrwt>
<pdfrwt beam="1">  1        4 0.35883969E-01 0.12499918E+03</pdfrwt>
<pdfrwt beam="2">  1       -4 0.25764824E-02 0.12499918E+03</pdfrwt>
<totfact> 0.82332746E+03</totfact>
</mgrwt>
</event>
<event>
 5    1  0.3304582E-002  0.1250000E+03  0.7818608E-02  0.1235069E+00
         -4   -1    0    0    0  501 -0.00000000000E+00  0.00000000000E+00  0.10354002468E+02  0.10431599451E+02  0.12700000000E+01 0.  1.
          4   -1    0    0  501    0  0.00000000000E+00 -0.00000000000E+00 -0.37578225688E+03  0.37578440293E+03  0.12700000000E+01 0.  1.
         25    2    1    2    0    0  0.00000000000E+00  0.00000000000E+00 -0.36542825441E+03  0.38621600238E+03  0.12499996549E+03 0.  0.
    9000005    1    3    3    0    0  0.42646801079E+02  0.44150508638E+02 -0.14651932984E+03  0.15886135802E+03  0.10000000000E+01 0.  0.
    9000005    1    3    3    0    0 -0.42646801079E+02 -0.44150508638E+02 -0.21890892456E+03  0.22735464435E+03  0.10000000000E+01 0.  0.
<mgrwt>
<rscale>  0 0.12499997E+03</rscale>
<asrwt>0</asrwt>
<pdfrwt beam="2">  1        4 0.57818778E-01 0.12499997E+03</pdfrwt>
<pdfrwt beam="1">  1       -4 0.15990578E-02 0.12499997E+03</pdfrwt>
<totfact> 0.65915907E+03</totfact>
</mgrwt>
</event>
<event>
 5    1  0.3304582E-002  0.1249720E+03  0.7818608E-02  0.1235113E+00
         -4   -1    0    0    0  501 -0.00000000000E+00  0.00000000000E+00  0.19656136916E+02  0.19697122086E+02  0.12700000000E+01 0.  1.
          4   -1    0    0  501    0  0.00000000000E+00 -0.00000000000E+00 -0.19839042765E+03  0.19839449257E+03  0.12700000000E+01 0.  1.
         25    2    1    2    0    0  0.00000000000E+00  0.00000000000E+00 -0.17873429073E+03  0.21809161466E+03  0.12497201967E+03 0.  0.
    9000005    1    3    3    0    0 -0.43324479565E+02  0.23202562932E+02 -0.15668757867E+03  0.16421743746E+03  0.10000000000E+01 0.  0.
    9000005    1    3    3    0    0  0.43324479565E+02 -0.23202562932E+02 -0.22046712067E+02  0.53874177202E+02  0.10000000000E+01 0.  0.
<mgrwt>
<rscale>  0 0.12497202E+03</rscale>
<asrwt>0</asrwt>
<pdfrwt beam="2">  1        4 0.30525068E-01 0.12497202E+03</pdfrwt>
<pdfrwt beam="1">  1       -4 0.30274866E-02 0.12497202E+03</pdfrwt>
<totfact> 0.87225743E+03</totfact>
</mgrwt>
</event>
<event>
 5    1  0.3304582E-002  0.1250005E+03  0.7818608E-02  0.1235068E+00
         -4   -1    0    0    0  501 -0.00000000000E+00  0.00000000000E+00  0.30235340234E+01  0.32794295221E+01  0.12700000000E+01 0. -1.
          4   -1    0    0  501    0  0.00000000000E+00 -0.00000000000E+00 -0.12392502655E+04  0.12392509162E+04  0.12700000000E+01 0. -1.
         25    2    1    2    0    0  0.00000000000E+00  0.00000000000E+00 -0.12362267314E+04  0.12425303457E+04  0.12500051425E+03 0.  0.
    9000005    1    3    3    0    0  0.28932652447E+02 -0.17158938609E+01 -0.67778016850E+02  0.73721789435E+02  0.10000000000E+01 0.  0.
    9000005    1    3    3    0    0 -0.28932652447E+02  0.17158938609E+01 -0.11684487146E+04  0.11688085563E+04  0.10000000000E+01 0.  0.
<mgrwt>
<rscale>  0 0.12500051E+03</rscale>
<asrwt>0</asrwt>
<pdfrwt beam="2">  1        4 0.19067323E+00 0.12500051E+03</pdfrwt>
<pdfrwt beam="1">  1       -4 0.48489440E-03 0.12500051E+03</pdfrwt>
<totfact> 0.23625658E+03</totfact>
</mgrwt>
</event>
<event>
 5    1  0.3304582E-002  0.1249986E+03  0.7818608E-02  0.1235071E+00
         -4   -1    0    0    0  501 -0.00000000000E+00  0.00000000000E+00  0.14401631069E+02  0.14457519754E+02  0.12700000000E+01 0. -1.
          4   -1    0    0  501    0  0.00000000000E+00 -0.00000000000E+00 -0.27064804469E+03  0.27065102437E+03  0.12700000000E+01 0. -1.
         25    2    1    2    0    0  0.00000000000E+00  0.00000000000E+00 -0.25624641362E+03  0.28510854413E+03  0.12499862975E+03 0.  0.
    9000005    1    3    3    0    0  0.58205121578E+02  0.18131376163E+02 -0.96800853378E+02  0.11440274557E+03  0.10000000000E+01 0.  0.
    9000005    1    3    3    0    0 -0.58205121578E+02 -0.18131376163E+02 -0.15944556024E+03  0.17070579856E+03  0.10000000000E+01 0.  0.
<mgrwt>
<rscale>  0 0.12499863E+03</rscale>
<asrwt>0</asrwt>
<pdfrwt beam="2">  1        4 0.41642685E-01 0.12499863E+03</pdfrwt>
<pdfrwt beam="1">  1       -4 0.22201641E-02 0.12499863E+03</pdfrwt>
<totfact> 0.77507951E+03</totfact>
</mgrwt>
</event>
<event>
 5    1  0.3304582E-002  0.1250016E+03  0.7818608E-02  0.1235067E+00
         -4   -1    0    0    0  501 -0.00000000000E+00  0.00000000000E+00  0.13166509990E+04  0.13166516115E+04  0.12700000000E+01 0. -1.
          4   -1    0    0  501    0  0.00000000000E+00 -0.00000000000E+00 -0.28303331748E+01  0.31022066147E+01  0.12700000000E+01 0. -1.
         25    2    1    2    0    0  0.00000000000E+00  0.00000000000E+00  0.13138206658E+04  0.13197538181E+04  0.12500159391E+03 0.  0.
    9000005    1    3    3    0    0  0.53540908068E+02 -0.26688223069E+02  0.84767241493E+03  0.84978139137E+03  0.10000000000E+01 0.  0.
    9000005    1    3    3    0    0 -0.53540908068E+02  0.26688223069E+02  0.46614825090E+03  0.46997242675E+03  0.10000000000E+01 0.  0.
<mgrwt>
<rscale>  0 0.12500159E+03</rscale>
<asrwt>0</asrwt>
<pdfrwt beam="2">  1        4 0.45639695E-03 0.12500159E+03</pdfrwt>
<pdfrwt beam="1">  1       -4 0.20258238E+00 0.12500159E+03</pdfrwt>
<totfact> 0.21766327E+03</totfact>
</mgrwt>
</event>
<event>
 5    1  0.3304582E-002  0.1250017E+03  0.7818608E-02  0.1235067E+00
         -4   -1    0    0    0  501 -0.00000000000E+00  0.00000000000E+00  0.21588036270E+03  0.21588409830E+03  0.12700000000E+01 0. -1.
          4   -1    0    0  501    0  0.00000000000E+00 -0.00000000000E+00 -0.18068837577E+02  0.18113414680E+02  0.12700000000E+01 0. -1.
         25    2    1    2    0    0  0.00000000000E+00  0.00000000000E+00  0.19781152513E+03  0.23399751298E+03  0.12500174643E+03 0.  0.
    9000005    1    3    3    0    0  0.11334884260E+02  0.69009089460E+01  0.21322157787E+03  0.21363647492E+03  0.10000000000E+01 0.  0.
    9000005    1    3    3    0    0 -0.11334884260E+02 -0.69009089460E+01 -0.15410052746E+02  0.20361038066E+02  0.10000000000E+01 0.  0.
<mgrwt>
<rscale>  0 0.12500175E+03</rscale>
<asrwt>0</asrwt>
<pdfrwt beam="2">  1        4 0.27835373E-02 0.12500175E+03</pdfrwt>
<pdfrwt beam="1">  1       -4 0.33216083E-01 0.12500175E+03</pdfrwt>
<totfact> 0.84696229E+03</totfact>
</mgrwt>
</event>
<event>
 5    1  0.3304582E-002  0.1249988E+03  0.7818608E-02  0.1235071E+00
         -4   -1    0    0    0  501 -0.00000000000E+00  0.00000000000E+00  0.22009431812E+03  0.22009798220E+03  0.12700000000E+01 0. -1.
          4   -1    0    0  501    0  0.00000000000E+00 -0.00000000000E+00 -0.17721196760E+02  0.17766646127E+02  0.12700000000E+01 0. -1.
         25    2    1    2    0    0  0.00000000000E+00  0.00000000000E+00  0.20237312136E+03  0.23786462832E+03  0.12499880464E+03 0.  0.
    9000005    1    3    3    0    0  0.36541534417E+02 -0.50208993232E+02  0.11450011228E+03  0.13025936607E+03  0.10000000000E+01 0.  0.
    9000005    1    3    3    0    0 -0.36541534417E+02  0.50208993232E+02  0.87873009080E+02  0.10760526225E+03  0.10000000000E+01 0.  0.
<mgrwt>
<rscale>  0 0.12499880E+03</rscale>
<asrwt>0</asrwt>
<pdfrwt beam="2">  1        4 0.27301157E-02 0.12499880E+03</pdfrwt>
<pdfrwt beam="1">  1       -4 0.33864445E-01 0.12499880E+03</pdfrwt>
<totfact> 0.84118663E+03</totfact>
</mgrwt>
</event>
<event>
 5    1  0.3304582E-002  0.1250029E+03  0.7818608E-02  0.1235065E+00
         -4   -1    0    0    0  501 -0.00000000000E+00  0.00000000000E+00  0.92556489346E+02  0.92565201993E+02  0.12700000000E+01 0. -1.
          4   -1    0    0  501    0  0.00000000000E+00 -0.00000000000E+00 -0.42185678605E+02  0.42204790953E+02  0.12700000000E+01 0. -1.
         25    2    1    2    0    0  0.00000000000E+00  0.00000000000E+00  0.50370810741E+02  0.13476999295E+03  0.12500292966E+03 0.  0.
    9000005    1    3    3    0    0  0.43388680626E+02 -0.25596895028E+02 -0.14685969157E+02  0.52482914664E+02  0.10000000000E+01 0.  0.
    9000005    1    3    3    0    0 -0.43388680626E+02  0.25596895028E+02  0.65056779898E+02  0.82287078282E+02  0.10000000000E+01 0.  0.
<mgrwt>
<rscale>  0 0.12500293E+03</rscale>
<asrwt>0</asrwt>
<pdfrwt beam="2">  1        4 0.64922448E-02 0.12500293E+03</pdfrwt>
<pdfrwt beam="1">  1       -4 0.14241600E-01 0.12500293E+03</pdfrwt>
<totfact> 0.10242244E+04</totfact>
</mgrwt>
</event>
<event>
 5    1  0.3304582E-002  0.1249996E+03  0.7818608E-02  0.1235070E+00
         -4   -1    0    0    0  501 -0.00000000000E+00  0.00000000000E+00  0.23650869092E+02  0.23684942660E+02  0.12700000000E+01 0. -1.
          4   -1    0    0  501    0  0.00000000000E+00 -0.00000000000E+00 -0.16500657158E+03  0.16501145888E+03  0.12700000000E+01 0. -1.
         25    2    1    2    0    0  0.00000000000E+00  0.00000000000E+00 -0.14135570248E+03  0.18869640154E+03  0.12499958932E+03 0.  0.
    9000005    1    3    3    0    0  0.28695084186E+02 -0.18880181542E+02 -0.14948517693E+03  0.15338411663E+03  0.10000000000E+01 0.  0.
    9000005    1    3    3    0    0 -0.28695084186E+02  0.18880181542E+02  0.81294744444E+01  0.35312284919E+02  0.10000000000E+01 0.  0.
<mgrwt>
<rscale>  0 0.12499959E+03</rscale>
<asrwt>0</asrwt>
<pdfrwt beam="2">  1        4 0.25388623E-01 0.12499959E+03</pdfrwt>
<pdfrwt beam="1">  1       -4 0.36415923E-02 0.12499959E+03</pdfrwt>
<totfact> 0.92075480E+03</totfact>
</mgrwt>
</event>
<event>
 5    1  0.3304582E-002  0.1249987E+03  0.7818608E-02  0.1235071E+00
         -4   -1    0    0    0  501 -0.00000000000E+00  0.00000000000E+00  0.68228733682E+02  0.68240552459E+02  0.12700000000E+01 0.  1.
          4   -1    0    0  501    0  0.00000000000E+00 -0.00000000000E+00 -0.57227245991E+02  0.57241336320E+02  0.12700000000E+01 0.  1.
         25    2    1    2    0    0  0.00000000000E+00  0.00000000000E+00  0.11001487692E+02  0.12548188878E+03  0.12499868671E+03 0.  0.
    9000005    1    3    3    0    0  0.44644842758E+01  0.57012280301E+02 -0.19792611007E+02  0.60523377099E+02  0.10000000000E+01 0.  0.
    9000005    1    3    3    0    0 -0.44644842758E+01 -0.57012280301E+02  0.30794098699E+02  0.64958511680E+02  0.10000000000E+01 0.  0.
<mgrwt>
<rscale>  0 0.12499869E+03</rscale>
<asrwt>0</asrwt>
<pdfrwt beam="2">  1        4 0.88061847E-02 0.12499869E+03</pdfrwt>
<pdfrwt beam="1">  1       -4 0.10498721E-01 0.12499869E+03</pdfrwt>
<totfact> 0.10442664E+04</totfact>
</mgrwt>
</event>
<event>
 5    1  0.3304582E-002  0.1250007E+03  0.7818608E-02  0.1235068E+00
         -4   -1    0    0    0  501 -0.00000000000E+00  0.00000000000E+00  0.30484573189E+03  0.30484837732E+03  0.12700000000E+01 0.  1.
          4   -1    0    0  501    0  0.00000000000E+00 -0.00000000000E+00 -0.12779831396E+02  0.12842779704E+02  0.12700000000E+01 0.  1.
         25    2    1    2    0    0  0.00000000000E+00  0.00000000000E+00  0.29206590050E+03  0.31769115702E+03  0.12500072407E+03 0.  0.
    9000005    1    3    3    0    0 -0.51737736810E+02 -0.80245930310E+01  0.23274694386E+03  0.23856514284E+03  0.10000000000E+01 0.  0.
    9000005    1    3    3    0    0  0.51737736810E+02  0.80245930310E+01  0.59318956640E+02  0.79126014182E+02  0.10000000000E+01 0.  0.
<mgrwt>
<rscale>  0 0.12500072E+03</rscale>
<asrwt>0</asrwt>
<pdfrwt beam="2">  1        4 0.19711736E-02 0.12500072E+03</pdfrwt>
<pdfrwt beam="1">  1       -4 0.46904388E-01 0.12500072E+03</pdfrwt>
<totfact> 0.73430395E+03</totfact>
</mgrwt>
</event>
<event>
 5    1  0.3304582E-002  0.1249987E+03  0.7818608E-02  0.1235071E+00
          4   -1    0    0  501    0  0.00000000000E+00  0.00000000000E+00  0.38164915784E+02  0.38186040601E+02  0.12700000000E+01 0.  1.
         -4   -1    0    0    0  501 -0.00000000000E+00 -0.00000000000E+00 -0.10229641783E+03  0.10230430099E+03  0.12700000000E+01 0.  1.
         25    2    1    2    0    0  0.00000000000E+00  0.00000000000E+00 -0.64131502051E+02  0.14049034159E+03  0.12499874610E+03 0.  0.
    9000005    1    3    3    0    0 -0.26584251509E+02  0.56082502669E+02 -0.40263699603E+02  0.73987397843E+02  0.10000000000E+01 0.  0.
    9000005    1    3    3    0    0  0.26584251509E+02 -0.56082502669E+02 -0.23867802448E+02  0.66502943751E+02  0.10000000000E+01 0.  0.
<mgrwt>
<rscale>  0 0.12499875E+03</rscale>
<asrwt>0</asrwt>
<pdfrwt beam="1">  1        4 0.58737569E-02 0.12499875E+03</pdfrwt>
<pdfrwt beam="2">  1       -4 0.15740142E-01 0.12499875E+03</pdfrwt>
<totfact> 0.10123719E+04</totfact>
</mgrwt>
</event>
<event>
 5    1  0.3304582E-002  0.1250261E+03  0.7818608E-02  0.1235029E+00
          4   -1    0    0  501    0  0.00000000000E+00  0.00000000000E+00  0.90604233910E+01  0.91489984165E+01  0.12700000000E+01 0. -1.
         -4   -1    0    0    0  501 -0.00000000000E+00 -0.00000000000E+00 -0.42912572661E+03  0.42912760589E+03  0.12700000000E+01 0. -1.
         25    2    1    2    0    0  0.00000000000E+00  0.00000000000E+00 -0.42006530322E+03  0.43827660431E+03  0.12502608894E+03 0.  0.
    9000005    1    3    3    0    0  0.45966721517E+02  0.41354639080E+02 -0.17795509115E+03  0.18839363080E+03  0.10000000000E+01 0.  0.
    9000005    1    3    3    0    0 -0.45966721517E+02 -0.41354639080E+02 -0.24211021207E+03  0.24988297351E+03  0.10000000000E+01 0.  0.
<mgrwt>
<rscale>  0 0.12502609E+03</rscale>
<asrwt>0</asrwt>
<pdfrwt beam="1">  1        4 0.14008696E-02 0.12502609E+03</pdfrwt>
<pdfrwt beam="2">  1       -4 0.66026285E-01 0.12502609E+03</pdfrwt>
<totfact> 0.60957814E+03</totfact>
</mgrwt>
</event>
<event>
 5    1  0.3304582E-002  0.1250005E+03  0.7818608E-02  0.1235068E+00
          4   -1    0    0  501    0  0.00000000000E+00  0.00000000000E+00  0.11414108429E+03  0.11414814945E+03  0.12700000000E+01 0.  1.
         -4   -1    0    0    0  501 -0.00000000000E+00 -0.00000000000E+00 -0.34203383559E+02  0.34226953515E+02  0.12700000000E+01 0.  1.
         25    2    1    2    0    0  0.00000000000E+00  0.00000000000E+00  0.79937700727E+02  0.14837510296E+03  0.12500054072E+03 0.  0.
    9000005    1    3    3    0    0  0.35801875878E+02  0.44118747388E+02  0.70854596977E+02  0.90827375280E+02  0.10000000000E+01 0.  0.
    9000005    1    3    3    0    0 -0.35801875878E+02 -0.44118747388E+02  0.90831037496E+01  0.57547727681E+02  0.10000000000E+01 0.  0.
<mgrwt>
<rscale>  0 0.12500054E+03</rscale>
<asrwt>0</asrwt>
<pdfrwt beam="1">  1        4 0.17562523E-01 0.12500054E+03</pdfrwt>
<pdfrwt beam="2">  1       -4 0.52644156E-02 0.12500054E+03</pdfrwt>
<totfact> 0.99627375E+03</totfact>
</mgrwt>
</event>
<event>
 4    1  0.3304582E-002  0.1251044E+03  0.7818608E-02  0.1234906E+00
         -4   -1    0    0    0  501 -0.00000000000E+00  0.00000000000E+00  0.51932504587E+02  0.51948031076E+02  0.12700000000E+01 0.  1.
          4   -1    0    0  501    0  0.00000000000E+00 -0.00000000000E+00 -0.75311430621E+02  0.75322138061E+02  0.12700000000E+01 0.  1.
    9000005    1    1    2    0    0  0.49698287708E+02 -0.69062076966E+01  0.26295434942E+02  0.56657439094E+02  0.10000000000E+01 0.  0.
    9000005    1    1    2    0    0 -0.49698287708E+02  0.69062076966E+01 -0.49674360975E+02  0.70612730043E+02  0.10000000000E+01 0.  0.
<mgrwt>
<rscale>  0 0.12510444E+03</rscale>
<asrwt>0</asrwt>
<pdfrwt beam="2">  1        4 0.11588392E-01 0.12510444E+03</pdfrwt>
<pdfrwt beam="1">  1       -4 0.79916341E-02 0.12510444E+03</pdfrwt>
<totfact> 0.10378792E+04</totfact>
</mgrwt>
</event>
<event>
 5    1  0.3304582E-002  0.1249935E+03  0.7818608E-02  0.1235079E+00
         -4   -1    0    0    0  501 -0.00000000000E+00  0.00000000000E+00  0.67772434746E+02  0.67784333082E+02  0.12700000000E+01 0.  1.
          4   -1    0    0  501    0  0.00000000000E+00 -0.00000000000E+00 -0.57607813866E+02  0.57621811134E+02  0.12700000000E+01 0.  1.
         25    2    1    2    0    0  0.00000000000E+00  0.00000000000E+00  0.10164620880E+02  0.12540614422E+03  0.12499352579E+03 0.  0.
    9000005    1    3    3    0    0 -0.41924390761E+02 -0.41824146616E+02  0.25096384653E+02  0.64325285102E+02  0.10000000000E+01 0.  0.
    9000005    1    3    3    0    0  0.41924390761E+02  0.41824146616E+02 -0.14931763773E+02  0.61080859114E+02  0.10000000000E+01 0.  0.
<mgrwt>
<rscale>  0 0.12499353E+03</rscale>
<asrwt>0</asrwt>
<pdfrwt beam="2">  1        4 0.88647326E-02 0.12499353E+03</pdfrwt>
<pdfrwt beam="1">  1       -4 0.10428520E-01 0.12499353E+03</pdfrwt>
<totfact> 0.10445556E+04</totfact>
</mgrwt>
</event>
<event>
 5    1  0.3304582E-002  0.1250075E+03  0.7818608E-02  0.1235058E+00
          4   -1    0    0  501    0  0.00000000000E+00  0.00000000000E+00  0.65043286322E+01  0.66271555705E+01  0.12700000000E+01 0. -1.
         -4   -1    0    0    0  501 -0.00000000000E+00 -0.00000000000E+00 -0.59489210239E+03  0.59489345801E+03  0.12700000000E+01 0. -1.
         25    2    1    2    0    0  0.00000000000E+00  0.00000000000E+00 -0.58838777375E+03  0.60152061358E+03  0.12500750480E+03 0.  0.
    9000005    1    3    3    0    0 -0.33157676205E+02 -0.37283924517E+02 -0.11311150699E+03  0.12363145042E+03  0.10000000000E+01 0.  0.
    9000005    1    3    3    0    0  0.33157676205E+02  0.37283924517E+02 -0.47527626676E+03  0.47788916316E+03  0.10000000000E+01 0.  0.
<mgrwt>
<rscale>  0 0.12500750E+03</rscale>
<asrwt>0</asrwt>
<pdfrwt beam="1">  1        4 0.10102189E-02 0.12500750E+03</pdfrwt>
<pdfrwt beam="2">  1       -4 0.91531372E-01 0.12500750E+03</pdfrwt>
<totfact> 0.48763757E+03</totfact>
</mgrwt>
</event>
<event>
 5    1  0.3304582E-002  0.1249952E+03  0.7818608E-02  0.1235077E+00
         -4   -1    0    0    0  501 -0.00000000000E+00  0.00000000000E+00  0.32633054973E+02  0.32657758295E+02  0.12700000000E+01 0. -1.
          4   -1    0    0  501    0  0.00000000000E+00 -0.00000000000E+00 -0.11961977329E+03  0.11962651488E+03  0.12700000000E+01 0. -1.
         25    2    1    2    0    0  0.00000000000E+00  0.00000000000E+00 -0.86986718318E+02  0.15228427317E+03  0.12499524268E+03 0.  0.
    9000005    1    3    3    0    0 -0.49891065679E+02  0.30243019707E+02 -0.70768342960E+02  0.91721955064E+02  0.10000000000E+01 0.  0.
    9000005    1    3    3    0    0  0.49891065679E+02 -0.30243019707E+02 -0.16218375358E+02  0.60562318109E+02  0.10000000000E+01 0.  0.
<mgrwt>
<rscale>  0 0.12499524E+03</rscale>
<asrwt>0</asrwt>
<pdfrwt beam="2">  1        4 0.18405461E-01 0.12499524E+03</pdfrwt>
<pdfrwt beam="1">  1       -4 0.50228889E-02 0.12499524E+03</pdfrwt>
<totfact> 0.98860878E+03</totfact>
</mgrwt>
</event>
<event>
 5    1  0.3304582E-002  0.1250037E+03  0.7818608E-02  0.1235064E+00
         -4   -1    0    0    0  501 -0.00000000000E+00  0.00000000000E+00  0.14477650555E+03  0.14478207575E+03  0.12700000000E+01 0.  1.
          4   -1    0    0  501    0  0.00000000000E+00 -0.00000000000E+00 -0.26961791466E+02  0.26991685739E+02  0.12700000000E+01 0.  1.
         25    2    1    2    0    0  0.00000000000E+00  0.00000000000E+00  0.11781471409E+03  0.17177376149E+03  0.12500367308E+03 0.  0.
    9000005    1    3    3    0    0  0.40135894718E+02  0.44063104043E+02  0.84726470541E+02  0.10359547284E+03  0.10000000000E+01 0.  0.
    9000005    1    3    3    0    0 -0.40135894718E+02 -0.44063104043E+02  0.33088243545E+02  0.68178288653E+02  0.10000000000E+01 0.  0.
<mgrwt>
<rscale>  0 0.12500367E+03</rscale>
<asrwt>0</asrwt>
<pdfrwt beam="2">  1        4 0.41506960E-02 0.12500367E+03</pdfrwt>
<pdfrwt beam="1">  1       -4 0.22276037E-01 0.12500367E+03</pdfrwt>
<totfact> 0.95111221E+03</totfact>
</mgrwt>
</event>
<event>
 5    1  0.3304582E-002  0.1249996E+03  0.7818608E-02  0.1235070E+00
          4   -1    0    0  501    0  0.00000000000E+00  0.00000000000E+00  0.59708529151E+01  0.61044233580E+01  0.12700000000E+01 0. -1.
         -4   -1    0    0    0  501 -0.00000000000E+00 -0.00000000000E+00 -0.64684529677E+03  0.64684654351E+03  0.12700000000E+01 0. -1.
         25    2    1    2    0    0  0.00000000000E+00  0.00000000000E+00 -0.64087444385E+03  0.65295096687E+03  0.12499964940E+03 0.  0.
    9000005    1    3    3    0    0 -0.25864367240E+02  0.32305415406E+02 -0.75838755155E+02  0.86400938309E+02  0.10000000000E+01 0.  0.
    9000005    1    3    3    0    0  0.25864367240E+02 -0.32305415406E+02 -0.56503568870E+03  0.56655002856E+03  0.10000000000E+01 0.  0.
<mgrwt>
<rscale>  0 0.12499965E+03</rscale>
<asrwt>0</asrwt>
<pdfrwt beam="1">  1        4 0.92896382E-03 0.12499965E+03</pdfrwt>
<pdfrwt beam="2">  1       -4 0.99524977E-01 0.12499965E+03</pdfrwt>
<totfact> 0.45687302E+03</totfact>
</mgrwt>
</event>
<event>
 5    1  0.3304582E-002  0.1250008E+03  0.7818608E-02  0.1235068E+00
         -4   -1    0    0    0  501 -0.00000000000E+00  0.00000000000E+00  0.69547205776E+01  0.70697268909E+01  0.12700000000E+01 0. -1.
          4   -1    0    0  501    0  0.00000000000E+00 -0.00000000000E+00 -0.55695410239E+03  0.55695555036E+03  0.12700000000E+01 0. -1.
         25    2    1    2    0    0  0.00000000000E+00  0.00000000000E+00 -0.54999938182E+03  0.56402527725E+03  0.12500077350E+03 0.  0.
    9000005    1    3    3    0    0 -0.49606832001E+02 -0.29937185219E+02 -0.38064871386E+03  0.38503443509E+03  0.10000000000E+01 0.  0.
    9000005    1    3    3    0    0  0.49606832001E+02  0.29937185219E+02 -0.16935066796E+03  0.17899084216E+03  0.10000000000E+01 0.  0.
<mgrwt>
<rscale>  0 0.12500077E+03</rscale>
<asrwt>0</asrwt>
<pdfrwt beam="2">  1        4 0.85694169E-01 0.12500077E+03</pdfrwt>
<pdfrwt beam="1">  1       -4 0.10789155E-02 0.12500077E+03</pdfrwt>
<totfact> 0.51219283E+03</totfact>
</mgrwt>
</event>
<event>
 5    1  0.3304582E-002  0.1249993E+03  0.7818608E-02  0.1235070E+00
         -4   -1    0    0    0  501 -0.00000000000E+00  0.00000000000E+00  0.31260074833E+03  0.31260332813E+03  0.12700000000E+01 0. -1.
          4   -1    0    0  501    0  0.00000000000E+00 -0.00000000000E+00 -0.12460923312E+02  0.12525474434E+02  0.12700000000E+01 0. -1.
         25    2    1    2    0    0  0.00000000000E+00  0.00000000000E+00  0.30013982502E+03  0.32512880256E+03  0.12499929477E+03 0.  0.
    9000005    1    3    3    0    0 -0.35850797829E+02  0.29799979513E+02  0.25831487967E+03  0.26248980084E+03  0.10000000000E+01 0.  0.
    9000005    1    3    3    0    0  0.35850797829E+02 -0.29799979513E+02  0.41824945351E+02  0.62639001729E+02  0.10000000000E+01 0.  0.
<mgrwt>
<rscale>  0 0.12499929E+03</rscale>
<asrwt>0</asrwt>
<pdfrwt beam="2">  1        4 0.19222291E-02 0.12499929E+03</pdfrwt>
<pdfrwt beam="1">  1       -4 0.48097585E-01 0.12499929E+03</pdfrwt>
<totfact> 0.72551379E+03</totfact>
</mgrwt>
</event>
<event>
 5    1  0.3304582E-002  0.1249975E+03  0.7818608E-02  0.1235073E+00
         -4   -1    0    0    0  501 -0.00000000000E+00  0.00000000000E+00  0.10212485745E+03  0.10213275385E+03  0.12700000000E+01 0. -1.
          4   -1    0    0  501    0  0.00000000000E+00 -0.00000000000E+00 -0.38228281651E+02  0.38249371472E+02  0.12700000000E+01 0. -1.
         25    2    1    2    0    0  0.00000000000E+00  0.00000000000E+00  0.63896575801E+02  0.14038212533E+03  0.12499747482E+03 0.  0.
    9000005    1    3    3    0    0 -0.39833583848E+02 -0.11951857484E+02  0.84331629545E+02  0.94033956851E+02  0.10000000000E+01 0.  0.
    9000005    1    3    3    0    0  0.39833583848E+02  0.11951857484E+02 -0.20435053743E+02  0.46348168475E+02  0.10000000000E+01 0.  0.
<mgrwt>
<rscale>  0 0.12499747E+03</rscale>
<asrwt>0</asrwt>
<pdfrwt beam="2">  1        4 0.58835040E-02 0.12499747E+03</pdfrwt>
<pdfrwt beam="1">  1       -4 0.15713746E-01 0.12499747E+03</pdfrwt>
<totfact> 0.10126248E+04</totfact>
</mgrwt>
</event>
<event>
 5    1  0.3304582E-002  0.1250008E+03  0.7818608E-02  0.1235068E+00
          4   -1    0    0  501    0  0.00000000000E+00  0.00000000000E+00  0.21484586992E+02  0.21522090471E+02  0.12700000000E+01 0. -1.
         -4   -1    0    0    0  501 -0.00000000000E+00 -0.00000000000E+00 -0.18162030599E+03  0.18162474625E+03  0.12700000000E+01 0. -1.
         25    2    1    2    0    0  0.00000000000E+00  0.00000000000E+00 -0.16013571900E+03  0.20314683672E+03  0.12500075507E+03 0.  0.
    9000005    1    3    3    0    0 -0.50639310023E+02  0.18178607691E+01 -0.20629181970E+02  0.54719352026E+02  0.10000000000E+01 0.  0.
    9000005    1    3    3    0    0  0.50639310023E+02 -0.18178607691E+01 -0.13950653703E+03  0.14842748469E+03  0.10000000000E+01 0.  0.
<mgrwt>
<rscale>  0 0.12500076E+03</rscale>
<asrwt>0</asrwt>
<pdfrwt beam="1">  1        4 0.33085476E-02 0.12500076E+03</pdfrwt>
<pdfrwt beam="2">  1       -4 0.27944811E-01 0.12500076E+03</pdfrwt>
<totfact> 0.89605955E+03</totfact>
</mgrwt>
</event>
<event>
 5    1  0.3304582E-002  0.1250023E+03  0.7818608E-02  0.1235066E+00
          4   -1    0    0  501    0  0.00000000000E+00  0.00000000000E+00  0.22065318423E+02  0.22101836509E+02  0.12700000000E+01 0.  1.
         -4   -1    0    0    0  501 -0.00000000000E+00 -0.00000000000E+00 -0.17685242522E+03  0.17685698517E+03  0.12700000000E+01 0.  1.
         25    2    1    2    0    0  0.00000000000E+00  0.00000000000E+00 -0.15478710679E+03  0.19895882168E+03  0.12500225716E+03 0.  0.
    9000005    1    3    3    0    0 -0.34649695992E+02 -0.51536584355E+02 -0.66278226654E+02  0.90831846220E+02  0.10000000000E+01 0.  0.
    9000005    1    3    3    0    0  0.34649695992E+02  0.51536584355E+02 -0.88508880140E+02  0.10812697546E+03  0.10000000000E+01 0.  0.
<mgrwt>
<rscale>  0 0.12500226E+03</rscale>
<asrwt>0</asrwt>
<pdfrwt beam="1">  1        4 0.33978243E-02 0.12500226E+03</pdfrwt>
<pdfrwt beam="2">  1       -4 0.27211224E-01 0.12500226E+03</pdfrwt>
<totfact> 0.90306846E+03</totfact>
</mgrwt>
</event>
<event>
 5    1  0.3304582E-002  0.1250438E+03  0.7818608E-02  0.1235001E+00
         -4   -1    0    0    0  501 -0.00000000000E+00  0.00000000000E+00  0.57034451958E+03  0.57034593355E+03  0.12700000000E+01 0.  1.
          4   -1    0    0  501    0  0.00000000000E+00 -0.00000000000E+00 -0.67934661339E+01  0.69111563513E+01  0.12700000000E+01 0.  1.
         25    2    1    2    0    0  0.00000000000E+00  0.00000000000E+00  0.56355105345E+03  0.57725708990E+03  0.12504382431E+03 0.  0.
    9000005    1    3    3    0    0  0.34304526251E+00  0.61222373351E+02  0.22343777009E+03  0.23167592404E+03  0.10000000000E+01 0.  0.
    9000005    1    3    3    0    0 -0.34304526251E+00 -0.61222373351E+02  0.34011328336E+03  0.34558116586E+03  0.10000000000E+01 0.  0.
<mgrwt>
<rscale>  0 0.12504382E+03</rscale>
<asrwt>0</asrwt>
<pdfrwt beam="2">  1        4 0.10543103E-02 0.12504382E+03</pdfrwt>
<pdfrwt beam="1">  1       -4 0.87754489E-01 0.12504382E+03</pdfrwt>
<totfact> 0.50287041E+03</totfact>
</mgrwt>
</event>
<event>
 5    1  0.3304582E-002  0.1250006E+03  0.7818608E-02  0.1235068E+00
          4   -1    0    0  501    0  0.00000000000E+00  0.00000000000E+00  0.24584726463E+03  0.24585054490E+03  0.12700000000E+01 0. -1.
         -4   -1    0    0    0  501 -0.00000000000E+00 -0.00000000000E+00 -0.15860303367E+02  0.15911069194E+02  0.12700000000E+01 0. -1.
         25    2    1    2    0    0  0.00000000000E+00  0.00000000000E+00  0.22998696127E+03  0.26176161409E+03  0.12500056104E+03 0.  0.
    9000005    1    3    3    0    0 -0.60308165460E+02  0.15935860850E+02  0.10708610845E+03  0.12393329297E+03  0.10000000000E+01 0.  0.
    9000005    1    3    3    0    0  0.60308165460E+02 -0.15935860850E+02  0.12290085281E+03  0.13782832113E+03  0.10000000000E+01 0.  0.
<mgrwt>
<rscale>  0 0.12500056E+03</rscale>
<asrwt>0</asrwt>
<pdfrwt beam="1">  1        4 0.37826813E-01 0.12500056E+03</pdfrwt>
<pdfrwt beam="2">  1       -4 0.24442041E-02 0.12500056E+03</pdfrwt>
<totfact> 0.80658469E+03</totfact>
</mgrwt>
</event>
<event>
 5    1  0.3304582E-002  0.1250047E+03  0.7818608E-02  0.1235062E+00
          4   -1    0    0  501    0  0.00000000000E+00  0.00000000000E+00  0.12084520124E+03  0.12085187447E+03  0.12700000000E+01 0.  1.
         -4   -1    0    0    0  501 -0.00000000000E+00 -0.00000000000E+00 -0.32306798816E+02  0.32331751417E+02  0.12700000000E+01 0.  1.
         25    2    1    2    0    0  0.00000000000E+00  0.00000000000E+00  0.88538402422E+02  0.15318362588E+03  0.12500469805E+03 0.  0.
    9000005    1    3    3    0    0 -0.16796524779E+02 -0.58999775720E+02  0.58894759101E+02  0.85045219908E+02  0.10000000000E+01 0.  0.
    9000005    1    3    3    0    0  0.16796524779E+02  0.58999775720E+02  0.29643643321E+02  0.68138405976E+02  0.10000000000E+01 0.  0.
<mgrwt>
<rscale>  0 0.12500470E+03</rscale>
<asrwt>0</asrwt>
<pdfrwt beam="1">  1        4 0.18594002E-01 0.12500470E+03</pdfrwt>
<pdfrwt beam="2">  1       -4 0.49727096E-02 0.12500470E+03</pdfrwt>
<totfact> 0.98662406E+03</totfact>
</mgrwt>
</event>
<event>
 5    1  0.3304582E-002  0.1250004E+03  0.7818608E-02  0.1235069E+00
          4   -1    0    0  501    0  0.00000000000E+00  0.00000000000E+00  0.47229298448E+03  0.47229469200E+03  0.12700000000E+01 0. -1.
         -4   -1    0    0    0  501 -0.00000000000E+00 -0.00000000000E+00 -0.82203855799E+01  0.83179107402E+01  0.12700000000E+01 0. -1.
         25    2    1    2    0    0  0.00000000000E+00  0.00000000000E+00  0.46407259890E+03  0.48061260274E+03  0.12500038744E+03 0.  0.
    9000005    1    3    3    0    0  0.46568891939E+02 -0.27873989604E+02  0.35114430668E+03  0.35531527564E+03  0.10000000000E+01 0.  0.
    9000005    1    3    3    0    0 -0.46568891939E+02  0.27873989604E+02  0.11292829222E+03  0.12529732710E+03  0.10000000000E+01 0.  0.
<mgrwt>
<rscale>  0 0.12500039E+03</rscale>
<asrwt>0</asrwt>
<pdfrwt beam="1">  1        4 0.72668093E-01 0.12500039E+03</pdfrwt>
<pdfrwt beam="2">  1       -4 0.12723080E-02 0.12500039E+03</pdfrwt>
<totfact> 0.57400113E+03</totfact>
</mgrwt>
</event>
<event>
 5    1  0.3304582E-002  0.1250009E+03  0.7818608E-02  0.1235068E+00
          4   -1    0    0  501    0  0.00000000000E+00  0.00000000000E+00  0.54340554178E+02  0.54355392818E+02  0.12700000000E+01 0. -1.
         -4   -1    0    0    0  501 -0.00000000000E+00 -0.00000000000E+00 -0.71855426963E+02  0.71866649317E+02  0.12700000000E+01 0. -1.
         25    2    1    2    0    0  0.00000000000E+00  0.00000000000E+00 -0.17514872785E+02  0.12622204213E+03  0.12500093260E+03 0.  0.
    9000005    1    3    3    0    0  0.16577233018E+02 -0.56647756287E+02 -0.29489328726E+02  0.65987828087E+02  0.10000000000E+01 0.  0.
    9000005    1    3    3    0    0 -0.16577233018E+02  0.56647756287E+02  0.11974455941E+02  0.60234214048E+02  0.10000000000E+01 0.  0.
<mgrwt>
<rscale>  0 0.12500093E+03</rscale>
<asrwt>0</asrwt>
<pdfrwt beam="1">  1        4 0.83620900E-02 0.12500093E+03</pdfrwt>
<pdfrwt beam="2">  1       -4 0.11056686E-01 0.12500093E+03</pdfrwt>
<totfact> 0.10425877E+04</totfact>
</mgrwt>
</event>
<event>
 5    1  0.3304582E-002  0.1250042E+03  0.7818608E-02  0.1235063E+00
          4   -1    0    0  501    0  0.00000000000E+00  0.00000000000E+00  0.77922478396E+03  0.77922581890E+03  0.12700000000E+01 0. -1.
         -4   -1    0    0    0  501 -0.00000000000E+00 -0.00000000000E+00 -0.49318487151E+01  0.50927430476E+01  0.12700000000E+01 0. -1.
         25    2    1    2    0    0  0.00000000000E+00  0.00000000000E+00  0.77429293525E+03  0.78431856195E+03  0.12500422810E+03 0.  0.
    9000005    1    3    3    0    0  0.15015577238E+02 -0.19667485275E+02  0.27082829390E+02  0.36698190482E+02  0.10000000000E+01 0.  0.
    9000005    1    3    3    0    0 -0.15015577238E+02  0.19667485275E+02  0.74721010586E+03  0.74762037147E+03  0.10000000000E+01 0.  0.
<mgrwt>
<rscale>  0 0.12500423E+03</rscale>
<asrwt>0</asrwt>
<pdfrwt beam="1">  1        4 0.11989310E+00 0.12500423E+03</pdfrwt>
<pdfrwt beam="2">  1       -4 0.77120262E-03 0.12500423E+03</pdfrwt>
<totfact> 0.38970872E+03</totfact>
</mgrwt>
</event>
<event>
 5    1  0.3304582E-002  0.1250013E+03  0.7818608E-02  0.1235067E+00
          4   -1    0    0  501    0  0.00000000000E+00  0.00000000000E+00  0.20726773190E+02  0.20765645351E+02  0.12700000000E+01 0.  1.
         -4   -1    0    0    0  501 -0.00000000000E+00 -0.00000000000E+00 -0.18825037066E+03  0.18825465453E+03  0.12700000000E+01 0.  1.
         25    2    1    2    0    0  0.00000000000E+00  0.00000000000E+00 -0.16752359747E+03  0.20902029989E+03  0.12500132021E+03 0.  0.
    9000005    1    3    3    0    0 -0.29438691707E+02  0.29708186645E+02 -0.61173717135E+01  0.42280434717E+02  0.10000000000E+01 0.  0.
    9000005    1    3    3    0    0  0.29438691707E+02 -0.29708186645E+02 -0.16140622576E+03  0.16673986517E+03  0.10000000000E+01 0.  0.
<mgrwt>
<rscale>  0 0.12500132E+03</rscale>
<asrwt>0</asrwt>
<pdfrwt beam="1">  1        4 0.31920542E-02 0.12500132E+03</pdfrwt>
<pdfrwt beam="2">  1       -4 0.28964914E-01 0.12500132E+03</pdfrwt>
<totfact> 0.88633513E+03</totfact>
</mgrwt>
</event>
<event>
 5    1  0.3304582E-002  0.1250051E+03  0.7818608E-02  0.1235061E+00
         -4   -1    0    0    0  501 -0.00000000000E+00  0.00000000000E+00  0.14600953308E+02  0.14656081929E+02  0.12700000000E+01 0.  1.
          4   -1    0    0  501    0  0.00000000000E+00 -0.00000000000E+00 -0.26699502282E+03  0.26699804327E+03  0.12700000000E+01 0.  1.
         25    2    1    2    0    0  0.00000000000E+00  0.00000000000E+00 -0.25239406951E+03  0.28165412520E+03  0.12500511956E+03 0.  0.
    9000005    1    3    3    0    0 -0.39776891331E+02 -0.30788328979E+02 -0.42634740294E+02  0.65945760783E+02  0.10000000000E+01 0.  0.
    9000005    1    3    3    0    0  0.39776891331E+02  0.30788328979E+02 -0.20975932922E+03  0.21570836442E+03  0.10000000000E+01 0.  0.
<mgrwt>
<rscale>  0 0.12500512E+03</rscale>
<asrwt>0</asrwt>
<pdfrwt beam="2">  1        4 0.41080627E-01 0.12500512E+03</pdfrwt>
<pdfrwt beam="1">  1       -4 0.22507737E-02 0.12500512E+03</pdfrwt>
<totfact> 0.77950422E+03</totfact>
</mgrwt>
</event>
<event>
 5    1  0.3304582E-002  0.1249986E+03  0.7818608E-02  0.1235071E+00
         -4   -1    0    0    0  501 -0.00000000000E+00  0.00000000000E+00  0.36610090137E+03  0.36610310417E+03  0.12700000000E+01 0.  1.
          4   -1    0    0  501    0  0.00000000000E+00 -0.00000000000E+00 -0.10629602561E+02  0.10705202035E+02  0.12700000000E+01 0.  1.
         25    2    1    2    0    0  0.00000000000E+00  0.00000000000E+00  0.35547129881E+03  0.37680830620E+03  0.12499862139E+03 0.  0.
    9000005    1    3    3    0    0 -0.47893888031E+02 -0.42342266958E+01  0.57404212614E+02  0.74886559623E+02  0.10000000000E+01 0.  0.
    9000005    1    3    3    0    0  0.47893888031E+02  0.42342266958E+01  0.29806708619E+03  0.30192174658E+03  0.10000000000E+01 0.  0.
<mgrwt>
<rscale>  0 0.12499862E+03</rscale>
<asrwt>0</asrwt>
<pdfrwt beam="2">  1        4 0.16413084E-02 0.12499862E+03</pdfrwt>
<pdfrwt beam="1">  1       -4 0.56329197E-01 0.12499862E+03</pdfrwt>
<totfact> 0.66874663E+03</totfact>
</mgrwt>
</event>
<event>
 5    1  0.3304582E-002  0.1250015E+03  0.7818608E-02  0.1235067E+00
          4   -1    0    0  501    0  0.00000000000E+00  0.00000000000E+00  0.27716433304E+03  0.27716724267E+03  0.12700000000E+01 0.  1.
         -4   -1    0    0    0  501 -0.00000000000E+00 -0.00000000000E+00 -0.14062366374E+02  0.14119598012E+02  0.12700000000E+01 0.  1.
         25    2    1    2    0    0  0.00000000000E+00  0.00000000000E+00  0.26310196667E+03  0.29128684069E+03  0.12500151476E+03 0.  0.
    9000005    1    3    3    0    0  0.59886656810E+02 -0.11467003858E+02  0.99647530335E+02  0.11682694100E+03  0.10000000000E+01 0.  0.
    9000005    1    3    3    0    0 -0.59886656810E+02  0.11467003858E+02  0.16345443634E+03  0.17445989969E+03  0.10000000000E+01 0.  0.
<mgrwt>
<rscale>  0 0.12500151E+03</rscale>
<asrwt>0</asrwt>
<pdfrwt beam="1">  1        4 0.42645290E-01 0.12500151E+03</pdfrwt>
<pdfrwt beam="2">  1       -4 0.21680674E-02 0.12500151E+03</pdfrwt>
<totfact> 0.76702383E+03</totfact>
</mgrwt>
</event>
<event>
 5    1  0.3304582E-002  0.1250000E+03  0.7818608E-02  0.1235069E+00
         -4   -1    0    0    0  501 -0.00000000000E+00  0.00000000000E+00  0.15938552640E+03  0.15939058606E+03  0.12700000000E+01 0. -1.
          4   -1    0    0  501    0  0.00000000000E+00 -0.00000000000E+00 -0.24486276084E+02  0.24519188740E+02  0.12700000000E+01 0. -1.
         25    2    1    2    0    0  0.00000000000E+00  0.00000000000E+00  0.13489925032E+03  0.18390977481E+03  0.12499999013E+03 0.  0.
    9000005    1    3    3    0    0  0.99955614763E+01 -0.61509151032E+02  0.74344643999E+02  0.97012437353E+02  0.10000000000E+01 0.  0.
    9000005    1    3    3    0    0 -0.99955614763E+01  0.61509151032E+02  0.60554606318E+02  0.86897337452E+02  0.10000000000E+01 0.  0.
<mgrwt>
<rscale>  0 0.12499999E+03</rscale>
<asrwt>0</asrwt>
<pdfrwt beam="2">  1        4 0.37700402E-02 0.12499999E+03</pdfrwt>
<pdfrwt beam="1">  1       -4 0.24523772E-01 0.12499999E+03</pdfrwt>
<totfact> 0.92917947E+03</totfact>
</mgrwt>
</event>
<event>
 5    1  0.3304582E-002  0.1249980E+03  0.7818608E-02  0.1235072E+00
          4   -1    0    0  501    0  0.00000000000E+00  0.00000000000E+00  0.11874931206E+03  0.11875610307E+03  0.12700000000E+01 0.  1.
         -4   -1    0    0    0  501 -0.00000000000E+00 -0.00000000000E+00 -0.32873900849E+02  0.32898423322E+02  0.12700000000E+01 0.  1.
         25    2    1    2    0    0  0.00000000000E+00  0.00000000000E+00  0.85875411215E+02  0.15165452639E+03  0.12499803648E+03 0.  0.
    9000005    1    3    3    0    0 -0.14337618697E+02 -0.60372546981E+02  0.33963261886E+02  0.70745423151E+02  0.10000000000E+01 0.  0.
    9000005    1    3    3    0    0  0.14337618697E+02  0.60372546981E+02  0.51912149329E+02  0.80909103238E+02  0.10000000000E+01 0.  0.
<mgrwt>
<rscale>  0 0.12499804E+03</rscale>
<asrwt>0</asrwt>
<pdfrwt beam="1">  1        4 0.18271534E-01 0.12499804E+03</pdfrwt>
<pdfrwt beam="2">  1       -4 0.50599319E-02 0.12499804E+03</pdfrwt>
<totfact> 0.98979283E+03</totfact>
</mgrwt>
</event>
<event>
 5    1  0.3304582E-002  0.1249886E+03  0.7818608E-02  0.1235087E+00
          4   -1    0    0  501    0  0.00000000000E+00  0.00000000000E+00  0.32190703597E+02  0.32215746120E+02  0.12700000000E+01 0.  1.
         -4   -1    0    0    0  501 -0.00000000000E+00 -0.00000000000E+00 -0.12124951698E+03  0.12125616796E+03  0.12700000000E+01 0.  1.
         25    2    1    2    0    0  0.00000000000E+00  0.00000000000E+00 -0.89058813384E+02  0.15347191408E+03  0.12498862416E+03 0.  0.
    9000005    1    3    3    0    0  0.39376636673E+02  0.36105773460E+02 -0.47338798023E+01  0.53642856102E+02  0.10000000000E+01 0.  0.
    9000005    1    3    3    0    0 -0.39376636673E+02 -0.36105773460E+02 -0.84324933582E+02  0.99829057976E+02  0.10000000000E+01 0.  0.
<mgrwt>
<rscale>  0 0.12498862E+03</rscale>
<asrwt>0</asrwt>
<pdfrwt beam="1">  1        4 0.49548540E-02 0.12498862E+03</pdfrwt>
<pdfrwt beam="2">  1       -4 0.18656210E-01 0.12498862E+03</pdfrwt>
<totfact> 0.98641314E+03</totfact>
</mgrwt>
</event>
<event>
 5    1  0.3304582E-002  0.1249982E+03  0.7818608E-02  0.1235072E+00
          4   -1    0    0  501    0  0.00000000000E+00  0.00000000000E+00  0.24060586761E+02  0.24094080918E+02  0.12700000000E+01 0.  1.
         -4   -1    0    0    0  501 -0.00000000000E+00 -0.00000000000E+00 -0.16219688687E+03  0.16220185884E+03  0.12700000000E+01 0.  1.
         25    2    1    2    0    0  0.00000000000E+00  0.00000000000E+00 -0.13813630011E+03  0.18629593975E+03  0.12499815903E+03 0.  0.
    9000005    1    3    3    0    0  0.35677593816E+02  0.49521032667E+02 -0.49077389754E+02  0.78325050667E+02  0.10000000000E+01 0.  0.
    9000005    1    3    3    0    0 -0.35677593816E+02 -0.49521032667E+02 -0.89058910353E+02  0.10797088909E+03  0.10000000000E+01 0.  0.
<mgrwt>
<rscale>  0 0.12499816E+03</rscale>
<asrwt>0</asrwt>
<pdfrwt beam="1">  1        4 0.37045878E-02 0.12499816E+03</pdfrwt>
<pdfrwt beam="2">  1       -4 0.24956325E-01 0.12499816E+03</pdfrwt>
<totfact> 0.92499649E+03</totfact>
</mgrwt>
</event>
<event>
 5    1  0.3304582E-002  0.1250002E+03  0.7818608E-02  0.1235069E+00
          4   -1    0    0  501    0  0.00000000000E+00  0.00000000000E+00  0.34415481687E+03  0.34415716014E+03  0.12700000000E+01 0.  1.
         -4   -1    0    0    0  501 -0.00000000000E+00 -0.00000000000E+00 -0.11312394541E+02  0.11383460382E+02  0.12700000000E+01 0.  1.
         25    2    1    2    0    0  0.00000000000E+00  0.00000000000E+00  0.33284242233E+03  0.35554062052E+03  0.12500021895E+03 0.  0.
    9000005    1    3    3    0    0 -0.28114200564E+02 -0.35148338143E+02  0.43112485327E+02  0.62333781681E+02  0.10000000000E+01 0.  0.
    9000005    1    3    3    0    0  0.28114200564E+02  0.35148338143E+02  0.28972993701E+03  0.29320683884E+03  0.10000000000E+01 0.  0.
<mgrwt>
<rscale>  0 0.12500022E+03</rscale>
<asrwt>0</asrwt>
<pdfrwt beam="1">  1        4 0.52952530E-01 0.12500022E+03</pdfrwt>
<pdfrwt beam="2">  1       -4 0.17460156E-02 0.12500022E+03</pdfrwt>
<totfact> 0.69118962E+03</totfact>
</mgrwt>
</event>
<event>
 5    1  0.3304582E-002  0.1249959E+03  0.7818608E-02  0.1235076E+00
          4   -1    0    0  501    0  0.00000000000E+00  0.00000000000E+00  0.64241699068E+03  0.64241824602E+03  0.12700000000E+01 0.  1.
         -4   -1    0    0    0  501 -0.00000000000E+00 -0.00000000000E+00 -0.60125609229E+01  0.61452248821E+01  0.12700000000E+01 0.  1.
         25    2    1    2    0    0  0.00000000000E+00  0.00000000000E+00  0.63640442976E+03  0.64856347090E+03  0.12499591021E+03 0.  0.
    9000005    1    3    3    0    0  0.51113174061E+02  0.34773728771E+02  0.36553752129E+03  0.37072961609E+03  0.10000000000E+01 0.  0.
    9000005    1    3    3    0    0 -0.51113174061E+02 -0.34773728771E+02  0.27086690847E+03  0.27783385481E+03  0.10000000000E+01 0.  0.
<mgrwt>
<rscale>  0 0.12499591E+03</rscale>
<asrwt>0</asrwt>
<pdfrwt beam="1">  1        4 0.98843670E-01 0.12499591E+03</pdfrwt>
<pdfrwt beam="2">  1       -4 0.93531100E-03 0.12499591E+03</pdfrwt>
<totfact> 0.45942901E+03</totfact>
</mgrwt>
</event>
<event>
 5    1  0.3304582E-002  0.1250090E+03  0.7818608E-02  0.1235055E+00
         -4   -1    0    0    0  501 -0.00000000000E+00  0.00000000000E+00  0.37175204977E+02  0.37196891874E+02  0.12700000000E+01 0. -1.
          4   -1    0    0  501    0  0.00000000000E+00 -0.00000000000E+00 -0.10503569573E+03  0.10504337332E+03  0.12700000000E+01 0. -1.
         25    2    1    2    0    0  0.00000000000E+00  0.00000000000E+00 -0.67860490755E+02  0.14224026519E+03  0.12500898702E+03 0.  0.
    9000005    1    3    3    0    0 -0.48920650207E+02 -0.38891632435E+02 -0.34101371953E+02  0.71201774270E+02  0.10000000000E+01 0.  0.
    9000005    1    3    3    0    0  0.48920650207E+02  0.38891632435E+02 -0.33759118802E+02  0.71038490921E+02  0.10000000000E+01 0.  0.
<mgrwt>
<rscale>  0 0.12500899E+03</rscale>
<asrwt>0</asrwt>
<pdfrwt beam="2">  1        4 0.16161597E-01 0.12500899E+03</pdfrwt>
<pdfrwt beam="1">  1       -4 0.57215211E-02 0.12500899E+03</pdfrwt>
<totfact> 0.10085323E+04</totfact>
</mgrwt>
</event>
<event>
 5    1  0.3304582E-002  0.1250048E+03  0.7818608E-02  0.1235062E+00
         -4   -1    0    0    0  501 -0.00000000000E+00  0.00000000000E+00  0.70941558890E+02  0.70952925787E+02  0.12700000000E+01 0. -1.
          4   -1    0    0  501    0  0.00000000000E+00 -0.00000000000E+00 -0.55044026672E+02  0.55058675722E+02  0.12700000000E+01 0. -1.
         25    2    1    2    0    0  0.00000000000E+00  0.00000000000E+00  0.15897532218E+02  0.12601160151E+03  0.12500476865E+03 0.  0.
    9000005    1    3    3    0    0  0.26427088010E+02  0.56391587088E+02  0.13200910309E+02  0.63668407456E+02  0.10000000000E+01 0.  0.
    9000005    1    3    3    0    0 -0.26427088010E+02 -0.56391587088E+02  0.26966219092E+01  0.62343194053E+02  0.10000000000E+01 0.  0.
<mgrwt>
<rscale>  0 0.12500477E+03</rscale>
<asrwt>0</asrwt>
<pdfrwt beam="2">  1        4 0.84703131E-02 0.12500477E+03</pdfrwt>
<pdfrwt beam="1">  1       -4 0.10916087E-01 0.12500477E+03</pdfrwt>
<totfact> 0.10429580E+04</totfact>
</mgrwt>
</event>
<event>
 5    1  0.3304582E-002  0.1249999E+03  0.7818608E-02  0.1235069E+00
         -4   -1    0    0    0  501 -0.00000000000E+00  0.00000000000E+00  0.37368334151E+03  0.37368549962E+03  0.12700000000E+01 0. -1.
          4   -1    0    0  501    0  0.00000000000E+00 -0.00000000000E+00 -0.10412590088E+02  0.10489753684E+02  0.12700000000E+01 0. -1.
         25    2    1    2    0    0  0.00000000000E+00  0.00000000000E+00  0.36327075142E+03  0.38417525330E+03  0.12499994563E+03 0.  0.
    9000005    1    3    3    0    0 -0.36731533229E+02  0.22929589581E+02  0.43152206271E+02  0.61139876658E+02  0.10000000000E+01 0.  0.
    9000005    1    3    3    0    0  0.36731533229E+02 -0.22929589581E+02  0.32011854515E+03  0.32303537664E+03  0.10000000000E+01 0.  0.
<mgrwt>
<rscale>  0 0.12499995E+03</rscale>
<asrwt>0</asrwt>
<pdfrwt beam="2">  1        4 0.16080387E-02 0.12499995E+03</pdfrwt>
<pdfrwt beam="1">  1       -4 0.57495845E-01 0.12499995E+03</pdfrwt>
<totfact> 0.66121624E+03</totfact>
</mgrwt>
</event>
<event>
 5    1  0.3304582E-002  0.1250032E+03  0.7818608E-02  0.1235064E+00
         -4   -1    0    0    0  501 -0.00000000000E+00  0.00000000000E+00  0.62550600070E+02  0.62563491503E+02  0.12700000000E+01 0.  1.
          4   -1    0    0  501    0  0.00000000000E+00 -0.00000000000E+00 -0.62426804350E+02  0.62439721343E+02  0.12700000000E+01 0.  1.
         25    2    1    2    0    0  0.00000000000E+00  0.00000000000E+00  0.12379571925E+00  0.12500321285E+03  0.12500315155E+03 0.  0.
    9000005    1    3    3    0    0 -0.12272055044E+02 -0.55685235431E+02 -0.25511503080E+02  0.62476280054E+02  0.10000000000E+01 0.  0.
    9000005    1    3    3    0    0  0.12272055044E+02  0.55685235431E+02  0.25635298799E+02  0.62526932793E+02  0.10000000000E+01 0.  0.
<mgrwt>
<rscale>  0 0.12500315E+03</rscale>
<asrwt>0</asrwt>
<pdfrwt beam="2">  1        4 0.96061091E-02 0.12500315E+03</pdfrwt>
<pdfrwt beam="1">  1       -4 0.96251544E-02 0.12500315E+03</pdfrwt>
<totfact> 0.10452048E+04</totfact>
</mgrwt>
</event>
<event>
 5    1  0.3304582E-002  0.1249997E+03  0.7818608E-02  0.1235070E+00
         -4   -1    0    0    0  501 -0.00000000000E+00  0.00000000000E+00  0.32702193603E+03  0.32702440207E+03  0.12700000000E+01 0. -1.
          4   -1    0    0  501    0  0.00000000000E+00 -0.00000000000E+00 -0.11908580900E+02  0.11976109512E+02  0.12700000000E+01 0. -1.
         25    2    1    2    0    0  0.00000000000E+00  0.00000000000E+00  0.31511335513E+03  0.33900051158E+03  0.12499968107E+03 0.  0.
    9000005    1    3    3    0    0 -0.11922872489E+02 -0.20240825896E+02  0.31460492779E+03  0.31548233946E+03  0.10000000000E+01 0.  0.
    9000005    1    3    3    0    0  0.11922872489E+02  0.20240825896E+02  0.50842734161E+00  0.23518172117E+02  0.10000000000E+01 0.  0.
<mgrwt>
<rscale>  0 0.12499968E+03</rscale>
<asrwt>0</asrwt>
<pdfrwt beam="2">  1        4 0.18374738E-02 0.12499968E+03</pdfrwt>
<pdfrwt beam="1">  1       -4 0.50316445E-01 0.12499968E+03</pdfrwt>
<totfact> 0.70952333E+03</totfact>
</mgrwt>
</event>
<event>
 5    1  0.3304582E-002  0.1249966E+03  0.7818608E-02  0.1235075E+00
         -4   -1    0    0    0  501 -0.00000000000E+00  0.00000000000E+00  0.36825279160E+02  0.36847172011E+02  0.12700000000E+01 0. -1.
          4   -1    0    0  501    0  0.00000000000E+00 -0.00000000000E+00 -0.10601223805E+03  0.10601984492E+03  0.12700000000E+01 0. -1.
         25    2    1    2    0    0  0.00000000000E+00  0.00000000000E+00 -0.69186958895E+02  0.14286701693E+03  0.12499659694E+03 0.  0.
    9000005    1    3    3    0    0 -0.56695243099E+02  0.25587432635E+02 -0.41448426154E+02  0.74753189428E+02  0.10000000000E+01 0.  0.
    9000005    1    3    3    0    0  0.56695243099E+02 -0.25587432635E+02 -0.27738532740E+02  0.68113827506E+02  0.10000000000E+01 0.  0.
<mgrwt>
<rscale>  0 0.12499660E+03</rscale>
<asrwt>0</asrwt>
<pdfrwt beam="2">  1        4 0.16311844E-01 0.12499660E+03</pdfrwt>
<pdfrwt beam="1">  1       -4 0.56676968E-02 0.12499660E+03</pdfrwt>
<totfact> 0.10075279E+04</totfact>
</mgrwt>
</event>
<event>
 5    1  0.3304582E-002  0.1250164E+03  0.7818608E-02  0.1235044E+00
         -4   -1    0    0    0  501 -0.00000000000E+00  0.00000000000E+00  0.23800256184E+02  0.23834116187E+02  0.12700000000E+01 0. -1.
          4   -1    0    0  501    0  0.00000000000E+00 -0.00000000000E+00 -0.16401632465E+03  0.16402124146E+03  0.12700000000E+01 0. -1.
         25    2    1    2    0    0  0.00000000000E+00  0.00000000000E+00 -0.14021606846E+03  0.18785535765E+03  0.12501635710E+03 0.  0.
    9000005    1    3    3    0    0 -0.24311858553E+02  0.17434881647E+02  0.12349201106E+02  0.32381234261E+02  0.10000000000E+01 0.  0.
    9000005    1    3    3    0    0  0.24311858553E+02 -0.17434881647E+02 -0.15256526957E+03  0.15547412339E+03  0.10000000000E+01 0.  0.
<mgrwt>
<rscale>  0 0.12501636E+03</rscale>
<asrwt>0</asrwt>
<pdfrwt beam="2">  1        4 0.25236263E-01 0.12501636E+03</pdfrwt>
<pdfrwt beam="1">  1       -4 0.36645608E-02 0.12501636E+03</pdfrwt>
<totfact> 0.92188031E+03</totfact>
</mgrwt>
</event>
<event>
 5    1  0.3304582E-002  0.1250121E+03  0.7818608E-02  0.1235050E+00
          4   -1    0    0  501    0  0.00000000000E+00  0.00000000000E+00  0.26667838914E+03  0.26668141318E+03  0.12700000000E+01 0.  1.
         -4   -1    0    0    0  501 -0.00000000000E+00 -0.00000000000E+00 -0.14619984959E+02  0.14675042085E+02  0.12700000000E+01 0.  1.
         25    2    1    2    0    0  0.00000000000E+00  0.00000000000E+00  0.25205840418E+03  0.28135645526E+03  0.12501206261E+03 0.  0.
    9000005    1    3    3    0    0  0.47324966862E+02  0.21040991903E+02  0.20475728707E+03  0.21120824425E+03  0.10000000000E+01 0.  0.
    9000005    1    3    3    0    0 -0.47324966862E+02 -0.21040991903E+02  0.47301117106E+02  0.70148211012E+02  0.10000000000E+01 0.  0.
<mgrwt>
<rscale>  0 0.12501206E+03</rscale>
<asrwt>0</asrwt>
<pdfrwt beam="1">  1        4 0.41031913E-01 0.12501206E+03</pdfrwt>
<pdfrwt beam="2">  1       -4 0.22536962E-02 0.12501206E+03</pdfrwt>
<totfact> 0.77977682E+03</totfact>
</mgrwt>
</event>
<event>
 5    1  0.3304582E-002  0.1249951E+03  0.7818608E-02  0.1235077E+00
          4   -1    0    0  501    0  0.00000000000E+00  0.00000000000E+00  0.92714161118E+01  0.93579942679E+01  0.12700000000E+01 0.  1.
         -4   -1    0    0    0  501 -0.00000000000E+00 -0.00000000000E+00 -0.41924366516E+03  0.41924558874E+03  0.12700000000E+01 0.  1.
         25    2    1    2    0    0  0.00000000000E+00  0.00000000000E+00 -0.40997224905E+03  0.42860358301E+03  0.12499514541E+03 0.  0.
    9000005    1    3    3    0    0 -0.54209810038E+02 -0.16971686581E+02 -0.11568783772E+03  0.12888528794E+03  0.10000000000E+01 0.  0.
    9000005    1    3    3    0    0  0.54209810038E+02  0.16971686581E+02 -0.29428441133E+03  0.29971829507E+03  0.10000000000E+01 0.  0.
<mgrwt>
<rscale>  0 0.12499515E+03</rscale>
<asrwt>0</asrwt>
<pdfrwt beam="1">  1        4 0.14331799E-02 0.12499515E+03</pdfrwt>
<pdfrwt beam="2">  1       -4 0.64505819E-01 0.12499515E+03</pdfrwt>
<totfact> 0.61869401E+03</totfact>
</mgrwt>
</event>
<event>
 5    1  0.3304582E-002  0.1249979E+03  0.7818608E-02  0.1235073E+00
          4   -1    0    0  501    0  0.00000000000E+00  0.00000000000E+00  0.82339966876E+02  0.82349760444E+02  0.12700000000E+01 0. -1.
         -4   -1    0    0    0  501 -0.00000000000E+00 -0.00000000000E+00 -0.47417788096E+02  0.47434792378E+02  0.12700000000E+01 0. -1.
         25    2    1    2    0    0  0.00000000000E+00  0.00000000000E+00  0.34922178780E+02  0.12978455282E+03  0.12499788630E+03 0.  0.
    9000005    1    3    3    0    0  0.31334895887E+02  0.20504519115E+02  0.69404923975E+02  0.78869223886E+02  0.10000000000E+01 0.  0.
    9000005    1    3    3    0    0 -0.31334895887E+02 -0.20504519115E+02 -0.34482745195E+02  0.50915328936E+02  0.10000000000E+01 0.  0.
<mgrwt>
<rscale>  0 0.12499789E+03</rscale>
<asrwt>0</asrwt>
<pdfrwt beam="1">  1        4 0.12669749E-01 0.12499789E+03</pdfrwt>
<pdfrwt beam="2">  1       -4 0.72971057E-02 0.12499789E+03</pdfrwt>
<totfact> 0.10349612E+04</totfact>
</mgrwt>
</event>
<event>
 5    1  0.3304582E-002  0.1250009E+03  0.7818608E-02  0.1235068E+00
         -4   -1    0    0    0  501 -0.00000000000E+00  0.00000000000E+00  0.12930869630E+02  0.12993086215E+02  0.12700000000E+01 0.  1.
          4   -1    0    0  501    0  0.00000000000E+00 -0.00000000000E+00 -0.30130288423E+03  0.30130556076E+03  0.12700000000E+01 0.  1.
         25    2    1    2    0    0  0.00000000000E+00  0.00000000000E+00 -0.28837201460E+03  0.31429864698E+03  0.12500088274E+03 0.  0.
    9000005    1    3    3    0    0 -0.90131454931E+01  0.32000822243E+02 -0.11137603378E+02  0.35076140394E+02  0.10000000000E+01 0.  0.
    9000005    1    3    3    0    0  0.90131454931E+01 -0.32000822243E+02 -0.27723441122E+03  0.27922250658E+03  0.10000000000E+01 0.  0.
<mgrwt>
<rscale>  0 0.12500088E+03</rscale>
<asrwt>0</asrwt>
<pdfrwt beam="2">  1        4 0.46359276E-01 0.12500088E+03</pdfrwt>
<pdfrwt beam="1">  1       -4 0.19943566E-02 0.12500088E+03</pdfrwt>
<totfact> 0.73837953E+03</totfact>
</mgrwt>
</event>
<event>
 5    1  0.3304582E-002  0.1250030E+03  0.7818608E-02  0.1235065E+00
         -4   -1    0    0    0  501 -0.00000000000E+00  0.00000000000E+00  0.90548416857E+01  0.91434707826E+01  0.12700000000E+01 0.  1.
          4   -1    0    0  501    0  0.00000000000E+00 -0.00000000000E+00 -0.42922921225E+03  0.42923109107E+03  0.12700000000E+01 0.  1.
         25    2    1    2    0    0  0.00000000000E+00  0.00000000000E+00 -0.42017437056E+03  0.43837456186E+03  0.12500301920E+03 0.  0.
    9000005    1    3    3    0    0 -0.36019210597E+02  0.50327259167E+02 -0.17967149152E+03  0.19003436903E+03  0.10000000000E+01 0.  0.
    9000005    1    3    3    0    0  0.36019210597E+02 -0.50327259167E+02 -0.24050287904E+03  0.24834019283E+03  0.10000000000E+01 0.  0.
<mgrwt>
<rscale>  0 0.12500302E+03</rscale>
<asrwt>0</asrwt>
<pdfrwt beam="2">  1        4 0.66042210E-01 0.12500302E+03</pdfrwt>
<pdfrwt beam="1">  1       -4 0.14000150E-02 0.12500302E+03</pdfrwt>
<totfact> 0.60980104E+03</totfact>
</mgrwt>
</event>
<event>
 5    1  0.3304582E-002  0.1250139E+03  0.7818608E-02  0.1235048E+00
         -4   -1    0    0    0  501 -0.00000000000E+00  0.00000000000E+00  0.35859947256E+01  0.38042421285E+01  0.12700000000E+01 0.  1.
          4   -1    0    0  501    0  0.00000000000E+00 -0.00000000000E+00 -0.10571548962E+04  0.10571556590E+04  0.12700000000E+01 0.  1.
         25    2    1    2    0    0  0.00000000000E+00  0.00000000000E+00 -0.10535689015E+04  0.10609599012E+04  0.12501392623E+03 0.  0.
    9000005    1    3    3    0    0  0.89330512572E+01 -0.56920400049E+02 -0.73229471440E+03  0.73455856137E+03  0.10000000000E+01 0.  0.
    9000005    1    3    3    0    0 -0.89330512572E+01  0.56920400049E+02 -0.32127418705E+03  0.32640133979E+03  0.10000000000E+01 0.  0.
<mgrwt>
<rscale>  0 0.12501393E+03</rscale>
<asrwt>0</asrwt>
<pdfrwt beam="2">  1        4 0.16265582E+00 0.12501393E+03</pdfrwt>
<pdfrwt beam="1">  1       -4 0.56853928E-03 0.12501393E+03</pdfrwt>
<totfact> 0.28646357E+03</totfact>
</mgrwt>
</event>
<event>
 5    1  0.3304582E-002  0.1249985E+03  0.7818608E-02  0.1235072E+00
         -4   -1    0    0    0  501 -0.00000000000E+00  0.00000000000E+00  0.23671084240E+02  0.23705128751E+02  0.12700000000E+01 0. -1.
          4   -1    0    0  501    0  0.00000000000E+00 -0.00000000000E+00 -0.16486296191E+03  0.16486785347E+03  0.12700000000E+01 0. -1.
         25    2    1    2    0    0  0.00000000000E+00  0.00000000000E+00 -0.14119187767E+03  0.18857298222E+03  0.12499849321E+03 0.  0.
    9000005    1    3    3    0    0 -0.54965064328E+02 -0.24102088803E+02 -0.44332098168E+02  0.74621738852E+02  0.10000000000E+01 0.  0.
    9000005    1    3    3    0    0  0.54965064328E+02  0.24102088803E+02 -0.96859779500E+02  0.11395124337E+03  0.10000000000E+01 0.  0.
<mgrwt>
<rscale>  0 0.12499849E+03</rscale>
<asrwt>0</asrwt>
<pdfrwt beam="2">  1        4 0.25366527E-01 0.12499849E+03</pdfrwt>
<pdfrwt beam="1">  1       -4 0.36447004E-02 0.12499849E+03</pdfrwt>
<totfact> 0.92099314E+03</totfact>
</mgrwt>
</event>
<event>
 5    1  0.3304582E-002  0.1250209E+03  0.7818608E-02  0.1235037E+00
          4   -1    0    0  501    0  0.00000000000E+00  0.00000000000E+00  0.34412389028E+01  0.36681092113E+01  0.12700000000E+01 0.  1.
         -4   -1    0    0    0  501 -0.00000000000E+00 -0.00000000000E+00 -0.10990462271E+04  0.10990469609E+04  0.12700000000E+01 0.  1.
         25    2    1    2    0    0  0.00000000000E+00  0.00000000000E+00 -0.10956049882E+04  0.11027150701E+04  0.12502094076E+03 0.  0.
    9000005    1    3    3    0    0 -0.14181457684E+02 -0.26840878226E+02 -0.65906164384E+02  0.72568374584E+02  0.10000000000E+01 0.  0.
    9000005    1    3    3    0    0  0.14181457684E+02  0.26840878226E+02 -0.10296988238E+04  0.10301466955E+04  0.10000000000E+01 0.  0.
<mgrwt>
<rscale>  0 0.12502094E+03</rscale>
<asrwt>0</asrwt>
<pdfrwt beam="1">  1        4 0.54693025E-03 0.12502094E+03</pdfrwt>
<pdfrwt beam="2">  1       -4 0.16910127E+00 0.12502094E+03</pdfrwt>
<totfact> 0.27391602E+03</totfact>
</mgrwt>
</event>
<event>
 5    1  0.3304582E-002  0.1250013E+03  0.7818608E-02  0.1235067E+00
         -4   -1    0    0    0  501 -0.00000000000E+00  0.00000000000E+00  0.28269577945E+02  0.28298090699E+02  0.12700000000E+01 0. -1.
          4   -1    0    0  501    0  0.00000000000E+00 -0.00000000000E+00 -0.13808045854E+03  0.13808629885E+03  0.12700000000E+01 0. -1.
         25    2    1    2    0    0  0.00000000000E+00  0.00000000000E+00 -0.10981088059E+03  0.16638438955E+03  0.12500134235E+03 0.  0.
    9000005    1    3    3    0    0  0.58779644537E+02  0.77942391751E+01 -0.28634699106E+02  0.65853950292E+02  0.10000000000E+01 0.  0.
    9000005    1    3    3    0    0 -0.58779644537E+02 -0.77942391751E+01 -0.81176181484E+02  0.10053043925E+03  0.10000000000E+01 0.  0.
<mgrwt>
<rscale>  0 0.12500134E+03</rscale>
<asrwt>0</asrwt>
<pdfrwt beam="2">  1        4 0.21245790E-01 0.12500134E+03</pdfrwt>
<pdfrwt beam="1">  1       -4 0.43518085E-02 0.12500134E+03</pdfrwt>
<totfact> 0.96122954E+03</totfact>
</mgrwt>
</event>
<event>
 5    1  0.3304582E-002  0.1249988E+03  0.7818608E-02  0.1235071E+00
         -4   -1    0    0    0  501 -0.00000000000E+00  0.00000000000E+00  0.72773519259E+02  0.72784600056E+02  0.12700000000E+01 0.  1.
          4   -1    0    0  501    0  0.00000000000E+00 -0.00000000000E+00 -0.53653121675E+02  0.53668150382E+02  0.12700000000E+01 0.  1.
         25    2    1    2    0    0  0.00000000000E+00  0.00000000000E+00  0.19120397584E+02  0.12645275044E+03  0.12499883395E+03 0.  0.
    9000005    1    3    3    0    0  0.52362782379E+02  0.26089848787E+01  0.43963244375E+02  0.68428317505E+02  0.10000000000E+01 0.  0.
    9000005    1    3    3    0    0 -0.52362782379E+02 -0.26089848787E+01 -0.24842846790E+02  0.58024432933E+02  0.10000000000E+01 0.  0.
<mgrwt>
<rscale>  0 0.12499883E+03</rscale>
<asrwt>0</asrwt>
<pdfrwt beam="2">  1        4 0.82563348E-02 0.12499883E+03</pdfrwt>
<pdfrwt beam="1">  1       -4 0.11197935E-01 0.12499883E+03</pdfrwt>
<totfact> 0.10421333E+04</totfact>
</mgrwt>
</event>
<event>
 5    1  0.3304582E-002  0.1250013E+03  0.7818608E-02  0.1235067E+00
          4   -1    0    0  501    0  0.00000000000E+00  0.00000000000E+00  0.25126000311E+01  0.28153257211E+01  0.12700000000E+01 0.  1.
         -4   -1    0    0    0  501 -0.00000000000E+00 -0.00000000000E+00 -0.14660581058E+04  0.14660586559E+04  0.12700000000E+01 0.  1.
         25    2    1    2    0    0  0.00000000000E+00  0.00000000000E+00 -0.14635455058E+04  0.14688739816E+04  0.12500130547E+03 0.  0.
    9000005    1    3    3    0    0 -0.53216227263E+02 -0.10934067369E+02 -0.10946845906E+04  0.10960323323E+04  0.10000000000E+01 0.  0.
    9000005    1    3    3    0    0  0.53216227263E+02  0.10934067369E+02 -0.36886091525E+03  0.37284164933E+03  0.10000000000E+01 0.  0.
<mgrwt>
<rscale>  0 0.12500131E+03</rscale>
<asrwt>0</asrwt>
<pdfrwt beam="1">  1        4 0.40988393E-03 0.12500131E+03</pdfrwt>
<pdfrwt beam="2">  1       -4 0.22557009E+00 0.12500131E+03</pdfrwt>
<totfact> 0.18549004E+03</totfact>
</mgrwt>
</event>
<event>
 5    1  0.3304582E-002  0.1250022E+03  0.7818608E-02  0.1235066E+00
          4   -1    0    0  501    0  0.00000000000E+00  0.00000000000E+00  0.64441880101E+03  0.64442005245E+03  0.12700000000E+01 0. -1.
         -4   -1    0    0    0  501 -0.00000000000E+00 -0.00000000000E+00 -0.59940881626E+01  0.61271521037E+01  0.12700000000E+01 0. -1.
         25    2    1    2    0    0  0.00000000000E+00  0.00000000000E+00  0.63842471285E+03  0.65054720455E+03  0.12500220548E+03 0.  0.
    9000005    1    3    3    0    0  0.44353602956E+02  0.15742208024E+02  0.10524539769E+03  0.11529376801E+03  0.10000000000E+01 0.  0.
    9000005    1    3    3    0    0 -0.44353602956E+02 -0.15742208024E+02  0.53317931516E+03  0.53525343654E+03  0.10000000000E+01 0.  0.
<mgrwt>
<rscale>  0 0.12500221E+03</rscale>
<asrwt>0</asrwt>
<pdfrwt beam="1">  1        4 0.99151628E-01 0.12500221E+03</pdfrwt>
<pdfrwt beam="2">  1       -4 0.93249990E-03 0.12500221E+03</pdfrwt>
<totfact> 0.45822469E+03</totfact>
</mgrwt>
</event>
<event>
 5    1  0.3304582E-002  0.1250033E+03  0.7818608E-02  0.1235064E+00
          4   -1    0    0  501    0  0.00000000000E+00  0.00000000000E+00  0.95014805713E+02  0.95023292959E+02  0.12700000000E+01 0.  1.
         -4   -1    0    0    0  501 -0.00000000000E+00 -0.00000000000E+00 -0.41094061721E+02  0.41113681528E+02  0.12700000000E+01 0.  1.
         25    2    1    2    0    0  0.00000000000E+00  0.00000000000E+00  0.53920743992E+02  0.13613697449E+03  0.12500331671E+03 0.  0.
    9000005    1    3    3    0    0  0.22765617204E+02 -0.79643177662E+01 -0.35826517669E+02  0.43200035330E+02  0.10000000000E+01 0.  0.
    9000005    1    3    3    0    0 -0.22765617204E+02  0.79643177662E+01  0.89747261661E+02  0.92936939157E+02  0.10000000000E+01 0.  0.
<mgrwt>
<rscale>  0 0.12500332E+03</rscale>
<asrwt>0</asrwt>
<pdfrwt beam="1">  1        4 0.14619824E-01 0.12500332E+03</pdfrwt>
<pdfrwt beam="2">  1       -4 0.63243254E-02 0.12500332E+03</pdfrwt>
<totfact> 0.10213398E+04</totfact>
</mgrwt>
</event>
<event>
 5    1  0.3304582E-002  0.1250003E+03  0.7818608E-02  0.1235069E+00
          4   -1    0    0  501    0  0.00000000000E+00  0.00000000000E+00  0.56230776129E+02  0.56245116091E+02  0.12700000000E+01 0. -1.
         -4   -1    0    0    0  501 -0.00000000000E+00 -0.00000000000E+00 -0.69439495159E+02  0.69451107896E+02  0.12700000000E+01 0. -1.
         25    2    1    2    0    0  0.00000000000E+00  0.00000000000E+00 -0.13208719030E+02  0.12569622399E+03  0.12500028186E+03 0.  0.
    9000005    1    3    3    0    0  0.20040823600E+02  0.40447125702E+01 -0.65986278994E+02  0.69088228562E+02  0.10000000000E+01 0.  0.
    9000005    1    3    3    0    0 -0.20040823600E+02 -0.40447125702E+01  0.52777559964E+02  0.56607995425E+02  0.10000000000E+01 0.  0.
<mgrwt>
<rscale>  0 0.12500028E+03</rscale>
<asrwt>0</asrwt>
<pdfrwt beam="1">  1        4 0.86528850E-02 0.12500028E+03</pdfrwt>
<pdfrwt beam="2">  1       -4 0.10684996E-01 0.12500028E+03</pdfrwt>
<totfact> 0.10437561E+04</totfact>
</mgrwt>
</event>
<event>
 5    1  0.3304582E-002  0.1249797E+03  0.7818608E-02  0.1235101E+00
          4   -1    0    0  501    0  0.00000000000E+00  0.00000000000E+00  0.29172444650E+03  0.29172721091E+03  0.12700000000E+01 0.  1.
         -4   -1    0    0    0  501 -0.00000000000E+00 -0.00000000000E+00 -0.13352892703E+02  0.13413151886E+02  0.12700000000E+01 0.  1.
         25    2    1    2    0    0  0.00000000000E+00  0.00000000000E+00  0.27837155380E+03  0.30514036279E+03  0.12497967452E+03 0.  0.
    9000005    1    3    3    0    0  0.17137480665E+02  0.47268078284E+02  0.48618377109E+02  0.69947916773E+02  0.10000000000E+01 0.  0.
    9000005    1    3    3    0    0 -0.17137480665E+02 -0.47268078284E+02  0.22975317669E+03  0.23519244602E+03  0.10000000000E+01 0.  0.
<mgrwt>
<rscale>  0 0.12497967E+03</rscale>
<asrwt>0</asrwt>
<pdfrwt beam="1">  1        4 0.44885532E-01 0.12497967E+03</pdfrwt>
<pdfrwt beam="2">  1       -4 0.20591392E-02 0.12497967E+03</pdfrwt>
<totfact> 0.74992352E+03</totfact>
</mgrwt>
</event>
<event>
 5    1  0.3304582E-002  0.1250027E+03  0.7818608E-02  0.1235065E+00
          4   -1    0    0  501    0  0.00000000000E+00  0.00000000000E+00  0.13450709519E+03  0.13451309065E+03  0.12700000000E+01 0. -1.
         -4   -1    0    0    0  501 -0.00000000000E+00 -0.00000000000E+00 -0.29021950934E+02  0.29049725231E+02  0.12700000000E+01 0. -1.
         25    2    1    2    0    0  0.00000000000E+00  0.00000000000E+00  0.10548514425E+03  0.16356281588E+03  0.12500271629E+03 0.  0.
    9000005    1    3    3    0    0 -0.43812015582E+02  0.42266376211E+02  0.71223141841E+02  0.93699921030E+02  0.10000000000E+01 0.  0.
    9000005    1    3    3    0    0  0.43812015582E+02 -0.42266376211E+02  0.34262002411E+02  0.69862894848E+02  0.10000000000E+01 0.  0.
<mgrwt>
<rscale>  0 0.12500272E+03</rscale>
<asrwt>0</asrwt>
<pdfrwt beam="1">  1        4 0.20695997E-01 0.12500272E+03</pdfrwt>
<pdfrwt beam="2">  1       -4 0.44675132E-02 0.12500272E+03</pdfrwt>
<totfact> 0.96654367E+03</totfact>
</mgrwt>
</event>
<event>
 5    1  0.3304582E-002  0.1249965E+03  0.7818608E-02  0.1235075E+00
          4   -1    0    0  501    0  0.00000000000E+00  0.00000000000E+00  0.91836844298E+02  0.91845625212E+02  0.12700000000E+01 0. -1.
         -4   -1    0    0    0  501 -0.00000000000E+00 -0.00000000000E+00 -0.42512021967E+02  0.42530987665E+02  0.12700000000E+01 0. -1.
         25    2    1    2    0    0  0.00000000000E+00  0.00000000000E+00  0.49324822330E+02  0.13437661288E+03  0.12499654391E+03 0.  0.
    9000005    1    3    3    0    0  0.17888113705E+02 -0.25157771511E+02  0.83073305958E+02  0.88628845429E+02  0.10000000000E+01 0.  0.
    9000005    1    3    3    0    0 -0.17888113705E+02  0.25157771511E+02 -0.33748483628E+02  0.45747767448E+02  0.10000000000E+01 0.  0.
<mgrwt>
<rscale>  0 0.12499654E+03</rscale>
<asrwt>0</asrwt>
<pdfrwt beam="1">  1        4 0.14130880E-01 0.12499654E+03</pdfrwt>
<pdfrwt beam="2">  1       -4 0.65424455E-02 0.12499654E+03</pdfrwt>
<totfact> 0.10252026E+04</totfact>
</mgrwt>
</event>
<event>
 5    1  0.3304582E-002  0.1249984E+03  0.7818608E-02  0.1235072E+00
         -4   -1    0    0    0  501 -0.00000000000E+00  0.00000000000E+00  0.10224606205E+04  0.10224614093E+04  0.12700000000E+01 0. -1.
          4   -1    0    0  501    0  0.00000000000E+00 -0.00000000000E+00 -0.37139824328E+01  0.39251198085E+01  0.12700000000E+01 0. -1.
         25    2    1    2    0    0  0.00000000000E+00  0.00000000000E+00  0.10187466381E+04  0.10263865291E+04  0.12499837770E+03 0.  0.
    9000005    1    3    3    0    0 -0.22558829451E+02 -0.52923741177E+02  0.70972075462E+03  0.71204941732E+03  0.10000000000E+01 0.  0.
    9000005    1    3    3    0    0  0.22558829451E+02  0.52923741177E+02  0.30902588347E+03  0.31433711174E+03  0.10000000000E+01 0.  0.
<mgrwt>
<rscale>  0 0.12499838E+03</rscale>
<asrwt>0</asrwt>
<pdfrwt beam="2">  1        4 0.58768360E-03 0.12499838E+03</pdfrwt>
<pdfrwt beam="1">  1       -4 0.15731802E+00 0.12499838E+03</pdfrwt>
<totfact> 0.29744706E+03</totfact>
</mgrwt>
</event>
<event>
 5    1  0.3304582E-002  0.1249938E+03  0.7818608E-02  0.1235079E+00
          4   -1    0    0  501    0  0.00000000000E+00  0.00000000000E+00  0.25424536396E+03  0.25424853587E+03  0.12700000000E+01 0.  1.
         -4   -1    0    0    0  501 -0.00000000000E+00 -0.00000000000E+00 -0.15333047555E+02  0.15385553202E+02  0.12700000000E+01 0.  1.
         25    2    1    2    0    0  0.00000000000E+00  0.00000000000E+00  0.23891231640E+03  0.26963408908E+03  0.12499378810E+03 0.  0.
    9000005    1    3    3    0    0  0.26879343480E+02 -0.56164572215E+02  0.10806112453E+03  0.12472034682E+03  0.10000000000E+01 0.  0.
    9000005    1    3    3    0    0 -0.26879343480E+02  0.56164572215E+02  0.13085119188E+03  0.14491374225E+03  0.10000000000E+01 0.  0.
<mgrwt>
<rscale>  0 0.12499379E+03</rscale>
<asrwt>0</asrwt>
<pdfrwt beam="1">  1        4 0.39118956E-01 0.12499379E+03</pdfrwt>
<pdfrwt beam="2">  1       -4 0.23632132E-02 0.12499379E+03</pdfrwt>
<totfact> 0.79583773E+03</totfact>
</mgrwt>
</event>
<event>
 5    1  0.3304582E-002  0.1249984E+03  0.7818608E-02  0.1235072E+00
         -4   -1    0    0    0  501 -0.00000000000E+00  0.00000000000E+00  0.12584566478E+03  0.12585207287E+03  0.12700000000E+01 0.  1.
          4   -1    0    0  501    0  0.00000000000E+00 -0.00000000000E+00 -0.31019023575E+02  0.31045011251E+02  0.12700000000E+01 0.  1.
         25    2    1    2    0    0  0.00000000000E+00  0.00000000000E+00  0.94826641208E+02  0.15689708412E+03  0.12499841248E+03 0.  0.
    9000005    1    3    3    0    0 -0.19697663732E+02  0.56961842237E+01 -0.26682457987E+02  0.33665977417E+02  0.10000000000E+01 0.  0.
    9000005    1    3    3    0    0  0.19697663732E+02 -0.56961842237E+01  0.12150909919E+03  0.12323110670E+03  0.10000000000E+01 0.  0.
<mgrwt>
<rscale>  0 0.12499841E+03</rscale>
<asrwt>0</asrwt>
<pdfrwt beam="2">  1        4 0.47746496E-02 0.12499841E+03</pdfrwt>
<pdfrwt beam="1">  1       -4 0.19363363E-01 0.12499841E+03</pdfrwt>
<totfact> 0.97947856E+03</totfact>
</mgrwt>
</event>
<event>
 5    1  0.3304582E-002  0.1249992E+03  0.7818608E-02  0.1235071E+00
         -4   -1    0    0    0  501 -0.00000000000E+00  0.00000000000E+00  0.10733185950E+02  0.10808060910E+02  0.12700000000E+01 0.  1.
          4   -1    0    0  501    0  0.00000000000E+00 -0.00000000000E+00 -0.36259558367E+03  0.36259780776E+03  0.12700000000E+01 0.  1.
         25    2    1    2    0    0  0.00000000000E+00  0.00000000000E+00 -0.35186239771E+03  0.37340586867E+03  0.12499918333E+03 0.  0.
    9000005    1    3    3    0    0 -0.30276101018E+02  0.35928795184E+02 -0.52847180083E+02  0.70720188482E+02  0.10000000000E+01 0.  0.
    9000005    1    3    3    0    0  0.30276101018E+02 -0.35928795184E+02 -0.29901521763E+03  0.30268568019E+03  0.10000000000E+01 0.  0.
<mgrwt>
<rscale>  0 0.12499918E+03</rscale>
<asrwt>0</asrwt>
<pdfrwt beam="2">  1        4 0.55789857E-01 0.12499918E+03</pdfrwt>
<pdfrwt beam="1">  1       -4 0.16571904E-02 0.12499918E+03</pdfrwt>
<totfact> 0.67225336E+03</totfact>
</mgrwt>
</event>
<event>
 5    1  0.3304582E-002  0.1249972E+03  0.7818608E-02  0.1235074E+00
          4   -1    0    0  501    0  0.00000000000E+00  0.00000000000E+00  0.17691487996E+02  0.17737013490E+02  0.12700000000E+01 0.  1.
         -4   -1    0    0    0  501 -0.00000000000E+00 -0.00000000000E+00 -0.22045737528E+03  0.22046103333E+03  0.12700000000E+01 0.  1.
         25    2    1    2    0    0  0.00000000000E+00  0.00000000000E+00 -0.20276588729E+03  0.23819804682E+03  0.12499721781E+03 0.  0.
    9000005    1    3    3    0    0  0.60013877253E+02  0.12465286765E+02 -0.12456803045E+03  0.13883530908E+03  0.10000000000E+01 0.  0.
    9000005    1    3    3    0    0 -0.60013877253E+02 -0.12465286765E+02 -0.78197856835E+02  0.99362737738E+02  0.10000000000E+01 0.  0.
<mgrwt>
<rscale>  0 0.12499722E+03</rscale>
<asrwt>0</asrwt>
<pdfrwt beam="1">  1        4 0.27255509E-02 0.12499722E+03</pdfrwt>
<pdfrwt beam="2">  1       -4 0.33920301E-01 0.12499722E+03</pdfrwt>
<totfact> 0.84071686E+03</totfact>
</mgrwt>
</event>
<event>
 5    1  0.3304582E-002  0.1250035E+03  0.7818608E-02  0.1235064E+00
         -4   -1    0    0    0  501 -0.00000000000E+00  0.00000000000E+00  0.26576200925E+02  0.26606528440E+02  0.12700000000E+01 0. -1.
          4   -1    0    0  501    0  0.00000000000E+00 -0.00000000000E+00 -0.14687426466E+03  0.14687975531E+03  0.12700000000E+01 0. -1.
         25    2    1    2    0    0  0.00000000000E+00  0.00000000000E+00 -0.12029806374E+03  0.17348628375E+03  0.12500346600E+03 0.  0.
    9000005    1    3    3    0    0  0.16696927767E+02 -0.13826043879E+02  0.21197550846E+02  0.30336167327E+02  0.10000000000E+01 0.  0.
    9000005    1    3    3    0    0 -0.16696927767E+02  0.13826043879E+02 -0.14149561458E+03  0.14315011643E+03  0.10000000000E+01 0.  0.
<mgrwt>
<rscale>  0 0.12500347E+03</rscale>
<asrwt>0</asrwt>
<pdfrwt beam="2">  1        4 0.22598795E-01 0.12500347E+03</pdfrwt>
<pdfrwt beam="1">  1       -4 0.40914016E-02 0.12500347E+03</pdfrwt>
<totfact> 0.94795436E+03</totfact>
</mgrwt>
</event>
<event>
 5    1  0.3304582E-002  0.1250006E+03  0.7818608E-02  0.1235068E+00
          4   -1    0    0  501    0  0.00000000000E+00  0.00000000000E+00  0.25366770531E+01  0.28368345866E+01  0.12700000000E+01 0.  1.
         -4   -1    0    0    0  501 -0.00000000000E+00 -0.00000000000E+00 -0.14536048667E+04  0.14536054215E+04  0.12700000000E+01 0.  1.
         25    2    1    2    0    0  0.00000000000E+00  0.00000000000E+00 -0.14510681896E+04  0.14564422561E+04  0.12500061716E+03 0.  0.
    9000005    1    3    3    0    0  0.42495570803E+02  0.45687916503E+02 -0.76594528610E+03  0.76848320773E+03  0.10000000000E+01 0.  0.
    9000005    1    3    3    0    0 -0.42495570803E+02 -0.45687916503E+02 -0.68512290353E+03  0.68795904834E+03  0.10000000000E+01 0.  0.
<mgrwt>
<rscale>  0 0.12500062E+03</rscale>
<asrwt>0</asrwt>
<pdfrwt beam="1">  1        4 0.41339089E-03 0.12500062E+03</pdfrwt>
<pdfrwt beam="2">  1       -4 0.22365402E+00 0.12500062E+03</pdfrwt>
<totfact> 0.18800998E+03</totfact>
</mgrwt>
</event>
<event>
 5    1  0.3304582E-002  0.1250000E+03  0.7818608E-02  0.1235069E+00
         -4   -1    0    0    0  501 -0.00000000000E+00  0.00000000000E+00  0.23003546462E+02  0.23038577426E+02  0.12700000000E+01 0.  1.
          4   -1    0    0  501    0  0.00000000000E+00 -0.00000000000E+00 -0.16964425558E+03  0.16964900928E+03  0.12700000000E+01 0.  1.
         25    2    1    2    0    0  0.00000000000E+00  0.00000000000E+00 -0.14664070912E+03  0.19268758671E+03  0.12500003401E+03 0.  0.
    9000005    1    3    3    0    0  0.56622135808E+01  0.33476319360E+02 -0.15419445071E+03  0.15789127034E+03  0.10000000000E+01 0.  0.
    9000005    1    3    3    0    0 -0.56622135808E+01 -0.33476319360E+02  0.75537415952E+01  0.34796316366E+02  0.10000000000E+01 0.  0.
<mgrwt>
<rscale>  0 0.12500003E+03</rscale>
<asrwt>0</asrwt>
<pdfrwt beam="2">  1        4 0.26102176E-01 0.12500003E+03</pdfrwt>
<pdfrwt beam="1">  1       -4 0.35420676E-02 0.12500003E+03</pdfrwt>
<totfact> 0.91381706E+03</totfact>
</mgrwt>
</event>
<event>
 5    1  0.3304582E-002  0.1249937E+03  0.7818608E-02  0.1235079E+00
         -4   -1    0    0    0  501 -0.00000000000E+00  0.00000000000E+00  0.77472974084E+01  0.78507016969E+01  0.12700000000E+01 0. -1.
          4   -1    0    0  501    0  0.00000000000E+00 -0.00000000000E+00 -0.50071046667E+03  0.50071207728E+03  0.12700000000E+01 0. -1.
         25    2    1    2    0    0  0.00000000000E+00  0.00000000000E+00 -0.49296316926E+03  0.50856277897E+03  0.12499365548E+03 0.  0.
    9000005    1    3    3    0    0  0.61223393157E+02  0.69826342806E+01 -0.28872419296E+03  0.29522825178E+03  0.10000000000E+01 0.  0.
    9000005    1    3    3    0    0 -0.61223393157E+02 -0.69826342806E+01 -0.20423897630E+03  0.21333452719E+03  0.10000000000E+01 0.  0.
<mgrwt>
<rscale>  0 0.12499366E+03</rscale>
<asrwt>0</asrwt>
<pdfrwt beam="2">  1        4 0.77040433E-01 0.12499366E+03</pdfrwt>
<pdfrwt beam="1">  1       -4 0.11999704E-02 0.12499366E+03</pdfrwt>
<totfact> 0.55213778E+03</totfact>
</mgrwt>
</event>
<event>
 5    1  0.3304582E-002  0.1250025E+03  0.7818608E-02  0.1235065E+00
          4   -1    0    0  501    0  0.00000000000E+00  0.00000000000E+00  0.24064221998E+03  0.24064557120E+03  0.12700000000E+01 0. -1.
         -4   -1    0    0    0  501 -0.00000000000E+00 -0.00000000000E+00 -0.16204932023E+02  0.16254621555E+02  0.12700000000E+01 0. -1.
         25    2    1    2    0    0  0.00000000000E+00  0.00000000000E+00  0.22443728796E+03  0.25690019275E+03  0.12500245122E+03 0.  0.
    9000005    1    3    3    0    0  0.41571941779E+02 -0.21933371900E+02  0.27579327552E+02  0.54506132264E+02  0.10000000000E+01 0.  0.
    9000005    1    3    3    0    0 -0.41571941779E+02  0.21933371900E+02  0.19685796040E+03  0.20239406049E+03  0.10000000000E+01 0.  0.
<mgrwt>
<rscale>  0 0.12500245E+03</rscale>
<asrwt>0</asrwt>
<pdfrwt beam="1">  1        4 0.37025957E-01 0.12500245E+03</pdfrwt>
<pdfrwt beam="2">  1       -4 0.24971467E-02 0.12500245E+03</pdfrwt>
<totfact> 0.81338615E+03</totfact>
</mgrwt>
</event>
<event>
 5    1  0.3304582E-002  0.1250057E+03  0.7818608E-02  0.1235060E+00
          4   -1    0    0  501    0  0.00000000000E+00  0.00000000000E+00  0.13857134666E+02  0.13915210424E+02  0.12700000000E+01 0.  1.
         -4   -1    0    0    0  501 -0.00000000000E+00 -0.00000000000E+00 -0.28127104987E+03  0.28127391702E+03  0.12700000000E+01 0.  1.
         25    2    1    2    0    0  0.00000000000E+00  0.00000000000E+00 -0.26741391521E+03  0.29518912745E+03  0.12500567553E+03 0.  0.
    9000005    1    3    3    0    0 -0.50433778105E+02  0.75146956933E+01 -0.21903079739E+03  0.22489003275E+03  0.10000000000E+01 0.  0.
    9000005    1    3    3    0    0  0.50433778105E+02 -0.75146956933E+01 -0.48383117818E+02  0.70299094696E+02  0.10000000000E+01 0.  0.
<mgrwt>
<rscale>  0 0.12500568E+03</rscale>
<asrwt>0</asrwt>
<pdfrwt beam="1">  1        4 0.21365550E-02 0.12500568E+03</pdfrwt>
<pdfrwt beam="2">  1       -4 0.43277153E-01 0.12500568E+03</pdfrwt>
<totfact> 0.76196694E+03</totfact>
</mgrwt>
</event>
<event>
 5    1  0.3304582E-002  0.1249991E+03  0.7818608E-02  0.1235071E+00
         -4   -1    0    0    0  501 -0.00000000000E+00  0.00000000000E+00  0.21721639059E+03  0.21722010322E+03  0.12700000000E+01 0. -1.
          4   -1    0    0  501    0  0.00000000000E+00 -0.00000000000E+00 -0.17956664722E+02  0.18001519601E+02  0.12700000000E+01 0. -1.
         25    2    1    2    0    0  0.00000000000E+00  0.00000000000E+00  0.19925972587E+03  0.23522162282E+03  0.12499909395E+03 0.  0.
    9000005    1    3    3    0    0 -0.26133661589E+02 -0.21390334884E+02  0.68512367984E+00  0.33793255080E+02  0.10000000000E+01 0.  0.
    9000005    1    3    3    0    0  0.26133661589E+02  0.21390334884E+02  0.19857460219E+03  0.20142836774E+03  0.10000000000E+01 0.  0.
<mgrwt>
<rscale>  0 0.12499909E+03</rscale>
<asrwt>0</asrwt>
<pdfrwt beam="2">  1        4 0.27662998E-02 0.12499909E+03</pdfrwt>
<pdfrwt beam="1">  1       -4 0.33421642E-01 0.12499909E+03</pdfrwt>
<totfact> 0.84515915E+03</totfact>
</mgrwt>
</event>
<event>
 5    1  0.3304582E-002  0.1250062E+03  0.7818608E-02  0.1235060E+00
         -4   -1    0    0    0  501 -0.00000000000E+00  0.00000000000E+00  0.37980445688E+02  0.38001673051E+02  0.12700000000E+01 0. -1.
          4   -1    0    0  501    0  0.00000000000E+00 -0.00000000000E+00 -0.10280536383E+03  0.10281320797E+03  0.12700000000E+01 0. -1.
         25    2    1    2    0    0  0.00000000000E+00  0.00000000000E+00 -0.64824918144E+02  0.14081488102E+03  0.12500624266E+03 0.  0.
    9000005    1    3    3    0    0 -0.29764540388E+02  0.54311512342E+02 -0.22989684439E+02  0.66069613499E+02  0.10000000000E+01 0.  0.
    9000005    1    3    3    0    0  0.29764540388E+02 -0.54311512342E+02 -0.41835233705E+02  0.74745267519E+02  0.10000000000E+01 0.  0.
<mgrwt>
<rscale>  0 0.12500624E+03</rscale>
<asrwt>0</asrwt>
<pdfrwt beam="2">  1        4 0.15818446E-01 0.12500624E+03</pdfrwt>
<pdfrwt beam="1">  1       -4 0.58453818E-02 0.12500624E+03</pdfrwt>
<totfact> 0.10115302E+04</totfact>
</mgrwt>
</event>
<event>
 5    1  0.3304582E-002  0.1250059E+03  0.7818608E-02  0.1235060E+00
          4   -1    0    0  501    0  0.00000000000E+00  0.00000000000E+00  0.25173855008E+03  0.25174175358E+03  0.12700000000E+01 0. -1.
         -4   -1    0    0    0  501 -0.00000000000E+00 -0.00000000000E+00 -0.15489261086E+02  0.15541238979E+02  0.12700000000E+01 0. -1.
         25    2    1    2    0    0  0.00000000000E+00  0.00000000000E+00  0.23624928900E+03  0.26728299256E+03  0.12500588611E+03 0.  0.
    9000005    1    3    3    0    0 -0.41288770740E+02 -0.36722405021E+02  0.18054730445E+03  0.18881638373E+03  0.10000000000E+01 0.  0.
    9000005    1    3    3    0    0  0.41288770740E+02  0.36722405021E+02  0.55701984549E+02  0.78466608837E+02  0.10000000000E+01 0.  0.
<mgrwt>
<rscale>  0 0.12500589E+03</rscale>
<asrwt>0</asrwt>
<pdfrwt beam="1">  1        4 0.38733251E-01 0.12500589E+03</pdfrwt>
<pdfrwt beam="2">  1       -4 0.23872080E-02 0.12500589E+03</pdfrwt>
<totfact> 0.79884275E+03</totfact>
</mgrwt>
</event>
<event>
 5    1  0.3304582E-002  0.1249912E+03  0.7818608E-02  0.1235083E+00
         -4   -1    0    0    0  501 -0.00000000000E+00  0.00000000000E+00  0.80923125633E+01  0.81913626841E+01  0.12700000000E+01 0.  1.
          4   -1    0    0  501    0  0.00000000000E+00 -0.00000000000E+00 -0.47960718675E+03  0.47960886823E+03  0.12700000000E+01 0.  1.
         25    2    1    2    0    0  0.00000000000E+00  0.00000000000E+00 -0.47151487419E+03  0.48780023091E+03  0.12499115448E+03 0.  0.
    9000005    1    3    3    0    0 -0.85299123561E+01 -0.15009218242E+02 -0.47013465362E+03  0.47045257845E+03  0.10000000000E+01 0.  0.
    9000005    1    3    3    0    0  0.85299123561E+01  0.15009218242E+02 -0.13802205664E+01  0.17347652460E+02  0.10000000000E+01 0.  0.
<mgrwt>
<rscale>  0 0.12499115E+03</rscale>
<asrwt>0</asrwt>
<pdfrwt beam="2">  1        4 0.73793448E-01 0.12499115E+03</pdfrwt>
<pdfrwt beam="1">  1       -4 0.12527201E-02 0.12499115E+03</pdfrwt>
<totfact> 0.56834567E+03</totfact>
</mgrwt>
</event>
<event>
 5    1  0.3304582E-002  0.1249959E+03  0.7818608E-02  0.1235076E+00
         -4   -1    0    0    0  501 -0.00000000000E+00  0.00000000000E+00  0.13676485543E+02  0.13735325144E+02  0.12700000000E+01 0. -1.
          4   -1    0    0  501    0  0.00000000000E+00 -0.00000000000E+00 -0.28492609584E+03  0.28492892621E+03  0.12700000000E+01 0. -1.
         25    2    1    2    0    0  0.00000000000E+00  0.00000000000E+00 -0.27124961030E+03  0.29866425135E+03  0.12499593573E+03 0.  0.
    9000005    1    3    3    0    0 -0.48558093871E+02  0.33625012521E+02 -0.18438631531E+03  0.19361777610E+03  0.10000000000E+01 0.  0.
    9000005    1    3    3    0    0  0.48558093871E+02 -0.33625012521E+02 -0.86863294981E+02  0.10504647525E+03  0.10000000000E+01 0.  0.
<mgrwt>
<rscale>  0 0.12499594E+03</rscale>
<asrwt>0</asrwt>
<pdfrwt beam="2">  1        4 0.43839523E-01 0.12499594E+03</pdfrwt>
<pdfrwt beam="1">  1       -4 0.21088188E-02 0.12499594E+03</pdfrwt>
<totfact> 0.75773537E+03</totfact>
</mgrwt>
</event>
<event>
 5    1  0.3304582E-002  0.1250106E+03  0.7818608E-02  0.1235053E+00
         -4   -1    0    0    0  501 -0.00000000000E+00  0.00000000000E+00  0.16354427668E+02  0.16403664357E+02  0.12700000000E+01 0. -1.
          4   -1    0    0  501    0  0.00000000000E+00 -0.00000000000E+00 -0.23848004424E+03  0.23848342584E+03  0.12700000000E+01 0. -1.
         25    2    1    2    0    0  0.00000000000E+00  0.00000000000E+00 -0.22212561657E+03  0.25488709020E+03  0.12501055640E+03 0.  0.
    9000005    1    3    3    0    0  0.26811717275E+02 -0.56434364077E+02 -0.10803572900E+03  0.12480554625E+03  0.10000000000E+01 0.  0.
    9000005    1    3    3    0    0 -0.26811717275E+02  0.56434364077E+02 -0.11408988757E+03  0.13008154395E+03  0.10000000000E+01 0.  0.
<mgrwt>
<rscale>  0 0.12501056E+03</rscale>
<asrwt>0</asrwt>
<pdfrwt beam="2">  1        4 0.36693283E-01 0.12501056E+03</pdfrwt>
<pdfrwt beam="1">  1       -4 0.25201135E-02 0.12501056E+03</pdfrwt>
<totfact> 0.81609798E+03</totfact>
</mgrwt>
</event>
<event>
 5    1  0.3304582E-002  0.1250005E+03  0.7818608E-02  0.1235068E+00
          4   -1    0    0  501    0  0.00000000000E+00  0.00000000000E+00  0.18045769279E+02  0.18090403226E+02  0.12700000000E+01 0. -1.
         -4   -1    0    0    0  501 -0.00000000000E+00 -0.00000000000E+00 -0.21615146070E+03  0.21615519161E+03  0.12700000000E+01 0. -1.
         25    2    1    2    0    0  0.00000000000E+00  0.00000000000E+00 -0.19810569142E+03  0.23424559484E+03  0.12500053492E+03 0.  0.
    9000005    1    3    3    0    0  0.20075646410E+02 -0.20876201606E+02 -0.20282396894E+03  0.20488389334E+03  0.10000000000E+01 0.  0.
    9000005    1    3    3    0    0 -0.20075646410E+02  0.20876201606E+02  0.47182775234E+01  0.29361701501E+02  0.10000000000E+01 0.  0.
<mgrwt>
<rscale>  0 0.12500053E+03</rscale>
<asrwt>0</asrwt>
<pdfrwt beam="1">  1        4 0.27799927E-02 0.12500053E+03</pdfrwt>
<pdfrwt beam="2">  1       -4 0.33257790E-01 0.12500053E+03</pdfrwt>
<totfact> 0.84660908E+03</totfact>
</mgrwt>
</event>
<event>
 5    1  0.3304582E-002  0.1249909E+03  0.7818608E-02  0.1235083E+00
         -4   -1    0    0    0  501 -0.00000000000E+00  0.00000000000E+00  0.13113236621E+02  0.13174592012E+02  0.12700000000E+01 0.  1.
          4   -1    0    0  501    0  0.00000000000E+00 -0.00000000000E+00 -0.29708494964E+03  0.29708766417E+03  0.12700000000E+01 0.  1.
         25    2    1    2    0    0  0.00000000000E+00  0.00000000000E+00 -0.28397171302E+03  0.31026225618E+03  0.12499093494E+03 0.  0.
    9000005    1    3    3    0    0  0.16930408626E+02 -0.33473530633E+02 -0.26603936280E+03  0.26867277225E+03  0.10000000000E+01 0.  0.
    9000005    1    3    3    0    0 -0.16930408626E+02  0.33473530633E+02 -0.17932350217E+02  0.41589483931E+02  0.10000000000E+01 0.  0.
<mgrwt>
<rscale>  0 0.12499093E+03</rscale>
<asrwt>0</asrwt>
<pdfrwt beam="2">  1        4 0.45710300E-01 0.12499093E+03</pdfrwt>
<pdfrwt beam="1">  1       -4 0.20223497E-02 0.12499093E+03</pdfrwt>
<totfact> 0.74344283E+03</totfact>
</mgrwt>
</event>
<event>
 5    1  0.3304582E-002  0.1250002E+03  0.7818608E-02  0.1235069E+00
          4   -1    0    0  501    0  0.00000000000E+00  0.00000000000E+00  0.41818563436E+02  0.41837843489E+02  0.12700000000E+01 0.  1.
         -4   -1    0    0    0  501 -0.00000000000E+00 -0.00000000000E+00 -0.93364660918E+02  0.93373298155E+02  0.12700000000E+01 0.  1.
         25    2    1    2    0    0  0.00000000000E+00  0.00000000000E+00 -0.51546097482E+02  0.13521114164E+03  0.12500021064E+03 0.  0.
    9000005    1    3    3    0    0 -0.69035621632E+01  0.56740645154E+02 -0.53097232035E+02  0.78022279079E+02  0.10000000000E+01 0.  0.
    9000005    1    3    3    0    0  0.69035621632E+01 -0.56740645154E+02  0.15511345529E+01  0.57188862564E+02  0.10000000000E+01 0.  0.
<mgrwt>
<rscale>  0 0.12500021E+03</rscale>
<asrwt>0</asrwt>
<pdfrwt beam="1">  1        4 0.64357726E-02 0.12500021E+03</pdfrwt>
<pdfrwt beam="2">  1       -4 0.14365941E-01 0.12500021E+03</pdfrwt>
<totfact> 0.10233574E+04</totfact>
</mgrwt>
</event>
<event>
 5    1  0.3304582E-002  0.1250004E+03  0.7818608E-02  0.1235069E+00
          4   -1    0    0  501    0  0.00000000000E+00  0.00000000000E+00  0.20588353733E+02  0.20627486746E+02  0.12700000000E+01 0. -1.
         -4   -1    0    0    0  501 -0.00000000000E+00 -0.00000000000E+00 -0.18951076802E+03  0.18951502340E+03  0.12700000000E+01 0. -1.
         25    2    1    2    0    0  0.00000000000E+00  0.00000000000E+00 -0.16892241429E+03  0.21014251015E+03  0.12500037009E+03 0.  0.
    9000005    1    3    3    0    0 -0.16319584214E+02 -0.83778750243E+01 -0.18489064110E+03  0.18580114851E+03  0.10000000000E+01 0.  0.
    9000005    1    3    3    0    0  0.16319584214E+02  0.83778750243E+01  0.15968226818E+02  0.24341361641E+02  0.10000000000E+01 0.  0.
<mgrwt>
<rscale>  0 0.12500037E+03</rscale>
<asrwt>0</asrwt>
<pdfrwt beam="1">  1        4 0.31707767E-02 0.12500037E+03</pdfrwt>
<pdfrwt beam="2">  1       -4 0.29158839E-01 0.12500037E+03</pdfrwt>
<totfact> 0.88451881E+03</totfact>
</mgrwt>
</event>
<event>
 5    1  0.3304582E-002  0.1249983E+03  0.7818608E-02  0.1235072E+00
         -4   -1    0    0    0  501 -0.00000000000E+00  0.00000000000E+00  0.76506524678E+03  0.76506630087E+03  0.12700000000E+01 0.  1.
          4   -1    0    0  501    0  0.00000000000E+00 -0.00000000000E+00 -0.50255820213E+01  0.51835677533E+01  0.12700000000E+01 0.  1.
         25    2    1    2    0    0  0.00000000000E+00  0.00000000000E+00  0.76003966476E+03  0.77024986862E+03  0.12499827243E+03 0.  0.
    9000005    1    3    3    0    0  0.85884048320E+01  0.15790699919E+02  0.11218448262E+02  0.21212271988E+02  0.10000000000E+01 0.  0.
    9000005    1    3    3    0    0 -0.85884048320E+01 -0.15790699919E+02  0.74882121649E+03  0.74903759663E+03  0.10000000000E+01 0.  0.
<mgrwt>
<rscale>  0 0.12499827E+03</rscale>
<asrwt>0</asrwt>
<pdfrwt beam="2">  1        4 0.78540056E-03 0.12499827E+03</pdfrwt>
<pdfrwt beam="1">  1       -4 0.11771454E+00 0.12499827E+03</pdfrwt>
<totfact> 0.39625303E+03</totfact>
</mgrwt>
</event>
<event>
 5    1  0.3304582E-002  0.1250094E+03  0.7818608E-02  0.1235055E+00
         -4   -1    0    0    0  501 -0.00000000000E+00  0.00000000000E+00  0.58240475517E+02  0.58254320771E+02  0.12700000000E+01 0. -1.
          4   -1    0    0  501    0  0.00000000000E+00 -0.00000000000E+00 -0.67053296794E+02  0.67065322716E+02  0.12700000000E+01 0. -1.
         25    2    1    2    0    0  0.00000000000E+00  0.00000000000E+00 -0.88128212769E+01  0.12531964349E+03  0.12500938855E+03 0.  0.
    9000005    1    3    3    0    0  0.98584831721E+01 -0.34440459012E+02 -0.55743876308E+02  0.66270013228E+02  0.10000000000E+01 0.  0.
    9000005    1    3    3    0    0 -0.98584831721E+01  0.34440459012E+02  0.46931055031E+02  0.59049630259E+02  0.10000000000E+01 0.  0.
<mgrwt>
<rscale>  0 0.12500939E+03</rscale>
<asrwt>0</asrwt>
<pdfrwt beam="2">  1        4 0.10317882E-01 0.12500939E+03</pdfrwt>
<pdfrwt beam="1">  1       -4 0.89620633E-02 0.12500939E+03</pdfrwt>
<totfact> 0.10443708E+04</totfact>
</mgrwt>
</event>
<event>
 5    1  0.3304582E-002  0.1250033E+03  0.7818608E-02  0.1235064E+00
          4   -1    0    0  501    0  0.00000000000E+00  0.00000000000E+00  0.11406056699E+02  0.11476542572E+02  0.12700000000E+01 0. -1.
         -4   -1    0    0    0  501 -0.00000000000E+00 -0.00000000000E+00 -0.34136300520E+03  0.34136536763E+03  0.12700000000E+01 0. -1.
         25    2    1    2    0    0  0.00000000000E+00  0.00000000000E+00 -0.32995694850E+03  0.35284191020E+03  0.12500330289E+03 0.  0.
    9000005    1    3    3    0    0  0.23769757345E+01 -0.13445773268E+02 -0.33711490482E+03  0.33739279466E+03  0.10000000000E+01 0.  0.
    9000005    1    3    3    0    0 -0.23769757345E+01  0.13445773268E+02  0.71579563244E+01  0.15449115546E+02  0.10000000000E+01 0.  0.
<mgrwt>
<rscale>  0 0.12500330E+03</rscale>
<asrwt>0</asrwt>
<pdfrwt beam="1">  1        4 0.17603819E-02 0.12500330E+03</pdfrwt>
<pdfrwt beam="2">  1       -4 0.52522981E-01 0.12500330E+03</pdfrwt>
<totfact> 0.69407969E+03</totfact>
</mgrwt>
</event>
<event>
 5    1  0.3304582E-002  0.1249964E+03  0.7818608E-02  0.1235075E+00
         -4   -1    0    0    0  501 -0.00000000000E+00  0.00000000000E+00  0.14455818110E+03  0.14456375971E+03  0.12700000000E+01 0.  1.
          4   -1    0    0  501    0  0.00000000000E+00 -0.00000000000E+00 -0.26999402455E+02  0.27029255131E+02  0.12700000000E+01 0.  1.
         25    2    1    2    0    0  0.00000000000E+00  0.00000000000E+00  0.11755877864E+03  0.17159301484E+03  0.12499638518E+03 0.  0.
    9000005    1    3    3    0    0  0.34287273476E+01 -0.22741543914E+02  0.13854380065E+03  0.14044329350E+03  0.10000000000E+01 0.  0.
    9000005    1    3    3    0    0 -0.34287273476E+01  0.22741543914E+02 -0.20985022010E+02  0.31149721340E+02  0.10000000000E+01 0.  0.
<mgrwt>
<rscale>  0 0.12499639E+03</rscale>
<asrwt>0</asrwt>
<pdfrwt beam="2">  1        4 0.41564796E-02 0.12499639E+03</pdfrwt>
<pdfrwt beam="1">  1       -4 0.22242446E-01 0.12499639E+03</pdfrwt>
<totfact> 0.95160270E+03</totfact>
</mgrwt>
</event>
<event>
 5    1  0.3304582E-002  0.1249999E+03  0.7818608E-02  0.1235069E+00
         -4   -1    0    0    0  501 -0.00000000000E+00  0.00000000000E+00  0.13437308705E+03  0.13437908849E+03  0.12700000000E+01 0. -1.
          4   -1    0    0  501    0  0.00000000000E+00 -0.00000000000E+00 -0.29049605868E+02  0.29077353750E+02  0.12700000000E+01 0. -1.
         25    2    1    2    0    0  0.00000000000E+00  0.00000000000E+00  0.10532348118E+03  0.16345644224E+03  0.12499989129E+03 0.  0.
    9000005    1    3    3    0    0 -0.27490922168E+02 -0.53287486726E+02  0.29640510150E+02  0.66894445847E+02  0.10000000000E+01 0.  0.
    9000005    1    3    3    0    0  0.27490922168E+02  0.53287486726E+02  0.75682971033E+02  0.96561996394E+02  0.10000000000E+01 0.  0.
<mgrwt>
<rscale>  0 0.12499989E+03</rscale>
<asrwt>0</asrwt>
<pdfrwt beam="2">  1        4 0.44717662E-02 0.12499989E+03</pdfrwt>
<pdfrwt beam="1">  1       -4 0.20675379E-01 0.12499989E+03</pdfrwt>
<totfact> 0.96680754E+03</totfact>
</mgrwt>
</event>
<event>
 5    1  0.3304582E-002  0.1249990E+03  0.7818608E-02  0.1235071E+00
         -4   -1    0    0    0  501 -0.00000000000E+00  0.00000000000E+00  0.33452960153E+03  0.33453201222E+03  0.12700000000E+01 0.  1.
          4   -1    0    0  501    0  0.00000000000E+00 -0.00000000000E+00 -0.11639656004E+02  0.11708735709E+02  0.12700000000E+01 0.  1.
         25    2    1    2    0    0  0.00000000000E+00  0.00000000000E+00  0.32288994553E+03  0.34624074793E+03  0.12499895442E+03 0.  0.
    9000005    1    3    3    0    0 -0.58634524653E+02 -0.14542909057E+02  0.20573653474E+03  0.21442487125E+03  0.10000000000E+01 0.  0.
    9000005    1    3    3    0    0  0.58634524653E+02  0.14542909057E+02  0.11715341079E+03  0.13181587668E+03  0.10000000000E+01 0.  0.
<mgrwt>
<rscale>  0 0.12499895E+03</rscale>
<asrwt>0</asrwt>
<pdfrwt beam="2">  1        4 0.17962158E-02 0.12499895E+03</pdfrwt>
<pdfrwt beam="1">  1       -4 0.51471586E-01 0.12499895E+03</pdfrwt>
<totfact> 0.70141734E+03</totfact>
</mgrwt>
</event>
<event>
 5    1  0.3304582E-002  0.1250011E+03  0.7818608E-02  0.1235068E+00
         -4   -1    0    0    0  501 -0.00000000000E+00  0.00000000000E+00  0.80214686900E+03  0.80214787437E+03  0.12700000000E+01 0. -1.
          4   -1    0    0  501    0  0.00000000000E+00 -0.00000000000E+00 -0.47860011253E+01  0.49516367770E+01  0.12700000000E+01 0. -1.
         25    2    1    2    0    0  0.00000000000E+00  0.00000000000E+00  0.79736086788E+03  0.80709951115E+03  0.12500106906E+03 0.  0.
    9000005    1    3    3    0    0 -0.12313737082E+02 -0.77841953092E+01  0.62988674784E+01  0.15902752876E+02  0.10000000000E+01 0.  0.
    9000005    1    3    3    0    0  0.12313737082E+02  0.77841953092E+01  0.79106200040E+03  0.79119675827E+03  0.10000000000E+01 0.  0.
<mgrwt>
<rscale>  0 0.12500107E+03</rscale>
<asrwt>0</asrwt>
<pdfrwt beam="2">  1        4 0.74912706E-03 0.12500107E+03</pdfrwt>
<pdfrwt beam="1">  1       -4 0.12341992E+00 0.12500107E+03</pdfrwt>
<totfact> 0.37948886E+03</totfact>
</mgrwt>
</event>
<event>
 5    1  0.3304582E-002  0.1249988E+03  0.7818608E-02  0.1235071E+00
         -4   -1    0    0    0  501 -0.00000000000E+00  0.00000000000E+00  0.12215365292E+02  0.12281207156E+02  0.12700000000E+01 0. -1.
          4   -1    0    0  501    0  0.00000000000E+00 -0.00000000000E+00 -0.31884917175E+03  0.31885170099E+03  0.12700000000E+01 0. -1.
         25    2    1    2    0    0  0.00000000000E+00  0.00000000000E+00 -0.30663380646E+03  0.33113290815E+03  0.12499884638E+03 0.  0.
    9000005    1    3    3    0    0 -0.62369825240E+02 -0.17078840836E+01 -0.14403906941E+03  0.15697504733E+03  0.10000000000E+01 0.  0.
    9000005    1    3    3    0    0  0.62369825240E+02  0.17078840836E+01 -0.16259473705E+03  0.17415786082E+03  0.10000000000E+01 0.  0.
<mgrwt>
<rscale>  0 0.12499885E+03</rscale>
<asrwt>0</asrwt>
<pdfrwt beam="2">  1        4 0.49058972E-01 0.12499885E+03</pdfrwt>
<pdfrwt beam="1">  1       -4 0.18845465E-02 0.12499885E+03</pdfrwt>
<totfact> 0.71853128E+03</totfact>
</mgrwt>
</event>
<event>
 5    1  0.3304582E-002  0.1249986E+03  0.7818608E-02  0.1235071E+00
         -4   -1    0    0    0  501 -0.00000000000E+00  0.00000000000E+00  0.40653722128E+03  0.40653920498E+03  0.12700000000E+01 0.  1.
          4   -1    0    0  501    0  0.00000000000E+00 -0.00000000000E+00 -0.95643960209E+01  0.96483455185E+01  0.12700000000E+01 0.  1.
         25    2    1    2    0    0  0.00000000000E+00  0.00000000000E+00  0.39697282526E+03  0.41618755050E+03  0.12499861278E+03 0.  0.
    9000005    1    3    3    0    0 -0.48242511044E+02  0.19810349909E+02  0.31311989665E+03  0.31743481144E+03  0.10000000000E+01 0.  0.
    9000005    1    3    3    0    0  0.48242511044E+02 -0.19810349909E+02  0.83852928607E+02  0.98752739057E+02  0.10000000000E+01 0.  0.
<mgrwt>
<rscale>  0 0.12499861E+03</rscale>
<asrwt>0</asrwt>
<pdfrwt beam="2">  1        4 0.14780557E-02 0.12499861E+03</pdfrwt>
<pdfrwt beam="1">  1       -4 0.62550803E-01 0.12499861E+03</pdfrwt>
<totfact> 0.63010203E+03</totfact>
</mgrwt>
</event>
<event>
 5    1  0.3304582E-002  0.1250029E+03  0.7818608E-02  0.1235065E+00
         -4   -1    0    0    0  501 -0.00000000000E+00  0.00000000000E+00  0.90210240228E+01  0.91099821306E+01  0.12700000000E+01 0.  1.
          4   -1    0    0  501    0  0.00000000000E+00 -0.00000000000E+00 -0.43082157284E+03  0.43082344473E+03  0.12700000000E+01 0.  1.
         25    2    1    2    0    0  0.00000000000E+00  0.00000000000E+00 -0.42180054882E+03  0.43993342686E+03  0.12500286830E+03 0.  0.
    9000005    1    3    3    0    0 -0.29144740304E+02 -0.90204214548E+01 -0.40284871260E+03  0.40400355090E+03  0.10000000000E+01 0.  0.
    9000005    1    3    3    0    0  0.29144740304E+02  0.90204214548E+01 -0.18951836216E+02  0.35929875961E+02  0.10000000000E+01 0.  0.
<mgrwt>
<rscale>  0 0.12500287E+03</rscale>
<asrwt>0</asrwt>
<pdfrwt beam="2">  1        4 0.66287213E-01 0.12500287E+03</pdfrwt>
<pdfrwt beam="1">  1       -4 0.13948371E-02 0.12500287E+03</pdfrwt>
<totfact> 0.60841954E+03</totfact>
</mgrwt>
</event>
<event>
 5    1  0.3304582E-002  0.1249976E+03  0.7818608E-02  0.1235073E+00
          4   -1    0    0  501    0  0.00000000000E+00  0.00000000000E+00  0.34430376734E+03  0.34430610960E+03  0.12700000000E+01 0. -1.
         -4   -1    0    0    0  501 -0.00000000000E+00 -0.00000000000E+00 -0.11306985760E+02  0.11378085383E+02  0.12700000000E+01 0. -1.
         25    2    1    2    0    0  0.00000000000E+00  0.00000000000E+00  0.33299678158E+03  0.35568419498E+03  0.12499756003E+03 0.  0.
    9000005    1    3    3    0    0 -0.46038753521E+02 -0.38352996074E+02  0.21696771166E+03  0.22509221896E+03  0.10000000000E+01 0.  0.
    9000005    1    3    3    0    0  0.46038753521E+02  0.38352996074E+02  0.11602906992E+03  0.13059197602E+03  0.10000000000E+01 0.  0.
<mgrwt>
<rscale>  0 0.12499756E+03</rscale>
<asrwt>0</asrwt>
<pdfrwt beam="1">  1        4 0.52975460E-01 0.12499756E+03</pdfrwt>
<pdfrwt beam="2">  1       -4 0.17451856E-02 0.12499756E+03</pdfrwt>
<totfact> 0.69107447E+03</totfact>
</mgrwt>
</event>
<event>
 5    1  0.3304582E-002  0.1249994E+03  0.7818608E-02  0.1235070E+00
         -4   -1    0    0    0  501 -0.00000000000E+00  0.00000000000E+00  0.20842724108E+02  0.20881380420E+02  0.12700000000E+01 0. -1.
          4   -1    0    0  501    0  0.00000000000E+00 -0.00000000000E+00 -0.18719937591E+03  0.18720368383E+03  0.12700000000E+01 0. -1.
         25    2    1    2    0    0  0.00000000000E+00  0.00000000000E+00 -0.16635665180E+03  0.20808506425E+03  0.12499943347E+03 0.  0.
    9000005    1    3    3    0    0  0.21510859754E+01  0.39517278291E+02 -0.16368750315E+03  0.16840677285E+03  0.10000000000E+01 0.  0.
    9000005    1    3    3    0    0 -0.21510859754E+01 -0.39517278291E+02 -0.26691486535E+01  0.39678291406E+02  0.10000000000E+01 0.  0.
<mgrwt>
<rscale>  0 0.12499943E+03</rscale>
<asrwt>0</asrwt>
<pdfrwt beam="2">  1        4 0.28803208E-01 0.12499943E+03</pdfrwt>
<pdfrwt beam="1">  1       -4 0.32098780E-02 0.12499943E+03</pdfrwt>
<totfact> 0.88790698E+03</totfact>
</mgrwt>
</event>
<event>
 5    1  0.3304582E-002  0.1250061E+03  0.7818608E-02  0.1235060E+00
         -4   -1    0    0    0  501 -0.00000000000E+00  0.00000000000E+00  0.69498229109E+03  0.69498345148E+03  0.12700000000E+01 0.  1.
          4   -1    0    0  501    0  0.00000000000E+00 -0.00000000000E+00 -0.55482856084E+01  0.56917811968E+01  0.12700000000E+01 0.  1.
         25    2    1    2    0    0  0.00000000000E+00  0.00000000000E+00  0.68943400548E+03  0.70067523267E+03  0.12500613493E+03 0.  0.
    9000005    1    3    3    0    0  0.18433696075E+02 -0.82675702000E+01  0.13232650401E+02  0.24171406758E+02  0.10000000000E+01 0.  0.
    9000005    1    3    3    0    0 -0.18433696075E+02  0.82675702000E+01  0.67620135508E+03  0.67650382592E+03  0.10000000000E+01 0.  0.
<mgrwt>
<rscale>  0 0.12500613E+03</rscale>
<asrwt>0</asrwt>
<pdfrwt beam="2">  1        4 0.86470968E-03 0.12500613E+03</pdfrwt>
<pdfrwt beam="1">  1       -4 0.10693149E+00 0.12500613E+03</pdfrwt>
<totfact> 0.43045286E+03</totfact>
</mgrwt>
</event>
<event>
 5    1  0.3304582E-002  0.1250021E+03  0.7818608E-02  0.1235066E+00
          4   -1    0    0  501    0  0.00000000000E+00  0.00000000000E+00  0.21913052033E+03  0.21913420052E+03  0.12700000000E+01 0. -1.
         -4   -1    0    0    0  501 -0.00000000000E+00 -0.00000000000E+00 -0.17800278282E+02  0.17845526243E+02  0.12700000000E+01 0. -1.
         25    2    1    2    0    0  0.00000000000E+00  0.00000000000E+00  0.20133024205E+03  0.23697972677E+03  0.12500209813E+03 0.  0.
    9000005    1    3    3    0    0 -0.81986642623E+01 -0.61717037093E+02  0.11090429370E+03  0.12718873034E+03  0.10000000000E+01 0.  0.
    9000005    1    3    3    0    0  0.81986642623E+01  0.61717037093E+02  0.90425948346E+02  0.10979099643E+03  0.10000000000E+01 0.  0.
<mgrwt>
<rscale>  0 0.12500210E+03</rscale>
<asrwt>0</asrwt>
<pdfrwt beam="1">  1        4 0.33716150E-01 0.12500210E+03</pdfrwt>
<pdfrwt beam="2">  1       -4 0.27422682E-02 0.12500210E+03</pdfrwt>
<totfact> 0.84245308E+03</totfact>
</mgrwt>
</event>
<event>
 5    1  0.3304582E-002  0.1249775E+03  0.7818608E-02  0.1235104E+00
          4   -1    0    0  501    0  0.00000000000E+00  0.00000000000E+00  0.11395794945E+02  0.11466343900E+02  0.12700000000E+01 0.  1.
         -4   -1    0    0    0  501 -0.00000000000E+00 -0.00000000000E+00 -0.34152741961E+03  0.34152978091E+03  0.12700000000E+01 0.  1.
         25    2    1    2    0    0  0.00000000000E+00  0.00000000000E+00 -0.33013162467E+03  0.35299612481E+03  0.12497749607E+03 0.  0.
    9000005    1    3    3    0    0  0.29018768876E+02  0.38966097242E+01 -0.91666511013E+01  0.30696905493E+02  0.10000000000E+01 0.  0.
    9000005    1    3    3    0    0 -0.29018768876E+02 -0.38966097242E+01 -0.32096497357E+03  0.32229921932E+03  0.10000000000E+01 0.  0.
<mgrwt>
<rscale>  0 0.12497750E+03</rscale>
<asrwt>0</asrwt>
<pdfrwt beam="1">  1        4 0.17588080E-02 0.12497750E+03</pdfrwt>
<pdfrwt beam="2">  1       -4 0.52548281E-01 0.12497750E+03</pdfrwt>
<totfact> 0.69430768E+03</totfact>
</mgrwt>
</event>
<event>
 5    1  0.3304582E-002  0.1250006E+03  0.7818608E-02  0.1235068E+00
         -4   -1    0    0    0  501 -0.00000000000E+00  0.00000000000E+00  0.49923743739E+01  0.51513786397E+01  0.12700000000E+01 0. -1.
          4   -1    0    0  501    0  0.00000000000E+00 -0.00000000000E+00 -0.77002586692E+03  0.77002691422E+03  0.12700000000E+01 0. -1.
         25    2    1    2    0    0  0.00000000000E+00  0.00000000000E+00 -0.76503349254E+03  0.77517829286E+03  0.12500056402E+03 0.  0.
    9000005    1    3    3    0    0  0.15246495034E+02  0.34680885974E+02 -0.69072473431E+03  0.69176359983E+03  0.10000000000E+01 0.  0.
    9000005    1    3    3    0    0 -0.15246495034E+02 -0.34680885974E+02 -0.74308758230E+02  0.83414693025E+02  0.10000000000E+01 0.  0.
<mgrwt>
<rscale>  0 0.12500056E+03</rscale>
<asrwt>0</asrwt>
<pdfrwt beam="2">  1        4 0.11847774E+00 0.12500056E+03</pdfrwt>
<pdfrwt beam="1">  1       -4 0.78036987E-03 0.12500056E+03</pdfrwt>
<totfact> 0.39396660E+03</totfact>
</mgrwt>
</event>
<event>
 5    1  0.3304582E-002  0.1249508E+03  0.7818608E-02  0.1235146E+00
          4   -1    0    0  501    0  0.00000000000E+00  0.00000000000E+00  0.99880962106E+01  0.10068513590E+02  0.12700000000E+01 0. -1.
         -4   -1    0    0    0  501 -0.00000000000E+00 -0.00000000000E+00 -0.38913470415E+03  0.38913677656E+03  0.12700000000E+01 0. -1.
         25    2    1    2    0    0  0.00000000000E+00  0.00000000000E+00 -0.37914660794E+03  0.39920529015E+03  0.12495084383E+03 0.  0.
    9000005    1    3    3    0    0 -0.15901125984E+02  0.58762952020E+02 -0.23433017535E+03  0.24211063880E+03  0.10000000000E+01 0.  0.
    9000005    1    3    3    0    0  0.15901125984E+02 -0.58762952020E+02 -0.14481643259E+03  0.15709465136E+03  0.10000000000E+01 0.  0.
<mgrwt>
<rscale>  0 0.12495084E+03</rscale>
<asrwt>0</asrwt>
<pdfrwt beam="1">  1        4 0.15429759E-02 0.12495084E+03</pdfrwt>
<pdfrwt beam="2">  1       -4 0.59873211E-01 0.12495084E+03</pdfrwt>
<totfact> 0.64700351E+03</totfact>
</mgrwt>
</event>
<event>
 5    1  0.3304582E-002  0.1250006E+03  0.7818608E-02  0.1235068E+00
         -4   -1    0    0    0  501 -0.00000000000E+00  0.00000000000E+00  0.68693657741E+02  0.68705396541E+02  0.12700000000E+01 0. -1.
          4   -1    0    0  501    0  0.00000000000E+00 -0.00000000000E+00 -0.56841625831E+02  0.56855811727E+02  0.12700000000E+01 0. -1.
         25    2    1    2    0    0  0.00000000000E+00  0.00000000000E+00  0.11852031910E+02  0.12556120827E+03  0.12500058544E+03 0.  0.
    9000005    1    3    3    0    0  0.40777727599E+02  0.47349909176E+02  0.65995627426E+01  0.62844181875E+02  0.10000000000E+01 0.  0.
    9000005    1    3    3    0    0 -0.40777727599E+02 -0.47349909176E+02  0.52524691675E+01  0.62717026392E+02  0.10000000000E+01 0.  0.
<mgrwt>
<rscale>  0 0.12500059E+03</rscale>
<asrwt>0</asrwt>
<pdfrwt beam="2">  1        4 0.87468598E-02 0.12500059E+03</pdfrwt>
<pdfrwt beam="1">  1       -4 0.10570249E-01 0.12500059E+03</pdfrwt>
<totfact> 0.10440465E+04</totfact>
</mgrwt>
</event>
<event>
 5    1  0.3304582E-002  0.1250000E+03  0.7818608E-02  0.1235069E+00
         -4   -1    0    0    0  501 -0.00000000000E+00  0.00000000000E+00  0.12586449256E+04  0.12586455663E+04  0.12700000000E+01 0. -1.
          4   -1    0    0  501    0  0.00000000000E+00 -0.00000000000E+00 -0.29729429513E+01  0.32328454636E+01  0.12700000000E+01 0. -1.
         25    2    1    2    0    0  0.00000000000E+00  0.00000000000E+00  0.12556719826E+04  0.12618784117E+04  0.12499999255E+03 0.  0.
    9000005    1    3    3    0    0  0.11437974979E+02  0.46541815417E+02  0.22299117685E+03  0.22808558220E+03  0.10000000000E+01 0.  0.
    9000005    1    3    3    0    0 -0.11437974979E+02 -0.46541815417E+02  0.10326808057E+04  0.10337928295E+04  0.10000000000E+01 0.  0.
<mgrwt>
<rscale>  0 0.12499999E+03</rscale>
<asrwt>0</asrwt>
<pdfrwt beam="2">  1        4 0.47741722E-03 0.12499999E+03</pdfrwt>
<pdfrwt beam="1">  1       -4 0.19365789E+00 0.12499999E+03</pdfrwt>
<totfact> 0.23146489E+03</totfact>
</mgrwt>
</event>
<event>
 5    1  0.3304582E-002  0.1249942E+03  0.7818608E-02  0.1235078E+00
         -4   -1    0    0    0  501 -0.00000000000E+00  0.00000000000E+00  0.25168658463E+03  0.25168978879E+03  0.12700000000E+01 0. -1.
          4   -1    0    0  501    0  0.00000000000E+00 -0.00000000000E+00 -0.15489557727E+02  0.15541534628E+02  0.12700000000E+01 0. -1.
         25    2    1    2    0    0  0.00000000000E+00  0.00000000000E+00  0.23619702690E+03  0.26723132342E+03  0.12499417866E+03 0.  0.
    9000005    1    3    3    0    0 -0.19853377760E+02  0.30027897964E+02  0.22730267405E+03  0.23013764771E+03  0.10000000000E+01 0.  0.
    9000005    1    3    3    0    0  0.19853377760E+02 -0.30027897964E+02  0.88943528490E+01  0.37093675704E+02  0.10000000000E+01 0.  0.
<mgrwt>
<rscale>  0 0.12499418E+03</rscale>
<asrwt>0</asrwt>
<pdfrwt beam="2">  1        4 0.23872538E-02 0.12499418E+03</pdfrwt>
<pdfrwt beam="1">  1       -4 0.38725254E-01 0.12499418E+03</pdfrwt>
<totfact> 0.79912188E+03</totfact>
</mgrwt>
</event>
<event>
 5    1  0.3304582E-002  0.1249933E+03  0.7818608E-02  0.1235080E+00
          4   -1    0    0  501    0  0.00000000000E+00  0.00000000000E+00  0.16612243814E+03  0.16612729262E+03  0.12700000000E+01 0.  1.
         -4   -1    0    0    0  501 -0.00000000000E+00 -0.00000000000E+00 -0.23489415281E+02  0.23523722712E+02  0.12700000000E+01 0.  1.
         25    2    1    2    0    0  0.00000000000E+00  0.00000000000E+00  0.14263302286E+03  0.18965101533E+03  0.12499331345E+03 0.  0.
    9000005    1    3    3    0    0  0.10533972253E+02  0.21250341790E+02 -0.16401845601E+02  0.28854152851E+02  0.10000000000E+01 0.  0.
    9000005    1    3    3    0    0 -0.10533972253E+02 -0.21250341790E+02  0.15903486846E+03  0.16079686248E+03  0.10000000000E+01 0.  0.
<mgrwt>
<rscale>  0 0.12499331E+03</rscale>
<asrwt>0</asrwt>
<pdfrwt beam="1">  1        4 0.25560311E-01 0.12499331E+03</pdfrwt>
<pdfrwt beam="2">  1       -4 0.36167686E-02 0.12499331E+03</pdfrwt>
<totfact> 0.91921839E+03</totfact>
</mgrwt>
</event>
<event>
 5    1  0.3304582E-002  0.1250010E+03  0.7818608E-02  0.1235068E+00
          4   -1    0    0  501    0  0.00000000000E+00  0.00000000000E+00  0.86453104928E+01  0.87380943870E+01  0.12700000000E+01 0. -1.
         -4   -1    0    0    0  501 -0.00000000000E+00 -0.00000000000E+00 -0.44933641102E+03  0.44933820578E+03  0.12700000000E+01 0. -1.
         25    2    1    2    0    0  0.00000000000E+00  0.00000000000E+00 -0.44069110053E+03  0.45807630016E+03  0.12500100274E+03 0.  0.
    9000005    1    3    3    0    0  0.43450222883E+02  0.13571890764E+02 -0.63443503545E+02  0.78090948448E+02  0.10000000000E+01 0.  0.
    9000005    1    3    3    0    0 -0.43450222883E+02 -0.13571890764E+02 -0.37724759698E+03  0.37998535171E+03  0.10000000000E+01 0.  0.
<mgrwt>
<rscale>  0 0.12500100E+03</rscale>
<asrwt>0</asrwt>
<pdfrwt beam="1">  1        4 0.13373234E-02 0.12500100E+03</pdfrwt>
<pdfrwt beam="2">  1       -4 0.69135936E-01 0.12500100E+03</pdfrwt>
<totfact> 0.59269175E+03</totfact>
</mgrwt>
</event>
<event>
 5    1  0.3304582E-002  0.1249996E+03  0.7818608E-02  0.1235070E+00
         -4   -1    0    0    0  501 -0.00000000000E+00  0.00000000000E+00  0.74885512338E+02  0.74896280669E+02  0.12700000000E+01 0. -1.
          4   -1    0    0  501    0  0.00000000000E+00 -0.00000000000E+00 -0.52140335470E+02  0.52155800089E+02  0.12700000000E+01 0. -1.
         25    2    1    2    0    0  0.00000000000E+00  0.00000000000E+00  0.22745176868E+02  0.12705208076E+03  0.12499955262E+03 0.  0.
    9000005    1    3    3    0    0  0.23863515669E+02  0.42207731829E+02 -0.28698897051E+02  0.56352344212E+02  0.10000000000E+01 0.  0.
    9000005    1    3    3    0    0 -0.23863515669E+02 -0.42207731829E+02  0.51444073919E+02  0.70699736546E+02  0.10000000000E+01 0.  0.
<mgrwt>
<rscale>  0 0.12499955E+03</rscale>
<asrwt>0</asrwt>
<pdfrwt beam="2">  1        4 0.80236080E-02 0.12499955E+03</pdfrwt>
<pdfrwt beam="1">  1       -4 0.11522866E-01 0.12499955E+03</pdfrwt>
<totfact> 0.10408119E+04</totfact>
</mgrwt>
</event>
<event>
 5    1  0.3304582E-002  0.1250114E+03  0.7818608E-02  0.1235052E+00
         -4   -1    0    0    0  501 -0.00000000000E+00  0.00000000000E+00  0.91225150981E+01  0.92104930224E+01  0.12700000000E+01 0. -1.
          4   -1    0    0  501    0  0.00000000000E+00 -0.00000000000E+00 -0.42613249178E+03  0.42613438426E+03  0.12700000000E+01 0. -1.
         25    2    1    2    0    0  0.00000000000E+00  0.00000000000E+00 -0.41700997668E+03  0.43534487728E+03  0.12501136559E+03 0.  0.
    9000005    1    3    3    0    0  0.59360684643E+02  0.14942359067E+02 -0.25241628147E+03  0.25973437225E+03  0.10000000000E+01 0.  0.
    9000005    1    3    3    0    0 -0.59360684643E+02 -0.14942359067E+02 -0.16459369521E+03  0.17561050504E+03  0.10000000000E+01 0.  0.
<mgrwt>
<rscale>  0 0.12501137E+03</rscale>
<asrwt>0</asrwt>
<pdfrwt beam="2">  1        4 0.65565743E-01 0.12501137E+03</pdfrwt>
<pdfrwt beam="1">  1       -4 0.14103773E-02 0.12501137E+03</pdfrwt>
<totfact> 0.61239144E+03</totfact>
</mgrwt>
</event>
<event>
 5    1  0.3304582E-002  0.1249913E+03  0.7818608E-02  0.1235083E+00
          4   -1    0    0  501    0  0.00000000000E+00  0.00000000000E+00  0.14083916157E+02  0.14141060580E+02  0.12700000000E+01 0.  1.
         -4   -1    0    0    0  501 -0.00000000000E+00 -0.00000000000E+00 -0.27669685588E+03  0.27669977043E+03  0.12700000000E+01 0.  1.
         25    2    1    2    0    0  0.00000000000E+00  0.00000000000E+00 -0.26261293972E+03  0.29084083101E+03  0.12499133118E+03 0.  0.
    9000005    1    3    3    0    0  0.47074558419E+02  0.10863151715E+02 -0.22352542218E+03  0.22868895136E+03  0.10000000000E+01 0.  0.
    9000005    1    3    3    0    0 -0.47074558419E+02 -0.10863151715E+02 -0.39087517548E+02  0.62151879647E+02  0.10000000000E+01 0.  0.
<mgrwt>
<rscale>  0 0.12499133E+03</rscale>
<asrwt>0</asrwt>
<pdfrwt beam="1">  1        4 0.21713765E-02 0.12499133E+03</pdfrwt>
<pdfrwt beam="2">  1       -4 0.42573363E-01 0.12499133E+03</pdfrwt>
<totfact> 0.76777086E+03</totfact>
</mgrwt>
</event>
<event>
 5    1  0.3304582E-002  0.1249929E+03  0.7818608E-02  0.1235080E+00
         -4   -1    0    0    0  501 -0.00000000000E+00  0.00000000000E+00  0.16296223110E+02  0.16345635125E+02  0.12700000000E+01 0.  1.
          4   -1    0    0  501    0  0.00000000000E+00 -0.00000000000E+00 -0.23926156309E+03  0.23926493365E+03  0.12700000000E+01 0.  1.
         25    2    1    2    0    0  0.00000000000E+00  0.00000000000E+00 -0.22296533998E+03  0.25561056877E+03  0.12499287994E+03 0.  0.
    9000005    1    3    3    0    0  0.14640985035E+02  0.58099839127E+02 -0.14776949815E+03  0.15945775094E+03  0.10000000000E+01 0.  0.
    9000005    1    3    3    0    0 -0.14640985035E+02 -0.58099839127E+02 -0.75195841828E+02  0.96152817835E+02  0.10000000000E+01 0.  0.
<mgrwt>
<rscale>  0 0.12499288E+03</rscale>
<asrwt>0</asrwt>
<pdfrwt beam="2">  1        4 0.36813529E-01 0.12499288E+03</pdfrwt>
<pdfrwt beam="1">  1       -4 0.25111716E-02 0.12499288E+03</pdfrwt>
<totfact> 0.81538956E+03</totfact>
</mgrwt>
</event>
<event>
 5    1  0.3304582E-002  0.1250026E+03  0.7818608E-02  0.1235065E+00
         -4   -1    0    0    0  501 -0.00000000000E+00  0.00000000000E+00  0.19001282978E+03  0.19001707392E+03  0.12700000000E+01 0.  1.
          4   -1    0    0  501    0  0.00000000000E+00 -0.00000000000E+00 -0.20534584893E+02  0.20573820178E+02  0.12700000000E+01 0.  1.
         25    2    1    2    0    0  0.00000000000E+00  0.00000000000E+00  0.16947824489E+03  0.21059089410E+03  0.12500259672E+03 0.  0.
    9000005    1    3    3    0    0 -0.54503170978E+02 -0.23698609168E+02  0.52193914552E+02  0.79103883846E+02  0.10000000000E+01 0.  0.
    9000005    1    3    3    0    0  0.54503170978E+02  0.23698609168E+02  0.11728433033E+03  0.13148701025E+03  0.10000000000E+01 0.  0.
<mgrwt>
<rscale>  0 0.12500260E+03</rscale>
<asrwt>0</asrwt>
<pdfrwt beam="2">  1        4 0.31625113E-02 0.12500260E+03</pdfrwt>
<pdfrwt beam="1">  1       -4 0.29236090E-01 0.12500260E+03</pdfrwt>
<totfact> 0.88374338E+03</totfact>
</mgrwt>
</event>
<event>
 5    1  0.3304582E-002  0.1250020E+03  0.7818608E-02  0.1235066E+00
          4   -1    0    0  501    0  0.00000000000E+00  0.00000000000E+00  0.72733684320E+03  0.72733795197E+03  0.12700000000E+01 0. -1.
         -4   -1    0    0    0  501 -0.00000000000E+00 -0.00000000000E+00 -0.52945823784E+01  0.54447683662E+01  0.12700000000E+01 0. -1.
         25    2    1    2    0    0  0.00000000000E+00  0.00000000000E+00  0.72204226082E+03  0.73278272033E+03  0.12500195523E+03 0.  0.
    9000005    1    3    3    0    0  0.32919788871E+02  0.45975198904E+02  0.51699680817E+03  0.52008088897E+03  0.10000000000E+01 0.  0.
    9000005    1    3    3    0    0 -0.32919788871E+02 -0.45975198904E+02  0.20504545265E+03  0.21270183136E+03  0.10000000000E+01 0.  0.
<mgrwt>
<rscale>  0 0.12500196E+03</rscale>
<asrwt>0</asrwt>
<pdfrwt beam="1">  1        4 0.11190969E+00 0.12500196E+03</pdfrwt>
<pdfrwt beam="2">  1       -4 0.82618864E-03 0.12500196E+03</pdfrwt>
<totfact> 0.41409693E+03</totfact>
</mgrwt>
</event>
<event>
 5    1  0.3304582E-002  0.1250128E+03  0.7818608E-02  0.1235049E+00
         -4   -1    0    0    0  501 -0.00000000000E+00  0.00000000000E+00  0.17161554885E+02  0.17208482387E+02  0.12700000000E+01 0.  1.
          4   -1    0    0  501    0  0.00000000000E+00 -0.00000000000E+00 -0.22730333341E+03  0.22730688129E+03  0.12700000000E+01 0.  1.
         25    2    1    2    0    0  0.00000000000E+00  0.00000000000E+00 -0.21014177853E+03  0.24451536368E+03  0.12501278331E+03 0.  0.
    9000005    1    3    3    0    0 -0.11273748164E+02  0.52997728559E+02 -0.44147977101E+02  0.69899216821E+02  0.10000000000E+01 0.  0.
    9000005    1    3    3    0    0  0.11273748164E+02 -0.52997728559E+02 -0.16599380143E+03  0.17461614686E+03  0.10000000000E+01 0.  0.
<mgrwt>
<rscale>  0 0.12501278E+03</rscale>
<asrwt>0</asrwt>
<pdfrwt beam="2">  1        4 0.34973624E-01 0.12501278E+03</pdfrwt>
<pdfrwt beam="1">  1       -4 0.26441221E-02 0.12501278E+03</pdfrwt>
<totfact> 0.83105770E+03</totfact>
</mgrwt>
</event>
<event>
 5    1  0.3304582E-002  0.1250047E+03  0.7818608E-02  0.1235062E+00
         -4   -1    0    0    0  501 -0.00000000000E+00  0.00000000000E+00  0.23227081810E+03  0.23227429010E+03  0.12700000000E+01 0.  1.
          4   -1    0    0  501    0  0.00000000000E+00 -0.00000000000E+00 -0.16791328194E+02  0.16839287471E+02  0.12700000000E+01 0.  1.
         25    2    1    2    0    0  0.00000000000E+00  0.00000000000E+00  0.21547948991E+03  0.24911357757E+03  0.12500465575E+03 0.  0.
    9000005    1    3    3    0    0 -0.57218952511E+02 -0.23673583225E+02  0.90936721126E+02  0.11002242643E+03  0.10000000000E+01 0.  0.
    9000005    1    3    3    0    0  0.57218952511E+02  0.23673583225E+02  0.12454276879E+03  0.13909115114E+03  0.10000000000E+01 0.  0.
<mgrwt>
<rscale>  0 0.12500466E+03</rscale>
<asrwt>0</asrwt>
<pdfrwt beam="2">  1        4 0.25872374E-02 0.12500466E+03</pdfrwt>
<pdfrwt beam="1">  1       -4 0.35737930E-01 0.12500466E+03</pdfrwt>
<totfact> 0.82449958E+03</totfact>
</mgrwt>
</event>
<event>
 5    1  0.3304582E-002  0.1250040E+03  0.7818608E-02  0.1235063E+00
         -4   -1    0    0    0  501 -0.00000000000E+00  0.00000000000E+00  0.94296970353E+03  0.94297055875E+03  0.12700000000E+01 0. -1.
          4   -1    0    0  501    0  0.00000000000E+00 -0.00000000000E+00 -0.40445550138E+01  0.42392599896E+01  0.12700000000E+01 0. -1.
         25    2    1    2    0    0  0.00000000000E+00  0.00000000000E+00  0.93892514851E+03  0.94720981874E+03  0.12500402476E+03 0.  0.
    9000005    1    3    3    0    0 -0.22146094381E+02  0.58142517796E+02  0.42495543026E+03  0.42948704238E+03  0.10000000000E+01 0.  0.
    9000005    1    3    3    0    0  0.22146094381E+02 -0.58142517796E+02  0.51396971826E+03  0.51772277635E+03  0.10000000000E+01 0.  0.
<mgrwt>
<rscale>  0 0.12500402E+03</rscale>
<asrwt>0</asrwt>
<pdfrwt beam="2">  1        4 0.63728279E-03 0.12500402E+03</pdfrwt>
<pdfrwt beam="1">  1       -4 0.14508720E+00 0.12500402E+03</pdfrwt>
<totfact> 0.32412417E+03</totfact>
</mgrwt>
</event>
<event>
 5    1  0.3304582E-002  0.1249975E+03  0.7818608E-02  0.1235073E+00
          4   -1    0    0  501    0  0.00000000000E+00  0.00000000000E+00  0.72890417755E+01  0.73988532899E+01  0.12700000000E+01 0.  1.
         -4   -1    0    0    0  501 -0.00000000000E+00 -0.00000000000E+00 -0.53176840694E+03  0.53176992348E+03  0.12700000000E+01 0.  1.
         25    2    1    2    0    0  0.00000000000E+00  0.00000000000E+00 -0.52447936516E+03  0.53916877677E+03  0.12499746142E+03 0.  0.
    9000005    1    3    3    0    0 -0.59243924601E+02  0.19423984401E+02 -0.28051846670E+03  0.28736517523E+03  0.10000000000E+01 0.  0.
    9000005    1    3    3    0    0  0.59243924601E+02 -0.19423984401E+02 -0.24396089846E+03  0.25180360154E+03  0.10000000000E+01 0.  0.
<mgrwt>
<rscale>  0 0.12499746E+03</rscale>
<asrwt>0</asrwt>
<pdfrwt beam="1">  1        4 0.11299552E-02 0.12499746E+03</pdfrwt>
<pdfrwt beam="2">  1       -4 0.81819057E-01 0.12499746E+03</pdfrwt>
<totfact> 0.52951431E+03</totfact>
</mgrwt>
</event>
<event>
 5    1  0.3304582E-002  0.1250011E+03  0.7818608E-02  0.1235068E+00
          4   -1    0    0  501    0  0.00000000000E+00  0.00000000000E+00  0.39299473617E+03  0.39299678822E+03  0.12700000000E+01 0.  1.
         -4   -1    0    0    0  501 -0.00000000000E+00 -0.00000000000E+00 -0.98972150078E+01  0.99783648415E+01  0.12700000000E+01 0.  1.
         25    2    1    2    0    0  0.00000000000E+00  0.00000000000E+00  0.38309752116E+03  0.40297515307E+03  0.12500105308E+03 0.  0.
    9000005    1    3    3    0    0  0.22686700697E+02 -0.41750264751E+02  0.60695901424E+02  0.77089321212E+02  0.10000000000E+01 0.  0.
    9000005    1    3    3    0    0 -0.22686700697E+02  0.41750264751E+02  0.32240161974E+03  0.32588583185E+03  0.10000000000E+01 0.  0.
<mgrwt>
<rscale>  0 0.12500105E+03</rscale>
<asrwt>0</asrwt>
<pdfrwt beam="1">  1        4 0.60467129E-01 0.12500105E+03</pdfrwt>
<pdfrwt beam="2">  1       -4 0.15290486E-02 0.12500105E+03</pdfrwt>
<totfact> 0.64262958E+03</totfact>
</mgrwt>
</event>
<event>
 5    1  0.3304582E-002  0.1250069E+03  0.7818608E-02  0.1235059E+00
          4   -1    0    0  501    0  0.00000000000E+00  0.00000000000E+00  0.96154030528E+03  0.96154114399E+03  0.12700000000E+01 0.  1.
         -4   -1    0    0    0  501 -0.00000000000E+00 -0.00000000000E+00 -0.39628328359E+01  0.41613632484E+01  0.12700000000E+01 0.  1.
         25    2    1    2    0    0  0.00000000000E+00  0.00000000000E+00  0.95757747245E+03  0.96570250724E+03  0.12500686680E+03 0.  0.
    9000005    1    3    3    0    0  0.56186322385E+02 -0.20634835068E+02  0.33995427888E+03  0.34518489389E+03  0.10000000000E+01 0.  0.
    9000005    1    3    3    0    0 -0.56186322385E+02  0.20634835068E+02  0.61762319357E+03  0.62051761335E+03  0.10000000000E+01 0.  0.
<mgrwt>
<rscale>  0 0.12500687E+03</rscale>
<asrwt>0</asrwt>
<pdfrwt beam="1">  1        4 0.14794492E+00 0.12500687E+03</pdfrwt>
<pdfrwt beam="2">  1       -4 0.62500140E-03 0.12500687E+03</pdfrwt>
<totfact> 0.31760122E+03</totfact>
</mgrwt>
</event>
<event>
 5    1  0.3304582E-002  0.1249964E+03  0.7818608E-02  0.1235075E+00
          4   -1    0    0  501    0  0.00000000000E+00  0.00000000000E+00  0.62168785416E+03  0.62168915135E+03  0.12700000000E+01 0.  1.
         -4   -1    0    0    0  501 -0.00000000000E+00 -0.00000000000E+00 -0.62174456127E+01  0.63458277590E+01  0.12700000000E+01 0.  1.
         25    2    1    2    0    0  0.00000000000E+00  0.00000000000E+00  0.61547040855E+03  0.62803497911E+03  0.12499644471E+03 0.  0.
    9000005    1    3    3    0    0  0.17881459042E+02 -0.58875138327E+02  0.36254502594E+03  0.36773077696E+03  0.10000000000E+01 0.  0.
    9000005    1    3    3    0    0 -0.17881459042E+02  0.58875138327E+02  0.25292538261E+03  0.26030420215E+03  0.10000000000E+01 0.  0.
<mgrwt>
<rscale>  0 0.12499644E+03</rscale>
<asrwt>0</asrwt>
<pdfrwt beam="1">  1        4 0.95654281E-01 0.12499644E+03</pdfrwt>
<pdfrwt beam="2">  1       -4 0.96650522E-03 0.12499644E+03</pdfrwt>
<totfact> 0.47148132E+03</totfact>
</mgrwt>
</event>
<event>
 5    1  0.3304582E-002  0.1249996E+03  0.7818608E-02  0.1235070E+00
         -4   -1    0    0    0  501 -0.00000000000E+00  0.00000000000E+00  0.10599509092E+02  0.10675321681E+02  0.12700000000E+01 0. -1.
          4   -1    0    0  501    0  0.00000000000E+00 -0.00000000000E+00 -0.36713896622E+03  0.36714116279E+03  0.12700000000E+01 0. -1.
         25    2    1    2    0    0  0.00000000000E+00  0.00000000000E+00 -0.35653945712E+03  0.37781648447E+03  0.12499964580E+03 0.  0.
    9000005    1    3    3    0    0 -0.61081137411E+02  0.10547501900E+02 -0.20227424142E+03  0.21156092240E+03  0.10000000000E+01 0.  0.
    9000005    1    3    3    0    0  0.61081137411E+02 -0.10547501900E+02 -0.15426521571E+03  0.16625556207E+03  0.10000000000E+01 0.  0.
<mgrwt>
<rscale>  0 0.12499965E+03</rscale>
<asrwt>0</asrwt>
<pdfrwt beam="2">  1        4 0.56488909E-01 0.12499965E+03</pdfrwt>
<pdfrwt beam="1">  1       -4 0.16366947E-02 0.12499965E+03</pdfrwt>
<totfact> 0.66769565E+03</totfact>
</mgrwt>
</event>
<event>
 5    1  0.3304582E-002  0.1249981E+03  0.7818608E-02  0.1235072E+00
          4   -1    0    0  501    0  0.00000000000E+00  0.00000000000E+00  0.12749147791E+04  0.12749154117E+04  0.12700000000E+01 0. -1.
         -4   -1    0    0    0  501 -0.00000000000E+00 -0.00000000000E+00 -0.29315667534E+01  0.31948370271E+01  0.12700000000E+01 0. -1.
         25    2    1    2    0    0  0.00000000000E+00  0.00000000000E+00  0.12719832124E+04  0.12781102487E+04  0.12499806113E+03 0.  0.
    9000005    1    3    3    0    0  0.29904569232E+02  0.29040489416E+02  0.15995083898E+03  0.16529641308E+03  0.10000000000E+01 0.  0.
    9000005    1    3    3    0    0 -0.29904569232E+02 -0.29040489416E+02  0.11120323734E+04  0.11128138356E+04  0.10000000000E+01 0.  0.
<mgrwt>
<rscale>  0 0.12499806E+03</rscale>
<asrwt>0</asrwt>
<pdfrwt beam="1">  1        4 0.19616076E+00 0.12499806E+03</pdfrwt>
<pdfrwt beam="2">  1       -4 0.47131115E-03 0.12499806E+03</pdfrwt>
<totfact> 0.22752127E+03</totfact>
</mgrwt>
</event>
<event>
 5    1  0.3304582E-002  0.1250008E+03  0.7818608E-02  0.1235068E+00
          4   -1    0    0  501    0  0.00000000000E+00  0.00000000000E+00  0.18913278941E+03  0.18913705330E+03  0.12700000000E+01 0.  1.
         -4   -1    0    0    0  501 -0.00000000000E+00 -0.00000000000E+00 -0.20629713333E+02  0.20668768038E+02  0.12700000000E+01 0.  1.
         25    2    1    2    0    0  0.00000000000E+00  0.00000000000E+00  0.16850307608E+03  0.20980582134E+03  0.12500078407E+03 0.  0.
    9000005    1    3    3    0    0 -0.39704980351E+01  0.15327087923E+02  0.18571871674E+03  0.18639508102E+03  0.10000000000E+01 0.  0.
    9000005    1    3    3    0    0  0.39704980351E+01 -0.15327087923E+02 -0.17215640664E+02  0.23410740320E+02  0.10000000000E+01 0.  0.
<mgrwt>
<rscale>  0 0.12500078E+03</rscale>
<asrwt>0</asrwt>
<pdfrwt beam="1">  1        4 0.29100684E-01 0.12500078E+03</pdfrwt>
<pdfrwt beam="2">  1       -4 0.31771343E-02 0.12500078E+03</pdfrwt>
<totfact> 0.88506051E+03</totfact>
</mgrwt>
</event>
<event>
 5    1  0.3304582E-002  0.1249994E+03  0.7818608E-02  0.1235070E+00
          4   -1    0    0  501    0  0.00000000000E+00  0.00000000000E+00  0.25087966200E+02  0.25120090526E+02  0.12700000000E+01 0.  1.
         -4   -1    0    0    0  501 -0.00000000000E+00 -0.00000000000E+00 -0.15556618187E+03  0.15557136575E+03  0.12700000000E+01 0.  1.
         25    2    1    2    0    0  0.00000000000E+00  0.00000000000E+00 -0.13047821567E+03  0.18069145628E+03  0.12499935043E+03 0.  0.
    9000005    1    3    3    0    0  0.38135306491E+02 -0.23431372773E+02 -0.21983748017E+01  0.44823695552E+02  0.10000000000E+01 0.  0.
    9000005    1    3    3    0    0 -0.38135306491E+02  0.23431372773E+02 -0.12827984087E+03  0.13586776073E+03  0.10000000000E+01 0.  0.
<mgrwt>
<rscale>  0 0.12499935E+03</rscale>
<asrwt>0</asrwt>
<pdfrwt beam="1">  1        4 0.38625571E-02 0.12499935E+03</pdfrwt>
<pdfrwt beam="2">  1       -4 0.23936128E-01 0.12499935E+03</pdfrwt>
<totfact> 0.93494049E+03</totfact>
</mgrwt>
</event>
<event>
 5    1  0.3304582E-002  0.1250093E+03  0.7818608E-02  0.1235055E+00
          4   -1    0    0  501    0  0.00000000000E+00  0.00000000000E+00  0.24500128912E+03  0.24500458071E+03  0.12700000000E+01 0. -1.
         -4   -1    0    0    0  501 -0.00000000000E+00 -0.00000000000E+00 -0.15917473927E+02  0.15968057998E+02  0.12700000000E+01 0. -1.
         25    2    1    2    0    0  0.00000000000E+00  0.00000000000E+00  0.22908381519E+03  0.26097263871E+03  0.12500929475E+03 0.  0.
    9000005    1    3    3    0    0 -0.26601413595E+02 -0.14215273862E+02  0.22881195267E+03  0.23079345507E+03  0.10000000000E+01 0.  0.
    9000005    1    3    3    0    0  0.26601413595E+02  0.14215273862E+02  0.27186252011E+00  0.30179183644E+02  0.10000000000E+01 0.  0.
<mgrwt>
<rscale>  0 0.12500929E+03</rscale>
<asrwt>0</asrwt>
<pdfrwt beam="1">  1        4 0.37696652E-01 0.12500929E+03</pdfrwt>
<pdfrwt beam="2">  1       -4 0.24529863E-02 0.12500929E+03</pdfrwt>
<totfact> 0.80753048E+03</totfact>
</mgrwt>
</event>
<event>
 5    1  0.3304582E-002  0.1249983E+03  0.7818608E-02  0.1235072E+00
          4   -1    0    0  501    0  0.00000000000E+00  0.00000000000E+00  0.98023428575E+01  0.98842716220E+01  0.12700000000E+01 0.  1.
         -4   -1    0    0    0  501 -0.00000000000E+00 -0.00000000000E+00 -0.39674970380E+03  0.39675173644E+03  0.12700000000E+01 0.  1.
         25    2    1    2    0    0  0.00000000000E+00  0.00000000000E+00 -0.38694736094E+03  0.40663600806E+03  0.12499833163E+03 0.  0.
    9000005    1    3    3    0    0  0.42001205154E+02  0.43143764445E+02 -0.24787592993E+03  0.25508618599E+03  0.10000000000E+01 0.  0.
    9000005    1    3    3    0    0 -0.42001205154E+02 -0.43143764445E+02 -0.13907143101E+03  0.15154982207E+03  0.10000000000E+01 0.  0.
<mgrwt>
<rscale>  0 0.12499833E+03</rscale>
<asrwt>0</asrwt>
<pdfrwt beam="1">  1        4 0.15145116E-02 0.12499833E+03</pdfrwt>
<pdfrwt beam="2">  1       -4 0.61044862E-01 0.12499833E+03</pdfrwt>
<totfact> 0.63914815E+03</totfact>
</mgrwt>
</event>
<event>
 5    1  0.3304582E-002  0.1250000E+03  0.7818608E-02  0.1235069E+00
          4   -1    0    0  501    0  0.00000000000E+00  0.00000000000E+00  0.14344744564E+03  0.14345306744E+03  0.12700000000E+01 0. -1.
         -4   -1    0    0    0  501 -0.00000000000E+00 -0.00000000000E+00 -0.27210248337E+02  0.27239869943E+02  0.12700000000E+01 0. -1.
         25    2    1    2    0    0  0.00000000000E+00  0.00000000000E+00  0.11623719730E+03  0.17069293739E+03  0.12499997135E+03 0.  0.
    9000005    1    3    3    0    0  0.71376360626E+01 -0.22476934809E+02 -0.20907225264E+02  0.31532055359E+02  0.10000000000E+01 0.  0.
    9000005    1    3    3    0    0 -0.71376360626E+01  0.22476934809E+02  0.13714442256E+03  0.13916088203E+03  0.10000000000E+01 0.  0.
<mgrwt>
<rscale>  0 0.12499997E+03</rscale>
<asrwt>0</asrwt>
<pdfrwt beam="1">  1        4 0.22071549E-01 0.12499997E+03</pdfrwt>
<pdfrwt beam="2">  1       -4 0.41889031E-02 0.12499997E+03</pdfrwt>
<totfact> 0.95319701E+03</totfact>
</mgrwt>
</event>
<event>
 5    1  0.3304582E-002  0.1250029E+03  0.7818608E-02  0.1235065E+00
          4   -1    0    0  501    0  0.00000000000E+00  0.00000000000E+00  0.16855329398E+03  0.16855807845E+03  0.12700000000E+01 0. -1.
         -4   -1    0    0    0  501 -0.00000000000E+00 -0.00000000000E+00 -0.23153720518E+02  0.23188524616E+02  0.12700000000E+01 0. -1.
         25    2    1    2    0    0  0.00000000000E+00  0.00000000000E+00  0.14539957346E+03  0.19174660307E+03  0.12500289527E+03 0.  0.
    9000005    1    3    3    0    0  0.57868879630E+02  0.20134435466E+02  0.91563363709E+02  0.11017736744E+03  0.10000000000E+01 0.  0.
    9000005    1    3    3    0    0 -0.57868879630E+02 -0.20134435466E+02  0.53836209752E+02  0.81569235633E+02  0.10000000000E+01 0.  0.
<mgrwt>
<rscale>  0 0.12500290E+03</rscale>
<asrwt>0</asrwt>
<pdfrwt beam="1">  1        4 0.25934320E-01 0.12500290E+03</pdfrwt>
<pdfrwt beam="2">  1       -4 0.35651563E-02 0.12500290E+03</pdfrwt>
<totfact> 0.91538362E+03</totfact>
</mgrwt>
</event>
<event>
 5    1  0.3304582E-002  0.1249749E+03  0.7818608E-02  0.1235109E+00
          4   -1    0    0  501    0  0.00000000000E+00  0.00000000000E+00  0.11815135307E+02  0.11883194955E+02  0.12700000000E+01 0. -1.
         -4   -1    0    0    0  501 -0.00000000000E+00 -0.00000000000E+00 -0.32946278519E+03  0.32946523296E+03  0.12700000000E+01 0. -1.
         25    2    1    2    0    0  0.00000000000E+00  0.00000000000E+00 -0.31764764988E+03  0.34134842791E+03  0.12497487651E+03 0.  0.
    9000005    1    3    3    0    0  0.13752908266E+02 -0.60797074576E+02 -0.17049311472E+03  0.18153327224E+03  0.10000000000E+01 0.  0.
    9000005    1    3    3    0    0 -0.13752908266E+02  0.60797074576E+02 -0.14715453516E+03  0.15981515567E+03  0.10000000000E+01 0.  0.
<mgrwt>
<rscale>  0 0.12497488E+03</rscale>
<asrwt>0</asrwt>
<pdfrwt beam="1">  1        4 0.18231370E-02 0.12497488E+03</pdfrwt>
<pdfrwt beam="2">  1       -4 0.50691999E-01 0.12497488E+03</pdfrwt>
<totfact> 0.70726277E+03</totfact>
</mgrwt>
</event>
<event>
 5    1  0.3304582E-002  0.1250000E+03  0.7818608E-02  0.1235069E+00
          4   -1    0    0  501    0  0.00000000000E+00  0.00000000000E+00  0.52565979321E+02  0.52581318754E+02  0.12700000000E+01 0. -1.
         -4   -1    0    0    0  501 -0.00000000000E+00 -0.00000000000E+00 -0.74279706387E+02  0.74290562529E+02  0.12700000000E+01 0. -1.
         25    2    1    2    0    0  0.00000000000E+00  0.00000000000E+00 -0.21713727066E+02  0.12687188128E+03  0.12499995327E+03 0.  0.
    9000005    1    3    3    0    0 -0.35980137948E+02 -0.46181392862E+02  0.11332730381E+02  0.59638260801E+02  0.10000000000E+01 0.  0.
    9000005    1    3    3    0    0  0.35980137948E+02  0.46181392862E+02 -0.33046457447E+02  0.67233620483E+02  0.10000000000E+01 0.  0.
<mgrwt>
<rscale>  0 0.12499995E+03</rscale>
<asrwt>0</asrwt>
<pdfrwt beam="1">  1        4 0.80890888E-02 0.12499995E+03</pdfrwt>
<pdfrwt beam="2">  1       -4 0.11429662E-01 0.12499995E+03</pdfrwt>
<totfact> 0.10411941E+04</totfact>
</mgrwt>
</event>
<event>
 5    1  0.3304582E-002  0.1250023E+03  0.7818608E-02  0.1235066E+00
          4   -1    0    0  501    0  0.00000000000E+00  0.00000000000E+00  0.16716512911E+02  0.16764686215E+02  0.12700000000E+01 0. -1.
         -4   -1    0    0    0  501 -0.00000000000E+00 -0.00000000000E+00 -0.23329858667E+03  0.23330204337E+03  0.12700000000E+01 0. -1.
         25    2    1    2    0    0  0.00000000000E+00  0.00000000000E+00 -0.21658207376E+03  0.25006672958E+03  0.12500229827E+03 0.  0.
    9000005    1    3    3    0    0 -0.22687047196E+02 -0.35745167770E+02 -0.20024809010E+03  0.20467710355E+03  0.10000000000E+01 0.  0.
    9000005    1    3    3    0    0  0.22687047196E+02  0.35745167770E+02 -0.16333983656E+02  0.45389626034E+02  0.10000000000E+01 0.  0.
<mgrwt>
<rscale>  0 0.12500230E+03</rscale>
<asrwt>0</asrwt>
<pdfrwt beam="1">  1        4 0.25757429E-02 0.12500230E+03</pdfrwt>
<pdfrwt beam="2">  1       -4 0.35896059E-01 0.12500230E+03</pdfrwt>
<totfact> 0.82316371E+03</totfact>
</mgrwt>
</event>
<event>
 5    1  0.3304582E-002  0.1250033E+03  0.7818608E-02  0.1235064E+00
          4   -1    0    0  501    0  0.00000000000E+00  0.00000000000E+00  0.24345726219E+03  0.24346057466E+03  0.12700000000E+01 0.  1.
         -4   -1    0    0    0  501 -0.00000000000E+00 -0.00000000000E+00 -0.16017201096E+02  0.16067471206E+02  0.12700000000E+01 0.  1.
         25    2    1    2    0    0  0.00000000000E+00  0.00000000000E+00  0.22744006110E+03  0.25952804587E+03  0.12500330076E+03 0.  0.
    9000005    1    3    3    0    0 -0.38680542726E+02 -0.26136464130E+02  0.19997874522E+03  0.20535773100E+03  0.10000000000E+01 0.  0.
    9000005    1    3    3    0    0  0.38680542726E+02  0.26136464130E+02  0.27461315874E+02  0.54170314863E+02  0.10000000000E+01 0.  0.
<mgrwt>
<rscale>  0 0.12500330E+03</rscale>
<asrwt>0</asrwt>
<pdfrwt beam="1">  1        4 0.37459082E-01 0.12500330E+03</pdfrwt>
<pdfrwt beam="2">  1       -4 0.24683067E-02 0.12500330E+03</pdfrwt>
<totfact> 0.80966391E+03</totfact>
</mgrwt>
</event>
<event>
 5    1  0.3304582E-002  0.1250029E+03  0.7818608E-02  0.1235065E+00
          4   -1    0    0  501    0  0.00000000000E+00  0.00000000000E+00  0.10267120986E+03  0.10267906425E+03  0.12700000000E+01 0. -1.
         -4   -1    0    0    0  501 -0.00000000000E+00 -0.00000000000E+00 -0.38028076993E+02  0.38049277783E+02  0.12700000000E+01 0. -1.
         25    2    1    2    0    0  0.00000000000E+00  0.00000000000E+00  0.64643132871E+02  0.14072834203E+03  0.12500292646E+03 0.  0.
    9000005    1    3    3    0    0 -0.76460369176E+01  0.55866893046E+02  0.62652669711E+02  0.84296670403E+02  0.10000000000E+01 0.  0.
    9000005    1    3    3    0    0  0.76460369176E+01 -0.55866893046E+02  0.19904631600E+01  0.56431671628E+02  0.10000000000E+01 0.  0.
<mgrwt>
<rscale>  0 0.12500293E+03</rscale>
<asrwt>0</asrwt>
<pdfrwt beam="1">  1        4 0.15797806E-01 0.12500293E+03</pdfrwt>
<pdfrwt beam="2">  1       -4 0.58527084E-02 0.12500293E+03</pdfrwt>
<totfact> 0.10117846E+04</totfact>
</mgrwt>
</event>
<event>
 5    1  0.3304582E-002  0.1249920E+03  0.7818608E-02  0.1235082E+00
         -4   -1    0    0    0  501 -0.00000000000E+00  0.00000000000E+00  0.50784924645E+02  0.50800801876E+02  0.12700000000E+01 0. -1.
          4   -1    0    0  501    0  0.00000000000E+00 -0.00000000000E+00 -0.76874489603E+02  0.76884979364E+02  0.12700000000E+01 0. -1.
         25    2    1    2    0    0  0.00000000000E+00  0.00000000000E+00 -0.26089564958E+02  0.12768578124E+03  0.12499197307E+03 0.  0.
    9000005    1    3    3    0    0 -0.26560913062E+02 -0.37871242904E+02 -0.55962547605E+02  0.72612119349E+02  0.10000000000E+01 0.  0.
    9000005    1    3    3    0    0  0.26560913062E+02  0.37871242904E+02  0.29872982648E+02  0.55073661891E+02  0.10000000000E+01 0.  0.
<mgrwt>
<rscale>  0 0.12499197E+03</rscale>
<asrwt>0</asrwt>
<pdfrwt beam="2">  1        4 0.11828873E-01 0.12499197E+03</pdfrwt>
<pdfrwt beam="1">  1       -4 0.78150935E-02 0.12499197E+03</pdfrwt>
<totfact> 0.10396163E+04</totfact>
</mgrwt>
</event>
<event>
 5    1  0.3304582E-002  0.1250012E+03  0.7818608E-02  0.1235067E+00
          4   -1    0    0  501    0  0.00000000000E+00  0.00000000000E+00  0.52041417670E+02  0.52056911674E+02  0.12700000000E+01 0.  1.
         -4   -1    0    0    0  501 -0.00000000000E+00 -0.00000000000E+00 -0.75029847406E+02  0.75040595026E+02  0.12700000000E+01 0.  1.
         25    2    1    2    0    0  0.00000000000E+00  0.00000000000E+00 -0.22988429737E+02  0.12709750670E+03  0.12500123322E+03 0.  0.
    9000005    1    3    3    0    0  0.92618053516E+01  0.61763609831E+02 -0.92659942192E+01  0.63145729757E+02  0.10000000000E+01 0.  0.
    9000005    1    3    3    0    0 -0.92618053516E+01 -0.61763609831E+02 -0.13722435517E+02  0.63951776943E+02  0.10000000000E+01 0.  0.
<mgrwt>
<rscale>  0 0.12500123E+03</rscale>
<asrwt>0</asrwt>
<pdfrwt beam="1">  1        4 0.80083906E-02 0.12500123E+03</pdfrwt>
<pdfrwt beam="2">  1       -4 0.11545072E-01 0.12500123E+03</pdfrwt>
<totfact> 0.10406738E+04</totfact>
</mgrwt>
</event>
<event>
 5    1  0.3304582E-002  0.1250070E+03  0.7818608E-02  0.1235058E+00
          4   -1    0    0  501    0  0.00000000000E+00  0.00000000000E+00  0.12697325402E+02  0.12760680717E+02  0.12700000000E+01 0. -1.
         -4   -1    0    0    0  501 -0.00000000000E+00 -0.00000000000E+00 -0.30684765507E+03  0.30685028324E+03  0.12700000000E+01 0. -1.
         25    2    1    2    0    0  0.00000000000E+00  0.00000000000E+00 -0.29415032967E+03  0.31961096395E+03  0.12500700714E+03 0.  0.
    9000005    1    3    3    0    0  0.68593549774E+01 -0.61796516674E+02 -0.13093975073E+03  0.14495543641E+03  0.10000000000E+01 0.  0.
    9000005    1    3    3    0    0 -0.68593549774E+01  0.61796516674E+02 -0.16321057894E+03  0.17465552755E+03  0.10000000000E+01 0.  0.
<mgrwt>
<rscale>  0 0.12500701E+03</rscale>
<asrwt>0</asrwt>
<pdfrwt beam="1">  1        4 0.19585106E-02 0.12500701E+03</pdfrwt>
<pdfrwt beam="2">  1       -4 0.47212402E-01 0.12500701E+03</pdfrwt>
<totfact> 0.73191052E+03</totfact>
</mgrwt>
</event>
<event>
 5    1  0.3304582E-002  0.1250081E+03  0.7818608E-02  0.1235057E+00
          4   -1    0    0  501    0  0.00000000000E+00  0.00000000000E+00  0.24196506695E+02  0.24229812963E+02  0.12700000000E+01 0. -1.
         -4   -1    0    0    0  501 -0.00000000000E+00 -0.00000000000E+00 -0.16131277191E+03  0.16131777112E+03  0.12700000000E+01 0. -1.
         25    2    1    2    0    0  0.00000000000E+00  0.00000000000E+00 -0.13711626521E+03  0.18554758409E+03  0.12500814283E+03 0.  0.
    9000005    1    3    3    0    0 -0.35152738908E+02  0.35962559801E+02 -0.12363163289E+03  0.13347209975E+03  0.10000000000E+01 0.  0.
    9000005    1    3    3    0    0  0.35152738908E+02 -0.35962559801E+02 -0.13484632323E+02  0.52075484339E+02  0.10000000000E+01 0.  0.
<mgrwt>
<rscale>  0 0.12500814E+03</rscale>
<asrwt>0</asrwt>
<pdfrwt beam="1">  1        4 0.37254862E-02 0.12500814E+03</pdfrwt>
<pdfrwt beam="2">  1       -4 0.24820295E-01 0.12500814E+03</pdfrwt>
<totfact> 0.92610944E+03</totfact>
</mgrwt>
</event>
<event>
 5    1  0.3304582E-002  0.1250013E+03  0.7818608E-02  0.1235067E+00
          4   -1    0    0  501    0  0.00000000000E+00  0.00000000000E+00  0.92130962995E+02  0.92139715880E+02  0.12700000000E+01 0.  1.
         -4   -1    0    0    0  501 -0.00000000000E+00 -0.00000000000E+00 -0.42379469451E+02  0.42398494442E+02  0.12700000000E+01 0.  1.
         25    2    1    2    0    0  0.00000000000E+00  0.00000000000E+00  0.49751493544E+02  0.13453821032E+03  0.12500127570E+03 0.  0.
    9000005    1    3    3    0    0  0.39587440743E+02  0.29822227048E+02 -0.16091358317E+02  0.52119694005E+02  0.10000000000E+01 0.  0.
    9000005    1    3    3    0    0 -0.39587440743E+02 -0.29822227048E+02  0.65842851861E+02  0.82418516317E+02  0.10000000000E+01 0.  0.
<mgrwt>
<rscale>  0 0.12500128E+03</rscale>
<asrwt>0</asrwt>
<pdfrwt beam="1">  1        4 0.14176131E-01 0.12500128E+03</pdfrwt>
<pdfrwt beam="2">  1       -4 0.65220552E-02 0.12500128E+03</pdfrwt>
<totfact> 0.10247519E+04</totfact>
</mgrwt>
</event>
<event>
 5    1  0.3304582E-002  0.1250015E+03  0.7818608E-02  0.1235067E+00
          4   -1    0    0  501    0  0.00000000000E+00  0.00000000000E+00  0.53872746688E+02  0.53887714144E+02  0.12700000000E+01 0.  1.
         -4   -1    0    0    0  501 -0.00000000000E+00 -0.00000000000E+00 -0.72479918172E+02  0.72491043849E+02  0.12700000000E+01 0.  1.
         25    2    1    2    0    0  0.00000000000E+00  0.00000000000E+00 -0.18607171485E+02  0.12637875799E+03  0.12500145456E+03 0.  0.
    9000005    1    3    3    0    0  0.45718320297E+02 -0.38055494126E+02 -0.28670734888E+02  0.66040869793E+02  0.10000000000E+01 0.  0.
    9000005    1    3    3    0    0 -0.45718320297E+02  0.38055494126E+02  0.10063563404E+02  0.60337888200E+02  0.10000000000E+01 0.  0.
<mgrwt>
<rscale>  0 0.12500145E+03</rscale>
<asrwt>0</asrwt>
<pdfrwt beam="1">  1        4 0.82901220E-02 0.12500145E+03</pdfrwt>
<pdfrwt beam="2">  1       -4 0.11152764E-01 0.12500145E+03</pdfrwt>
<totfact> 0.10422331E+04</totfact>
</mgrwt>
</event>
<event>
 5    1  0.3304582E-002  0.1250001E+03  0.7818608E-02  0.1235069E+00
          4   -1    0    0  501    0  0.00000000000E+00  0.00000000000E+00  0.30763686374E+02  0.30789889563E+02  0.12700000000E+01 0.  1.
         -4   -1    0    0    0  501 -0.00000000000E+00 -0.00000000000E+00 -0.12689287429E+03  0.12689922949E+03  0.12700000000E+01 0.  1.
         25    2    1    2    0    0  0.00000000000E+00  0.00000000000E+00 -0.96129187914E+02  0.15768911905E+03  0.12500014999E+03 0.  0.
    9000005    1    3    3    0    0 -0.26094181475E+02  0.43582161467E+02 -0.21457808590E+01  0.50851897511E+02  0.10000000000E+01 0.  0.
    9000005    1    3    3    0    0  0.26094181475E+02 -0.43582161467E+02 -0.93983407055E+02  0.10683722154E+03  0.10000000000E+01 0.  0.
<mgrwt>
<rscale>  0 0.12500015E+03</rscale>
<asrwt>0</asrwt>
<pdfrwt beam="1">  1        4 0.47353794E-02 0.12500015E+03</pdfrwt>
<pdfrwt beam="2">  1       -4 0.19524485E-01 0.12500015E+03</pdfrwt>
<totfact> 0.97789834E+03</totfact>
</mgrwt>
</event>
<event>
 5    1  0.3304582E-002  0.1249997E+03  0.7818608E-02  0.1235070E+00
         -4   -1    0    0    0  501 -0.00000000000E+00  0.00000000000E+00  0.23505930998E+02  0.23540214360E+02  0.12700000000E+01 0.  1.
          4   -1    0    0  501    0  0.00000000000E+00 -0.00000000000E+00 -0.16602289665E+03  0.16602775404E+03  0.12700000000E+01 0.  1.
         25    2    1    2    0    0  0.00000000000E+00  0.00000000000E+00 -0.14251696565E+03  0.18956796840E+03  0.12499971658E+03 0.  0.
    9000005    1    3    3    0    0 -0.54146985794E+01  0.58529412158E+02 -0.10343721406E+03  0.11897591480E+03  0.10000000000E+01 0.  0.
    9000005    1    3    3    0    0  0.54146985794E+01 -0.58529412158E+02 -0.39079751590E+02  0.70592053608E+02  0.10000000000E+01 0.  0.
<mgrwt>
<rscale>  0 0.12499972E+03</rscale>
<asrwt>0</asrwt>
<pdfrwt beam="2">  1        4 0.25544994E-01 0.12499972E+03</pdfrwt>
<pdfrwt beam="1">  1       -4 0.36193080E-02 0.12499972E+03</pdfrwt>
<totfact> 0.91923125E+03</totfact>
</mgrwt>
</event>
<event>
 5    1  0.3304582E-002  0.1250000E+03  0.7818608E-02  0.1235069E+00
         -4   -1    0    0    0  501 -0.00000000000E+00  0.00000000000E+00  0.29512454905E+03  0.29512728161E+03  0.12700000000E+01 0. -1.
          4   -1    0    0  501    0  0.00000000000E+00 -0.00000000000E+00 -0.13202665015E+02  0.13263606730E+02  0.12700000000E+01 0. -1.
         25    2    1    2    0    0  0.00000000000E+00  0.00000000000E+00  0.28192188404E+03  0.30839088835E+03  0.12499996526E+03 0.  0.
    9000005    1    3    3    0    0  0.34324073860E+02 -0.39838784293E+02  0.57661958945E+02  0.78045962674E+02  0.10000000000E+01 0.  0.
    9000005    1    3    3    0    0 -0.34324073860E+02  0.39838784293E+02  0.22425992509E+03  0.23034492567E+03  0.10000000000E+01 0.  0.
<mgrwt>
<rscale>  0 0.12499997E+03</rscale>
<asrwt>0</asrwt>
<pdfrwt beam="2">  1        4 0.20360773E-02 0.12499997E+03</pdfrwt>
<pdfrwt beam="1">  1       -4 0.45408673E-01 0.12499997E+03</pdfrwt>
<totfact> 0.74558271E+03</totfact>
</mgrwt>
</event>
<event>
 5    1  0.3304582E-002  0.1250001E+03  0.7818608E-02  0.1235069E+00
         -4   -1    0    0    0  501 -0.00000000000E+00  0.00000000000E+00  0.53818763309E+02  0.53833745775E+02  0.12700000000E+01 0.  1.
          4   -1    0    0  501    0  0.00000000000E+00 -0.00000000000E+00 -0.72551084645E+02  0.72562199410E+02  0.12700000000E+01 0.  1.
         25    2    1    2    0    0  0.00000000000E+00  0.00000000000E+00 -0.18732321336E+02  0.12639594518E+03  0.12500014039E+03 0.  0.
    9000005    1    3    3    0    0 -0.22195424465E+01  0.33955627668E+02  0.43634277343E+02  0.55343122230E+02  0.10000000000E+01 0.  0.
    9000005    1    3    3    0    0  0.22195424465E+01 -0.33955627668E+02 -0.62366598679E+02  0.71052822954E+02  0.10000000000E+01 0.  0.
<mgrwt>
<rscale>  0 0.12500014E+03</rscale>
<asrwt>0</asrwt>
<pdfrwt beam="2">  1        4 0.11163713E-01 0.12500014E+03</pdfrwt>
<pdfrwt beam="1">  1       -4 0.82818173E-02 0.12500014E+03</pdfrwt>
<totfact> 0.10422265E+04</totfact>
</mgrwt>
</event>
<event>
 5    1  0.3304582E-002  0.1249954E+03  0.7818608E-02  0.1235076E+00
         -4   -1    0    0    0  501 -0.00000000000E+00  0.00000000000E+00  0.67132363325E+01  0.68323086915E+01  0.12700000000E+01 0. -1.
          4   -1    0    0  501    0  0.00000000000E+00 -0.00000000000E+00 -0.57659566066E+03  0.57659705930E+03  0.12700000000E+01 0. -1.
         25    2    1    2    0    0  0.00000000000E+00  0.00000000000E+00 -0.56988242433E+03  0.58342936799E+03  0.12499539942E+03 0.  0.
    9000005    1    3    3    0    0 -0.41894683486E+02  0.17741113681E+02 -0.48488978531E+03  0.48702054938E+03  0.10000000000E+01 0.  0.
    9000005    1    3    3    0    0  0.41894683486E+02 -0.17741113681E+02 -0.84992639023E+02  0.96408818617E+02  0.10000000000E+01 0.  0.
<mgrwt>
<rscale>  0 0.12499540E+03</rscale>
<asrwt>0</asrwt>
<pdfrwt beam="2">  1        4 0.88716253E-01 0.12499540E+03</pdfrwt>
<pdfrwt beam="1">  1       -4 0.10420730E-02 0.12499540E+03</pdfrwt>
<totfact> 0.49935641E+03</totfact>
</mgrwt>
</event>
<event>
 5    1  0.3304582E-002  0.1250007E+03  0.7818608E-02  0.1235068E+00
         -4   -1    0    0    0  501 -0.00000000000E+00  0.00000000000E+00  0.46000252456E+02  0.46017780542E+02  0.12700000000E+01 0.  1.
          4   -1    0    0  501    0  0.00000000000E+00 -0.00000000000E+00 -0.84880541562E+02  0.84890042030E+02  0.12700000000E+01 0.  1.
         25    2    1    2    0    0  0.00000000000E+00  0.00000000000E+00 -0.38880289106E+02  0.13090782257E+03  0.12500072452E+03 0.  0.
    9000005    1    3    3    0    0  0.42442975438E+02 -0.44665591820E+02 -0.30367503516E+02  0.68699392475E+02  0.10000000000E+01 0.  0.
    9000005    1    3    3    0    0 -0.42442975438E+02  0.44665591820E+02 -0.85127855904E+01  0.62208430097E+02  0.10000000000E+01 0.  0.
<mgrwt>
<rscale>  0 0.12500072E+03</rscale>
<asrwt>0</asrwt>
<pdfrwt beam="2">  1        4 0.13060624E-01 0.12500072E+03</pdfrwt>
<pdfrwt beam="1">  1       -4 0.70790411E-02 0.12500072E+03</pdfrwt>
<totfact> 0.10324897E+04</totfact>
</mgrwt>
</event>
<event>
 5    1  0.3304582E-002  0.1250009E+03  0.7818608E-02  0.1235068E+00
          4   -1    0    0  501    0  0.00000000000E+00  0.00000000000E+00  0.59229187866E+02  0.59242802055E+02  0.12700000000E+01 0. -1.
         -4   -1    0    0    0  501 -0.00000000000E+00 -0.00000000000E+00 -0.65925034332E+02  0.65937266031E+02  0.12700000000E+01 0. -1.
         25    2    1    2    0    0  0.00000000000E+00  0.00000000000E+00 -0.66958464654E+01  0.12518006809E+03  0.12500086034E+03 0.  0.
    9000005    1    3    3    0    0  0.47394071603E+02  0.36846191976E+02  0.14039684237E+02  0.61659975833E+02  0.10000000000E+01 0.  0.
    9000005    1    3    3    0    0 -0.47394071603E+02 -0.36846191976E+02 -0.20735530703E+02  0.63520092253E+02  0.10000000000E+01 0.  0.
<mgrwt>
<rscale>  0 0.12500086E+03</rscale>
<asrwt>0</asrwt>
<pdfrwt beam="1">  1        4 0.91141709E-02 0.12500086E+03</pdfrwt>
<pdfrwt beam="2">  1       -4 0.10144301E-01 0.12500086E+03</pdfrwt>
<totfact> 0.10448750E+04</totfact>
</mgrwt>
</event>
<event>
 5    1  0.3304582E-002  0.1249979E+03  0.7818608E-02  0.1235073E+00
         -4   -1    0    0    0  501 -0.00000000000E+00  0.00000000000E+00  0.10663305005E+04  0.10663312568E+04  0.12700000000E+01 0. -1.
          4   -1    0    0  501    0  0.00000000000E+00 -0.00000000000E+00 -0.35522863382E+01  0.37724843576E+01  0.12700000000E+01 0. -1.
         25    2    1    2    0    0  0.00000000000E+00  0.00000000000E+00  0.10627782142E+04  0.10701037411E+04  0.12499793722E+03 0.  0.
    9000005    1    3    3    0    0 -0.62488461703E+02  0.65929557172E-01  0.53614707314E+03  0.53977726539E+03  0.10000000000E+01 0.  0.
    9000005    1    3    3    0    0  0.62488461703E+02 -0.65929557172E-01  0.52663114102E+03  0.53032647575E+03  0.10000000000E+01 0.  0.
<mgrwt>
<rscale>  0 0.12499794E+03</rscale>
<asrwt>0</asrwt>
<pdfrwt beam="2">  1        4 0.56350248E-03 0.12499794E+03</pdfrwt>
<pdfrwt beam="1">  1       -4 0.16406773E+00 0.12499794E+03</pdfrwt>
<totfact> 0.28376564E+03</totfact>
</mgrwt>
</event>
<event>
 5    1  0.3304582E-002  0.1249978E+03  0.7818608E-02  0.1235073E+00
          4   -1    0    0  501    0  0.00000000000E+00  0.00000000000E+00  0.82642437931E+02  0.82652195658E+02  0.12700000000E+01 0.  1.
         -4   -1    0    0    0  501 -0.00000000000E+00 -0.00000000000E+00 -0.47244103378E+02  0.47261170151E+02  0.12700000000E+01 0.  1.
         25    2    1    2    0    0  0.00000000000E+00  0.00000000000E+00  0.35398334553E+02  0.12991336581E+03  0.12499776209E+03 0.  0.
    9000005    1    3    3    0    0  0.12589051316E+02  0.50530391053E+02 -0.18203558167E+02  0.55174035225E+02  0.10000000000E+01 0.  0.
    9000005    1    3    3    0    0 -0.12589051316E+02 -0.50530391053E+02  0.53601892720E+02  0.74739330584E+02  0.10000000000E+01 0.  0.
<mgrwt>
<rscale>  0 0.12499776E+03</rscale>
<asrwt>0</asrwt>
<pdfrwt beam="1">  1        4 0.12716285E-01 0.12499776E+03</pdfrwt>
<pdfrwt beam="2">  1       -4 0.72703871E-02 0.12499776E+03</pdfrwt>
<totfact> 0.10346884E+04</totfact>
</mgrwt>
</event>
<event>
 5    1  0.3304582E-002  0.1250003E+03  0.7818608E-02  0.1235069E+00
         -4   -1    0    0    0  501 -0.00000000000E+00  0.00000000000E+00  0.14334944627E+03  0.14335507192E+03  0.12700000000E+01 0.  1.
          4   -1    0    0  501    0  0.00000000000E+00 -0.00000000000E+00 -0.27229004693E+02  0.27258605917E+02  0.12700000000E+01 0.  1.
         25    2    1    2    0    0  0.00000000000E+00  0.00000000000E+00  0.11612044158E+03  0.17061367784E+03  0.12500028045E+03 0.  0.
    9000005    1    3    3    0    0  0.45447420753E+02  0.77112866688E+01  0.46933113257E+00  0.46110218682E+02  0.10000000000E+01 0.  0.
    9000005    1    3    3    0    0 -0.45447420753E+02 -0.77112866688E+01  0.11565111044E+03  0.12450345916E+03  0.10000000000E+01 0.  0.
<mgrwt>
<rscale>  0 0.12500028E+03</rscale>
<asrwt>0</asrwt>
<pdfrwt beam="2">  1        4 0.41917874E-02 0.12500028E+03</pdfrwt>
<pdfrwt beam="1">  1       -4 0.22056471E-01 0.12500028E+03</pdfrwt>
<totfact> 0.95333778E+03</totfact>
</mgrwt>
</event>
<event>
 5    1  0.3304582E-002  0.1250022E+03  0.7818608E-02  0.1235066E+00
         -4   -1    0    0    0  501 -0.00000000000E+00  0.00000000000E+00  0.74604070937E+02  0.74614879886E+02  0.12700000000E+01 0.  1.
          4   -1    0    0  501    0  0.00000000000E+00 -0.00000000000E+00 -0.52339266318E+02  0.52354672177E+02  0.12700000000E+01 0.  1.
         25    2    1    2    0    0  0.00000000000E+00  0.00000000000E+00  0.22264804619E+02  0.12696955206E+03  0.12500218249E+03 0.  0.
    9000005    1    3    3    0    0  0.20478843728E+02  0.24005308983E+02  0.65923464364E+02  0.73092688099E+02  0.10000000000E+01 0.  0.
    9000005    1    3    3    0    0 -0.20478843728E+02 -0.24005308983E+02 -0.43658659745E+02  0.53876863963E+02  0.10000000000E+01 0.  0.
<mgrwt>
<rscale>  0 0.12500218E+03</rscale>
<asrwt>0</asrwt>
<pdfrwt beam="2">  1        4 0.80542114E-02 0.12500218E+03</pdfrwt>
<pdfrwt beam="1">  1       -4 0.11479566E-01 0.12500218E+03</pdfrwt>
<totfact> 0.10409294E+04</totfact>
</mgrwt>
</event>
<event>
 5    1  0.3304582E-002  0.1249988E+03  0.7818608E-02  0.1235071E+00
         -4   -1    0    0    0  501 -0.00000000000E+00  0.00000000000E+00  0.19381638445E+03  0.19382054530E+03  0.12700000000E+01 0. -1.
          4   -1    0    0  501    0  0.00000000000E+00 -0.00000000000E+00 -0.20129602245E+02  0.20169625344E+02  0.12700000000E+01 0. -1.
         25    2    1    2    0    0  0.00000000000E+00  0.00000000000E+00  0.17368678220E+03  0.21399017065E+03  0.12499877928E+03 0.  0.
    9000005    1    3    3    0    0 -0.45178934103E+02 -0.37751498350E+02  0.50979943402E+02  0.77886239757E+02  0.10000000000E+01 0.  0.
    9000005    1    3    3    0    0  0.45178934103E+02  0.37751498350E+02  0.12270683880E+03  0.13610393089E+03  0.10000000000E+01 0.  0.
<mgrwt>
<rscale>  0 0.12499878E+03</rscale>
<asrwt>0</asrwt>
<pdfrwt beam="2">  1        4 0.31002605E-02 0.12499878E+03</pdfrwt>
<pdfrwt beam="1">  1       -4 0.29821305E-01 0.12499878E+03</pdfrwt>
<totfact> 0.87830746E+03</totfact>
</mgrwt>
</event>
<event>
 5    1  0.3304582E-002  0.1250008E+03  0.7818608E-02  0.1235068E+00
          4   -1    0    0  501    0  0.00000000000E+00  0.00000000000E+00  0.47943577965E+03  0.47943746173E+03  0.12700000000E+01 0. -1.
         -4   -1    0    0    0  501 -0.00000000000E+00 -0.00000000000E+00 -0.80965031282E+01  0.81955026023E+01  0.12700000000E+01 0. -1.
         25    2    1    2    0    0  0.00000000000E+00  0.00000000000E+00  0.47133927652E+03  0.48763296433E+03  0.12500077724E+03 0.  0.
    9000005    1    3    3    0    0 -0.19465808505E+02  0.33929027874E+02  0.42579086733E+03  0.42758503170E+03  0.10000000000E+01 0.  0.
    9000005    1    3    3    0    0  0.19465808505E+02 -0.33929027874E+02  0.45548409192E+02  0.60047932630E+02  0.10000000000E+01 0.  0.
<mgrwt>
<rscale>  0 0.12500078E+03</rscale>
<asrwt>0</asrwt>
<pdfrwt beam="1">  1        4 0.73767117E-01 0.12500078E+03</pdfrwt>
<pdfrwt beam="2">  1       -4 0.12533602E-02 0.12500078E+03</pdfrwt>
<totfact> 0.56835843E+03</totfact>
</mgrwt>
</event>
<event>
 5    1  0.3304582E-002  0.1249996E+03  0.7818608E-02  0.1235070E+00
         -4   -1    0    0    0  501 -0.00000000000E+00  0.00000000000E+00  0.12668654864E+03  0.12669291419E+03  0.12700000000E+01 0.  1.
          4   -1    0    0  501    0  0.00000000000E+00 -0.00000000000E+00 -0.30813554839E+02  0.30839715657E+02  0.12700000000E+01 0.  1.
         25    2    1    2    0    0  0.00000000000E+00  0.00000000000E+00  0.95872993796E+02  0.15753262984E+03  0.12499959410E+03 0.  0.
    9000005    1    3    3    0    0 -0.27939451788E+02 -0.25404606937E+02 -0.14814299868E+02  0.40576723628E+02  0.10000000000E+01 0.  0.
    9000005    1    3    3    0    0  0.27939451788E+02  0.25404606937E+02  0.11068729366E+03  0.11695590621E+03  0.10000000000E+01 0.  0.
<mgrwt>
<rscale>  0 0.12499959E+03</rscale>
<asrwt>0</asrwt>
<pdfrwt beam="2">  1        4 0.47430489E-02 0.12499959E+03</pdfrwt>
<pdfrwt beam="1">  1       -4 0.19492740E-01 0.12499959E+03</pdfrwt>
<totfact> 0.97821487E+03</totfact>
</mgrwt>
</event>
<event>
 4    1  0.3304582E-002  0.1245196E+03  0.7818608E-02  0.1235822E+00
          4   -1    0    0  501    0  0.00000000000E+00  0.00000000000E+00  0.48082277961E+03  0.48082445684E+03  0.12700000000E+01 0.  1.
         -4   -1    0    0    0  501 -0.00000000000E+00 -0.00000000000E+00 -0.80100572635E+01  0.81101120439E+01  0.12700000000E+01 0.  1.
    9000005    1    1    2    0    0  0.42522746170E+02 -0.38159120586E+02  0.33346349838E+03  0.33832411557E+03  0.10000000000E+01 0.  0.
    9000005    1    1    2    0    0 -0.42522746170E+02  0.38159120586E+02  0.13934922397E+03  0.15061045331E+03  0.10000000000E+01 0.  0.
<mgrwt>
<rscale>  0 0.12451965E+03</rscale>
<asrwt>0</asrwt>
<pdfrwt beam="1">  1        4 0.73980565E-01 0.12451965E+03</pdfrwt>
<pdfrwt beam="2">  1       -4 0.12401420E-02 0.12451965E+03</pdfrwt>
<totfact> 0.57336900E+03</totfact>
</mgrwt>
</event>
<event>
 5    1  0.3304582E-002  0.1250000E+03  0.7818608E-02  0.1235069E+00
          4   -1    0    0  501    0  0.00000000000E+00  0.00000000000E+00  0.34378033407E+03  0.34378267989E+03  0.12700000000E+01 0.  1.
         -4   -1    0    0    0  501 -0.00000000000E+00 -0.00000000000E+00 -0.11324753352E+02  0.11395742121E+02  0.12700000000E+01 0.  1.
         25    2    1    2    0    0  0.00000000000E+00  0.00000000000E+00  0.33245558072E+03  0.35517842201E+03  0.12499999325E+03 0.  0.
    9000005    1    3    3    0    0  0.42278556298E+02  0.37464566500E+02  0.90293091032E+02  0.10651249858E+03  0.10000000000E+01 0.  0.
    9000005    1    3    3    0    0 -0.42278556298E+02 -0.37464566500E+02  0.24216248969E+03  0.24866592343E+03  0.10000000000E+01 0.  0.
<mgrwt>
<rscale>  0 0.12499999E+03</rscale>
<asrwt>0</asrwt>
<pdfrwt beam="1">  1        4 0.52894922E-01 0.12499999E+03</pdfrwt>
<pdfrwt beam="2">  1       -4 0.17479109E-02 0.12499999E+03</pdfrwt>
<totfact> 0.69158608E+03</totfact>
</mgrwt>
</event>
<event>
 5    1  0.3304582E-002  0.1250016E+03  0.7818608E-02  0.1235067E+00
          4   -1    0    0  501    0  0.00000000000E+00  0.00000000000E+00  0.18002740426E+02  0.18047480789E+02  0.12700000000E+01 0.  1.
         -4   -1    0    0    0  501 -0.00000000000E+00 -0.00000000000E+00 -0.21667052991E+03  0.21667425189E+03  0.12700000000E+01 0.  1.
         25    2    1    2    0    0  0.00000000000E+00  0.00000000000E+00 -0.19866778949E+03  0.23472173268E+03  0.12500160484E+03 0.  0.
    9000005    1    3    3    0    0  0.57429326633E+02  0.20966381410E+02 -0.75022031468E+02  0.96783376220E+02  0.10000000000E+01 0.  0.
    9000005    1    3    3    0    0 -0.57429326633E+02 -0.20966381410E+02 -0.12364575802E+03  0.13793835646E+03  0.10000000000E+01 0.  0.
<mgrwt>
<rscale>  0 0.12500160E+03</rscale>
<asrwt>0</asrwt>
<pdfrwt beam="1">  1        4 0.27733804E-02 0.12500160E+03</pdfrwt>
<pdfrwt beam="2">  1       -4 0.33337654E-01 0.12500160E+03</pdfrwt>
<totfact> 0.84586778E+03</totfact>
</mgrwt>
</event>
<event>
 5    1  0.3304582E-002  0.1249897E+03  0.7818608E-02  0.1235085E+00
          4   -1    0    0  501    0  0.00000000000E+00  0.00000000000E+00  0.70205097136E+02  0.70216583254E+02  0.12700000000E+01 0. -1.
         -4   -1    0    0    0  501 -0.00000000000E+00 -0.00000000000E+00 -0.55608063379E+02  0.55622563881E+02  0.12700000000E+01 0. -1.
         25    2    1    2    0    0  0.00000000000E+00  0.00000000000E+00  0.14597033757E+02  0.12583914714E+03  0.12498966980E+03 0.  0.
    9000005    1    3    3    0    0  0.92401493390E+01 -0.40918214371E+02 -0.39329567719E+02  0.57510829624E+02  0.10000000000E+01 0.  0.
    9000005    1    3    3    0    0 -0.92401493390E+01  0.40918214371E+02  0.53926601477E+02  0.68328317511E+02  0.10000000000E+01 0.  0.
<mgrwt>
<rscale>  0 0.12498967E+03</rscale>
<asrwt>0</asrwt>
<pdfrwt beam="1">  1        4 0.10802783E-01 0.12498967E+03</pdfrwt>
<pdfrwt beam="2">  1       -4 0.85570857E-02 0.12498967E+03</pdfrwt>
<totfact> 0.10436918E+04</totfact>
</mgrwt>
</event>
<event>
 5    1  0.3304582E-002  0.1249991E+03  0.7818608E-02  0.1235071E+00
         -4   -1    0    0    0  501 -0.00000000000E+00  0.00000000000E+00  0.65870347824E+03  0.65870470254E+03  0.12700000000E+01 0.  1.
          4   -1    0    0  501    0  0.00000000000E+00 -0.00000000000E+00 -0.58608850758E+01  0.59969053579E+01  0.12700000000E+01 0.  1.
         25    2    1    2    0    0  0.00000000000E+00  0.00000000000E+00  0.65284259317E+03  0.66470160790E+03  0.12499910436E+03 0.  0.
    9000005    1    3    3    0    0 -0.29184310264E+02  0.49715543943E+02  0.45468968997E+03  0.45833074678E+03  0.10000000000E+01 0.  0.
    9000005    1    3    3    0    0  0.29184310264E+02 -0.49715543943E+02  0.19815290320E+03  0.20637086112E+03  0.10000000000E+01 0.  0.
<mgrwt>
<rscale>  0 0.12499910E+03</rscale>
<asrwt>0</asrwt>
<pdfrwt beam="2">  1        4 0.91223187E-03 0.12499910E+03</pdfrwt>
<pdfrwt beam="1">  1       -4 0.10134956E+00 0.12499910E+03</pdfrwt>
<totfact> 0.45017502E+03</totfact>
</mgrwt>
</event>
<event>
 5    1  0.3304582E-002  0.1250019E+03  0.7818608E-02  0.1235066E+00
         -4   -1    0    0    0  501 -0.00000000000E+00  0.00000000000E+00  0.29575449344E+02  0.29602704335E+02  0.12700000000E+01 0. -1.
          4   -1    0    0  501    0  0.00000000000E+00 -0.00000000000E+00 -0.13199030546E+03  0.13199641524E+03  0.12700000000E+01 0. -1.
         25    2    1    2    0    0  0.00000000000E+00  0.00000000000E+00 -0.10241485612E+03  0.16159911958E+03  0.12500189076E+03 0.  0.
    9000005    1    3    3    0    0 -0.54430734694E+02  0.38151189346E+01 -0.11823257452E+02  0.55839497030E+02  0.10000000000E+01 0.  0.
    9000005    1    3    3    0    0  0.54430734694E+02 -0.38151189346E+01 -0.90591598668E+02  0.10575962255E+03  0.10000000000E+01 0.  0.
<mgrwt>
<rscale>  0 0.12500189E+03</rscale>
<asrwt>0</asrwt>
<pdfrwt beam="2">  1        4 0.20308767E-01 0.12500189E+03</pdfrwt>
<pdfrwt beam="1">  1       -4 0.45526357E-02 0.12500189E+03</pdfrwt>
<totfact> 0.97031248E+03</totfact>
</mgrwt>
</event>
<event>
 5    1  0.3304582E-002  0.1250012E+03  0.7818608E-02  0.1235067E+00
         -4   -1    0    0    0  501 -0.00000000000E+00  0.00000000000E+00  0.12789924969E+03  0.12790555489E+03  0.12700000000E+01 0.  1.
          4   -1    0    0  501    0  0.00000000000E+00 -0.00000000000E+00 -0.30521931733E+02  0.30548342290E+02  0.12700000000E+01 0.  1.
         25    2    1    2    0    0  0.00000000000E+00  0.00000000000E+00  0.97377317957E+02  0.15845389718E+03  0.12500118191E+03 0.  0.
    9000005    1    3    3    0    0  0.38569049331E+02  0.38361484060E+02  0.87680032796E+02  0.10318896829E+03  0.10000000000E+01 0.  0.
    9000005    1    3    3    0    0 -0.38569049331E+02 -0.38361484060E+02  0.96972851611E+01  0.55264928889E+02  0.10000000000E+01 0.  0.
<mgrwt>
<rscale>  0 0.12500118E+03</rscale>
<asrwt>0</asrwt>
<pdfrwt beam="2">  1        4 0.46981984E-02 0.12500118E+03</pdfrwt>
<pdfrwt beam="1">  1       -4 0.19679324E-01 0.12500118E+03</pdfrwt>
<totfact> 0.97639098E+03</totfact>
</mgrwt>
</event>
<event>
 5    1  0.3304582E-002  0.1249990E+03  0.7818608E-02  0.1235071E+00
         -4   -1    0    0    0  501 -0.00000000000E+00  0.00000000000E+00  0.76113666397E+03  0.76113772351E+03  0.12700000000E+01 0. -1.
          4   -1    0    0  501    0  0.00000000000E+00 -0.00000000000E+00 -0.50523916159E+01  0.52095643811E+01  0.12700000000E+01 0. -1.
         25    2    1    2    0    0  0.00000000000E+00  0.00000000000E+00  0.75608427236E+03  0.76634728789E+03  0.12499895498E+03 0.  0.
    9000005    1    3    3    0    0  0.19214100023E+02  0.13053817652E+01  0.13564498133E+02  0.23577134492E+02  0.10000000000E+01 0.  0.
    9000005    1    3    3    0    0 -0.19214100023E+02 -0.13053817652E+01  0.74251977422E+03  0.74277015340E+03  0.10000000000E+01 0.  0.
<mgrwt>
<rscale>  0 0.12499895E+03</rscale>
<asrwt>0</asrwt>
<pdfrwt beam="2">  1        4 0.78946302E-03 0.12499895E+03</pdfrwt>
<pdfrwt beam="1">  1       -4 0.11711008E+00 0.12499895E+03</pdfrwt>
<totfact> 0.39805105E+03</totfact>
</mgrwt>
</event>
<event>
 5    1  0.3304582E-002  0.1250005E+03  0.7818608E-02  0.1235069E+00
         -4   -1    0    0    0  501 -0.00000000000E+00  0.00000000000E+00  0.78974673833E+01  0.79989306204E+01  0.12700000000E+01 0.  1.
          4   -1    0    0  501    0  0.00000000000E+00 -0.00000000000E+00 -0.49136479869E+03  0.49136643993E+03  0.12700000000E+01 0.  1.
         25    2    1    2    0    0  0.00000000000E+00  0.00000000000E+00 -0.48346733130E+03  0.49936537055E+03  0.12500045146E+03 0.  0.
    9000005    1    3    3    0    0  0.93615840223E+01  0.57080904037E+02 -0.33622058796E+03  0.34116147589E+03  0.10000000000E+01 0.  0.
    9000005    1    3    3    0    0 -0.93615840223E+01 -0.57080904037E+02 -0.14724674334E+03  0.15820389466E+03  0.10000000000E+01 0.  0.
<mgrwt>
<rscale>  0 0.12500045E+03</rscale>
<asrwt>0</asrwt>
<pdfrwt beam="2">  1        4 0.75602492E-01 0.12500045E+03</pdfrwt>
<pdfrwt beam="1">  1       -4 0.12229265E-02 0.12500045E+03</pdfrwt>
<totfact> 0.55913095E+03</totfact>
</mgrwt>
</event>
<event>
 5    1  0.3304582E-002  0.1250022E+03  0.7818608E-02  0.1235066E+00
          4   -1    0    0  501    0  0.00000000000E+00  0.00000000000E+00  0.39968456701E+02  0.39988628772E+02  0.12700000000E+01 0.  1.
         -4   -1    0    0    0  501 -0.00000000000E+00 -0.00000000000E+00 -0.97687730533E+02  0.97695985571E+02  0.12700000000E+01 0.  1.
         25    2    1    2    0    0  0.00000000000E+00  0.00000000000E+00 -0.57719273832E+02  0.13768461434E+03  0.12500215380E+03 0.  0.
    9000005    1    3    3    0    0  0.43583508392E+02 -0.43000686367E+02 -0.42652220648E+02  0.74624346952E+02  0.10000000000E+01 0.  0.
    9000005    1    3    3    0    0 -0.43583508392E+02  0.43000686367E+02 -0.15067053183E+02  0.63060267391E+02  0.10000000000E+01 0.  0.
<mgrwt>
<rscale>  0 0.12500215E+03</rscale>
<asrwt>0</asrwt>
<pdfrwt beam="1">  1        4 0.61511801E-02 0.12500215E+03</pdfrwt>
<pdfrwt beam="2">  1       -4 0.15031068E-01 0.12500215E+03</pdfrwt>
<totfact> 0.10181296E+04</totfact>
</mgrwt>
</event>
<event>
 5    1  0.3304582E-002  0.1250059E+03  0.7818608E-02  0.1235060E+00
          4   -1    0    0  501    0  0.00000000000E+00  0.00000000000E+00  0.76186815474E+01  0.77238079029E+01  0.12700000000E+01 0. -1.
         -4   -1    0    0    0  501 -0.00000000000E+00 -0.00000000000E+00 -0.50914903685E+03  0.50915062077E+03  0.12700000000E+01 0. -1.
         25    2    1    2    0    0  0.00000000000E+00  0.00000000000E+00 -0.50153035531E+03  0.51687442867E+03  0.12500591074E+03 0.  0.
    9000005    1    3    3    0    0 -0.51752206177E+02 -0.31744864237E+02 -0.18949305386E+03  0.19898403129E+03  0.10000000000E+01 0.  0.
    9000005    1    3    3    0    0  0.51752206177E+02  0.31744864237E+02 -0.31203730145E+03  0.31789039738E+03  0.10000000000E+01 0.  0.
<mgrwt>
<rscale>  0 0.12500591E+03</rscale>
<asrwt>0</asrwt>
<pdfrwt beam="1">  1        4 0.11803137E-02 0.12500591E+03</pdfrwt>
<pdfrwt beam="2">  1       -4 0.78338803E-01 0.12500591E+03</pdfrwt>
<totfact> 0.54571405E+03</totfact>
</mgrwt>
</event>
<event>
 5    1  0.3304582E-002  0.1250011E+03  0.7818608E-02  0.1235068E+00
         -4   -1    0    0    0  501 -0.00000000000E+00  0.00000000000E+00  0.88806696459E+01  0.89710196388E+01  0.12700000000E+01 0.  1.
          4   -1    0    0  501    0  0.00000000000E+00 -0.00000000000E+00 -0.43754991889E+03  0.43755176199E+03  0.12700000000E+01 0.  1.
         25    2    1    2    0    0  0.00000000000E+00  0.00000000000E+00 -0.42866924924E+03  0.44652278163E+03  0.12500107706E+03 0.  0.
    9000005    1    3    3    0    0 -0.13712310064E+02  0.24254402299E+02 -0.14517084434E+02  0.31433250208E+02  0.10000000000E+01 0.  0.
    9000005    1    3    3    0    0  0.13712310064E+02 -0.24254402299E+02 -0.41415216481E+03  0.41508953142E+03  0.10000000000E+01 0.  0.
<mgrwt>
<rscale>  0 0.12500108E+03</rscale>
<asrwt>0</asrwt>
<pdfrwt beam="2">  1        4 0.67322447E-01 0.12500108E+03</pdfrwt>
<pdfrwt beam="1">  1       -4 0.13733490E-02 0.12500108E+03</pdfrwt>
<totfact> 0.60264791E+03</totfact>
</mgrwt>
</event>
<event>
 5    1  0.3304582E-002  0.1250022E+03  0.7818608E-02  0.1235066E+00
          4   -1    0    0  501    0  0.00000000000E+00  0.00000000000E+00  0.31076161678E+02  0.31102101611E+02  0.12700000000E+01 0.  1.
         -4   -1    0    0    0  501 -0.00000000000E+00 -0.00000000000E+00 -0.12562198341E+03  0.12562840290E+03  0.12700000000E+01 0.  1.
         25    2    1    2    0    0  0.00000000000E+00  0.00000000000E+00 -0.94545821728E+02  0.15673050451E+03  0.12500215453E+03 0.  0.
    9000005    1    3    3    0    0  0.14584436436E+02 -0.54923063571E+02 -0.79875572040E+02  0.98032421713E+02  0.10000000000E+01 0.  0.
    9000005    1    3    3    0    0 -0.14584436436E+02  0.54923063571E+02 -0.14670249688E+02  0.58698082798E+02  0.10000000000E+01 0.  0.
<mgrwt>
<rscale>  0 0.12500215E+03</rscale>
<asrwt>0</asrwt>
<pdfrwt beam="1">  1        4 0.47834372E-02 0.12500215E+03</pdfrwt>
<pdfrwt beam="2">  1       -4 0.19328948E-01 0.12500215E+03</pdfrwt>
<totfact> 0.97972100E+03</totfact>
</mgrwt>
</event>
<event>
 5    1  0.3304582E-002  0.1250001E+03  0.7818608E-02  0.1235069E+00
          4   -1    0    0  501    0  0.00000000000E+00  0.00000000000E+00  0.98074499140E+01  0.98893363688E+01  0.12700000000E+01 0.  1.
         -4   -1    0    0    0  501 -0.00000000000E+00 -0.00000000000E+00 -0.39655572076E+03  0.39655775439E+03  0.12700000000E+01 0.  1.
         25    2    1    2    0    0  0.00000000000E+00  0.00000000000E+00 -0.38674827085E+03  0.40644709076E+03  0.12500005034E+03 0.  0.
    9000005    1    3    3    0    0 -0.58775544976E+02  0.17730974583E+02 -0.15541263660E+03  0.16710188437E+03  0.10000000000E+01 0.  0.
    9000005    1    3    3    0    0  0.58775544976E+02 -0.17730974583E+02 -0.23133563425E+03  0.23934520639E+03  0.10000000000E+01 0.  0.
<mgrwt>
<rscale>  0 0.12500005E+03</rscale>
<asrwt>0</asrwt>
<pdfrwt beam="1">  1        4 0.15152941E-02 0.12500005E+03</pdfrwt>
<pdfrwt beam="2">  1       -4 0.61015015E-01 0.12500005E+03</pdfrwt>
<totfact> 0.63930481E+03</totfact>
</mgrwt>
</event>
<event>
 5    1  0.3304582E-002  0.1249988E+03  0.7818608E-02  0.1235071E+00
         -4   -1    0    0    0  501 -0.00000000000E+00  0.00000000000E+00  0.94509537861E+01  0.95359020269E+01  0.12700000000E+01 0. -1.
          4   -1    0    0  501    0  0.00000000000E+00 -0.00000000000E+00 -0.41137532711E+03  0.41137728748E+03  0.12700000000E+01 0. -1.
         25    2    1    2    0    0  0.00000000000E+00  0.00000000000E+00 -0.40192437333E+03  0.42091318951E+03  0.12499884491E+03 0.  0.
    9000005    1    3    3    0    0 -0.45684871028E+02 -0.40184491114E+02 -0.24897207541E+03  0.25630059520E+03  0.10000000000E+01 0.  0.
    9000005    1    3    3    0    0  0.45684871028E+02  0.40184491114E+02 -0.15295229791E+03  0.16461259431E+03  0.10000000000E+01 0.  0.
<mgrwt>
<rscale>  0 0.12499884E+03</rscale>
<asrwt>0</asrwt>
<pdfrwt beam="2">  1        4 0.63295183E-01 0.12499884E+03</pdfrwt>
<pdfrwt beam="1">  1       -4 0.14606785E-02 0.12499884E+03</pdfrwt>
<totfact> 0.62569982E+03</totfact>
</mgrwt>
</event>
<event>
 5    1  0.3304582E-002  0.1249945E+03  0.7818608E-02  0.1235078E+00
          4   -1    0    0  501    0  0.00000000000E+00  0.00000000000E+00  0.29708472384E+02  0.29735605449E+02  0.12700000000E+01 0.  1.
         -4   -1    0    0    0  501 -0.00000000000E+00 -0.00000000000E+00 -0.13138427930E+03  0.13139041726E+03  0.12700000000E+01 0.  1.
         25    2    1    2    0    0  0.00000000000E+00  0.00000000000E+00 -0.10167580692E+03  0.16112602271E+03  0.12499450180E+03 0.  0.
    9000005    1    3    3    0    0 -0.15730504519E+02 -0.60111317587E+02 -0.42278755712E+02  0.75161908298E+02  0.10000000000E+01 0.  0.
    9000005    1    3    3    0    0  0.15730504519E+02  0.60111317587E+02 -0.59397051206E+02  0.85964114410E+02  0.10000000000E+01 0.  0.
<mgrwt>
<rscale>  0 0.12499450E+03</rscale>
<asrwt>0</asrwt>
<pdfrwt beam="1">  1        4 0.45730936E-02 0.12499450E+03</pdfrwt>
<pdfrwt beam="2">  1       -4 0.20215525E-01 0.12499450E+03</pdfrwt>
<totfact> 0.97138138E+03</totfact>
</mgrwt>
</event>
<event>
 5    1  0.3304582E-002  0.1250022E+03  0.7818608E-02  0.1235066E+00
          4   -1    0    0  501    0  0.00000000000E+00  0.00000000000E+00  0.14951303046E+03  0.14951842421E+03  0.12700000000E+01 0.  1.
         -4   -1    0    0    0  501 -0.00000000000E+00 -0.00000000000E+00 -0.26106085689E+02  0.26136958699E+02  0.12700000000E+01 0.  1.
         25    2    1    2    0    0  0.00000000000E+00  0.00000000000E+00  0.12340694477E+03  0.17565538291E+03  0.12500215809E+03 0.  0.
    9000005    1    3    3    0    0  0.54996694249E+02 -0.29226254937E+02  0.54459501234E+02  0.82738428984E+02  0.10000000000E+01 0.  0.
    9000005    1    3    3    0    0 -0.54996694249E+02  0.29226254937E+02  0.68947443540E+02  0.92916953925E+02  0.10000000000E+01 0.  0.
<mgrwt>
<rscale>  0 0.12500216E+03</rscale>
<asrwt>0</asrwt>
<pdfrwt beam="1">  1        4 0.23004795E-01 0.12500216E+03</pdfrwt>
<pdfrwt beam="2">  1       -4 0.40191106E-02 0.12500216E+03</pdfrwt>
<totfact> 0.94400375E+03</totfact>
</mgrwt>
</event>
<event>
 5    1  0.3304582E-002  0.1250028E+03  0.7818608E-02  0.1235065E+00
         -4   -1    0    0    0  501 -0.00000000000E+00  0.00000000000E+00  0.14229294993E+04  0.14229300660E+04  0.12700000000E+01 0. -1.
          4   -1    0    0  501    0  0.00000000000E+00 -0.00000000000E+00 -0.25978667281E+01  0.28916797085E+01  0.12700000000E+01 0. -1.
         25    2    1    2    0    0  0.00000000000E+00  0.00000000000E+00  0.14203316325E+04  0.14258217457E+04  0.12500281678E+03 0.  0.
    9000005    1    3    3    0    0 -0.49910927803E+02 -0.36341812322E+02  0.59981418676E+03  0.60298415126E+03  0.10000000000E+01 0.  0.
    9000005    1    3    3    0    0  0.49910927803E+02  0.36341812322E+02  0.82051744579E+03  0.82283759447E+03  0.10000000000E+01 0.  0.
<mgrwt>
<rscale>  0 0.12500282E+03</rscale>
<asrwt>0</asrwt>
<pdfrwt beam="2">  1        4 0.42231673E-03 0.12500282E+03</pdfrwt>
<pdfrwt beam="1">  1       -4 0.21893471E+00 0.12500282E+03</pdfrwt>
<totfact> 0.19432324E+03</totfact>
</mgrwt>
</event>
<event>
 5    1  0.3304582E-002  0.1249987E+03  0.7818608E-02  0.1235071E+00
         -4   -1    0    0    0  501 -0.00000000000E+00  0.00000000000E+00  0.32818811286E+03  0.32819057013E+03  0.12700000000E+01 0.  1.
          4   -1    0    0  501    0  0.00000000000E+00 -0.00000000000E+00 -0.11865836290E+02  0.11933606783E+02  0.12700000000E+01 0.  1.
         25    2    1    2    0    0  0.00000000000E+00  0.00000000000E+00  0.31632227657E+03  0.34012417691E+03  0.12499869226E+03 0.  0.
    9000005    1    3    3    0    0 -0.38136260073E+02 -0.13609985736E+02  0.28646149710E+02  0.49610562759E+02  0.10000000000E+01 0.  0.
    9000005    1    3    3    0    0  0.38136260073E+02  0.13609985736E+02  0.28767612686E+03  0.29051361415E+03  0.10000000000E+01 0.  0.
<mgrwt>
<rscale>  0 0.12499869E+03</rscale>
<asrwt>0</asrwt>
<pdfrwt beam="2">  1        4 0.18309152E-02 0.12499869E+03</pdfrwt>
<pdfrwt beam="1">  1       -4 0.50495888E-01 0.12499869E+03</pdfrwt>
<totfact> 0.70826902E+03</totfact>
</mgrwt>
</event>
<event>
 5    1  0.3304582E-002  0.1250074E+03  0.7818608E-02  0.1235058E+00
         -4   -1    0    0    0  501 -0.00000000000E+00  0.00000000000E+00  0.36749626996E+02  0.36771564889E+02  0.12700000000E+01 0. -1.
          4   -1    0    0  501    0  0.00000000000E+00 -0.00000000000E+00 -0.10624871351E+03  0.10625630345E+03  0.12700000000E+01 0. -1.
         25    2    1    2    0    0  0.00000000000E+00  0.00000000000E+00 -0.69499086518E+02  0.14302786834E+03  0.12500739216E+03 0.  0.
    9000005    1    3    3    0    0  0.46998944112E+02  0.30489175165E+02 -0.66441229366E+02  0.86913333324E+02  0.10000000000E+01 0.  0.
    9000005    1    3    3    0    0 -0.46998944112E+02 -0.30489175165E+02 -0.30578571513E+01  0.56114535017E+02  0.10000000000E+01 0.  0.
<mgrwt>
<rscale>  0 0.12500739E+03</rscale>
<asrwt>0</asrwt>
<pdfrwt beam="2">  1        4 0.16348227E-01 0.12500739E+03</pdfrwt>
<pdfrwt beam="1">  1       -4 0.56560602E-02 0.12500739E+03</pdfrwt>
<totfact> 0.10069536E+04</totfact>
</mgrwt>
</event>
<event>
 5    1  0.3304582E-002  0.1249942E+03  0.7818608E-02  0.1235078E+00
         -4   -1    0    0    0  501 -0.00000000000E+00  0.00000000000E+00  0.33942929506E+03  0.33943167095E+03  0.12700000000E+01 0. -1.
          4   -1    0    0  501    0  0.00000000000E+00 -0.00000000000E+00 -0.11469762714E+02  0.11539859475E+02  0.12700000000E+01 0. -1.
         25    2    1    2    0    0  0.00000000000E+00  0.00000000000E+00  0.32795953235E+03  0.35097153043E+03  0.12499424112E+03 0.  0.
    9000005    1    3    3    0    0 -0.56647134406E+02  0.24223406583E+02  0.19332452984E+03  0.20290649349E+03  0.10000000000E+01 0.  0.
    9000005    1    3    3    0    0  0.56647134406E+02 -0.24223406583E+02  0.13463500251E+03  0.14806503694E+03  0.10000000000E+01 0.  0.
<mgrwt>
<rscale>  0 0.12499424E+03</rscale>
<asrwt>0</asrwt>
<pdfrwt beam="2">  1        4 0.17701539E-02 0.12499424E+03</pdfrwt>
<pdfrwt beam="1">  1       -4 0.52225460E-01 0.12499424E+03</pdfrwt>
<totfact> 0.69626683E+03</totfact>
</mgrwt>
</event>
<event>
 5    1  0.3304582E-002  0.1249986E+03  0.7818608E-02  0.1235071E+00
          4   -1    0    0  501    0  0.00000000000E+00  0.00000000000E+00  0.42893715289E+02  0.42912512293E+02  0.12700000000E+01 0.  1.
         -4   -1    0    0    0  501 -0.00000000000E+00 -0.00000000000E+00 -0.91022931431E+02  0.91031790855E+02  0.12700000000E+01 0.  1.
         25    2    1    2    0    0  0.00000000000E+00  0.00000000000E+00 -0.48129216142E+02  0.13394430315E+03  0.12499861959E+03 0.  0.
    9000005    1    3    3    0    0  0.18474931083E+02 -0.21338093771E+02 -0.83808885130E+02  0.88439620934E+02  0.10000000000E+01 0.  0.
    9000005    1    3    3    0    0 -0.18474931083E+02  0.21338093771E+02  0.35679668988E+02  0.45504682214E+02  0.10000000000E+01 0.  0.
<mgrwt>
<rscale>  0 0.12499862E+03</rscale>
<asrwt>0</asrwt>
<pdfrwt beam="1">  1        4 0.66011606E-02 0.12499862E+03</pdfrwt>
<pdfrwt beam="2">  1       -4 0.14005655E-01 0.12499862E+03</pdfrwt>
<totfact> 0.10260690E+04</totfact>
</mgrwt>
</event>
<event>
 5    1  0.3304582E-002  0.1250000E+03  0.7818608E-02  0.1235069E+00
         -4   -1    0    0    0  501 -0.00000000000E+00  0.00000000000E+00  0.74167081810E+01  0.75246568189E+01  0.12700000000E+01 0. -1.
          4   -1    0    0  501    0  0.00000000000E+00 -0.00000000000E+00 -0.52276843152E+03  0.52276997417E+03  0.12700000000E+01 0. -1.
         25    2    1    2    0    0  0.00000000000E+00  0.00000000000E+00 -0.51535172334E+03  0.53029463099E+03  0.12499998763E+03 0.  0.
    9000005    1    3    3    0    0 -0.35054302052E+01 -0.75490302594E+00 -0.52235243726E+03  0.52236570200E+03  0.10000000000E+01 0.  0.
    9000005    1    3    3    0    0  0.35054302052E+01  0.75490302594E+00  0.70007139187E+01  0.79289289866E+01  0.10000000000E+01 0.  0.
<mgrwt>
<rscale>  0 0.12499999E+03</rscale>
<asrwt>0</asrwt>
<pdfrwt beam="2">  1        4 0.80434306E-01 0.12499999E+03</pdfrwt>
<pdfrwt beam="1">  1       -4 0.11494548E-02 0.12499999E+03</pdfrwt>
<totfact> 0.53588201E+03</totfact>
</mgrwt>
</event>
<event>
 5    1  0.3304582E-002  0.1249887E+03  0.7818608E-02  0.1235087E+00
         -4   -1    0    0    0  501 -0.00000000000E+00  0.00000000000E+00  0.86934693010E+02  0.86943969018E+02  0.12700000000E+01 0.  1.
          4   -1    0    0  501    0  0.00000000000E+00 -0.00000000000E+00 -0.44904384469E+02  0.44922340149E+02  0.12700000000E+01 0.  1.
         25    2    1    2    0    0  0.00000000000E+00  0.00000000000E+00  0.42030308541E+02  0.13186630917E+03  0.12498870612E+03 0.  0.
    9000005    1    3    3    0    0  0.46986687534E+02  0.39284279922E+02  0.34088141917E+02  0.70099963436E+02  0.10000000000E+01 0.  0.
    9000005    1    3    3    0    0 -0.46986687534E+02 -0.39284279922E+02  0.79421666245E+01  0.61766345732E+02  0.10000000000E+01 0.  0.
<mgrwt>
<rscale>  0 0.12498871E+03</rscale>
<asrwt>0</asrwt>
<pdfrwt beam="2">  1        4 0.69104616E-02 0.12498871E+03</pdfrwt>
<pdfrwt beam="1">  1       -4 0.13376663E-01 0.12498871E+03</pdfrwt>
<totfact> 0.10307179E+04</totfact>
</mgrwt>
</event>
<event>
 5    1  0.3304582E-002  0.1249949E+03  0.7818608E-02  0.1235077E+00
          4   -1    0    0  501    0  0.00000000000E+00  0.00000000000E+00  0.17272148765E+02  0.17318776601E+02  0.12700000000E+01 0.  1.
         -4   -1    0    0    0  501 -0.00000000000E+00 -0.00000000000E+00 -0.22578724863E+03  0.22579082033E+03  0.12700000000E+01 0.  1.
         25    2    1    2    0    0  0.00000000000E+00  0.00000000000E+00 -0.20851509986E+03  0.24310959693E+03  0.12499491688E+03 0.  0.
    9000005    1    3    3    0    0 -0.47740173508E+02 -0.39529146852E+02 -0.11972633239E+03  0.13482237309E+03  0.10000000000E+01 0.  0.
    9000005    1    3    3    0    0  0.47740173508E+02  0.39529146852E+02 -0.88788767475E+02  0.10828722384E+03  0.10000000000E+01 0.  0.
<mgrwt>
<rscale>  0 0.12499492E+03</rscale>
<asrwt>0</asrwt>
<pdfrwt beam="1">  1        4 0.26611153E-02 0.12499492E+03</pdfrwt>
<pdfrwt beam="2">  1       -4 0.34740359E-01 0.12499492E+03</pdfrwt>
<totfact> 0.83345860E+03</totfact>
</mgrwt>
</event>
<event>
 5    1  0.3304582E-002  0.1250001E+03  0.7818608E-02  0.1235069E+00
          4   -1    0    0  501    0  0.00000000000E+00  0.00000000000E+00  0.56691244777E+03  0.56691387030E+03  0.12700000000E+01 0.  1.
         -4   -1    0    0    0  501 -0.00000000000E+00 -0.00000000000E+00 -0.68304434819E+01  0.69475073342E+01  0.12700000000E+01 0.  1.
         25    2    1    2    0    0  0.00000000000E+00  0.00000000000E+00  0.56008200429E+03  0.57386137763E+03  0.12500011684E+03 0.  0.
    9000005    1    3    3    0    0 -0.57652014425E+02 -0.11320101619E+02  0.37779108639E+03  0.38233362973E+03  0.10000000000E+01 0.  0.
    9000005    1    3    3    0    0  0.57652014425E+02  0.11320101619E+02  0.18229091790E+03  0.19152774790E+03  0.10000000000E+01 0.  0.
<mgrwt>
<rscale>  0 0.12500012E+03</rscale>
<asrwt>0</asrwt>
<pdfrwt beam="1">  1        4 0.87226424E-01 0.12500012E+03</pdfrwt>
<pdfrwt beam="2">  1       -4 0.10599517E-02 0.12500012E+03</pdfrwt>
<totfact> 0.50560113E+03</totfact>
</mgrwt>
</event>
<event>
 5    1  0.3304582E-002  0.1250052E+03  0.7818608E-02  0.1235061E+00
         -4   -1    0    0    0  501 -0.00000000000E+00  0.00000000000E+00  0.42990555154E+02  0.43009309834E+02  0.12700000000E+01 0. -1.
          4   -1    0    0  501    0  0.00000000000E+00 -0.00000000000E+00 -0.90827463105E+02  0.90836341594E+02  0.12700000000E+01 0. -1.
         25    2    1    2    0    0  0.00000000000E+00  0.00000000000E+00 -0.47836907952E+02  0.13384565143E+03  0.12500515447E+03 0.  0.
    9000005    1    3    3    0    0 -0.43846070653E+02 -0.44152853779E+02 -0.17710141038E+02  0.64703952771E+02  0.10000000000E+01 0.  0.
    9000005    1    3    3    0    0  0.43846070653E+02  0.44152853779E+02 -0.30126766914E+02  0.69141698658E+02  0.10000000000E+01 0.  0.
<mgrwt>
<rscale>  0 0.12500515E+03</rscale>
<asrwt>0</asrwt>
<pdfrwt beam="2">  1        4 0.13975581E-01 0.12500515E+03</pdfrwt>
<pdfrwt beam="1">  1       -4 0.66160572E-02 0.12500515E+03</pdfrwt>
<totfact> 0.10261266E+04</totfact>
</mgrwt>
</event>
<event>
 5    1  0.3304582E-002  0.1249939E+03  0.7818608E-02  0.1235079E+00
          4   -1    0    0  501    0  0.00000000000E+00  0.00000000000E+00  0.19621527663E+02  0.19662584973E+02  0.12700000000E+01 0.  1.
         -4   -1    0    0    0  501 -0.00000000000E+00 -0.00000000000E+00 -0.19880940304E+03  0.19881345940E+03  0.12700000000E+01 0.  1.
         25    2    1    2    0    0  0.00000000000E+00  0.00000000000E+00 -0.17918787538E+03  0.21847604437E+03  0.12499394898E+03 0.  0.
    9000005    1    3    3    0    0 -0.43269326367E+02  0.38108456165E+02 -0.13170266310E+03  0.14377440838E+03  0.10000000000E+01 0.  0.
    9000005    1    3    3    0    0  0.43269326367E+02 -0.38108456165E+02 -0.47485212277E+02  0.74701635996E+02  0.10000000000E+01 0.  0.
<mgrwt>
<rscale>  0 0.12499395E+03</rscale>
<asrwt>0</asrwt>
<pdfrwt beam="1">  1        4 0.30221670E-02 0.12499395E+03</pdfrwt>
<pdfrwt beam="2">  1       -4 0.30589531E-01 0.12499395E+03</pdfrwt>
<totfact> 0.87121848E+03</totfact>
</mgrwt>
</event>
<event>
 5    1  0.3304582E-002  0.1250044E+03  0.7818608E-02  0.1235062E+00
         -4   -1    0    0    0  501 -0.00000000000E+00  0.00000000000E+00  0.48240559079E+03  0.48240726251E+03  0.12700000000E+01 0. -1.
          4   -1    0    0  501    0  0.00000000000E+00 -0.00000000000E+00 -0.80465160510E+01  0.81461230385E+01  0.12700000000E+01 0. -1.
         25    2    1    2    0    0  0.00000000000E+00  0.00000000000E+00  0.47435907474E+03  0.49055338555E+03  0.12500436908E+03 0.  0.
    9000005    1    3    3    0    0  0.35041947035E+02  0.50683523313E+02  0.19625284616E+03  0.20570108705E+03  0.10000000000E+01 0.  0.
    9000005    1    3    3    0    0 -0.35041947035E+02 -0.50683523313E+02  0.27810622858E+03  0.28485229850E+03  0.10000000000E+01 0.  0.
<mgrwt>
<rscale>  0 0.12500437E+03</rscale>
<asrwt>0</asrwt>
<pdfrwt beam="2">  1        4 0.12457163E-02 0.12500437E+03</pdfrwt>
<pdfrwt beam="1">  1       -4 0.74224033E-01 0.12500437E+03</pdfrwt>
<totfact> 0.56599390E+03</totfact>
</mgrwt>
</event>
<event>
 5    1  0.3304582E-002  0.1249944E+03  0.7818608E-02  0.1235078E+00
          4   -1    0    0  501    0  0.00000000000E+00  0.00000000000E+00  0.11137836862E+03  0.11138560902E+03  0.12700000000E+01 0. -1.
         -4   -1    0    0    0  501 -0.00000000000E+00 -0.00000000000E+00 -0.35048894605E+02  0.35071896342E+02  0.12700000000E+01 0. -1.
         25    2    1    2    0    0  0.00000000000E+00  0.00000000000E+00  0.76329474018E+02  0.14645750536E+03  0.12499444897E+03 0.  0.
    9000005    1    3    3    0    0 -0.26011051020E+02  0.42170917963E+02  0.82781310812E+02  0.96481638236E+02  0.10000000000E+01 0.  0.
    9000005    1    3    3    0    0  0.26011051020E+02 -0.42170917963E+02 -0.64518367942E+01  0.49975867126E+02  0.10000000000E+01 0.  0.
<mgrwt>
<rscale>  0 0.12499445E+03</rscale>
<asrwt>0</asrwt>
<pdfrwt beam="1">  1        4 0.17137460E-01 0.12499445E+03</pdfrwt>
<pdfrwt beam="2">  1       -4 0.53944640E-02 0.12499445E+03</pdfrwt>
<totfact> 0.10002709E+04</totfact>
</mgrwt>
</event>
<event>
 5    1  0.3304582E-002  0.1249996E+03  0.7818608E-02  0.1235070E+00
         -4   -1    0    0    0  501 -0.00000000000E+00  0.00000000000E+00  0.34037312508E+03  0.34037549438E+03  0.12700000000E+01 0.  1.
          4   -1    0    0  501    0  0.00000000000E+00 -0.00000000000E+00 -0.11438754502E+02  0.11509040123E+02  0.12700000000E+01 0.  1.
         25    2    1    2    0    0  0.00000000000E+00  0.00000000000E+00  0.32893437058E+03  0.35188453451E+03  0.12499962191E+03 0.  0.
    9000005    1    3    3    0    0 -0.40023121777E+02  0.34401730273E+02  0.70260758798E+02  0.87880052056E+02  0.10000000000E+01 0.  0.
    9000005    1    3    3    0    0  0.40023121777E+02 -0.34401730273E+02  0.25867361178E+03  0.26400448245E+03  0.10000000000E+01 0.  0.
<mgrwt>
<rscale>  0 0.12499962E+03</rscale>
<asrwt>0</asrwt>
<pdfrwt beam="2">  1        4 0.17653974E-02 0.12499962E+03</pdfrwt>
<pdfrwt beam="1">  1       -4 0.52370679E-01 0.12499962E+03</pdfrwt>
<totfact> 0.69518314E+03</totfact>
</mgrwt>
</event>
<event>
 5    1  0.3304582E-002  0.1250003E+03  0.7818608E-02  0.1235069E+00
          4   -1    0    0  501    0  0.00000000000E+00  0.00000000000E+00  0.61999239063E+02  0.62012245117E+02  0.12700000000E+01 0. -1.
         -4   -1    0    0    0  501 -0.00000000000E+00 -0.00000000000E+00 -0.62979071041E+02  0.62991874787E+02  0.12700000000E+01 0. -1.
         25    2    1    2    0    0  0.00000000000E+00  0.00000000000E+00 -0.97983197758E+00  0.12500411990E+03  0.12500027969E+03 0.  0.
    9000005    1    3    3    0    0  0.46848760614E+02 -0.10777105392E+02 -0.40420018297E+02  0.62815047965E+02  0.10000000000E+01 0.  0.
    9000005    1    3    3    0    0 -0.46848760614E+02  0.10777105392E+02  0.39440186320E+02  0.62189071939E+02  0.10000000000E+01 0.  0.
<mgrwt>
<rscale>  0 0.12500028E+03</rscale>
<asrwt>0</asrwt>
<pdfrwt beam="1">  1        4 0.95403298E-02 0.12500028E+03</pdfrwt>
<pdfrwt beam="2">  1       -4 0.96910732E-02 0.12500028E+03</pdfrwt>
<totfact> 0.10452707E+04</totfact>
</mgrwt>
</event>
<event>
 5    1  0.3304582E-002  0.1249968E+03  0.7818608E-02  0.1235074E+00
          4   -1    0    0  501    0  0.00000000000E+00  0.00000000000E+00  0.16016380539E+02  0.16066653216E+02  0.12700000000E+01 0. -1.
         -4   -1    0    0    0  501 -0.00000000000E+00 -0.00000000000E+00 -0.24344440456E+03  0.24344771721E+03  0.12700000000E+01 0. -1.
         25    2    1    2    0    0  0.00000000000E+00  0.00000000000E+00 -0.22742802403E+03  0.25951437042E+03  0.12499680934E+03 0.  0.
    9000005    1    3    3    0    0 -0.62036870967E+02  0.70880462106E+01 -0.11889895943E+03  0.13430106594E+03  0.10000000000E+01 0.  0.
    9000005    1    3    3    0    0  0.62036870967E+02 -0.70880462106E+01 -0.10852906459E+03  0.12521330449E+03  0.10000000000E+01 0.  0.
<mgrwt>
<rscale>  0 0.12499681E+03</rscale>
<asrwt>0</asrwt>
<pdfrwt beam="1">  1        4 0.24681807E-02 0.12499681E+03</pdfrwt>
<pdfrwt beam="2">  1       -4 0.37457105E-01 0.12499681E+03</pdfrwt>
<totfact> 0.80980013E+03</totfact>
</mgrwt>
</event>
<event>
 5    1  0.3304582E-002  0.1250054E+03  0.7818608E-02  0.1235061E+00
         -4   -1    0    0    0  501 -0.00000000000E+00  0.00000000000E+00  0.39398013174E+03  0.39398217867E+03  0.12700000000E+01 0. -1.
          4   -1    0    0  501    0  0.00000000000E+00 -0.00000000000E+00 -0.98729514929E+01  0.99542991305E+01  0.12700000000E+01 0. -1.
         25    2    1    2    0    0  0.00000000000E+00  0.00000000000E+00  0.38410718025E+03  0.40393647780E+03  0.12500540859E+03 0.  0.
    9000005    1    3    3    0    0  0.22148479996E+02  0.22283356039E+02  0.17486248965E+02  0.35970432655E+02  0.10000000000E+01 0.  0.
    9000005    1    3    3    0    0 -0.22148479996E+02 -0.22283356039E+02  0.36662093128E+03  0.36796604514E+03  0.10000000000E+01 0.  0.
<mgrwt>
<rscale>  0 0.12500541E+03</rscale>
<asrwt>0</asrwt>
<pdfrwt beam="2">  1        4 0.15253306E-02 0.12500541E+03</pdfrwt>
<pdfrwt beam="1">  1       -4 0.60618740E-01 0.12500541E+03</pdfrwt>
<totfact> 0.64164064E+03</totfact>
</mgrwt>
</event>
<event>
 5    1  0.3304582E-002  0.1249848E+03  0.7818608E-02  0.1235093E+00
         -4   -1    0    0    0  501 -0.00000000000E+00  0.00000000000E+00  0.55573534972E+01  0.57006208340E+01  0.12700000000E+01 0.  1.
          4   -1    0    0  501    0  0.00000000000E+00 -0.00000000000E+00 -0.69363999947E+03  0.69364116211E+03  0.12700000000E+01 0.  1.
         25    2    1    2    0    0  0.00000000000E+00  0.00000000000E+00 -0.68808264598E+03  0.69934178294E+03  0.12498480577E+03 0.  0.
    9000005    1    3    3    0    0 -0.66577153986E+01  0.29288792070E+02 -0.37458467463E+02  0.48023903422E+02  0.10000000000E+01 0.  0.
    9000005    1    3    3    0    0  0.66577153986E+01 -0.29288792070E+02 -0.65062417851E+03  0.65131787952E+03  0.10000000000E+01 0.  0.
<mgrwt>
<rscale>  0 0.12498481E+03</rscale>
<asrwt>0</asrwt>
<pdfrwt beam="2">  1        4 0.10672489E+00 0.12498481E+03</pdfrwt>
<pdfrwt beam="1">  1       -4 0.86608801E-03 0.12498481E+03</pdfrwt>
<totfact> 0.43135819E+03</totfact>
</mgrwt>
</event>
<event>
 5    1  0.3304582E-002  0.1250017E+03  0.7818608E-02  0.1235067E+00
          4   -1    0    0  501    0  0.00000000000E+00  0.00000000000E+00  0.64764374875E+03  0.64764499395E+03  0.12700000000E+01 0. -1.
         -4   -1    0    0    0  501 -0.00000000000E+00 -0.00000000000E+00 -0.59635301744E+01  0.60972610359E+01  0.12700000000E+01 0. -1.
         25    2    1    2    0    0  0.00000000000E+00  0.00000000000E+00  0.64168021857E+03  0.65374225499E+03  0.12500173218E+03 0.  0.
    9000005    1    3    3    0    0  0.35279468185E+02  0.30629922995E+01  0.59013174612E+03  0.59119413104E+03  0.10000000000E+01 0.  0.
    9000005    1    3    3    0    0 -0.35279468185E+02 -0.30629922995E+01  0.51548472453E+02  0.62548123949E+02  0.10000000000E+01 0.  0.
<mgrwt>
<rscale>  0 0.12500173E+03</rscale>
<asrwt>0</asrwt>
<pdfrwt beam="1">  1        4 0.99647873E-01 0.12500173E+03</pdfrwt>
<pdfrwt beam="2">  1       -4 0.92784905E-03 0.12500173E+03</pdfrwt>
<totfact> 0.45639997E+03</totfact>
</mgrwt>
</event>
<event>
 5    1  0.3304582E-002  0.1250041E+03  0.7818608E-02  0.1235063E+00
          4   -1    0    0  501    0  0.00000000000E+00  0.00000000000E+00  0.15048235373E+02  0.15101731286E+02  0.12700000000E+01 0.  1.
         -4   -1    0    0    0  501 -0.00000000000E+00 -0.00000000000E+00 -0.25908318179E+03  0.25908629448E+03  0.12700000000E+01 0.  1.
         25    2    1    2    0    0  0.00000000000E+00  0.00000000000E+00 -0.24403494641E+03  0.27418802576E+03  0.12500407353E+03 0.  0.
    9000005    1    3    3    0    0 -0.49476935210E+02  0.30818877350E+02 -0.17144200482E+03  0.18108321660E+03  0.10000000000E+01 0.  0.
    9000005    1    3    3    0    0  0.49476935210E+02 -0.30818877350E+02 -0.72592941596E+02  0.93104809159E+02  0.10000000000E+01 0.  0.
<mgrwt>
<rscale>  0 0.12500407E+03</rscale>
<asrwt>0</asrwt>
<pdfrwt beam="1">  1        4 0.23194678E-02 0.12500407E+03</pdfrwt>
<pdfrwt beam="2">  1       -4 0.39863302E-01 0.12500407E+03</pdfrwt>
<totfact> 0.78947946E+03</totfact>
</mgrwt>
</event>
<event>
 5    1  0.3304582E-002  0.1249999E+03  0.7818608E-02  0.1235069E+00
          4   -1    0    0  501    0  0.00000000000E+00  0.00000000000E+00  0.49985335965E+02  0.50001467094E+02  0.12700000000E+01 0.  1.
         -4   -1    0    0    0  501 -0.00000000000E+00 -0.00000000000E+00 -0.78113940718E+02  0.78124264058E+02  0.12700000000E+01 0.  1.
         25    2    1    2    0    0  0.00000000000E+00  0.00000000000E+00 -0.28128604753E+02  0.12812573115E+03  0.12499993831E+03 0.  0.
    9000005    1    3    3    0    0 -0.33548301559E+02 -0.22597265480E+02 -0.62890781079E+02  0.74782185642E+02  0.10000000000E+01 0.  0.
    9000005    1    3    3    0    0  0.33548301559E+02  0.22597265480E+02  0.34762176326E+02  0.53343545510E+02  0.10000000000E+01 0.  0.
<mgrwt>
<rscale>  0 0.12499994E+03</rscale>
<asrwt>0</asrwt>
<pdfrwt beam="1">  1        4 0.76920866E-02 0.12499994E+03</pdfrwt>
<pdfrwt beam="2">  1       -4 0.12019564E-01 0.12499994E+03</pdfrwt>
<totfact> 0.10384788E+04</totfact>
</mgrwt>
</event>
<event>
 5    1  0.3304582E-002  0.1250020E+03  0.7818608E-02  0.1235066E+00
         -4   -1    0    0    0  501 -0.00000000000E+00  0.00000000000E+00  0.99927284136E+01  0.10073108812E+02  0.12700000000E+01 0.  1.
          4   -1    0    0  501    0  0.00000000000E+00 -0.00000000000E+00 -0.38927416763E+03  0.38927623930E+03  0.12700000000E+01 0.  1.
         25    2    1    2    0    0  0.00000000000E+00  0.00000000000E+00 -0.37928143921E+03  0.39934934811E+03  0.12500196680E+03 0.  0.
    9000005    1    3    3    0    0 -0.37708030882E+02  0.25001224625E+02 -0.32736408076E+03  0.33047722795E+03  0.10000000000E+01 0.  0.
    9000005    1    3    3    0    0  0.37708030882E+02 -0.25001224625E+02 -0.51917358456E+02  0.68872120156E+02  0.10000000000E+01 0.  0.
<mgrwt>
<rscale>  0 0.12500197E+03</rscale>
<asrwt>0</asrwt>
<pdfrwt beam="2">  1        4 0.59894664E-01 0.12500197E+03</pdfrwt>
<pdfrwt beam="1">  1       -4 0.15436856E-02 0.12500197E+03</pdfrwt>
<totfact> 0.64613320E+03</totfact>
</mgrwt>
</event>
<event>
 5    1  0.3304582E-002  0.1249965E+03  0.7818608E-02  0.1235075E+00
         -4   -1    0    0    0  501 -0.00000000000E+00  0.00000000000E+00  0.13436673569E+03  0.13437273742E+03  0.12700000000E+01 0.  1.
          4   -1    0    0  501    0  0.00000000000E+00 -0.00000000000E+00 -0.29049412431E+02  0.29077160498E+02  0.12700000000E+01 0.  1.
         25    2    1    2    0    0  0.00000000000E+00  0.00000000000E+00  0.10531732326E+03  0.16344989791E+03  0.12499652215E+03 0.  0.
    9000005    1    3    3    0    0 -0.38094537893E+02 -0.26206052849E+02  0.10762730621E+03  0.11714345080E+03  0.10000000000E+01 0.  0.
    9000005    1    3    3    0    0  0.38094537893E+02  0.26206052849E+02 -0.23099829473E+01  0.46306447115E+02  0.10000000000E+01 0.  0.
<mgrwt>
<rscale>  0 0.12499652E+03</rscale>
<asrwt>0</asrwt>
<pdfrwt beam="2">  1        4 0.44717366E-02 0.12499652E+03</pdfrwt>
<pdfrwt beam="1">  1       -4 0.20674401E-01 0.12499652E+03</pdfrwt>
<totfact> 0.96689320E+03</totfact>
</mgrwt>
</event>
<event>
 5    1  0.3304582E-002  0.1249926E+03  0.7818608E-02  0.1235081E+00
          4   -1    0    0  501    0  0.00000000000E+00  0.00000000000E+00  0.25505350953E+01  0.28492331025E+01  0.12700000000E+01 0. -1.
         -4   -1    0    0    0  501 -0.00000000000E+00 -0.00000000000E+00 -0.14463505934E+04  0.14463511510E+04  0.12700000000E+01 0. -1.
         25    2    1    2    0    0  0.00000000000E+00  0.00000000000E+00 -0.14438000583E+04  0.14492003841E+04  0.12499257919E+03 0.  0.
    9000005    1    3    3    0    0  0.46320591644E+02  0.31954841764E+02 -0.40691125712E+03  0.41078519970E+03  0.10000000000E+01 0.  0.
    9000005    1    3    3    0    0 -0.46320591644E+02 -0.31954841764E+02 -0.10368888012E+04  0.10384151844E+04  0.10000000000E+01 0.  0.
<mgrwt>
<rscale>  0 0.12499258E+03</rscale>
<asrwt>0</asrwt>
<pdfrwt beam="1">  1        4 0.41541083E-03 0.12499258E+03</pdfrwt>
<pdfrwt beam="2">  1       -4 0.22253788E+00 0.12499258E+03</pdfrwt>
<totfact> 0.18952269E+03</totfact>
</mgrwt>
</event>
<event>
 5    1  0.3304582E-002  0.1249995E+03  0.7818608E-02  0.1235070E+00
         -4   -1    0    0    0  501 -0.00000000000E+00  0.00000000000E+00  0.12913467020E+04  0.12913473265E+04  0.12700000000E+01 0.  1.
          4   -1    0    0  501    0  0.00000000000E+00 -0.00000000000E+00 -0.28909672553E+01  0.31576243714E+01  0.12700000000E+01 0.  1.
         25    2    1    2    0    0  0.00000000000E+00  0.00000000000E+00  0.12884557347E+04  0.12945049508E+04  0.12499954976E+03 0.  0.
    9000005    1    3    3    0    0  0.40347524081E+02 -0.43231315461E+02  0.85350071760E+03  0.85554739453E+03  0.10000000000E+01 0.  0.
    9000005    1    3    3    0    0 -0.40347524081E+02  0.43231315461E+02  0.43495501711E+03  0.43895755631E+03  0.10000000000E+01 0.  0.
<mgrwt>
<rscale>  0 0.12499955E+03</rscale>
<asrwt>0</asrwt>
<pdfrwt beam="2">  1        4 0.46532335E-03 0.12499955E+03</pdfrwt>
<pdfrwt beam="1">  1       -4 0.19868970E+00 0.12499955E+03</pdfrwt>
<totfact> 0.22358735E+03</totfact>
</mgrwt>
</event>
<event>
 5    1  0.3304582E-002  0.1249989E+03  0.7818608E-02  0.1235071E+00
          4   -1    0    0  501    0  0.00000000000E+00  0.00000000000E+00  0.41189311174E+03  0.41189506965E+03  0.12700000000E+01 0.  1.
         -4   -1    0    0    0  501 -0.00000000000E+00 -0.00000000000E+00 -0.94389789394E+01  0.95240339888E+01  0.12700000000E+01 0.  1.
         25    2    1    2    0    0  0.00000000000E+00  0.00000000000E+00  0.40245413280E+03  0.42141910364E+03  0.12499892760E+03 0.  0.
    9000005    1    3    3    0    0 -0.53952283756E+02 -0.31355292136E+02  0.18995449081E+03  0.19994427186E+03  0.10000000000E+01 0.  0.
    9000005    1    3    3    0    0  0.53952283756E+02  0.31355292136E+02  0.21249964199E+03  0.22147483178E+03  0.10000000000E+01 0.  0.
<mgrwt>
<rscale>  0 0.12499893E+03</rscale>
<asrwt>0</asrwt>
<pdfrwt beam="1">  1        4 0.63374859E-01 0.12499893E+03</pdfrwt>
<pdfrwt beam="2">  1       -4 0.14588440E-02 0.12499893E+03</pdfrwt>
<totfact> 0.62523054E+03</totfact>
</mgrwt>
</event>
<event>
 5    1  0.3304582E-002  0.1250097E+03  0.7818608E-02  0.1235054E+00
         -4   -1    0    0    0  501 -0.00000000000E+00  0.00000000000E+00  0.29811915504E+02  0.29838954506E+02  0.12700000000E+01 0. -1.
          4   -1    0    0  501    0  0.00000000000E+00 -0.00000000000E+00 -0.13096068674E+03  0.13096684455E+03  0.12700000000E+01 0. -1.
         25    2    1    2    0    0  0.00000000000E+00  0.00000000000E+00 -0.10114877124E+03  0.16080579906E+03  0.12500972397E+03 0.  0.
    9000005    1    3    3    0    0  0.44145907860E+02 -0.17522368554E+02  0.16766662975E+01  0.47536362823E+02  0.10000000000E+01 0.  0.
    9000005    1    3    3    0    0 -0.44145907860E+02  0.17522368554E+02 -0.10282543753E+03  0.11326943623E+03  0.10000000000E+01 0.  0.
<mgrwt>
<rscale>  0 0.12500972E+03</rscale>
<asrwt>0</asrwt>
<pdfrwt beam="2">  1        4 0.20150351E-01 0.12500972E+03</pdfrwt>
<pdfrwt beam="1">  1       -4 0.45890022E-02 0.12500972E+03</pdfrwt>
<totfact> 0.97166421E+03</totfact>
</mgrwt>
</event>
<event>
 5    1  0.3304582E-002  0.1250351E+03  0.7818608E-02  0.1235014E+00
         -4   -1    0    0    0  501 -0.00000000000E+00  0.00000000000E+00  0.51750192705E+02  0.51765773876E+02  0.12700000000E+01 0. -1.
          4   -1    0    0  501    0  0.00000000000E+00 -0.00000000000E+00 -0.75492879562E+02  0.75503561271E+02  0.12700000000E+01 0. -1.
         25    2    1    2    0    0  0.00000000000E+00  0.00000000000E+00 -0.23742686857E+02  0.12726933515E+03  0.12503506904E+03 0.  0.
    9000005    1    3    3    0    0 -0.40645730471E+02 -0.25846182633E+02  0.28682043441E+02  0.56069244494E+02  0.10000000000E+01 0.  0.
    9000005    1    3    3    0    0  0.40645730471E+02  0.25846182633E+02 -0.52424730298E+02  0.71200090653E+02  0.10000000000E+01 0.  0.
<mgrwt>
<rscale>  0 0.12503507E+03</rscale>
<asrwt>0</asrwt>
<pdfrwt beam="2">  1        4 0.11616309E-01 0.12503507E+03</pdfrwt>
<pdfrwt beam="1">  1       -4 0.79635884E-02 0.12503507E+03</pdfrwt>
<totfact> 0.10395068E+04</totfact>
</mgrwt>
</event>
<event>
 5    1  0.3304582E-002  0.1249965E+03  0.7818608E-02  0.1235075E+00
          4   -1    0    0  501    0  0.00000000000E+00  0.00000000000E+00  0.55059065637E+02  0.55073710687E+02  0.12700000000E+01 0.  1.
         -4   -1    0    0    0  501 -0.00000000000E+00 -0.00000000000E+00 -0.70912834267E+02  0.70924205767E+02  0.12700000000E+01 0.  1.
         25    2    1    2    0    0  0.00000000000E+00  0.00000000000E+00 -0.15853768630E+02  0.12599791645E+03  0.12499653184E+03 0.  0.
    9000005    1    3    3    0    0 -0.43124208271E+02  0.44856398943E+02 -0.13738432485E+02  0.63730200002E+02  0.10000000000E+01 0.  0.
    9000005    1    3    3    0    0  0.43124208271E+02 -0.44856398943E+02 -0.21153361453E+01  0.62267716452E+02  0.10000000000E+01 0.  0.
<mgrwt>
<rscale>  0 0.12499653E+03</rscale>
<asrwt>0</asrwt>
<pdfrwt beam="1">  1        4 0.84726268E-02 0.12499653E+03</pdfrwt>
<pdfrwt beam="2">  1       -4 0.10911668E-01 0.12499653E+03</pdfrwt>
<totfact> 0.10431819E+04</totfact>
</mgrwt>
</event>
<event>
 5    1  0.3304582E-002  0.1249990E+03  0.7818608E-02  0.1235071E+00
          4   -1    0    0  501    0  0.00000000000E+00  0.00000000000E+00  0.31305165169E+02  0.31330915503E+02  0.12700000000E+01 0. -1.
         -4   -1    0    0    0  501 -0.00000000000E+00 -0.00000000000E+00 -0.12469740839E+03  0.12470387548E+03  0.12700000000E+01 0. -1.
         25    2    1    2    0    0  0.00000000000E+00  0.00000000000E+00 -0.93392243224E+02  0.15603479098E+03  0.12499897961E+03 0.  0.
    9000005    1    3    3    0    0  0.34094413677E+02  0.16165820821E+02  0.15485982572E+02  0.40799245863E+02  0.10000000000E+01 0.  0.
    9000005    1    3    3    0    0 -0.34094413677E+02 -0.16165820821E+02 -0.10887822580E+03  0.11523554512E+03  0.10000000000E+01 0.  0.
<mgrwt>
<rscale>  0 0.12499898E+03</rscale>
<asrwt>0</asrwt>
<pdfrwt beam="1">  1        4 0.48186576E-02 0.12499898E+03</pdfrwt>
<pdfrwt beam="2">  1       -4 0.19186695E-01 0.12499898E+03</pdfrwt>
<totfact> 0.98114990E+03</totfact>
</mgrwt>
</event>
<event>
 5    1  0.3304582E-002  0.1250052E+03  0.7818608E-02  0.1235061E+00
         -4   -1    0    0    0  501 -0.00000000000E+00  0.00000000000E+00  0.77617752528E+01  0.78649891974E+01  0.12700000000E+01 0.  1.
          4   -1    0    0  501    0  0.00000000000E+00 -0.00000000000E+00 -0.49988100222E+03  0.49988261550E+03  0.12700000000E+01 0.  1.
         25    2    1    2    0    0  0.00000000000E+00  0.00000000000E+00 -0.49211922697E+03  0.50774760470E+03  0.12500518600E+03 0.  0.
    9000005    1    3    3    0    0  0.30338661455E+01 -0.24011551006E+02 -0.12026770927E+02  0.27044447571E+02  0.10000000000E+01 0.  0.
    9000005    1    3    3    0    0 -0.30338661455E+01  0.24011551006E+02 -0.48009245604E+03  0.48070315713E+03  0.10000000000E+01 0.  0.
<mgrwt>
<rscale>  0 0.12500519E+03</rscale>
<asrwt>0</asrwt>
<pdfrwt beam="2">  1        4 0.76912808E-01 0.12500519E+03</pdfrwt>
<pdfrwt beam="1">  1       -4 0.12021833E-02 0.12500519E+03</pdfrwt>
<totfact> 0.55261929E+03</totfact>
</mgrwt>
</event>
<event>
 5    1  0.3304582E-002  0.1249985E+03  0.7818608E-02  0.1235072E+00
          4   -1    0    0  501    0  0.00000000000E+00  0.00000000000E+00  0.79956101501E+03  0.79956202362E+03  0.12700000000E+01 0. -1.
         -4   -1    0    0    0  501 -0.00000000000E+00 -0.00000000000E+00 -0.48018080426E+01  0.49669165966E+01  0.12700000000E+01 0. -1.
         25    2    1    2    0    0  0.00000000000E+00  0.00000000000E+00  0.79475920696E+03  0.80452894022E+03  0.12499847437E+03 0.  0.
    9000005    1    3    3    0    0 -0.17616639163E+02  0.53776696307E+02  0.22674142967E+03  0.23369842740E+03  0.10000000000E+01 0.  0.
    9000005    1    3    3    0    0  0.17616639163E+02 -0.53776696307E+02  0.56801777730E+03  0.57083051282E+03  0.10000000000E+01 0.  0.
<mgrwt>
<rscale>  0 0.12499847E+03</rscale>
<asrwt>0</asrwt>
<pdfrwt beam="1">  1        4 0.12302213E+00 0.12499847E+03</pdfrwt>
<pdfrwt beam="2">  1       -4 0.75151818E-03 0.12499847E+03</pdfrwt>
<totfact> 0.38064618E+03</totfact>
</mgrwt>
</event>
<event>
 5    1  0.3304582E-002  0.1250027E+03  0.7818608E-02  0.1235065E+00
          4   -1    0    0  501    0  0.00000000000E+00  0.00000000000E+00  0.12005982995E+03  0.12006654683E+03  0.12700000000E+01 0.  1.
         -4   -1    0    0    0  501 -0.00000000000E+00 -0.00000000000E+00 -0.32517227918E+02  0.32542019167E+02  0.12700000000E+01 0.  1.
         25    2    1    2    0    0  0.00000000000E+00  0.00000000000E+00  0.87542602035E+02  0.15260856600E+03  0.12500266895E+03 0.  0.
    9000005    1    3    3    0    0  0.57044548023E+02  0.25359282692E+02  0.40266157592E+02  0.74293587375E+02  0.10000000000E+01 0.  0.
    9000005    1    3    3    0    0 -0.57044548023E+02 -0.25359282692E+02  0.47276444443E+02  0.78314978625E+02  0.10000000000E+01 0.  0.
<mgrwt>
<rscale>  0 0.12500267E+03</rscale>
<asrwt>0</asrwt>
<pdfrwt beam="1">  1        4 0.18473167E-01 0.12500267E+03</pdfrwt>
<pdfrwt beam="2">  1       -4 0.50050740E-02 0.12500267E+03</pdfrwt>
<totfact> 0.98780306E+03</totfact>
</mgrwt>
</event>
<event>
 5    1  0.3304582E-002  0.1250012E+03  0.7818608E-02  0.1235067E+00
         -4   -1    0    0    0  501 -0.00000000000E+00  0.00000000000E+00  0.77755890295E+02  0.77766261165E+02  0.12700000000E+01 0.  1.
          4   -1    0    0  501    0  0.00000000000E+00 -0.00000000000E+00 -0.50216579392E+02  0.50232636262E+02  0.12700000000E+01 0.  1.
         25    2    1    2    0    0  0.00000000000E+00  0.00000000000E+00  0.27539310904E+02  0.12799889743E+03  0.12500121638E+03 0.  0.
    9000005    1    3    3    0    0  0.33227832790E+02 -0.33381066098E+02  0.55827015732E+02  0.73048204162E+02  0.10000000000E+01 0.  0.
    9000005    1    3    3    0    0 -0.33227832790E+02  0.33381066098E+02 -0.28287704828E+02  0.54950693265E+02  0.10000000000E+01 0.  0.
<mgrwt>
<rscale>  0 0.12500122E+03</rscale>
<asrwt>0</asrwt>
<pdfrwt beam="2">  1        4 0.77276605E-02 0.12500122E+03</pdfrwt>
<pdfrwt beam="1">  1       -4 0.11964478E-01 0.12500122E+03</pdfrwt>
<totfact> 0.10387226E+04</totfact>
</mgrwt>
</event>
<event>
 5    1  0.3304582E-002  0.1250073E+03  0.7818608E-02  0.1235058E+00
          4   -1    0    0  501    0  0.00000000000E+00  0.00000000000E+00  0.23390461053E+01  0.26615853702E+01  0.12700000000E+01 0. -1.
         -4   -1    0    0    0  501 -0.00000000000E+00 -0.00000000000E+00 -0.15621613709E+04  0.15621618871E+04  0.12700000000E+01 0. -1.
         25    2    1    2    0    0  0.00000000000E+00  0.00000000000E+00 -0.15598223248E+04  0.15648234725E+04  0.12500726055E+03 0.  0.
    9000005    1    3    3    0    0 -0.70823580810E+01  0.19200196738E+02 -0.40732130393E+02  0.45595107162E+02  0.10000000000E+01 0.  0.
    9000005    1    3    3    0    0  0.70823580810E+01 -0.19200196738E+02 -0.15190901944E+04  0.15192283653E+04  0.10000000000E+01 0.  0.
<mgrwt>
<rscale>  0 0.12500726E+03</rscale>
<asrwt>0</asrwt>
<pdfrwt beam="1">  1        4 0.38470492E-03 0.12500726E+03</pdfrwt>
<pdfrwt beam="2">  1       -4 0.24035659E+00 0.12500726E+03</pdfrwt>
<totfact> 0.16688238E+03</totfact>
</mgrwt>
</event>
<event>
 5    1  0.3304582E-002  0.1249983E+03  0.7818608E-02  0.1235072E+00
          4   -1    0    0  501    0  0.00000000000E+00  0.00000000000E+00  0.62030923985E+02  0.62043923396E+02  0.12700000000E+01 0. -1.
         -4   -1    0    0    0  501 -0.00000000000E+00 -0.00000000000E+00 -0.62944891401E+02  0.62957702098E+02  0.12700000000E+01 0. -1.
         25    2    1    2    0    0  0.00000000000E+00  0.00000000000E+00 -0.91396741633E+00  0.12500162549E+03  0.12499828415E+03 0.  0.
    9000005    1    3    3    0    0  0.97487335945E+01  0.13485178688E+02 -0.60693591235E+02  0.62941241392E+02  0.10000000000E+01 0.  0.
    9000005    1    3    3    0    0 -0.97487335945E+01 -0.13485178688E+02  0.59779623819E+02  0.62060384102E+02  0.10000000000E+01 0.  0.
<mgrwt>
<rscale>  0 0.12499828E+03</rscale>
<asrwt>0</asrwt>
<pdfrwt beam="1">  1        4 0.95452045E-02 0.12499828E+03</pdfrwt>
<pdfrwt beam="2">  1       -4 0.96858148E-02 0.12499828E+03</pdfrwt>
<totfact> 0.10453233E+04</totfact>
</mgrwt>
</event>
<event>
 5    1  0.3304582E-002  0.1250006E+03  0.7818608E-02  0.1235068E+00
         -4   -1    0    0    0  501 -0.00000000000E+00  0.00000000000E+00  0.33255040268E+03  0.33255282772E+03  0.12700000000E+01 0. -1.
          4   -1    0    0  501    0  0.00000000000E+00 -0.00000000000E+00 -0.11709642458E+02  0.11778311700E+02  0.12700000000E+01 0. -1.
         25    2    1    2    0    0  0.00000000000E+00  0.00000000000E+00  0.32084076022E+03  0.34433113942E+03  0.12500056061E+03 0.  0.
    9000005    1    3    3    0    0 -0.32154138084E+02  0.13370172141E+00  0.30802826801E+03  0.30970360083E+03  0.10000000000E+01 0.  0.
    9000005    1    3    3    0    0  0.32154138084E+02 -0.13370172141E+00  0.12812492211E+02  0.34627538589E+02  0.10000000000E+01 0.  0.
<mgrwt>
<rscale>  0 0.12500056E+03</rscale>
<asrwt>0</asrwt>
<pdfrwt beam="2">  1        4 0.18069523E-02 0.12500056E+03</pdfrwt>
<pdfrwt beam="1">  1       -4 0.51167069E-01 0.12500056E+03</pdfrwt>
<totfact> 0.70351860E+03</totfact>
</mgrwt>
</event>
<event>
 5    1  0.3304582E-002  0.1250009E+03  0.7818608E-02  0.1235068E+00
          4   -1    0    0  501    0  0.00000000000E+00  0.00000000000E+00  0.43967378679E+03  0.43967562099E+03  0.12700000000E+01 0.  1.
         -4   -1    0    0    0  501 -0.00000000000E+00 -0.00000000000E+00 -0.88373090076E+01  0.89280978095E+01  0.12700000000E+01 0.  1.
         25    2    1    2    0    0  0.00000000000E+00  0.00000000000E+00  0.43083647778E+03  0.44860371880E+03  0.12500090372E+03 0.  0.
    9000005    1    3    3    0    0  0.10699207092E+02  0.33438419953E+02  0.29883485206E+02  0.46115329874E+02  0.10000000000E+01 0.  0.
    9000005    1    3    3    0    0 -0.10699207092E+02 -0.33438419953E+02  0.40095299258E+03  0.40248838892E+03  0.10000000000E+01 0.  0.
<mgrwt>
<rscale>  0 0.12500090E+03</rscale>
<asrwt>0</asrwt>
<pdfrwt beam="1">  1        4 0.67649242E-01 0.12500090E+03</pdfrwt>
<pdfrwt beam="2">  1       -4 0.13667109E-02 0.12500090E+03</pdfrwt>
<totfact> 0.60083750E+03</totfact>
</mgrwt>
</event>
<event>
 5    1  0.3304582E-002  0.1250076E+03  0.7818608E-02  0.1235057E+00
         -4   -1    0    0    0  501 -0.00000000000E+00  0.00000000000E+00  0.26284273509E+02  0.26314937467E+02  0.12700000000E+01 0.  1.
          4   -1    0    0  501    0  0.00000000000E+00 -0.00000000000E+00 -0.14851356350E+03  0.14851899355E+03  0.12700000000E+01 0.  1.
         25    2    1    2    0    0  0.00000000000E+00  0.00000000000E+00 -0.12222929000E+03  0.17483393102E+03  0.12500761617E+03 0.  0.
    9000005    1    3    3    0    0  0.17038043886E+02  0.56471173369E+02 -0.89995964231E+02  0.10760837300E+03  0.10000000000E+01 0.  0.
    9000005    1    3    3    0    0 -0.17038043886E+02 -0.56471173369E+02 -0.32233325765E+02  0.67225558019E+02  0.10000000000E+01 0.  0.
<mgrwt>
<rscale>  0 0.12500762E+03</rscale>
<asrwt>0</asrwt>
<pdfrwt beam="2">  1        4 0.22851016E-01 0.12500762E+03</pdfrwt>
<pdfrwt beam="1">  1       -4 0.40465109E-02 0.12500762E+03</pdfrwt>
<totfact> 0.94539111E+03</totfact>
</mgrwt>
</event>
<event>
 5    1  0.3304582E-002  0.1250010E+03  0.7818608E-02  0.1235068E+00
         -4   -1    0    0    0  501 -0.00000000000E+00  0.00000000000E+00  0.25334788222E+03  0.25335106538E+03  0.12700000000E+01 0. -1.
          4   -1    0    0  501    0  0.00000000000E+00 -0.00000000000E+00 -0.15389332154E+02  0.15441646420E+02  0.12700000000E+01 0. -1.
         25    2    1    2    0    0  0.00000000000E+00  0.00000000000E+00  0.23795855007E+03  0.26879271180E+03  0.12500100145E+03 0.  0.
    9000005    1    3    3    0    0 -0.30569019156E+02 -0.31421930207E+02  0.23211104904E+02  0.49614090952E+02  0.10000000000E+01 0.  0.
    9000005    1    3    3    0    0  0.30569019156E+02  0.31421930207E+02  0.21474744517E+03  0.21917862085E+03  0.10000000000E+01 0.  0.
<mgrwt>
<rscale>  0 0.12500100E+03</rscale>
<asrwt>0</asrwt>
<pdfrwt beam="2">  1        4 0.23718589E-02 0.12500100E+03</pdfrwt>
<pdfrwt beam="1">  1       -4 0.38980862E-01 0.12500100E+03</pdfrwt>
<totfact> 0.79685975E+03</totfact>
</mgrwt>
</event>
<event>
 5    1  0.3304582E-002  0.1249981E+03  0.7818608E-02  0.1235072E+00
         -4   -1    0    0    0  501 -0.00000000000E+00  0.00000000000E+00  0.13583608342E+03  0.13584202022E+03  0.12700000000E+01 0. -1.
          4   -1    0    0  501    0  0.00000000000E+00 -0.00000000000E+00 -0.28735609766E+02  0.28763660557E+02  0.12700000000E+01 0. -1.
         25    2    1    2    0    0  0.00000000000E+00  0.00000000000E+00  0.10710047365E+03  0.16460568078E+03  0.12499807474E+03 0.  0.
    9000005    1    3    3    0    0  0.14968085219E+02  0.38921448802E+02  0.11484049698E+03  0.12218126902E+03  0.10000000000E+01 0.  0.
    9000005    1    3    3    0    0 -0.14968085219E+02 -0.38921448802E+02 -0.77400233324E+01  0.42424411760E+02  0.10000000000E+01 0.  0.
<mgrwt>
<rscale>  0 0.12499807E+03</rscale>
<asrwt>0</asrwt>
<pdfrwt beam="2">  1        4 0.44234776E-02 0.12499807E+03</pdfrwt>
<pdfrwt beam="1">  1       -4 0.20900473E-01 0.12499807E+03</pdfrwt>
<totfact> 0.96466295E+03</totfact>
</mgrwt>
</event>
<event>
 5    1  0.3304582E-002  0.1249978E+03  0.7818608E-02  0.1235073E+00
         -4   -1    0    0    0  501 -0.00000000000E+00  0.00000000000E+00  0.78668530999E+01  0.79687061494E+01  0.12700000000E+01 0.  1.
          4   -1    0    0  501    0  0.00000000000E+00 -0.00000000000E+00 -0.49323156169E+03  0.49323319672E+03  0.12700000000E+01 0.  1.
         25    2    1    2    0    0  0.00000000000E+00  0.00000000000E+00 -0.48536470859E+03  0.50120190287E+03  0.12499778836E+03 0.  0.
    9000005    1    3    3    0    0 -0.52223967213E+02  0.22276458770E+02 -0.13800509010E+03  0.14923132466E+03  0.10000000000E+01 0.  0.
    9000005    1    3    3    0    0  0.52223967213E+02 -0.22276458770E+02 -0.34735961849E+03  0.35197057821E+03  0.10000000000E+01 0.  0.
<mgrwt>
<rscale>  0 0.12499779E+03</rscale>
<asrwt>0</asrwt>
<pdfrwt beam="2">  1        4 0.75889715E-01 0.12499779E+03</pdfrwt>
<pdfrwt beam="1">  1       -4 0.12182461E-02 0.12499779E+03</pdfrwt>
<totfact> 0.55773957E+03</totfact>
</mgrwt>
</event>
<event>
 5    1  0.3304582E-002  0.1250077E+03  0.7818608E-02  0.1235057E+00
         -4   -1    0    0    0  501 -0.00000000000E+00  0.00000000000E+00  0.12000836602E+03  0.12001508578E+03  0.12700000000E+01 0.  1.
          4   -1    0    0  501    0  0.00000000000E+00 -0.00000000000E+00 -0.32533799232E+02  0.32558577863E+02  0.12700000000E+01 0.  1.
         25    2    1    2    0    0  0.00000000000E+00  0.00000000000E+00  0.87474566790E+02  0.15257366364E+03  0.12500769177E+03 0.  0.
    9000005    1    3    3    0    0  0.12977396700E+02 -0.43410824449E+02 -0.87989881568E+01  0.46166380593E+02  0.10000000000E+01 0.  0.
    9000005    1    3    3    0    0 -0.12977396700E+02  0.43410824449E+02  0.96273554946E+02  0.10640728305E+03  0.10000000000E+01 0.  0.
<mgrwt>
<rscale>  0 0.12500769E+03</rscale>
<asrwt>0</asrwt>
<pdfrwt beam="2">  1        4 0.50076229E-02 0.12500769E+03</pdfrwt>
<pdfrwt beam="1">  1       -4 0.18465248E-01 0.12500769E+03</pdfrwt>
<totfact> 0.98776034E+03</totfact>
</mgrwt>
</event>
<event>
 5    1  0.3304582E-002  0.1249984E+03  0.7818608E-02  0.1235072E+00
         -4   -1    0    0    0  501 -0.00000000000E+00  0.00000000000E+00  0.23008018197E+02  0.23043042363E+02  0.12700000000E+01 0.  1.
          4   -1    0    0  501    0  0.00000000000E+00 -0.00000000000E+00 -0.16960681509E+03  0.16961156984E+03  0.12700000000E+01 0.  1.
         25    2    1    2    0    0  0.00000000000E+00  0.00000000000E+00 -0.14659879689E+03  0.19265461221E+03  0.12499836941E+03 0.  0.
    9000005    1    3    3    0    0 -0.13316011986E+01  0.12357017351E+02 -0.16769027392E+03  0.16815319505E+03  0.10000000000E+01 0.  0.
    9000005    1    3    3    0    0  0.13316011986E+01 -0.12357017351E+02  0.21091477025E+02  0.24501417156E+02  0.10000000000E+01 0.  0.
<mgrwt>
<rscale>  0 0.12499837E+03</rscale>
<asrwt>0</asrwt>
<pdfrwt beam="2">  1        4 0.26096415E-01 0.12499837E+03</pdfrwt>
<pdfrwt beam="1">  1       -4 0.35427551E-02 0.12499837E+03</pdfrwt>
<totfact> 0.91390799E+03</totfact>
</mgrwt>
</event>
<event>
 5    1  0.3304582E-002  0.1250258E+03  0.7818608E-02  0.1235029E+00
         -4   -1    0    0    0  501 -0.00000000000E+00  0.00000000000E+00  0.17911722142E+03  0.17912172373E+03  0.12700000000E+01 0.  1.
          4   -1    0    0  501    0  0.00000000000E+00 -0.00000000000E+00 -0.21794080386E+02  0.21831052194E+02  0.12700000000E+01 0.  1.
         25    2    1    2    0    0  0.00000000000E+00  0.00000000000E+00  0.15732314104E+03  0.20095277592E+03  0.12502578712E+03 0.  0.
    9000005    1    3    3    0    0  0.25589653357E+02  0.55204913837E+02  0.55679619351E+02  0.82484137152E+02  0.10000000000E+01 0.  0.
    9000005    1    3    3    0    0 -0.25589653357E+02 -0.55204913837E+02  0.10164352169E+03  0.11846863877E+03  0.10000000000E+01 0.  0.
<mgrwt>
<rscale>  0 0.12502579E+03</rscale>
<asrwt>0</asrwt>
<pdfrwt beam="2">  1        4 0.33561257E-02 0.12502579E+03</pdfrwt>
<pdfrwt beam="1">  1       -4 0.27559687E-01 0.12502579E+03</pdfrwt>
<totfact> 0.89923165E+03</totfact>
</mgrwt>
</event>
<event>
 4    1  0.3304582E-002  0.1250993E+03  0.7818608E-02  0.1234914E+00
         -4   -1    0    0    0  501 -0.00000000000E+00  0.00000000000E+00  0.46244784747E+03  0.46244959134E+03  0.12700000000E+01 0.  1.
          4   -1    0    0  501    0  0.00000000000E+00 -0.00000000000E+00 -0.84108991688E+01  0.85062403462E+01  0.12700000000E+01 0.  1.
    9000005    1    1    2    0    0 -0.32045426899E+02  0.80060767391E+01  0.42695158126E+03  0.42822851305E+03  0.10000000000E+01 0.  0.
    9000005    1    1    2    0    0  0.32045426899E+02 -0.80060767391E+01  0.27085367042E+02  0.42727318635E+02  0.10000000000E+01 0.  0.
<mgrwt>
<rscale>  0 0.12509934E+03</rscale>
<asrwt>0</asrwt>
<pdfrwt beam="2">  1        4 0.13014523E-02 0.12509934E+03</pdfrwt>
<pdfrwt beam="1">  1       -4 0.71153304E-01 0.12509934E+03</pdfrwt>
<totfact> 0.58063367E+03</totfact>
</mgrwt>
</event>
<event>
 5    1  0.3304582E-002  0.1249998E+03  0.7818608E-02  0.1235070E+00
         -4   -1    0    0    0  501 -0.00000000000E+00  0.00000000000E+00  0.67305348218E+03  0.67305468038E+03  0.12700000000E+01 0. -1.
          4   -1    0    0  501    0  0.00000000000E+00 -0.00000000000E+00 -0.57330633874E+01  0.58720452828E+01  0.12700000000E+01 0. -1.
         25    2    1    2    0    0  0.00000000000E+00  0.00000000000E+00  0.66732041879E+03  0.67892672566E+03  0.12499982990E+03 0.  0.
    9000005    1    3    3    0    0  0.51838122114E+02 -0.26785924006E+02  0.45517880514E+03  0.45890458843E+03  0.10000000000E+01 0.  0.
    9000005    1    3    3    0    0 -0.51838122114E+02  0.26785924006E+02  0.21214161365E+03  0.22002213723E+03  0.10000000000E+01 0.  0.
<mgrwt>
<rscale>  0 0.12499983E+03</rscale>
<asrwt>0</asrwt>
<pdfrwt beam="2">  1        4 0.89279241E-03 0.12499983E+03</pdfrwt>
<pdfrwt beam="1">  1       -4 0.10355752E+00 0.12499983E+03</pdfrwt>
<totfact> 0.44222865E+03</totfact>
</mgrwt>
</event>
<event>
 5    1  0.3304582E-002  0.1250014E+03  0.7818608E-02  0.1235067E+00
         -4   -1    0    0    0  501 -0.00000000000E+00  0.00000000000E+00  0.27737837393E+03  0.27738128131E+03  0.12700000000E+01 0. -1.
          4   -1    0    0  501    0  0.00000000000E+00 -0.00000000000E+00 -0.14051436444E+02  0.14108712419E+02  0.12700000000E+01 0. -1.
         25    2    1    2    0    0  0.00000000000E+00  0.00000000000E+00  0.26332693748E+03  0.29148999373E+03  0.12500136176E+03 0.  0.
    9000005    1    3    3    0    0 -0.10564656495E+02 -0.24719556034E+02  0.10933891289E+00  0.26901308005E+02  0.10000000000E+01 0.  0.
    9000005    1    3    3    0    0  0.10564656495E+02  0.24719556034E+02  0.26321759857E+03  0.26458868572E+03  0.10000000000E+01 0.  0.
<mgrwt>
<rscale>  0 0.12500136E+03</rscale>
<asrwt>0</asrwt>
<pdfrwt beam="2">  1        4 0.21663891E-02 0.12500136E+03</pdfrwt>
<pdfrwt beam="1">  1       -4 0.42678222E-01 0.12500136E+03</pdfrwt>
<totfact> 0.76676552E+03</totfact>
</mgrwt>
</event>
<event>
 5    1  0.3304582E-002  0.1250029E+03  0.7818608E-02  0.1235065E+00
          4   -1    0    0  501    0  0.00000000000E+00  0.00000000000E+00  0.89680268387E+02  0.89689260438E+02  0.12700000000E+01 0. -1.
         -4   -1    0    0    0  501 -0.00000000000E+00 -0.00000000000E+00 -0.43539093890E+02  0.43557612386E+02  0.12700000000E+01 0. -1.
         25    2    1    2    0    0  0.00000000000E+00  0.00000000000E+00  0.46141174497E+02  0.13324687282E+03  0.12500288450E+03 0.  0.
    9000005    1    3    3    0    0 -0.37339542267E+02 -0.22964915932E+02  0.70547896559E+02  0.83064038485E+02  0.10000000000E+01 0.  0.
    9000005    1    3    3    0    0  0.37339542267E+02  0.22964915932E+02 -0.24406722062E+02  0.50182834339E+02  0.10000000000E+01 0.  0.
<mgrwt>
<rscale>  0 0.12500288E+03</rscale>
<asrwt>0</asrwt>
<pdfrwt beam="1">  1        4 0.13799080E-01 0.12500288E+03</pdfrwt>
<pdfrwt beam="2">  1       -4 0.67004384E-02 0.12500288E+03</pdfrwt>
<totfact> 0.10274487E+04</totfact>
</mgrwt>
</event>
<event>
 5    1  0.3304582E-002  0.1249987E+03  0.7818608E-02  0.1235071E+00
          4   -1    0    0  501    0  0.00000000000E+00  0.00000000000E+00  0.11071632393E+02  0.11144233659E+02  0.12700000000E+01 0. -1.
         -4   -1    0    0    0  501 -0.00000000000E+00 -0.00000000000E+00 -0.35158226147E+03  0.35158455523E+03  0.12700000000E+01 0. -1.
         25    2    1    2    0    0  0.00000000000E+00  0.00000000000E+00 -0.34051062907E+03  0.36272878889E+03  0.12499874311E+03 0.  0.
    9000005    1    3    3    0    0 -0.54156814661E+02 -0.23565827367E+02 -0.22950320241E+03  0.23698318234E+03  0.10000000000E+01 0.  0.
    9000005    1    3    3    0    0  0.54156814661E+02  0.23565827367E+02 -0.11100742666E+03  0.12574560655E+03  0.10000000000E+01 0.  0.
<mgrwt>
<rscale>  0 0.12499874E+03</rscale>
<asrwt>0</asrwt>
<pdfrwt beam="1">  1        4 0.17090895E-02 0.12499874E+03</pdfrwt>
<pdfrwt beam="2">  1       -4 0.54095331E-01 0.12499874E+03</pdfrwt>
<totfact> 0.68348469E+03</totfact>
</mgrwt>
</event>
<event>
 5    1  0.3304582E-002  0.1250003E+03  0.7818608E-02  0.1235069E+00
          4   -1    0    0  501    0  0.00000000000E+00  0.00000000000E+00  0.14032214889E+02  0.14089569003E+02  0.12700000000E+01 0.  1.
         -4   -1    0    0    0  501 -0.00000000000E+00 -0.00000000000E+00 -0.27775222335E+03  0.27775512682E+03  0.12700000000E+01 0.  1.
         25    2    1    2    0    0  0.00000000000E+00  0.00000000000E+00 -0.26372000846E+03  0.29184469583E+03  0.12500033448E+03 0.  0.
    9000005    1    3    3    0    0  0.59983167002E+02 -0.50129202111E+01 -0.92641657153E+02  0.11048342108E+03  0.10000000000E+01 0.  0.
    9000005    1    3    3    0    0 -0.59983167002E+02  0.50129202111E+01 -0.17107835131E+03  0.18136127475E+03  0.10000000000E+01 0.  0.
<mgrwt>
<rscale>  0 0.12500033E+03</rscale>
<asrwt>0</asrwt>
<pdfrwt beam="1">  1        4 0.21634377E-02 0.12500033E+03</pdfrwt>
<pdfrwt beam="2">  1       -4 0.42735742E-01 0.12500033E+03</pdfrwt>
<totfact> 0.76632779E+03</totfact>
</mgrwt>
</event>
<event>
 5    1  0.3304582E-002  0.1250120E+03  0.7818608E-02  0.1235050E+00
         -4   -1    0    0    0  501 -0.00000000000E+00  0.00000000000E+00  0.36304883786E+03  0.36305105918E+03  0.12700000000E+01 0.  1.
          4   -1    0    0  501    0  0.00000000000E+00 -0.00000000000E+00 -0.10721910533E+02  0.10796863687E+02  0.12700000000E+01 0.  1.
         25    2    1    2    0    0  0.00000000000E+00  0.00000000000E+00  0.35232692733E+03  0.37384792287E+03  0.12501202227E+03 0.  0.
    9000005    1    3    3    0    0 -0.62448542372E+02 -0.23157003463E+01  0.17345790708E+03  0.18437415340E+03  0.10000000000E+01 0.  0.
    9000005    1    3    3    0    0  0.62448542372E+02  0.23157003463E+01  0.17886902024E+03  0.18947376946E+03  0.10000000000E+01 0.  0.
<mgrwt>
<rscale>  0 0.12501202E+03</rscale>
<asrwt>0</asrwt>
<pdfrwt beam="2">  1        4 0.16554614E-02 0.12501202E+03</pdfrwt>
<pdfrwt beam="1">  1       -4 0.55859598E-01 0.12501202E+03</pdfrwt>
<totfact> 0.67160438E+03</totfact>
</mgrwt>
</event>
<event>
 5    1  0.3304582E-002  0.1250425E+03  0.7818608E-02  0.1235003E+00
         -4   -1    0    0    0  501 -0.00000000000E+00  0.00000000000E+00  0.15830986120E+02  0.15881845659E+02  0.12700000000E+01 0.  1.
          4   -1    0    0  501    0  0.00000000000E+00 -0.00000000000E+00 -0.24646650596E+03  0.24646977799E+03  0.12700000000E+01 0.  1.
         25    2    1    2    0    0  0.00000000000E+00  0.00000000000E+00 -0.23063551984E+03  0.26235162365E+03  0.12504251844E+03 0.  0.
    9000005    1    3    3    0    0  0.34102349398E+02 -0.30865125323E+02 -0.20414152424E+03  0.20926153042E+03  0.10000000000E+01 0.  0.
    9000005    1    3    3    0    0 -0.34102349398E+02  0.30865125323E+02 -0.26493995605E+02  0.53090093226E+02  0.10000000000E+01 0.  0.
<mgrwt>
<rscale>  0 0.12504252E+03</rscale>
<asrwt>0</asrwt>
<pdfrwt beam="2">  1        4 0.37922085E-01 0.12504252E+03</pdfrwt>
<pdfrwt beam="1">  1       -4 0.24397005E-02 0.12504252E+03</pdfrwt>
<totfact> 0.80500971E+03</totfact>
</mgrwt>
</event>
<event>
 5    1  0.3304582E-002  0.1249986E+03  0.7818608E-02  0.1235071E+00
          4   -1    0    0  501    0  0.00000000000E+00  0.00000000000E+00  0.79121570169E+02  0.79131762056E+02  0.12700000000E+01 0. -1.
         -4   -1    0    0    0  501 -0.00000000000E+00 -0.00000000000E+00 -0.49347594078E+02  0.49363933609E+02  0.12700000000E+01 0. -1.
         25    2    1    2    0    0  0.00000000000E+00  0.00000000000E+00  0.29773976091E+02  0.12849569566E+03  0.12499861660E+03 0.  0.
    9000005    1    3    3    0    0  0.70082392135E+01  0.72944473086E+01  0.78279411090E+02  0.78936623813E+02  0.10000000000E+01 0.  0.
    9000005    1    3    3    0    0 -0.70082392135E+01 -0.72944473086E+01 -0.48505434999E+02  0.49559071852E+02  0.10000000000E+01 0.  0.
<mgrwt>
<rscale>  0 0.12499862E+03</rscale>
<asrwt>0</asrwt>
<pdfrwt beam="1">  1        4 0.12174590E-01 0.12499862E+03</pdfrwt>
<pdfrwt beam="2">  1       -4 0.75939784E-02 0.12499862E+03</pdfrwt>
<totfact> 0.10377120E+04</totfact>
</mgrwt>
</event>
<event>
 5    1  0.3304582E-002  0.1250028E+03  0.7818608E-02  0.1235065E+00
         -4   -1    0    0    0  501 -0.00000000000E+00  0.00000000000E+00  0.42092329388E+03  0.42092520978E+03  0.12700000000E+01 0. -1.
          4   -1    0    0  501    0  0.00000000000E+00 -0.00000000000E+00 -0.92352209339E+01  0.93221352543E+01  0.12700000000E+01 0. -1.
         25    2    1    2    0    0  0.00000000000E+00  0.00000000000E+00  0.41168807295E+03  0.43024734504E+03  0.12500283399E+03 0.  0.
    9000005    1    3    3    0    0 -0.43891275678E+02  0.32417052809E+02  0.31070162727E+03  0.31545809640E+03  0.10000000000E+01 0.  0.
    9000005    1    3    3    0    0  0.43891275678E+02 -0.32417052809E+02  0.10098644568E+03  0.11478924864E+03  0.10000000000E+01 0.  0.
<mgrwt>
<rscale>  0 0.12500283E+03</rscale>
<asrwt>0</asrwt>
<pdfrwt beam="2">  1        4 0.14276364E-02 0.12500283E+03</pdfrwt>
<pdfrwt beam="1">  1       -4 0.64764261E-01 0.12500283E+03</pdfrwt>
<totfact> 0.61709721E+03</totfact>
</mgrwt>
</event>
<event>
 5    1  0.3304582E-002  0.1250067E+03  0.7818608E-02  0.1235059E+00
         -4   -1    0    0    0  501 -0.00000000000E+00  0.00000000000E+00  0.50151396378E+02  0.50167474111E+02  0.12700000000E+01 0.  1.
          4   -1    0    0  501    0  0.00000000000E+00 -0.00000000000E+00 -0.77863719159E+02  0.77874075669E+02  0.12700000000E+01 0.  1.
         25    2    1    2    0    0  0.00000000000E+00  0.00000000000E+00 -0.27712322781E+02  0.12804154978E+03  0.12500666237E+03 0.  0.
    9000005    1    3    3    0    0 -0.20451839837E+02  0.13050300035E+01  0.46616887547E+02  0.50932455867E+02  0.10000000000E+01 0.  0.
    9000005    1    3    3    0    0  0.20451839837E+02 -0.13050300035E+01 -0.74329210329E+02  0.77109093913E+02  0.10000000000E+01 0.  0.
<mgrwt>
<rscale>  0 0.12500666E+03</rscale>
<asrwt>0</asrwt>
<pdfrwt beam="2">  1        4 0.11981067E-01 0.12500666E+03</pdfrwt>
<pdfrwt beam="1">  1       -4 0.77176329E-02 0.12500666E+03</pdfrwt>
<totfact> 0.10385028E+04</totfact>
</mgrwt>
</event>
<event>
 5    1  0.3304582E-002  0.1249995E+03  0.7818608E-02  0.1235070E+00
         -4   -1    0    0    0  501 -0.00000000000E+00  0.00000000000E+00  0.84561263357E+03  0.84561358726E+03  0.12700000000E+01 0.  1.
          4   -1    0    0  501    0  0.00000000000E+00 -0.00000000000E+00 -0.45311326154E+01  0.47057478448E+01  0.12700000000E+01 0.  1.
         25    2    1    2    0    0  0.00000000000E+00  0.00000000000E+00  0.84108150096E+03  0.85031933511E+03  0.12499952160E+03 0.  0.
    9000005    1    3    3    0    0  0.58560319639E+02  0.16111153438E+02  0.52059646877E+03  0.52412838465E+03  0.10000000000E+01 0.  0.
    9000005    1    3    3    0    0 -0.58560319639E+02 -0.16111153438E+02  0.32048503219E+03  0.32619095046E+03  0.10000000000E+01 0.  0.
<mgrwt>
<rscale>  0 0.12499952E+03</rscale>
<asrwt>0</asrwt>
<pdfrwt beam="2">  1        4 0.71060272E-03 0.12499952E+03</pdfrwt>
<pdfrwt beam="1">  1       -4 0.13010774E+00 0.12499952E+03</pdfrwt>
<totfact> 0.36114639E+03</totfact>
</mgrwt>
</event>
<event>
 5    1  0.3304582E-002  0.1250001E+03  0.7818608E-02  0.1235069E+00
          4   -1    0    0  501    0  0.00000000000E+00  0.00000000000E+00  0.18638293790E+02  0.18681512128E+02  0.12700000000E+01 0.  1.
         -4   -1    0    0    0  501 -0.00000000000E+00 -0.00000000000E+00 -0.20929439242E+03  0.20929824557E+03  0.12700000000E+01 0.  1.
         25    2    1    2    0    0  0.00000000000E+00  0.00000000000E+00 -0.19065609863E+03  0.22797975770E+03  0.12500008790E+03 0.  0.
    9000005    1    3    3    0    0 -0.42198804632E+02 -0.46067610172E+02 -0.92567074520E+02  0.11168091647E+03  0.10000000000E+01 0.  0.
    9000005    1    3    3    0    0  0.42198804632E+02  0.46067610172E+02 -0.98089024114E+02  0.11629884123E+03  0.10000000000E+01 0.  0.
<mgrwt>
<rscale>  0 0.12500009E+03</rscale>
<asrwt>0</asrwt>
<pdfrwt beam="1">  1        4 0.28710509E-02 0.12500009E+03</pdfrwt>
<pdfrwt beam="2">  1       -4 0.32202756E-01 0.12500009E+03</pdfrwt>
<totfact> 0.85620608E+03</totfact>
</mgrwt>
</event>
<event>
 5    1  0.3304582E-002  0.1249979E+03  0.7818608E-02  0.1235073E+00
         -4   -1    0    0    0  501 -0.00000000000E+00  0.00000000000E+00  0.77606361947E+03  0.77606465862E+03  0.12700000000E+01 0.  1.
          4   -1    0    0  501    0  0.00000000000E+00 -0.00000000000E+00 -0.49520770585E+01  0.51123348084E+01  0.12700000000E+01 0.  1.
         25    2    1    2    0    0  0.00000000000E+00  0.00000000000E+00  0.77111154241E+03  0.78117699343E+03  0.12499793689E+03 0.  0.
    9000005    1    3    3    0    0 -0.98724491782E+01 -0.58460387874E+01  0.16562198545E+01  0.11635483939E+02  0.10000000000E+01 0.  0.
    9000005    1    3    3    0    0  0.98724491782E+01  0.58460387874E+01  0.76945532256E+03  0.76954150949E+03  0.10000000000E+01 0.  0.
<mgrwt>
<rscale>  0 0.12499794E+03</rscale>
<asrwt>0</asrwt>
<pdfrwt beam="2">  1        4 0.77426508E-03 0.12499794E+03</pdfrwt>
<pdfrwt beam="1">  1       -4 0.11940687E+00 0.12499794E+03</pdfrwt>
<totfact> 0.39120716E+03</totfact>
</mgrwt>
</event>
<event>
 5    1  0.3304582E-002  0.1250010E+03  0.7818608E-02  0.1235068E+00
         -4   -1    0    0    0  501 -0.00000000000E+00  0.00000000000E+00  0.14503622686E+03  0.14504178709E+03  0.12700000000E+01 0. -1.
          4   -1    0    0  501    0  0.00000000000E+00 -0.00000000000E+00 -0.26912301360E+02  0.26942250546E+02  0.12700000000E+01 0. -1.
         25    2    1    2    0    0  0.00000000000E+00  0.00000000000E+00  0.11812392550E+03  0.17198403763E+03  0.12500098970E+03 0.  0.
    9000005    1    3    3    0    0  0.48375635557E+02  0.16226749375E+01  0.46766714207E+01  0.48638528402E+02  0.10000000000E+01 0.  0.
    9000005    1    3    3    0    0 -0.48375635557E+02 -0.16226749375E+01  0.11344725408E+03  0.12334550923E+03  0.10000000000E+01 0.  0.
<mgrwt>
<rscale>  0 0.12500099E+03</rscale>
<asrwt>0</asrwt>
<pdfrwt beam="2">  1        4 0.41430856E-02 0.12500099E+03</pdfrwt>
<pdfrwt beam="1">  1       -4 0.22315997E-01 0.12500099E+03</pdfrwt>
<totfact> 0.95078015E+03</totfact>
</mgrwt>
</event>
<event>
 5    1  0.3304582E-002  0.1250032E+03  0.7818608E-02  0.1235064E+00
          4   -1    0    0  501    0  0.00000000000E+00  0.00000000000E+00  0.75844699238E+03  0.75844805567E+03  0.12700000000E+01 0. -1.
         -4   -1    0    0    0  501 -0.00000000000E+00 -0.00000000000E+00 -0.50712173227E+01  0.52278241300E+01  0.12700000000E+01 0. -1.
         25    2    1    2    0    0  0.00000000000E+00  0.00000000000E+00  0.75337577505E+03  0.76367587980E+03  0.12500316374E+03 0.  0.
    9000005    1    3    3    0    0  0.19593756465E+02  0.37489853766E+02  0.65771637444E+03  0.65907604541E+03  0.10000000000E+01 0.  0.
    9000005    1    3    3    0    0 -0.19593756465E+02 -0.37489853766E+02  0.95659400612E+02  0.10459983438E+03  0.10000000000E+01 0.  0.
<mgrwt>
<rscale>  0 0.12500316E+03</rscale>
<asrwt>0</asrwt>
<pdfrwt beam="1">  1        4 0.11669634E+00 0.12500316E+03</pdfrwt>
<pdfrwt beam="2">  1       -4 0.79231538E-03 0.12500316E+03</pdfrwt>
<totfact> 0.39925629E+03</totfact>
</mgrwt>
</event>
<event>
 5    1  0.3304582E-002  0.1249696E+03  0.7818608E-02  0.1235117E+00
         -4   -1    0    0    0  501 -0.00000000000E+00  0.00000000000E+00  0.92972151065E+01  0.93835552291E+01  0.12700000000E+01 0.  1.
          4   -1    0    0  501    0  0.00000000000E+00 -0.00000000000E+00 -0.41792005763E+03  0.41792198730E+03  0.12700000000E+01 0.  1.
         25    2    1    2    0    0  0.00000000000E+00  0.00000000000E+00 -0.40862284252E+03  0.42730554253E+03  0.12496959328E+03 0.  0.
    9000005    1    3    3    0    0 -0.16360531338E+02  0.35081024074E+01  0.15101426967E+01  0.16830160401E+02  0.10000000000E+01 0.  0.
    9000005    1    3    3    0    0  0.16360531338E+02 -0.35081024074E+01 -0.41013298522E+03  0.41047538213E+03  0.10000000000E+01 0.  0.
<mgrwt>
<rscale>  0 0.12496959E+03</rscale>
<asrwt>0</asrwt>
<pdfrwt beam="2">  1        4 0.64302169E-01 0.12496959E+03</pdfrwt>
<pdfrwt beam="1">  1       -4 0.14371311E-02 0.12496959E+03</pdfrwt>
<totfact> 0.62022572E+03</totfact>
</mgrwt>
</event>
<event>
 5    1  0.3304582E-002  0.1250028E+03  0.7818608E-02  0.1235065E+00
         -4   -1    0    0    0  501 -0.00000000000E+00  0.00000000000E+00  0.13968158290E+03  0.13968735627E+03  0.12700000000E+01 0.  1.
          4   -1    0    0  501    0  0.00000000000E+00 -0.00000000000E+00 -0.27945890839E+02  0.27974733507E+02  0.12700000000E+01 0.  1.
         25    2    1    2    0    0  0.00000000000E+00  0.00000000000E+00  0.11173569206E+03  0.16766208977E+03  0.12500284584E+03 0.  0.
    9000005    1    3    3    0    0  0.19606363917E+01  0.62342425178E+02  0.61063550905E+02  0.87293638492E+02  0.10000000000E+01 0.  0.
    9000005    1    3    3    0    0 -0.19606363917E+01 -0.62342425178E+02  0.50672141152E+02  0.80368451280E+02  0.10000000000E+01 0.  0.
<mgrwt>
<rscale>  0 0.12500285E+03</rscale>
<asrwt>0</asrwt>
<pdfrwt beam="2">  1        4 0.43020306E-02 0.12500285E+03</pdfrwt>
<pdfrwt beam="1">  1       -4 0.21492137E-01 0.12500285E+03</pdfrwt>
<totfact> 0.95879469E+03</totfact>
</mgrwt>
</event>
<event>
 5    1  0.3304582E-002  0.1250006E+03  0.7818608E-02  0.1235068E+00
         -4   -1    0    0    0  501 -0.00000000000E+00  0.00000000000E+00  0.40349250643E+02  0.40369232436E+02  0.12700000000E+01 0.  1.
          4   -1    0    0  501    0  0.00000000000E+00 -0.00000000000E+00 -0.96763830404E+02  0.96772164254E+02  0.12700000000E+01 0.  1.
         25    2    1    2    0    0  0.00000000000E+00  0.00000000000E+00 -0.56414579761E+02  0.13714139669E+03  0.12500063150E+03 0.  0.
    9000005    1    3    3    0    0 -0.36616603161E+02  0.49493640976E+02 -0.16447385297E+02  0.63733135865E+02  0.10000000000E+01 0.  0.
    9000005    1    3    3    0    0  0.36616603161E+02 -0.49493640976E+02 -0.39967194464E+02  0.73408260825E+02  0.10000000000E+01 0.  0.
<mgrwt>
<rscale>  0 0.12500063E+03</rscale>
<asrwt>0</asrwt>
<pdfrwt beam="2">  1        4 0.14888921E-01 0.12500063E+03</pdfrwt>
<pdfrwt beam="1">  1       -4 0.62097552E-02 0.12500063E+03</pdfrwt>
<totfact> 0.10192985E+04</totfact>
</mgrwt>
</event>
<event>
 5    1  0.3304582E-002  0.1250064E+03  0.7818608E-02  0.1235059E+00
         -4   -1    0    0    0  501 -0.00000000000E+00  0.00000000000E+00  0.18305677617E+03  0.18306118158E+03  0.12700000000E+01 0.  1.
          4   -1    0    0  501    0  0.00000000000E+00 -0.00000000000E+00 -0.21317628339E+02  0.21355425025E+02  0.12700000000E+01 0.  1.
         25    2    1    2    0    0  0.00000000000E+00  0.00000000000E+00  0.16173914783E+03  0.20441660660E+03  0.12500638830E+03 0.  0.
    9000005    1    3    3    0    0  0.25683299822E+02  0.48100935179E+02  0.30939079409E+02  0.62702141028E+02  0.10000000000E+01 0.  0.
    9000005    1    3    3    0    0 -0.25683299822E+02 -0.48100935179E+02  0.13080006842E+03  0.14171446557E+03  0.10000000000E+01 0.  0.
<mgrwt>
<rscale>  0 0.12500639E+03</rscale>
<asrwt>0</asrwt>
<pdfrwt beam="2">  1        4 0.32828815E-02 0.12500639E+03</pdfrwt>
<pdfrwt beam="1">  1       -4 0.28165827E-01 0.12500639E+03</pdfrwt>
<totfact> 0.89383145E+03</totfact>
</mgrwt>
</event>
<event>
 5    1  0.3304582E-002  0.1249957E+03  0.7818608E-02  0.1235076E+00
         -4   -1    0    0    0  501 -0.00000000000E+00  0.00000000000E+00  0.53655987885E+02  0.53671015790E+02  0.12700000000E+01 0. -1.
          4   -1    0    0  501    0  0.00000000000E+00 -0.00000000000E+00 -0.72765945468E+02  0.72777027418E+02  0.12700000000E+01 0. -1.
         25    2    1    2    0    0  0.00000000000E+00  0.00000000000E+00 -0.19109957582E+02  0.12644804321E+03  0.12499566853E+03 0.  0.
    9000005    1    3    3    0    0  0.54022648462E+02 -0.11861191042E+02  0.19866365612E+02  0.58777605279E+02  0.10000000000E+01 0.  0.
    9000005    1    3    3    0    0 -0.54022648462E+02  0.11861191042E+02 -0.38976323194E+02  0.67670437929E+02  0.10000000000E+01 0.  0.
<mgrwt>
<rscale>  0 0.12499567E+03</rscale>
<asrwt>0</asrwt>
<pdfrwt beam="2">  1        4 0.11196769E-01 0.12499567E+03</pdfrwt>
<pdfrwt beam="1">  1       -4 0.82567758E-02 0.12499567E+03</pdfrwt>
<totfact> 0.10422180E+04</totfact>
</mgrwt>
</event>
<event>
 5    1  0.3304582E-002  0.1249650E+03  0.7818608E-02  0.1235124E+00
         -4   -1    0    0    0  501 -0.00000000000E+00  0.00000000000E+00  0.23399560939E+02  0.23433999918E+02  0.12700000000E+01 0. -1.
          4   -1    0    0  501    0  0.00000000000E+00 -0.00000000000E+00 -0.16668374943E+03  0.16668858757E+03  0.12700000000E+01 0. -1.
         25    2    1    2    0    0  0.00000000000E+00  0.00000000000E+00 -0.14328418850E+03  0.19012258749E+03  0.12496495348E+03 0.  0.
    9000005    1    3    3    0    0  0.60935552929E+02  0.12468160415E+02 -0.80573579682E+02  0.10179242790E+03  0.10000000000E+01 0.  0.
    9000005    1    3    3    0    0 -0.60935552929E+02 -0.12468160415E+02 -0.62710608813E+02  0.88330159587E+02  0.10000000000E+01 0.  0.
<mgrwt>
<rscale>  0 0.12496495E+03</rscale>
<asrwt>0</asrwt>
<pdfrwt beam="2">  1        4 0.25646674E-01 0.12496495E+03</pdfrwt>
<pdfrwt beam="1">  1       -4 0.36029539E-02 0.12496495E+03</pdfrwt>
<totfact> 0.91898112E+03</totfact>
</mgrwt>
</event>
<event>
 5    1  0.3304582E-002  0.1249845E+03  0.7818608E-02  0.1235093E+00
         -4   -1    0    0    0  501 -0.00000000000E+00  0.00000000000E+00  0.32716112749E+03  0.32716359247E+03  0.12700000000E+01 0.  1.
          4   -1    0    0  501    0  0.00000000000E+00 -0.00000000000E+00 -0.11900586527E+02  0.11968160247E+02  0.12700000000E+01 0.  1.
         25    2    1    2    0    0  0.00000000000E+00  0.00000000000E+00  0.31526054096E+03  0.33913175272E+03  0.12498454711E+03 0.  0.
    9000005    1    3    3    0    0  0.57820339831E+01  0.57519624569E+02  0.22197509212E+03  0.22938151767E+03  0.10000000000E+01 0.  0.
    9000005    1    3    3    0    0 -0.57820339831E+01 -0.57519624569E+02  0.93285448840E+02  0.10975023505E+03  0.10000000000E+01 0.  0.
<mgrwt>
<rscale>  0 0.12498455E+03</rscale>
<asrwt>0</asrwt>
<pdfrwt beam="2">  1        4 0.18362469E-02 0.12498455E+03</pdfrwt>
<pdfrwt beam="1">  1       -4 0.50337873E-01 0.12498455E+03</pdfrwt>
<totfact> 0.70961254E+03</totfact>
</mgrwt>
</event>
<event>
 5    1  0.3304582E-002  0.1249999E+03  0.7818608E-02  0.1235069E+00
          4   -1    0    0  501    0  0.00000000000E+00  0.00000000000E+00  0.78568507422E+01  0.79588317978E+01  0.12700000000E+01 0. -1.
         -4   -1    0    0    0  501 -0.00000000000E+00 -0.00000000000E+00 -0.49386812634E+03  0.49386975926E+03  0.12700000000E+01 0. -1.
         25    2    1    2    0    0  0.00000000000E+00  0.00000000000E+00 -0.48601127560E+03  0.50182859106E+03  0.12499989919E+03 0.  0.
    9000005    1    3    3    0    0  0.49510372482E+02 -0.19007118112E+01 -0.39589692902E+03  0.39898655127E+03  0.10000000000E+01 0.  0.
    9000005    1    3    3    0    0 -0.49510372482E+02  0.19007118112E+01 -0.90114346579E+02  0.10284203979E+03  0.10000000000E+01 0.  0.
<mgrwt>
<rscale>  0 0.12499990E+03</rscale>
<asrwt>0</asrwt>
<pdfrwt beam="1">  1        4 0.12167170E-02 0.12499990E+03</pdfrwt>
<pdfrwt beam="2">  1       -4 0.75987658E-01 0.12499990E+03</pdfrwt>
<totfact> 0.55722903E+03</totfact>
</mgrwt>
</event>
<event>
 5    1  0.3304582E-002  0.1249981E+03  0.7818608E-02  0.1235072E+00
          4   -1    0    0  501    0  0.00000000000E+00  0.00000000000E+00  0.74372178952E+02  0.74383021598E+02  0.12700000000E+01 0.  1.
         -4   -1    0    0    0  501 -0.00000000000E+00 -0.00000000000E+00 -0.52499049120E+02  0.52514408104E+02  0.12700000000E+01 0.  1.
         25    2    1    2    0    0  0.00000000000E+00  0.00000000000E+00  0.21873129831E+02  0.12689742970E+03  0.12499809541E+03 0.  0.
    9000005    1    3    3    0    0 -0.51927037016E+02  0.34391347822E+02  0.16107982693E+02  0.64340104793E+02  0.10000000000E+01 0.  0.
    9000005    1    3    3    0    0  0.51927037016E+02 -0.34391347822E+02  0.57651471386E+01  0.62557324909E+02  0.10000000000E+01 0.  0.
<mgrwt>
<rscale>  0 0.12499810E+03</rscale>
<asrwt>0</asrwt>
<pdfrwt beam="1">  1        4 0.11443889E-01 0.12499810E+03</pdfrwt>
<pdfrwt beam="2">  1       -4 0.80787924E-02 0.12499810E+03</pdfrwt>
<totfact> 0.10411822E+04</totfact>
</mgrwt>
</event>
<event>
 5    1  0.3304582E-002  0.1250052E+03  0.7818608E-02  0.1235061E+00
          4   -1    0    0  501    0  0.00000000000E+00  0.00000000000E+00  0.68912154016E+02  0.68923855603E+02  0.12700000000E+01 0. -1.
         -4   -1    0    0    0  501 -0.00000000000E+00 -0.00000000000E+00 -0.56665596498E+02  0.56679826450E+02  0.12700000000E+01 0. -1.
         25    2    1    2    0    0  0.00000000000E+00  0.00000000000E+00  0.12246557519E+02  0.12560368205E+03  0.12500522699E+03 0.  0.
    9000005    1    3    3    0    0  0.14509250555E+02 -0.44947675922E+02  0.47243089421E+02  0.66811087556E+02  0.10000000000E+01 0.  0.
    9000005    1    3    3    0    0 -0.14509250555E+02  0.44947675922E+02 -0.34996531902E+02  0.58792594497E+02  0.10000000000E+01 0.  0.
<mgrwt>
<rscale>  0 0.12500523E+03</rscale>
<asrwt>0</asrwt>
<pdfrwt beam="1">  1        4 0.10603865E-01 0.12500523E+03</pdfrwt>
<pdfrwt beam="2">  1       -4 0.87197788E-02 0.12500523E+03</pdfrwt>
<totfact> 0.10438435E+04</totfact>
</mgrwt>
</event>
<event>
 5    1  0.3304582E-002  0.1249818E+03  0.7818608E-02  0.1235098E+00
          4   -1    0    0  501    0  0.00000000000E+00  0.00000000000E+00  0.68965409477E+02  0.68977102029E+02  0.12700000000E+01 0. -1.
         -4   -1    0    0    0  501 -0.00000000000E+00 -0.00000000000E+00 -0.56600616177E+02  0.56614862462E+02  0.12700000000E+01 0. -1.
         25    2    1    2    0    0  0.00000000000E+00  0.00000000000E+00  0.12364793300E+02  0.12559196449E+03  0.12498181240E+03 0.  0.
    9000005    1    3    3    0    0  0.34463028050E+02  0.29054663193E+02  0.49663018748E+02  0.67076741026E+02  0.10000000000E+01 0.  0.
    9000005    1    3    3    0    0 -0.34463028050E+02 -0.29054663193E+02 -0.37298225447E+02  0.58515223465E+02  0.10000000000E+01 0.  0.
<mgrwt>
<rscale>  0 0.12498181E+03</rscale>
<asrwt>0</asrwt>
<pdfrwt beam="1">  1        4 0.10612058E-01 0.12498181E+03</pdfrwt>
<pdfrwt beam="2">  1       -4 0.87097825E-02 0.12498181E+03</pdfrwt>
<totfact> 0.10444209E+04</totfact>
</mgrwt>
</event>
<event>
 5    1  0.3304582E-002  0.1249930E+03  0.7818608E-02  0.1235080E+00
          4   -1    0    0  501    0  0.00000000000E+00  0.00000000000E+00  0.38973423403E+03  0.38973630326E+03  0.12700000000E+01 0. -1.
         -4   -1    0    0    0  501 -0.00000000000E+00 -0.00000000000E+00 -0.99793941567E+01  0.10059881099E+02  0.12700000000E+01 0. -1.
         25    2    1    2    0    0  0.00000000000E+00  0.00000000000E+00  0.37975483988E+03  0.39979618436E+03  0.12499300227E+03 0.  0.
    9000005    1    3    3    0    0  0.81869433975E+01 -0.61910696067E+02  0.19692318031E+03  0.20659065631E+03  0.10000000000E+01 0.  0.
    9000005    1    3    3    0    0 -0.81869433975E+01  0.61910696067E+02  0.18283165957E+03  0.19320552805E+03  0.10000000000E+01 0.  0.
<mgrwt>
<rscale>  0 0.12499300E+03</rscale>
<asrwt>0</asrwt>
<pdfrwt beam="1">  1        4 0.59965471E-01 0.12499300E+03</pdfrwt>
<pdfrwt beam="2">  1       -4 0.15416417E-02 0.12499300E+03</pdfrwt>
<totfact> 0.64582587E+03</totfact>
</mgrwt>
</event>
<event>
 5    1  0.3304582E-002  0.1249993E+03  0.7818608E-02  0.1235070E+00
          4   -1    0    0  501    0  0.00000000000E+00  0.00000000000E+00  0.41919375165E+02  0.41938608874E+02  0.12700000000E+01 0. -1.
         -4   -1    0    0    0  501 -0.00000000000E+00 -0.00000000000E+00 -0.93138902146E+02  0.93147560317E+02  0.12700000000E+01 0. -1.
         25    2    1    2    0    0  0.00000000000E+00  0.00000000000E+00 -0.51219526981E+02  0.13508616919E+03  0.12499933265E+03 0.  0.
    9000005    1    3    3    0    0 -0.12153227864E+02 -0.30852827104E+02  0.31632509858E+02  0.45838996147E+02  0.10000000000E+01 0.  0.
    9000005    1    3    3    0    0  0.12153227864E+02  0.30852827104E+02 -0.82852036839E+02  0.89247173043E+02  0.10000000000E+01 0.  0.
<mgrwt>
<rscale>  0 0.12499933E+03</rscale>
<asrwt>0</asrwt>
<pdfrwt beam="1">  1        4 0.64512802E-02 0.12499933E+03</pdfrwt>
<pdfrwt beam="2">  1       -4 0.14331207E-01 0.12499933E+03</pdfrwt>
<totfact> 0.10236409E+04</totfact>
</mgrwt>
</event>
<event>
 5    1  0.3304582E-002  0.1250080E+03  0.7818608E-02  0.1235057E+00
         -4   -1    0    0    0  501 -0.00000000000E+00  0.00000000000E+00  0.88588500978E+03  0.88588592011E+03  0.12700000000E+01 0. -1.
          4   -1    0    0  501    0  0.00000000000E+00 -0.00000000000E+00 -0.43176288794E+01  0.45005354282E+01  0.12700000000E+01 0. -1.
         25    2    1    2    0    0  0.00000000000E+00  0.00000000000E+00  0.88156738090E+03  0.89038645554E+03  0.12500797231E+03 0.  0.
    9000005    1    3    3    0    0  0.31973409001E+02  0.43321178753E+02  0.21479004187E+03  0.22143799470E+03  0.10000000000E+01 0.  0.
    9000005    1    3    3    0    0 -0.31973409001E+02 -0.43321178753E+02  0.66677733903E+03  0.66894846083E+03  0.10000000000E+01 0.  0.
<mgrwt>
<rscale>  0 0.12500797E+03</rscale>
<asrwt>0</asrwt>
<pdfrwt beam="2">  1        4 0.67839164E-03 0.12500797E+03</pdfrwt>
<pdfrwt beam="1">  1       -4 0.13630388E+00 0.12500797E+03</pdfrwt>
<totfact> 0.34523207E+03</totfact>
</mgrwt>
</event>
<event>
 5    1  0.3304582E-002  0.1249981E+03  0.7818608E-02  0.1235072E+00
         -4   -1    0    0    0  501 -0.00000000000E+00  0.00000000000E+00  0.62576748024E+01  0.63852481496E+01  0.12700000000E+01 0.  1.
          4   -1    0    0  501    0  0.00000000000E+00 -0.00000000000E+00 -0.61778761391E+03  0.61778891929E+03  0.12700000000E+01 0.  1.
         25    2    1    2    0    0  0.00000000000E+00  0.00000000000E+00 -0.61152993910E+03  0.62417416744E+03  0.12499809949E+03 0.  0.
    9000005    1    3    3    0    0 -0.37690447293E+02  0.89681468949E+01 -0.60925351825E+02  0.72207312447E+02  0.10000000000E+01 0.  0.
    9000005    1    3    3    0    0  0.37690447293E+02 -0.89681468949E+01 -0.55060458728E+03  0.55196685499E+03  0.10000000000E+01 0.  0.
<mgrwt>
<rscale>  0 0.12499810E+03</rscale>
<asrwt>0</asrwt>
<pdfrwt beam="2">  1        4 0.95054115E-01 0.12499810E+03</pdfrwt>
<pdfrwt beam="1">  1       -4 0.97263343E-03 0.12499810E+03</pdfrwt>
<totfact> 0.47378368E+03</totfact>
</mgrwt>
</event>
<event>
 5    1  0.3304582E-002  0.1249988E+03  0.7818608E-02  0.1235071E+00
          4   -1    0    0  501    0  0.00000000000E+00  0.00000000000E+00  0.51335533144E+03  0.51335690237E+03  0.12700000000E+01 0.  1.
         -4   -1    0    0    0  501 -0.00000000000E+00 -0.00000000000E+00 -0.75545199020E+01  0.76605268063E+01  0.12700000000E+01 0.  1.
         25    2    1    2    0    0  0.00000000000E+00  0.00000000000E+00  0.50580081154E+03  0.52101742918E+03  0.12499880223E+03 0.  0.
    9000005    1    3    3    0    0  0.56662975583E+02 -0.12164197900E+02  0.35034265393E+03  0.35510510511E+03  0.10000000000E+01 0.  0.
    9000005    1    3    3    0    0 -0.56662975583E+02  0.12164197900E+02  0.15545815761E+03  0.16591232407E+03  0.10000000000E+01 0.  0.
<mgrwt>
<rscale>  0 0.12499880E+03</rscale>
<asrwt>0</asrwt>
<pdfrwt beam="1">  1        4 0.78986032E-01 0.12499880E+03</pdfrwt>
<pdfrwt beam="2">  1       -4 0.11705088E-02 0.12499880E+03</pdfrwt>
<totfact> 0.54271187E+03</totfact>
</mgrwt>
</event>
<event>
 5    1  0.3304582E-002  0.1250012E+03  0.7818608E-02  0.1235067E+00
         -4   -1    0    0    0  501 -0.00000000000E+00  0.00000000000E+00  0.29942988852E+02  0.29969909599E+02  0.12700000000E+01 0. -1.
          4   -1    0    0  501    0  0.00000000000E+00 -0.00000000000E+00 -0.13037013565E+03  0.13037632135E+03  0.12700000000E+01 0. -1.
         25    2    1    2    0    0  0.00000000000E+00  0.00000000000E+00 -0.10042714679E+03  0.16034623095E+03  0.12500120786E+03 0.  0.
    9000005    1    3    3    0    0  0.39332985551E+01 -0.59408768502E+02 -0.74567488952E+02  0.95426322475E+02  0.10000000000E+01 0.  0.
    9000005    1    3    3    0    0 -0.39332985551E+01  0.59408768502E+02 -0.25859657843E+02  0.64919908474E+02  0.10000000000E+01 0.  0.
<mgrwt>
<rscale>  0 0.12500121E+03</rscale>
<asrwt>0</asrwt>
<pdfrwt beam="2">  1        4 0.20059490E-01 0.12500121E+03</pdfrwt>
<pdfrwt beam="1">  1       -4 0.46091604E-02 0.12500121E+03</pdfrwt>
<totfact> 0.97273435E+03</totfact>
</mgrwt>
</event>
<event>
 5    1  0.3304582E-002  0.1250010E+03  0.7818608E-02  0.1235068E+00
          4   -1    0    0  501    0  0.00000000000E+00  0.00000000000E+00  0.20077589503E+03  0.20077991166E+03  0.12700000000E+01 0. -1.
         -4   -1    0    0    0  501 -0.00000000000E+00 -0.00000000000E+00 -0.19431149279E+02  0.19472607999E+02  0.12700000000E+01 0. -1.
         25    2    1    2    0    0  0.00000000000E+00  0.00000000000E+00  0.18134474576E+03  0.22025251966E+03  0.12500102241E+03 0.  0.
    9000005    1    3    3    0    0 -0.19934510035E+02 -0.67757741897E+01 -0.13002136043E+02  0.24765931193E+02  0.10000000000E+01 0.  0.
    9000005    1    3    3    0    0  0.19934510035E+02  0.67757741897E+01  0.19434688180E+03  0.19548658847E+03  0.10000000000E+01 0.  0.
<mgrwt>
<rscale>  0 0.12500102E+03</rscale>
<asrwt>0</asrwt>
<pdfrwt beam="1">  1        4 0.30892096E-01 0.12500102E+03</pdfrwt>
<pdfrwt beam="2">  1       -4 0.29929058E-02 0.12500102E+03</pdfrwt>
<totfact> 0.86826425E+03</totfact>
</mgrwt>
</event>
<event>
 5    1  0.3304582E-002  0.1250041E+03  0.7818608E-02  0.1235063E+00
         -4   -1    0    0    0  501 -0.00000000000E+00  0.00000000000E+00  0.38811555771E+02  0.38832328817E+02  0.12700000000E+01 0. -1.
          4   -1    0    0  501    0  0.00000000000E+00 -0.00000000000E+00 -0.10060152568E+03  0.10060954164E+03  0.12700000000E+01 0. -1.
         25    2    1    2    0    0  0.00000000000E+00  0.00000000000E+00 -0.61789969912E+02  0.13944187046E+03  0.12500413935E+03 0.  0.
    9000005    1    3    3    0    0  0.72545826329E+01  0.39157073905E+02  0.22829921141E+02  0.45914166716E+02  0.10000000000E+01 0.  0.
    9000005    1    3    3    0    0 -0.72545826329E+01 -0.39157073905E+02 -0.84619891053E+02  0.93527703744E+02  0.10000000000E+01 0.  0.
<mgrwt>
<rscale>  0 0.12500414E+03</rscale>
<asrwt>0</asrwt>
<pdfrwt beam="2">  1        4 0.15479372E-01 0.12500414E+03</pdfrwt>
<pdfrwt beam="1">  1       -4 0.59732232E-02 0.12500414E+03</pdfrwt>
<totfact> 0.10144220E+04</totfact>
</mgrwt>
</event>
<event>
 5    1  0.3304582E-002  0.1249879E+03  0.7818608E-02  0.1235088E+00
         -4   -1    0    0    0  501 -0.00000000000E+00  0.00000000000E+00  0.55223306605E+01  0.56664835589E+01  0.12700000000E+01 0.  1.
          4   -1    0    0  501    0  0.00000000000E+00 -0.00000000000E+00 -0.69796188186E+03  0.69796303729E+03  0.12700000000E+01 0.  1.
         25    2    1    2    0    0  0.00000000000E+00  0.00000000000E+00 -0.69243955120E+03  0.70362952085E+03  0.12498788162E+03 0.  0.
    9000005    1    3    3    0    0 -0.25297517116E+02 -0.44048622843E+02 -0.55108142191E+03  0.55341844848E+03  0.10000000000E+01 0.  0.
    9000005    1    3    3    0    0  0.25297517116E+02  0.44048622843E+02 -0.14135812929E+03  0.15021107237E+03  0.10000000000E+01 0.  0.
<mgrwt>
<rscale>  0 0.12498788E+03</rscale>
<asrwt>0</asrwt>
<pdfrwt beam="2">  1        4 0.10738986E+00 0.12498788E+03</pdfrwt>
<pdfrwt beam="1">  1       -4 0.86076744E-03 0.12498788E+03</pdfrwt>
<totfact> 0.42907184E+03</totfact>
</mgrwt>
</event>
<event>
 5    1  0.3304582E-002  0.1249969E+03  0.7818608E-02  0.1235074E+00
         -4   -1    0    0    0  501 -0.00000000000E+00  0.00000000000E+00  0.21396043983E+02  0.21433702390E+02  0.12700000000E+01 0.  1.
          4   -1    0    0  501    0  0.00000000000E+00 -0.00000000000E+00 -0.18235928935E+03  0.18236371161E+03  0.12700000000E+01 0.  1.
         25    2    1    2    0    0  0.00000000000E+00  0.00000000000E+00 -0.16096324536E+03  0.20379741400E+03  0.12499687834E+03 0.  0.
    9000005    1    3    3    0    0  0.18216550646E+01 -0.21026462008E+02  0.15417354552E+02  0.26155790050E+02  0.10000000000E+01 0.  0.
    9000005    1    3    3    0    0 -0.18216550646E+01  0.21026462008E+02 -0.17638059992E+03  0.17764162395E+03  0.10000000000E+01 0.  0.
<mgrwt>
<rscale>  0 0.12499688E+03</rscale>
<asrwt>0</asrwt>
<pdfrwt beam="2">  1        4 0.28058511E-01 0.12499688E+03</pdfrwt>
<pdfrwt beam="1">  1       -4 0.32949362E-02 0.12499688E+03</pdfrwt>
<totfact> 0.89505221E+03</totfact>
</mgrwt>
</event>
<event>
 5    1  0.3304582E-002  0.1249990E+03  0.7818608E-02  0.1235071E+00
          4   -1    0    0  501    0  0.00000000000E+00  0.00000000000E+00  0.16120782741E+03  0.16121282988E+03  0.12700000000E+01 0.  1.
         -4   -1    0    0    0  501 -0.00000000000E+00 -0.00000000000E+00 -0.24208748431E+02  0.24242037880E+02  0.12700000000E+01 0.  1.
         25    2    1    2    0    0  0.00000000000E+00  0.00000000000E+00  0.13699907898E+03  0.18545486776E+03  0.12499904134E+03 0.  0.
    9000005    1    3    3    0    0 -0.36336095104E+02  0.50768019801E+02  0.64440069976E+02  0.89728625646E+02  0.10000000000E+01 0.  0.
    9000005    1    3    3    0    0  0.36336095104E+02 -0.50768019801E+02  0.72559009003E+02  0.95726242115E+02  0.10000000000E+01 0.  0.
<mgrwt>
<rscale>  0 0.12499904E+03</rscale>
<asrwt>0</asrwt>
<pdfrwt beam="1">  1        4 0.24804151E-01 0.12499904E+03</pdfrwt>
<pdfrwt beam="2">  1       -4 0.37273681E-02 0.12499904E+03</pdfrwt>
<totfact> 0.92646211E+03</totfact>
</mgrwt>
</event>
<event>
 5    1  0.3304582E-002  0.1250225E+03  0.7818608E-02  0.1235034E+00
          4   -1    0    0  501    0  0.00000000000E+00  0.00000000000E+00  0.59913343668E+02  0.59926802430E+02  0.12700000000E+01 0. -1.
         -4   -1    0    0    0  501 -0.00000000000E+00 -0.00000000000E+00 -0.65194885088E+02  0.65207253750E+02  0.12700000000E+01 0. -1.
         25    2    1    2    0    0  0.00000000000E+00  0.00000000000E+00 -0.52815414201E+01  0.12513405618E+03  0.12502254731E+03 0.  0.
    9000005    1    3    3    0    0 -0.59390665958E+02  0.10223385462E+01 -0.22109673799E+02  0.63388753376E+02  0.10000000000E+01 0.  0.
    9000005    1    3    3    0    0  0.59390665958E+02 -0.10223385462E+01  0.16828132379E+02  0.61745302804E+02  0.10000000000E+01 0.  0.
<mgrwt>
<rscale>  0 0.12502255E+03</rscale>
<asrwt>0</asrwt>
<pdfrwt beam="1">  1        4 0.92194242E-02 0.12502255E+03</pdfrwt>
<pdfrwt beam="2">  1       -4 0.10031969E-01 0.12502255E+03</pdfrwt>
<totfact> 0.10444628E+04</totfact>
</mgrwt>
</event>
<event>
 5    1  0.3304582E-002  0.1249995E+03  0.7818608E-02  0.1235070E+00
          4   -1    0    0  501    0  0.00000000000E+00  0.00000000000E+00  0.10844918437E+03  0.10845662032E+03  0.12700000000E+01 0.  1.
         -4   -1    0    0    0  501 -0.00000000000E+00 -0.00000000000E+00 -0.35999023813E+02  0.36021418843E+02  0.12700000000E+01 0.  1.
         25    2    1    2    0    0  0.00000000000E+00  0.00000000000E+00  0.72450160559E+02  0.14447803916E+03  0.12499951214E+03 0.  0.
    9000005    1    3    3    0    0 -0.58444163786E+02 -0.22120625204E+02  0.35738575598E+02  0.71995056259E+02  0.10000000000E+01 0.  0.
    9000005    1    3    3    0    0  0.58444163786E+02  0.22120625204E+02  0.36711584961E+02  0.72482982902E+02  0.10000000000E+01 0.  0.
<mgrwt>
<rscale>  0 0.12499951E+03</rscale>
<asrwt>0</asrwt>
<pdfrwt beam="1">  1        4 0.16686784E-01 0.12499951E+03</pdfrwt>
<pdfrwt beam="2">  1       -4 0.55406061E-02 0.12499951E+03</pdfrwt>
<totfact> 0.10041715E+04</totfact>
</mgrwt>
</event>
<event>
 5    1  0.3304582E-002  0.1250021E+03  0.7818608E-02  0.1235066E+00
         -4   -1    0    0    0  501 -0.00000000000E+00  0.00000000000E+00  0.16242457884E+03  0.16242954384E+03  0.12700000000E+01 0. -1.
          4   -1    0    0  501    0  0.00000000000E+00 -0.00000000000E+00 -0.24028314655E+02  0.24061853735E+02  0.12700000000E+01 0. -1.
         25    2    1    2    0    0  0.00000000000E+00  0.00000000000E+00  0.13839626419E+03  0.18649139757E+03  0.12500206170E+03 0.  0.
    9000005    1    3    3    0    0  0.30816268686E+01  0.34048559832E+02 -0.88469503448E+01  0.35328025436E+02  0.10000000000E+01 0.  0.
    9000005    1    3    3    0    0 -0.30816268686E+01 -0.34048559832E+02  0.14724321453E+03  0.15116337214E+03  0.10000000000E+01 0.  0.
<mgrwt>
<rscale>  0 0.12500206E+03</rscale>
<asrwt>0</asrwt>
<pdfrwt beam="2">  1        4 0.36996257E-02 0.12500206E+03</pdfrwt>
<pdfrwt beam="1">  1       -4 0.24991358E-01 0.12500206E+03</pdfrwt>
<totfact> 0.92457137E+03</totfact>
</mgrwt>
</event>
<event>
 5    1  0.3304582E-002  0.1250044E+03  0.7818608E-02  0.1235062E+00
         -4   -1    0    0    0  501 -0.00000000000E+00  0.00000000000E+00  0.86748738596E+03  0.86748831560E+03  0.12700000000E+01 0.  1.
          4   -1    0    0  501    0  0.00000000000E+00 -0.00000000000E+00 -0.44127731678E+01  0.45918914437E+01  0.12700000000E+01 0.  1.
         25    2    1    2    0    0  0.00000000000E+00  0.00000000000E+00  0.86307461279E+03  0.87208020704E+03  0.12500440100E+03 0.  0.
    9000005    1    3    3    0    0  0.20012438838E+02 -0.46954533269E+02  0.68310378354E+03  0.68500876271E+03  0.10000000000E+01 0.  0.
    9000005    1    3    3    0    0 -0.20012438838E+02  0.46954533269E+02  0.17997082925E+03  0.18707144433E+03  0.10000000000E+01 0.  0.
<mgrwt>
<rscale>  0 0.12500440E+03</rscale>
<asrwt>0</asrwt>
<pdfrwt beam="2">  1        4 0.69273747E-03 0.12500440E+03</pdfrwt>
<pdfrwt beam="1">  1       -4 0.13347355E+00 0.12500440E+03</pdfrwt>
<totfact> 0.35237013E+03</totfact>
</mgrwt>
</event>
<event>
 5    1  0.3304582E-002  0.1250002E+03  0.7818608E-02  0.1235069E+00
         -4   -1    0    0    0  501 -0.00000000000E+00  0.00000000000E+00  0.18961707039E+02  0.19004189902E+02  0.12700000000E+01 0.  1.
          4   -1    0    0  501    0  0.00000000000E+00 -0.00000000000E+00 -0.20573295674E+03  0.20573687659E+03  0.12700000000E+01 0.  1.
         25    2    1    2    0    0  0.00000000000E+00  0.00000000000E+00 -0.18677124971E+03  0.22474106650E+03  0.12500018901E+03 0.  0.
    9000005    1    3    3    0    0 -0.34003502480E+02 -0.20537634702E+02 -0.66512313833E+01  0.40289843620E+02  0.10000000000E+01 0.  0.
    9000005    1    3    3    0    0  0.34003502480E+02  0.20537634702E+02 -0.18012001832E+03  0.18445122288E+03  0.10000000000E+01 0.  0.
<mgrwt>
<rscale>  0 0.12500019E+03</rscale>
<asrwt>0</asrwt>
<pdfrwt beam="2">  1        4 0.31654792E-01 0.12500019E+03</pdfrwt>
<pdfrwt beam="1">  1       -4 0.29207553E-02 0.12500019E+03</pdfrwt>
<totfact> 0.86123290E+03</totfact>
</mgrwt>
</event>
<event>
 5    1  0.3304582E-002  0.1249990E+03  0.7818608E-02  0.1235071E+00
         -4   -1    0    0    0  501 -0.00000000000E+00  0.00000000000E+00  0.52900764866E+01  0.54403868644E+01  0.12700000000E+01 0.  1.
          4   -1    0    0  501    0  0.00000000000E+00 -0.00000000000E+00 -0.72790435520E+03  0.72790546311E+03  0.12700000000E+01 0.  1.
         25    2    1    2    0    0  0.00000000000E+00  0.00000000000E+00 -0.72261427871E+03  0.73334584997E+03  0.12499895947E+03 0.  0.
    9000005    1    3    3    0    0 -0.19962788648E+02 -0.56685078143E+02 -0.46181203598E+03  0.46570706200E+03  0.10000000000E+01 0.  0.
    9000005    1    3    3    0    0  0.19962788648E+02  0.56685078143E+02 -0.26080224273E+03  0.26763878797E+03  0.10000000000E+01 0.  0.
<mgrwt>
<rscale>  0 0.12499896E+03</rscale>
<asrwt>0</asrwt>
<pdfrwt beam="2">  1        4 0.11199685E+00 0.12499896E+03</pdfrwt>
<pdfrwt beam="1">  1       -4 0.82550606E-03 0.12499896E+03</pdfrwt>
<totfact> 0.41384620E+03</totfact>
</mgrwt>
</event>
<event>
 5    1  0.3304582E-002  0.1250003E+03  0.7818608E-02  0.1235069E+00
         -4   -1    0    0    0  501 -0.00000000000E+00  0.00000000000E+00  0.21685795255E+02  0.21722951362E+02  0.12700000000E+01 0. -1.
          4   -1    0    0  501    0  0.00000000000E+00 -0.00000000000E+00 -0.17993683523E+03  0.17994131702E+03  0.12700000000E+01 0. -1.
         25    2    1    2    0    0  0.00000000000E+00  0.00000000000E+00 -0.15825103997E+03  0.20166426838E+03  0.12500034196E+03 0.  0.
    9000005    1    3    3    0    0 -0.22825715823E+02 -0.58006489849E+02 -0.86250653653E+02  0.10642340637E+03  0.10000000000E+01 0.  0.
    9000005    1    3    3    0    0  0.22825715823E+02  0.58006489849E+02 -0.72000386318E+02  0.95240862015E+02  0.10000000000E+01 0.  0.
<mgrwt>
<rscale>  0 0.12500034E+03</rscale>
<asrwt>0</asrwt>
<pdfrwt beam="2">  1        4 0.27685792E-01 0.12500034E+03</pdfrwt>
<pdfrwt beam="1">  1       -4 0.33394792E-02 0.12500034E+03</pdfrwt>
<totfact> 0.89854884E+03</totfact>
</mgrwt>
</event>
<event>
 5    1  0.3304582E-002  0.1249945E+03  0.7818608E-02  0.1235078E+00
          4   -1    0    0  501    0  0.00000000000E+00  0.00000000000E+00  0.64430547614E+01  0.65670278405E+01  0.12700000000E+01 0. -1.
         -4   -1    0    0    0  501 -0.00000000000E+00 -0.00000000000E+00 -0.60031873753E+03  0.60032008090E+03  0.12700000000E+01 0. -1.
         25    2    1    2    0    0  0.00000000000E+00  0.00000000000E+00 -0.59387568277E+03  0.60688710874E+03  0.12499454456E+03 0.  0.
    9000005    1    3    3    0    0 -0.61005554063E+02  0.61959555123E+01 -0.35537154824E+03  0.36062446505E+03  0.10000000000E+01 0.  0.
    9000005    1    3    3    0    0  0.61005554063E+02 -0.61959555123E+01 -0.23850413453E+03  0.24626264369E+03  0.10000000000E+01 0.  0.
<mgrwt>
<rscale>  0 0.12499454E+03</rscale>
<asrwt>0</asrwt>
<pdfrwt beam="1">  1        4 0.10008794E-02 0.12499454E+03</pdfrwt>
<pdfrwt beam="2">  1       -4 0.92366325E-01 0.12499454E+03</pdfrwt>
<totfact> 0.48441553E+03</totfact>
</mgrwt>
</event>
<event>
 5    1  0.3304582E-002  0.1250008E+03  0.7818608E-02  0.1235068E+00
          4   -1    0    0  501    0  0.00000000000E+00  0.00000000000E+00  0.11835080958E+03  0.11835762345E+03  0.12700000000E+01 0.  1.
         -4   -1    0    0    0  501 -0.00000000000E+00 -0.00000000000E+00 -0.32986139848E+02  0.33010578942E+02  0.12700000000E+01 0.  1.
         25    2    1    2    0    0  0.00000000000E+00  0.00000000000E+00  0.85364669731E+02  0.15136820239E+03  0.12500082342E+03 0.  0.
    9000005    1    3    3    0    0 -0.60973691888E+02 -0.13671740598E+02  0.41749150028E+02  0.75157828079E+02  0.10000000000E+01 0.  0.
    9000005    1    3    3    0    0  0.60973691888E+02  0.13671740598E+02  0.43615519703E+02  0.76210374309E+02  0.10000000000E+01 0.  0.
<mgrwt>
<rscale>  0 0.12500082E+03</rscale>
<asrwt>0</asrwt>
<pdfrwt beam="1">  1        4 0.18210221E-01 0.12500082E+03</pdfrwt>
<pdfrwt beam="2">  1       -4 0.50771948E-02 0.12500082E+03</pdfrwt>
<totfact> 0.99029829E+03</totfact>
</mgrwt>
</event>
<event>
 5    1  0.3304582E-002  0.1250020E+03  0.7818608E-02  0.1235066E+00
          4   -1    0    0  501    0  0.00000000000E+00  0.00000000000E+00  0.16803465111E+03  0.16803945035E+03  0.12700000000E+01 0. -1.
         -4   -1    0    0    0  501 -0.00000000000E+00 -0.00000000000E+00 -0.23224957541E+02  0.23259655044E+02  0.12700000000E+01 0. -1.
         25    2    1    2    0    0  0.00000000000E+00  0.00000000000E+00  0.14480969357E+03  0.19129910539E+03  0.12500200147E+03 0.  0.
    9000005    1    3    3    0    0  0.17263846103E+02 -0.59824438715E+02  0.64253391393E+02  0.89479059871E+02  0.10000000000E+01 0.  0.
    9000005    1    3    3    0    0 -0.17263846103E+02  0.59824438715E+02  0.80556302176E+02  0.10182004552E+03  0.10000000000E+01 0.  0.
<mgrwt>
<rscale>  0 0.12500200E+03</rscale>
<asrwt>0</asrwt>
<pdfrwt beam="1">  1        4 0.25854524E-01 0.12500200E+03</pdfrwt>
<pdfrwt beam="2">  1       -4 0.35761085E-02 0.12500200E+03</pdfrwt>
<totfact> 0.91617657E+03</totfact>
</mgrwt>
</event>
<event>
 5    1  0.3304582E-002  0.1249907E+03  0.7818608E-02  0.1235084E+00
         -4   -1    0    0    0  501 -0.00000000000E+00  0.00000000000E+00  0.23600135742E+02  0.23634282452E+02  0.12700000000E+01 0.  1.
          4   -1    0    0  501    0  0.00000000000E+00 -0.00000000000E+00 -0.16533725143E+03  0.16534212896E+03  0.12700000000E+01 0.  1.
         25    2    1    2    0    0  0.00000000000E+00  0.00000000000E+00 -0.14173711568E+03  0.18897641141E+03  0.12499069609E+03 0.  0.
    9000005    1    3    3    0    0  0.27307732481E+02 -0.48075363262E+02 -0.26848051915E+02  0.61471706481E+02  0.10000000000E+01 0.  0.
    9000005    1    3    3    0    0 -0.27307732481E+02  0.48075363262E+02 -0.11488906377E+03  0.12750470493E+03  0.10000000000E+01 0.  0.
<mgrwt>
<rscale>  0 0.12499070E+03</rscale>
<asrwt>0</asrwt>
<pdfrwt beam="2">  1        4 0.25439501E-01 0.12499070E+03</pdfrwt>
<pdfrwt beam="1">  1       -4 0.36337921E-02 0.12499070E+03</pdfrwt>
<totfact> 0.92044905E+03</totfact>
</mgrwt>
</event>
<event>
 5    1  0.3304582E-002  0.1250003E+03  0.7818608E-02  0.1235069E+00
          4   -1    0    0  501    0  0.00000000000E+00  0.00000000000E+00  0.37694646479E+02  0.37716034696E+02  0.12700000000E+01 0. -1.
         -4   -1    0    0    0  501 -0.00000000000E+00 -0.00000000000E+00 -0.10357454321E+03  0.10358232910E+03  0.12700000000E+01 0. -1.
         25    2    1    2    0    0  0.00000000000E+00  0.00000000000E+00 -0.65879896734E+02  0.14129836380E+03  0.12500026727E+03 0.  0.
    9000005    1    3    3    0    0  0.45024119936E+02 -0.21154109226E+02  0.98148781407E+01  0.50714884858E+02  0.10000000000E+01 0.  0.
    9000005    1    3    3    0    0 -0.45024119936E+02  0.21154109226E+02 -0.75694774875E+02  0.90583478938E+02  0.10000000000E+01 0.  0.
<mgrwt>
<rscale>  0 0.12500027E+03</rscale>
<asrwt>0</asrwt>
<pdfrwt beam="1">  1        4 0.58014206E-02 0.12500027E+03</pdfrwt>
<pdfrwt beam="2">  1       -4 0.15936789E-01 0.12500027E+03</pdfrwt>
<totfact> 0.10106686E+04</totfact>
</mgrwt>
</event>
<event>
 5    1  0.3304582E-002  0.1249964E+03  0.7818608E-02  0.1235075E+00
          4   -1    0    0  501    0  0.00000000000E+00  0.00000000000E+00  0.49333653048E+03  0.49333816516E+03  0.12700000000E+01 0. -1.
         -4   -1    0    0    0  501 -0.00000000000E+00 -0.00000000000E+00 -0.78649769655E+01  0.79668540007E+01  0.12700000000E+01 0. -1.
         25    2    1    2    0    0  0.00000000000E+00  0.00000000000E+00  0.48547155352E+03  0.50130501917E+03  0.12499637181E+03 0.  0.
    9000005    1    3    3    0    0 -0.20915044729E+02  0.20028131186E+02  0.46482279005E+03  0.46572501681E+03  0.10000000000E+01 0.  0.
    9000005    1    3    3    0    0  0.20915044729E+02 -0.20028131186E+02  0.20648763469E+02  0.35580002355E+02  0.10000000000E+01 0.  0.
<mgrwt>
<rscale>  0 0.12499637E+03</rscale>
<asrwt>0</asrwt>
<pdfrwt beam="1">  1        4 0.75905901E-01 0.12499637E+03</pdfrwt>
<pdfrwt beam="2">  1       -4 0.12179587E-02 0.12499637E+03</pdfrwt>
<totfact> 0.55767697E+03</totfact>
</mgrwt>
</event>
<event>
 5    1  0.3304582E-002  0.1250002E+03  0.7818608E-02  0.1235069E+00
          4   -1    0    0  501    0  0.00000000000E+00  0.00000000000E+00  0.28465090349E+02  0.28493407458E+02  0.12700000000E+01 0. -1.
         -4   -1    0    0    0  501 -0.00000000000E+00 -0.00000000000E+00 -0.13713052047E+03  0.13713640124E+03  0.12700000000E+01 0. -1.
         25    2    1    2    0    0  0.00000000000E+00  0.00000000000E+00 -0.10866543012E+03  0.16562980870E+03  0.12500023130E+03 0.  0.
    9000005    1    3    3    0    0  0.32849025237E+02 -0.44875202960E+01  0.15857535300E+02  0.36764897977E+02  0.10000000000E+01 0.  0.
    9000005    1    3    3    0    0 -0.32849025237E+02  0.44875202960E+01 -0.12452296542E+03  0.12886491072E+03  0.10000000000E+01 0.  0.
<mgrwt>
<rscale>  0 0.12500023E+03</rscale>
<asrwt>0</asrwt>
<pdfrwt beam="1">  1        4 0.43818754E-02 0.12500023E+03</pdfrwt>
<pdfrwt beam="2">  1       -4 0.21099633E-01 0.12500023E+03</pdfrwt>
<totfact> 0.96267749E+03</totfact>
</mgrwt>
</event>
<event>
 5    1  0.3304582E-002  0.1249996E+03  0.7818608E-02  0.1235070E+00
          4   -1    0    0  501    0  0.00000000000E+00  0.00000000000E+00  0.10093247612E+02  0.10172833792E+02  0.12700000000E+01 0. -1.
         -4   -1    0    0    0  501 -0.00000000000E+00 -0.00000000000E+00 -0.38541335016E+03  0.38541544259E+03  0.12700000000E+01 0. -1.
         25    2    1    2    0    0  0.00000000000E+00  0.00000000000E+00 -0.37532010255E+03  0.39558827638E+03  0.12499962011E+03 0.  0.
    9000005    1    3    3    0    0  0.50405920496E+02 -0.35922330593E+02 -0.21489419179E+03  0.22363292316E+03  0.10000000000E+01 0.  0.
    9000005    1    3    3    0    0 -0.50405920496E+02  0.35922330593E+02 -0.16042591076E+03  0.17195535322E+03  0.10000000000E+01 0.  0.
<mgrwt>
<rscale>  0 0.12499962E+03</rscale>
<asrwt>0</asrwt>
<pdfrwt beam="1">  1        4 0.15590906E-02 0.12499962E+03</pdfrwt>
<pdfrwt beam="2">  1       -4 0.59300633E-01 0.12499962E+03</pdfrwt>
<totfact> 0.64984692E+03</totfact>
</mgrwt>
</event>
<event>
 5    1  0.3304582E-002  0.1249955E+03  0.7818608E-02  0.1235076E+00
         -4   -1    0    0    0  501 -0.00000000000E+00  0.00000000000E+00  0.49791354048E+03  0.49791516014E+03  0.12700000000E+01 0. -1.
          4   -1    0    0  501    0  0.00000000000E+00 -0.00000000000E+00 -0.77916315848E+01  0.78944551904E+01  0.12700000000E+01 0. -1.
         25    2    1    2    0    0  0.00000000000E+00  0.00000000000E+00  0.49012190890E+03  0.50580961533E+03  0.12499552543E+03 0.  0.
    9000005    1    3    3    0    0  0.14128620492E+02 -0.60178391992E+02  0.20799213972E+03  0.21698568378E+03  0.10000000000E+01 0.  0.
    9000005    1    3    3    0    0 -0.14128620492E+02  0.60178391992E+02  0.28212976917E+03  0.28882393155E+03  0.10000000000E+01 0.  0.
<mgrwt>
<rscale>  0 0.12499553E+03</rscale>
<asrwt>0</asrwt>
<pdfrwt beam="2">  1        4 0.12067466E-02 0.12499553E+03</pdfrwt>
<pdfrwt beam="1">  1       -4 0.76610118E-01 0.12499553E+03</pdfrwt>
<totfact> 0.55421862E+03</totfact>
</mgrwt>
</event>
<event>
 5    1  0.3304582E-002  0.1250051E+03  0.7818608E-02  0.1235061E+00
          4   -1    0    0  501    0  0.00000000000E+00  0.00000000000E+00  0.25284133301E+02  0.25316008705E+02  0.12700000000E+01 0. -1.
         -4   -1    0    0    0  501 -0.00000000000E+00 -0.00000000000E+00 -0.15437495512E+03  0.15438017900E+03  0.12700000000E+01 0. -1.
         25    2    1    2    0    0  0.00000000000E+00  0.00000000000E+00 -0.12909082182E+03  0.17969618770E+03  0.12500511829E+03 0.  0.
    9000005    1    3    3    0    0 -0.45333600111E+02  0.30473442004E+02 -0.20900828099E+02  0.58494534632E+02  0.10000000000E+01 0.  0.
    9000005    1    3    3    0    0  0.45333600111E+02 -0.30473442004E+02 -0.10818999372E+03  0.12120165307E+03  0.10000000000E+01 0.  0.
<mgrwt>
<rscale>  0 0.12500512E+03</rscale>
<asrwt>0</asrwt>
<pdfrwt beam="1">  1        4 0.38927206E-02 0.12500512E+03</pdfrwt>
<pdfrwt beam="2">  1       -4 0.23752846E-01 0.12500512E+03</pdfrwt>
<totfact> 0.93660970E+03</totfact>
</mgrwt>
</event>
<event>
 5    1  0.3304582E-002  0.1250007E+03  0.7818608E-02  0.1235068E+00
          4   -1    0    0  501    0  0.00000000000E+00  0.00000000000E+00  0.14253490367E+03  0.14254056147E+03  0.12700000000E+01 0.  1.
         -4   -1    0    0    0  501 -0.00000000000E+00 -0.00000000000E+00 -0.27384944472E+02  0.27414377318E+02  0.12700000000E+01 0.  1.
         25    2    1    2    0    0  0.00000000000E+00  0.00000000000E+00  0.11514995920E+03  0.16995493879E+03  0.12500067246E+03 0.  0.
    9000005    1    3    3    0    0  0.38994075087E+02  0.27444274248E+02  0.26558359850E+01  0.47767976153E+02  0.10000000000E+01 0.  0.
    9000005    1    3    3    0    0 -0.38994075087E+02 -0.27444274248E+02  0.11249412322E+03  0.12218696264E+03  0.10000000000E+01 0.  0.
<mgrwt>
<rscale>  0 0.12500067E+03</rscale>
<asrwt>0</asrwt>
<pdfrwt beam="1">  1        4 0.21931146E-01 0.12500067E+03</pdfrwt>
<pdfrwt beam="2">  1       -4 0.42157677E-02 0.12500067E+03</pdfrwt>
<totfact> 0.95455595E+03</totfact>
</mgrwt>
</event>
<event>
 5    1  0.3304582E-002  0.1249990E+03  0.7818608E-02  0.1235071E+00
         -4   -1    0    0    0  501 -0.00000000000E+00  0.00000000000E+00  0.12416119675E+03  0.12416769177E+03  0.12700000000E+01 0. -1.
          4   -1    0    0  501    0  0.00000000000E+00 -0.00000000000E+00 -0.31440476074E+02  0.31466115676E+02  0.12700000000E+01 0. -1.
         25    2    1    2    0    0  0.00000000000E+00  0.00000000000E+00  0.92720720679E+02  0.15563380744E+03  0.12499899990E+03 0.  0.
    9000005    1    3    3    0    0  0.23981426374E+02  0.39486190354E+02  0.98756200474E+02  0.10903235837E+03  0.10000000000E+01 0.  0.
    9000005    1    3    3    0    0 -0.23981426374E+02 -0.39486190354E+02 -0.60354797943E+01  0.46601449075E+02  0.10000000000E+01 0.  0.
<mgrwt>
<rscale>  0 0.12499900E+03</rscale>
<asrwt>0</asrwt>
<pdfrwt beam="2">  1        4 0.48394682E-02 0.12499900E+03</pdfrwt>
<pdfrwt beam="1">  1       -4 0.19104195E-01 0.12499900E+03</pdfrwt>
<totfact> 0.98193426E+03</totfact>
</mgrwt>
</event>
<event>
 5    1  0.3304582E-002  0.1249995E+03  0.7818608E-02  0.1235070E+00
         -4   -1    0    0    0  501 -0.00000000000E+00  0.00000000000E+00  0.58637877211E+03  0.58638014742E+03  0.12700000000E+01 0.  1.
          4   -1    0    0  501    0  0.00000000000E+00 -0.00000000000E+00 -0.65996682598E+01  0.67207530187E+01  0.12700000000E+01 0.  1.
         25    2    1    2    0    0  0.00000000000E+00  0.00000000000E+00  0.57977910385E+03  0.59310090044E+03  0.12499947533E+03 0.  0.
    9000005    1    3    3    0    0  0.53268516204E+02  0.18406039968E-01  0.13485040713E+03  0.14499368076E+03  0.10000000000E+01 0.  0.
    9000005    1    3    3    0    0 -0.53268516204E+02 -0.18406039968E-01  0.44492869673E+03  0.44810721968E+03  0.10000000000E+01 0.  0.
<mgrwt>
<rscale>  0 0.12499948E+03</rscale>
<asrwt>0</asrwt>
<pdfrwt beam="2">  1        4 0.10247538E-02 0.12499948E+03</pdfrwt>
<pdfrwt beam="1">  1       -4 0.90221515E-01 0.12499948E+03</pdfrwt>
<totfact> 0.49306594E+03</totfact>
</mgrwt>
</event>
<event>
 5    1  0.3304582E-002  0.1250007E+03  0.7818608E-02  0.1235068E+00
         -4   -1    0    0    0  501 -0.00000000000E+00  0.00000000000E+00  0.12911481789E+03  0.12912106373E+03  0.12700000000E+01 0.  1.
          4   -1    0    0  501    0  0.00000000000E+00 -0.00000000000E+00 -0.30234118591E+02  0.30260780343E+02  0.12700000000E+01 0.  1.
         25    2    1    2    0    0  0.00000000000E+00  0.00000000000E+00  0.98880699301E+02  0.15938184407E+03  0.12500071810E+03 0.  0.
    9000005    1    3    3    0    0 -0.57438334378E+02  0.20283473211E+02  0.67232326005E+02  0.90729086855E+02  0.10000000000E+01 0.  0.
    9000005    1    3    3    0    0  0.57438334378E+02 -0.20283473211E+02  0.31648373295E+02  0.68652757219E+02  0.10000000000E+01 0.  0.
<mgrwt>
<rscale>  0 0.12500072E+03</rscale>
<asrwt>0</asrwt>
<pdfrwt beam="2">  1        4 0.46539343E-02 0.12500072E+03</pdfrwt>
<pdfrwt beam="1">  1       -4 0.19866349E-01 0.12500072E+03</pdfrwt>
<totfact> 0.97460520E+03</totfact>
</mgrwt>
</event>
<event>
 5    1  0.3304582E-002  0.1249919E+03  0.7818608E-02  0.1235082E+00
         -4   -1    0    0    0  501 -0.00000000000E+00  0.00000000000E+00  0.41513573859E+03  0.41513768121E+03  0.12700000000E+01 0.  1.
          4   -1    0    0  501    0  0.00000000000E+00 -0.00000000000E+00 -0.93635169995E+01  0.94492513249E+01  0.12700000000E+01 0.  1.
         25    2    1    2    0    0  0.00000000000E+00  0.00000000000E+00  0.40577222159E+03  0.42458693253E+03  0.12499186957E+03 0.  0.
    9000005    1    3    3    0    0 -0.41348692686E+02  0.42813844386E+02  0.26751705025E+03  0.27406041639E+03  0.10000000000E+01 0.  0.
    9000005    1    3    3    0    0  0.41348692686E+02 -0.42813844386E+02  0.13825517134E+03  0.15052651614E+03  0.10000000000E+01 0.  0.
<mgrwt>
<rscale>  0 0.12499187E+03</rscale>
<asrwt>0</asrwt>
<pdfrwt beam="2">  1        4 0.14472856E-02 0.12499187E+03</pdfrwt>
<pdfrwt beam="1">  1       -4 0.63873774E-01 0.12499187E+03</pdfrwt>
<totfact> 0.62240898E+03</totfact>
</mgrwt>
</event>
<event>
 5    1  0.3304582E-002  0.1249999E+03  0.7818608E-02  0.1235069E+00
         -4   -1    0    0    0  501 -0.00000000000E+00  0.00000000000E+00  0.18553571228E+03  0.18554005883E+03  0.12700000000E+01 0. -1.
          4   -1    0    0  501    0  0.00000000000E+00 -0.00000000000E+00 -0.21030121050E+02  0.21068433529E+02  0.12700000000E+01 0. -1.
         25    2    1    2    0    0  0.00000000000E+00  0.00000000000E+00  0.16450559123E+03  0.20660849236E+03  0.12499991828E+03 0.  0.
    9000005    1    3    3    0    0  0.53598329131E+02 -0.28275872649E+02  0.10747944514E+03  0.12339018189E+03  0.10000000000E+01 0.  0.
    9000005    1    3    3    0    0 -0.53598329131E+02  0.28275872649E+02  0.57026146095E+02  0.83218310474E+02  0.10000000000E+01 0.  0.
<mgrwt>
<rscale>  0 0.12499992E+03</rscale>
<asrwt>0</asrwt>
<pdfrwt beam="2">  1        4 0.32386847E-02 0.12499992E+03</pdfrwt>
<pdfrwt beam="1">  1       -4 0.28547237E-01 0.12499992E+03</pdfrwt>
<totfact> 0.89032934E+03</totfact>
</mgrwt>
</event>
<event>
 5    1  0.3304582E-002  0.1249998E+03  0.7818608E-02  0.1235070E+00
          4   -1    0    0  501    0  0.00000000000E+00  0.00000000000E+00  0.56172711117E+02  0.56187065898E+02  0.12700000000E+01 0. -1.
         -4   -1    0    0    0  501 -0.00000000000E+00 -0.00000000000E+00 -0.69510675916E+02  0.69522276763E+02  0.12700000000E+01 0. -1.
         25    2    1    2    0    0  0.00000000000E+00  0.00000000000E+00 -0.13337964799E+02  0.12570934266E+03  0.12499975011E+03 0.  0.
    9000005    1    3    3    0    0  0.57309831296E+02 -0.24426489943E+02 -0.17253668425E+01  0.62330145715E+02  0.10000000000E+01 0.  0.
    9000005    1    3    3    0    0 -0.57309831296E+02  0.24426489943E+02 -0.11612597957E+02  0.63379196945E+02  0.10000000000E+01 0.  0.
<mgrwt>
<rscale>  0 0.12499975E+03</rscale>
<asrwt>0</asrwt>
<pdfrwt beam="1">  1        4 0.86439522E-02 0.12499975E+03</pdfrwt>
<pdfrwt beam="2">  1       -4 0.10695947E-01 0.12499975E+03</pdfrwt>
<totfact> 0.10437398E+04</totfact>
</mgrwt>
</event>
<event>
 5    1  0.3304582E-002  0.1249985E+03  0.7818608E-02  0.1235072E+00
          4   -1    0    0  501    0  0.00000000000E+00  0.00000000000E+00  0.85176193941E+03  0.85176288621E+03  0.12700000000E+01 0. -1.
         -4   -1    0    0    0  501 -0.00000000000E+00 -0.00000000000E+00 -0.44970778687E+01  0.46729657988E+01  0.12700000000E+01 0. -1.
         25    2    1    2    0    0  0.00000000000E+00  0.00000000000E+00  0.84726486154E+03  0.85643585201E+03  0.12499849202E+03 0.  0.
    9000005    1    3    3    0    0 -0.56407081909E+02  0.25909962215E+02  0.37419147506E+03  0.37930639994E+03  0.10000000000E+01 0.  0.
    9000005    1    3    3    0    0  0.56407081909E+02 -0.25909962215E+02  0.47307338648E+03  0.47712945207E+03  0.10000000000E+01 0.  0.
<mgrwt>
<rscale>  0 0.12499849E+03</rscale>
<asrwt>0</asrwt>
<pdfrwt beam="1">  1        4 0.13105373E+00 0.12499849E+03</pdfrwt>
<pdfrwt beam="2">  1       -4 0.70546173E-03 0.12499849E+03</pdfrwt>
<totfact> 0.35866625E+03</totfact>
</mgrwt>
</event>
<event>
 5    1  0.3304582E-002  0.1249980E+03  0.7818608E-02  0.1235072E+00
          4   -1    0    0  501    0  0.00000000000E+00  0.00000000000E+00  0.13373856292E+02  0.13434021442E+02  0.12700000000E+01 0.  1.
         -4   -1    0    0    0  501 -0.00000000000E+00 -0.00000000000E+00 -0.29135482581E+03  0.29135759373E+03  0.12700000000E+01 0.  1.
         25    2    1    2    0    0  0.00000000000E+00  0.00000000000E+00 -0.27798096952E+03  0.30479161517E+03  0.12499803704E+03 0.  0.
    9000005    1    3    3    0    0  0.13276527651E+02 -0.32706470689E+02 -0.26472979377E+03  0.26707460216E+03  0.10000000000E+01 0.  0.
    9000005    1    3    3    0    0 -0.13276527651E+02  0.32706470689E+02 -0.13251175749E+02  0.37717013007E+02  0.10000000000E+01 0.  0.
<mgrwt>
<rscale>  0 0.12499804E+03</rscale>
<asrwt>0</asrwt>
<pdfrwt beam="1">  1        4 0.20623576E-02 0.12499804E+03</pdfrwt>
<pdfrwt beam="2">  1       -4 0.44828655E-01 0.12499804E+03</pdfrwt>
<totfact> 0.75004961E+03</totfact>
</mgrwt>
</event>
<event>
 5    1  0.3304582E-002  0.1250063E+03  0.7818608E-02  0.1235059E+00
         -4   -1    0    0    0  501 -0.00000000000E+00  0.00000000000E+00  0.22170390824E+02  0.22206736124E+02  0.12700000000E+01 0. -1.
          4   -1    0    0  501    0  0.00000000000E+00 -0.00000000000E+00 -0.17602692815E+03  0.17603150949E+03  0.12700000000E+01 0. -1.
         25    2    1    2    0    0  0.00000000000E+00  0.00000000000E+00 -0.15385653733E+03  0.19823824561E+03  0.12500627163E+03 0.  0.
    9000005    1    3    3    0    0  0.20269560401E+02  0.48069998876E+02 -0.13149687803E+03  0.14147087616E+03  0.10000000000E+01 0.  0.
    9000005    1    3    3    0    0 -0.20269560401E+02 -0.48069998876E+02 -0.22359659299E+02  0.56767369454E+02  0.10000000000E+01 0.  0.
<mgrwt>
<rscale>  0 0.12500627E+03</rscale>
<asrwt>0</asrwt>
<pdfrwt beam="2">  1        4 0.27084213E-01 0.12500627E+03</pdfrwt>
<pdfrwt beam="1">  1       -4 0.34139777E-02 0.12500627E+03</pdfrwt>
<totfact> 0.90420623E+03</totfact>
</mgrwt>
</event>
<event>
 5    1  0.3304582E-002  0.1250000E+03  0.7818608E-02  0.1235069E+00
          4   -1    0    0  501    0  0.00000000000E+00  0.00000000000E+00  0.15061107026E+03  0.15061642469E+03  0.12700000000E+01 0. -1.
         -4   -1    0    0    0  501 -0.00000000000E+00 -0.00000000000E+00 -0.25914626830E+02  0.25945727659E+02  0.12700000000E+01 0. -1.
         25    2    1    2    0    0  0.00000000000E+00  0.00000000000E+00  0.12469644343E+03  0.17656215235E+03  0.12499996255E+03 0.  0.
    9000005    1    3    3    0    0 -0.23470210439E+02 -0.57915541771E+02  0.61737567688E+02  0.87849803760E+02  0.10000000000E+01 0.  0.
    9000005    1    3    3    0    0  0.23470210439E+02  0.57915541771E+02  0.62958875745E+02  0.88712348587E+02  0.10000000000E+01 0.  0.
<mgrwt>
<rscale>  0 0.12499996E+03</rscale>
<asrwt>0</asrwt>
<pdfrwt beam="1">  1        4 0.23173738E-01 0.12499996E+03</pdfrwt>
<pdfrwt beam="2">  1       -4 0.39896700E-02 0.12499996E+03</pdfrwt>
<totfact> 0.94239592E+03</totfact>
</mgrwt>
</event>
<event>
 5    1  0.3304582E-002  0.1250008E+03  0.7818608E-02  0.1235068E+00
          4   -1    0    0  501    0  0.00000000000E+00  0.00000000000E+00  0.43258149012E+03  0.43258335439E+03  0.12700000000E+01 0. -1.
         -4   -1    0    0    0  501 -0.00000000000E+00 -0.00000000000E+00 -0.89836564319E+01  0.90729809262E+01  0.12700000000E+01 0. -1.
         25    2    1    2    0    0  0.00000000000E+00  0.00000000000E+00  0.42359783369E+03  0.44165633532E+03  0.12500077527E+03 0.  0.
    9000005    1    3    3    0    0  0.67185485069E+01  0.59492191602E+02  0.27508600750E+03  0.28152756752E+03  0.10000000000E+01 0.  0.
    9000005    1    3    3    0    0 -0.67185485069E+01 -0.59492191602E+02  0.14851182619E+03  0.16012876779E+03  0.10000000000E+01 0.  0.
<mgrwt>
<rscale>  0 0.12500078E+03</rscale>
<asrwt>0</asrwt>
<pdfrwt beam="1">  1        4 0.66558006E-01 0.12500078E+03</pdfrwt>
<pdfrwt beam="2">  1       -4 0.13891156E-02 0.12500078E+03</pdfrwt>
<totfact> 0.60692407E+03</totfact>
</mgrwt>
</event>
<event>
 5    1  0.3304582E-002  0.1250290E+03  0.7818608E-02  0.1235024E+00
          4   -1    0    0  501    0  0.00000000000E+00  0.00000000000E+00  0.39444165386E+02  0.39464605446E+02  0.12700000000E+01 0. -1.
         -4   -1    0    0    0  501 -0.00000000000E+00 -0.00000000000E+00 -0.99028233117E+02  0.99036376420E+02  0.12700000000E+01 0. -1.
         25    2    1    2    0    0  0.00000000000E+00  0.00000000000E+00 -0.59584067731E+02  0.13850098187E+03  0.12502904003E+03 0.  0.
    9000005    1    3    3    0    0  0.26307470813E+02  0.53516199770E+02 -0.50545690128E+02  0.78178855510E+02  0.10000000000E+01 0.  0.
    9000005    1    3    3    0    0 -0.26307470813E+02 -0.53516199770E+02 -0.90383776030E+01  0.60322126356E+02  0.10000000000E+01 0.  0.
<mgrwt>
<rscale>  0 0.12502904E+03</rscale>
<asrwt>0</asrwt>
<pdfrwt beam="1">  1        4 0.60705319E-02 0.12502904E+03</pdfrwt>
<pdfrwt beam="2">  1       -4 0.15237311E-01 0.12502904E+03</pdfrwt>
<totfact> 0.10158100E+04</totfact>
</mgrwt>
</event>
<event>
 5    1  0.3304582E-002  0.1250001E+03  0.7818608E-02  0.1235069E+00
         -4   -1    0    0    0  501 -0.00000000000E+00  0.00000000000E+00  0.55002284204E+02  0.55016944369E+02  0.12700000000E+01 0. -1.
          4   -1    0    0  501    0  0.00000000000E+00 -0.00000000000E+00 -0.70990116971E+02  0.71001476094E+02  0.12700000000E+01 0. -1.
         25    2    1    2    0    0  0.00000000000E+00  0.00000000000E+00 -0.15987832767E+02  0.12601842046E+03  0.12500012600E+03 0.  0.
    9000005    1    3    3    0    0 -0.24132804471E+02 -0.57541607182E+02 -0.11461275393E+02  0.63449110651E+02  0.10000000000E+01 0.  0.
    9000005    1    3    3    0    0  0.24132804471E+02  0.57541607182E+02 -0.45265573739E+01  0.62569309812E+02  0.10000000000E+01 0.  0.
<mgrwt>
<rscale>  0 0.12500013E+03</rscale>
<asrwt>0</asrwt>
<pdfrwt beam="2">  1        4 0.10923558E-01 0.12500013E+03</pdfrwt>
<pdfrwt beam="1">  1       -4 0.84638914E-02 0.12500013E+03</pdfrwt>
<totfact> 0.10430524E+04</totfact>
</mgrwt>
</event>
<event>
 5    1  0.3304582E-002  0.1249947E+03  0.7818608E-02  0.1235078E+00
          4   -1    0    0  501    0  0.00000000000E+00  0.00000000000E+00  0.56925603442E+02  0.56939768416E+02  0.12700000000E+01 0.  1.
         -4   -1    0    0    0  501 -0.00000000000E+00 -0.00000000000E+00 -0.68585888944E+02  0.68597646186E+02  0.12700000000E+01 0.  1.
         25    2    1    2    0    0  0.00000000000E+00  0.00000000000E+00 -0.11660285502E+02  0.12553741460E+03  0.12499472072E+03 0.  0.
    9000005    1    3    3    0    0 -0.56467564951E+02  0.51024850819E+01 -0.32217753612E+02  0.65219666462E+02  0.10000000000E+01 0.  0.
    9000005    1    3    3    0    0  0.56467564951E+02 -0.51024850819E+01  0.20557468111E+02  0.60317748140E+02  0.10000000000E+01 0.  0.
<mgrwt>
<rscale>  0 0.12499472E+03</rscale>
<asrwt>0</asrwt>
<pdfrwt beam="1">  1        4 0.87597792E-02 0.12499472E+03</pdfrwt>
<pdfrwt beam="2">  1       -4 0.10553669E-01 0.12499472E+03</pdfrwt>
<totfact> 0.10442371E+04</totfact>
</mgrwt>
</event>
<event>
 5    1  0.3304582E-002  0.1249948E+03  0.7818608E-02  0.1235077E+00
          4   -1    0    0  501    0  0.00000000000E+00  0.00000000000E+00  0.15984708567E+02  0.16035080541E+02  0.12700000000E+01 0. -1.
         -4   -1    0    0    0  501 -0.00000000000E+00 -0.00000000000E+00 -0.24391746403E+03  0.24392077025E+03  0.12700000000E+01 0. -1.
         25    2    1    2    0    0  0.00000000000E+00  0.00000000000E+00 -0.22793275547E+03  0.25995585079E+03  0.12499481328E+03 0.  0.
    9000005    1    3    3    0    0 -0.42027045357E+02 -0.28825538087E+02 -0.18917516436E+03  0.19592199213E+03  0.10000000000E+01 0.  0.
    9000005    1    3    3    0    0  0.42027045357E+02  0.28825538087E+02 -0.38757591103E+02  0.64033858665E+02  0.10000000000E+01 0.  0.
<mgrwt>
<rscale>  0 0.12499481E+03</rscale>
<asrwt>0</asrwt>
<pdfrwt beam="1">  1        4 0.24633152E-02 0.12499481E+03</pdfrwt>
<pdfrwt beam="2">  1       -4 0.37529890E-01 0.12499481E+03</pdfrwt>
<totfact> 0.80921601E+03</totfact>
</mgrwt>
</event>
<event>
 5    1  0.3304582E-002  0.1250015E+03  0.7818608E-02  0.1235067E+00
         -4   -1    0    0    0  501 -0.00000000000E+00  0.00000000000E+00  0.14679646302E+02  0.14734480498E+02  0.12700000000E+01 0.  1.
          4   -1    0    0  501    0  0.00000000000E+00 -0.00000000000E+00 -0.26555368503E+03  0.26555672187E+03  0.12700000000E+01 0.  1.
         25    2    1    2    0    0  0.00000000000E+00  0.00000000000E+00 -0.25087403873E+03  0.28029120237E+03  0.12500149927E+03 0.  0.
    9000005    1    3    3    0    0  0.44037584463E+02 -0.23957400127E+02 -0.41775450490E+02  0.65264493638E+02  0.10000000000E+01 0.  0.
    9000005    1    3    3    0    0 -0.44037584463E+02  0.23957400127E+02 -0.20909858824E+03  0.21502670873E+03  0.10000000000E+01 0.  0.
<mgrwt>
<rscale>  0 0.12500150E+03</rscale>
<asrwt>0</asrwt>
<pdfrwt beam="2">  1        4 0.40858861E-01 0.12500150E+03</pdfrwt>
<pdfrwt beam="1">  1       -4 0.22628589E-02 0.12500150E+03</pdfrwt>
<totfact> 0.78136907E+03</totfact>
</mgrwt>
</event>
<event>
 5    1  0.3304582E-002  0.1250004E+03  0.7818608E-02  0.1235069E+00
         -4   -1    0    0    0  501 -0.00000000000E+00  0.00000000000E+00  0.34873462324E+03  0.34873693574E+03  0.12700000000E+01 0.  1.
          4   -1    0    0  501    0  0.00000000000E+00 -0.00000000000E+00 -0.11162932487E+02  0.11234943778E+02  0.12700000000E+01 0.  1.
         25    2    1    2    0    0  0.00000000000E+00  0.00000000000E+00  0.33757169075E+03  0.35997187951E+03  0.12500043057E+03 0.  0.
    9000005    1    3    3    0    0  0.84030474445E+01  0.45765797509E+02  0.28891580838E+03  0.29264050260E+03  0.10000000000E+01 0.  0.
    9000005    1    3    3    0    0 -0.84030474445E+01 -0.45765797509E+02  0.48655882371E+02  0.67331376915E+02  0.10000000000E+01 0.  0.
<mgrwt>
<rscale>  0 0.12500043E+03</rscale>
<asrwt>0</asrwt>
<pdfrwt beam="2">  1        4 0.17230915E-02 0.12500043E+03</pdfrwt>
<pdfrwt beam="1">  1       -4 0.53657197E-01 0.12500043E+03</pdfrwt>
<totfact> 0.68640626E+03</totfact>
</mgrwt>
</event>
<event>
 5    1  0.3304582E-002  0.1249982E+03  0.7818608E-02  0.1235072E+00
         -4   -1    0    0    0  501 -0.00000000000E+00  0.00000000000E+00  0.19908482086E+02  0.19948948819E+02  0.12700000000E+01 0.  1.
          4   -1    0    0  501    0  0.00000000000E+00 -0.00000000000E+00 -0.19596284378E+03  0.19596695905E+03  0.12700000000E+01 0.  1.
         25    2    1    2    0    0  0.00000000000E+00  0.00000000000E+00 -0.17605436169E+03  0.21591590787E+03  0.12499816400E+03 0.  0.
    9000005    1    3    3    0    0  0.87701987239E+01  0.33559660118E+02 -0.17781576297E+03  0.18117012097E+03  0.10000000000E+01 0.  0.
    9000005    1    3    3    0    0 -0.87701987239E+01 -0.33559660118E+02  0.17614012789E+01  0.34745786901E+02  0.10000000000E+01 0.  0.
<mgrwt>
<rscale>  0 0.12499816E+03</rscale>
<asrwt>0</asrwt>
<pdfrwt beam="2">  1        4 0.30151558E-01 0.12499816E+03</pdfrwt>
<pdfrwt beam="1">  1       -4 0.30662729E-02 0.12499816E+03</pdfrwt>
<totfact> 0.87522349E+03</totfact>
</mgrwt>
</event>
<event>
 5    1  0.3304582E-002  0.1249990E+03  0.7818608E-02  0.1235071E+00
          4   -1    0    0  501    0  0.00000000000E+00  0.00000000000E+00  0.29734679255E+03  0.29734950469E+03  0.12700000000E+01 0. -1.
         -4   -1    0    0    0  501 -0.00000000000E+00 -0.00000000000E+00 -0.13103334255E+02  0.13164735797E+02  0.12700000000E+01 0. -1.
         25    2    1    2    0    0  0.00000000000E+00  0.00000000000E+00  0.28424345830E+03  0.31051424049E+03  0.12499899984E+03 0.  0.
    9000005    1    3    3    0    0  0.60240005885E+01 -0.29632899424E+02  0.62691283788E+01  0.30898208394E+02  0.10000000000E+01 0.  0.
    9000005    1    3    3    0    0 -0.60240005885E+01  0.29632899424E+02  0.27797432992E+03  0.27961603210E+03  0.10000000000E+01 0.  0.
<mgrwt>
<rscale>  0 0.12499900E+03</rscale>
<asrwt>0</asrwt>
<pdfrwt beam="1">  1        4 0.45750593E-01 0.12499900E+03</pdfrwt>
<pdfrwt beam="2">  1       -4 0.20208294E-02 0.12499900E+03</pdfrwt>
<totfact> 0.74300246E+03</totfact>
</mgrwt>
</event>
<event>
 5    1  0.3304582E-002  0.1249973E+03  0.7818608E-02  0.1235074E+00
         -4   -1    0    0    0  501 -0.00000000000E+00  0.00000000000E+00  0.38333865425E+03  0.38334075799E+03  0.12700000000E+01 0.  1.
          4   -1    0    0  501    0  0.00000000000E+00 -0.00000000000E+00 -0.10147922176E+02  0.10227082893E+02  0.12700000000E+01 0.  1.
         25    2    1    2    0    0  0.00000000000E+00  0.00000000000E+00  0.37319073207E+03  0.39356784089E+03  0.12499729148E+03 0.  0.
    9000005    1    3    3    0    0  0.56758286532E+02  0.16504135932E+02  0.25044242086E+03  0.25732527229E+03  0.10000000000E+01 0.  0.
    9000005    1    3    3    0    0 -0.56758286532E+02 -0.16504135932E+02  0.12274831121E+03  0.13624256860E+03  0.10000000000E+01 0.  0.
<mgrwt>
<rscale>  0 0.12499729E+03</rscale>
<asrwt>0</asrwt>
<pdfrwt beam="2">  1        4 0.15674702E-02 0.12499729E+03</pdfrwt>
<pdfrwt beam="1">  1       -4 0.58981418E-01 0.12499729E+03</pdfrwt>
<totfact> 0.65187121E+03</totfact>
</mgrwt>
</event>
<event>
 5    1  0.3304582E-002  0.1249962E+03  0.7818608E-02  0.1235075E+00
         -4   -1    0    0    0  501 -0.00000000000E+00  0.00000000000E+00  0.12785433948E+02  0.12848354807E+02  0.12700000000E+01 0.  1.
          4   -1    0    0  501    0  0.00000000000E+00 -0.00000000000E+00 -0.30469070779E+03  0.30469335456E+03  0.12700000000E+01 0.  1.
         25    2    1    2    0    0  0.00000000000E+00  0.00000000000E+00 -0.29190527384E+03  0.31754170936E+03  0.12499619311E+03 0.  0.
    9000005    1    3    3    0    0  0.14861750795E+02 -0.57242797795E+02 -0.19722883971E+03  0.20590732078E+03  0.10000000000E+01 0.  0.
    9000005    1    3    3    0    0 -0.14861750795E+02  0.57242797795E+02 -0.94676434129E+02  0.11163438859E+03  0.10000000000E+01 0.  0.
<mgrwt>
<rscale>  0 0.12499619E+03</rscale>
<asrwt>0</asrwt>
<pdfrwt beam="2">  1        4 0.46880532E-01 0.12499619E+03</pdfrwt>
<pdfrwt beam="1">  1       -4 0.19720337E-02 0.12499619E+03</pdfrwt>
<totfact> 0.73455665E+03</totfact>
</mgrwt>
</event>
<event>
 5    1  0.3304582E-002  0.1250009E+03  0.7818608E-02  0.1235068E+00
          4   -1    0    0  501    0  0.00000000000E+00  0.00000000000E+00  0.12404428155E+02  0.12469271745E+02  0.12700000000E+01 0. -1.
         -4   -1    0    0    0  501 -0.00000000000E+00 -0.00000000000E+00 -0.31402513387E+03  0.31402770196E+03  0.12700000000E+01 0. -1.
         25    2    1    2    0    0  0.00000000000E+00  0.00000000000E+00 -0.30162070571E+03  0.32649697371E+03  0.12500089490E+03 0.  0.
    9000005    1    3    3    0    0 -0.34917894434E+02 -0.35726296541E+02 -0.52742639827E+02  0.72652692120E+02  0.10000000000E+01 0.  0.
    9000005    1    3    3    0    0  0.34917894434E+02  0.35726296541E+02 -0.24887806588E+03  0.25384428159E+03  0.10000000000E+01 0.  0.
<mgrwt>
<rscale>  0 0.12500089E+03</rscale>
<asrwt>0</asrwt>
<pdfrwt beam="1">  1        4 0.19135593E-02 0.12500089E+03</pdfrwt>
<pdfrwt beam="2">  1       -4 0.48316738E-01 0.12500089E+03</pdfrwt>
<totfact> 0.72388569E+03</totfact>
</mgrwt>
</event>
<event>
 5    1  0.3304582E-002  0.1250021E+03  0.7818608E-02  0.1235066E+00
         -4   -1    0    0    0  501 -0.00000000000E+00  0.00000000000E+00  0.22723537513E+02  0.22758999475E+02  0.12700000000E+01 0. -1.
          4   -1    0    0  501    0  0.00000000000E+00 -0.00000000000E+00 -0.17173729822E+03  0.17174199399E+03  0.12700000000E+01 0. -1.
         25    2    1    2    0    0  0.00000000000E+00  0.00000000000E+00 -0.14901376071E+03  0.19450099347E+03  0.12500214230E+03 0.  0.
    9000005    1    3    3    0    0  0.12427972436E+02  0.42082737599E+02 -0.14374319727E+03  0.15029477058E+03  0.10000000000E+01 0.  0.
    9000005    1    3    3    0    0 -0.12427972436E+02 -0.42082737599E+02 -0.52705634361E+01  0.44206222884E+02  0.10000000000E+01 0.  0.
<mgrwt>
<rscale>  0 0.12500214E+03</rscale>
<asrwt>0</asrwt>
<pdfrwt beam="2">  1        4 0.26424211E-01 0.12500214E+03</pdfrwt>
<pdfrwt beam="1">  1       -4 0.34990180E-02 0.12500214E+03</pdfrwt>
<totfact> 0.91065633E+03</totfact>
</mgrwt>
</event>
<event>
 5    1  0.3304582E-002  0.1250024E+03  0.7818608E-02  0.1235065E+00
         -4   -1    0    0    0  501 -0.00000000000E+00  0.00000000000E+00  0.12909673135E+02  0.12971991384E+02  0.12700000000E+01 0.  1.
          4   -1    0    0  501    0  0.00000000000E+00 -0.00000000000E+00 -0.30180274710E+03  0.30180541920E+03  0.12700000000E+01 0.  1.
         25    2    1    2    0    0  0.00000000000E+00  0.00000000000E+00 -0.28889307396E+03  0.31477741058E+03  0.12500244009E+03 0.  0.
    9000005    1    3    3    0    0  0.62014984000E+01  0.79814189885E+00 -0.30102543410E+03  0.30109202511E+03  0.10000000000E+01 0.  0.
    9000005    1    3    3    0    0 -0.62014984000E+01 -0.79814189885E+00  0.12132360135E+02  0.13685385466E+02  0.10000000000E+01 0.  0.
<mgrwt>
<rscale>  0 0.12500244E+03</rscale>
<asrwt>0</asrwt>
<pdfrwt beam="2">  1        4 0.46436186E-01 0.12500244E+03</pdfrwt>
<pdfrwt beam="1">  1       -4 0.19911030E-02 0.12500244E+03</pdfrwt>
<totfact> 0.73777629E+03</totfact>
</mgrwt>
</event>
<event>
 5    1  0.3304582E-002  0.1250013E+03  0.7818608E-02  0.1235067E+00
          4   -1    0    0  501    0  0.00000000000E+00  0.00000000000E+00  0.11897219757E+04  0.11897226535E+04  0.12700000000E+01 0.  1.
         -4   -1    0    0    0  501 -0.00000000000E+00 -0.00000000000E+00 -0.31598879624E+01  0.34055531026E+01  0.12700000000E+01 0.  1.
         25    2    1    2    0    0  0.00000000000E+00  0.00000000000E+00  0.11865620877E+04  0.11931282066E+04  0.12500131778E+03 0.  0.
    9000005    1    3    3    0    0 -0.40525106827E+02 -0.20369589718E+02  0.18294607203E+03  0.18848731984E+03  0.10000000000E+01 0.  0.
    9000005    1    3    3    0    0  0.40525106827E+02  0.20369589718E+02  0.10036160157E+04  0.10046408868E+04  0.10000000000E+01 0.  0.
<mgrwt>
<rscale>  0 0.12500132E+03</rscale>
<asrwt>0</asrwt>
<pdfrwt beam="1">  1        4 0.18305330E+00 0.12500132E+03</pdfrwt>
<pdfrwt beam="2">  1       -4 0.50508553E-03 0.12500132E+03</pdfrwt>
<totfact> 0.24892578E+03</totfact>
</mgrwt>
</event>
<event>
 5    1  0.3304582E-002  0.1249929E+03  0.7818608E-02  0.1235080E+00
         -4   -1    0    0    0  501 -0.00000000000E+00  0.00000000000E+00  0.95464342514E+02  0.95472789797E+02  0.12700000000E+01 0. -1.
          4   -1    0    0  501    0  0.00000000000E+00 -0.00000000000E+00 -0.40893626549E+02  0.40913342473E+02  0.12700000000E+01 0. -1.
         25    2    1    2    0    0  0.00000000000E+00  0.00000000000E+00  0.54570715965E+02  0.13638613227E+03  0.12499285593E+03 0.  0.
    9000005    1    3    3    0    0  0.16087520663E+02 -0.89237849954E+01  0.92447850549E+02  0.94265833316E+02  0.10000000000E+01 0.  0.
    9000005    1    3    3    0    0 -0.16087520663E+02  0.89237849954E+01 -0.37877134583E+02  0.42120298954E+02  0.10000000000E+01 0.  0.
<mgrwt>
<rscale>  0 0.12499286E+03</rscale>
<asrwt>0</asrwt>
<pdfrwt beam="2">  1        4 0.62934936E-02 0.12499286E+03</pdfrwt>
<pdfrwt beam="1">  1       -4 0.14688988E-01 0.12499286E+03</pdfrwt>
<totfact> 0.10210581E+04</totfact>
</mgrwt>
</event>
<event>
 5    1  0.3304582E-002  0.1250010E+03  0.7818608E-02  0.1235068E+00
          4   -1    0    0  501    0  0.00000000000E+00  0.00000000000E+00  0.42136592792E+02  0.42155727394E+02  0.12700000000E+01 0.  1.
         -4   -1    0    0    0  501 -0.00000000000E+00 -0.00000000000E+00 -0.92661409168E+02  0.92670111951E+02  0.12700000000E+01 0.  1.
         25    2    1    2    0    0  0.00000000000E+00  0.00000000000E+00 -0.50524816376E+02  0.13482583934E+03  0.12500099954E+03 0.  0.
    9000005    1    3    3    0    0  0.19966712917E+02  0.30878148403E+02  0.29238106258E+02  0.46989323586E+02  0.10000000000E+01 0.  0.
    9000005    1    3    3    0    0 -0.19966712917E+02 -0.30878148403E+02 -0.79762922634E+02  0.87836515759E+02  0.10000000000E+01 0.  0.
<mgrwt>
<rscale>  0 0.12500100E+03</rscale>
<asrwt>0</asrwt>
<pdfrwt beam="1">  1        4 0.64846941E-02 0.12500100E+03</pdfrwt>
<pdfrwt beam="2">  1       -4 0.14257743E-01 0.12500100E+03</pdfrwt>
<totfact> 0.10241512E+04</totfact>
</mgrwt>
</event>
<event>
 5    1  0.3304582E-002  0.1249983E+03  0.7818608E-02  0.1235072E+00
          4   -1    0    0  501    0  0.00000000000E+00  0.00000000000E+00  0.14643626735E+03  0.14644177442E+03  0.12700000000E+01 0. -1.
         -4   -1    0    0    0  501 -0.00000000000E+00 -0.00000000000E+00 -0.26653561284E+02  0.26683800874E+02  0.12700000000E+01 0. -1.
         25    2    1    2    0    0  0.00000000000E+00  0.00000000000E+00  0.11978270607E+03  0.17312557530E+03  0.12499827258E+03 0.  0.
    9000005    1    3    3    0    0  0.33714136714E+02  0.93781677233E+01 -0.11816891850E+02  0.36949045688E+02  0.10000000000E+01 0.  0.
    9000005    1    3    3    0    0 -0.33714136714E+02 -0.93781677233E+01  0.13159959792E+03  0.13617652961E+03  0.10000000000E+01 0.  0.
<mgrwt>
<rscale>  0 0.12499827E+03</rscale>
<asrwt>0</asrwt>
<pdfrwt beam="1">  1        4 0.22531407E-01 0.12499827E+03</pdfrwt>
<pdfrwt beam="2">  1       -4 0.41032975E-02 0.12499827E+03</pdfrwt>
<totfact> 0.94872939E+03</totfact>
</mgrwt>
</event>
<event>
 5    1  0.3304582E-002  0.1250023E+03  0.7818608E-02  0.1235066E+00
          4   -1    0    0  501    0  0.00000000000E+00  0.00000000000E+00  0.40452074882E+02  0.40472005908E+02  0.12700000000E+01 0.  1.
         -4   -1    0    0    0  501 -0.00000000000E+00 -0.00000000000E+00 -0.96520574419E+02  0.96528929271E+02  0.12700000000E+01 0.  1.
         25    2    1    2    0    0  0.00000000000E+00  0.00000000000E+00 -0.56068499538E+02  0.13700093518E+03  0.12500231838E+03 0.  0.
    9000005    1    3    3    0    0 -0.46939315395E+02 -0.27834493427E+01  0.17079275849E+02  0.50037471794E+02  0.10000000000E+01 0.  0.
    9000005    1    3    3    0    0  0.46939315395E+02  0.27834493427E+01 -0.73147775387E+02  0.86963463386E+02  0.10000000000E+01 0.  0.
<mgrwt>
<rscale>  0 0.12500232E+03</rscale>
<asrwt>0</asrwt>
<pdfrwt beam="1">  1        4 0.62255720E-02 0.12500232E+03</pdfrwt>
<pdfrwt beam="2">  1       -4 0.14851495E-01 0.12500232E+03</pdfrwt>
<totfact> 0.10195533E+04</totfact>
</mgrwt>
</event>
<event>
 5    1  0.3304582E-002  0.1249997E+03  0.7818608E-02  0.1235070E+00
         -4   -1    0    0    0  501 -0.00000000000E+00  0.00000000000E+00  0.37499713333E+02  0.37521212668E+02  0.12700000000E+01 0. -1.
          4   -1    0    0  501    0  0.00000000000E+00 -0.00000000000E+00 -0.10411168462E+03  0.10411943034E+03  0.12700000000E+01 0. -1.
         25    2    1    2    0    0  0.00000000000E+00  0.00000000000E+00 -0.66611971287E+02  0.14164064301E+03  0.12499966813E+03 0.  0.
    9000005    1    3    3    0    0  0.36905312042E+02 -0.30256568601E+02  0.12410746996E+02  0.49320266032E+02  0.10000000000E+01 0.  0.
    9000005    1    3    3    0    0 -0.36905312042E+02  0.30256568601E+02 -0.79022718283E+02  0.92320376978E+02  0.10000000000E+01 0.  0.
<mgrwt>
<rscale>  0 0.12499967E+03</rscale>
<asrwt>0</asrwt>
<pdfrwt beam="2">  1        4 0.16019432E-01 0.12499967E+03</pdfrwt>
<pdfrwt beam="1">  1       -4 0.57714363E-02 0.12499967E+03</pdfrwt>
<totfact> 0.10099771E+04</totfact>
</mgrwt>
</event>
<event>
 5    1  0.3304582E-002  0.1250002E+03  0.7818608E-02  0.1235069E+00
          4   -1    0    0  501    0  0.00000000000E+00  0.00000000000E+00  0.39972358058E+03  0.39972559810E+03  0.12700000000E+01 0. -1.
         -4   -1    0    0    0  501 -0.00000000000E+00 -0.00000000000E+00 -0.97291046152E+01  0.98116449494E+01  0.12700000000E+01 0. -1.
         25    2    1    2    0    0  0.00000000000E+00  0.00000000000E+00  0.38999447597E+03  0.40953724304E+03  0.12500024863E+03 0.  0.
    9000005    1    3    3    0    0 -0.21175200959E+02 -0.50101774600E+02  0.29580317152E+03  0.30076418210E+03  0.10000000000E+01 0.  0.
    9000005    1    3    3    0    0  0.21175200959E+02  0.50101774600E+02  0.94191304445E+02  0.10877306094E+03  0.10000000000E+01 0.  0.
<mgrwt>
<rscale>  0 0.12500025E+03</rscale>
<asrwt>0</asrwt>
<pdfrwt beam="1">  1        4 0.61502446E-01 0.12500025E+03</pdfrwt>
<pdfrwt beam="2">  1       -4 0.15032896E-02 0.12500025E+03</pdfrwt>
<totfact> 0.63635304E+03</totfact>
</mgrwt>
</event>
<event>
 5    1  0.3304582E-002  0.1249989E+03  0.7818608E-02  0.1235071E+00
          4   -1    0    0  501    0  0.00000000000E+00  0.00000000000E+00  0.75826206013E+03  0.75826312368E+03  0.12700000000E+01 0.  1.
         -4   -1    0    0    0  501 -0.00000000000E+00 -0.00000000000E+00 -0.50721380434E+01  0.52287172740E+01  0.12700000000E+01 0.  1.
         25    2    1    2    0    0  0.00000000000E+00  0.00000000000E+00  0.75318992208E+03  0.76349184095E+03  0.12499892988E+03 0.  0.
    9000005    1    3    3    0    0 -0.27287703051E+02  0.50082684318E+02  0.22059727020E+03  0.22785313170E+03  0.10000000000E+01 0.  0.
    9000005    1    3    3    0    0  0.27287703051E+02 -0.50082684318E+02  0.53259265188E+03  0.53563870925E+03  0.10000000000E+01 0.  0.
<mgrwt>
<rscale>  0 0.12499893E+03</rscale>
<asrwt>0</asrwt>
<pdfrwt beam="1">  1        4 0.11666775E+00 0.12499893E+03</pdfrwt>
<pdfrwt beam="2">  1       -4 0.79245585E-03 0.12499893E+03</pdfrwt>
<totfact> 0.39937946E+03</totfact>
</mgrwt>
</event>
<event>
 5    1  0.3304582E-002  0.1250059E+03  0.7818608E-02  0.1235060E+00
          4   -1    0    0  501    0  0.00000000000E+00  0.00000000000E+00  0.11110902391E+03  0.11111628186E+03  0.12700000000E+01 0.  1.
         -4   -1    0    0    0  501 -0.00000000000E+00 -0.00000000000E+00 -0.35140341109E+02  0.35163283028E+02  0.12700000000E+01 0.  1.
         25    2    1    2    0    0  0.00000000000E+00  0.00000000000E+00  0.75968682801E+02  0.14627956489E+03  0.12500588121E+03 0.  0.
    9000005    1    3    3    0    0 -0.47622522890E+02  0.39681028737E+02  0.28686820266E+02  0.68311217124E+02  0.10000000000E+01 0.  0.
    9000005    1    3    3    0    0  0.47622522890E+02 -0.39681028737E+02  0.47281862535E+02  0.77968347763E+02  0.10000000000E+01 0.  0.
<mgrwt>
<rscale>  0 0.12500588E+03</rscale>
<asrwt>0</asrwt>
<pdfrwt beam="1">  1        4 0.17096019E-01 0.12500588E+03</pdfrwt>
<pdfrwt beam="2">  1       -4 0.54085294E-02 0.12500588E+03</pdfrwt>
<totfact> 0.10003730E+04</totfact>
</mgrwt>
</event>
<event>
 5    1  0.3304582E-002  0.1249970E+03  0.7818608E-02  0.1235074E+00
          4   -1    0    0  501    0  0.00000000000E+00  0.00000000000E+00  0.65879808442E+02  0.65892048537E+02  0.12700000000E+01 0. -1.
         -4   -1    0    0    0  501 -0.00000000000E+00 -0.00000000000E+00 -0.59266170454E+02  0.59279776149E+02  0.12700000000E+01 0. -1.
         25    2    1    2    0    0  0.00000000000E+00  0.00000000000E+00  0.66136379879E+01  0.12517182469E+03  0.12499698191E+03 0.  0.
    9000005    1    3    3    0    0  0.25939292416E+01  0.26418907669E+01 -0.59161150340E+02  0.59285325042E+02  0.10000000000E+01 0.  0.
    9000005    1    3    3    0    0 -0.25939292416E+01 -0.26418907669E+01  0.65774788328E+02  0.65886499644E+02  0.10000000000E+01 0.  0.
<mgrwt>
<rscale>  0 0.12499698E+03</rscale>
<asrwt>0</asrwt>
<pdfrwt beam="1">  1        4 0.10137343E-01 0.12499698E+03</pdfrwt>
<pdfrwt beam="2">  1       -4 0.91198605E-02 0.12499698E+03</pdfrwt>
<totfact> 0.10449845E+04</totfact>
</mgrwt>
</event>
<event>
 5    1  0.3304582E-002  0.1250012E+03  0.7818608E-02  0.1235067E+00
          4   -1    0    0  501    0  0.00000000000E+00  0.00000000000E+00  0.59040562825E+03  0.59040699417E+03  0.12700000000E+01 0. -1.
         -4   -1    0    0    0  501 -0.00000000000E+00 -0.00000000000E+00 -0.65540065718E+01  0.66759195728E+01  0.12700000000E+01 0. -1.
         25    2    1    2    0    0  0.00000000000E+00  0.00000000000E+00  0.58385162168E+03  0.59708291374E+03  0.12500115900E+03 0.  0.
    9000005    1    3    3    0    0  0.11404128548E+02  0.41980831380E+02  0.50622934819E+03  0.50809605127E+03  0.10000000000E+01 0.  0.
    9000005    1    3    3    0    0 -0.11404128548E+02 -0.41980831380E+02  0.77622273490E+02  0.88986862474E+02  0.10000000000E+01 0.  0.
<mgrwt>
<rscale>  0 0.12500116E+03</rscale>
<asrwt>0</asrwt>
<pdfrwt beam="1">  1        4 0.90841143E-01 0.12500116E+03</pdfrwt>
<pdfrwt beam="2">  1       -4 0.10177914E-02 0.12500116E+03</pdfrwt>
<totfact> 0.49051007E+03</totfact>
</mgrwt>
</event>
<event>
 5    1  0.3304582E-002  0.1249999E+03  0.7818608E-02  0.1235069E+00
         -4   -1    0    0    0  501 -0.00000000000E+00  0.00000000000E+00  0.35059287389E+03  0.35059517413E+03  0.12700000000E+01 0. -1.
          4   -1    0    0  501    0  0.00000000000E+00 -0.00000000000E+00 -0.11103294330E+02  0.11175689911E+02  0.12700000000E+01 0. -1.
         25    2    1    2    0    0  0.00000000000E+00  0.00000000000E+00  0.33948957956E+03  0.36177086404E+03  0.12499993375E+03 0.  0.
    9000005    1    3    3    0    0 -0.54581564380E+02 -0.41822719588E+01  0.82505541862E+02  0.99019205243E+02  0.10000000000E+01 0.  0.
    9000005    1    3    3    0    0  0.54581564380E+02  0.41822719588E+01  0.25698403770E+03  0.26275165880E+03  0.10000000000E+01 0.  0.
<mgrwt>
<rscale>  0 0.12499993E+03</rscale>
<asrwt>0</asrwt>
<pdfrwt beam="2">  1        4 0.17139450E-02 0.12499993E+03</pdfrwt>
<pdfrwt beam="1">  1       -4 0.53943109E-01 0.12499993E+03</pdfrwt>
<totfact> 0.68448837E+03</totfact>
</mgrwt>
</event>
<event>
 5    1  0.3304582E-002  0.1249998E+03  0.7818608E-02  0.1235070E+00
         -4   -1    0    0    0  501 -0.00000000000E+00  0.00000000000E+00  0.21670009165E+01  0.25117310709E+01  0.12700000000E+01 0.  1.
          4   -1    0    0  501    0  0.00000000000E+00 -0.00000000000E+00 -0.16694389508E+04  0.16694394338E+04  0.12700000000E+01 0.  1.
         25    2    1    2    0    0  0.00000000000E+00  0.00000000000E+00 -0.16672719498E+04  0.16719511649E+04  0.12499977227E+03 0.  0.
    9000005    1    3    3    0    0  0.37206721351E+02  0.49638310657E+02 -0.73271084193E+03  0.73533290412E+03  0.10000000000E+01 0.  0.
    9000005    1    3    3    0    0 -0.37206721351E+02 -0.49638310657E+02 -0.93456110790E+03  0.93661826077E+03  0.10000000000E+01 0.  0.
<mgrwt>
<rscale>  0 0.12499977E+03</rscale>
<asrwt>0</asrwt>
<pdfrwt beam="2">  1        4 0.25686236E+00 0.12499977E+03</pdfrwt>
<pdfrwt beam="1">  1       -4 0.35994095E-03 0.12499977E+03</pdfrwt>
<totfact> 0.14781466E+03</totfact>
</mgrwt>
</event>
<event>
 5    1  0.3304582E-002  0.1250005E+03  0.7818608E-02  0.1235068E+00
         -4   -1    0    0    0  501 -0.00000000000E+00  0.00000000000E+00  0.24339755613E+01  0.27453846785E+01  0.12700000000E+01 0. -1.
          4   -1    0    0  501    0  0.00000000000E+00 -0.00000000000E+00 -0.15080918228E+04  0.15080923575E+04  0.12700000000E+01 0. -1.
         25    2    1    2    0    0  0.00000000000E+00  0.00000000000E+00 -0.15056578472E+04  0.15108377422E+04  0.12500052154E+03 0.  0.
    9000005    1    3    3    0    0  0.40364377590E+02 -0.22306713162E+02 -0.24312031741E+03  0.24745779674E+03  0.10000000000E+01 0.  0.
    9000005    1    3    3    0    0 -0.40364377590E+02  0.22306713162E+02 -0.12625375298E+04  0.12633799455E+04  0.10000000000E+01 0.  0.
<mgrwt>
<rscale>  0 0.12500052E+03</rscale>
<asrwt>0</asrwt>
<pdfrwt beam="2">  1        4 0.23203742E+00 0.12500052E+03</pdfrwt>
<pdfrwt beam="1">  1       -4 0.39845467E-03 0.12500052E+03</pdfrwt>
<totfact> 0.17718234E+03</totfact>
</mgrwt>
</event>
<event>
 5    1  0.3304582E-002  0.1249997E+03  0.7818608E-02  0.1235070E+00
          4   -1    0    0  501    0  0.00000000000E+00  0.00000000000E+00  0.69874533150E+02  0.69886073598E+02  0.12700000000E+01 0.  1.
         -4   -1    0    0    0  501 -0.00000000000E+00 -0.00000000000E+00 -0.55880121224E+02  0.55894551147E+02  0.12700000000E+01 0.  1.
         25    2    1    2    0    0  0.00000000000E+00  0.00000000000E+00  0.13994411926E+02  0.12578062474E+03  0.12499968798E+03 0.  0.
    9000005    1    3    3    0    0  0.26733560985E+02 -0.33304714671E+02  0.52903968624E+02  0.67997920545E+02  0.10000000000E+01 0.  0.
    9000005    1    3    3    0    0 -0.26733560985E+02  0.33304714671E+02 -0.38909556698E+02  0.57782704200E+02  0.10000000000E+01 0.  0.
<mgrwt>
<rscale>  0 0.12499969E+03</rscale>
<asrwt>0</asrwt>
<pdfrwt beam="1">  1        4 0.10751926E-01 0.12499969E+03</pdfrwt>
<pdfrwt beam="2">  1       -4 0.85989395E-02 0.12499969E+03</pdfrwt>
<totfact> 0.10435845E+04</totfact>
</mgrwt>
</event>
<event>
 5    1  0.3304582E-002  0.1249993E+03  0.7818608E-02  0.1235070E+00
         -4   -1    0    0    0  501 -0.00000000000E+00  0.00000000000E+00  0.13649194398E+03  0.13649785226E+03  0.12700000000E+01 0. -1.
          4   -1    0    0  501    0  0.00000000000E+00 -0.00000000000E+00 -0.28597956740E+02  0.28626142417E+02  0.12700000000E+01 0. -1.
         25    2    1    2    0    0  0.00000000000E+00  0.00000000000E+00  0.10789398724E+03  0.16512399467E+03  0.12499928454E+03 0.  0.
    9000005    1    3    3    0    0  0.58763118680E+02  0.61368795116E+01  0.80839632934E+02  0.10013396856E+03  0.10000000000E+01 0.  0.
    9000005    1    3    3    0    0 -0.58763118680E+02 -0.61368795116E+01  0.27054354303E+02  0.64990026111E+02  0.10000000000E+01 0.  0.
<mgrwt>
<rscale>  0 0.12499928E+03</rscale>
<asrwt>0</asrwt>
<pdfrwt beam="2">  1        4 0.44023083E-02 0.12499928E+03</pdfrwt>
<pdfrwt beam="1">  1       -4 0.21001383E-01 0.12499928E+03</pdfrwt>
<totfact> 0.96365463E+03</totfact>
</mgrwt>
</event>
<event>
 5    1  0.3304582E-002  0.1249930E+03  0.7818608E-02  0.1235080E+00
          4   -1    0    0  501    0  0.00000000000E+00  0.00000000000E+00  0.22933105913E+03  0.22933457563E+03  0.12700000000E+01 0.  1.
         -4   -1    0    0    0  501 -0.00000000000E+00 -0.00000000000E+00 -0.17004004704E+02  0.17051365810E+02  0.12700000000E+01 0.  1.
         25    2    1    2    0    0  0.00000000000E+00  0.00000000000E+00  0.21232705442E+03  0.24638594144E+03  0.12499301620E+03 0.  0.
    9000005    1    3    3    0    0 -0.35903084596E+02  0.12466473324E+02  0.83879685092E+01  0.38933307802E+02  0.10000000000E+01 0.  0.
    9000005    1    3    3    0    0  0.35903084596E+02 -0.12466473324E+02  0.20393908591E+03  0.20745263364E+03  0.10000000000E+01 0.  0.
<mgrwt>
<rscale>  0 0.12499302E+03</rscale>
<asrwt>0</asrwt>
<pdfrwt beam="1">  1        4 0.35285617E-01 0.12499302E+03</pdfrwt>
<pdfrwt beam="2">  1       -4 0.26199143E-02 0.12499302E+03</pdfrwt>
<totfact> 0.82868286E+03</totfact>
</mgrwt>
</event>
<event>
 5    1  0.3304582E-002  0.1249964E+03  0.7818608E-02  0.1235075E+00
         -4   -1    0    0    0  501 -0.00000000000E+00  0.00000000000E+00  0.34834180585E+02  0.34857324008E+02  0.12700000000E+01 0. -1.
          4   -1    0    0  501    0  0.00000000000E+00 -0.00000000000E+00 -0.11206795235E+03  0.11207514820E+03  0.12700000000E+01 0. -1.
         25    2    1    2    0    0  0.00000000000E+00  0.00000000000E+00 -0.77233771768E+02  0.14693247221E+03  0.12499638350E+03 0.  0.
    9000005    1    3    3    0    0  0.33188726407E+02  0.41744420014E+02 -0.76905080799E+02  0.93592091629E+02  0.10000000000E+01 0.  0.
    9000005    1    3    3    0    0 -0.33188726407E+02 -0.41744420014E+02 -0.32869096849E+00  0.53340380581E+02  0.10000000000E+01 0.  0.
<mgrwt>
<rscale>  0 0.12499638E+03</rscale>
<asrwt>0</asrwt>
<pdfrwt beam="2">  1        4 0.17243557E-01 0.12499638E+03</pdfrwt>
<pdfrwt beam="1">  1       -4 0.53614385E-02 0.12499638E+03</pdfrwt>
<totfact> 0.99926852E+03</totfact>
</mgrwt>
</event>
<event>
 5    1  0.3304582E-002  0.1249872E+03  0.7818608E-02  0.1235089E+00
         -4   -1    0    0    0  501 -0.00000000000E+00  0.00000000000E+00  0.88657752926E+01  0.89562755395E+01  0.12700000000E+01 0.  1.
          4   -1    0    0  501    0  0.00000000000E+00 -0.00000000000E+00 -0.43818017766E+03  0.43818201811E+03  0.12700000000E+01 0.  1.
         25    2    1    2    0    0  0.00000000000E+00  0.00000000000E+00 -0.42931440237E+03  0.44713829365E+03  0.12498718961E+03 0.  0.
    9000005    1    3    3    0    0  0.51800398167E+01 -0.54771536119E+02 -0.32064314606E+03  0.32533026465E+03  0.10000000000E+01 0.  0.
    9000005    1    3    3    0    0 -0.51800398167E+01  0.54771536119E+02 -0.10867125631E+03  0.12180802900E+03  0.10000000000E+01 0.  0.
<mgrwt>
<rscale>  0 0.12498719E+03</rscale>
<asrwt>0</asrwt>
<pdfrwt beam="2">  1        4 0.67419421E-01 0.12498719E+03</pdfrwt>
<pdfrwt beam="1">  1       -4 0.13710689E-02 0.12498719E+03</pdfrwt>
<totfact> 0.60229511E+03</totfact>
</mgrwt>
</event>
<event>
 5    1  0.3304582E-002  0.1250146E+03  0.7818608E-02  0.1235046E+00
         -4   -1    0    0    0  501 -0.00000000000E+00  0.00000000000E+00  0.23745867251E+04  0.23745870647E+04  0.12700000000E+01 0. -1.
          4   -1    0    0  501    0  0.00000000000E+00 -0.00000000000E+00 -0.13999556609E+01  0.18901787885E+01  0.12700000000E+01 0. -1.
         25    2    1    2    0    0  0.00000000000E+00  0.00000000000E+00  0.23731867694E+04  0.23764772435E+04  0.12501458418E+03 0.  0.
    9000005    1    3    3    0    0 -0.47865775802E+01  0.45200200578E+02  0.20020569490E+04  0.20025730939E+04  0.10000000000E+01 0.  0.
    9000005    1    3    3    0    0  0.47865775802E+01 -0.45200200578E+02  0.37112982042E+03  0.37390414956E+03  0.10000000000E+01 0.  0.
<mgrwt>
<rscale>  0 0.12501458E+03</rscale>
<asrwt>0</asrwt>
<pdfrwt beam="2">  1        4 0.25311400E-03 0.12501458E+03</pdfrwt>
<pdfrwt beam="1">  1       -4 0.36535789E+00 0.12501458E+03</pdfrwt>
<totfact> 0.57119191E+02</totfact>
</mgrwt>
</event>
<event>
 5    1  0.3304582E-002  0.1250058E+03  0.7818608E-02  0.1235060E+00
          4   -1    0    0  501    0  0.00000000000E+00  0.00000000000E+00  0.18090510582E+03  0.18090956363E+03  0.12700000000E+01 0.  1.
         -4   -1    0    0    0  501 -0.00000000000E+00 -0.00000000000E+00 -0.21571404541E+02  0.21608757342E+02  0.12700000000E+01 0.  1.
         25    2    1    2    0    0  0.00000000000E+00  0.00000000000E+00  0.15933370128E+03  0.20251832097E+03  0.12500576773E+03 0.  0.
    9000005    1    3    3    0    0  0.45903801841E+02  0.95555371652E+00  0.10980039699E+02  0.47218993828E+02  0.10000000000E+01 0.  0.
    9000005    1    3    3    0    0 -0.45903801841E+02 -0.95555371652E+00  0.14835366158E+03  0.15529932714E+03  0.10000000000E+01 0.  0.
<mgrwt>
<rscale>  0 0.12500577E+03</rscale>
<asrwt>0</asrwt>
<pdfrwt beam="1">  1        4 0.27834771E-01 0.12500577E+03</pdfrwt>
<pdfrwt beam="2">  1       -4 0.33218939E-02 0.12500577E+03</pdfrwt>
<totfact> 0.89700927E+03</totfact>
</mgrwt>
</event>
<event>
 5    1  0.3304582E-002  0.1250009E+03  0.7818608E-02  0.1235068E+00
          4   -1    0    0  501    0  0.00000000000E+00  0.00000000000E+00  0.48896309331E+02  0.48912799615E+02  0.12700000000E+01 0. -1.
         -4   -1    0    0    0  501 -0.00000000000E+00 -0.00000000000E+00 -0.79854568052E+02  0.79864666397E+02  0.12700000000E+01 0. -1.
         25    2    1    2    0    0  0.00000000000E+00  0.00000000000E+00 -0.30958258721E+02  0.12877746601E+03  0.12500088788E+03 0.  0.
    9000005    1    3    3    0    0  0.55037633342E+02  0.71901030512E+01 -0.45060164703E+02  0.71500049712E+02  0.10000000000E+01 0.  0.
    9000005    1    3    3    0    0 -0.55037633342E+02 -0.71901030512E+01  0.14101905982E+02  0.57277416301E+02  0.10000000000E+01 0.  0.
<mgrwt>
<rscale>  0 0.12500089E+03</rscale>
<asrwt>0</asrwt>
<pdfrwt beam="1">  1        4 0.75245544E-02 0.12500089E+03</pdfrwt>
<pdfrwt beam="2">  1       -4 0.12287363E-01 0.12500089E+03</pdfrwt>
<totfact> 0.10370523E+04</totfact>
</mgrwt>
</event>
<event>
 5    1  0.3304582E-002  0.1250041E+03  0.7818608E-02  0.1235063E+00
          4   -1    0    0  501    0  0.00000000000E+00  0.00000000000E+00  0.29853393969E+02  0.29880395436E+02  0.12700000000E+01 0.  1.
         -4   -1    0    0    0  501 -0.00000000000E+00 -0.00000000000E+00 -0.13076703570E+03  0.13077320263E+03  0.12700000000E+01 0.  1.
         25    2    1    2    0    0  0.00000000000E+00  0.00000000000E+00 -0.10091364173E+03  0.16065359807E+03  0.12500406187E+03 0.  0.
    9000005    1    3    3    0    0 -0.39608759187E+02  0.44959329816E+02 -0.27635838860E+02  0.65991929290E+02  0.10000000000E+01 0.  0.
    9000005    1    3    3    0    0  0.39608759187E+02 -0.44959329816E+02 -0.73277802875E+02  0.94661668779E+02  0.10000000000E+01 0.  0.
<mgrwt>
<rscale>  0 0.12500406E+03</rscale>
<asrwt>0</asrwt>
<pdfrwt beam="1">  1        4 0.45953813E-02 0.12500406E+03</pdfrwt>
<pdfrwt beam="2">  1       -4 0.20120557E-01 0.12500406E+03</pdfrwt>
<totfact> 0.97208050E+03</totfact>
</mgrwt>
</event>
<event>
 5    1  0.3304582E-002  0.1249876E+03  0.7818608E-02  0.1235089E+00
         -4   -1    0    0    0  501 -0.00000000000E+00  0.00000000000E+00  0.59981842189E+01  0.61311592643E+01  0.12700000000E+01 0.  1.
          4   -1    0    0  501    0  0.00000000000E+00 -0.00000000000E+00 -0.64383794861E+03  0.64383920118E+03  0.12700000000E+01 0.  1.
         25    2    1    2    0    0  0.00000000000E+00  0.00000000000E+00 -0.63783976440E+03  0.64997036044E+03  0.12498761703E+03 0.  0.
    9000005    1    3    3    0    0  0.68399940019E+00 -0.58330531666E+02 -0.20245718265E+03  0.21069605974E+03  0.10000000000E+01 0.  0.
    9000005    1    3    3    0    0 -0.68399940019E+00  0.58330531666E+02 -0.43538258174E+03  0.43927430071E+03  0.10000000000E+01 0.  0.
<mgrwt>
<rscale>  0 0.12498762E+03</rscale>
<asrwt>0</asrwt>
<pdfrwt beam="2">  1        4 0.99062263E-01 0.12498762E+03</pdfrwt>
<pdfrwt beam="1">  1       -4 0.93312328E-03 0.12498762E+03</pdfrwt>
<totfact> 0.45870261E+03</totfact>
</mgrwt>
</event>
<event>
 5    1  0.3304582E-002  0.1250049E+03  0.7818608E-02  0.1235062E+00
          4   -1    0    0  501    0  0.00000000000E+00  0.00000000000E+00  0.39973502180E+03  0.39973703926E+03  0.12700000000E+01 0. -1.
         -4   -1    0    0    0  501 -0.00000000000E+00 -0.00000000000E+00 -0.97295476121E+01  0.98120842198E+01  0.12700000000E+01 0. -1.
         25    2    1    2    0    0  0.00000000000E+00  0.00000000000E+00  0.39000547419E+03  0.40954912348E+03  0.12500485848E+03 0.  0.
    9000005    1    3    3    0    0  0.13461878973E+02  0.53780811130E+02  0.10050329541E+03  0.11478462536E+03  0.10000000000E+01 0.  0.
    9000005    1    3    3    0    0 -0.13461878973E+02 -0.53780811130E+02  0.28950217878E+03  0.29476449811E+03  0.10000000000E+01 0.  0.
<mgrwt>
<rscale>  0 0.12500486E+03</rscale>
<asrwt>0</asrwt>
<pdfrwt beam="1">  1        4 0.61504178E-01 0.12500486E+03</pdfrwt>
<pdfrwt beam="2">  1       -4 0.15033582E-02 0.12500486E+03</pdfrwt>
<totfact> 0.63627719E+03</totfact>
</mgrwt>
</event>
<event>
 5    1  0.3304582E-002  0.1249978E+03  0.7818608E-02  0.1235073E+00
          4   -1    0    0  501    0  0.00000000000E+00  0.00000000000E+00  0.41323603509E+02  0.41343114384E+02  0.12700000000E+01 0.  1.
         -4   -1    0    0    0  501 -0.00000000000E+00 -0.00000000000E+00 -0.94478854261E+02  0.94487389648E+02  0.12700000000E+01 0.  1.
         25    2    1    2    0    0  0.00000000000E+00  0.00000000000E+00 -0.53155250753E+02  0.13583050403E+03  0.12499778055E+03 0.  0.
    9000005    1    3    3    0    0 -0.17718795906E+02 -0.35681094198E+02  0.25740616145E+02  0.47441285091E+02  0.10000000000E+01 0.  0.
    9000005    1    3    3    0    0  0.17718795906E+02  0.35681094198E+02 -0.78895866898E+02  0.88389218941E+02  0.10000000000E+01 0.  0.
<mgrwt>
<rscale>  0 0.12499778E+03</rscale>
<asrwt>0</asrwt>
<pdfrwt beam="1">  1        4 0.63596349E-02 0.12499778E+03</pdfrwt>
<pdfrwt beam="2">  1       -4 0.14537366E-01 0.12499778E+03</pdfrwt>
<totfact> 0.10221107E+04</totfact>
</mgrwt>
</event>
<event>
 5    1  0.3304582E-002  0.1250030E+03  0.7818608E-02  0.1235065E+00
         -4   -1    0    0    0  501 -0.00000000000E+00  0.00000000000E+00  0.38790445211E+02  0.38811229556E+02  0.12700000000E+01 0. -1.
          4   -1    0    0  501    0  0.00000000000E+00 -0.00000000000E+00 -0.10065444641E+03  0.10066245816E+03  0.12700000000E+01 0. -1.
         25    2    1    2    0    0  0.00000000000E+00  0.00000000000E+00 -0.61864001202E+02  0.13947368772E+03  0.12500301964E+03 0.  0.
    9000005    1    3    3    0    0  0.21451740982E+02 -0.28885497515E+02 -0.87943968448E+02  0.95024684921E+02  0.10000000000E+01 0.  0.
    9000005    1    3    3    0    0 -0.21451740982E+02  0.28885497515E+02  0.26079967247E+02  0.44449002795E+02  0.10000000000E+01 0.  0.
<mgrwt>
<rscale>  0 0.12500302E+03</rscale>
<asrwt>0</asrwt>
<pdfrwt beam="2">  1        4 0.15487514E-01 0.12500302E+03</pdfrwt>
<pdfrwt beam="1">  1       -4 0.59699759E-02 0.12500302E+03</pdfrwt>
<totfact> 0.10143815E+04</totfact>
</mgrwt>
</event>
<event>
 5    1  0.3304582E-002  0.1250022E+03  0.7818608E-02  0.1235066E+00
         -4   -1    0    0    0  501 -0.00000000000E+00  0.00000000000E+00  0.23201921247E+01  0.26450314735E+01  0.12700000000E+01 0.  1.
          4   -1    0    0  501    0  0.00000000000E+00 -0.00000000000E+00 -0.15731746714E+04  0.15731751841E+04  0.12700000000E+01 0.  1.
         25    2    1    2    0    0  0.00000000000E+00  0.00000000000E+00 -0.15708544793E+04  0.15758202155E+04  0.12500222605E+03 0.  0.
    9000005    1    3    3    0    0  0.55738824389E+02  0.17400476075E+02 -0.50472851628E+03  0.50809592427E+03  0.10000000000E+01 0.  0.
    9000005    1    3    3    0    0 -0.55738824389E+02 -0.17400476075E+02 -0.10661259630E+04  0.10677242913E+04  0.10000000000E+01 0.  0.
<mgrwt>
<rscale>  0 0.12500223E+03</rscale>
<asrwt>0</asrwt>
<pdfrwt beam="2">  1        4 0.24205110E+00 0.12500223E+03</pdfrwt>
<pdfrwt beam="1">  1       -4 0.38198097E-03 0.12500223E+03</pdfrwt>
<totfact> 0.16486509E+03</totfact>
</mgrwt>
</event>
<event>
 5    1  0.3304582E-002  0.1249982E+03  0.7818608E-02  0.1235072E+00
          4   -1    0    0  501    0  0.00000000000E+00  0.00000000000E+00  0.26873765163E+03  0.26874065249E+03  0.12700000000E+01 0.  1.
         -4   -1    0    0    0  501 -0.00000000000E+00 -0.00000000000E+00 -0.14504306239E+02  0.14559800805E+02  0.12700000000E+01 0.  1.
         25    2    1    2    0    0  0.00000000000E+00  0.00000000000E+00  0.25423334539E+03  0.28330045330E+03  0.12499821171E+03 0.  0.
    9000005    1    3    3    0    0  0.47327698492E+02 -0.40785493175E+02  0.12410075000E+03  0.13894374274E+03  0.10000000000E+01 0.  0.
    9000005    1    3    3    0    0 -0.47327698492E+02  0.40785493175E+02  0.13013259539E+03  0.14435671055E+03  0.10000000000E+01 0.  0.
<mgrwt>
<rscale>  0 0.12499821E+03</rscale>
<asrwt>0</asrwt>
<pdfrwt beam="1">  1        4 0.41348752E-01 0.12499821E+03</pdfrwt>
<pdfrwt beam="2">  1       -4 0.22359315E-02 0.12499821E+03</pdfrwt>
<totfact> 0.77745605E+03</totfact>
</mgrwt>
</event>
<event>
 5    1  0.3304582E-002  0.1250032E+03  0.7818608E-02  0.1235064E+00
         -4   -1    0    0    0  501 -0.00000000000E+00  0.00000000000E+00  0.10069591078E+03  0.10070391923E+03  0.12700000000E+01 0. -1.
          4   -1    0    0  501    0  0.00000000000E+00 -0.00000000000E+00 -0.38774563461E+02  0.38795356315E+02  0.12700000000E+01 0. -1.
         25    2    1    2    0    0  0.00000000000E+00  0.00000000000E+00  0.61921347321E+02  0.13949927554E+03  0.12500317845E+03 0.  0.
    9000005    1    3    3    0    0  0.37092978630E+02 -0.49106244860E+02  0.43090165125E+02  0.75133711997E+02  0.10000000000E+01 0.  0.
    9000005    1    3    3    0    0 -0.37092978630E+02  0.49106244860E+02  0.18831182197E+02  0.64365563548E+02  0.10000000000E+01 0.  0.
<mgrwt>
<rscale>  0 0.12500318E+03</rscale>
<asrwt>0</asrwt>
<pdfrwt beam="2">  1        4 0.59675330E-02 0.12500318E+03</pdfrwt>
<pdfrwt beam="1">  1       -4 0.15493894E-01 0.12500318E+03</pdfrwt>
<totfact> 0.10143248E+04</totfact>
</mgrwt>
</event>
<event>
 5    1  0.3304582E-002  0.1249839E+03  0.7818608E-02  0.1235094E+00
          4   -1    0    0  501    0  0.00000000000E+00  0.00000000000E+00  0.80686048144E+01  0.81679424368E+01  0.12700000000E+01 0. -1.
         -4   -1    0    0    0  501 -0.00000000000E+00 -0.00000000000E+00 -0.48094335541E+03  0.48094503222E+03  0.12700000000E+01 0. -1.
         25    2    1    2    0    0  0.00000000000E+00  0.00000000000E+00 -0.47287475060E+03  0.48911297465E+03  0.12498388785E+03 0.  0.
    9000005    1    3    3    0    0 -0.31817541007E+02  0.42790571957E+02 -0.10897471419E+03  0.12132550143E+03  0.10000000000E+01 0.  0.
    9000005    1    3    3    0    0  0.31817541007E+02 -0.42790571957E+02 -0.36390003641E+03  0.36778747323E+03  0.10000000000E+01 0.  0.
<mgrwt>
<rscale>  0 0.12498389E+03</rscale>
<asrwt>0</asrwt>
<pdfrwt beam="1">  1        4 0.12490945E-02 0.12498389E+03</pdfrwt>
<pdfrwt beam="2">  1       -4 0.73999033E-01 0.12498389E+03</pdfrwt>
<totfact> 0.56739187E+03</totfact>
</mgrwt>
</event>
<event>
 5    1  0.3304582E-002  0.1250001E+03  0.7818608E-02  0.1235069E+00
         -4   -1    0    0    0  501 -0.00000000000E+00  0.00000000000E+00  0.53986257666E+02  0.54001193661E+02  0.12700000000E+01 0. -1.
          4   -1    0    0  501    0  0.00000000000E+00 -0.00000000000E+00 -0.72325975040E+02  0.72337124393E+02  0.12700000000E+01 0. -1.
         25    2    1    2    0    0  0.00000000000E+00  0.00000000000E+00 -0.18339717373E+02  0.12633831805E+03  0.12500010150E+03 0.  0.
    9000005    1    3    3    0    0  0.18972787287E+02  0.22422071144E+02  0.46579888572E+02  0.55076328411E+02  0.10000000000E+01 0.  0.
    9000005    1    3    3    0    0 -0.18972787287E+02 -0.22422071144E+02 -0.64919605945E+02  0.71261989643E+02  0.10000000000E+01 0.  0.
<mgrwt>
<rscale>  0 0.12500010E+03</rscale>
<asrwt>0</asrwt>
<pdfrwt beam="2">  1        4 0.11129080E-01 0.12500010E+03</pdfrwt>
<pdfrwt beam="1">  1       -4 0.83075847E-02 0.12500010E+03</pdfrwt>
<totfact> 0.10423532E+04</totfact>
</mgrwt>
</event>
<event>
 5    1  0.3304582E-002  0.1250012E+03  0.7818608E-02  0.1235067E+00
         -4   -1    0    0    0  501 -0.00000000000E+00  0.00000000000E+00  0.55795593954E+02  0.55810045733E+02  0.12700000000E+01 0. -1.
          4   -1    0    0  501    0  0.00000000000E+00 -0.00000000000E+00 -0.69982114200E+02  0.69993636910E+02  0.12700000000E+01 0. -1.
         25    2    1    2    0    0  0.00000000000E+00  0.00000000000E+00 -0.14186520245E+02  0.12580368264E+03  0.12500123683E+03 0.  0.
    9000005    1    3    3    0    0 -0.45970409994E+02  0.22699545480E+02  0.28868171107E+02  0.58846573928E+02  0.10000000000E+01 0.  0.
    9000005    1    3    3    0    0  0.45970409994E+02 -0.22699545480E+02 -0.43054691352E+02  0.66957108715E+02  0.10000000000E+01 0.  0.
<mgrwt>
<rscale>  0 0.12500124E+03</rscale>
<asrwt>0</asrwt>
<pdfrwt beam="2">  1        4 0.10768477E-01 0.12500124E+03</pdfrwt>
<pdfrwt beam="1">  1       -4 0.85859355E-02 0.12500124E+03</pdfrwt>
<totfact> 0.10434973E+04</totfact>
</mgrwt>
</event>
<event>
 5    1  0.3304582E-002  0.1250002E+03  0.7818608E-02  0.1235069E+00
          4   -1    0    0  501    0  0.00000000000E+00  0.00000000000E+00  0.50420720956E+01  0.51995568097E+01  0.12700000000E+01 0. -1.
         -4   -1    0    0    0  501 -0.00000000000E+00 -0.00000000000E+00 -0.76266240621E+03  0.76266346363E+03  0.12700000000E+01 0. -1.
         25    2    1    2    0    0  0.00000000000E+00  0.00000000000E+00 -0.75762033412E+03  0.76786302044E+03  0.12500018994E+03 0.  0.
    9000005    1    3    3    0    0 -0.36207894246E+02  0.25206670250E+02 -0.10693074667E+03  0.11567874660E+03  0.10000000000E+01 0.  0.
    9000005    1    3    3    0    0  0.36207894246E+02 -0.25206670250E+02 -0.65068958745E+03  0.65218427384E+03  0.10000000000E+01 0.  0.
<mgrwt>
<rscale>  0 0.12500019E+03</rscale>
<asrwt>0</asrwt>
<pdfrwt beam="1">  1        4 0.78789955E-03 0.12500019E+03</pdfrwt>
<pdfrwt beam="2">  1       -4 0.11734478E+00 0.12500019E+03</pdfrwt>
<totfact> 0.39733832E+03</totfact>
</mgrwt>
</event>
<event>
 5    1  0.3304582E-002  0.1249977E+03  0.7818608E-02  0.1235073E+00
         -4   -1    0    0    0  501 -0.00000000000E+00  0.00000000000E+00  0.93806601512E+03  0.93806687482E+03  0.12700000000E+01 0. -1.
          4   -1    0    0  501    0  0.00000000000E+00 -0.00000000000E+00 -0.40662783463E+01  0.42599905622E+01  0.12700000000E+01 0. -1.
         25    2    1    2    0    0  0.00000000000E+00  0.00000000000E+00  0.93399973678E+03  0.94232686538E+03  0.12499765164E+03 0.  0.
    9000005    1    3    3    0    0  0.17441631361E+02  0.33879411218E+02  0.84038362192E+03  0.84124767875E+03  0.10000000000E+01 0.  0.
    9000005    1    3    3    0    0 -0.17441631361E+02 -0.33879411218E+02  0.93616114859E+02  0.10107918663E+03  0.10000000000E+01 0.  0.
<mgrwt>
<rscale>  0 0.12499765E+03</rscale>
<asrwt>0</asrwt>
<pdfrwt beam="2">  1        4 0.64054746E-03 0.12499765E+03</pdfrwt>
<pdfrwt beam="1">  1       -4 0.14433302E+00 0.12499765E+03</pdfrwt>
<totfact> 0.32591597E+03</totfact>
</mgrwt>
</event>
<event>
 5    1  0.3304582E-002  0.1249992E+03  0.7818608E-02  0.1235070E+00
          4   -1    0    0  501    0  0.00000000000E+00  0.00000000000E+00  0.54184469029E+02  0.54199350401E+02  0.12700000000E+01 0. -1.
         -4   -1    0    0    0  501 -0.00000000000E+00 -0.00000000000E+00 -0.72060436744E+02  0.72071627176E+02  0.12700000000E+01 0. -1.
         25    2    1    2    0    0  0.00000000000E+00  0.00000000000E+00 -0.17875967715E+02  0.12627097758E+03  0.12499923822E+03 0.  0.
    9000005    1    3    3    0    0 -0.35387642467E+02 -0.10878982038E+02  0.41918681988E+02  0.55935797029E+02  0.10000000000E+01 0.  0.
    9000005    1    3    3    0    0  0.35387642467E+02  0.10878982038E+02 -0.59794649704E+02  0.70335180549E+02  0.10000000000E+01 0.  0.
<mgrwt>
<rscale>  0 0.12499924E+03</rscale>
<asrwt>0</asrwt>
<pdfrwt beam="1">  1        4 0.83380776E-02 0.12499924E+03</pdfrwt>
<pdfrwt beam="2">  1       -4 0.11088227E-01 0.12499924E+03</pdfrwt>
<totfact> 0.10425207E+04</totfact>
</mgrwt>
</event>
<event>
 5    1  0.3304582E-002  0.1250136E+03  0.7818608E-02  0.1235048E+00
          4   -1    0    0  501    0  0.00000000000E+00  0.00000000000E+00  0.17888811630E+02  0.17933836219E+02  0.12700000000E+01 0. -1.
         -4   -1    0    0    0  501 -0.00000000000E+00 -0.00000000000E+00 -0.21808889778E+03  0.21809259555E+03  0.12700000000E+01 0. -1.
         25    2    1    2    0    0  0.00000000000E+00  0.00000000000E+00 -0.20020008615E+03  0.23602643177E+03  0.12501360726E+03 0.  0.
    9000005    1    3    3    0    0  0.29057241015E+02 -0.48570405579E+02 -0.15014797669E+03  0.16046439623E+03  0.10000000000E+01 0.  0.
    9000005    1    3    3    0    0 -0.29057241015E+02  0.48570405579E+02 -0.50052109456E+02  0.75562035537E+02  0.10000000000E+01 0.  0.
<mgrwt>
<rscale>  0 0.12501361E+03</rscale>
<asrwt>0</asrwt>
<pdfrwt beam="1">  1        4 0.27558729E-02 0.12501361E+03</pdfrwt>
<pdfrwt beam="2">  1       -4 0.33555884E-01 0.12501361E+03</pdfrwt>
<totfact> 0.84367138E+03</totfact>
</mgrwt>
</event>
<event>
 5    1  0.3304582E-002  0.1249986E+03  0.7818608E-02  0.1235071E+00
          4   -1    0    0  501    0  0.00000000000E+00  0.00000000000E+00  0.43264898657E+02  0.43283534465E+02  0.12700000000E+01 0. -1.
         -4   -1    0    0    0  501 -0.00000000000E+00 -0.00000000000E+00 -0.90242252219E+02  0.90251188277E+02  0.12700000000E+01 0. -1.
         25    2    1    2    0    0  0.00000000000E+00  0.00000000000E+00 -0.46977353562E+02  0.13353472274E+03  0.12499860171E+03 0.  0.
    9000005    1    3    3    0    0  0.66024120615E+01 -0.37818529844E+02  0.29187102542E+02  0.48236086070E+02  0.10000000000E+01 0.  0.
    9000005    1    3    3    0    0 -0.66024120615E+01  0.37818529844E+02 -0.76164456104E+02  0.85298636672E+02  0.10000000000E+01 0.  0.
<mgrwt>
<rscale>  0 0.12499860E+03</rscale>
<asrwt>0</asrwt>
<pdfrwt beam="1">  1        4 0.66582592E-02 0.12499860E+03</pdfrwt>
<pdfrwt beam="2">  1       -4 0.13885544E-01 0.12499860E+03</pdfrwt>
<totfact> 0.10269372E+04</totfact>
</mgrwt>
</event>
<event>
 5    1  0.3304582E-002  0.1249974E+03  0.7818608E-02  0.1235073E+00
         -4   -1    0    0    0  501 -0.00000000000E+00  0.00000000000E+00  0.21206507106E+03  0.21206887387E+03  0.12700000000E+01 0. -1.
          4   -1    0    0  501    0  0.00000000000E+00 -0.00000000000E+00 -0.18393425862E+02  0.18437218199E+02  0.12700000000E+01 0. -1.
         25    2    1    2    0    0  0.00000000000E+00  0.00000000000E+00  0.19367164520E+03  0.23050609207E+03  0.12499740928E+03 0.  0.
    9000005    1    3    3    0    0 -0.55515090351E+02  0.27206660405E+02  0.11363225156E+03  0.12936543673E+03  0.10000000000E+01 0.  0.
    9000005    1    3    3    0    0  0.55515090351E+02 -0.27206660405E+02  0.80039393642E+02  0.10114065534E+03  0.10000000000E+01 0.  0.
<mgrwt>
<rscale>  0 0.12499741E+03</rscale>
<asrwt>0</asrwt>
<pdfrwt beam="2">  1        4 0.28334189E-02 0.12499741E+03</pdfrwt>
<pdfrwt beam="1">  1       -4 0.32629057E-01 0.12499741E+03</pdfrwt>
<totfact> 0.85236872E+03</totfact>
</mgrwt>
</event>
